 Entering Gaussian System, Link 0=g16
 Input=/net/homes/chemie/zhartovska/work/BioModel/Konrad/2oyy/2oyy12/2oyy16/2oyy16.com
 Output=/net/homes/chemie/zhartovska/work/BioModel/Konrad/2oyy/2oyy12/2oyy16/2oyy16.log
 Initial command:
 /afs/math/software/gaussian/g16.A03/g16/l1.exe "/scratch/zhartovska_gaussian.nXqB0ea/Gau-23361.inp" -scrdir="/scratch/zhartovska_gaussian.nXqB0ea/"
 Entering Link 1 = /afs/math/software/gaussian/g16.A03/g16/l1.exe PID=     23362.
  
 Copyright (c) 1988,1990,1992,1993,1995,1998,2003,2009,2016,
            Gaussian, Inc.  All Rights Reserved.
  
 This is part of the Gaussian(R) 16 program.  It is based on
 the Gaussian(R) 09 system (copyright 2009, Gaussian, Inc.),
 the Gaussian(R) 03 system (copyright 2003, Gaussian, Inc.),
 the Gaussian(R) 98 system (copyright 1998, Gaussian, Inc.),
 the Gaussian(R) 94 system (copyright 1995, Gaussian, Inc.),
 the Gaussian 92(TM) system (copyright 1992, Gaussian, Inc.),
 the Gaussian 90(TM) system (copyright 1990, Gaussian, Inc.),
 the Gaussian 88(TM) system (copyright 1988, Gaussian, Inc.),
 the Gaussian 86(TM) system (copyright 1986, Carnegie Mellon
 University), and the Gaussian 82(TM) system (copyright 1983,
 Carnegie Mellon University). Gaussian is a federally registered
 trademark of Gaussian, Inc.
  
 This software contains proprietary and confidential information,
 including trade secrets, belonging to Gaussian, Inc.
  
 This software is provided under written license and may be
 used, copied, transmitted, or stored only in accord with that
 written license.
  
 The following legend is applicable only to US Government
 contracts under FAR:
  
                    RESTRICTED RIGHTS LEGEND
  
 Use, reproduction and disclosure by the US Government is
 subject to restrictions as set forth in subparagraphs (a)
 and (c) of the Commercial Computer Software - Restricted
 Rights clause in FAR 52.227-19.
  
 Gaussian, Inc.
 340 Quinnipiac St., Bldg. 40, Wallingford CT 06492
  
  
 ---------------------------------------------------------------
 Warning -- This program may not be used in any manner that
 competes with the business of Gaussian, Inc. or will provide
 assistance to any competitor of Gaussian, Inc.  The licensee
 of this program is prohibited from giving any competitor of
 Gaussian, Inc. access to this program.  By using this program,
 the user acknowledges that Gaussian, Inc. is engaged in the
 business of creating and licensing software in the field of
 computational chemistry and represents and warrants to the
 licensee that it is not a competitor of Gaussian, Inc. and that
 it will not use this program in any manner prohibited above.
 ---------------------------------------------------------------
  

 Cite this work as:
 Gaussian 16, Revision A.03,
 M. J. Frisch, G. W. Trucks, H. B. Schlegel, G. E. Scuseria, 
 M. A. Robb, J. R. Cheeseman, G. Scalmani, V. Barone, 
 G. A. Petersson, H. Nakatsuji, X. Li, M. Caricato, A. V. Marenich, 
 J. Bloino, B. G. Janesko, R. Gomperts, B. Mennucci, H. P. Hratchian, 
 J. V. Ortiz, A. F. Izmaylov, J. L. Sonnenberg, D. Williams-Young, 
 F. Ding, F. Lipparini, F. Egidi, J. Goings, B. Peng, A. Petrone, 
 T. Henderson, D. Ranasinghe, V. G. Zakrzewski, J. Gao, N. Rega, 
 G. Zheng, W. Liang, M. Hada, M. Ehara, K. Toyota, R. Fukuda, 
 J. Hasegawa, M. Ishida, T. Nakajima, Y. Honda, O. Kitao, H. Nakai, 
 T. Vreven, K. Throssell, J. A. Montgomery, Jr., J. E. Peralta, 
 F. Ogliaro, M. J. Bearpark, J. J. Heyd, E. N. Brothers, K. N. Kudin, 
 V. N. Staroverov, T. A. Keith, R. Kobayashi, J. Normand, 
 K. Raghavachari, A. P. Rendell, J. C. Burant, S. S. Iyengar, 
 J. Tomasi, M. Cossi, J. M. Millam, M. Klene, C. Adamo, R. Cammi, 
 J. W. Ochterski, R. L. Martin, K. Morokuma, O. Farkas, 
 J. B. Foresman, and D. J. Fox, Gaussian, Inc., Wallingford CT, 2016.
 
 ******************************************
 Gaussian 16:  ES64L-G16RevA.03 25-Dec-2016
                 7-Nov-2022 
 ******************************************
 %nprocs=12
 Will use up to   12 processors via shared memory.
 %mem=16GB
 %oldchk=2oyy_III_D.chk
 %chk=2oyy_III_H.chk
 Copying data from "2oyy_III_D.chk" to current chk file "2oyy_III_H.chk"
 IOpt=  2 FromEx=T IUOpen= 4 IOptOp= 5 NList=   0 IFRang= 0 IUIn= 4 IUOut= 2.
 ----------------------------------------------------------------------
 # PBE1PBE/def2TZVP empiricaldispersion=GD3BJ int=(grid=ultrafine) geom
 =check pop=nbo
 ----------------------------------------------------------------------
 1/29=2,38=1,172=1/1;
 2/12=2,40=1/2;
 3/5=44,7=101,11=2,14=-4,25=1,30=1,74=-13,75=-5,124=41/1,2,3;
 4//1;
 5/5=2,38=5/2;
 6/7=2,8=2,9=2,10=2,28=1,40=1/1,7;
 99/5=1,9=1/99;
 ----------
 2oyy_III_H
 ----------
 Structure from the checkpoint file:  "2oyy_III_H.chk"
 Charge =  1 Multiplicity = 6
 Z-Matrix found in chk file.
 C,0,-9.798,9.567,15.464
 C,0,-10.572,10.224,14.346
 C,0,-11.964,10.299,14.396
 C,0,-9.92,10.785,13.233
 C,0,-12.695,10.906,13.365
 C,0,-10.646,11.407,12.204
 C,0,-12.03,11.46,12.279
 O,0,-12.773,12.062,11.295
 C,0,-15.456,14.809,9.857
 C,0,-12.225,12.768,6.963
 C,0,-12.602,8.644,9.439
 C,0,-16.236,10.516,12.035
 C,0,-14.536,14.635,8.864
 C,0,-14.104,15.652,7.922
 C,0,-13.201,15.086,7.114
 C,0,-13.05,13.7,7.529
 C,0,-12.439,15.754,5.946
 C,0,-14.611,17.115999,7.899
 C,0,-13.952,17.922001,9.031
 C,0,-14.447,19.354,9.039
 O,0,-14.57,19.983,7.957
 O,0,-14.731,19.879999,10.138
 C,0,-12.06,11.467,7.375
 C,0,-11.216,10.499,6.719
 C,0,-11.311,9.349,7.403
 C,0,-12.227,9.568,8.502
 C,0,-10.372,10.787,5.453
 C,0,-10.582,8.021,7.09
 C,0,-11.28375547,7.32876603,6.15999009
 C,0,-13.605,8.807,10.369
 C,0,-14.005,7.821,11.341
 C,0,-15.013,8.328,12.061
 C,0,-15.281,9.658,11.559
 C,0,-13.342,6.435,11.479
 C,0,-15.758,7.67,13.235
 C,0,-15.93524936,6.35172888,12.97555643
 C,0,-16.363001,11.84,11.68
 C,0,-17.370001,12.733,12.204
 C,0,-17.124001,14.046,11.519
 C,0,-15.992,13.838,10.657
 C,0,-18.482,12.454,13.226
 C,0,-17.924,15.343,11.748
 C,0,-17.15,16.049999,12.86
 C,0,-17.771999,17.357,13.25
 O,0,-18.888,17.295,13.836
 O,0,-17.142,18.426001,12.985
 N,0,-13.868,13.46,8.599
 N,0,-12.663,10.866,8.462
 N,0,-14.405,9.927,10.528
 N,0,-15.562,12.528,10.769
 Fe,0,-13.949,11.765,9.678
 H,0,-8.86501856,10.07356498,15.5975573
 H,0,-10.36538307,9.61984555,16.36964
 H,0,-9.61520081,8.54208922,15.21693251
 H,0,-8.85298002,10.73709658,13.16917502
 H,0,-10.13495082,11.83698145,11.36803069
 H,0,-13.76322137,10.94231674,13.41484172
 H,0,-12.48289756,9.8861245,15.23574945
 H,0,-15.79322632,15.81006832,10.02741312
 H,0,-11.65145596,13.08225846,6.11612996
 H,0,-12.07063392,7.71533258,9.45026587
 H,0,-16.94037542,10.12596611,12.73971898
 H,0,-18.13761199,12.70922065,14.20638733
 H,0,-19.34285814,13.04239052,12.98595863
 H,0,-18.74023506,11.41601569,13.19765891
 H,0,-11.50303124,15.25648972,5.79989734
 H,0,-13.02344933,15.68396244,5.05246
 H,0,-12.26324028,16.78378207,6.17742474
 H,0,-14.36545405,17.56129311,6.95755412
 H,0,-15.6730101,17.12530687,8.02918418
 H,0,-12.89094771,17.91813641,8.89296699
 H,0,-14.18567563,17.46457203,9.969645
 H,0,-14.03028509,20.16329122,10.72989875
 H,0,-16.18200771,18.42973429,12.98407454
 H,0,-16.14978671,16.22941527,12.52491319
 H,0,-17.11836401,15.41228011,13.71861155
 H,0,-17.93605347,15.93957399,10.85982536
 H,0,-18.92061415,15.11920119,12.06670729
 H,0,-15.18330663,7.78315809,14.13044557
 H,0,-16.71095896,8.13998775,13.36101877
 H,0,-15.37548305,5.77137634,13.67894295
 H,0,-16.97387691,6.10834964,13.05873918
 H,0,-15.59633561,6.13461792,11.98414315
 H,0,-12.39986347,6.53815839,11.97562571
 H,0,-13.97754988,5.79087255,12.0500308
 H,0,-13.18870667,6.014591,10.50706511
 H,0,-9.44512069,10.25587358,5.51382325
 H,0,-10.91009645,10.46711792,4.58522833
 H,0,-10.17760857,11.83700636,5.38518697
 H,0,-9.60269785,8.2317608,6.71390535
 H,0,-10.50298644,7.43822603,7.98388554
 H,0,-10.94092925,6.31546187,6.13580617
 H,0,-12.32372573,7.34754984,6.41100607
 H,0,-11.14068341,7.77673212,5.19886742
 H,0,-12.18536314,12.4581693,10.64744088
 Recover connectivity data from disk.
 Stoichiometry    C41H44FeN4O5(1+,6)
 Framework group  C1[X(C41H44FeN4O5)]
 Deg. of freedom   279
 Full point group                 C1      NOp   1
 Largest Abelian subgroup         C1      NOp   1
 Largest concise Abelian subgroup C1      NOp   1
                         Standard orientation:                         
 ---------------------------------------------------------------------
 Center     Atomic      Atomic             Coordinates (Angstroms)
 Number     Number       Type             X           Y           Z
 ---------------------------------------------------------------------
      1          6           0        4.234322   -2.734672    5.092978
      2          6           0        3.324331   -2.054154    4.098262
      3          6           0        2.750907   -2.776823    3.051971
      4          6           0        3.020503   -0.684443    4.199126
      5          6           0        1.904437   -2.157646    2.121445
      6          6           0        2.161896   -0.061775    3.278321
      7          6           0        1.612260   -0.805613    2.244641
      8          8           0        0.766830   -0.233178    1.327976
      9          6           0       -2.787468    0.142838   -0.681481
     10          6           0        0.240388    3.840925   -0.311996
     11          6           0        3.985430    0.812123   -0.596773
     12          6           0        0.964460   -2.864424   -1.494712
     13          6           0       -2.307372    1.412287   -0.537497
     14          6           0       -3.113220    2.609248   -0.375730
     15          6           0       -2.271101    3.642892   -0.270642
     16          6           0       -0.918308    3.117160   -0.368513
     17          6           0       -2.635645    5.133296   -0.078560
     18          6           0       -4.661612    2.639101   -0.326109
     19          6           0       -5.156496    2.152237    1.046261
     20          6           0       -6.670238    2.156028    1.111670
     21          8           0       -7.317730    3.125424    0.639950
     22          8           0       -7.246322    1.176881    1.635627
     23          6           0        1.518992    3.339986   -0.373655
     24          6           0        2.716728    4.143085   -0.361170
     25          6           0        3.764623    3.309002   -0.436018
     26          6           0        3.245678    1.959728   -0.506547
     27          6           0        2.734511    5.689203   -0.276090
     28          6           0        5.261501    3.699198   -0.445872
     29          6           0        5.637995    4.013877   -1.709121
     30          6           0        3.484540   -0.447234   -0.842958
     31          6           0        4.273556   -1.648122   -0.953870
     32          6           0        3.447019   -2.670059   -1.206842
     33          6           0        2.102681   -2.138909   -1.264834
     34          6           0        5.807554   -1.683751   -0.795153
     35          6           0        3.808496   -4.155282   -1.379208
     36          6           0        4.968815   -4.260413   -2.071433
     37          6           0       -0.320930   -2.388759   -1.365694
     38          6           0       -1.509866   -3.174613   -1.600087
     39          6           0       -2.654977   -2.235143   -1.355494
     40          6           0       -2.064363   -0.977253   -0.985869
     41          6           0       -1.636904   -4.645731   -2.022627
     42          6           0       -4.149987   -2.595048   -1.455807
     43          6           0       -4.511252   -3.025423   -0.034634
     44          6           0       -5.948604   -3.431373    0.093659
     45          8           0       -6.286068   -4.495709   -0.494563
     46          8           0       -6.720707   -2.700584    0.786256
     47          7           0       -0.974437    1.758859   -0.521787
     48          7           0        1.877447    2.009560   -0.462292
     49          7           0        2.153400   -0.779570   -1.036091
     50          7           0       -0.686008   -1.093298   -1.000501
     51         26           0        0.592548    0.498823   -0.548103
     52          1           0        4.102307   -2.291966    6.058111
     53          1           0        3.993530   -3.776059    5.142305
     54          1           0        5.251878   -2.618156    4.783297
     55          1           0        3.450725   -0.107142    4.990664
     56          1           0        1.933392    0.979190    3.373598
     57          1           0        1.484361   -2.725768    1.317906
     58          1           0        2.960685   -3.821832    2.957903
     59          1           0       -3.839938    0.010090   -0.541535
     60          1           0        0.142202    4.901491   -0.209718
     61          1           0        5.043572    0.900544   -0.464796
     62          1           0        1.083666   -3.883242   -1.799179
     63          1           0       -1.734818   -5.259753   -1.151829
     64          1           0       -2.500839   -4.765461   -2.642451
     65          1           0       -0.763560   -4.936874   -2.567976
     66          1           0       -1.835168    5.634292    0.424570
     67          1           0       -2.795938    5.587289   -1.034121
     68          1           0       -3.528083    5.209618    0.506786
     69          1           0       -5.002208    3.639956   -0.490983
     70          1           0       -5.053024    2.001080   -1.090718
     71          1           0       -4.770625    2.797415    1.807674
     72          1           0       -4.800334    1.157493    1.215179
     73          1           0       -7.247316    1.074981    2.590203
     74          1           0       -6.376409   -2.220694    1.543068
     75          1           0       -4.321278   -2.210508    0.632242
     76          1           0       -3.892191   -3.852454    0.244085
     77          1           0       -4.724066   -1.740577   -1.747716
     78          1           0       -4.297548   -3.402251   -2.142501
     79          1           0        3.925098   -4.608006   -0.416740
     80          1           0        3.027203   -4.652657   -1.915025
     81          1           0        5.723346   -4.682278   -1.440868
     82          1           0        4.820636   -4.892314   -2.922106
     83          1           0        5.278593   -3.289653   -2.397873
     84          1           0        6.060424   -1.616892    0.242385
     85          1           0        6.186426   -2.600532   -1.196240
     86          1           0        6.239847   -0.858545   -1.321515
     87          1           0        3.566225    6.004127    0.318869
     88          1           0        2.824250    6.099555   -1.260193
     89          1           0        1.825346    6.032241    0.171843
     90          1           0        5.414053    4.544104    0.192691
     91          1           0        5.847067    2.875733   -0.093852
     92          1           0        6.706159    4.023195   -1.771076
     93          1           0        5.247607    3.286060   -2.389400
     94          1           0        5.257480    4.980831   -1.964285
     95          1           0        0.600498    0.680083    1.572698
 ---------------------------------------------------------------------
 Rotational constants (GHZ):           0.0676043           0.0418842           0.0319553
 Standard basis: def2TZVP (5D, 7F)
 There are  2116 symmetry adapted cartesian basis functions of A   symmetry.
 There are  1859 symmetry adapted basis functions of A   symmetry.
  1859 basis functions,  3004 primitive gaussians,  2116 cartesian basis functions
   194 alpha electrons      189 beta electrons
       nuclear repulsion energy      7663.5799396905 Hartrees.
 NAtoms=   95 NActive=   95 NUniq=   95 SFac= 1.00D+00 NAtFMM=   60 NAOKFM=T Big=T
 Integral buffers will be    131072 words long.
 Raffenetti 2 integral format.
 Two-electron integral symmetry is turned on.
 Nuclear repulsion after empirical dispersion term =     7663.4469367962 Hartrees.
 One-electron integrals computed using PRISM.
   1 Symmetry operations used in ECPInt.
 ECPInt:  NShTT=  274911 NPrTT=  846941 LenC2=  194808 LenP2D=  387948.
 LDataN:  DoStor=T MaxTD1= 6 Len=  172
 NBasis=  1859 RedAO= T EigKep=  2.93D-06  NBF=  1859
 NBsUse=  1859 1.00D-06 EigRej= -1.00D+00 NBFU=  1859
 ExpMin= 4.20D-02 ExpMax= 3.01D+05 ExpMxC= 2.91D+03 IAcc=3 IRadAn=         5 AccDes= 0.00D+00
 Harris functional with IExCor= 1009 and IRadAn=       5 diagonalized for initial guess.
 HarFok:  IExCor= 1009 AccDes= 0.00D+00 IRadAn=         5 IDoV= 1 UseB2=F ITyADJ=14
 ICtDFT=  3500011 ScaDFX=  1.000000  1.000000  1.000000  1.000000
 FoFCou: FMM=F IPFlag=           0 FMFlag=      100000 FMFlg1=        2001
         NFxFlg=           0 DoJE=T BraDBF=F KetDBF=T FulRan=T
         wScrn=  0.000000 ICntrl=       500 IOpCl=  0 I1Cent=   200000004 NGrid=           0
         NMat0=    1 NMatS0=      1 NMatT0=    0 NMatD0=    1 NMtDS0=    0 NMtDT0=    0
 Petite list used in FoFCou.
 Initial guess <Sx>= 0.0000 <Sy>= 0.0000 <Sz>= 2.5000 <S**2>= 8.7500 S= 2.5000
 Requested convergence on RMS density matrix=1.00D-08 within 128 cycles.
 Requested convergence on MAX density matrix=1.00D-06.
 Requested convergence on             energy=1.00D-06.
 No special actions if energy rises.
 EnCoef did   100 forward-backward iterations
 EnCoef did   100 forward-backward iterations
 EnCoef did     7 forward-backward iterations
 EnCoef did     2 forward-backward iterations
 Restarting incremental Fock formation.
 SCF Done:  E(UPBE1PBE) =  -3445.68093023     A.U. after   29 cycles
            NFock= 29  Conv=0.50D-08     -V/T= 2.0030
 <Sx>= 0.0000 <Sy>= 0.0000 <Sz>= 2.5000 <S**2>= 8.7621 S= 2.5020
 <L.S>= 0.000000000000E+00
 Annihilation of the first spin contaminant:
 S**2 before annihilation     8.7621,   after     8.7500

 **********************************************************************

            Population analysis using the SCF density.

 **********************************************************************

 Orbital symmetries:
 Alpha Orbitals:
       Occupied  (A) (A) (A) (A) (A) (A) (A) (A) (A) (A) (A) (A)
                 (A) (A) (A) (A) (A) (A) (A) (A) (A) (A) (A) (A)
                 (A) (A) (A) (A) (A) (A) (A) (A) (A) (A) (A) (A)
                 (A) (A) (A) (A) (A) (A) (A) (A) (A) (A) (A) (A)
                 (A) (A) (A) (A) (A) (A) (A) (A) (A) (A) (A) (A)
                 (A) (A) (A) (A) (A) (A) (A) (A) (A) (A) (A) (A)
                 (A) (A) (A) (A) (A) (A) (A) (A) (A) (A) (A) (A)
                 (A) (A) (A) (A) (A) (A) (A) (A) (A) (A) (A) (A)
                 (A) (A) (A) (A) (A) (A) (A) (A) (A) (A) (A) (A)
                 (A) (A) (A) (A) (A) (A) (A) (A) (A) (A) (A) (A)
                 (A) (A) (A) (A) (A) (A) (A) (A) (A) (A) (A) (A)
                 (A) (A) (A) (A) (A) (A) (A) (A) (A) (A) (A) (A)
                 (A) (A) (A) (A) (A) (A) (A) (A) (A) (A) (A) (A)
                 (A) (A) (A) (A) (A) (A) (A) (A) (A) (A) (A) (A)
                 (A) (A) (A) (A) (A) (A) (A) (A) (A) (A) (A) (A)
                 (A) (A) (A) (A) (A) (A) (A) (A) (A) (A) (A) (A)
                 (A) (A)
       Virtual   (A) (A) (A) (A) (A) (A) (A) (A) (A) (A) (A) (A)
                 (A) (A) (A) (A) (A) (A) (A) (A) (A) (A) (A) (A)
                 (A) (A) (A) (A) (A) (A) (A) (A) (A) (A) (A) (A)
                 (A) (A) (A) (A) (A) (A) (A) (A) (A) (A) (A) (A)
                 (A) (A) (A) (A) (A) (A) (A) (A) (A) (A) (A) (A)
                 (A) (A) (A) (A) (A) (A) (A) (A) (A) (A) (A) (A)
                 (A) (A) (A) (A) (A) (A) (A) (A) (A) (A) (A) (A)
                 (A) (A) (A) (A) (A) (A) (A) (A) (A) (A) (A) (A)
                 (A) (A) (A) (A) (A) (A) (A) (A) (A) (A) (A) (A)
                 (A) (A) (A) (A) (A) (A) (A) (A) (A) (A) (A) (A)
                 (A) (A) (A) (A) (A) (A) (A) (A) (A) (A) (A) (A)
                 (A) (A) (A) (A) (A) (A) (A) (A) (A) (A) (A) (A)
                 (A) (A) (A) (A) (A) (A) (A) (A) (A) (A) (A) (A)
                 (A) (A) (A) (A) (A) (A) (A) (A) (A) (A) (A) (A)
                 (A) (A) (A) (A) (A) (A) (A) (A) (A) (A) (A) (A)
                 (A) (A) (A) (A) (A) (A) (A) (A) (A) (A) (A) (A)
                 (A) (A) (A) (A) (A) (A) (A) (A) (A) (A) (A) (A)
                 (A) (A) (A) (A) (A) (A) (A) (A) (A) (A) (A) (A)
                 (A) (A) (A) (A) (A) (A) (A) (A) (A) (A) (A) (A)
                 (A) (A) (A) (A) (A) (A) (A) (A) (A) (A) (A) (A)
                 (A) (A) (A) (A) (A) (A) (A) (A) (A) (A) (A) (A)
                 (A) (A) (A) (A) (A) (A) (A) (A) (A) (A) (A) (A)
                 (A) (A) (A) (A) (A) (A) (A) (A) (A) (A) (A) (A)
                 (A) (A) (A) (A) (A) (A) (A) (A) (A) (A) (A) (A)
                 (A) (A) (A) (A) (A) (A) (A) (A) (A) (A) (A) (A)
                 (A) (A) (A) (A) (A) (A) (A) (A) (A) (A) (A) (A)
                 (A) (A) (A) (A) (A) (A) (A) (A) (A) (A) (A) (A)
                 (A) (A) (A) (A) (A) (A) (A) (A) (A) (A) (A) (A)
                 (A) (A) (A) (A) (A) (A) (A) (A) (A) (A) (A) (A)
                 (A) (A) (A) (A) (A) (A) (A) (A) (A) (A) (A) (A)
                 (A) (A) (A) (A) (A) (A) (A) (A) (A) (A) (A) (A)
                 (A) (A) (A) (A) (A) (A) (A) (A) (A) (A) (A) (A)
                 (A) (A) (A) (A) (A) (A) (A) (A) (A) (A) (A) (A)
                 (A) (A) (A) (A) (A) (A) (A) (A) (A) (A) (A) (A)
                 (A) (A) (A) (A) (A) (A) (A) (A) (A) (A) (A) (A)
                 (A) (A) (A) (A) (A) (A) (A) (A) (A) (A) (A) (A)
                 (A) (A) (A) (A) (A) (A) (A) (A) (A) (A) (A) (A)
                 (A) (A) (A) (A) (A) (A) (A) (A) (A) (A) (A) (A)
                 (A) (A) (A) (A) (A) (A) (A) (A) (A) (A) (A) (A)
                 (A) (A) (A) (A) (A) (A) (A) (A) (A) (A) (A) (A)
                 (A) (A) (A) (A) (A) (A) (A) (A) (A) (A) (A) (A)
                 (A) (A) (A) (A) (A) (A) (A) (A) (A) (A) (A) (A)
                 (A) (A) (A) (A) (A) (A) (A) (A) (A) (A) (A) (A)
                 (A) (A) (A) (A) (A) (A) (A) (A) (A) (A) (A) (A)
                 (A) (A) (A) (A) (A) (A) (A) (A) (A) (A) (A) (A)
                 (A) (A) (A) (A) (A) (A) (A) (A) (A) (A) (A) (A)
                 (A) (A) (A) (A) (A) (A) (A) (A) (A) (A) (A) (A)
                 (A) (A) (A) (A) (A) (A) (A) (A) (A) (A) (A) (A)
                 (A) (A) (A) (A) (A) (A) (A) (A) (A) (A) (A) (A)
                 (A) (A) (A) (A) (A) (A) (A) (A) (A) (A) (A) (A)
                 (A) (A) (A) (A) (A) (A) (A) (A) (A) (A) (A) (A)
                 (A) (A) (A) (A) (A) (A) (A) (A) (A) (A) (A) (A)
                 (A) (A) (A) (A) (A) (A) (A) (A) (A) (A) (A) (A)
                 (A) (A) (A) (A) (A) (A) (A) (A) (A) (A) (A) (A)
                 (A) (A) (A) (A) (A) (A) (A) (A) (A) (A) (A) (A)
                 (A) (A) (A) (A) (A) (A) (A) (A) (A) (A) (A) (A)
                 (A) (A) (A) (A) (A) (A) (A) (A) (A) (A) (A) (A)
                 (A) (A) (A) (A) (A) (A) (A) (A) (A) (A) (A) (A)
                 (A) (A) (A) (A) (A) (A) (A) (A) (A) (A) (A) (A)
                 (A) (A) (A) (A) (A) (A) (A) (A) (A) (A) (A) (A)
                 (A) (A) (A) (A) (A) (A) (A) (A) (A) (A) (A) (A)
                 (A) (A) (A) (A) (A) (A) (A) (A) (A) (A) (A) (A)
                 (A) (A) (A) (A) (A) (A) (A) (A) (A) (A) (A) (A)
                 (A) (A) (A) (A) (A) (A) (A) (A) (A) (A) (A) (A)
                 (A) (A) (A) (A) (A) (A) (A) (A) (A) (A) (A) (A)
                 (A) (A) (A) (A) (A) (A) (A) (A) (A) (A) (A) (A)
                 (A) (A) (A) (A) (A) (A) (A) (A) (A) (A) (A) (A)
                 (A) (A) (A) (A) (A) (A) (A) (A) (A) (A) (A) (A)
                 (A) (A) (A) (A) (A) (A) (A) (A) (A) (A) (A) (A)
                 (A) (A) (A) (A) (A) (A) (A) (A) (A) (A) (A) (A)
                 (A) (A) (A) (A) (A) (A) (A) (A) (A) (A) (A) (A)
                 (A) (A) (A) (A) (A) (A) (A) (A) (A) (A) (A) (A)
                 (A) (A) (A) (A) (A) (A) (A) (A) (A) (A) (A) (A)
                 (A) (A) (A) (A) (A) (A) (A) (A) (A) (A) (A) (A)
                 (A) (A) (A) (A) (A) (A) (A) (A) (A) (A) (A) (A)
                 (A) (A) (A) (A) (A) (A) (A) (A) (A) (A) (A) (A)
                 (A) (A) (A) (A) (A) (A) (A) (A) (A) (A) (A) (A)
                 (A) (A) (A) (A) (A) (A) (A) (A) (A) (A) (A) (A)
                 (A) (A) (A) (A) (A) (A) (A) (A) (A) (A) (A) (A)
                 (A) (A) (A) (A) (A) (A) (A) (A) (A) (A) (A) (A)
                 (A) (A) (A) (A) (A) (A) (A) (A) (A) (A) (A) (A)
                 (A) (A) (A) (A) (A) (A) (A) (A) (A) (A) (A) (A)
                 (A) (A) (A) (A) (A) (A) (A) (A) (A) (A) (A) (A)
                 (A) (A) (A) (A) (A) (A) (A) (A) (A) (A) (A) (A)
                 (A) (A) (A) (A) (A) (A) (A) (A) (A) (A) (A) (A)
                 (A) (A) (A) (A) (A) (A) (A) (A) (A) (A) (A) (A)
                 (A) (A) (A) (A) (A) (A) (A) (A) (A) (A) (A) (A)
                 (A) (A) (A) (A) (A) (A) (A) (A) (A) (A) (A) (A)
                 (A) (A) (A) (A) (A) (A) (A) (A) (A) (A) (A) (A)
                 (A) (A) (A) (A) (A) (A) (A) (A) (A) (A) (A) (A)
                 (A) (A) (A) (A) (A) (A) (A) (A) (A) (A) (A) (A)
                 (A) (A) (A) (A) (A) (A) (A) (A) (A) (A) (A) (A)
                 (A) (A) (A) (A) (A) (A) (A) (A) (A) (A) (A) (A)
                 (A) (A) (A) (A) (A) (A) (A) (A) (A) (A) (A) (A)
                 (A) (A) (A) (A) (A) (A) (A) (A) (A) (A) (A) (A)
                 (A) (A) (A) (A) (A) (A) (A) (A) (A) (A) (A) (A)
                 (A) (A) (A) (A) (A) (A) (A) (A) (A) (A) (A) (A)
                 (A) (A) (A) (A) (A) (A) (A) (A) (A) (A) (A) (A)
                 (A) (A) (A) (A) (A) (A) (A) (A) (A) (A) (A) (A)
                 (A) (A) (A) (A) (A) (A) (A) (A) (A) (A) (A) (A)
                 (A) (A) (A) (A) (A) (A) (A) (A) (A) (A) (A) (A)
                 (A) (A) (A) (A) (A) (A) (A) (A) (A) (A) (A) (A)
                 (A) (A) (A) (A) (A) (A) (A) (A) (A) (A) (A) (A)
                 (A) (A) (A) (A) (A) (A) (A) (A) (A) (A) (A) (A)
                 (A) (A) (A) (A) (A) (A) (A) (A) (A) (A) (A) (A)
                 (A) (A) (A) (A) (A) (A) (A) (A) (A) (A) (A) (A)
                 (A) (A) (A) (A) (A) (A) (A) (A) (A) (A) (A) (A)
                 (A) (A) (A) (A) (A) (A) (A) (A) (A) (A) (A) (A)
                 (A) (A) (A) (A) (A) (A) (A) (A) (A) (A) (A) (A)
                 (A) (A) (A) (A) (A) (A) (A) (A) (A) (A) (A) (A)
                 (A) (A) (A) (A) (A) (A) (A) (A) (A) (A) (A) (A)
                 (A) (A) (A) (A) (A) (A) (A) (A) (A) (A) (A) (A)
                 (A) (A) (A) (A) (A) (A) (A) (A) (A) (A) (A) (A)
                 (A) (A) (A) (A) (A) (A) (A) (A) (A) (A) (A) (A)
                 (A) (A) (A) (A) (A) (A) (A) (A) (A) (A) (A) (A)
                 (A) (A) (A) (A) (A) (A) (A) (A) (A) (A) (A) (A)
                 (A) (A) (A) (A) (A) (A) (A) (A) (A) (A) (A) (A)
                 (A) (A) (A) (A) (A) (A) (A) (A) (A) (A) (A) (A)
                 (A) (A) (A) (A) (A) (A) (A) (A) (A) (A) (A) (A)
                 (A) (A) (A) (A) (A) (A) (A) (A) (A) (A) (A) (A)
                 (A) (A) (A) (A) (A) (A) (A) (A) (A) (A) (A) (A)
                 (A) (A) (A) (A) (A) (A) (A) (A) (A) (A) (A) (A)
                 (A) (A) (A) (A) (A) (A) (A) (A) (A) (A) (A) (A)
                 (A) (A) (A) (A) (A) (A) (A) (A) (A) (A) (A) (A)
                 (A) (A) (A) (A) (A) (A) (A) (A) (A) (A) (A) (A)
                 (A) (A) (A) (A) (A) (A) (A) (A) (A) (A) (A) (A)
                 (A) (A) (A) (A) (A) (A) (A) (A) (A) (A) (A) (A)
                 (A) (A) (A) (A) (A) (A) (A) (A) (A) (A) (A) (A)
                 (A) (A) (A) (A) (A) (A) (A) (A) (A) (A) (A) (A)
                 (A) (A) (A) (A) (A) (A) (A) (A) (A) (A) (A) (A)
                 (A) (A) (A) (A) (A) (A) (A) (A) (A) (A) (A) (A)
                 (A) (A) (A) (A) (A) (A) (A) (A) (A) (A) (A) (A)
                 (A) (A) (A) (A) (A) (A) (A) (A) (A) (A) (A) (A)
                 (A) (A) (A) (A) (A) (A) (A) (A) (A) (A) (A) (A)
                 (A) (A) (A) (A) (A) (A) (A) (A) (A) (A) (A) (A)
                 (A) (A) (A) (A) (A) (A) (A) (A) (A) (A) (A) (A)
                 (A) (A) (A) (A) (A) (A) (A) (A) (A) (A) (A) (A)
                 (A) (A) (A) (A) (A) (A) (A) (A) (A) (A) (A) (A)
                 (A) (A) (A) (A) (A) (A) (A) (A) (A)
 Beta  Orbitals:
       Occupied  (A) (A) (A) (A) (A) (A) (A) (A) (A) (A) (A) (A)
                 (A) (A) (A) (A) (A) (A) (A) (A) (A) (A) (A) (A)
                 (A) (A) (A) (A) (A) (A) (A) (A) (A) (A) (A) (A)
                 (A) (A) (A) (A) (A) (A) (A) (A) (A) (A) (A) (A)
                 (A) (A) (A) (A) (A) (A) (A) (A) (A) (A) (A) (A)
                 (A) (A) (A) (A) (A) (A) (A) (A) (A) (A) (A) (A)
                 (A) (A) (A) (A) (A) (A) (A) (A) (A) (A) (A) (A)
                 (A) (A) (A) (A) (A) (A) (A) (A) (A) (A) (A) (A)
                 (A) (A) (A) (A) (A) (A) (A) (A) (A) (A) (A) (A)
                 (A) (A) (A) (A) (A) (A) (A) (A) (A) (A) (A) (A)
                 (A) (A) (A) (A) (A) (A) (A) (A) (A) (A) (A) (A)
                 (A) (A) (A) (A) (A) (A) (A) (A) (A) (A) (A) (A)
                 (A) (A) (A) (A) (A) (A) (A) (A) (A) (A) (A) (A)
                 (A) (A) (A) (A) (A) (A) (A) (A) (A) (A) (A) (A)
                 (A) (A) (A) (A) (A) (A) (A) (A) (A) (A) (A) (A)
                 (A) (A) (A) (A) (A) (A) (A) (A) (A)
       Virtual   (A) (A) (A) (A) (A) (A) (A) (A) (A) (A) (A) (A)
                 (A) (A) (A) (A) (A) (A) (A) (A) (A) (A) (A) (A)
                 (A) (A) (A) (A) (A) (A) (A) (A) (A) (A) (A) (A)
                 (A) (A) (A) (A) (A) (A) (A) (A) (A) (A) (A) (A)
                 (A) (A) (A) (A) (A) (A) (A) (A) (A) (A) (A) (A)
                 (A) (A) (A) (A) (A) (A) (A) (A) (A) (A) (A) (A)
                 (A) (A) (A) (A) (A) (A) (A) (A) (A) (A) (A) (A)
                 (A) (A) (A) (A) (A) (A) (A) (A) (A) (A) (A) (A)
                 (A) (A) (A) (A) (A) (A) (A) (A) (A) (A) (A) (A)
                 (A) (A) (A) (A) (A) (A) (A) (A) (A) (A) (A) (A)
                 (A) (A) (A) (A) (A) (A) (A) (A) (A) (A) (A) (A)
                 (A) (A) (A) (A) (A) (A) (A) (A) (A) (A) (A) (A)
                 (A) (A) (A) (A) (A) (A) (A) (A) (A) (A) (A) (A)
                 (A) (A) (A) (A) (A) (A) (A) (A) (A) (A) (A) (A)
                 (A) (A) (A) (A) (A) (A) (A) (A) (A) (A) (A) (A)
                 (A) (A) (A) (A) (A) (A) (A) (A) (A) (A) (A) (A)
                 (A) (A) (A) (A) (A) (A) (A) (A) (A) (A) (A) (A)
                 (A) (A) (A) (A) (A) (A) (A) (A) (A) (A) (A) (A)
                 (A) (A) (A) (A) (A) (A) (A) (A) (A) (A) (A) (A)
                 (A) (A) (A) (A) (A) (A) (A) (A) (A) (A) (A) (A)
                 (A) (A) (A) (A) (A) (A) (A) (A) (A) (A) (A) (A)
                 (A) (A) (A) (A) (A) (A) (A) (A) (A) (A) (A) (A)
                 (A) (A) (A) (A) (A) (A) (A) (A) (A) (A) (A) (A)
                 (A) (A) (A) (A) (A) (A) (A) (A) (A) (A) (A) (A)
                 (A) (A) (A) (A) (A) (A) (A) (A) (A) (A) (A) (A)
                 (A) (A) (A) (A) (A) (A) (A) (A) (A) (A) (A) (A)
                 (A) (A) (A) (A) (A) (A) (A) (A) (A) (A) (A) (A)
                 (A) (A) (A) (A) (A) (A) (A) (A) (A) (A) (A) (A)
                 (A) (A) (A) (A) (A) (A) (A) (A) (A) (A) (A) (A)
                 (A) (A) (A) (A) (A) (A) (A) (A) (A) (A) (A) (A)
                 (A) (A) (A) (A) (A) (A) (A) (A) (A) (A) (A) (A)
                 (A) (A) (A) (A) (A) (A) (A) (A) (A) (A) (A) (A)
                 (A) (A) (A) (A) (A) (A) (A) (A) (A) (A) (A) (A)
                 (A) (A) (A) (A) (A) (A) (A) (A) (A) (A) (A) (A)
                 (A) (A) (A) (A) (A) (A) (A) (A) (A) (A) (A) (A)
                 (A) (A) (A) (A) (A) (A) (A) (A) (A) (A) (A) (A)
                 (A) (A) (A) (A) (A) (A) (A) (A) (A) (A) (A) (A)
                 (A) (A) (A) (A) (A) (A) (A) (A) (A) (A) (A) (A)
                 (A) (A) (A) (A) (A) (A) (A) (A) (A) (A) (A) (A)
                 (A) (A) (A) (A) (A) (A) (A) (A) (A) (A) (A) (A)
                 (A) (A) (A) (A) (A) (A) (A) (A) (A) (A) (A) (A)
                 (A) (A) (A) (A) (A) (A) (A) (A) (A) (A) (A) (A)
                 (A) (A) (A) (A) (A) (A) (A) (A) (A) (A) (A) (A)
                 (A) (A) (A) (A) (A) (A) (A) (A) (A) (A) (A) (A)
                 (A) (A) (A) (A) (A) (A) (A) (A) (A) (A) (A) (A)
                 (A) (A) (A) (A) (A) (A) (A) (A) (A) (A) (A) (A)
                 (A) (A) (A) (A) (A) (A) (A) (A) (A) (A) (A) (A)
                 (A) (A) (A) (A) (A) (A) (A) (A) (A) (A) (A) (A)
                 (A) (A) (A) (A) (A) (A) (A) (A) (A) (A) (A) (A)
                 (A) (A) (A) (A) (A) (A) (A) (A) (A) (A) (A) (A)
                 (A) (A) (A) (A) (A) (A) (A) (A) (A) (A) (A) (A)
                 (A) (A) (A) (A) (A) (A) (A) (A) (A) (A) (A) (A)
                 (A) (A) (A) (A) (A) (A) (A) (A) (A) (A) (A) (A)
                 (A) (A) (A) (A) (A) (A) (A) (A) (A) (A) (A) (A)
                 (A) (A) (A) (A) (A) (A) (A) (A) (A) (A) (A) (A)
                 (A) (A) (A) (A) (A) (A) (A) (A) (A) (A) (A) (A)
                 (A) (A) (A) (A) (A) (A) (A) (A) (A) (A) (A) (A)
                 (A) (A) (A) (A) (A) (A) (A) (A) (A) (A) (A) (A)
                 (A) (A) (A) (A) (A) (A) (A) (A) (A) (A) (A) (A)
                 (A) (A) (A) (A) (A) (A) (A) (A) (A) (A) (A) (A)
                 (A) (A) (A) (A) (A) (A) (A) (A) (A) (A) (A) (A)
                 (A) (A) (A) (A) (A) (A) (A) (A) (A) (A) (A) (A)
                 (A) (A) (A) (A) (A) (A) (A) (A) (A) (A) (A) (A)
                 (A) (A) (A) (A) (A) (A) (A) (A) (A) (A) (A) (A)
                 (A) (A) (A) (A) (A) (A) (A) (A) (A) (A) (A) (A)
                 (A) (A) (A) (A) (A) (A) (A) (A) (A) (A) (A) (A)
                 (A) (A) (A) (A) (A) (A) (A) (A) (A) (A) (A) (A)
                 (A) (A) (A) (A) (A) (A) (A) (A) (A) (A) (A) (A)
                 (A) (A) (A) (A) (A) (A) (A) (A) (A) (A) (A) (A)
                 (A) (A) (A) (A) (A) (A) (A) (A) (A) (A) (A) (A)
                 (A) (A) (A) (A) (A) (A) (A) (A) (A) (A) (A) (A)
                 (A) (A) (A) (A) (A) (A) (A) (A) (A) (A) (A) (A)
                 (A) (A) (A) (A) (A) (A) (A) (A) (A) (A) (A) (A)
                 (A) (A) (A) (A) (A) (A) (A) (A) (A) (A) (A) (A)
                 (A) (A) (A) (A) (A) (A) (A) (A) (A) (A) (A) (A)
                 (A) (A) (A) (A) (A) (A) (A) (A) (A) (A) (A) (A)
                 (A) (A) (A) (A) (A) (A) (A) (A) (A) (A) (A) (A)
                 (A) (A) (A) (A) (A) (A) (A) (A) (A) (A) (A) (A)
                 (A) (A) (A) (A) (A) (A) (A) (A) (A) (A) (A) (A)
                 (A) (A) (A) (A) (A) (A) (A) (A) (A) (A) (A) (A)
                 (A) (A) (A) (A) (A) (A) (A) (A) (A) (A) (A) (A)
                 (A) (A) (A) (A) (A) (A) (A) (A) (A) (A) (A) (A)
                 (A) (A) (A) (A) (A) (A) (A) (A) (A) (A) (A) (A)
                 (A) (A) (A) (A) (A) (A) (A) (A) (A) (A) (A) (A)
                 (A) (A) (A) (A) (A) (A) (A) (A) (A) (A) (A) (A)
                 (A) (A) (A) (A) (A) (A) (A) (A) (A) (A) (A) (A)
                 (A) (A) (A) (A) (A) (A) (A) (A) (A) (A) (A) (A)
                 (A) (A) (A) (A) (A) (A) (A) (A) (A) (A) (A) (A)
                 (A) (A) (A) (A) (A) (A) (A) (A) (A) (A) (A) (A)
                 (A) (A) (A) (A) (A) (A) (A) (A) (A) (A) (A) (A)
                 (A) (A) (A) (A) (A) (A) (A) (A) (A) (A) (A) (A)
                 (A) (A) (A) (A) (A) (A) (A) (A) (A) (A) (A) (A)
                 (A) (A) (A) (A) (A) (A) (A) (A) (A) (A) (A) (A)
                 (A) (A) (A) (A) (A) (A) (A) (A) (A) (A) (A) (A)
                 (A) (A) (A) (A) (A) (A) (A) (A) (A) (A) (A) (A)
                 (A) (A) (A) (A) (A) (A) (A) (A) (A) (A) (A) (A)
                 (A) (A) (A) (A) (A) (A) (A) (A) (A) (A) (A) (A)
                 (A) (A) (A) (A) (A) (A) (A) (A) (A) (A) (A) (A)
                 (A) (A) (A) (A) (A) (A) (A) (A) (A) (A) (A) (A)
                 (A) (A) (A) (A) (A) (A) (A) (A) (A) (A) (A) (A)
                 (A) (A) (A) (A) (A) (A) (A) (A) (A) (A) (A) (A)
                 (A) (A) (A) (A) (A) (A) (A) (A) (A) (A) (A) (A)
                 (A) (A) (A) (A) (A) (A) (A) (A) (A) (A) (A) (A)
                 (A) (A) (A) (A) (A) (A) (A) (A) (A) (A) (A) (A)
                 (A) (A) (A) (A) (A) (A) (A) (A) (A) (A) (A) (A)
                 (A) (A) (A) (A) (A) (A) (A) (A) (A) (A) (A) (A)
                 (A) (A) (A) (A) (A) (A) (A) (A) (A) (A) (A) (A)
                 (A) (A) (A) (A) (A) (A) (A) (A) (A) (A) (A) (A)
                 (A) (A) (A) (A) (A) (A) (A) (A) (A) (A) (A) (A)
                 (A) (A) (A) (A) (A) (A) (A) (A) (A) (A) (A) (A)
                 (A) (A) (A) (A) (A) (A) (A) (A) (A) (A) (A) (A)
                 (A) (A) (A) (A) (A) (A) (A) (A) (A) (A) (A) (A)
                 (A) (A) (A) (A) (A) (A) (A) (A) (A) (A) (A) (A)
                 (A) (A) (A) (A) (A) (A) (A) (A) (A) (A) (A) (A)
                 (A) (A) (A) (A) (A) (A) (A) (A) (A) (A) (A) (A)
                 (A) (A) (A) (A) (A) (A) (A) (A) (A) (A) (A) (A)
                 (A) (A) (A) (A) (A) (A) (A) (A) (A) (A) (A) (A)
                 (A) (A) (A) (A) (A) (A) (A) (A) (A) (A) (A) (A)
                 (A) (A) (A) (A) (A) (A) (A) (A) (A) (A) (A) (A)
                 (A) (A) (A) (A) (A) (A) (A) (A) (A) (A) (A) (A)
                 (A) (A) (A) (A) (A) (A) (A) (A) (A) (A) (A) (A)
                 (A) (A) (A) (A) (A) (A) (A) (A) (A) (A) (A) (A)
                 (A) (A) (A) (A) (A) (A) (A) (A) (A) (A) (A) (A)
                 (A) (A) (A) (A) (A) (A) (A) (A) (A) (A) (A) (A)
                 (A) (A) (A) (A) (A) (A) (A) (A) (A) (A) (A) (A)
                 (A) (A) (A) (A) (A) (A) (A) (A) (A) (A) (A) (A)
                 (A) (A) (A) (A) (A) (A) (A) (A) (A) (A) (A) (A)
                 (A) (A) (A) (A) (A) (A) (A) (A) (A) (A) (A) (A)
                 (A) (A) (A) (A) (A) (A) (A) (A) (A) (A) (A) (A)
                 (A) (A) (A) (A) (A) (A) (A) (A) (A) (A) (A) (A)
                 (A) (A) (A) (A) (A) (A) (A) (A) (A) (A) (A) (A)
                 (A) (A) (A) (A) (A) (A) (A) (A) (A) (A) (A) (A)
                 (A) (A) (A) (A) (A) (A) (A) (A) (A) (A) (A) (A)
                 (A) (A) (A) (A) (A) (A) (A) (A) (A) (A) (A) (A)
                 (A) (A) (A) (A) (A) (A) (A) (A) (A) (A) (A) (A)
                 (A) (A) (A) (A) (A) (A) (A) (A) (A) (A) (A) (A)
                 (A) (A) (A) (A) (A) (A) (A) (A) (A) (A) (A) (A)
                 (A) (A) (A) (A) (A) (A) (A) (A) (A) (A) (A) (A)
                 (A) (A) (A) (A) (A) (A) (A) (A) (A) (A) (A) (A)
                 (A) (A)
 The electronic state is 6-A.
 Alpha  occ. eigenvalues -- -256.59189 -30.41625 -26.23519 -26.23225 -26.23152
 Alpha  occ. eigenvalues --  -19.40228 -19.34405 -19.33785 -19.26490 -19.25149
 Alpha  occ. eigenvalues --  -14.50991 -14.50948 -14.49860 -14.49620 -10.43755
 Alpha  occ. eigenvalues --  -10.42848 -10.40144 -10.37347 -10.37334 -10.37217
 Alpha  occ. eigenvalues --  -10.37186 -10.36957 -10.36898 -10.36806 -10.36577
 Alpha  occ. eigenvalues --  -10.35283 -10.34943 -10.34110 -10.33868 -10.33855
 Alpha  occ. eigenvalues --  -10.33824 -10.33796 -10.33685 -10.33661 -10.33623
 Alpha  occ. eigenvalues --  -10.33409 -10.33317 -10.33261 -10.32996 -10.32976
 Alpha  occ. eigenvalues --  -10.32852 -10.32721 -10.32662 -10.32607 -10.32532
 Alpha  occ. eigenvalues --  -10.31738 -10.31447 -10.31333 -10.31118 -10.30608
 Alpha  occ. eigenvalues --  -10.30406 -10.30194 -10.29575 -10.27480 -10.27088
 Alpha  occ. eigenvalues --   -3.84045  -2.60573  -2.59941  -2.59790  -1.25855
 Alpha  occ. eigenvalues --   -1.24873  -1.23777  -1.11263  -1.10558  -1.10246
 Alpha  occ. eigenvalues --   -1.09654  -1.09313  -1.07740  -0.98727  -0.96344
 Alpha  occ. eigenvalues --   -0.95417  -0.95136  -0.94306  -0.93652  -0.93282
 Alpha  occ. eigenvalues --   -0.92741  -0.90104  -0.89968  -0.89632  -0.88976
 Alpha  occ. eigenvalues --   -0.88390  -0.87958  -0.87646  -0.85307  -0.82897
 Alpha  occ. eigenvalues --   -0.82492  -0.82244  -0.81692  -0.80679  -0.79325
 Alpha  occ. eigenvalues --   -0.78377  -0.77727  -0.77194  -0.75961  -0.75263
 Alpha  occ. eigenvalues --   -0.75199  -0.73364  -0.72980  -0.72714  -0.71303
 Alpha  occ. eigenvalues --   -0.70821  -0.68400  -0.67683  -0.67238  -0.66930
 Alpha  occ. eigenvalues --   -0.66029  -0.65571  -0.64925  -0.64642  -0.63634
 Alpha  occ. eigenvalues --   -0.63382  -0.62173  -0.61779  -0.61515  -0.60986
 Alpha  occ. eigenvalues --   -0.60592  -0.60357  -0.59806  -0.59269  -0.59087
 Alpha  occ. eigenvalues --   -0.58967  -0.58784  -0.58439  -0.58051  -0.57734
 Alpha  occ. eigenvalues --   -0.57510  -0.57102  -0.56846  -0.56237  -0.56133
 Alpha  occ. eigenvalues --   -0.55934  -0.55702  -0.55313  -0.55208  -0.54951
 Alpha  occ. eigenvalues --   -0.54570  -0.54490  -0.54126  -0.53927  -0.53737
 Alpha  occ. eigenvalues --   -0.53528  -0.53227  -0.52864  -0.52626  -0.52527
 Alpha  occ. eigenvalues --   -0.52042  -0.51835  -0.51634  -0.51539  -0.51365
 Alpha  occ. eigenvalues --   -0.51124  -0.50793  -0.50594  -0.50073  -0.49760
 Alpha  occ. eigenvalues --   -0.49200  -0.49134  -0.49001  -0.48817  -0.48358
 Alpha  occ. eigenvalues --   -0.48265  -0.47989  -0.47767  -0.47535  -0.46882
 Alpha  occ. eigenvalues --   -0.46548  -0.46409  -0.46002  -0.45666  -0.45553
 Alpha  occ. eigenvalues --   -0.44990  -0.44551  -0.44251  -0.43848  -0.43210
 Alpha  occ. eigenvalues --   -0.43159  -0.42955  -0.42798  -0.42215  -0.41646
 Alpha  occ. eigenvalues --   -0.40352  -0.40067  -0.39630  -0.37179  -0.36878
 Alpha  occ. eigenvalues --   -0.36526  -0.36024  -0.35845  -0.35460  -0.35200
 Alpha  occ. eigenvalues --   -0.34624  -0.33749  -0.31991  -0.31068
 Alpha virt. eigenvalues --   -0.19826  -0.19082  -0.12543  -0.11522  -0.10111
 Alpha virt. eigenvalues --   -0.09794  -0.09256  -0.08707  -0.07371  -0.07124
 Alpha virt. eigenvalues --   -0.06270  -0.05099  -0.04914  -0.04797  -0.04546
 Alpha virt. eigenvalues --   -0.04189  -0.03902  -0.03301  -0.03108  -0.02855
 Alpha virt. eigenvalues --   -0.02430  -0.02026  -0.01763  -0.01274  -0.01080
 Alpha virt. eigenvalues --   -0.00953  -0.00655  -0.00061  -0.00015   0.00336
 Alpha virt. eigenvalues --    0.00762   0.01158   0.01563   0.01669   0.01916
 Alpha virt. eigenvalues --    0.02148   0.02202   0.02291   0.02664   0.02939
 Alpha virt. eigenvalues --    0.03208   0.03420   0.03669   0.03856   0.04033
 Alpha virt. eigenvalues --    0.04113   0.04308   0.04603   0.04690   0.04760
 Alpha virt. eigenvalues --    0.04992   0.05253   0.05640   0.05727   0.05938
 Alpha virt. eigenvalues --    0.06011   0.06187   0.06503   0.06643   0.06711
 Alpha virt. eigenvalues --    0.07126   0.07198   0.07289   0.07629   0.07725
 Alpha virt. eigenvalues --    0.07888   0.08015   0.08337   0.08642   0.08851
 Alpha virt. eigenvalues --    0.09037   0.09255   0.09337   0.09610   0.09967
 Alpha virt. eigenvalues --    0.10005   0.10307   0.10412   0.10651   0.10742
 Alpha virt. eigenvalues --    0.11155   0.11510   0.11613   0.11792   0.12116
 Alpha virt. eigenvalues --    0.12176   0.12403   0.12439   0.12766   0.12998
 Alpha virt. eigenvalues --    0.13089   0.13403   0.13552   0.13712   0.13892
 Alpha virt. eigenvalues --    0.14173   0.14281   0.14620   0.14739   0.14913
 Alpha virt. eigenvalues --    0.15223   0.15454   0.15733   0.15781   0.15971
 Alpha virt. eigenvalues --    0.16193   0.16508   0.16654   0.16850   0.17334
 Alpha virt. eigenvalues --    0.17498   0.17610   0.17981   0.18186   0.18286
 Alpha virt. eigenvalues --    0.18585   0.18757   0.18825   0.19088   0.19366
 Alpha virt. eigenvalues --    0.19536   0.19684   0.19813   0.20184   0.20356
 Alpha virt. eigenvalues --    0.20477   0.20611   0.20870   0.21041   0.21231
 Alpha virt. eigenvalues --    0.21580   0.21930   0.22204   0.22363   0.22634
 Alpha virt. eigenvalues --    0.22795   0.22980   0.23262   0.23591   0.23684
 Alpha virt. eigenvalues --    0.23960   0.24410   0.24562   0.24874   0.24954
 Alpha virt. eigenvalues --    0.24997   0.25198   0.25466   0.25684   0.25913
 Alpha virt. eigenvalues --    0.26175   0.26276   0.26508   0.27224   0.27354
 Alpha virt. eigenvalues --    0.27430   0.27593   0.27819   0.28074   0.28299
 Alpha virt. eigenvalues --    0.28522   0.28781   0.28951   0.29174   0.29350
 Alpha virt. eigenvalues --    0.29434   0.29686   0.30143   0.30160   0.30341
 Alpha virt. eigenvalues --    0.30418   0.30494   0.30961   0.31128   0.31349
 Alpha virt. eigenvalues --    0.31644   0.31778   0.31900   0.32094   0.32324
 Alpha virt. eigenvalues --    0.32375   0.32410   0.32869   0.33143   0.33384
 Alpha virt. eigenvalues --    0.33484   0.33768   0.34093   0.34124   0.34270
 Alpha virt. eigenvalues --    0.34468   0.34604   0.34891   0.34945   0.35279
 Alpha virt. eigenvalues --    0.35519   0.35604   0.36017   0.36030   0.36250
 Alpha virt. eigenvalues --    0.36577   0.36697   0.36895   0.36940   0.37310
 Alpha virt. eigenvalues --    0.37383   0.37538   0.37726   0.38125   0.38314
 Alpha virt. eigenvalues --    0.38342   0.38392   0.38636   0.38821   0.38983
 Alpha virt. eigenvalues --    0.39241   0.39347   0.39502   0.39801   0.39899
 Alpha virt. eigenvalues --    0.39918   0.40129   0.40501   0.40635   0.40790
 Alpha virt. eigenvalues --    0.40996   0.41401   0.41476   0.41800   0.41888
 Alpha virt. eigenvalues --    0.42269   0.42407   0.42522   0.42801   0.42942
 Alpha virt. eigenvalues --    0.42981   0.43220   0.43404   0.43555   0.43743
 Alpha virt. eigenvalues --    0.44083   0.44258   0.44537   0.44716   0.44859
 Alpha virt. eigenvalues --    0.44918   0.45181   0.45287   0.45396   0.45579
 Alpha virt. eigenvalues --    0.45657   0.45997   0.46342   0.46536   0.46670
 Alpha virt. eigenvalues --    0.47031   0.47314   0.47532   0.47709   0.47982
 Alpha virt. eigenvalues --    0.48120   0.48471   0.48671   0.48841   0.49037
 Alpha virt. eigenvalues --    0.49259   0.49578   0.49613   0.49975   0.50240
 Alpha virt. eigenvalues --    0.50345   0.50467   0.50807   0.51040   0.51323
 Alpha virt. eigenvalues --    0.51603   0.51867   0.52034   0.52092   0.52520
 Alpha virt. eigenvalues --    0.52610   0.52765   0.52960   0.53303   0.53329
 Alpha virt. eigenvalues --    0.53770   0.53897   0.54288   0.54611   0.54857
 Alpha virt. eigenvalues --    0.55097   0.55391   0.55915   0.56067   0.56170
 Alpha virt. eigenvalues --    0.56582   0.56703   0.56825   0.57056   0.57170
 Alpha virt. eigenvalues --    0.57313   0.57409   0.57740   0.57872   0.58242
 Alpha virt. eigenvalues --    0.58286   0.58638   0.58707   0.59211   0.59333
 Alpha virt. eigenvalues --    0.59630   0.60043   0.60082   0.60258   0.60615
 Alpha virt. eigenvalues --    0.60794   0.61088   0.61116   0.61619   0.62035
 Alpha virt. eigenvalues --    0.62156   0.62364   0.62799   0.62874   0.62978
 Alpha virt. eigenvalues --    0.63424   0.63486   0.63737   0.64174   0.64510
 Alpha virt. eigenvalues --    0.64724   0.65091   0.65595   0.65917   0.66291
 Alpha virt. eigenvalues --    0.66474   0.66994   0.67232   0.67462   0.67592
 Alpha virt. eigenvalues --    0.68078   0.68288   0.68503   0.68933   0.69026
 Alpha virt. eigenvalues --    0.69240   0.69628   0.69750   0.70208   0.70679
 Alpha virt. eigenvalues --    0.71160   0.71534   0.71847   0.71980   0.72159
 Alpha virt. eigenvalues --    0.72451   0.72887   0.73092   0.73217   0.73421
 Alpha virt. eigenvalues --    0.73612   0.73848   0.74072   0.74507   0.74621
 Alpha virt. eigenvalues --    0.74809   0.75142   0.75478   0.75961   0.76265
 Alpha virt. eigenvalues --    0.76926   0.77163   0.77402   0.77641   0.77994
 Alpha virt. eigenvalues --    0.78388   0.78679   0.78896   0.79178   0.79606
 Alpha virt. eigenvalues --    0.80204   0.80246   0.80349   0.80523   0.80766
 Alpha virt. eigenvalues --    0.81245   0.81564   0.81720   0.82148   0.82565
 Alpha virt. eigenvalues --    0.82920   0.83053   0.83328   0.83519   0.83667
 Alpha virt. eigenvalues --    0.84245   0.84741   0.84933   0.85343   0.85411
 Alpha virt. eigenvalues --    0.85631   0.86112   0.86487   0.86664   0.86984
 Alpha virt. eigenvalues --    0.87261   0.87574   0.87895   0.88175   0.88443
 Alpha virt. eigenvalues --    0.88571   0.89029   0.89136   0.89424   0.89462
 Alpha virt. eigenvalues --    0.89845   0.90354   0.90541   0.90868   0.91042
 Alpha virt. eigenvalues --    0.91349   0.91711   0.92020   0.92125   0.92263
 Alpha virt. eigenvalues --    0.92737   0.92991   0.93249   0.93504   0.93895
 Alpha virt. eigenvalues --    0.94070   0.94585   0.94838   0.94911   0.95426
 Alpha virt. eigenvalues --    0.95708   0.96235   0.96480   0.96744   0.96950
 Alpha virt. eigenvalues --    0.97298   0.98029   0.98352   0.98668   0.98913
 Alpha virt. eigenvalues --    0.99100   0.99414   0.99607   1.00232   1.00455
 Alpha virt. eigenvalues --    1.00951   1.01290   1.01420   1.01497   1.02178
 Alpha virt. eigenvalues --    1.02491   1.02629   1.02754   1.03116   1.03517
 Alpha virt. eigenvalues --    1.03719   1.04470   1.04979   1.05141   1.05344
 Alpha virt. eigenvalues --    1.06166   1.06343   1.06503   1.06639   1.07189
 Alpha virt. eigenvalues --    1.07611   1.07964   1.08107   1.08860   1.09109
 Alpha virt. eigenvalues --    1.09239   1.09969   1.10359   1.10691   1.11097
 Alpha virt. eigenvalues --    1.11282   1.11560   1.12046   1.12179   1.12529
 Alpha virt. eigenvalues --    1.12994   1.13719   1.14086   1.14333   1.14458
 Alpha virt. eigenvalues --    1.14644   1.14894   1.15323   1.15490   1.15932
 Alpha virt. eigenvalues --    1.16270   1.16825   1.16974   1.17067   1.17498
 Alpha virt. eigenvalues --    1.17605   1.18020   1.18205   1.18467   1.18729
 Alpha virt. eigenvalues --    1.18985   1.19482   1.19595   1.20380   1.20886
 Alpha virt. eigenvalues --    1.21110   1.21741   1.21952   1.22430   1.22651
 Alpha virt. eigenvalues --    1.23021   1.23377   1.23862   1.24222   1.24415
 Alpha virt. eigenvalues --    1.24664   1.25011   1.25255   1.25707   1.25926
 Alpha virt. eigenvalues --    1.26239   1.26624   1.27408   1.27859   1.28016
 Alpha virt. eigenvalues --    1.28460   1.28855   1.29783   1.30083   1.30502
 Alpha virt. eigenvalues --    1.30941   1.31690   1.32168   1.32706   1.33012
 Alpha virt. eigenvalues --    1.33429   1.33752   1.34162   1.34646   1.35277
 Alpha virt. eigenvalues --    1.35348   1.36202   1.36409   1.36680   1.36824
 Alpha virt. eigenvalues --    1.36999   1.37357   1.37567   1.37867   1.38069
 Alpha virt. eigenvalues --    1.38924   1.39098   1.39430   1.39898   1.39963
 Alpha virt. eigenvalues --    1.40619   1.40937   1.41179   1.41577   1.42176
 Alpha virt. eigenvalues --    1.42474   1.42666   1.43082   1.43440   1.43784
 Alpha virt. eigenvalues --    1.43845   1.44317   1.44586   1.44903   1.45234
 Alpha virt. eigenvalues --    1.45548   1.46042   1.46385   1.46671   1.46740
 Alpha virt. eigenvalues --    1.47054   1.47209   1.47496   1.47897   1.48042
 Alpha virt. eigenvalues --    1.48712   1.48864   1.48886   1.48933   1.49363
 Alpha virt. eigenvalues --    1.49609   1.49759   1.50298   1.50476   1.50655
 Alpha virt. eigenvalues --    1.51075   1.51178   1.51253   1.51631   1.51975
 Alpha virt. eigenvalues --    1.52177   1.52749   1.52901   1.53002   1.53233
 Alpha virt. eigenvalues --    1.53510   1.53713   1.53997   1.54271   1.54461
 Alpha virt. eigenvalues --    1.54844   1.55123   1.55220   1.55311   1.55878
 Alpha virt. eigenvalues --    1.56207   1.56332   1.56515   1.57012   1.57223
 Alpha virt. eigenvalues --    1.57402   1.57592   1.57841   1.58226   1.58643
 Alpha virt. eigenvalues --    1.58808   1.59011   1.59392   1.59474   1.60032
 Alpha virt. eigenvalues --    1.60097   1.60335   1.60606   1.60957   1.61175
 Alpha virt. eigenvalues --    1.61670   1.61977   1.62304   1.62429   1.63037
 Alpha virt. eigenvalues --    1.63208   1.63375   1.63747   1.63899   1.64379
 Alpha virt. eigenvalues --    1.64492   1.64651   1.65093   1.65714   1.66010
 Alpha virt. eigenvalues --    1.66354   1.66547   1.66611   1.67376   1.68097
 Alpha virt. eigenvalues --    1.68416   1.68571   1.69086   1.69449   1.69649
 Alpha virt. eigenvalues --    1.70368   1.70693   1.71452   1.71941   1.72346
 Alpha virt. eigenvalues --    1.72777   1.73167   1.73366   1.73504   1.73926
 Alpha virt. eigenvalues --    1.74501   1.74639   1.74784   1.74970   1.75829
 Alpha virt. eigenvalues --    1.75936   1.76096   1.76592   1.77499   1.77582
 Alpha virt. eigenvalues --    1.77727   1.78183   1.78471   1.78587   1.78734
 Alpha virt. eigenvalues --    1.79426   1.79583   1.79848   1.80400   1.80763
 Alpha virt. eigenvalues --    1.80942   1.81238   1.81974   1.82155   1.82771
 Alpha virt. eigenvalues --    1.83368   1.83581   1.84039   1.84797   1.84867
 Alpha virt. eigenvalues --    1.85221   1.85754   1.86126   1.86452   1.86943
 Alpha virt. eigenvalues --    1.87326   1.87485   1.87606   1.87803   1.88117
 Alpha virt. eigenvalues --    1.88583   1.89129   1.89419   1.89568   1.89794
 Alpha virt. eigenvalues --    1.90533   1.90636   1.90816   1.91188   1.91876
 Alpha virt. eigenvalues --    1.92056   1.92388   1.92780   1.93304   1.93564
 Alpha virt. eigenvalues --    1.94849   1.94951   1.95394   1.95747   1.95983
 Alpha virt. eigenvalues --    1.96448   1.96782   1.97031   1.97480   1.97584
 Alpha virt. eigenvalues --    1.97745   1.97994   1.98227   1.98586   1.98889
 Alpha virt. eigenvalues --    1.99255   1.99898   2.00042   2.00242   2.00690
 Alpha virt. eigenvalues --    2.01286   2.01755   2.02272   2.02319   2.02642
 Alpha virt. eigenvalues --    2.03447   2.03588   2.04478   2.05084   2.05310
 Alpha virt. eigenvalues --    2.05473   2.05790   2.05937   2.06276   2.06861
 Alpha virt. eigenvalues --    2.06962   2.07525   2.07609   2.08016   2.08404
 Alpha virt. eigenvalues --    2.08444   2.09053   2.09441   2.09822   2.09917
 Alpha virt. eigenvalues --    2.10509   2.10821   2.11061   2.11264   2.11543
 Alpha virt. eigenvalues --    2.11715   2.12209   2.12817   2.13045   2.13526
 Alpha virt. eigenvalues --    2.13831   2.14256   2.14638   2.14863   2.15028
 Alpha virt. eigenvalues --    2.15265   2.16016   2.16494   2.17064   2.17262
 Alpha virt. eigenvalues --    2.17584   2.17882   2.18696   2.18941   2.19349
 Alpha virt. eigenvalues --    2.19469   2.19764   2.20137   2.21117   2.21614
 Alpha virt. eigenvalues --    2.21932   2.22868   2.23131   2.23175   2.24015
 Alpha virt. eigenvalues --    2.24576   2.24663   2.25047   2.25426   2.26162
 Alpha virt. eigenvalues --    2.26374   2.26492   2.26987   2.27373   2.27775
 Alpha virt. eigenvalues --    2.28202   2.28725   2.29066   2.29431   2.29607
 Alpha virt. eigenvalues --    2.29892   2.30190   2.30790   2.30968   2.31268
 Alpha virt. eigenvalues --    2.31651   2.32189   2.32254   2.32652   2.33147
 Alpha virt. eigenvalues --    2.33376   2.33732   2.33975   2.34349   2.35052
 Alpha virt. eigenvalues --    2.35213   2.35730   2.35907   2.36320   2.36535
 Alpha virt. eigenvalues --    2.36929   2.37302   2.37561   2.37691   2.37884
 Alpha virt. eigenvalues --    2.38357   2.38780   2.38906   2.39139   2.39403
 Alpha virt. eigenvalues --    2.40163   2.40586   2.40856   2.40982   2.41650
 Alpha virt. eigenvalues --    2.41930   2.42113   2.42768   2.43168   2.43475
 Alpha virt. eigenvalues --    2.44001   2.44618   2.44996   2.45113   2.45647
 Alpha virt. eigenvalues --    2.45852   2.46448   2.46815   2.46852   2.47250
 Alpha virt. eigenvalues --    2.47503   2.47829   2.48128   2.48247   2.48465
 Alpha virt. eigenvalues --    2.48985   2.49072   2.49252   2.50109   2.50294
 Alpha virt. eigenvalues --    2.50496   2.50768   2.51681   2.52002   2.52243
 Alpha virt. eigenvalues --    2.52441   2.52851   2.53266   2.53532   2.53661
 Alpha virt. eigenvalues --    2.53775   2.54219   2.54393   2.54532   2.54813
 Alpha virt. eigenvalues --    2.55204   2.55383   2.56280   2.56675   2.56895
 Alpha virt. eigenvalues --    2.56991   2.57240   2.57579   2.57818   2.58261
 Alpha virt. eigenvalues --    2.58642   2.58754   2.58910   2.59007   2.59264
 Alpha virt. eigenvalues --    2.59721   2.59945   2.60391   2.60439   2.60553
 Alpha virt. eigenvalues --    2.60852   2.61262   2.61528   2.62551   2.62758
 Alpha virt. eigenvalues --    2.63010   2.63656   2.63776   2.63894   2.64135
 Alpha virt. eigenvalues --    2.64723   2.64817   2.65081   2.65307   2.65519
 Alpha virt. eigenvalues --    2.65640   2.65879   2.66389   2.66690   2.67020
 Alpha virt. eigenvalues --    2.67235   2.67830   2.68079   2.68135   2.68747
 Alpha virt. eigenvalues --    2.69010   2.69208   2.69529   2.70362   2.70477
 Alpha virt. eigenvalues --    2.70889   2.70980   2.71107   2.71864   2.72238
 Alpha virt. eigenvalues --    2.72543   2.72685   2.73136   2.73290   2.73561
 Alpha virt. eigenvalues --    2.74093   2.74512   2.75019   2.75083   2.75314
 Alpha virt. eigenvalues --    2.76122   2.76530   2.76681   2.77340   2.77598
 Alpha virt. eigenvalues --    2.78112   2.78340   2.78587   2.78935   2.78948
 Alpha virt. eigenvalues --    2.79632   2.79822   2.80289   2.80996   2.81100
 Alpha virt. eigenvalues --    2.81316   2.81601   2.81928   2.82495   2.83035
 Alpha virt. eigenvalues --    2.83190   2.83465   2.83544   2.83829   2.84242
 Alpha virt. eigenvalues --    2.84567   2.85052   2.85281   2.85664   2.85811
 Alpha virt. eigenvalues --    2.86605   2.87089   2.87200   2.87487   2.87823
 Alpha virt. eigenvalues --    2.88129   2.88320   2.88576   2.88862   2.89316
 Alpha virt. eigenvalues --    2.89873   2.90131   2.90355   2.90550   2.90917
 Alpha virt. eigenvalues --    2.91329   2.91738   2.92266   2.92390   2.92796
 Alpha virt. eigenvalues --    2.93039   2.93345   2.94017   2.94078   2.94665
 Alpha virt. eigenvalues --    2.94922   2.95242   2.95476   2.95731   2.96065
 Alpha virt. eigenvalues --    2.96270   2.96548   2.96791   2.97027   2.97455
 Alpha virt. eigenvalues --    2.97538   2.97838   2.98015   2.98316   2.98591
 Alpha virt. eigenvalues --    2.99049   2.99183   2.99541   2.99711   2.99945
 Alpha virt. eigenvalues --    3.00201   3.00583   3.00717   3.01040   3.01130
 Alpha virt. eigenvalues --    3.01491   3.01846   3.02160   3.02336   3.02658
 Alpha virt. eigenvalues --    3.02759   3.03423   3.03868   3.04224   3.04248
 Alpha virt. eigenvalues --    3.04307   3.04857   3.05041   3.05469   3.05717
 Alpha virt. eigenvalues --    3.06162   3.06386   3.06725   3.06870   3.07017
 Alpha virt. eigenvalues --    3.07341   3.07577   3.07890   3.08127   3.08334
 Alpha virt. eigenvalues --    3.08398   3.08635   3.09309   3.09429   3.09837
 Alpha virt. eigenvalues --    3.10066   3.10492   3.10857   3.11127   3.11430
 Alpha virt. eigenvalues --    3.11855   3.11946   3.12328   3.12564   3.12875
 Alpha virt. eigenvalues --    3.13122   3.13550   3.13697   3.13726   3.13951
 Alpha virt. eigenvalues --    3.14191   3.14475   3.14665   3.14768   3.15482
 Alpha virt. eigenvalues --    3.15738   3.15956   3.16294   3.16680   3.16932
 Alpha virt. eigenvalues --    3.17139   3.17423   3.17753   3.17921   3.18447
 Alpha virt. eigenvalues --    3.18823   3.18860   3.19001   3.19075   3.19384
 Alpha virt. eigenvalues --    3.19753   3.19986   3.20347   3.20654   3.21102
 Alpha virt. eigenvalues --    3.21350   3.21416   3.21705   3.22018   3.22566
 Alpha virt. eigenvalues --    3.22670   3.22960   3.23276   3.23525   3.23707
 Alpha virt. eigenvalues --    3.24162   3.24302   3.24672   3.25132   3.25254
 Alpha virt. eigenvalues --    3.25406   3.25641   3.26085   3.26342   3.26506
 Alpha virt. eigenvalues --    3.27053   3.27294   3.27493   3.27684   3.27972
 Alpha virt. eigenvalues --    3.28208   3.28299   3.28494   3.28712   3.28779
 Alpha virt. eigenvalues --    3.29325   3.29580   3.29671   3.29910   3.30022
 Alpha virt. eigenvalues --    3.30575   3.30670   3.31097   3.31300   3.31632
 Alpha virt. eigenvalues --    3.31666   3.31854   3.32383   3.32675   3.32865
 Alpha virt. eigenvalues --    3.33084   3.33322   3.33542   3.33919   3.33975
 Alpha virt. eigenvalues --    3.34171   3.34534   3.34612   3.35198   3.35513
 Alpha virt. eigenvalues --    3.35627   3.35767   3.36075   3.36306   3.36701
 Alpha virt. eigenvalues --    3.37077   3.37607   3.37846   3.37940   3.38008
 Alpha virt. eigenvalues --    3.38304   3.38958   3.39404   3.39677   3.39735
 Alpha virt. eigenvalues --    3.40001   3.40172   3.40468   3.40957   3.41255
 Alpha virt. eigenvalues --    3.41684   3.41915   3.42629   3.43054   3.43267
 Alpha virt. eigenvalues --    3.43433   3.43875   3.44017   3.44475   3.44660
 Alpha virt. eigenvalues --    3.45330   3.45703   3.45971   3.46194   3.46472
 Alpha virt. eigenvalues --    3.46775   3.47211   3.47560   3.47849   3.48158
 Alpha virt. eigenvalues --    3.48684   3.49413   3.49607   3.50017   3.50623
 Alpha virt. eigenvalues --    3.50786   3.50999   3.51179   3.51802   3.52108
 Alpha virt. eigenvalues --    3.52789   3.52841   3.53236   3.53604   3.54763
 Alpha virt. eigenvalues --    3.54937   3.55171   3.55556   3.55760   3.56121
 Alpha virt. eigenvalues --    3.56207   3.56987   3.57589   3.57637   3.58214
 Alpha virt. eigenvalues --    3.58549   3.58789   3.59444   3.59765   3.59910
 Alpha virt. eigenvalues --    3.60393   3.60584   3.60974   3.61176   3.61336
 Alpha virt. eigenvalues --    3.61892   3.62179   3.62710   3.63138   3.63431
 Alpha virt. eigenvalues --    3.63708   3.64009   3.64227   3.64998   3.65075
 Alpha virt. eigenvalues --    3.65860   3.66136   3.66280   3.67201   3.67320
 Alpha virt. eigenvalues --    3.67685   3.68290   3.68646   3.68883   3.69133
 Alpha virt. eigenvalues --    3.70132   3.70287   3.70832   3.71208   3.71611
 Alpha virt. eigenvalues --    3.72027   3.72627   3.73174   3.73372   3.73836
 Alpha virt. eigenvalues --    3.74070   3.74382   3.74454   3.74906   3.75826
 Alpha virt. eigenvalues --    3.76362   3.77089   3.77372   3.77711   3.78167
 Alpha virt. eigenvalues --    3.78737   3.79269   3.79992   3.80392   3.80753
 Alpha virt. eigenvalues --    3.80877   3.81421   3.81841   3.82271   3.82881
 Alpha virt. eigenvalues --    3.83204   3.83763   3.83829   3.84118   3.84776
 Alpha virt. eigenvalues --    3.85402   3.85644   3.86027   3.86681   3.87015
 Alpha virt. eigenvalues --    3.87359   3.88217   3.88896   3.89384   3.89506
 Alpha virt. eigenvalues --    3.89950   3.91041   3.91239   3.91840   3.92412
 Alpha virt. eigenvalues --    3.93075   3.93151   3.93810   3.94232   3.94357
 Alpha virt. eigenvalues --    3.94714   3.95287   3.95531   3.96191   3.96586
 Alpha virt. eigenvalues --    3.97064   3.97501   3.97869   3.98780   3.99359
 Alpha virt. eigenvalues --    3.99793   4.00504   4.00663   4.01628   4.01838
 Alpha virt. eigenvalues --    4.02209   4.02710   4.02971   4.03252   4.03637
 Alpha virt. eigenvalues --    4.04346   4.04712   4.04934   4.05210   4.05459
 Alpha virt. eigenvalues --    4.06159   4.06553   4.06666   4.06845   4.07343
 Alpha virt. eigenvalues --    4.07748   4.08372   4.09285   4.09450   4.10097
 Alpha virt. eigenvalues --    4.10422   4.10873   4.11615   4.11747   4.12038
 Alpha virt. eigenvalues --    4.12323   4.12461   4.13193   4.13403   4.13601
 Alpha virt. eigenvalues --    4.14825   4.15213   4.15456   4.15938   4.16439
 Alpha virt. eigenvalues --    4.17000   4.17088   4.18068   4.18745   4.19575
 Alpha virt. eigenvalues --    4.20204   4.20816   4.21439   4.22316   4.22696
 Alpha virt. eigenvalues --    4.22930   4.23516   4.24481   4.25540   4.26148
 Alpha virt. eigenvalues --    4.26368   4.26977   4.27108   4.27546   4.28010
 Alpha virt. eigenvalues --    4.28637   4.29041   4.29494   4.29542   4.30168
 Alpha virt. eigenvalues --    4.30808   4.31864   4.32096   4.32385   4.33321
 Alpha virt. eigenvalues --    4.33649   4.34770   4.35069   4.35439   4.36259
 Alpha virt. eigenvalues --    4.36680   4.37941   4.38892   4.39546   4.39691
 Alpha virt. eigenvalues --    4.39975   4.40809   4.41064   4.41355   4.42416
 Alpha virt. eigenvalues --    4.44081   4.45364   4.45461   4.45772   4.46014
 Alpha virt. eigenvalues --    4.46167   4.47787   4.48686   4.48926   4.49506
 Alpha virt. eigenvalues --    4.49746   4.50484   4.50610   4.51671   4.52054
 Alpha virt. eigenvalues --    4.53559   4.53753   4.54299   4.55261   4.55638
 Alpha virt. eigenvalues --    4.55822   4.55963   4.57084   4.57957   4.58463
 Alpha virt. eigenvalues --    4.59383   4.59629   4.61195   4.61550   4.61976
 Alpha virt. eigenvalues --    4.62247   4.62897   4.63114   4.63697   4.64448
 Alpha virt. eigenvalues --    4.64971   4.66128   4.66304   4.66591   4.67611
 Alpha virt. eigenvalues --    4.68134   4.68646   4.69241   4.70524   4.71421
 Alpha virt. eigenvalues --    4.72214   4.72776   4.73865   4.74199   4.75227
 Alpha virt. eigenvalues --    4.75865   4.76870   4.77594   4.78663   4.79093
 Alpha virt. eigenvalues --    4.79403   4.79732   4.80759   4.80978   4.81310
 Alpha virt. eigenvalues --    4.81819   4.82175   4.82743   4.83015   4.84413
 Alpha virt. eigenvalues --    4.85618   4.85979   4.86250   4.87343   4.87584
 Alpha virt. eigenvalues --    4.88510   4.88549   4.89859   4.90016   4.90671
 Alpha virt. eigenvalues --    4.91490   4.91874   4.92847   4.94139   4.96127
 Alpha virt. eigenvalues --    4.96845   4.97766   5.00164   5.00998   5.03719
 Alpha virt. eigenvalues --    5.04156   5.05137   5.05346   5.06628   5.07334
 Alpha virt. eigenvalues --    5.08542   5.10007   5.10142   5.11197   5.11398
 Alpha virt. eigenvalues --    5.11678   5.12260   5.13087   5.13950   5.14181
 Alpha virt. eigenvalues --    5.16015   5.16284   5.18133   5.18986   5.20039
 Alpha virt. eigenvalues --    5.20885   5.21462   5.21886   5.23087   5.24116
 Alpha virt. eigenvalues --    5.24489   5.24613   5.27624   5.28948   5.30356
 Alpha virt. eigenvalues --    5.31772   5.33488   5.34531   5.34830   5.35109
 Alpha virt. eigenvalues --    5.35520   5.35620   5.36669   5.36996   5.37718
 Alpha virt. eigenvalues --    5.38533   5.41185   5.43463   5.44688   5.47058
 Alpha virt. eigenvalues --    5.47623   5.47997   5.48325   5.49396   5.50223
 Alpha virt. eigenvalues --    5.50472   5.50481   5.52124   5.53086   5.56168
 Alpha virt. eigenvalues --    5.57291   5.57955   5.61361   5.62413   5.64619
 Alpha virt. eigenvalues --    5.65562   5.69219   5.70187   5.73078   5.74912
 Alpha virt. eigenvalues --    5.75817   5.76385   5.77704   5.83039   5.84086
 Alpha virt. eigenvalues --    5.86461   5.87321   5.88294   5.91290   5.91615
 Alpha virt. eigenvalues --    5.95144   5.95225   5.95382   5.95836   5.95989
 Alpha virt. eigenvalues --    6.02554   6.04136   6.06359   6.09468   6.16080
 Alpha virt. eigenvalues --    6.17559   6.18154   6.21134   6.22638   6.25170
 Alpha virt. eigenvalues --    6.28697   6.30910   6.33210   6.35413   6.35701
 Alpha virt. eigenvalues --    6.39187   6.40343   6.41433   6.42376   6.45148
 Alpha virt. eigenvalues --    6.57764   6.60615   6.65768   6.67870   6.71419
 Alpha virt. eigenvalues --    6.77245   6.78750   6.79887   6.84204   6.86302
 Alpha virt. eigenvalues --    6.87954   6.98059   7.02680   7.03594   7.03867
 Alpha virt. eigenvalues --    7.09871   7.10807   7.15800   7.20535   7.22984
 Alpha virt. eigenvalues --   22.11969  22.39640  22.40246  22.40747  22.43178
 Alpha virt. eigenvalues --   22.47655  22.51029  22.52491  22.53302  22.54881
 Alpha virt. eigenvalues --   22.58958  22.60767  22.67657  22.68304  22.72005
 Alpha virt. eigenvalues --   22.75657  22.79234  22.83897  22.84628  22.87802
 Alpha virt. eigenvalues --   22.92123  22.92654  22.93277  22.98982  22.99887
 Alpha virt. eigenvalues --   23.08165  23.10053  23.11343  23.16210  23.19404
 Alpha virt. eigenvalues --   23.24031  23.30927  23.34940  23.41139  23.41602
 Alpha virt. eigenvalues --   23.45679  23.47899  23.53548  23.64013  23.67314
 Alpha virt. eigenvalues --   23.74137  32.73647  32.77078  32.79878  32.90020
 Alpha virt. eigenvalues --   43.86207  43.86937  43.89822  43.90253  44.14487
  Beta  occ. eigenvalues -- -256.59035 -30.32013 -26.15465 -26.15118 -26.15073
  Beta  occ. eigenvalues --  -19.39925 -19.34404 -19.33784 -19.26490 -19.25149
  Beta  occ. eigenvalues --  -14.50669 -14.50593 -14.49493 -14.49246 -10.43755
  Beta  occ. eigenvalues --  -10.42847 -10.40137 -10.37335 -10.37322 -10.37208
  Beta  occ. eigenvalues --  -10.37180 -10.36956 -10.36886 -10.36805 -10.36569
  Beta  occ. eigenvalues --  -10.35223 -10.34886 -10.34081 -10.33832 -10.33818
  Beta  occ. eigenvalues --  -10.33807 -10.33780 -10.33672 -10.33656 -10.33599
  Beta  occ. eigenvalues --  -10.33370 -10.33294 -10.33233 -10.32959 -10.32954
  Beta  occ. eigenvalues --  -10.32861 -10.32721 -10.32661 -10.32605 -10.32542
  Beta  occ. eigenvalues --  -10.31733 -10.31446 -10.31332 -10.31118 -10.30607
  Beta  occ. eigenvalues --  -10.30404 -10.30193 -10.29576 -10.27477 -10.27086
  Beta  occ. eigenvalues --   -3.61118  -2.36253  -2.35103  -2.35036  -1.25292
  Beta  occ. eigenvalues --   -1.24872  -1.23775  -1.10822  -1.10556  -1.09805
  Beta  occ. eigenvalues --   -1.09652  -1.08890  -1.07283  -0.98660  -0.96278
  Beta  occ. eigenvalues --   -0.95293  -0.95002  -0.94150  -0.93537  -0.93188
  Beta  occ. eigenvalues --   -0.92595  -0.89985  -0.89811  -0.89545  -0.88808
  Beta  occ. eigenvalues --   -0.88245  -0.87837  -0.87611  -0.85197  -0.82794
  Beta  occ. eigenvalues --   -0.82366  -0.82118  -0.81510  -0.80554  -0.79228
  Beta  occ. eigenvalues --   -0.78277  -0.77654  -0.77095  -0.75821  -0.75215
  Beta  occ. eigenvalues --   -0.75143  -0.73046  -0.72824  -0.72629  -0.71154
  Beta  occ. eigenvalues --   -0.70394  -0.68251  -0.67543  -0.67074  -0.66718
  Beta  occ. eigenvalues --   -0.65360  -0.64448  -0.63740  -0.63451  -0.63122
  Beta  occ. eigenvalues --   -0.62134  -0.62028  -0.61230  -0.60539  -0.59651
  Beta  occ. eigenvalues --   -0.59178  -0.59075  -0.59002  -0.58513  -0.58227
  Beta  occ. eigenvalues --   -0.57903  -0.57524  -0.57101  -0.56716  -0.56355
  Beta  occ. eigenvalues --   -0.55995  -0.55977  -0.55584  -0.55254  -0.55132
  Beta  occ. eigenvalues --   -0.54972  -0.54506  -0.54234  -0.53946  -0.53854
  Beta  occ. eigenvalues --   -0.53531  -0.53400  -0.53065  -0.52652  -0.52577
  Beta  occ. eigenvalues --   -0.52239  -0.52136  -0.51969  -0.51681  -0.51563
  Beta  occ. eigenvalues --   -0.51160  -0.50726  -0.50588  -0.50106  -0.49711
  Beta  occ. eigenvalues --   -0.49518  -0.49176  -0.49057  -0.48816  -0.48656
  Beta  occ. eigenvalues --   -0.48424  -0.48250  -0.48089  -0.47669  -0.46844
  Beta  occ. eigenvalues --   -0.46612  -0.46472  -0.46438  -0.46012  -0.45621
  Beta  occ. eigenvalues --   -0.45459  -0.44920  -0.44316  -0.43886  -0.43527
  Beta  occ. eigenvalues --   -0.43157  -0.42860  -0.42789  -0.42474  -0.42192
  Beta  occ. eigenvalues --   -0.41638  -0.40290  -0.40011  -0.39616  -0.37284
  Beta  occ. eigenvalues --   -0.36841  -0.36738  -0.36086  -0.35602  -0.35065
  Beta  occ. eigenvalues --   -0.34715  -0.33415  -0.31940  -0.31040
  Beta virt. eigenvalues --   -0.23624  -0.23400  -0.21682  -0.20908  -0.18779
  Beta virt. eigenvalues --   -0.18136  -0.14636  -0.12346  -0.11464  -0.10102
  Beta virt. eigenvalues --   -0.09623  -0.08984  -0.08559  -0.07145  -0.06882
  Beta virt. eigenvalues --   -0.05829  -0.04911  -0.04771  -0.04549  -0.03972
  Beta virt. eigenvalues --   -0.03803  -0.03762  -0.03181  -0.03019  -0.02768
  Beta virt. eigenvalues --   -0.02309  -0.01895  -0.01693  -0.01203  -0.01032
  Beta virt. eigenvalues --   -0.00915  -0.00516   0.00029   0.00049   0.00604
  Beta virt. eigenvalues --    0.00978   0.01281   0.01696   0.01905   0.02017
  Beta virt. eigenvalues --    0.02219   0.02259   0.02407   0.02766   0.03031
  Beta virt. eigenvalues --    0.03339   0.03569   0.03767   0.03961   0.04088
  Beta virt. eigenvalues --    0.04181   0.04364   0.04662   0.04791   0.04882
  Beta virt. eigenvalues --    0.05044   0.05364   0.05763   0.05791   0.06048
  Beta virt. eigenvalues --    0.06105   0.06448   0.06612   0.06745   0.06888
  Beta virt. eigenvalues --    0.07239   0.07343   0.07416   0.07737   0.07825
  Beta virt. eigenvalues --    0.07921   0.08086   0.08546   0.08744   0.09047
  Beta virt. eigenvalues --    0.09092   0.09310   0.09482   0.09869   0.10035
  Beta virt. eigenvalues --    0.10272   0.10491   0.10550   0.10756   0.11003
  Beta virt. eigenvalues --    0.11266   0.11539   0.11751   0.11984   0.12211
  Beta virt. eigenvalues --    0.12317   0.12489   0.12560   0.12881   0.13077
  Beta virt. eigenvalues --    0.13451   0.13494   0.13712   0.13873   0.14034
  Beta virt. eigenvalues --    0.14305   0.14398   0.14693   0.15029   0.15126
  Beta virt. eigenvalues --    0.15366   0.15631   0.15897   0.15984   0.16111
  Beta virt. eigenvalues --    0.16374   0.16647   0.16890   0.17120   0.17489
  Beta virt. eigenvalues --    0.17659   0.17716   0.18165   0.18258   0.18378
  Beta virt. eigenvalues --    0.18663   0.18810   0.19019   0.19291   0.19413
  Beta virt. eigenvalues --    0.19685   0.19832   0.19991   0.20299   0.20570
  Beta virt. eigenvalues --    0.20601   0.20766   0.21012   0.21229   0.21485
  Beta virt. eigenvalues --    0.21753   0.22069   0.22467   0.22489   0.22806
  Beta virt. eigenvalues --    0.22885   0.23255   0.23448   0.23714   0.23854
  Beta virt. eigenvalues --    0.24045   0.24550   0.24835   0.24983   0.25130
  Beta virt. eigenvalues --    0.25250   0.25446   0.25548   0.25899   0.26061
  Beta virt. eigenvalues --    0.26288   0.26359   0.26718   0.27319   0.27439
  Beta virt. eigenvalues --    0.27531   0.27798   0.28016   0.28159   0.28409
  Beta virt. eigenvalues --    0.28583   0.28908   0.29028   0.29292   0.29452
  Beta virt. eigenvalues --    0.29558   0.29811   0.30224   0.30278   0.30424
  Beta virt. eigenvalues --    0.30528   0.30567   0.31035   0.31330   0.31478
  Beta virt. eigenvalues --    0.31753   0.31822   0.31978   0.32151   0.32424
  Beta virt. eigenvalues --    0.32465   0.32594   0.32931   0.33263   0.33456
  Beta virt. eigenvalues --    0.33596   0.33893   0.34163   0.34277   0.34408
  Beta virt. eigenvalues --    0.34557   0.34682   0.34994   0.35009   0.35395
  Beta virt. eigenvalues --    0.35611   0.35656   0.36083   0.36106   0.36393
  Beta virt. eigenvalues --    0.36625   0.36855   0.36996   0.37015   0.37421
  Beta virt. eigenvalues --    0.37464   0.37677   0.37861   0.38204   0.38420
  Beta virt. eigenvalues --    0.38441   0.38466   0.38710   0.38931   0.39068
  Beta virt. eigenvalues --    0.39306   0.39464   0.39620   0.39896   0.39978
  Beta virt. eigenvalues --    0.40081   0.40214   0.40633   0.40715   0.40900
  Beta virt. eigenvalues --    0.41165   0.41498   0.41588   0.41875   0.42080
  Beta virt. eigenvalues --    0.42332   0.42540   0.42603   0.42859   0.43050
  Beta virt. eigenvalues --    0.43126   0.43310   0.43457   0.43674   0.43875
  Beta virt. eigenvalues --    0.44251   0.44420   0.44605   0.44816   0.44960
  Beta virt. eigenvalues --    0.44981   0.45233   0.45423   0.45486   0.45679
  Beta virt. eigenvalues --    0.45756   0.46165   0.46549   0.46644   0.46749
  Beta virt. eigenvalues --    0.47092   0.47444   0.47618   0.47783   0.48123
  Beta virt. eigenvalues --    0.48227   0.48540   0.48759   0.48937   0.49218
  Beta virt. eigenvalues --    0.49361   0.49642   0.49722   0.50068   0.50306
  Beta virt. eigenvalues --    0.50423   0.50639   0.50978   0.51176   0.51466
  Beta virt. eigenvalues --    0.51695   0.51988   0.52123   0.52166   0.52605
  Beta virt. eigenvalues --    0.52820   0.52960   0.53091   0.53390   0.53562
  Beta virt. eigenvalues --    0.53872   0.53966   0.54433   0.54733   0.54958
  Beta virt. eigenvalues --    0.55253   0.55457   0.56006   0.56183   0.56235
  Beta virt. eigenvalues --    0.56708   0.56798   0.56969   0.57157   0.57249
  Beta virt. eigenvalues --    0.57445   0.57610   0.57830   0.57957   0.58419
  Beta virt. eigenvalues --    0.58492   0.58773   0.58862   0.59316   0.59479
  Beta virt. eigenvalues --    0.59726   0.60173   0.60201   0.60377   0.60716
  Beta virt. eigenvalues --    0.60907   0.61199   0.61336   0.61891   0.62143
  Beta virt. eigenvalues --    0.62309   0.62418   0.62875   0.62977   0.63177
  Beta virt. eigenvalues --    0.63553   0.63564   0.63814   0.64293   0.64636
  Beta virt. eigenvalues --    0.64853   0.65233   0.65730   0.66029   0.66388
  Beta virt. eigenvalues --    0.66703   0.67089   0.67352   0.67702   0.67757
  Beta virt. eigenvalues --    0.68270   0.68407   0.68621   0.68997   0.69119
  Beta virt. eigenvalues --    0.69351   0.69732   0.69938   0.70316   0.70781
  Beta virt. eigenvalues --    0.71259   0.71645   0.71960   0.72108   0.72296
  Beta virt. eigenvalues --    0.72507   0.72963   0.73150   0.73315   0.73551
  Beta virt. eigenvalues --    0.73745   0.73932   0.74181   0.74629   0.74741
  Beta virt. eigenvalues --    0.74902   0.75248   0.75601   0.76138   0.76407
  Beta virt. eigenvalues --    0.77023   0.77332   0.77519   0.77732   0.78118
  Beta virt. eigenvalues --    0.78463   0.78793   0.79055   0.79324   0.79692
  Beta virt. eigenvalues --    0.80282   0.80377   0.80468   0.80711   0.80909
  Beta virt. eigenvalues --    0.81421   0.81676   0.81913   0.82265   0.82913
  Beta virt. eigenvalues --    0.83088   0.83157   0.83409   0.83587   0.83948
  Beta virt. eigenvalues --    0.84422   0.84871   0.85058   0.85515   0.85616
  Beta virt. eigenvalues --    0.85807   0.86241   0.86554   0.86784   0.87110
  Beta virt. eigenvalues --    0.87444   0.87668   0.88059   0.88292   0.88641
  Beta virt. eigenvalues --    0.88670   0.89119   0.89328   0.89616   0.89676
  Beta virt. eigenvalues --    0.90060   0.90484   0.90877   0.91040   0.91405
  Beta virt. eigenvalues --    0.91542   0.91837   0.92319   0.92453   0.92524
  Beta virt. eigenvalues --    0.92846   0.93364   0.93746   0.93908   0.94215
  Beta virt. eigenvalues --    0.94416   0.94928   0.95138   0.95278   0.95832
  Beta virt. eigenvalues --    0.96087   0.96625   0.96749   0.96926   0.97271
  Beta virt. eigenvalues --    0.97487   0.98156   0.98532   0.98907   0.99092
  Beta virt. eigenvalues --    0.99281   0.99651   0.99984   1.00422   1.00594
  Beta virt. eigenvalues --    1.01106   1.01555   1.01632   1.01859   1.02437
  Beta virt. eigenvalues --    1.02730   1.02814   1.02880   1.03329   1.03667
  Beta virt. eigenvalues --    1.04016   1.04700   1.05067   1.05374   1.05498
  Beta virt. eigenvalues --    1.06280   1.06503   1.06727   1.06862   1.07367
  Beta virt. eigenvalues --    1.07805   1.08072   1.08485   1.09126   1.09285
  Beta virt. eigenvalues --    1.09472   1.10125   1.10676   1.10783   1.11364
  Beta virt. eigenvalues --    1.11395   1.11695   1.12262   1.12319   1.12798
  Beta virt. eigenvalues --    1.13096   1.13856   1.14221   1.14565   1.14587
  Beta virt. eigenvalues --    1.14940   1.15004   1.15506   1.15799   1.16131
  Beta virt. eigenvalues --    1.16416   1.16934   1.17097   1.17269   1.17642
  Beta virt. eigenvalues --    1.17682   1.18329   1.18371   1.18572   1.18922
  Beta virt. eigenvalues --    1.19172   1.19665   1.19822   1.20528   1.21003
  Beta virt. eigenvalues --    1.21441   1.21964   1.22133   1.22665   1.22815
  Beta virt. eigenvalues --    1.23122   1.23543   1.24045   1.24358   1.24528
  Beta virt. eigenvalues --    1.24811   1.25182   1.25488   1.25873   1.26045
  Beta virt. eigenvalues --    1.26517   1.26841   1.27600   1.27937   1.28246
  Beta virt. eigenvalues --    1.28675   1.29078   1.29912   1.30175   1.30652
  Beta virt. eigenvalues --    1.31271   1.31874   1.32449   1.32855   1.33239
  Beta virt. eigenvalues --    1.33548   1.34022   1.34292   1.34743   1.35477
  Beta virt. eigenvalues --    1.35558   1.36378   1.36580   1.36769   1.37139
  Beta virt. eigenvalues --    1.37204   1.37638   1.37702   1.38020   1.38560
  Beta virt. eigenvalues --    1.39136   1.39422   1.39616   1.40151   1.40274
  Beta virt. eigenvalues --    1.40796   1.41178   1.41328   1.41733   1.42362
  Beta virt. eigenvalues --    1.42607   1.42827   1.43229   1.43543   1.43848
[...]
  1611. RY*(   4) H  69                  0.00002     1.23919   
  1612. RY*(   5) H  69                  0.00001     2.84394   
  1613. RY*(   1) H  70                  0.00030     1.64123   
  1614. RY*(   2) H  70                  0.00008     2.59650   
  1615. RY*(   3) H  70                  0.00005     1.34821   
  1616. RY*(   4) H  70                  0.00005     2.38671   
  1617. RY*(   5) H  70                  0.00000     2.75880   
  1618. RY*(   1) H  71                  0.00028     1.27176   
  1619. RY*(   2) H  71                  0.00007     1.95918   
  1620. RY*(   3) H  71                  0.00004     1.65321   
  1621. RY*(   4) H  71                  0.00004     2.33267   
  1622. RY*(   5) H  71                  0.00000     2.82792   
  1623. RY*(   1) H  72                  0.00046     1.15773   
  1624. RY*(   2) H  72                  0.00007     1.54382   
  1625. RY*(   3) H  72                  0.00007     2.45952   
  1626. RY*(   4) H  72                  0.00003     2.25990   
  1627. RY*(   5) H  72                  0.00001     2.99795   
  1628. RY*(   1) H  73                  0.00042     1.70222   
  1629. RY*(   2) H  73                  0.00036     0.95061   
  1630. RY*(   3) H  73                  0.00021     1.96647   
  1631. RY*(   4) H  73                  0.00013     2.03184   
  1632. RY*(   5) H  73                  0.00000     3.25828   
  1633. RY*(   1) H  74                  0.00046     0.89667   
  1634. RY*(   2) H  74                  0.00036     2.00609   
  1635. RY*(   3) H  74                  0.00019     2.03047   
  1636. RY*(   4) H  74                  0.00013     1.90711   
  1637. RY*(   5) H  74                  0.00000     3.22176   
  1638. RY*(   1) H  75                  0.00049     1.10563   
  1639. RY*(   2) H  75                  0.00006     1.54837   
  1640. RY*(   3) H  75                  0.00007     2.39628   
  1641. RY*(   4) H  75                  0.00004     2.33886   
  1642. RY*(   5) H  75                  0.00001     3.00200   
  1643. RY*(   1) H  76                  0.00031     1.23063   
  1644. RY*(   2) H  76                  0.00007     2.11865   
  1645. RY*(   3) H  76                  0.00005     1.58242   
  1646. RY*(   4) H  76                  0.00003     2.36976   
  1647. RY*(   5) H  76                  0.00001     2.96273   
  1648. RY*(   1) H  77                  0.00032     1.60061   
  1649. RY*(   2) H  77                  0.00009     2.51821   
  1650. RY*(   3) H  77                  0.00005     1.32357   
  1651. RY*(   4) H  77                  0.00005     2.39908   
  1652. RY*(   5) H  77                  0.00000     2.81762   
  1653. RY*(   1) H  78                  0.00041     1.68177   
  1654. RY*(   2) H  78                  0.00009     2.48721   
  1655. RY*(   3) H  78                  0.00006     2.28098   
  1656. RY*(   4) H  78                  0.00003     1.30223   
  1657. RY*(   5) H  78                  0.00000     2.95627   
  1658. RY*(   1) H  79                  0.00036     1.68552   
  1659. RY*(   2) H  79                  0.00008     2.59750   
  1660. RY*(   3) H  79                  0.00005     2.36278   
  1661. RY*(   4) H  79                  0.00004     1.39929   
  1662. RY*(   5) H  79                  0.00000     2.81386   
  1663. RY*(   1) H  80                  0.00031     1.86782   
  1664. RY*(   2) H  80                  0.00008     2.59960   
  1665. RY*(   3) H  80                  0.00004     2.26267   
  1666. RY*(   4) H  80                  0.00001     1.22738   
  1667. RY*(   5) H  80                  0.00001     3.02030   
  1668. RY*(   1) H  81                  0.00029     0.93877   
  1669. RY*(   2) H  81                  0.00007     1.56804   
  1670. RY*(   3) H  81                  0.00006     2.25358   
  1671. RY*(   4) H  81                  0.00001     2.69575   
  1672. RY*(   5) H  81                  0.00002     2.59589   
  1673. RY*(   1) H  82                  0.00027     0.91948   
  1674. RY*(   2) H  82                  0.00007     1.67764   
  1675. RY*(   3) H  82                  0.00005     2.21096   
  1676. RY*(   4) H  82                  0.00002     2.22367   
  1677. RY*(   5) H  82                  0.00000     2.93497   
  1678. RY*(   1) H  83                  0.00040     1.06562   
  1679. RY*(   2) H  83                  0.00008     1.80345   
  1680. RY*(   3) H  83                  0.00005     2.13421   
  1681. RY*(   4) H  83                  0.00001     2.81845   
  1682. RY*(   5) H  83                  0.00002     2.55026   
  1683. RY*(   1) H  84                  0.00033     1.02117   
  1684. RY*(   2) H  84                  0.00008     1.66748   
  1685. RY*(   3) H  84                  0.00004     2.07613   
  1686. RY*(   4) H  84                  0.00002     1.92319   
  1687. RY*(   5) H  84                  0.00000     2.84958   
  1688. RY*(   1) H  85                  0.00035     1.11090   
  1689. RY*(   2) H  85                  0.00008     2.28044   
  1690. RY*(   3) H  85                  0.00006     1.41415   
  1691. RY*(   4) H  85                  0.00004     2.06494   
  1692. RY*(   5) H  85                  0.00000     2.96779   
  1693. RY*(   1) H  86                  0.00026     1.11188   
  1694. RY*(   2) H  86                  0.00009     1.70201   
  1695. RY*(   3) H  86                  0.00003     1.83755   
  1696. RY*(   4) H  86                  0.00003     2.01979   
  1697. RY*(   5) H  86                  0.00001     2.85251   
  1698. RY*(   1) H  87                  0.00034     0.97039   
  1699. RY*(   2) H  87                  0.00008     1.78197   
  1700. RY*(   3) H  87                  0.00005     1.75540   
  1701. RY*(   4) H  87                  0.00003     2.10273   
  1702. RY*(   5) H  87                  0.00000     2.81446   
  1703. RY*(   1) H  88                  0.00034     0.99417   
  1704. RY*(   2) H  88                  0.00007     1.60773   
  1705. RY*(   3) H  88                  0.00004     2.06313   
  1706. RY*(   4) H  88                  0.00002     1.84397   
  1707. RY*(   5) H  88                  0.00000     2.90707   
  1708. RY*(   1) H  89                  0.00021     1.16174   
  1709. RY*(   2) H  89                  0.00009     1.79778   
  1710. RY*(   3) H  89                  0.00002     1.72785   
  1711. RY*(   4) H  89                  0.00003     2.00880   
  1712. RY*(   5) H  89                  0.00000     2.84461   
  1713. RY*(   1) H  90                  0.00046     1.60448   
  1714. RY*(   2) H  90                  0.00008     2.63291   
  1715. RY*(   3) H  90                  0.00006     2.02000   
  1716. RY*(   4) H  90                  0.00003     1.66915   
  1717. RY*(   5) H  90                  0.00000     2.80411   
  1718. RY*(   1) H  91                  0.00040     1.66729   
  1719. RY*(   2) H  91                  0.00008     2.56375   
  1720. RY*(   3) H  91                  0.00005     2.25453   
  1721. RY*(   4) H  91                  0.00004     1.40563   
  1722. RY*(   5) H  91                  0.00000     2.90607   
  1723. RY*(   1) H  92                  0.00035     0.91386   
  1724. RY*(   2) H  92                  0.00008     1.64989   
  1725. RY*(   3) H  92                  0.00005     2.18410   
  1726. RY*(   4) H  92                  0.00002     2.25714   
  1727. RY*(   5) H  92                  0.00000     2.92891   
  1728. RY*(   1) H  93                  0.00042     1.22797   
  1729. RY*(   2) H  93                  0.00006     1.40974   
  1730. RY*(   3) H  93                  0.00006     2.19648   
  1731. RY*(   4) H  93                  0.00003     2.31554   
  1732. RY*(   5) H  93                  0.00000     2.97980   
  1733. RY*(   1) H  94                  0.00043     0.98679   
  1734. RY*(   2) H  94                  0.00007     1.62926   
  1735. RY*(   3) H  94                  0.00006     2.19236   
  1736. RY*(   4) H  94                  0.00002     2.23156   
  1737. RY*(   5) H  94                  0.00000     3.00078   
  1762. BD*(   1) C   9 - C  13          0.01022     0.48252   
  1763. BD*(   2) C   9 - C  13          0.18005    -0.06728  1781(v),183(v),1767(r)
                                                    404(g),512(g)
  1764. BD*(   1) C   9 - C  40          0.01102     0.48093   
  1765. BD*(   1) C   9 - H  59          0.00686     0.32694   
  1766. BD*(   1) C  10 - C  16          0.01001     0.47884   
  1767. BD*(   2) C  10 - C  16          0.19465    -0.07008  1801(v),1781(v),431(g)
                                                    1763(r),191(r),1771(r)
  1768. BD*(   1) C  10 - C  23          0.00993     0.46752   
  1769. BD*(   1) C  10 - H  60          0.00711     0.33268   
  1770. BD*(   1) C  11 - C  26          0.00994     0.47881   
  1771. BD*(   2) C  11 - C  26          0.18289    -0.06721  1819(v),1803(v),1801(v)
                                                    1767(r),457(g),1775(r)
                                                    850(g)
  1772. BD*(   1) C  11 - C  30          0.01005     0.46661   
  1773. BD*(   1) C  11 - H  61          0.00704     0.33416   
  1774. BD*(   1) C  12 - C  33          0.01006     0.48006   
  1775. BD*(   2) C  12 - C  33          0.18162    -0.06469  1837(v),1821(v),1819(v)
                                                    483(g),1771(r),1032(g)
                                                    1756(r)
  1776. BD*(   1) C  12 - C  37          0.01042     0.46795   
  1777. BD*(   1) C  12 - H  62          0.00726     0.33623   
  1778. BD*(   1) C  13 - C  14          0.01720     0.36703   
  1779. BD*(   1) C  13 - N  47          0.01393     0.35865   
  1780. BD*(   1) C  14 - C  15          0.00927     0.52348   
  1781. BD*(   2) C  14 - C  15          0.10777    -0.03682  1763(v),1767(v),1789(v)
                                                    1787(v)
  1782. BD*(   1) C  14 - C  18          0.01187     0.26052   
  1783. BD*(   1) C  15 - C  16          0.01736     0.36386   
  1784. BD*(   1) C  15 - C  17          0.00863     0.25559   
  1785. BD*(   1) C  16 - N  47          0.01343     0.37055   
  1786. BD*(   1) C  17 - H  66          0.00222     0.31435   
  1787. BD*(   1) C  17 - H  67          0.00371     0.31627   
  1788. BD*(   1) C  17 - H  68          0.00229     0.31858   
  1789. BD*(   1) C  18 - C  19          0.00596     0.24653   
  1790. BD*(   1) C  18 - H  69          0.00538     0.33034   
  1791. BD*(   1) C  18 - H  70          0.00592     0.31766   
  1792. BD*(   1) C  19 - C  20          0.04018     0.25575   
  1793. BD*(   1) C  19 - H  71          0.00580     0.29649   
  1794. BD*(   1) C  19 - H  72          0.00671     0.29658   
  1795. BD*(   1) C  20 - O  21          0.02310     0.44282   
  1796. BD*(   2) C  20 - O  21          0.08247    -0.07340   
  1797. BD*(   1) C  20 - O  22          0.03458     0.41309   
  1798. BD*(   1) O  22 - H  73          0.00718     0.28893   
  1799. BD*(   1) C  23 - C  24          0.01663     0.37870   
  1800. BD*(   1) C  23 - N  48          0.01420     0.35432   
  1801. BD*(   2) C  23 - N  48          0.33840    -0.12441  1767(v),1803(v),1771(v)
                                                    190(v),769(g),194(v),1419(g)
                                                    431(v)
  1802. BD*(   1) C  24 - C  25          0.00951     0.51931   
  1803. BD*(   2) C  24 - C  25          0.10836    -0.03523  1771(v),1801(v),1809(v)
                                                    1811(v)
  1804. BD*(   1) C  24 - C  27          0.00882     0.25332   
  1805. BD*(   1) C  25 - C  26          0.01647     0.37548   
  1806. BD*(   1) C  25 - C  28          0.01605     0.26707   
  1807. BD*(   1) C  26 - N  48          0.01391     0.37096   
  1808. BD*(   1) C  27 - H  87          0.00285     0.31701   
  1809. BD*(   1) C  27 - H  88          0.00364     0.31431   
  1810. BD*(   1) C  27 - H  89          0.00243     0.31522   
  1811. BD*(   1) C  28 - C  29          0.00414     0.47751   
  1812. BD*(   1) C  28 - H  90          0.01001     0.32093   
  1813. BD*(   1) C  28 - H  91          0.01004     0.31801   
  1814. BD*(   1) C  29 - H  92          0.00610     0.33381   
  1815. BD*(   1) C  29 - H  93          0.00667     0.32821   
  1816. BD*(   1) C  29 - H  94          0.00664     0.32734   
  1817. BD*(   1) C  30 - C  31          0.01698     0.38637   
  1818. BD*(   1) C  30 - N  49          0.01369     0.35815   
  1819. BD*(   2) C  30 - N  49          0.31967    -0.11650  1771(v),1821(v),1775(v)
                                                    191(v),952(g),194(v),1445(g)
  1820. BD*(   1) C  31 - C  32          0.00992     0.52728   
  1821. BD*(   2) C  31 - C  32          0.10970    -0.03094  1775(v),1819(v),1830(v)
                                                    1826(v)
  1822. BD*(   1) C  31 - C  34          0.00940     0.26295   
  1823. BD*(   1) C  32 - C  33          0.01669     0.38403   
  1824. BD*(   1) C  32 - C  35          0.01446     0.28108   
  1825. BD*(   1) C  33 - N  49          0.01372     0.36783   
  1826. BD*(   1) C  34 - H  84          0.00444     0.31761   
  1827. BD*(   1) C  34 - H  85          0.00461     0.33374   
  1828. BD*(   1) C  34 - H  86          0.00295     0.31504   
  1829. BD*(   1) C  35 - C  36          0.00396     0.48193   
  1830. BD*(   1) C  35 - H  79          0.00942     0.32044   
  1831. BD*(   1) C  35 - H  80          0.00792     0.32037   
  1832. BD*(   1) C  36 - H  81          0.00474     0.32666   
  1833. BD*(   1) C  36 - H  82          0.00536     0.33895   
  1834. BD*(   1) C  36 - H  83          0.00601     0.33076   
  1835. BD*(   1) C  37 - C  38          0.01515     0.37458   
  1836. BD*(   1) C  37 - N  50          0.01383     0.35043   
  1837. BD*(   2) C  37 - N  50          0.34367    -0.11717  1775(v),1839(v),183(v)
                                                    190(v),1134(g),1471(g)
                                                    194(v),483(v),1133(g)
  1838. BD*(   1) C  38 - C  39          0.01236     0.31995   
  1839. BD*(   2) C  38 - C  39          0.14331    -0.07581  1837(v),183(v),1844(v)
                                                    1847(v)
  1840. BD*(   1) C  38 - C  41          0.00613     0.26733   
  1841. BD*(   1) C  39 - C  40          0.01559     0.38109   
  1842. BD*(   1) C  39 - C  42          0.00905     0.26361   
  1843. BD*(   1) C  40 - N  50          0.01401     0.36596   
  1844. BD*(   1) C  41 - H  63          0.00435     0.31449   
  1845. BD*(   1) C  41 - H  64          0.00301     0.32134   
  1846. BD*(   1) C  41 - H  65          0.00279     0.31628   
  1847. BD*(   1) C  42 - C  43          0.00581     0.25309   
  1848. BD*(   1) C  42 - H  77          0.00651     0.31572   
  1849. BD*(   1) C  42 - H  78          0.00659     0.32753   
  1850. BD*(   1) C  43 - C  44          0.03711     0.28087   
  1851. BD*(   1) C  43 - H  75          0.00764     0.29630   
  1852. BD*(   1) C  43 - H  76          0.00615     0.31184   
  1853. BD*(   1) C  44 - O  45          0.03245     0.39287   
  1854. BD*(   2) C  44 - O  45          0.09368    -0.01528   
  1855. BD*(   1) C  44 - O  46          0.03800     0.38769   
  1856. BD*(   1) O  46 - H  74          0.00620     0.29523   
  1857. BD*(   1) N  48 -Fe  51          0.03560     0.18374   
  1858. BD*(   1) N  49 -Fe  51          0.06237     0.07101   
  1859. BD*(   1) N  50 -Fe  51          0.03683     0.16456   
       -------------------------------
              Total Lewis  155.78592  ( 97.2652%)
        Valence non-Lewis    4.10220  (  2.5612%)
        Rydberg non-Lewis    0.27799  (  0.1736%)
       -------------------------------
            Total unit  2  160.16612  (100.0000%)
           Charge unit  2    2.83388
 1\1\GINC-NODE653\SP\UPBE1PBE\def2TZVP\C41H44Fe1N4O5(1+,6)\ZHARTOVSKA\0
 7-Nov-2022\0\\# PBE1PBE/def2TZVP empiricaldispersion=GD3BJ int=(grid=u
 ltrafine) geom=check pop=nbo\\2oyy_III_H\\1,6\C,0,-9.798,9.567,15.464\
 C,0,-10.572,10.224,14.346\C,0,-11.964,10.299,14.396\C,0,-9.92,10.785,1
 3.233\C,0,-12.695,10.906,13.365\C,0,-10.646,11.407,12.204\C,0,-12.03,1
 1.46,12.279\O,0,-12.773,12.062,11.295\C,0,-15.456,14.809,9.857\C,0,-12
 .225,12.768,6.963\C,0,-12.602,8.644,9.439\C,0,-16.236,10.516,12.035\C,
 0,-14.536,14.635,8.864\C,0,-14.104,15.652,7.922\C,0,-13.201,15.086,7.1
 14\C,0,-13.05,13.7,7.529\C,0,-12.439,15.754,5.946\C,0,-14.611,17.11599
 9,7.899\C,0,-13.952,17.922001,9.031\C,0,-14.447,19.354,9.039\O,0,-14.5
 7,19.983,7.957\O,0,-14.731,19.879999,10.138\C,0,-12.06,11.467,7.375\C,
 0,-11.216,10.499,6.719\C,0,-11.311,9.349,7.403\C,0,-12.227,9.568,8.502
 \C,0,-10.372,10.787,5.453\C,0,-10.582,8.021,7.09\C,0,-11.28375547,7.32
 876603,6.15999009\C,0,-13.605,8.807,10.369\C,0,-14.005,7.821,11.341\C,
 0,-15.013,8.328,12.061\C,0,-15.281,9.658,11.559\C,0,-13.342,6.435,11.4
 79\C,0,-15.758,7.67,13.235\C,0,-15.93524936,6.35172888,12.97555643\C,0
 ,-16.363001,11.84,11.68\C,0,-17.370001,12.733,12.204\C,0,-17.124001,14
 .046,11.519\C,0,-15.992,13.838,10.657\C,0,-18.482,12.454,13.226\C,0,-1
 7.924,15.343,11.748\C,0,-17.15,16.049999,12.86\C,0,-17.771999,17.357,1
 3.25\O,0,-18.888,17.295,13.836\O,0,-17.142,18.426001,12.985\N,0,-13.86
 8,13.46,8.599\N,0,-12.663,10.866,8.462\N,0,-14.405,9.927,10.528\N,0,-1
 5.562,12.528,10.769\Fe,0,-13.949,11.765,9.678\H,0,-8.86501856,10.07356
 498,15.5975573\H,0,-10.36538307,9.61984555,16.36964\H,0,-9.61520081,8.
 54208922,15.21693251\H,0,-8.85298002,10.73709658,13.16917502\H,0,-10.1
 3495082,11.83698145,11.36803069\H,0,-13.76322137,10.94231674,13.414841
 72\H,0,-12.48289756,9.8861245,15.23574945\H,0,-15.79322632,15.81006832
 ,10.02741312\H,0,-11.65145596,13.08225846,6.11612996\H,0,-12.07063392,
 7.71533258,9.45026587\H,0,-16.94037542,10.12596611,12.73971898\H,0,-18
 .13761199,12.70922065,14.20638733\H,0,-19.34285814,13.04239052,12.9859
 5863\H,0,-18.74023506,11.41601569,13.19765891\H,0,-11.50303124,15.2564
 8972,5.79989734\H,0,-13.02344933,15.68396244,5.05246\H,0,-12.26324028,
 16.78378207,6.17742474\H,0,-14.36545405,17.56129311,6.95755412\H,0,-15
 .6730101,17.12530687,8.02918418\H,0,-12.89094771,17.91813641,8.8929669
 9\H,0,-14.18567563,17.46457203,9.969645\H,0,-14.03028509,20.16329122,1
 0.72989875\H,0,-16.18200771,18.42973429,12.98407454\H,0,-16.14978671,1
 6.22941527,12.52491319\H,0,-17.11836401,15.41228011,13.71861155\H,0,-1
 7.93605347,15.93957399,10.85982536\H,0,-18.92061415,15.11920119,12.066
 70729\H,0,-15.18330663,7.78315809,14.13044557\H,0,-16.71095896,8.13998
 775,13.36101877\H,0,-15.37548305,5.77137634,13.67894295\H,0,-16.973876
 91,6.10834964,13.05873918\H,0,-15.59633561,6.13461792,11.98414315\H,0,
 -12.39986347,6.53815839,11.97562571\H,0,-13.97754988,5.79087255,12.050
 0308\H,0,-13.18870667,6.014591,10.50706511\H,0,-9.44512069,10.25587358
 ,5.51382325\H,0,-10.91009645,10.46711792,4.58522833\H,0,-10.17760857,1
 1.83700636,5.38518697\H,0,-9.60269785,8.2317608,6.71390535\H,0,-10.502
 98644,7.43822603,7.98388554\H,0,-10.94092925,6.31546187,6.13580617\H,0
 ,-12.32372573,7.34754984,6.41100607\H,0,-11.14068341,7.77673212,5.1988
 6742\H,0,-12.18536314,12.4581693,10.64744088\\Version=ES64L-G16RevA.03
 \State=6-A\HF=-3445.6809302\S2=8.762108\S2-1=0.\S2A=8.750044\RMSD=4.96
 4e-09\Dipole=3.6592896,-2.6583857,0.4032911\Quadrupole=-11.6036927,6.9
 626056,4.6410871,14.1805869,-6.1189401,-3.5753583\PG=C01 [X(C41H44Fe1N
 4O5)]\\@


 THE REASON MAN'S BEST FRIEND IS A DOG IS BECAUSE
 HE WAGS HIS TAIL INSTEAD OF HIS TONGUE.
 Job cpu time:       2 days  2 hours 50 minutes 44.4 seconds.
 Elapsed time:       0 days 12 hours 45 minutes 10.2 seconds.
 File lengths (MBytes):  RWF=   3174 Int=      0 D2E=      0 Chk=    265 Scr=      1
 Normal termination of Gaussian 16 at Mon Nov  7 22:18:40 2022.
