 Entering Gaussian System, Link 0=g16
 Input=/net/homes/chemie/zhartovska/work/BioModel/Konrad/1hrc/1hrc12/1hrc16/1hrc16.com
 Output=/net/homes/chemie/zhartovska/work/BioModel/Konrad/1hrc/1hrc12/1hrc16/1hrc16.log
 Initial command:
 /afs/math/software/gaussian/g16.A03/g16/l1.exe "/scratch/zhartovska_gaussian.zw66CUK/Gau-542.inp" -scrdir="/scratch/zhartovska_gaussian.zw66CUK/"
 Entering Link 1 = /afs/math/software/gaussian/g16.A03/g16/l1.exe PID=       543.
  
 Copyright (c) 1988,1990,1992,1993,1995,1998,2003,2009,2016,
            Gaussian, Inc.  All Rights Reserved.
  
 This is part of the Gaussian(R) 16 program.  It is based on
 the Gaussian(R) 09 system (copyright 2009, Gaussian, Inc.),
 the Gaussian(R) 03 system (copyright 2003, Gaussian, Inc.),
 the Gaussian(R) 98 system (copyright 1998, Gaussian, Inc.),
 the Gaussian(R) 94 system (copyright 1995, Gaussian, Inc.),
 the Gaussian 92(TM) system (copyright 1992, Gaussian, Inc.),
 the Gaussian 90(TM) system (copyright 1990, Gaussian, Inc.),
 the Gaussian 88(TM) system (copyright 1988, Gaussian, Inc.),
 the Gaussian 86(TM) system (copyright 1986, Carnegie Mellon
 University), and the Gaussian 82(TM) system (copyright 1983,
 Carnegie Mellon University). Gaussian is a federally registered
 trademark of Gaussian, Inc.
  
 This software contains proprietary and confidential information,
 including trade secrets, belonging to Gaussian, Inc.
  
 This software is provided under written license and may be
 used, copied, transmitted, or stored only in accord with that
 written license.
  
 The following legend is applicable only to US Government
 contracts under FAR:
  
                    RESTRICTED RIGHTS LEGEND
  
 Use, reproduction and disclosure by the US Government is
 subject to restrictions as set forth in subparagraphs (a)
 and (c) of the Commercial Computer Software - Restricted
 Rights clause in FAR 52.227-19.
  
 Gaussian, Inc.
 340 Quinnipiac St., Bldg. 40, Wallingford CT 06492
  
  
 ---------------------------------------------------------------
 Warning -- This program may not be used in any manner that
 competes with the business of Gaussian, Inc. or will provide
 assistance to any competitor of Gaussian, Inc.  The licensee
 of this program is prohibited from giving any competitor of
 Gaussian, Inc. access to this program.  By using this program,
 the user acknowledges that Gaussian, Inc. is engaged in the
 business of creating and licensing software in the field of
 computational chemistry and represents and warrants to the
 licensee that it is not a competitor of Gaussian, Inc. and that
 it will not use this program in any manner prohibited above.
 ---------------------------------------------------------------
  

 Cite this work as:
 Gaussian 16, Revision A.03,
 M. J. Frisch, G. W. Trucks, H. B. Schlegel, G. E. Scuseria, 
 M. A. Robb, J. R. Cheeseman, G. Scalmani, V. Barone, 
 G. A. Petersson, H. Nakatsuji, X. Li, M. Caricato, A. V. Marenich, 
 J. Bloino, B. G. Janesko, R. Gomperts, B. Mennucci, H. P. Hratchian, 
 J. V. Ortiz, A. F. Izmaylov, J. L. Sonnenberg, D. Williams-Young, 
 F. Ding, F. Lipparini, F. Egidi, J. Goings, B. Peng, A. Petrone, 
 T. Henderson, D. Ranasinghe, V. G. Zakrzewski, J. Gao, N. Rega, 
 G. Zheng, W. Liang, M. Hada, M. Ehara, K. Toyota, R. Fukuda, 
 J. Hasegawa, M. Ishida, T. Nakajima, Y. Honda, O. Kitao, H. Nakai, 
 T. Vreven, K. Throssell, J. A. Montgomery, Jr., J. E. Peralta, 
 F. Ogliaro, M. J. Bearpark, J. J. Heyd, E. N. Brothers, K. N. Kudin, 
 V. N. Staroverov, T. A. Keith, R. Kobayashi, J. Normand, 
 K. Raghavachari, A. P. Rendell, J. C. Burant, S. S. Iyengar, 
 J. Tomasi, M. Cossi, J. M. Millam, M. Klene, C. Adamo, R. Cammi, 
 J. W. Ochterski, R. L. Martin, K. Morokuma, O. Farkas, 
 J. B. Foresman, and D. J. Fox, Gaussian, Inc., Wallingford CT, 2016.
 
 ******************************************
 Gaussian 16:  ES64L-G16RevA.03 25-Dec-2016
                18-Feb-2023 
 ******************************************
 %nprocs=12
 Will use up to   12 processors via shared memory.
 %mem=16GB
 %oldchk=1hrc_III_D.chk
 %chk=1hrc_III_H.chk
 Copying data from "1hrc_III_D.chk" to current chk file "1hrc_III_H.chk"
 IOpt=  2 FromEx=T IUOpen= 4 IOptOp= 5 NList=   0 IFRang= 0 IUIn= 4 IUOut= 2.
 ----------------------------------------------------------------------
 # PBE1PBE/def2TZVP empiricaldispersion=GD3BJ scf=maxcycle=999 geom=che
 ck pop=nbo
 ----------------------------------------------------------------------
 1/29=2,38=1,172=1/1;
 2/12=2,40=1/2;
 3/5=44,7=101,11=2,14=-4,25=1,30=1,74=-13,124=41/1,2,3;
 4//1;
 5/5=2,7=999,38=5/2;
 6/7=2,8=2,9=2,10=2,28=1,40=1/1,7;
 99/5=1,9=1/99;
 ----------
 1hrc_III_H
 ----------
 Structure from the checkpoint file:  "1hrc_III_H.chk"
 Charge =  1 Multiplicity = 6
 Z-Matrix found in chk file.
 C,0,50.125,29.427999,5.85
 C,0,48.695,29.132,6.213
 N,0,48.338001,28.929001,7.534
 C,0,47.604,29.002001,5.491
 C,0,47.007,28.622,7.538
 N,0,46.546001,28.687,6.318
 C,0,40.585999,29.054001,6.824
 C,0,41.368,28.771,5.499
 S,0,42.460999,27.355,5.596
 C,0,42.213001,26.568001,3.988
 Fe,0,44.630001,28.127001,5.911
 C,0,43.603001,27.259001,9.122
 C,0,46.150002,25.184,5.602
 C,0,44.907001,28.735001,2.567
 C,0,43.827999,31.351999,6.47
 N,0,44.854,26.575001,7.169
 C,0,44.331001,26.333,8.412
 C,0,44.604,24.936001,8.743
 C,0,45.273998,24.379999,7.785
 C,0,45.455002,25.382,6.751
 C,0,45.922001,22.989,7.441
 C,0,44.137001,24.309,10.098
 C,0,45.389999,24.290001,11.068
 C,0,45.165001,23.629999,12.392
 O,0,45.941002,24.023001,13.329
 O,0,44.259998,22.763,12.481
 N,0,45.380001,27.146,4.404
 C,0,46.044998,25.929001,4.454
 C,0,46.548,25.580999,3.168
 C,0,46.194,26.542999,2.315
 C,0,45.474998,27.582001,3.075
 C,0,47.349998,24.278,2.836
 C,0,46.459999,26.659,0.811
 C,0,45.651001,25.816999,-0.177
 N,0,44.377998,29.757,4.719
 C,0,44.544998,29.825001,3.342
 C,0,44.368999,31.176001,2.919
 C,0,44.042,31.934999,4.
 C,0,44.099998,31.041,5.151
 C,0,44.499001,31.68,1.456
 C,0,43.861,33.464001,4.089
 C,0,43.018002,34.167999,3.003
 N,0,43.902,29.128,7.459
 C,0,43.633999,30.469,7.505
 C,0,43.058998,30.773001,8.808
 C,0,42.995998,29.669001,9.505
 C,0,43.497002,28.577999,8.693
 C,0,42.639999,32.208,9.219
 C,0,42.465,29.476,10.959
 C,0,40.939999,29.306999,10.886
 C,0,40.196999,29.179001,12.181
 O,0,40.769001,29.121,13.27
 O,0,38.963001,29.108,11.98
 H,0,50.73588953,28.58256271,6.08864507
 H,0,50.19200647,29.63192647,4.80175207
 H,0,50.463948,30.2799867,6.40148092
 H,0,48.93797978,28.99433797,8.33134343
 H,0,46.43260453,28.36822655,8.40435378
 H,0,47.54596316,29.12168332,4.42929954
 H,0,41.16437002,29.70302112,7.44782678
 H,0,39.65104424,29.52058008,6.59364469
 H,0,40.40770713,28.13196975,7.33680638
 H,0,40.66020526,28.60254577,4.7144302
 H,0,41.94996043,29.63513372,5.2550841
 H,0,43.02944826,25.90694312,3.78473575
 H,0,41.29867304,26.01234073,4.00008462
 H,0,42.16406065,27.31879595,3.22720319
 H,0,48.28302422,24.29029546,3.3596515
 H,0,46.78237609,23.42295319,3.13865545
 H,0,47.53270016,24.23024766,1.78279554
 H,0,46.84511617,24.37062818,5.59005917
 H,0,46.86500258,22.90189459,7.93905689
 H,0,45.27293134,22.20296719,7.76620916
 H,0,46.06896696,22.91570971,6.38367813
 H,0,43.10839848,26.95892353,10.02212324
 H,0,43.3847502,32.90398565,8.89365462
 H,0,41.70246642,32.45002234,8.76363438
 H,0,42.54360831,32.26035624,10.28336256
 H,0,43.76130222,32.39232345,6.7111982
 H,0,45.39944518,31.29504211,1.02482984
 H,0,43.65827662,31.34268814,0.88652372
 H,0,44.5288609,32.7495573,1.44854583
 H,0,46.18999377,23.78134498,10.57183731
 H,0,45.69205221,25.30113805,11.24482115
 H,0,43.78735543,23.31085068,9.9356858
 H,0,43.35604218,24.90355967,10.52403065
 H,0,44.49096494,21.8360694,12.57615216
 H,0,38.63153115,28.80791778,11.13048343
 H,0,40.54232763,30.15170124,10.36328057
 H,0,40.73567469,28.43249337,10.30428574
 H,0,42.90579302,28.60272536,11.39258149
 H,0,42.7063086,30.33494643,11.54966166
 H,0,46.2038094,24.93703935,-0.43189977
 H,0,44.72090692,25.53647763,0.27147828
 H,0,45.46235816,26.3884645,-1.06172655
 H,0,47.2122664,27.32951598,0.451275
 H,0,43.55539187,34.1666858,2.07773766
 H,0,42.09128447,33.64794105,2.87796266
 H,0,42.82333817,35.17706863,3.30096722
 H,0,44.30851951,34.02349085,4.88373102
 H,0,44.73660978,28.7891477,1.51204267
 Recover connectivity data from disk.
 Stoichiometry    C41H48FeN6O4S(1+,6)
 Framework group  C1[X(C41H48FeN6O4S)]
 Deg. of freedom   297
 Full point group                 C1      NOp   1
 Largest Abelian subgroup         C1      NOp   1
 Largest concise Abelian subgroup C1      NOp   1
                         Standard orientation:                         
 ---------------------------------------------------------------------
 Center     Atomic      Atomic             Coordinates (Angstroms)
 Number     Number       Type             X           Y           Z
 ---------------------------------------------------------------------
      1          6           0        2.642834   -1.895760    4.972058
      2          6           0        1.853316   -1.355108    3.810748
      3          7           0        0.479928   -1.217990    3.904029
      4          6           0        2.203621   -0.951947    2.609410
      5          6           0        0.046710   -0.771455    2.687987
      6          7           0        1.075740   -0.582515    1.906615
      7          6           0       -0.857788    2.929897   -2.547235
      8          6           0        0.502389    2.157412   -2.526621
      9         16           0        0.324986    0.392981   -2.272802
     10          6           0        1.545230   -0.284456   -3.421113
     11         26           0        0.804155   -0.076535   -0.048002
     12          6           0       -2.674692    0.025225   -0.125072
     13          6           0        0.712643   -3.391592   -0.310979
     14          6           0        4.141500   -0.012262   -0.745658
     15          6           0        0.925975    3.118551    1.016369
     16          7           0       -0.714489   -1.390555   -0.140275
     17          6           0       -2.069221   -1.205432   -0.227295
     18          6           0       -2.673559   -2.498337   -0.541725
     19          6           0       -1.755435   -3.408609   -0.606944
     20          6           0       -0.483787   -2.752762   -0.364662
     21          6           0       -1.633357   -4.956017   -0.859426
     22          6           0       -4.219168   -2.657461   -0.723425
     23          6           0       -4.796593   -3.249718    0.628269
     24          6           0       -6.258763   -3.567668    0.615171
     25          8           0       -6.821763   -3.562758    1.763040
     26          8           0       -6.807076   -3.811403   -0.488724
     27          7           0        2.140777   -1.437147   -0.445604
     28          6           0        1.947435   -2.811263   -0.460850
     29          6           0        3.181204   -3.487251   -0.681681
     30          6           0        4.134179   -2.565393   -0.824466
     31          6           0        3.514456   -1.239692   -0.644053
     32          6           0        3.355679   -5.040939   -0.764406
     33          6           0        5.630678   -2.744187   -1.097873
     34          6           0        6.113936   -3.114881   -2.500953
     35          7           0        2.274771    1.324056    0.081992
     36          6           0        3.614784    1.168685   -0.247959
     37          6           0        4.317795    2.363111    0.090016
     38          6           0        3.428847    3.273978    0.571328
     39          6           0        2.139655    2.593163    0.614604
     40          6           0        5.842977    2.587277   -0.096677
     41          6           0        3.702188    4.667371    1.173216
     42          6           0        4.675366    5.609660    0.431142
     43          7           0       -0.559494    1.292989    0.391492
     44          6           0       -0.318610    2.570039    0.819674
     45          6           0       -1.598622    3.248593    0.967952
     46          6           0       -2.553423    2.413805    0.651602
     47          6           0       -1.956225    1.155040    0.252229
     48          6           0       -1.711328    4.717842    1.449936
     49          6           0       -4.093205    2.663530    0.657149
     50          6           0       -4.469333    3.322268   -0.678557
     51          6           0       -5.899871    3.724771   -0.870937
     52          8           0       -6.776375    3.471110   -0.043974
     53          8           0       -6.055118    4.300452   -1.972156
     54          1           0        2.358214   -2.910834    5.155133
     55          1           0        3.687323   -1.853862    4.743614
     56          1           0        2.444374   -1.307029    5.843213
     57          1           0       -0.085953   -1.408772    4.706140
     58          1           0       -0.974924   -0.603020    2.418184
     59          1           0        3.205633   -0.916071    2.235799
     60          1           0       -1.114263    3.227152   -1.551865
     61          1           0       -0.765664    3.797881   -3.166119
     62          1           0       -1.623777    2.293025   -2.937820
     63          1           0        1.000977    2.319497   -3.459380
     64          1           0        1.109176    2.555880   -1.740534
     65          1           0        1.773324   -1.292803   -3.145232
     66          1           0        1.148013   -0.267625   -4.414509
     67          1           0        2.436769    0.306000   -3.383428
     68          1           0        3.117097   -5.477578    0.182866
     69          1           0        2.700513   -5.434039   -1.513491
     70          1           0        4.368670   -5.273031   -1.019128
     71          1           0        0.691168   -4.446854   -0.135302
     72          1           0       -1.871789   -5.484079    0.040130
     73          1           0       -2.312582   -5.245733   -1.633776
     74          1           0       -0.632638   -5.191087   -1.156418
     75          1           0       -3.718998    0.115388   -0.340005
     76          1           0       -1.030678    4.880919    2.259269
     77          1           0       -1.470229    5.377509    0.642711
     78          1           0       -2.710863    4.909101    1.780467
     79          1           0        0.959037    4.053002    1.536569
     80          1           0        6.377479    1.746717    0.294049
     81          1           0        6.062529    2.696784   -1.138168
     82          1           0        6.139870    3.472795    0.425447
     83          1           0       -4.260689   -4.147251    0.856614
     84          1           0       -4.614912   -2.541032    1.409074
     85          1           0       -4.423353   -3.328673   -1.531313
     86          1           0       -4.662318   -1.703894   -0.921484
     87          1           0       -7.079462   -4.706893   -0.702037
     88          1           0       -5.432422    4.146315   -2.686362
     89          1           0       -3.865355    4.198140   -0.792395
     90          1           0       -4.213496    2.640504   -1.462549
     91          1           0       -4.610678    1.732675    0.760258
     92          1           0       -4.351769    3.313388    1.466921
     93          1           0        6.263186   -4.172837   -2.558857
     94          1           0        5.380045   -2.818283   -3.220907
     95          1           0        7.036637   -2.612839   -2.704611
     96          1           0        6.338494   -2.609674   -0.306796
     97          1           0        5.674705    5.240385    0.530430
     98          1           0        4.411594    5.650706   -0.605024
     99          1           0        4.613972    6.590664    0.853945
    100          1           0        3.229173    4.973860    2.082733
    101          1           0        5.090544    0.028471   -1.238159
 ---------------------------------------------------------------------
 Rotational constants (GHZ):           0.0630138           0.0442226           0.0328073
 Standard basis: def2TZVP (5D, 7F)
 There are  2218 symmetry adapted cartesian basis functions of A   symmetry.
 There are  1951 symmetry adapted basis functions of A   symmetry.
  1951 basis functions,  3156 primitive gaussians,  2218 cartesian basis functions
   207 alpha electrons      202 beta electrons
       nuclear repulsion energy      8922.2388703937 Hartrees.
 NAtoms=  101 NActive=  101 NUniq=  101 SFac= 1.00D+00 NAtFMM=   60 NAOKFM=T Big=T
 Integral buffers will be    131072 words long.
 Raffenetti 2 integral format.
 Two-electron integral symmetry is turned on.
 Nuclear repulsion after empirical dispersion term =     8922.0885404321 Hartrees.
 One-electron integrals computed using PRISM.
   1 Symmetry operations used in ECPInt.
 ECPInt:  NShTT=  305371 NPrTT=  941867 LenC2=  222497 LenP2D=  443967.
 LDataN:  DoStor=T MaxTD1= 6 Len=  172
 NBasis=  1951 RedAO= T EigKep=  3.26D-06  NBF=  1951
 NBsUse=  1951 1.00D-06 EigRej= -1.00D+00 NBFU=  1951
 ExpMin= 4.20D-02 ExpMax= 3.01D+05 ExpMxC= 2.91D+03 IAcc=3 IRadAn=         5 AccDes= 0.00D+00
 Harris functional with IExCor= 1009 and IRadAn=       5 diagonalized for initial guess.
 HarFok:  IExCor= 1009 AccDes= 0.00D+00 IRadAn=         5 IDoV= 1 UseB2=F ITyADJ=14
 ICtDFT=  3500011 ScaDFX=  1.000000  1.000000  1.000000  1.000000
 FoFCou: FMM=F IPFlag=           0 FMFlag=      100000 FMFlg1=        2001
         NFxFlg=           0 DoJE=T BraDBF=F KetDBF=T FulRan=T
         wScrn=  0.000000 ICntrl=       500 IOpCl=  0 I1Cent=   200000004 NGrid=           0
         NMat0=    1 NMatS0=      1 NMatT0=    0 NMatD0=    1 NMtDS0=    0 NMtDT0=    0
 Petite list used in FoFCou.
 Initial guess <Sx>= 0.0000 <Sy>= 0.0000 <Sz>= 2.5000 <S**2>= 8.7500 S= 2.5000
 Requested convergence on RMS density matrix=1.00D-08 within 999 cycles.
 Requested convergence on MAX density matrix=1.00D-06.
 Requested convergence on             energy=1.00D-06.
 No special actions if energy rises.
 EnCoef did   100 forward-backward iterations
 EnCoef did   100 forward-backward iterations
 EnCoef did     6 forward-backward iterations
 EnCoef did   100 forward-backward iterations
 EnCoef did    17 forward-backward iterations
 EnCoef did     8 forward-backward iterations
 Restarting incremental Fock formation.
 Restarting incremental Fock formation.
 Restarting incremental Fock formation.
 SCF Done:  E(UPBE1PBE) =  -3880.35472437     A.U. after   68 cycles
            NFock= 68  Conv=0.58D-09     -V/T= 2.0031
 <Sx>= 0.0000 <Sy>= 0.0000 <Sz>= 2.5000 <S**2>= 8.8306 S= 2.5134
 <L.S>= 0.000000000000E+00
 Annihilation of the first spin contaminant:
 S**2 before annihilation     8.8306,   after     8.7516
 Hyperfine terms turned off by default for NAtoms > 100.

 **********************************************************************

            Population analysis using the SCF density.

 **********************************************************************

 Orbital symmetries:
 Alpha Orbitals:
       Occupied  (A) (A) (A) (A) (A) (A) (A) (A) (A) (A) (A) (A)
                 (A) (A) (A) (A) (A) (A) (A) (A) (A) (A) (A) (A)
                 (A) (A) (A) (A) (A) (A) (A) (A) (A) (A) (A) (A)
                 (A) (A) (A) (A) (A) (A) (A) (A) (A) (A) (A) (A)
                 (A) (A) (A) (A) (A) (A) (A) (A) (A) (A) (A) (A)
                 (A) (A) (A) (A) (A) (A) (A) (A) (A) (A) (A) (A)
                 (A) (A) (A) (A) (A) (A) (A) (A) (A) (A) (A) (A)
                 (A) (A) (A) (A) (A) (A) (A) (A) (A) (A) (A) (A)
                 (A) (A) (A) (A) (A) (A) (A) (A) (A) (A) (A) (A)
                 (A) (A) (A) (A) (A) (A) (A) (A) (A) (A) (A) (A)
                 (A) (A) (A) (A) (A) (A) (A) (A) (A) (A) (A) (A)
                 (A) (A) (A) (A) (A) (A) (A) (A) (A) (A) (A) (A)
                 (A) (A) (A) (A) (A) (A) (A) (A) (A) (A) (A) (A)
                 (A) (A) (A) (A) (A) (A) (A) (A) (A) (A) (A) (A)
                 (A) (A) (A) (A) (A) (A) (A) (A) (A) (A) (A) (A)
                 (A) (A) (A) (A) (A) (A) (A) (A) (A) (A) (A) (A)
                 (A) (A) (A) (A) (A) (A) (A) (A) (A) (A) (A) (A)
                 (A) (A) (A)
       Virtual   (A) (A) (A) (A) (A) (A) (A) (A) (A) (A) (A) (A)
                 (A) (A) (A) (A) (A) (A) (A) (A) (A) (A) (A) (A)
                 (A) (A) (A) (A) (A) (A) (A) (A) (A) (A) (A) (A)
                 (A) (A) (A) (A) (A) (A) (A) (A) (A) (A) (A) (A)
                 (A) (A) (A) (A) (A) (A) (A) (A) (A) (A) (A) (A)
                 (A) (A) (A) (A) (A) (A) (A) (A) (A) (A) (A) (A)
                 (A) (A) (A) (A) (A) (A) (A) (A) (A) (A) (A) (A)
                 (A) (A) (A) (A) (A) (A) (A) (A) (A) (A) (A) (A)
                 (A) (A) (A) (A) (A) (A) (A) (A) (A) (A) (A) (A)
                 (A) (A) (A) (A) (A) (A) (A) (A) (A) (A) (A) (A)
                 (A) (A) (A) (A) (A) (A) (A) (A) (A) (A) (A) (A)
                 (A) (A) (A) (A) (A) (A) (A) (A) (A) (A) (A) (A)
                 (A) (A) (A) (A) (A) (A) (A) (A) (A) (A) (A) (A)
                 (A) (A) (A) (A) (A) (A) (A) (A) (A) (A) (A) (A)
                 (A) (A) (A) (A) (A) (A) (A) (A) (A) (A) (A) (A)
                 (A) (A) (A) (A) (A) (A) (A) (A) (A) (A) (A) (A)
                 (A) (A) (A) (A) (A) (A) (A) (A) (A) (A) (A) (A)
                 (A) (A) (A) (A) (A) (A) (A) (A) (A) (A) (A) (A)
                 (A) (A) (A) (A) (A) (A) (A) (A) (A) (A) (A) (A)
                 (A) (A) (A) (A) (A) (A) (A) (A) (A) (A) (A) (A)
                 (A) (A) (A) (A) (A) (A) (A) (A) (A) (A) (A) (A)
                 (A) (A) (A) (A) (A) (A) (A) (A) (A) (A) (A) (A)
                 (A) (A) (A) (A) (A) (A) (A) (A) (A) (A) (A) (A)
                 (A) (A) (A) (A) (A) (A) (A) (A) (A) (A) (A) (A)
                 (A) (A) (A) (A) (A) (A) (A) (A) (A) (A) (A) (A)
                 (A) (A) (A) (A) (A) (A) (A) (A) (A) (A) (A) (A)
                 (A) (A) (A) (A) (A) (A) (A) (A) (A) (A) (A) (A)
                 (A) (A) (A) (A) (A) (A) (A) (A) (A) (A) (A) (A)
                 (A) (A) (A) (A) (A) (A) (A) (A) (A) (A) (A) (A)
                 (A) (A) (A) (A) (A) (A) (A) (A) (A) (A) (A) (A)
                 (A) (A) (A) (A) (A) (A) (A) (A) (A) (A) (A) (A)
                 (A) (A) (A) (A) (A) (A) (A) (A) (A) (A) (A) (A)
                 (A) (A) (A) (A) (A) (A) (A) (A) (A) (A) (A) (A)
                 (A) (A) (A) (A) (A) (A) (A) (A) (A) (A) (A) (A)
                 (A) (A) (A) (A) (A) (A) (A) (A) (A) (A) (A) (A)
                 (A) (A) (A) (A) (A) (A) (A) (A) (A) (A) (A) (A)
                 (A) (A) (A) (A) (A) (A) (A) (A) (A) (A) (A) (A)
                 (A) (A) (A) (A) (A) (A) (A) (A) (A) (A) (A) (A)
                 (A) (A) (A) (A) (A) (A) (A) (A) (A) (A) (A) (A)
                 (A) (A) (A) (A) (A) (A) (A) (A) (A) (A) (A) (A)
                 (A) (A) (A) (A) (A) (A) (A) (A) (A) (A) (A) (A)
                 (A) (A) (A) (A) (A) (A) (A) (A) (A) (A) (A) (A)
                 (A) (A) (A) (A) (A) (A) (A) (A) (A) (A) (A) (A)
                 (A) (A) (A) (A) (A) (A) (A) (A) (A) (A) (A) (A)
                 (A) (A) (A) (A) (A) (A) (A) (A) (A) (A) (A) (A)
                 (A) (A) (A) (A) (A) (A) (A) (A) (A) (A) (A) (A)
                 (A) (A) (A) (A) (A) (A) (A) (A) (A) (A) (A) (A)
                 (A) (A) (A) (A) (A) (A) (A) (A) (A) (A) (A) (A)
                 (A) (A) (A) (A) (A) (A) (A) (A) (A) (A) (A) (A)
                 (A) (A) (A) (A) (A) (A) (A) (A) (A) (A) (A) (A)
                 (A) (A) (A) (A) (A) (A) (A) (A) (A) (A) (A) (A)
                 (A) (A) (A) (A) (A) (A) (A) (A) (A) (A) (A) (A)
                 (A) (A) (A) (A) (A) (A) (A) (A) (A) (A) (A) (A)
                 (A) (A) (A) (A) (A) (A) (A) (A) (A) (A) (A) (A)
                 (A) (A) (A) (A) (A) (A) (A) (A) (A) (A) (A) (A)
                 (A) (A) (A) (A) (A) (A) (A) (A) (A) (A) (A) (A)
                 (A) (A) (A) (A) (A) (A) (A) (A) (A) (A) (A) (A)
                 (A) (A) (A) (A) (A) (A) (A) (A) (A) (A) (A) (A)
                 (A) (A) (A) (A) (A) (A) (A) (A) (A) (A) (A) (A)
                 (A) (A) (A) (A) (A) (A) (A) (A) (A) (A) (A) (A)
                 (A) (A) (A) (A) (A) (A) (A) (A) (A) (A) (A) (A)
                 (A) (A) (A) (A) (A) (A) (A) (A) (A) (A) (A) (A)
                 (A) (A) (A) (A) (A) (A) (A) (A) (A) (A) (A) (A)
                 (A) (A) (A) (A) (A) (A) (A) (A) (A) (A) (A) (A)
                 (A) (A) (A) (A) (A) (A) (A) (A) (A) (A) (A) (A)
                 (A) (A) (A) (A) (A) (A) (A) (A) (A) (A) (A) (A)
                 (A) (A) (A) (A) (A) (A) (A) (A) (A) (A) (A) (A)
                 (A) (A) (A) (A) (A) (A) (A) (A) (A) (A) (A) (A)
                 (A) (A) (A) (A) (A) (A) (A) (A) (A) (A) (A) (A)
                 (A) (A) (A) (A) (A) (A) (A) (A) (A) (A) (A) (A)
                 (A) (A) (A) (A) (A) (A) (A) (A) (A) (A) (A) (A)
                 (A) (A) (A) (A) (A) (A) (A) (A) (A) (A) (A) (A)
                 (A) (A) (A) (A) (A) (A) (A) (A) (A) (A) (A) (A)
                 (A) (A) (A) (A) (A) (A) (A) (A) (A) (A) (A) (A)
                 (A) (A) (A) (A) (A) (A) (A) (A) (A) (A) (A) (A)
                 (A) (A) (A) (A) (A) (A) (A) (A) (A) (A) (A) (A)
                 (A) (A) (A) (A) (A) (A) (A) (A) (A) (A) (A) (A)
                 (A) (A) (A) (A) (A) (A) (A) (A) (A) (A) (A) (A)
                 (A) (A) (A) (A) (A) (A) (A) (A) (A) (A) (A) (A)
                 (A) (A) (A) (A) (A) (A) (A) (A) (A) (A) (A) (A)
                 (A) (A) (A) (A) (A) (A) (A) (A) (A) (A) (A) (A)
                 (A) (A) (A) (A) (A) (A) (A) (A) (A) (A) (A) (A)
                 (A) (A) (A) (A) (A) (A) (A) (A) (A) (A) (A) (A)
                 (A) (A) (A) (A) (A) (A) (A) (A) (A) (A) (A) (A)
                 (A) (A) (A) (A) (A) (A) (A) (A) (A) (A) (A) (A)
                 (A) (A) (A) (A) (A) (A) (A) (A) (A) (A) (A) (A)
                 (A) (A) (A) (A) (A) (A) (A) (A) (A) (A) (A) (A)
                 (A) (A) (A) (A) (A) (A) (A) (A) (A) (A) (A) (A)
                 (A) (A) (A) (A) (A) (A) (A) (A) (A) (A) (A) (A)
                 (A) (A) (A) (A) (A) (A) (A) (A) (A) (A) (A) (A)
                 (A) (A) (A) (A) (A) (A) (A) (A) (A) (A) (A) (A)
                 (A) (A) (A) (A) (A) (A) (A) (A) (A) (A) (A) (A)
                 (A) (A) (A) (A) (A) (A) (A) (A) (A) (A) (A) (A)
                 (A) (A) (A) (A) (A) (A) (A) (A) (A) (A) (A) (A)
                 (A) (A) (A) (A) (A) (A) (A) (A) (A) (A) (A) (A)
                 (A) (A) (A) (A) (A) (A) (A) (A) (A) (A) (A) (A)
                 (A) (A) (A) (A) (A) (A) (A) (A) (A) (A) (A) (A)
                 (A) (A) (A) (A) (A) (A) (A) (A) (A) (A) (A) (A)
                 (A) (A) (A) (A) (A) (A) (A) (A) (A) (A) (A) (A)
                 (A) (A) (A) (A) (A) (A) (A) (A) (A) (A) (A) (A)
                 (A) (A) (A) (A) (A) (A) (A) (A) (A) (A) (A) (A)
                 (A) (A) (A) (A) (A) (A) (A) (A) (A) (A) (A) (A)
                 (A) (A) (A) (A) (A) (A) (A) (A) (A) (A) (A) (A)
                 (A) (A) (A) (A) (A) (A) (A) (A) (A) (A) (A) (A)
                 (A) (A) (A) (A) (A) (A) (A) (A) (A) (A) (A) (A)
                 (A) (A) (A) (A) (A) (A) (A) (A) (A) (A) (A) (A)
                 (A) (A) (A) (A) (A) (A) (A) (A) (A) (A) (A) (A)
                 (A) (A) (A) (A) (A) (A) (A) (A) (A) (A) (A) (A)
                 (A) (A) (A) (A) (A) (A) (A) (A) (A) (A) (A) (A)
                 (A) (A) (A) (A) (A) (A) (A) (A) (A) (A) (A) (A)
                 (A) (A) (A) (A) (A) (A) (A) (A) (A) (A) (A) (A)
                 (A) (A) (A) (A) (A) (A) (A) (A) (A) (A) (A) (A)
                 (A) (A) (A) (A) (A) (A) (A) (A) (A) (A) (A) (A)
                 (A) (A) (A) (A) (A) (A) (A) (A) (A) (A) (A) (A)
                 (A) (A) (A) (A) (A) (A) (A) (A) (A) (A) (A) (A)
                 (A) (A) (A) (A) (A) (A) (A) (A) (A) (A) (A) (A)
                 (A) (A) (A) (A) (A) (A) (A) (A) (A) (A) (A) (A)
                 (A) (A) (A) (A) (A) (A) (A) (A) (A) (A) (A) (A)
                 (A) (A) (A) (A) (A) (A) (A) (A) (A) (A) (A) (A)
                 (A) (A) (A) (A) (A) (A) (A) (A) (A) (A) (A) (A)
                 (A) (A) (A) (A) (A) (A) (A) (A) (A) (A) (A) (A)
                 (A) (A) (A) (A) (A) (A) (A) (A) (A) (A) (A) (A)
                 (A) (A) (A) (A) (A) (A) (A) (A) (A) (A) (A) (A)
                 (A) (A) (A) (A) (A) (A) (A) (A) (A) (A) (A) (A)
                 (A) (A) (A) (A) (A) (A) (A) (A) (A) (A) (A) (A)
                 (A) (A) (A) (A) (A) (A) (A) (A) (A) (A) (A) (A)
                 (A) (A) (A) (A) (A) (A) (A) (A) (A) (A) (A) (A)
                 (A) (A) (A) (A) (A) (A) (A) (A) (A) (A) (A) (A)
                 (A) (A) (A) (A) (A) (A) (A) (A) (A) (A) (A) (A)
                 (A) (A) (A) (A) (A) (A) (A) (A) (A) (A) (A) (A)
                 (A) (A) (A) (A) (A) (A) (A) (A) (A) (A) (A) (A)
                 (A) (A) (A) (A) (A) (A) (A) (A) (A) (A) (A) (A)
                 (A) (A) (A) (A) (A) (A) (A) (A) (A) (A) (A) (A)
                 (A) (A) (A) (A) (A) (A) (A) (A) (A) (A) (A) (A)
                 (A) (A) (A) (A) (A) (A) (A) (A) (A) (A) (A) (A)
                 (A) (A) (A) (A) (A) (A) (A) (A) (A) (A) (A) (A)
                 (A) (A) (A) (A) (A) (A) (A) (A) (A) (A) (A) (A)
                 (A) (A) (A) (A) (A) (A) (A) (A) (A) (A) (A) (A)
                 (A) (A) (A) (A) (A) (A) (A) (A) (A) (A) (A) (A)
                 (A) (A) (A) (A) (A) (A) (A) (A) (A) (A) (A) (A)
                 (A) (A) (A) (A) (A) (A) (A) (A) (A) (A) (A) (A)
                 (A) (A) (A) (A) (A) (A) (A) (A) (A) (A) (A) (A)
                 (A) (A) (A) (A) (A) (A) (A) (A) (A) (A) (A) (A)
                 (A) (A) (A) (A) (A) (A) (A) (A) (A) (A) (A) (A)
                 (A) (A) (A) (A) (A) (A) (A) (A) (A) (A) (A) (A)
                 (A) (A) (A) (A)
 Beta  Orbitals:
       Occupied  (A) (A) (A) (A) (A) (A) (A) (A) (A) (A) (A) (A)
                 (A) (A) (A) (A) (A) (A) (A) (A) (A) (A) (A) (A)
                 (A) (A) (A) (A) (A) (A) (A) (A) (A) (A) (A) (A)
                 (A) (A) (A) (A) (A) (A) (A) (A) (A) (A) (A) (A)
                 (A) (A) (A) (A) (A) (A) (A) (A) (A) (A) (A) (A)
                 (A) (A) (A) (A) (A) (A) (A) (A) (A) (A) (A) (A)
                 (A) (A) (A) (A) (A) (A) (A) (A) (A) (A) (A) (A)
                 (A) (A) (A) (A) (A) (A) (A) (A) (A) (A) (A) (A)
                 (A) (A) (A) (A) (A) (A) (A) (A) (A) (A) (A) (A)
                 (A) (A) (A) (A) (A) (A) (A) (A) (A) (A) (A) (A)
                 (A) (A) (A) (A) (A) (A) (A) (A) (A) (A) (A) (A)
                 (A) (A) (A) (A) (A) (A) (A) (A) (A) (A) (A) (A)
                 (A) (A) (A) (A) (A) (A) (A) (A) (A) (A) (A) (A)
                 (A) (A) (A) (A) (A) (A) (A) (A) (A) (A) (A) (A)
                 (A) (A) (A) (A) (A) (A) (A) (A) (A) (A) (A) (A)
                 (A) (A) (A) (A) (A) (A) (A) (A) (A) (A) (A) (A)
                 (A) (A) (A) (A) (A) (A) (A) (A) (A) (A)
       Virtual   (A) (A) (A) (A) (A) (A) (A) (A) (A) (A) (A) (A)
                 (A) (A) (A) (A) (A) (A) (A) (A) (A) (A) (A) (A)
                 (A) (A) (A) (A) (A) (A) (A) (A) (A) (A) (A) (A)
                 (A) (A) (A) (A) (A) (A) (A) (A) (A) (A) (A) (A)
                 (A) (A) (A) (A) (A) (A) (A) (A) (A) (A) (A) (A)
                 (A) (A) (A) (A) (A) (A) (A) (A) (A) (A) (A) (A)
                 (A) (A) (A) (A) (A) (A) (A) (A) (A) (A) (A) (A)
                 (A) (A) (A) (A) (A) (A) (A) (A) (A) (A) (A) (A)
                 (A) (A) (A) (A) (A) (A) (A) (A) (A) (A) (A) (A)
                 (A) (A) (A) (A) (A) (A) (A) (A) (A) (A) (A) (A)
                 (A) (A) (A) (A) (A) (A) (A) (A) (A) (A) (A) (A)
                 (A) (A) (A) (A) (A) (A) (A) (A) (A) (A) (A) (A)
                 (A) (A) (A) (A) (A) (A) (A) (A) (A) (A) (A) (A)
                 (A) (A) (A) (A) (A) (A) (A) (A) (A) (A) (A) (A)
                 (A) (A) (A) (A) (A) (A) (A) (A) (A) (A) (A) (A)
                 (A) (A) (A) (A) (A) (A) (A) (A) (A) (A) (A) (A)
                 (A) (A) (A) (A) (A) (A) (A) (A) (A) (A) (A) (A)
                 (A) (A) (A) (A) (A) (A) (A) (A) (A) (A) (A) (A)
                 (A) (A) (A) (A) (A) (A) (A) (A) (A) (A) (A) (A)
                 (A) (A) (A) (A) (A) (A) (A) (A) (A) (A) (A) (A)
                 (A) (A) (A) (A) (A) (A) (A) (A) (A) (A) (A) (A)
                 (A) (A) (A) (A) (A) (A) (A) (A) (A) (A) (A) (A)
                 (A) (A) (A) (A) (A) (A) (A) (A) (A) (A) (A) (A)
                 (A) (A) (A) (A) (A) (A) (A) (A) (A) (A) (A) (A)
                 (A) (A) (A) (A) (A) (A) (A) (A) (A) (A) (A) (A)
                 (A) (A) (A) (A) (A) (A) (A) (A) (A) (A) (A) (A)
                 (A) (A) (A) (A) (A) (A) (A) (A) (A) (A) (A) (A)
                 (A) (A) (A) (A) (A) (A) (A) (A) (A) (A) (A) (A)
                 (A) (A) (A) (A) (A) (A) (A) (A) (A) (A) (A) (A)
                 (A) (A) (A) (A) (A) (A) (A) (A) (A) (A) (A) (A)
                 (A) (A) (A) (A) (A) (A) (A) (A) (A) (A) (A) (A)
                 (A) (A) (A) (A) (A) (A) (A) (A) (A) (A) (A) (A)
                 (A) (A) (A) (A) (A) (A) (A) (A) (A) (A) (A) (A)
                 (A) (A) (A) (A) (A) (A) (A) (A) (A) (A) (A) (A)
                 (A) (A) (A) (A) (A) (A) (A) (A) (A) (A) (A) (A)
                 (A) (A) (A) (A) (A) (A) (A) (A) (A) (A) (A) (A)
                 (A) (A) (A) (A) (A) (A) (A) (A) (A) (A) (A) (A)
                 (A) (A) (A) (A) (A) (A) (A) (A) (A) (A) (A) (A)
                 (A) (A) (A) (A) (A) (A) (A) (A) (A) (A) (A) (A)
                 (A) (A) (A) (A) (A) (A) (A) (A) (A) (A) (A) (A)
                 (A) (A) (A) (A) (A) (A) (A) (A) (A) (A) (A) (A)
                 (A) (A) (A) (A) (A) (A) (A) (A) (A) (A) (A) (A)
                 (A) (A) (A) (A) (A) (A) (A) (A) (A) (A) (A) (A)
                 (A) (A) (A) (A) (A) (A) (A) (A) (A) (A) (A) (A)
                 (A) (A) (A) (A) (A) (A) (A) (A) (A) (A) (A) (A)
                 (A) (A) (A) (A) (A) (A) (A) (A) (A) (A) (A) (A)
                 (A) (A) (A) (A) (A) (A) (A) (A) (A) (A) (A) (A)
                 (A) (A) (A) (A) (A) (A) (A) (A) (A) (A) (A) (A)
                 (A) (A) (A) (A) (A) (A) (A) (A) (A) (A) (A) (A)
                 (A) (A) (A) (A) (A) (A) (A) (A) (A) (A) (A) (A)
                 (A) (A) (A) (A) (A) (A) (A) (A) (A) (A) (A) (A)
                 (A) (A) (A) (A) (A) (A) (A) (A) (A) (A) (A) (A)
                 (A) (A) (A) (A) (A) (A) (A) (A) (A) (A) (A) (A)
                 (A) (A) (A) (A) (A) (A) (A) (A) (A) (A) (A) (A)
                 (A) (A) (A) (A) (A) (A) (A) (A) (A) (A) (A) (A)
                 (A) (A) (A) (A) (A) (A) (A) (A) (A) (A) (A) (A)
                 (A) (A) (A) (A) (A) (A) (A) (A) (A) (A) (A) (A)
                 (A) (A) (A) (A) (A) (A) (A) (A) (A) (A) (A) (A)
                 (A) (A) (A) (A) (A) (A) (A) (A) (A) (A) (A) (A)
                 (A) (A) (A) (A) (A) (A) (A) (A) (A) (A) (A) (A)
                 (A) (A) (A) (A) (A) (A) (A) (A) (A) (A) (A) (A)
                 (A) (A) (A) (A) (A) (A) (A) (A) (A) (A) (A) (A)
                 (A) (A) (A) (A) (A) (A) (A) (A) (A) (A) (A) (A)
                 (A) (A) (A) (A) (A) (A) (A) (A) (A) (A) (A) (A)
                 (A) (A) (A) (A) (A) (A) (A) (A) (A) (A) (A) (A)
                 (A) (A) (A) (A) (A) (A) (A) (A) (A) (A) (A) (A)
                 (A) (A) (A) (A) (A) (A) (A) (A) (A) (A) (A) (A)
                 (A) (A) (A) (A) (A) (A) (A) (A) (A) (A) (A) (A)
                 (A) (A) (A) (A) (A) (A) (A) (A) (A) (A) (A) (A)
                 (A) (A) (A) (A) (A) (A) (A) (A) (A) (A) (A) (A)
                 (A) (A) (A) (A) (A) (A) (A) (A) (A) (A) (A) (A)
                 (A) (A) (A) (A) (A) (A) (A) (A) (A) (A) (A) (A)
                 (A) (A) (A) (A) (A) (A) (A) (A) (A) (A) (A) (A)
                 (A) (A) (A) (A) (A) (A) (A) (A) (A) (A) (A) (A)
                 (A) (A) (A) (A) (A) (A) (A) (A) (A) (A) (A) (A)
                 (A) (A) (A) (A) (A) (A) (A) (A) (A) (A) (A) (A)
                 (A) (A) (A) (A) (A) (A) (A) (A) (A) (A) (A) (A)
                 (A) (A) (A) (A) (A) (A) (A) (A) (A) (A) (A) (A)
                 (A) (A) (A) (A) (A) (A) (A) (A) (A) (A) (A) (A)
                 (A) (A) (A) (A) (A) (A) (A) (A) (A) (A) (A) (A)
                 (A) (A) (A) (A) (A) (A) (A) (A) (A) (A) (A) (A)
                 (A) (A) (A) (A) (A) (A) (A) (A) (A) (A) (A) (A)
                 (A) (A) (A) (A) (A) (A) (A) (A) (A) (A) (A) (A)
                 (A) (A) (A) (A) (A) (A) (A) (A) (A) (A) (A) (A)
                 (A) (A) (A) (A) (A) (A) (A) (A) (A) (A) (A) (A)
                 (A) (A) (A) (A) (A) (A) (A) (A) (A) (A) (A) (A)
                 (A) (A) (A) (A) (A) (A) (A) (A) (A) (A) (A) (A)
                 (A) (A) (A) (A) (A) (A) (A) (A) (A) (A) (A) (A)
                 (A) (A) (A) (A) (A) (A) (A) (A) (A) (A) (A) (A)
                 (A) (A) (A) (A) (A) (A) (A) (A) (A) (A) (A) (A)
                 (A) (A) (A) (A) (A) (A) (A) (A) (A) (A) (A) (A)
                 (A) (A) (A) (A) (A) (A) (A) (A) (A) (A) (A) (A)
                 (A) (A) (A) (A) (A) (A) (A) (A) (A) (A) (A) (A)
                 (A) (A) (A) (A) (A) (A) (A) (A) (A) (A) (A) (A)
                 (A) (A) (A) (A) (A) (A) (A) (A) (A) (A) (A) (A)
                 (A) (A) (A) (A) (A) (A) (A) (A) (A) (A) (A) (A)
                 (A) (A) (A) (A) (A) (A) (A) (A) (A) (A) (A) (A)
                 (A) (A) (A) (A) (A) (A) (A) (A) (A) (A) (A) (A)
                 (A) (A) (A) (A) (A) (A) (A) (A) (A) (A) (A) (A)
                 (A) (A) (A) (A) (A) (A) (A) (A) (A) (A) (A) (A)
                 (A) (A) (A) (A) (A) (A) (A) (A) (A) (A) (A) (A)
                 (A) (A) (A) (A) (A) (A) (A) (A) (A) (A) (A) (A)
                 (A) (A) (A) (A) (A) (A) (A) (A) (A) (A) (A) (A)
                 (A) (A) (A) (A) (A) (A) (A) (A) (A) (A) (A) (A)
                 (A) (A) (A) (A) (A) (A) (A) (A) (A) (A) (A) (A)
                 (A) (A) (A) (A) (A) (A) (A) (A) (A) (A) (A) (A)
                 (A) (A) (A) (A) (A) (A) (A) (A) (A) (A) (A) (A)
                 (A) (A) (A) (A) (A) (A) (A) (A) (A) (A) (A) (A)
                 (A) (A) (A) (A) (A) (A) (A) (A) (A) (A) (A) (A)
                 (A) (A) (A) (A) (A) (A) (A) (A) (A) (A) (A) (A)
                 (A) (A) (A) (A) (A) (A) (A) (A) (A) (A) (A) (A)
                 (A) (A) (A) (A) (A) (A) (A) (A) (A) (A) (A) (A)
                 (A) (A) (A) (A) (A) (A) (A) (A) (A) (A) (A) (A)
                 (A) (A) (A) (A) (A) (A) (A) (A) (A) (A) (A) (A)
                 (A) (A) (A) (A) (A) (A) (A) (A) (A) (A) (A) (A)
                 (A) (A) (A) (A) (A) (A) (A) (A) (A) (A) (A) (A)
                 (A) (A) (A) (A) (A) (A) (A) (A) (A) (A) (A) (A)
                 (A) (A) (A) (A) (A) (A) (A) (A) (A) (A) (A) (A)
                 (A) (A) (A) (A) (A) (A) (A) (A) (A) (A) (A) (A)
                 (A) (A) (A) (A) (A) (A) (A) (A) (A) (A) (A) (A)
                 (A) (A) (A) (A) (A) (A) (A) (A) (A) (A) (A) (A)
                 (A) (A) (A) (A) (A) (A) (A) (A) (A) (A) (A) (A)
                 (A) (A) (A) (A) (A) (A) (A) (A) (A) (A) (A) (A)
                 (A) (A) (A) (A) (A) (A) (A) (A) (A) (A) (A) (A)
                 (A) (A) (A) (A) (A) (A) (A) (A) (A) (A) (A) (A)
                 (A) (A) (A) (A) (A) (A) (A) (A) (A) (A) (A) (A)
                 (A) (A) (A) (A) (A) (A) (A) (A) (A) (A) (A) (A)
                 (A) (A) (A) (A) (A) (A) (A) (A) (A) (A) (A) (A)
                 (A) (A) (A) (A) (A) (A) (A) (A) (A) (A) (A) (A)
                 (A) (A) (A) (A) (A) (A) (A) (A) (A) (A) (A) (A)
                 (A) (A) (A) (A) (A) (A) (A) (A) (A) (A) (A) (A)
                 (A) (A) (A) (A) (A) (A) (A) (A) (A) (A) (A) (A)
                 (A) (A) (A) (A) (A) (A) (A) (A) (A) (A) (A) (A)
                 (A) (A) (A) (A) (A) (A) (A) (A) (A) (A) (A) (A)
                 (A) (A) (A) (A) (A) (A) (A) (A) (A) (A) (A) (A)
                 (A) (A) (A) (A) (A) (A) (A) (A) (A) (A) (A) (A)
                 (A) (A) (A) (A) (A) (A) (A) (A) (A) (A) (A) (A)
                 (A) (A) (A) (A) (A) (A) (A) (A) (A) (A) (A) (A)
                 (A) (A) (A) (A) (A) (A) (A) (A) (A) (A) (A) (A)
                 (A) (A) (A) (A) (A) (A) (A) (A) (A) (A) (A) (A)
                 (A) (A) (A) (A) (A) (A) (A) (A) (A) (A) (A) (A)
                 (A) (A) (A) (A) (A) (A) (A) (A) (A) (A) (A) (A)
                 (A) (A) (A) (A) (A) (A) (A) (A) (A) (A) (A) (A)
                 (A) (A) (A) (A) (A) (A) (A) (A) (A) (A) (A) (A)
                 (A) (A) (A) (A) (A) (A) (A) (A) (A) (A) (A) (A)
                 (A) (A) (A) (A) (A) (A) (A) (A) (A)
 The electronic state is 6-A.
 Alpha  occ. eigenvalues -- -256.51691 -89.13491 -30.32596 -26.16066 -26.14212
 Alpha  occ. eigenvalues --  -26.13326 -19.33359 -19.32949 -19.24936 -19.24915
 Alpha  occ. eigenvalues --  -14.54334 -14.50095 -14.49951 -14.49703 -14.48162
 Alpha  occ. eigenvalues --  -14.48091 -10.42536 -10.41929 -10.38834 -10.36519
 Alpha  occ. eigenvalues --  -10.36513 -10.35916 -10.35893 -10.35812 -10.35793
 Alpha  occ. eigenvalues --  -10.35667 -10.35509 -10.35272 -10.34188 -10.33961
 Alpha  occ. eigenvalues --  -10.33691 -10.33351 -10.33173 -10.33062 -10.33034
 Alpha  occ. eigenvalues --  -10.32993 -10.32807 -10.32783 -10.32749 -10.32435
 Alpha  occ. eigenvalues --  -10.32383 -10.32284 -10.32200 -10.32060 -10.32014
 Alpha  occ. eigenvalues --  -10.31749 -10.31474 -10.31326 -10.31068 -10.30865
 Alpha  occ. eigenvalues --  -10.30724 -10.30643 -10.30458 -10.30130 -10.30062
 Alpha  occ. eigenvalues --  -10.29492 -10.29428  -8.11431  -6.05044  -6.04769
 Alpha  occ. eigenvalues --   -6.04307  -3.72203  -2.51820  -2.46340  -2.45999
 Alpha  occ. eigenvalues --   -1.24014  -1.23248  -1.16155  -1.10673  -1.09236
 Alpha  occ. eigenvalues --   -1.08327  -1.08231  -1.07947  -1.06996  -1.01475
 Alpha  occ. eigenvalues --   -0.94808  -0.94490  -0.93145  -0.92680  -0.92370
 Alpha  occ. eigenvalues --   -0.91812  -0.91648  -0.91270  -0.90904  -0.88353
 Alpha  occ. eigenvalues --   -0.87666  -0.86761  -0.86620  -0.86470  -0.85759
 Alpha  occ. eigenvalues --   -0.83734  -0.82463  -0.82089  -0.81442  -0.81097
 Alpha  occ. eigenvalues --   -0.79497  -0.78139  -0.77768  -0.77655  -0.76642
 Alpha  occ. eigenvalues --   -0.76298  -0.74968  -0.74526  -0.74013  -0.73040
 Alpha  occ. eigenvalues --   -0.72637  -0.71787  -0.71123  -0.70233  -0.69128
 Alpha  occ. eigenvalues --   -0.66925  -0.66002  -0.65330  -0.65131  -0.64466
 Alpha  occ. eigenvalues --   -0.63094  -0.62746  -0.61960  -0.61310  -0.60550
 Alpha  occ. eigenvalues --   -0.59643  -0.59301  -0.59258  -0.59012  -0.58697
 Alpha  occ. eigenvalues --   -0.58561  -0.57783  -0.57590  -0.57470  -0.56639
 Alpha  occ. eigenvalues --   -0.56112  -0.55685  -0.55346  -0.54891  -0.54835
 Alpha  occ. eigenvalues --   -0.54716  -0.54564  -0.54414  -0.54226  -0.54019
 Alpha  occ. eigenvalues --   -0.53911  -0.53764  -0.53386  -0.53298  -0.53075
 Alpha  occ. eigenvalues --   -0.52754  -0.52647  -0.52467  -0.52357  -0.52082
 Alpha  occ. eigenvalues --   -0.51891  -0.51806  -0.51494  -0.51293  -0.51130
 Alpha  occ. eigenvalues --   -0.50966  -0.50667  -0.50552  -0.50202  -0.49875
 Alpha  occ. eigenvalues --   -0.49774  -0.49684  -0.49351  -0.48918  -0.48836
 Alpha  occ. eigenvalues --   -0.48642  -0.48374  -0.48204  -0.47951  -0.47813
 Alpha  occ. eigenvalues --   -0.47719  -0.47451  -0.47203  -0.46792  -0.46404
 Alpha  occ. eigenvalues --   -0.46209  -0.45935  -0.45822  -0.45265  -0.45097
 Alpha  occ. eigenvalues --   -0.44841  -0.44695  -0.44381  -0.44012  -0.43484
 Alpha  occ. eigenvalues --   -0.43103  -0.42849  -0.42672  -0.41877  -0.40416
 Alpha  occ. eigenvalues --   -0.40036  -0.39619  -0.39031  -0.38738  -0.37799
 Alpha  occ. eigenvalues --   -0.36539  -0.35751  -0.35634  -0.35098  -0.34797
 Alpha  occ. eigenvalues --   -0.34360  -0.33557  -0.31223  -0.30788  -0.30066
 Alpha  occ. eigenvalues --   -0.30049  -0.28207
 Alpha virt. eigenvalues --   -0.19187  -0.18230  -0.17872  -0.11258  -0.08901
 Alpha virt. eigenvalues --   -0.08566  -0.07108  -0.06816  -0.06547  -0.06032
 Alpha virt. eigenvalues --   -0.05075  -0.05042  -0.04696  -0.04255  -0.03725
 Alpha virt. eigenvalues --   -0.03620  -0.03483  -0.03073  -0.02956  -0.02723
 Alpha virt. eigenvalues --   -0.02628  -0.02069  -0.01662  -0.01405  -0.01037
 Alpha virt. eigenvalues --   -0.00884  -0.00859  -0.00551  -0.00409   0.00077
 Alpha virt. eigenvalues --    0.00332   0.00756   0.01040   0.01139   0.01367
 Alpha virt. eigenvalues --    0.01476   0.01730   0.02014   0.02511   0.02625
 Alpha virt. eigenvalues --    0.02817   0.02885   0.03245   0.03594   0.03684
 Alpha virt. eigenvalues --    0.03973   0.04171   0.04245   0.04326   0.04583
 Alpha virt. eigenvalues --    0.04637   0.04790   0.04955   0.05070   0.05403
 Alpha virt. eigenvalues --    0.05693   0.05851   0.05966   0.05997   0.06212
 Alpha virt. eigenvalues --    0.06325   0.06506   0.06862   0.07136   0.07365
 Alpha virt. eigenvalues --    0.07578   0.07736   0.07873   0.08246   0.08469
 Alpha virt. eigenvalues --    0.08582   0.08935   0.09229   0.09382   0.09610
 Alpha virt. eigenvalues --    0.09706   0.09889   0.10117   0.10290   0.10362
 Alpha virt. eigenvalues --    0.10591   0.10875   0.11071   0.11226   0.11451
 Alpha virt. eigenvalues --    0.11647   0.11704   0.12079   0.12274   0.12466
 Alpha virt. eigenvalues --    0.12489   0.12662   0.13199   0.13283   0.13367
 Alpha virt. eigenvalues --    0.13843   0.13870   0.14101   0.14282   0.14430
 Alpha virt. eigenvalues --    0.14697   0.14922   0.15175   0.15490   0.15548
 Alpha virt. eigenvalues --    0.15766   0.15994   0.16010   0.16206   0.16490
 Alpha virt. eigenvalues --    0.16851   0.17187   0.17471   0.17540   0.17720
 Alpha virt. eigenvalues --    0.17850   0.18029   0.18280   0.18330   0.18552
 Alpha virt. eigenvalues --    0.18879   0.19045   0.19262   0.19448   0.19497
 Alpha virt. eigenvalues --    0.19865   0.19936   0.20041   0.20268   0.20372
 Alpha virt. eigenvalues --    0.20717   0.20910   0.21099   0.21219   0.21427
 Alpha virt. eigenvalues --    0.21644   0.21757   0.21907   0.22162   0.22405
 Alpha virt. eigenvalues --    0.22535   0.22787   0.23052   0.23290   0.23475
 Alpha virt. eigenvalues --    0.23928   0.24235   0.24547   0.24750   0.24934
 Alpha virt. eigenvalues --    0.25065   0.25263   0.25403   0.25803   0.25942
 Alpha virt. eigenvalues --    0.26258   0.26477   0.26654   0.26978   0.27336
 Alpha virt. eigenvalues --    0.27439   0.27557   0.27691   0.28128   0.28235
 Alpha virt. eigenvalues --    0.28602   0.28791   0.28833   0.29489   0.29660
 Alpha virt. eigenvalues --    0.29879   0.29999   0.30119   0.30382   0.30429
 Alpha virt. eigenvalues --    0.30705   0.30782   0.30864   0.31064   0.31389
 Alpha virt. eigenvalues --    0.31545   0.31730   0.32094   0.32190   0.32654
 Alpha virt. eigenvalues --    0.32697   0.32788   0.33051   0.33233   0.33356
 Alpha virt. eigenvalues --    0.33499   0.33778   0.34009   0.34273   0.34373
 Alpha virt. eigenvalues --    0.34603   0.34719   0.34989   0.35141   0.35292
 Alpha virt. eigenvalues --    0.35442   0.35604   0.35899   0.36040   0.36129
 Alpha virt. eigenvalues --    0.36194   0.36481   0.36562   0.36631   0.36800
 Alpha virt. eigenvalues --    0.36929   0.37092   0.37205   0.37495   0.37603
 Alpha virt. eigenvalues --    0.37820   0.37904   0.38155   0.38273   0.38447
 Alpha virt. eigenvalues --    0.38662   0.38809   0.38883   0.38919   0.38994
 Alpha virt. eigenvalues --    0.39202   0.39370   0.39931   0.40146   0.40193
 Alpha virt. eigenvalues --    0.40232   0.40316   0.40599   0.40712   0.40746
 Alpha virt. eigenvalues --    0.40958   0.41095   0.41231   0.41547   0.41679
 Alpha virt. eigenvalues --    0.41843   0.42028   0.42132   0.42255   0.42619
 Alpha virt. eigenvalues --    0.42714   0.43113   0.43205   0.43352   0.43630
 Alpha virt. eigenvalues --    0.43743   0.43822   0.44034   0.44225   0.44407
 Alpha virt. eigenvalues --    0.44547   0.44866   0.44956   0.45097   0.45278
 Alpha virt. eigenvalues --    0.45414   0.45637   0.45903   0.45982   0.46297
 Alpha virt. eigenvalues --    0.46403   0.46526   0.46941   0.47083   0.47258
 Alpha virt. eigenvalues --    0.47683   0.47789   0.47895   0.48091   0.48163
 Alpha virt. eigenvalues --    0.48460   0.48516   0.48778   0.49022   0.49315
 Alpha virt. eigenvalues --    0.49539   0.49942   0.50082   0.50327   0.50437
 Alpha virt. eigenvalues --    0.50607   0.50768   0.51012   0.51379   0.51473
 Alpha virt. eigenvalues --    0.51659   0.52053   0.52142   0.52510   0.52995
 Alpha virt. eigenvalues --    0.53054   0.53234   0.53441   0.53827   0.54071
 Alpha virt. eigenvalues --    0.54270   0.54360   0.54905   0.55020   0.55375
 Alpha virt. eigenvalues --    0.55581   0.55628   0.56049   0.56243   0.56620
 Alpha virt. eigenvalues --    0.56812   0.57115   0.57272   0.57382   0.57960
 Alpha virt. eigenvalues --    0.58018   0.58287   0.58632   0.58915   0.59260
 Alpha virt. eigenvalues --    0.59577   0.59780   0.59970   0.60157   0.60470
 Alpha virt. eigenvalues --    0.60834   0.61101   0.61426   0.61830   0.61921
 Alpha virt. eigenvalues --    0.62137   0.62305   0.62835   0.63131   0.63169
 Alpha virt. eigenvalues --    0.63817   0.63847   0.64000   0.64402   0.64432
 Alpha virt. eigenvalues --    0.64816   0.65152   0.65583   0.65752   0.66115
 Alpha virt. eigenvalues --    0.66475   0.66638   0.66791   0.66935   0.67706
 Alpha virt. eigenvalues --    0.67889   0.68018   0.68366   0.68595   0.68788
 Alpha virt. eigenvalues --    0.69391   0.69646   0.69735   0.69928   0.70450
 Alpha virt. eigenvalues --    0.70622   0.71146   0.71261   0.71771   0.72001
 Alpha virt. eigenvalues --    0.72125   0.72721   0.72964   0.73231   0.73838
 Alpha virt. eigenvalues --    0.73955   0.74028   0.74412   0.74902   0.75076
 Alpha virt. eigenvalues --    0.75403   0.75552   0.75758   0.75976   0.76416
 Alpha virt. eigenvalues --    0.76735   0.76941   0.77092   0.77198   0.77438
 Alpha virt. eigenvalues --    0.77865   0.78033   0.78237   0.78890   0.78985
 Alpha virt. eigenvalues --    0.79269   0.79569   0.79631   0.79989   0.80146
 Alpha virt. eigenvalues --    0.80412   0.80611   0.80778   0.81083   0.81499
 Alpha virt. eigenvalues --    0.81829   0.81950   0.82348   0.82586   0.82992
 Alpha virt. eigenvalues --    0.83092   0.83497   0.83785   0.84218   0.84261
 Alpha virt. eigenvalues --    0.84505   0.84874   0.84986   0.85193   0.85652
 Alpha virt. eigenvalues --    0.85815   0.86061   0.86285   0.86429   0.86582
 Alpha virt. eigenvalues --    0.86867   0.87466   0.87578   0.87899   0.88154
 Alpha virt. eigenvalues --    0.88399   0.88628   0.88903   0.89402   0.89782
 Alpha virt. eigenvalues --    0.89971   0.90364   0.90430   0.91063   0.91169
 Alpha virt. eigenvalues --    0.91482   0.91769   0.91893   0.92342   0.92901
 Alpha virt. eigenvalues --    0.93040   0.93110   0.93664   0.93834   0.94127
 Alpha virt. eigenvalues --    0.94357   0.94539   0.94850   0.94936   0.95276
 Alpha virt. eigenvalues --    0.95610   0.95817   0.96221   0.96298   0.96587
 Alpha virt. eigenvalues --    0.96876   0.97015   0.97295   0.97520   0.98071
 Alpha virt. eigenvalues --    0.98178   0.98245   0.98458   0.98839   0.99219
 Alpha virt. eigenvalues --    0.99824   0.99967   1.00053   1.00397   1.00460
 Alpha virt. eigenvalues --    1.00655   1.01125   1.01897   1.02070   1.02291
 Alpha virt. eigenvalues --    1.02418   1.02631   1.02781   1.02896   1.03206
 Alpha virt. eigenvalues --    1.03746   1.04397   1.04521   1.05049   1.05054
 Alpha virt. eigenvalues --    1.05277   1.05963   1.06371   1.06487   1.06644
 Alpha virt. eigenvalues --    1.06963   1.07327   1.07624   1.08148   1.08640
 Alpha virt. eigenvalues --    1.08916   1.09221   1.09849   1.10079   1.10461
 Alpha virt. eigenvalues --    1.10707   1.10722   1.11241   1.11584   1.12231
 Alpha virt. eigenvalues --    1.12303   1.12552   1.12868   1.13167   1.13492
 Alpha virt. eigenvalues --    1.13733   1.14150   1.14498   1.14767   1.15296
 Alpha virt. eigenvalues --    1.15490   1.15800   1.15979   1.16278   1.16812
 Alpha virt. eigenvalues --    1.17129   1.17508   1.17801   1.17974   1.18321
 Alpha virt. eigenvalues --    1.18528   1.18932   1.19197   1.20212   1.20574
 Alpha virt. eigenvalues --    1.20726   1.20904   1.21083   1.21480   1.22029
 Alpha virt. eigenvalues --    1.22525   1.22778   1.23050   1.23629   1.24226
 Alpha virt. eigenvalues --    1.24498   1.24976   1.25123   1.25994   1.26150
 Alpha virt. eigenvalues --    1.26674   1.27127   1.27478   1.27876   1.27906
 Alpha virt. eigenvalues --    1.28698   1.28910   1.29379   1.29527   1.30245
 Alpha virt. eigenvalues --    1.30577   1.31068   1.31185   1.31754   1.32550
 Alpha virt. eigenvalues --    1.32835   1.33509   1.33663   1.34149   1.34243
 Alpha virt. eigenvalues --    1.34572   1.35135   1.35208   1.35528   1.36064
 Alpha virt. eigenvalues --    1.36206   1.36620   1.36824   1.37325   1.37602
 Alpha virt. eigenvalues --    1.37794   1.38307   1.38529   1.38880   1.39312
 Alpha virt. eigenvalues --    1.39672   1.39874   1.40150   1.40431   1.40921
 Alpha virt. eigenvalues --    1.41235   1.41329   1.41414   1.42228   1.42502
 Alpha virt. eigenvalues --    1.42735   1.43123   1.43235   1.43327   1.43683
 Alpha virt. eigenvalues --    1.43761   1.44413   1.44771   1.44899   1.45204
 Alpha virt. eigenvalues --    1.45310   1.45633   1.45777   1.45956   1.46059
 Alpha virt. eigenvalues --    1.46346   1.46738   1.47042   1.47197   1.47366
 Alpha virt. eigenvalues --    1.47630   1.47812   1.47979   1.48285   1.48419
 Alpha virt. eigenvalues --    1.48757   1.48902   1.49302   1.49671   1.49780
 Alpha virt. eigenvalues --    1.50199   1.50484   1.50628   1.50864   1.51334
 Alpha virt. eigenvalues --    1.51510   1.51939   1.52108   1.52366   1.52538
 Alpha virt. eigenvalues --    1.52974   1.53267   1.53450   1.53617   1.53825
 Alpha virt. eigenvalues --    1.53897   1.54066   1.54416   1.54646   1.54765
 Alpha virt. eigenvalues --    1.55153   1.55412   1.55767   1.55989   1.56266
 Alpha virt. eigenvalues --    1.56539   1.56849   1.56955   1.57174   1.57550
 Alpha virt. eigenvalues --    1.57732   1.57832   1.58054   1.58219   1.58545
 Alpha virt. eigenvalues --    1.58951   1.59180   1.59365   1.59836   1.60174
 Alpha virt. eigenvalues --    1.60320   1.60546   1.60765   1.61117   1.61426
 Alpha virt. eigenvalues --    1.61750   1.62069   1.62517   1.62843   1.63204
 Alpha virt. eigenvalues --    1.63446   1.63509   1.63960   1.64176   1.64627
 Alpha virt. eigenvalues --    1.64943   1.65270   1.65373   1.65592   1.65802
 Alpha virt. eigenvalues --    1.66088   1.66409   1.67040   1.67100   1.67765
 Alpha virt. eigenvalues --    1.68129   1.68230   1.68836   1.69203   1.69594
 Alpha virt. eigenvalues --    1.70015   1.70070   1.70489   1.70808   1.71007
 Alpha virt. eigenvalues --    1.71311   1.71955   1.72645   1.73138   1.73559
 Alpha virt. eigenvalues --    1.73728   1.73899   1.74135   1.74492   1.74850
 Alpha virt. eigenvalues --    1.75322   1.75687   1.75998   1.76071   1.76300
 Alpha virt. eigenvalues --    1.76980   1.77297   1.77633   1.77780   1.78294
 Alpha virt. eigenvalues --    1.78376   1.78875   1.79128   1.79733   1.79854
 Alpha virt. eigenvalues --    1.80121   1.80572   1.81229   1.81352   1.81957
 Alpha virt. eigenvalues --    1.82237   1.82533   1.83083   1.83314   1.83675
 Alpha virt. eigenvalues --    1.84082   1.84141   1.84929   1.85180   1.85413
 Alpha virt. eigenvalues --    1.85742   1.85914   1.86276   1.86383   1.86730
 Alpha virt. eigenvalues --    1.86860   1.87199   1.87345   1.87532   1.88165
 Alpha virt. eigenvalues --    1.88446   1.88657   1.89144   1.89332   1.89557
 Alpha virt. eigenvalues --    1.89864   1.90279   1.90395   1.90811   1.91134
 Alpha virt. eigenvalues --    1.91618   1.92152   1.92438   1.92857   1.92968
 Alpha virt. eigenvalues --    1.93668   1.94086   1.94116   1.94916   1.95058
 Alpha virt. eigenvalues --    1.95504   1.95705   1.96060   1.96579   1.96657
 Alpha virt. eigenvalues --    1.97342   1.97473   1.97825   1.98250   1.98737
 Alpha virt. eigenvalues --    1.98891   1.99042   1.99452   1.99579   1.99898
 Alpha virt. eigenvalues --    2.00203   2.00452   2.00849   2.01189   2.01879
 Alpha virt. eigenvalues --    2.02131   2.02388   2.02754   2.03368   2.03615
 Alpha virt. eigenvalues --    2.03930   2.04228   2.04566   2.04732   2.05033
 Alpha virt. eigenvalues --    2.05210   2.05658   2.05929   2.05953   2.06168
 Alpha virt. eigenvalues --    2.06302   2.06779   2.07438   2.07665   2.08273
 Alpha virt. eigenvalues --    2.08421   2.08839   2.09200   2.09642   2.10037
 Alpha virt. eigenvalues --    2.10182   2.10510   2.10815   2.11166   2.11490
 Alpha virt. eigenvalues --    2.11550   2.12295   2.12724   2.12903   2.13240
 Alpha virt. eigenvalues --    2.13641   2.14248   2.14374   2.14780   2.14970
 Alpha virt. eigenvalues --    2.15152   2.15388   2.15766   2.15964   2.16692
 Alpha virt. eigenvalues --    2.17026   2.17507   2.17708   2.18224   2.18342
 Alpha virt. eigenvalues --    2.18685   2.18955   2.19539   2.19799   2.20285
 Alpha virt. eigenvalues --    2.20706   2.20992   2.21152   2.21442   2.21945
 Alpha virt. eigenvalues --    2.22177   2.22278   2.22670   2.23369   2.23607
 Alpha virt. eigenvalues --    2.23917   2.24224   2.24650   2.25029   2.25759
 Alpha virt. eigenvalues --    2.25991   2.26715   2.26867   2.27055   2.27600
 Alpha virt. eigenvalues --    2.27656   2.28254   2.28513   2.28554   2.28906
 Alpha virt. eigenvalues --    2.29112   2.29163   2.29699   2.29873   2.30192
 Alpha virt. eigenvalues --    2.30319   2.30548   2.30620   2.31070   2.31370
 Alpha virt. eigenvalues --    2.31794   2.32470   2.32592   2.33087   2.33468
 Alpha virt. eigenvalues --    2.33571   2.34004   2.34364   2.34539   2.34956
 Alpha virt. eigenvalues --    2.35269   2.35942   2.36092   2.36741   2.37049
 Alpha virt. eigenvalues --    2.37234   2.38018   2.38229   2.38642   2.38829
 Alpha virt. eigenvalues --    2.38945   2.39529   2.39819   2.40489   2.40750
 Alpha virt. eigenvalues --    2.40913   2.41400   2.41524   2.42030   2.42166
 Alpha virt. eigenvalues --    2.42769   2.43234   2.43604   2.43778   2.43891
 Alpha virt. eigenvalues --    2.44233   2.44683   2.45195   2.45415   2.45860
 Alpha virt. eigenvalues --    2.46279   2.46528   2.46824   2.47390   2.47795
 Alpha virt. eigenvalues --    2.47909   2.48422   2.48532   2.48690   2.48898
 Alpha virt. eigenvalues --    2.49568   2.49911   2.50148   2.50398   2.50935
 Alpha virt. eigenvalues --    2.51228   2.51563   2.51650   2.51949   2.52021
 Alpha virt. eigenvalues --    2.52335   2.52626   2.52893   2.53209   2.53420
 Alpha virt. eigenvalues --    2.53870   2.54259   2.54329   2.54509   2.54775
 Alpha virt. eigenvalues --    2.55287   2.55459   2.55623   2.55982   2.56224
 Alpha virt. eigenvalues --    2.56415   2.56644   2.57082   2.57457   2.57663
 Alpha virt. eigenvalues --    2.58019   2.58244   2.58495   2.59171   2.59257
 Alpha virt. eigenvalues --    2.59565   2.59969   2.60193   2.60462   2.60992
 Alpha virt. eigenvalues --    2.61145   2.61402   2.61780   2.62131   2.62558
 Alpha virt. eigenvalues --    2.62660   2.62801   2.63038   2.63366   2.63568
 Alpha virt. eigenvalues --    2.63843   2.64114   2.64338   2.64486   2.65063
 Alpha virt. eigenvalues --    2.65139   2.65450   2.65816   2.66197   2.66698
 Alpha virt. eigenvalues --    2.67158   2.67396   2.67634   2.67827   2.67873
 Alpha virt. eigenvalues --    2.68406   2.68539   2.68988   2.69378   2.69702
 Alpha virt. eigenvalues --    2.69790   2.69999   2.70296   2.70810   2.71103
 Alpha virt. eigenvalues --    2.71695   2.72223   2.72649   2.73382   2.73566
 Alpha virt. eigenvalues --    2.73888   2.74003   2.74696   2.74770   2.75022
 Alpha virt. eigenvalues --    2.75651   2.75862   2.76192   2.76358   2.76545
 Alpha virt. eigenvalues --    2.76866   2.77310   2.77685   2.78037   2.78384
 Alpha virt. eigenvalues --    2.78557   2.79000   2.79124   2.79443   2.79625
 Alpha virt. eigenvalues --    2.80328   2.80644   2.80879   2.81220   2.81800
 Alpha virt. eigenvalues --    2.81974   2.82173   2.82574   2.82642   2.82788
 Alpha virt. eigenvalues --    2.83465   2.83513   2.83840   2.84117   2.84911
 Alpha virt. eigenvalues --    2.85007   2.85613   2.85798   2.86100   2.86719
 Alpha virt. eigenvalues --    2.87247   2.87404   2.87532   2.87751   2.87859
 Alpha virt. eigenvalues --    2.88197   2.88986   2.89123   2.89191   2.89623
 Alpha virt. eigenvalues --    2.89968   2.90444   2.90819   2.91229   2.91588
 Alpha virt. eigenvalues --    2.91640   2.92046   2.92225   2.93017   2.93282
 Alpha virt. eigenvalues --    2.93731   2.94274   2.94472   2.94734   2.95044
 Alpha virt. eigenvalues --    2.95437   2.95819   2.96161   2.96552   2.96659
 Alpha virt. eigenvalues --    2.96914   2.97009   2.97257   2.97591   2.97863
 Alpha virt. eigenvalues --    2.98362   2.98454   2.98737   2.98802   2.99014
 Alpha virt. eigenvalues --    2.99348   2.99785   3.00024   3.00264   3.00561
 Alpha virt. eigenvalues --    3.00882   3.01098   3.01535   3.01931   3.02154
 Alpha virt. eigenvalues --    3.02292   3.02595   3.02772   3.02919   3.03239
 Alpha virt. eigenvalues --    3.03428   3.03604   3.03887   3.04197   3.04333
 Alpha virt. eigenvalues --    3.04600   3.04941   3.05358   3.05389   3.05646
 Alpha virt. eigenvalues --    3.05804   3.06218   3.06731   3.06745   3.07059
 Alpha virt. eigenvalues --    3.07463   3.07495   3.07903   3.08057   3.08149
 Alpha virt. eigenvalues --    3.08570   3.08787   3.09015   3.09495   3.09870
 Alpha virt. eigenvalues --    3.10218   3.10470   3.10678   3.11198   3.11285
 Alpha virt. eigenvalues --    3.11388   3.11749   3.11970   3.12507   3.12582
 Alpha virt. eigenvalues --    3.12683   3.13116   3.13286   3.13576   3.13857
 Alpha virt. eigenvalues --    3.14151   3.14444   3.14577   3.15017   3.15276
 Alpha virt. eigenvalues --    3.15576   3.15777   3.15883   3.16296   3.16549
 Alpha virt. eigenvalues --    3.16717   3.16742   3.17130   3.17290   3.17338
 Alpha virt. eigenvalues --    3.17732   3.17947   3.18589   3.18705   3.18865
 Alpha virt. eigenvalues --    3.19190   3.19243   3.19578   3.19660   3.19949
 Alpha virt. eigenvalues --    3.20209   3.20616   3.20779   3.20936   3.21145
 Alpha virt. eigenvalues --    3.21537   3.22075   3.22112   3.22291   3.22691
 Alpha virt. eigenvalues --    3.22851   3.22954   3.23363   3.23518   3.23861
 Alpha virt. eigenvalues --    3.24282   3.24670   3.24714   3.24852   3.25342
 Alpha virt. eigenvalues --    3.25656   3.25921   3.26127   3.26413   3.26758
 Alpha virt. eigenvalues --    3.26898   3.27339   3.27571   3.27842   3.27930
 Alpha virt. eigenvalues --    3.28292   3.28471   3.28895   3.28987   3.29291
 Alpha virt. eigenvalues --    3.29644   3.29763   3.29963   3.30072   3.30461
 Alpha virt. eigenvalues --    3.30613   3.30834   3.30961   3.31209   3.31419
 Alpha virt. eigenvalues --    3.31777   3.31992   3.32240   3.32552   3.32792
 Alpha virt. eigenvalues --    3.33203   3.33556   3.33660   3.33854   3.34204
 Alpha virt. eigenvalues --    3.34589   3.34726   3.34976   3.35173   3.35261
 Alpha virt. eigenvalues --    3.35725   3.35876   3.36113   3.36750   3.36896
 Alpha virt. eigenvalues --    3.37016   3.37198   3.37697   3.37792   3.38182
 Alpha virt. eigenvalues --    3.38377   3.38928   3.39045   3.39334   3.39673
 Alpha virt. eigenvalues --    3.39886   3.39987   3.40172   3.40459   3.40953
 Alpha virt. eigenvalues --    3.41291   3.41449   3.41888   3.42274   3.42566
 Alpha virt. eigenvalues --    3.42845   3.43126   3.43731   3.43851   3.44271
 Alpha virt. eigenvalues --    3.44795   3.44949   3.45036   3.45071   3.45626
 Alpha virt. eigenvalues --    3.46274   3.46530   3.46578   3.47056   3.47182
 Alpha virt. eigenvalues --    3.47810   3.48066   3.48238   3.48618   3.48803
 Alpha virt. eigenvalues --    3.49145   3.49946   3.50053   3.50763   3.51079
 Alpha virt. eigenvalues --    3.51308   3.51614   3.51826   3.52356   3.52801
 Alpha virt. eigenvalues --    3.52970   3.53360   3.53672   3.54249   3.54555
 Alpha virt. eigenvalues --    3.54941   3.55065   3.55317   3.55689   3.55949
 Alpha virt. eigenvalues --    3.56131   3.56869   3.57144   3.57561   3.57988
 Alpha virt. eigenvalues --    3.58269   3.58444   3.58720   3.59487   3.59789
 Alpha virt. eigenvalues --    3.60155   3.60435   3.60614   3.61049   3.61369
 Alpha virt. eigenvalues --    3.61596   3.61923   3.62163   3.62898   3.62983
 Alpha virt. eigenvalues --    3.63832   3.64049   3.64170   3.64343   3.64584
 Alpha virt. eigenvalues --    3.65136   3.65241   3.65413   3.65672   3.66260
 Alpha virt. eigenvalues --    3.66616   3.67119   3.67475   3.67835   3.68539
 Alpha virt. eigenvalues --    3.69077   3.69388   3.69479   3.70217   3.70491
 Alpha virt. eigenvalues --    3.70839   3.71255   3.71853   3.72221   3.72374
 Alpha virt. eigenvalues --    3.72990   3.73643   3.73901   3.74153   3.74537
 Alpha virt. eigenvalues --    3.75054   3.75198   3.75568   3.76210   3.76734
 Alpha virt. eigenvalues --    3.76907   3.77363   3.77531   3.78468   3.78760
 Alpha virt. eigenvalues --    3.79299   3.79836   3.80411   3.80542   3.80708
 Alpha virt. eigenvalues --    3.81160   3.81766   3.82427   3.82720   3.83492
 Alpha virt. eigenvalues --    3.84298   3.84433   3.84860   3.84936   3.85087
 Alpha virt. eigenvalues --    3.85745   3.86264   3.86446   3.86568   3.87348
 Alpha virt. eigenvalues --    3.87926   3.88132   3.88507   3.88840   3.89365
 Alpha virt. eigenvalues --    3.89684   3.90262   3.90938   3.91349   3.91831
 Alpha virt. eigenvalues --    3.92205   3.92494   3.93040   3.93145   3.93487
 Alpha virt. eigenvalues --    3.93924   3.94501   3.95165   3.95565   3.96219
 Alpha virt. eigenvalues --    3.97090   3.97436   3.97829   3.98270   3.98705
 Alpha virt. eigenvalues --    3.98933   3.99884   4.00243   4.01027   4.01621
 Alpha virt. eigenvalues --    4.02622   4.03093   4.03346   4.04149   4.04560
 Alpha virt. eigenvalues --    4.05262   4.05861   4.06206   4.07118   4.07534
 Alpha virt. eigenvalues --    4.07777   4.07912   4.08960   4.10097   4.10384
 Alpha virt. eigenvalues --    4.10925   4.11251   4.12179   4.12257   4.12575
 Alpha virt. eigenvalues --    4.13413   4.13642   4.13907   4.14497   4.15334
 Alpha virt. eigenvalues --    4.15623   4.16009   4.16778   4.17355   4.18395
 Alpha virt. eigenvalues --    4.19287   4.19815   4.20865   4.21323   4.22283
 Alpha virt. eigenvalues --    4.22627   4.22882   4.23314   4.23936   4.24150
 Alpha virt. eigenvalues --    4.24644   4.24815   4.25676   4.25998   4.26361
 Alpha virt. eigenvalues --    4.26503   4.26983   4.27630   4.28054   4.28383
 Alpha virt. eigenvalues --    4.28638   4.28936   4.29298   4.29749   4.30458
 Alpha virt. eigenvalues --    4.30716   4.31166   4.31670   4.32132   4.32640
 Alpha virt. eigenvalues --    4.33139   4.33385   4.33683   4.33984   4.35009
 Alpha virt. eigenvalues --    4.35537   4.35765   4.36552   4.36859   4.37454
 Alpha virt. eigenvalues --    4.37936   4.38384   4.38580   4.39134   4.39372
 Alpha virt. eigenvalues --    4.40672   4.41052   4.41864   4.42156   4.42605
 Alpha virt. eigenvalues --    4.43257   4.44049   4.44165   4.44463   4.45044
 Alpha virt. eigenvalues --    4.45705   4.46393   4.46896   4.47781   4.49320
 Alpha virt. eigenvalues --    4.49477   4.50240   4.50694   4.51142   4.51958
 Alpha virt. eigenvalues --    4.52453   4.53272   4.53788   4.54395   4.54777
 Alpha virt. eigenvalues --    4.55538   4.56123   4.56463   4.56627   4.57810
 Alpha virt. eigenvalues --    4.58235   4.58522   4.59244   4.60126   4.60863
 Alpha virt. eigenvalues --    4.61584   4.61881   4.62096   4.63000   4.63455
 Alpha virt. eigenvalues --    4.64218   4.65052   4.66137   4.66284   4.66631
 Alpha virt. eigenvalues --    4.66959   4.67631   4.68087   4.69973   4.70549
 Alpha virt. eigenvalues --    4.71207   4.71534   4.71653   4.72191   4.72576
 Alpha virt. eigenvalues --    4.74114   4.74833   4.75798   4.76534   4.76878
 Alpha virt. eigenvalues --    4.77775   4.78136   4.79344   4.79932   4.80135
 Alpha virt. eigenvalues --    4.80641   4.81415   4.81874   4.83161   4.83299
 Alpha virt. eigenvalues --    4.83929   4.84093   4.85501   4.85742   4.86056
 Alpha virt. eigenvalues --    4.87081   4.87806   4.88679   4.89742   4.89981
 Alpha virt. eigenvalues --    4.91071   4.91821   4.92074   4.92509   4.93654
 Alpha virt. eigenvalues --    4.94466   4.95267   4.95723   4.96704   4.98725
 Alpha virt. eigenvalues --    4.99175   4.99608   5.00614   5.02025   5.02781
 Alpha virt. eigenvalues --    5.03398   5.04998   5.06648   5.07486   5.09041
 Alpha virt. eigenvalues --    5.09896   5.10369   5.11568   5.12561   5.13023
 Alpha virt. eigenvalues --    5.13699   5.14798   5.15402   5.15657   5.16075
 Alpha virt. eigenvalues --    5.16558   5.17084   5.17179   5.19145   5.19746
 Alpha virt. eigenvalues --    5.21510   5.23152   5.23294   5.23736   5.23925
 Alpha virt. eigenvalues --    5.24464   5.25263   5.26355   5.27461   5.28047
 Alpha virt. eigenvalues --    5.29743   5.31606   5.33999   5.34108   5.35408
 Alpha virt. eigenvalues --    5.36295   5.37407   5.37798   5.37912   5.38176
 Alpha virt. eigenvalues --    5.40333   5.41186   5.43210   5.44092   5.45573
 Alpha virt. eigenvalues --    5.46339   5.47928   5.48702   5.48846   5.49366
 Alpha virt. eigenvalues --    5.49798   5.50980   5.51419   5.52895   5.53544
 Alpha virt. eigenvalues --    5.53935   5.55143   5.56672   5.59089   5.60019
 Alpha virt. eigenvalues --    5.62106   5.64255   5.65206   5.68685   5.70015
 Alpha virt. eigenvalues --    5.71305   5.75783   5.80871   5.82148   5.82639
 Alpha virt. eigenvalues --    5.83043   5.85004   5.87057   5.87794   5.89134
 Alpha virt. eigenvalues --    5.90463   5.92225   5.93367   5.97481   5.98672
 Alpha virt. eigenvalues --    5.99445   5.99607   6.00462   6.01015   6.03440
 Alpha virt. eigenvalues --    6.05599   6.08371   6.08669   6.10818   6.13554
 Alpha virt. eigenvalues --    6.14845   6.16840   6.22285   6.22392   6.22819
 Alpha virt. eigenvalues --    6.26461   6.31902   6.32239   6.38093   6.38937
 Alpha virt. eigenvalues --    6.41616   6.42754   6.47084   6.58138   6.64705
 Alpha virt. eigenvalues --    6.65310   6.70080   6.76364   6.79916   6.85930
 Alpha virt. eigenvalues --    6.87880   6.91798   6.97148   7.04283   7.08569
 Alpha virt. eigenvalues --    7.11088   7.15355   7.16997   7.25260   9.20112
 Alpha virt. eigenvalues --    9.41577   9.53595  20.10191  22.28064  22.35731
 Alpha virt. eigenvalues --   22.36861  22.39815  22.40702  22.40932  22.44365
 Alpha virt. eigenvalues --   22.45488  22.47431  22.49341  22.49773  22.50945
 Alpha virt. eigenvalues --   22.54330  22.58371  22.62803  22.64951  22.69289
 Alpha virt. eigenvalues --   22.77852  22.79043  22.82054  22.84901  22.87058
 Alpha virt. eigenvalues --   22.92894  22.97628  23.02757  23.06264  23.11672
 Alpha virt. eigenvalues --   23.17875  23.20555  23.29329  23.30256  23.31587
 Alpha virt. eigenvalues --   23.36930  23.38292  23.44691  23.50126  23.56925
 Alpha virt. eigenvalues --   23.61290  23.64840  23.69852  23.75683  32.35906
 Alpha virt. eigenvalues --   32.75571  32.83233  32.91867  32.97206  33.05303
 Alpha virt. eigenvalues --   43.84325  43.88271  43.90355  43.92466
  Beta  occ. eigenvalues -- -256.51594 -89.13451 -30.26171 -26.10290 -26.08952
  Beta  occ. eigenvalues --  -26.08169 -19.33360 -19.32948 -19.24936 -19.24915
  Beta  occ. eigenvalues --  -14.54328 -14.50268 -14.50077 -14.49559 -14.47978
  Beta  occ. eigenvalues --  -14.47837 -10.42536 -10.41929 -10.38831 -10.36473
  Beta  occ. eigenvalues --  -10.36471 -10.35898 -10.35823 -10.35809 -10.35745
  Beta  occ. eigenvalues --  -10.35661 -10.35566 -10.35258 -10.34187 -10.33692
  Beta  occ. eigenvalues --  -10.33276 -10.33171 -10.33148 -10.33022 -10.32705
  Beta  occ. eigenvalues --  -10.32685 -10.32542 -10.32511 -10.32428 -10.32371
  Beta  occ. eigenvalues --  -10.32281 -10.32172 -10.32050 -10.32024 -10.31814
  Beta  occ. eigenvalues --  -10.31747 -10.31472 -10.31326 -10.31068 -10.30865
  Beta  occ. eigenvalues --  -10.30723 -10.30642 -10.30459 -10.30130 -10.30075
  Beta  occ. eigenvalues --  -10.29570 -10.29502  -8.11385  -6.05013  -6.04710
  Beta  occ. eigenvalues --   -6.04242  -3.56756  -2.34301  -2.30291  -2.29798
  Beta  occ. eigenvalues --   -1.24014  -1.23248  -1.16078  -1.10673  -1.09181
  Beta  occ. eigenvalues --   -1.08326  -1.08294  -1.07682  -1.06823  -1.01340
  Beta  occ. eigenvalues --   -0.94731  -0.94373  -0.93151  -0.92554  -0.92063
  Beta  occ. eigenvalues --   -0.91626  -0.91263  -0.90881  -0.90641  -0.88301
  Beta  occ. eigenvalues --   -0.87611  -0.86687  -0.86482  -0.85532  -0.84501
  Beta  occ. eigenvalues --   -0.83399  -0.82429  -0.82057  -0.81417  -0.81036
  Beta  occ. eigenvalues --   -0.79453  -0.78100  -0.77709  -0.77647  -0.76535
  Beta  occ. eigenvalues --   -0.76207  -0.74819  -0.74501  -0.73959  -0.71762
  Beta  occ. eigenvalues --   -0.71630  -0.71098  -0.70809  -0.70056  -0.68883
  Beta  occ. eigenvalues --   -0.66830  -0.65798  -0.64837  -0.64570  -0.64026
  Beta  occ. eigenvalues --   -0.62868  -0.62592  -0.61688  -0.61214  -0.59920
  Beta  occ. eigenvalues --   -0.59416  -0.59237  -0.59144  -0.58818  -0.58615
  Beta  occ. eigenvalues --   -0.58347  -0.57602  -0.57465  -0.57071  -0.56370
  Beta  occ. eigenvalues --   -0.56022  -0.55342  -0.55035  -0.54833  -0.54654
  Beta  occ. eigenvalues --   -0.54530  -0.54273  -0.53977  -0.53854  -0.53731
  Beta  occ. eigenvalues --   -0.53524  -0.53282  -0.53063  -0.52885  -0.52502
  Beta  occ. eigenvalues --   -0.52367  -0.52252  -0.52118  -0.51869  -0.51827
  Beta  occ. eigenvalues --   -0.51541  -0.51244  -0.50845  -0.50678  -0.50589
  Beta  occ. eigenvalues --   -0.50236  -0.49980  -0.49728  -0.49581  -0.49420
  Beta  occ. eigenvalues --   -0.49244  -0.48778  -0.48582  -0.48211  -0.48024
  Beta  occ. eigenvalues --   -0.47671  -0.47628  -0.47462  -0.47249  -0.47001
  Beta  occ. eigenvalues --   -0.46666  -0.46437  -0.46100  -0.45947  -0.45807
  Beta  occ. eigenvalues --   -0.45340  -0.45058  -0.44609  -0.44370  -0.44111
  Beta  occ. eigenvalues --   -0.43992  -0.43447  -0.43226  -0.42838  -0.42436
  Beta  occ. eigenvalues --   -0.41856  -0.41043  -0.40038  -0.39617  -0.39084
  Beta  occ. eigenvalues --   -0.38721  -0.38432  -0.36998  -0.35992  -0.35400
  Beta  occ. eigenvalues --   -0.34998  -0.34880  -0.34551  -0.33574  -0.33030
  Beta  occ. eigenvalues --   -0.30121  -0.29571
  Beta virt. eigenvalues --   -0.19588  -0.18599  -0.17532  -0.15470  -0.13754
  Beta virt. eigenvalues --   -0.13020  -0.11000  -0.10480  -0.10068  -0.08883
  Beta virt. eigenvalues --   -0.08263  -0.06997  -0.06720  -0.06371  -0.05905
  Beta virt. eigenvalues --   -0.05033  -0.04888  -0.04655  -0.04110  -0.03579
  Beta virt. eigenvalues --   -0.03439  -0.03163  -0.02896  -0.02769  -0.02610
  Beta virt. eigenvalues --   -0.02435  -0.01910  -0.01488  -0.01244  -0.00855
  Beta virt. eigenvalues --   -0.00756  -0.00643  -0.00456  -0.00263   0.00195
  Beta virt. eigenvalues --    0.00391   0.00820   0.01117   0.01267   0.01519
  Beta virt. eigenvalues --    0.01686   0.01830   0.02235   0.02717   0.02794
  Beta virt. eigenvalues --    0.02925   0.03186   0.03385   0.03661   0.03825
  Beta virt. eigenvalues --    0.04128   0.04305   0.04396   0.04540   0.04684
  Beta virt. eigenvalues --    0.04768   0.04981   0.05083   0.05222   0.05495
  Beta virt. eigenvalues --    0.05872   0.05991   0.06031   0.06166   0.06294
  Beta virt. eigenvalues --    0.06480   0.06696   0.07029   0.07300   0.07543
  Beta virt. eigenvalues --    0.07725   0.07905   0.08034   0.08353   0.08599
  Beta virt. eigenvalues --    0.08797   0.09019   0.09317   0.09562   0.09737
  Beta virt. eigenvalues --    0.09871   0.10155   0.10215   0.10480   0.10534
  Beta virt. eigenvalues --    0.10813   0.11215   0.11319   0.11407   0.11693
  Beta virt. eigenvalues --    0.11838   0.12019   0.12192   0.12378   0.12635
  Beta virt. eigenvalues --    0.12796   0.13096   0.13348   0.13469   0.13521
  Beta virt. eigenvalues --    0.14064   0.14108   0.14180   0.14421   0.14828
  Beta virt. eigenvalues --    0.14963   0.15145   0.15472   0.15757   0.15821
  Beta virt. eigenvalues --    0.15907   0.16171   0.16304   0.16390   0.16695
  Beta virt. eigenvalues --    0.17076   0.17412   0.17684   0.17778   0.17946
  Beta virt. eigenvalues --    0.18110   0.18283   0.18483   0.18669   0.18849
  Beta virt. eigenvalues --    0.19271   0.19350   0.19558   0.19711   0.19937
  Beta virt. eigenvalues --    0.19963   0.20192   0.20365   0.20691   0.20724
  Beta virt. eigenvalues --    0.20941   0.21117   0.21400   0.21565   0.21701
  Beta virt. eigenvalues --    0.21818   0.22084   0.22314   0.22445   0.22695
  Beta virt. eigenvalues --    0.22871   0.22990   0.23371   0.23604   0.24004
  Beta virt. eigenvalues --    0.24242   0.24525   0.24702   0.24959   0.25337
  Beta virt. eigenvalues --    0.25459   0.25627   0.25664   0.25990   0.26183
  Beta virt. eigenvalues --    0.26444   0.26630   0.26995   0.27265   0.27577
  Beta virt. eigenvalues --    0.27693   0.27814   0.27950   0.28376   0.28460
  Beta virt. eigenvalues --    0.28841   0.29034   0.29117   0.29710   0.30059
  Beta virt. eigenvalues --    0.30143   0.30219   0.30407   0.30616   0.30709
  Beta virt. eigenvalues --    0.30918   0.30975   0.31227   0.31320   0.31526
  Beta virt. eigenvalues --    0.31730   0.31892   0.32204   0.32474   0.32850
  Beta virt. eigenvalues --    0.32991   0.33037   0.33299   0.33441   0.33501
  Beta virt. eigenvalues --    0.33700   0.33988   0.34266   0.34440   0.34603
  Beta virt. eigenvalues --    0.34753   0.35000   0.35142   0.35492   0.35537
  Beta virt. eigenvalues --    0.35717   0.35816   0.36079   0.36236   0.36291
  Beta virt. eigenvalues --    0.36365   0.36649   0.36762   0.36848   0.37029
  Beta virt. eigenvalues --    0.37105   0.37174   0.37385   0.37638   0.37817
  Beta virt. eigenvalues --    0.38005   0.38034   0.38331   0.38402   0.38579
  Beta virt. eigenvalues --    0.38750   0.38913   0.39002   0.39075   0.39187
  Beta virt. eigenvalues --    0.39407   0.39534   0.40074   0.40243   0.40304
  Beta virt. eigenvalues --    0.40456   0.40558   0.40718   0.40857   0.40990
  Beta virt. eigenvalues --    0.41108   0.41233   0.41340   0.41704   0.41873
  Beta virt. eigenvalues --    0.41992   0.42235   0.42318   0.42361   0.42737
  Beta virt. eigenvalues --    0.42931   0.43248   0.43363   0.43531   0.43743
  Beta virt. eigenvalues --    0.44015   0.44052   0.44224   0.44404   0.44530
  Beta virt. eigenvalues --    0.44893   0.44983   0.45153   0.45253   0.45515
  Beta virt. eigenvalues --    0.45671   0.45902   0.46011   0.46180   0.46411
  Beta virt. eigenvalues --    0.46510   0.46691   0.47189   0.47280   0.47432
  Beta virt. eigenvalues --    0.47841   0.47897   0.48068   0.48213   0.48277
  Beta virt. eigenvalues --    0.48556   0.48731   0.48897   0.49192   0.49486
  Beta virt. eigenvalues --    0.49695   0.50136   0.50186   0.50446   0.50590
  Beta virt. eigenvalues --    0.50751   0.50892   0.51208   0.51549   0.51633
  Beta virt. eigenvalues --    0.51891   0.52197   0.52349   0.52731   0.53147
  Beta virt. eigenvalues --    0.53290   0.53487   0.53596   0.54089   0.54223
  Beta virt. eigenvalues --    0.54492   0.54549   0.55080   0.55277   0.55532
  Beta virt. eigenvalues --    0.55709   0.55850   0.56274   0.56491   0.56861
  Beta virt. eigenvalues --    0.56967   0.57301   0.57415   0.57590   0.58080
  Beta virt. eigenvalues --    0.58170   0.58413   0.58869   0.59201   0.59517
  Beta virt. eigenvalues --    0.59689   0.59968   0.60160   0.60472   0.60635
  Beta virt. eigenvalues --    0.61144   0.61220   0.61591   0.61969   0.62227
  Beta virt. eigenvalues --    0.62424   0.62520   0.62959   0.63317   0.63449
  Beta virt. eigenvalues --    0.63982   0.64046   0.64195   0.64524   0.64710
  Beta virt. eigenvalues --    0.64984   0.65303   0.65801   0.65898   0.66364
[...]
  1733. RY*(   1) H  83                  0.00029     1.24498   
  1734. RY*(   2) H  83                  0.00007     2.02463   
  1735. RY*(   3) H  83                  0.00005     1.92521   
  1736. RY*(   4) H  83                  0.00003     2.09947   
  1737. RY*(   5) H  83                  0.00001     2.94987   
  1738. RY*(   1) H  84                  0.00031     1.21145   
  1739. RY*(   2) H  84                  0.00006     1.42900   
  1740. RY*(   3) H  84                  0.00006     2.44408   
  1741. RY*(   4) H  84                  0.00004     2.24949   
  1742. RY*(   5) H  84                  0.00001     2.93622   
  1743. RY*(   1) H  85                  0.00037     1.47395   
  1744. RY*(   2) H  85                  0.00007     1.95022   
  1745. RY*(   3) H  85                  0.00008     2.51310   
  1746. RY*(   4) H  85                  0.00004     1.89709   
  1747. RY*(   5) H  85                  0.00000     2.81932   
  1748. RY*(   1) H  86                  0.00025     1.70118   
  1749. RY*(   2) H  86                  0.00008     2.57755   
  1750. RY*(   3) H  86                  0.00005     2.31443   
  1751. RY*(   4) H  86                  0.00003     1.39704   
  1752. RY*(   5) H  86                  0.00000     2.81751   
  1753. RY*(   1) H  87                  0.00044     1.33231   
  1754. RY*(   2) H  87                  0.00036     1.29923   
  1755. RY*(   3) H  87                  0.00023     1.95908   
  1756. RY*(   4) H  87                  0.00012     2.12063   
  1757. RY*(   5) H  87                  0.00000     3.15494   
  1758. RY*(   1) H  88                  0.00034     2.04336   
  1759. RY*(   2) H  88                  0.00030     1.04439   
  1760. RY*(   3) H  88                  0.00017     1.96325   
  1761. RY*(   4) H  88                  0.00013     1.79169   
  1762. RY*(   5) H  88                  0.00000     3.27534   
  1763. RY*(   1) H  89                  0.00039     1.20106   
  1764. RY*(   2) H  89                  0.00009     1.73651   
  1765. RY*(   3) H  89                  0.00006     2.45461   
  1766. RY*(   4) H  89                  0.00003     1.99803   
  1767. RY*(   5) H  89                  0.00001     2.98543   
  1768. RY*(   1) H  90                  0.00047     1.13004   
  1769. RY*(   2) H  90                  0.00010     1.78150   
  1770. RY*(   3) H  90                  0.00007     2.39276   
  1771. RY*(   4) H  90                  0.00003     2.11361   
  1772. RY*(   5) H  90                  0.00001     3.00866   
  1773. RY*(   1) H  91                  0.00032     1.64229   
  1774. RY*(   2) H  91                  0.00008     2.63074   
  1775. RY*(   3) H  91                  0.00006     2.33438   
  1776. RY*(   4) H  91                  0.00004     1.37031   
  1777. RY*(   5) H  91                  0.00000     2.81875   
  1778. RY*(   1) H  92                  0.00033     1.74757   
  1779. RY*(   2) H  92                  0.00008     2.63453   
  1780. RY*(   3) H  92                  0.00006     2.35322   
  1781. RY*(   4) H  92                  0.00003     1.29916   
  1782. RY*(   5) H  92                  0.00000     2.73232   
  1783. RY*(   1) H  93                  0.00020     1.29202   
  1784. RY*(   2) H  93                  0.00004     1.19177   
  1785. RY*(   3) H  93                  0.00004     2.00327   
  1786. RY*(   4) H  93                  0.00003     1.94563   
  1787. RY*(   5) H  93                  0.00000     2.81421   
  1788. RY*(   1) H  94                  0.00029     1.25764   
  1789. RY*(   2) H  94                  0.00005     1.77259   
  1790. RY*(   3) H  94                  0.00003     2.00211   
  1791. RY*(   4) H  94                  0.00001     2.08536   
  1792. RY*(   5) H  94                  0.00001     2.26359   
  1793. RY*(   1) H  95                  0.00019     1.46600   
  1794. RY*(   2) H  95                  0.00005     1.63656   
  1795. RY*(   3) H  95                  0.00002     1.52051   
  1796. RY*(   4) H  95                  0.00002     1.87461   
  1797. RY*(   5) H  95                  0.00000     2.72898   
  1798. RY*(   1) H  96                  0.00027     1.00787   
  1799. RY*(   2) H  96                  0.00014     1.47181   
  1800. RY*(   3) H  96                  0.00003     2.45944   
  1801. RY*(   4) H  96                  0.00003     2.58522   
  1802. RY*(   5) H  96                  0.00000     1.96695   
  1803. RY*(   1) H  97                  0.00027     1.06839   
  1804. RY*(   2) H  97                  0.00006     1.45062   
  1805. RY*(   3) H  97                  0.00007     2.07631   
  1806. RY*(   4) H  97                  0.00003     2.02061   
  1807. RY*(   5) H  97                  0.00000     2.83882   
  1808. RY*(   1) H  98                  0.00020     1.54829   
  1809. RY*(   2) H  98                  0.00004     1.70559   
  1810. RY*(   3) H  98                  0.00005     1.90806   
  1811. RY*(   4) H  98                  0.00001     1.35871   
  1812. RY*(   5) H  98                  0.00000     2.79056   
  1813. RY*(   1) H  99                  0.00019     1.46901   
  1814. RY*(   2) H  99                  0.00005     1.48858   
  1815. RY*(   3) H  99                  0.00002     1.74873   
  1816. RY*(   4) H  99                  0.00001     2.48670   
  1817. RY*(   5) H  99                  0.00002     2.01549   
  1818. RY*(   1) H 100                  0.00020     1.48902   
  1819. RY*(   2) H 100                  0.00012     1.14315   
  1820. RY*(   3) H 100                  0.00004     2.24965   
  1821. RY*(   4) H 100                  0.00002     2.67210   
  1822. RY*(   5) H 100                  0.00001     1.98006   
  1823. RY*(   1) H 101                  0.00042     0.54714   
  1824. RY*(   2) H 101                  0.00015     1.85282   
  1825. RY*(   3) H 101                  0.00010     1.22766   
  1826. RY*(   4) H 101                  0.00005     2.88905   
  1827. RY*(   5) H 101                  0.00000     3.63431   
  1842. BD*(   1) C   7 - C   8          0.00499     0.21740   
  1843. BD*(   1) C   7 - H  60          0.00365     0.33670   
  1844. BD*(   1) C   7 - H  61          0.00262     0.32040   
  1845. BD*(   1) C   7 - H  62          0.00322     0.31659   
  1846. BD*(   1) C   8 - S   9          0.01421     0.08128   
  1847. BD*(   1) C   8 - H  63          0.00645     0.30291   
  1848. BD*(   1) C   8 - H  64          0.00940     0.31992   
  1849. BD*(   1) S   9 - C  10          0.00950     0.06788   
  1850. BD*(   1) S   9 -Fe  11          0.03991     0.21006   
  1851. BD*(   1) C  10 - H  65          0.00323     0.30623   
  1852. BD*(   1) C  10 - H  66          0.00564     0.29643   
  1853. BD*(   1) C  10 - H  67          0.00590     0.29452   
  1854. BD*(   1)Fe  11 - N  16          0.03615     0.28855   
  1855. BD*(   1)Fe  11 - N  27          0.03365     0.28735   
  1856. BD*(   1)Fe  11 - N  35          0.03195     0.26644   
  1857. BD*(   1)Fe  11 - N  43          0.03581     0.28705   
  1858. BD*(   1) C  12 - C  17          0.00977     0.47734   
  1859. BD*(   2) C  12 - C  17          0.19511    -0.05892  1931(v),1878(v),497(g)
                                                    1872(r),1863(r),631(g)
  1860. BD*(   1) C  12 - C  47          0.00942     0.45246   
  1861. BD*(   1) C  12 - H  75          0.00658     0.34472   
  1862. BD*(   1) C  13 - C  20          0.00951     0.50640   
  1863. BD*(   2) C  13 - C  20          0.18511    -0.05087  1896(v),1878(v),523(g)
                                                    1859(r),1865(g),708(g)
                                                    1875(g)
  1864. BD*(   1) C  13 - C  28          0.01127     0.48620   
  1865. BD*(   1) C  13 - H  71          0.00733     0.34152   
  1866. BD*(   1) C  14 - C  31          0.00906     0.46583   
  1867. BD*(   2) C  14 - C  31          0.19010    -0.06235  1913(v),1900(v),1896(v)
                                                    549(g),1869(g),994(g)
                                                    1948(r),1950(r)
  1868. BD*(   1) C  14 - C  36          0.01013     0.46412   
  1869. BD*(   1) C  14 - H 101          0.00570     0.34978   
  1870. BD*(   1) C  15 - C  39          0.01011     0.47213   
  1871. BD*(   1) C  15 - C  44          0.01015     0.48005   
  1872. BD*(   2) C  15 - C  44          0.18692    -0.05595  1934(v),202(v),1931(v)
                                                    575(g),1859(r),1332(g)
  1873. BD*(   1) C  15 - H  79          0.00639     0.34590   
  1874. BD*(   1) N  16 - C  17          0.01350     0.39426   
  1875. BD*(   1) N  16 - C  20          0.01663     0.35321   
  1876. BD*(   1) C  17 - C  18          0.01806     0.37616   
  1877. BD*(   1) C  18 - C  19          0.00972     0.60062   
  1878. BD*(   2) C  18 - C  19          0.10029    -0.00889  1863(v),1859(v),1885(v)
                                                    1882(v)
  1879. BD*(   1) C  18 - C  22          0.01345     0.25641   
  1880. BD*(   1) C  19 - C  20          0.01758     0.37286   
  1881. BD*(   1) C  19 - C  21          0.01056     0.23322   
  1882. BD*(   1) C  21 - H  72          0.00345     0.31922   
  1883. BD*(   1) C  21 - H  73          0.00279     0.32659   
  1884. BD*(   1) C  21 - H  74          0.00306     0.32263   
  1885. BD*(   1) C  22 - C  23          0.00908     0.22427   
  1886. BD*(   1) C  22 - H  85          0.00553     0.33183   
  1887. BD*(   1) C  22 - H  86          0.00480     0.32884   
  1888. BD*(   1) C  23 - C  24          0.03493     0.29077   
  1889. BD*(   1) C  23 - H  83          0.00556     0.31200   
  1890. BD*(   1) C  23 - H  84          0.00484     0.32452   
  1891. BD*(   1) C  24 - O  25          0.02258     0.43189   
  1892. BD*(   2) C  24 - O  25          0.08954    -0.07106   
  1893. BD*(   1) C  24 - O  26          0.03501     0.41045   
  1894. BD*(   1) O  26 - H  87          0.00680     0.30755   
  1895. BD*(   1) N  27 - C  28          0.01728     0.35830   
  1896. BD*(   2) N  27 - C  28          0.32804    -0.11231  1863(v),1900(v),1867(v)
                                                    195(v),913(g),194(v),915(g)
                                                    193(v),886(g),1838(r)
  1897. BD*(   1) N  27 - C  31          0.01573     0.33762   
  1898. BD*(   1) C  28 - C  29          0.01578     0.41470   
  1899. BD*(   1) C  29 - C  30          0.00816     0.54021   
  1900. BD*(   2) C  29 - C  30          0.11595    -0.02574  1867(v),1896(v),201(v)
                                                    1907(v),1908(v),1904(v)
                                                    1905(v)
  1901. BD*(   1) C  29 - C  32          0.00920     0.24760   
  1902. BD*(   1) C  30 - C  31          0.01489     0.35226   
  1903. BD*(   1) C  30 - C  33          0.01120     0.30987   
  1904. BD*(   1) C  32 - H  68          0.00331     0.32181   
  1905. BD*(   1) C  32 - H  69          0.00293     0.32186   
  1906. BD*(   1) C  32 - H  70          0.00160     0.33038   
  1907. BD*(   1) C  33 - C  34          0.00371     0.29470   
  1908. BD*(   1) C  33 - H  96          0.00654     0.36536   
  1909. BD*(   1) C  34 - H  93          0.00085     0.32784   
  1910. BD*(   1) C  34 - H  94          0.00248     0.32616   
  1911. BD*(   1) C  34 - H  95          0.00178     0.32893   
  1912. BD*(   1) N  35 - C  36          0.01438     0.37168   
  1913. BD*(   2) N  35 - C  36          0.33524    -0.10600  1867(v),1917(v),202(v)
                                                    194(v),1096(g),1121(g)
                                                    1122(g),193(v),1838(r)
  1914. BD*(   1) N  35 - C  39          0.01405     0.37862   
  1915. BD*(   1) C  36 - C  37          0.01551     0.41498   
  1916. BD*(   1) C  37 - C  38          0.00905     0.50104   
  1917. BD*(   2) C  37 - C  38          0.12482    -0.02842  1913(v),203(v),202(v)
                                                    1922(v),1148(g),1921(v)
  1918. BD*(   1) C  37 - C  40          0.00884     0.26460   
  1919. BD*(   1) C  38 - C  39          0.01552     0.37312   
  1920. BD*(   1) C  38 - C  41          0.01094     0.29525   
  1921. BD*(   1) C  40 - H  80          0.00286     0.32717   
  1922. BD*(   1) C  40 - H  81          0.00321     0.32342   
  1923. BD*(   1) C  40 - H  82          0.00300     0.34005   
  1924. BD*(   1) C  41 - C  42          0.00255     0.27938   
  1925. BD*(   1) C  41 - H 100          0.00498     0.36619   
  1926. BD*(   1) C  42 - H  97          0.00210     0.33572   
  1927. BD*(   1) C  42 - H  98          0.00161     0.32870   
  1928. BD*(   1) C  42 - H  99          0.00232     0.33423   
  1929. BD*(   1) N  43 - C  44          0.01541     0.38490   
  1930. BD*(   1) N  43 - C  47          0.01621     0.32692   
  1931. BD*(   2) N  43 - C  47          0.33153    -0.12177  1859(v),1934(v),1872(v)
                                                    1408(g),1838(r),1302(g)
                                                    1407(g),497(v),193(v)
                                                    1409(g),194(v)
  1932. BD*(   1) C  44 - C  45          0.01802     0.37742   
  1933. BD*(   1) C  45 - C  46          0.00975     0.58802   
  1934. BD*(   2) C  45 - C  46          0.10471    -0.01493  1872(v),1931(v),1941(v)
                                                    1939(v)
  1935. BD*(   1) C  45 - C  48          0.01001     0.26344   
  1936. BD*(   1) C  46 - C  47          0.01667     0.38580   
  1937. BD*(   1) C  46 - C  49          0.01238     0.26440   
  1938. BD*(   1) C  48 - H  76          0.00288     0.32277   
  1939. BD*(   1) C  48 - H  77          0.00368     0.32071   
  1940. BD*(   1) C  48 - H  78          0.00236     0.32947   
  1941. BD*(   1) C  49 - C  50          0.00724     0.26423   
  1942. BD*(   1) C  49 - H  91          0.00534     0.33271   
  1943. BD*(   1) C  49 - H  92          0.00568     0.33668   
  1944. BD*(   1) C  50 - C  51          0.04240     0.29117   
  1945. BD*(   1) C  50 - H  89          0.00652     0.30533   
  1946. BD*(   1) C  50 - H  90          0.00652     0.29754   
  1947. BD*(   1) C  51 - O  52          0.02318     0.48092   
  1948. BD*(   2) C  51 - O  52          0.10486     0.39421  1950(v),1947(g),1827(r)
                                                    1869(r),453(r),449(r)
                                                    1946(v),569(r),1823(r)
                                                    573(r),448(r),549(r),1949(g)
                                                    1912(r),1945(v),1825(r)
                                                    1824(r),562(r),451(r),550(r)
                                                    445(r),568(r),565(r),571(r)
                                                    558(r),560(r),1519(g),441(r)
                                                    1539(g),557(r),1613(r)
                                                    556(r),326(r),1832(r),247(r)
                                                    1833(r)
  1949. BD*(   1) C  51 - O  53          0.03880     0.42841   
  1950. BD*(   1) O  53 - H  88          0.00568     4.04825   
       -------------------------------
              Total Lewis  175.93794  ( 97.6381%)
        Valence non-Lewis    3.93430  (  2.1834%)
        Rydberg non-Lewis    0.32174  (  0.1786%)
       -------------------------------
            Total unit  2  180.19399  (100.0000%)
           Charge unit  2    2.80601
 1\1\GINC-NODE462\SP\UPBE1PBE\def2TZVP\C41H48Fe1N6O4S1(1+,6)\ZHARTOVSKA
 \20-Feb-2023\0\\# PBE1PBE/def2TZVP empiricaldispersion=GD3BJ scf=maxcy
 cle=999 geom=check pop=nbo\\1hrc_III_H\\1,6\C,0,50.125,29.427999,5.85\
 C,0,48.695,29.132,6.213\N,0,48.338001,28.929001,7.534\C,0,47.604,29.00
 2001,5.491\C,0,47.007,28.622,7.538\N,0,46.546001,28.687,6.318\C,0,40.5
 85999,29.054001,6.824\C,0,41.368,28.771,5.499\S,0,42.460999,27.355,5.5
 96\C,0,42.213001,26.568001,3.988\Fe,0,44.630001,28.127001,5.911\C,0,43
 .603001,27.259001,9.122\C,0,46.150002,25.184,5.602\C,0,44.907001,28.73
 5001,2.567\C,0,43.827999,31.351999,6.47\N,0,44.854,26.575001,7.169\C,0
 ,44.331001,26.333,8.412\C,0,44.604,24.936001,8.743\C,0,45.273998,24.37
 9999,7.785\C,0,45.455002,25.382,6.751\C,0,45.922001,22.989,7.441\C,0,4
 4.137001,24.309,10.098\C,0,45.389999,24.290001,11.068\C,0,45.165001,23
 .629999,12.392\O,0,45.941002,24.023001,13.329\O,0,44.259998,22.763,12.
 481\N,0,45.380001,27.146,4.404\C,0,46.044998,25.929001,4.454\C,0,46.54
 8,25.580999,3.168\C,0,46.194,26.542999,2.315\C,0,45.474998,27.582001,3
 .075\C,0,47.349998,24.278,2.836\C,0,46.459999,26.659,0.811\C,0,45.6510
 01,25.816999,-0.177\N,0,44.377998,29.757,4.719\C,0,44.544998,29.825001
 ,3.342\C,0,44.368999,31.176001,2.919\C,0,44.042,31.934999,4.\C,0,44.09
 9998,31.041,5.151\C,0,44.499001,31.68,1.456\C,0,43.861,33.464001,4.089
 \C,0,43.018002,34.167999,3.003\N,0,43.902,29.128,7.459\C,0,43.633999,3
 0.469,7.505\C,0,43.058998,30.773001,8.808\C,0,42.995998,29.669001,9.50
 5\C,0,43.497002,28.577999,8.693\C,0,42.639999,32.208,9.219\C,0,42.465,
 29.476,10.959\C,0,40.939999,29.306999,10.886\C,0,40.196999,29.179001,1
 2.181\O,0,40.769001,29.121,13.27\O,0,38.963001,29.108,11.98\H,0,50.735
 88953,28.58256271,6.08864507\H,0,50.19200647,29.63192647,4.80175207\H,
 0,50.463948,30.2799867,6.40148092\H,0,48.93797978,28.99433797,8.331343
 43\H,0,46.43260453,28.36822655,8.40435378\H,0,47.54596316,29.12168332,
 4.42929954\H,0,41.16437002,29.70302112,7.44782678\H,0,39.65104424,29.5
 2058008,6.59364469\H,0,40.40770713,28.13196975,7.33680638\H,0,40.66020
 526,28.60254577,4.7144302\H,0,41.94996043,29.63513372,5.2550841\H,0,43
 .02944826,25.90694312,3.78473575\H,0,41.29867304,26.01234073,4.0000846
 2\H,0,42.16406065,27.31879595,3.22720319\H,0,48.28302422,24.29029546,3
 .3596515\H,0,46.78237609,23.42295319,3.13865545\H,0,47.53270016,24.230
 24766,1.78279554\H,0,46.84511617,24.37062818,5.59005917\H,0,46.8650025
 8,22.90189459,7.93905689\H,0,45.27293134,22.20296719,7.76620916\H,0,46
 .06896696,22.91570971,6.38367813\H,0,43.10839848,26.95892353,10.022123
 24\H,0,43.3847502,32.90398565,8.89365462\H,0,41.70246642,32.45002234,8
 .76363438\H,0,42.54360831,32.26035624,10.28336256\H,0,43.76130222,32.3
 9232345,6.7111982\H,0,45.39944518,31.29504211,1.02482984\H,0,43.658276
 62,31.34268814,0.88652372\H,0,44.5288609,32.7495573,1.44854583\H,0,46.
 18999377,23.78134498,10.57183731\H,0,45.69205221,25.30113805,11.244821
 15\H,0,43.78735543,23.31085068,9.9356858\H,0,43.35604218,24.90355967,1
 0.52403065\H,0,44.49096494,21.8360694,12.57615216\H,0,38.63153115,28.8
 0791778,11.13048343\H,0,40.54232763,30.15170124,10.36328057\H,0,40.735
 67469,28.43249337,10.30428574\H,0,42.90579302,28.60272536,11.39258149\
 H,0,42.7063086,30.33494643,11.54966166\H,0,46.2038094,24.93703935,-0.4
 3189977\H,0,44.72090692,25.53647763,0.27147828\H,0,45.46235816,26.3884
 645,-1.06172655\H,0,47.2122664,27.32951598,0.451275\H,0,43.55539187,34
 .1666858,2.07773766\H,0,42.09128447,33.64794105,2.87796266\H,0,42.8233
 3817,35.17706863,3.30096722\H,0,44.30851951,34.02349085,4.88373102\H,0
 ,44.73660978,28.7891477,1.51204267\\Version=ES64L-G16RevA.03\State=6-A
 \HF=-3880.3547244\S2=8.830639\S2-1=0.\S2A=8.75159\RMSD=5.761e-10\Dipol
 e=0.8589184,-0.2164174,-4.0978307\Quadrupole=12.2879826,25.8138338,-38
 .1018164,-3.6625987,-0.3266585,-8.2773865\PG=C01 [X(C41H48Fe1N6O4S1)]\
 \@


 YOU CANNOT THROW TO THE GROUND THE LETTERS OF
 THE GREEK ALPHABET AND PICK UP THE ILIAD.
        - RUFUS CHOATE, 1799-1859
 Job cpu time:       7 days  5 hours 45 minutes  8.4 seconds.
 Elapsed time:       1 days 19 hours 36 minutes  9.0 seconds.
 File lengths (MBytes):  RWF=   3495 Int=      0 D2E=      0 Chk=    292 Scr=      1
 Normal termination of Gaussian 16 at Mon Feb 20 17:12:09 2023.
