 Entering Gaussian System, Link 0=g16
 Input=/net/homes/chemie/zhartovska/work/BioModel/Konrad/1cmt/1cmt12/1cmt16/1cmt16.com
 Output=/net/homes/chemie/zhartovska/work/BioModel/Konrad/1cmt/1cmt12/1cmt16/1cmt16.log
 Initial command:
 /afs/math/software/gaussian/g16.A03/g16/l1.exe "/scratch/zhartovska_gaussian.lCwbpjm/Gau-7463.inp" -scrdir="/scratch/zhartovska_gaussian.lCwbpjm/"
 Entering Link 1 = /afs/math/software/gaussian/g16.A03/g16/l1.exe PID=      7464.
  
 Copyright (c) 1988,1990,1992,1993,1995,1998,2003,2009,2016,
            Gaussian, Inc.  All Rights Reserved.
  
 This is part of the Gaussian(R) 16 program.  It is based on
 the Gaussian(R) 09 system (copyright 2009, Gaussian, Inc.),
 the Gaussian(R) 03 system (copyright 2003, Gaussian, Inc.),
 the Gaussian(R) 98 system (copyright 1998, Gaussian, Inc.),
 the Gaussian(R) 94 system (copyright 1995, Gaussian, Inc.),
 the Gaussian 92(TM) system (copyright 1992, Gaussian, Inc.),
 the Gaussian 90(TM) system (copyright 1990, Gaussian, Inc.),
 the Gaussian 88(TM) system (copyright 1988, Gaussian, Inc.),
 the Gaussian 86(TM) system (copyright 1986, Carnegie Mellon
 University), and the Gaussian 82(TM) system (copyright 1983,
 Carnegie Mellon University). Gaussian is a federally registered
 trademark of Gaussian, Inc.
  
 This software contains proprietary and confidential information,
 including trade secrets, belonging to Gaussian, Inc.
  
 This software is provided under written license and may be
 used, copied, transmitted, or stored only in accord with that
 written license.
  
 The following legend is applicable only to US Government
 contracts under FAR:
  
                    RESTRICTED RIGHTS LEGEND
  
 Use, reproduction and disclosure by the US Government is
 subject to restrictions as set forth in subparagraphs (a)
 and (c) of the Commercial Computer Software - Restricted
 Rights clause in FAR 52.227-19.
  
 Gaussian, Inc.
 340 Quinnipiac St., Bldg. 40, Wallingford CT 06492
  
  
 ---------------------------------------------------------------
 Warning -- This program may not be used in any manner that
 competes with the business of Gaussian, Inc. or will provide
 assistance to any competitor of Gaussian, Inc.  The licensee
 of this program is prohibited from giving any competitor of
 Gaussian, Inc. access to this program.  By using this program,
 the user acknowledges that Gaussian, Inc. is engaged in the
 business of creating and licensing software in the field of
 computational chemistry and represents and warrants to the
 licensee that it is not a competitor of Gaussian, Inc. and that
 it will not use this program in any manner prohibited above.
 ---------------------------------------------------------------
  

 Cite this work as:
 Gaussian 16, Revision A.03,
 M. J. Frisch, G. W. Trucks, H. B. Schlegel, G. E. Scuseria, 
 M. A. Robb, J. R. Cheeseman, G. Scalmani, V. Barone, 
 G. A. Petersson, H. Nakatsuji, X. Li, M. Caricato, A. V. Marenich, 
 J. Bloino, B. G. Janesko, R. Gomperts, B. Mennucci, H. P. Hratchian, 
 J. V. Ortiz, A. F. Izmaylov, J. L. Sonnenberg, D. Williams-Young, 
 F. Ding, F. Lipparini, F. Egidi, J. Goings, B. Peng, A. Petrone, 
 T. Henderson, D. Ranasinghe, V. G. Zakrzewski, J. Gao, N. Rega, 
 G. Zheng, W. Liang, M. Hada, M. Ehara, K. Toyota, R. Fukuda, 
 J. Hasegawa, M. Ishida, T. Nakajima, Y. Honda, O. Kitao, H. Nakai, 
 T. Vreven, K. Throssell, J. A. Montgomery, Jr., J. E. Peralta, 
 F. Ogliaro, M. J. Bearpark, J. J. Heyd, E. N. Brothers, K. N. Kudin, 
 V. N. Staroverov, T. A. Keith, R. Kobayashi, J. Normand, 
 K. Raghavachari, A. P. Rendell, J. C. Burant, S. S. Iyengar, 
 J. Tomasi, M. Cossi, J. M. Millam, M. Klene, C. Adamo, R. Cammi, 
 J. W. Ochterski, R. L. Martin, K. Morokuma, O. Farkas, 
 J. B. Foresman, and D. J. Fox, Gaussian, Inc., Wallingford CT, 2016.
 
 ******************************************
 Gaussian 16:  ES64L-G16RevA.03 25-Dec-2016
                29-Sep-2022 
 ******************************************
 %nprocs=12
 Will use up to   12 processors via shared memory.
 %mem=16GB
 %oldchk=1cmt_III_D.chk
 %chk=1cmt_III_H.chk
 Copying data from "1cmt_III_D.chk" to current chk file "1cmt_III_H.chk"
 IOpt=  2 FromEx=T IUOpen= 4 IOptOp= 5 NList=   0 IFRang= 0 IUIn= 4 IUOut= 2.
 ----------------------------------------------------------------------
 # PBE1PBE/def2TZVP empiricaldispersion=GD3BJ int=(grid=ultrafine) geom
 =check pop=nbo
 ----------------------------------------------------------------------
 1/29=2,38=1,172=1/1;
 2/12=2,40=1/2;
 3/5=44,7=101,11=2,14=-4,25=1,30=1,74=-13,75=-5,124=41/1,2,3;
 4//1;
 5/5=2,38=5/2;
 6/7=2,8=2,9=2,10=2,28=1,40=1/1,7;
 99/5=1,9=1/99;
 ----------
 1cmt_III_H
 ----------
 Structure from the checkpoint file:  "1cmt_III_H.chk"
 Charge =  1 Multiplicity = 6
 Z-Matrix found in chk file.
 C,0,30.84,90.204002,49.749001
 C,0,30.542999,91.193001,50.877998
 N,0,31.306999,91.591003,51.887001
 C,0,29.370001,91.917,51.015999
 C,0,30.672001,92.508003,52.59
 N,0,29.489,92.708,52.060001
 C,0,28.134001,95.913002,50.283001
 C,0,30.540001,95.952003,54.410999
 C,0,28.478001,91.793999,55.631001
 C,0,25.684999,92.089996,51.740002
 C,0,29.034,96.317001,51.285
 C,0,29.743,97.504997,51.296001
 C,0,30.465,97.518997,52.486
 C,0,30.110001,96.348,53.132999
 C,0,31.452999,98.580002,52.966
 C,0,29.697001,98.580002,50.227001
 C,0,28.597,99.632004,50.428001
 C,0,28.593,100.586998,49.25
 O,0,29.582001,101.257004,48.993999
 O,0,27.618999,100.681999,48.527
 C,0,30.219,94.799004,55.158001
 C,0,30.846001,94.424004,56.337002
 C,0,30.292999,93.161003,56.648998
 C,0,29.325001,92.908997,55.681
 C,0,31.92,95.263,57.049999
 C,0,30.625,92.235001,57.641998
 C,0,31.93276086,92.3963347,58.43907577
 C,0,27.454,91.515999,54.708
 C,0,26.549,90.473999,54.84
 C,0,25.66,90.639999,53.757
 C,0,26.166,91.692001,52.999001
 C,0,26.506001,89.544998,56.063
 C,0,24.495001,89.952003,53.382
 C,0,23.981001,88.694,53.902
 C,0,26.158001,93.103996,50.910999
 C,0,25.753,93.323997,49.598999
 C,0,26.488001,94.417,49.153
 C,0,27.27,94.806,50.242001
 C,0,24.73,92.525002,48.792999
 C,0,26.434999,95.042,47.754002
 C,0,25.483,96.251999,47.754002
 C,0,25.34,97.045998,46.452999
 O,0,24.723,98.103996,46.460999
 O,0,25.805,96.629997,45.401001
 N,0,29.297001,95.619003,52.379002
 N,0,29.298,93.898003,54.786999
 N,0,27.197001,92.272003,53.626999
 N,0,27.120001,93.967003,51.271
 Fe,0,28.238001,93.973999,53.014999
 O,0,26.902,95.130997,53.977001
 H,0,26.7564443,96.58297085,45.28207962
 H,0,24.5105182,95.90099626,48.02963984
 H,0,25.81634804,96.92839273,48.51312689
 H,0,27.41594508,95.36226738,47.47102922
 H,0,26.08345892,94.31389834,47.05315427
 H,0,25.14013035,91.56846514,48.54454308
 H,0,23.842268,92.39207718,49.37537594
 H,0,24.49119918,93.05493094,47.89463967
 H,0,28.10238497,96.54507732,49.4202257
 H,0,30.64313864,99.07939412,50.20880553
 H,0,29.54407951,98.10782749,49.27907366
 H,0,28.78500604,100.17744006,51.32914096
 H,0,27.6463051,99.145835,50.49669528
 H,0,27.73302371,100.80618101,47.58191948
 H,0,32.34993425,98.52074453,52.38557282
 H,0,31.01755054,99.55065959,52.85150768
 H,0,31.68374239,98.41198289,53.997226
 H,0,31.21477658,96.62926533,54.89151295
 H,0,32.79444273,95.3193355,56.43593368
 H,0,31.54365173,96.24904214,57.22601854
 H,0,32.16904723,94.80428109,57.98405062
 H,0,29.9705099,91.41404492,57.84833223
 H,0,31.77428378,93.07525831,59.25077014
 H,0,32.23564054,91.44494474,58.8238108
 H,0,28.62990148,91.05901781,56.39364698
 H,0,27.36932836,89.71621263,56.67148288
 H,0,25.62271009,89.74579184,56.6325428
 H,0,26.49601923,88.5260155,55.73669487
 H,0,24.67233277,88.29310423,54.61350753
 H,0,23.0376823,88.86353238,54.37771903
 H,0,23.90909582,90.41252425,52.61418798
 H,0,24.8443284,91.54147996,51.36945768
 H,0,28.51212783,91.84486466,50.38058565
 H,0,31.05905978,93.00808264,53.45313722
 H,0,32.22520133,91.2475732,52.08438502
 H,0,31.7662679,89.70578751,49.9457498
 H,0,30.05220129,89.4822925,49.69061789
 H,0,30.9092346,90.73228238,48.82108591
 H,0,27.75333133,95.57465788,53.977001
 H,0,26.19993541,95.78575291,53.977001
 Recover connectivity data from disk.
 Stoichiometry    C38H40FeN6O5(1+,6)
 Framework group  C1[X(C38H40FeN6O5)]
 Deg. of freedom   264
 Full point group                 C1      NOp   1
 Largest Abelian subgroup         C1      NOp   1
 Largest concise Abelian subgroup C1      NOp   1
                         Standard orientation:                         
 ---------------------------------------------------------------------
 Center     Atomic      Atomic             Coordinates (Angstroms)
 Number     Number       Type             X           Y           Z
 ---------------------------------------------------------------------
      1          6           0       -1.403921   -1.808380    4.954677
      2          6           0       -1.538406   -0.933030    3.707023
      3          7           0       -2.140717    0.238213    3.547021
      4          6           0       -0.978698   -1.214236    2.471389
      5          6           0       -1.955322    0.668200    2.314520
      6          7           0       -1.246482   -0.217511    1.656150
      7          6           0        2.384055    0.132499    0.255263
      8          6           0       -1.011414    3.457681   -0.239385
      9          6           0       -4.318413   -0.000245   -0.607826
     10          6           0       -0.816123   -3.280339   -0.665192
     11          6           0        1.769361    1.395727    0.195090
     12          6           0        2.430390    2.611118    0.193664
     13          6           0        1.448885    3.590432    0.070491
     14          6           0        0.258373    2.891972   -0.032960
     15          6           0        1.636834    5.105998    0.073343
     16          6           0        3.932014    2.808772    0.274719
     17          6           0        4.649452    2.805400   -1.082625
     18          6           0        6.145829    2.912281   -0.860928
     19          8           0        6.618720    3.885272   -0.293275
     20          8           0        6.894791    2.022645   -1.218749
     21          6           0       -2.269133    2.834061   -0.379750
     22          6           0       -3.483307    3.504292   -0.399003
     23          6           0       -4.456244    2.479119   -0.426188
     24          6           0       -3.755914    1.278367   -0.498850
     25          6           0       -3.626566    5.035306   -0.363993
     26          6           0       -5.849091    2.534316   -0.322827
     27          6           0       -6.536806    3.836675    0.127183
     28          6           0       -3.659476   -1.236218   -0.734181
     29          6           0       -4.298888   -2.434034   -1.014542
     30          6           0       -3.251467   -3.370006   -1.147327
     31          6           0       -2.081283   -2.689463   -0.823540
     32          6           0       -5.803898   -2.537903   -1.305708
     33          6           0       -3.243539   -4.730213   -1.495121
     34          6           0       -4.372583   -5.641063   -1.608170
     35          6           0        0.386594   -2.674491   -0.310798
     36          6           0        1.561755   -3.346358    0.007574
     37          6           0        2.492876   -2.359327    0.311845
     38          6           0        1.822870   -1.148872    0.125681
     39          6           0        1.791772   -4.856468    0.042469
     40          6           0        3.942816   -2.580067    0.758586
     41          6           0        4.888832   -2.468632   -0.450974
     42          6           0        6.391922   -2.604927   -0.194777
     43          8           0        7.179174   -2.359866   -1.100477
     44          8           0        6.819906   -2.981318    0.887415
     45          7           0        0.462929    1.587215    0.096200
     46          7           0       -2.442756    1.507079   -0.461354
     47          7           0       -2.325429   -1.382439   -0.662826
     48          7           0        0.536861   -1.348065   -0.177235
     49         26           0       -0.919930    0.118914   -0.308527
     50          8           0       -0.656781    0.333733   -2.291856
     51          1           0        6.726276   -2.421502    1.661650
     52          1           0        4.608620   -3.224949   -1.154085
     53          1           0        4.721689   -1.515784   -0.908188
     54          1           0        4.206885   -1.840114    1.484972
     55          1           0        4.035903   -3.553290    1.193410
     56          1           0        1.281055   -5.275686    0.884089
     57          1           0        1.415596   -5.295446   -0.857914
     58          1           0        2.839744   -5.055795    0.125669
     59          1           0        3.440246    0.149832    0.425735
     60          1           0        4.124307    3.744655    0.756432
     61          1           0        4.344019    2.026078    0.876833
     62          1           0        4.314543    3.637839   -1.665533
     63          1           0        4.429372    1.895312   -1.600510
     64          1           0        7.654648    1.789349   -0.680428
     65          1           0        1.883754    5.432915    1.061804
     66          1           0        2.428212    5.368518   -0.597257
     67          1           0        0.730222    5.578423   -0.242519
     68          1           0       -1.026681    4.525892   -0.299330
     69          1           0       -3.275306    5.404981    0.576675
     70          1           0       -3.048423    5.465803   -1.154767
     71          1           0       -4.655628    5.300204   -0.489533
     72          1           0       -6.437497    1.671683   -0.556372
     73          1           0       -6.663311    4.483009   -0.716114
     74          1           0       -7.493651    3.607801    0.547853
     75          1           0       -5.387508   -0.041667   -0.592995
     76          1           0       -6.275967   -1.604403   -1.080703
     77          1           0       -5.951890   -2.772471   -2.339137
     78          1           0       -6.231953   -3.309172   -0.700057
     79          1           0       -5.269556   -5.135005   -1.317923
     80          1           0       -4.462529   -5.973600   -2.621200
     81          1           0       -2.282537   -5.151726   -1.704173
     82          1           0       -0.771004   -4.334996   -0.840013
     83          1           0       -0.422503   -2.093735    2.222332
     84          1           0       -2.323506    1.590393    1.915896
     85          1           0       -2.657005    0.721574    4.253992
     86          1           0       -2.022791   -1.415737    5.734248
     87          1           0       -1.710997   -2.807171    4.724415
     88          1           0       -0.383925   -1.814395    5.277898
     89          1           0       -0.499559    1.179010   -1.864787
     90          1           0       -0.115341    0.268774   -3.081934
 ---------------------------------------------------------------------
 Rotational constants (GHZ):           0.0767656           0.0459546           0.0338019
 Standard basis: def2TZVP (5D, 7F)
 There are  2056 symmetry adapted cartesian basis functions of A   symmetry.
 There are  1804 symmetry adapted basis functions of A   symmetry.
  1804 basis functions,  2921 primitive gaussians,  2056 cartesian basis functions
   190 alpha electrons      185 beta electrons
       nuclear repulsion energy      7613.7653467140 Hartrees.
 NAtoms=   90 NActive=   90 NUniq=   90 SFac= 1.00D+00 NAtFMM=   60 NAOKFM=T Big=T
 Integral buffers will be    131072 words long.
 Raffenetti 2 integral format.
 Two-electron integral symmetry is turned on.
 Nuclear repulsion after empirical dispersion term =     7613.6397873658 Hartrees.
 One-electron integrals computed using PRISM.
   1 Symmetry operations used in ECPInt.
 ECPInt:  NShTT=  255255 NPrTT=  790653 LenC2=  185653 LenP2D=  373098.
 LDataN:  DoStor=T MaxTD1= 6 Len=  172
 NBasis=  1804 RedAO= T EigKep=  2.87D-06  NBF=  1804
 NBsUse=  1804 1.00D-06 EigRej= -1.00D+00 NBFU=  1804
 ExpMin= 4.20D-02 ExpMax= 3.01D+05 ExpMxC= 2.91D+03 IAcc=3 IRadAn=         5 AccDes= 0.00D+00
 Harris functional with IExCor= 1009 and IRadAn=       5 diagonalized for initial guess.
 HarFok:  IExCor= 1009 AccDes= 0.00D+00 IRadAn=         5 IDoV= 1 UseB2=F ITyADJ=14
 ICtDFT=  3500011 ScaDFX=  1.000000  1.000000  1.000000  1.000000
 FoFCou: FMM=F IPFlag=           0 FMFlag=      100000 FMFlg1=        2001
         NFxFlg=           0 DoJE=T BraDBF=F KetDBF=T FulRan=T
         wScrn=  0.000000 ICntrl=       500 IOpCl=  0 I1Cent=   200000004 NGrid=           0
         NMat0=    1 NMatS0=      1 NMatT0=    0 NMatD0=    1 NMtDS0=    0 NMtDT0=    0
 Petite list used in FoFCou.
 Initial guess <Sx>= 0.0000 <Sy>= 0.0000 <Sz>= 2.5000 <S**2>= 8.7500 S= 2.5000
 Requested convergence on RMS density matrix=1.00D-08 within 128 cycles.
 Requested convergence on MAX density matrix=1.00D-06.
 Requested convergence on             energy=1.00D-06.
 No special actions if energy rises.
 EnCoef did     1 forward-backward iterations
 EnCoef did   100 forward-backward iterations
 EnCoef did   100 forward-backward iterations
 EnCoef did   100 forward-backward iterations
 EnCoef did     1 forward-backward iterations
 EnCoef did   100 forward-backward iterations
 EnCoef did    15 forward-backward iterations
 EnCoef did    23 forward-backward iterations
 Restarting incremental Fock formation.
 Restarting incremental Fock formation.
 SCF Done:  E(UPBE1PBE) =  -3438.33035753     A.U. after   58 cycles
            NFock= 58  Conv=0.45D-08     -V/T= 2.0027
 <Sx>= 0.0000 <Sy>= 0.0000 <Sz>= 2.5000 <S**2>= 8.9368 S= 2.5310
 <L.S>= 0.000000000000E+00
 Annihilation of the first spin contaminant:
 S**2 before annihilation     8.9368,   after     8.7599

 **********************************************************************

            Population analysis using the SCF density.

 **********************************************************************

 Orbital symmetries:
 Alpha Orbitals:
       Occupied  (A) (A) (A) (A) (A) (A) (A) (A) (A) (A) (A) (A)
                 (A) (A) (A) (A) (A) (A) (A) (A) (A) (A) (A) (A)
                 (A) (A) (A) (A) (A) (A) (A) (A) (A) (A) (A) (A)
                 (A) (A) (A) (A) (A) (A) (A) (A) (A) (A) (A) (A)
                 (A) (A) (A) (A) (A) (A) (A) (A) (A) (A) (A) (A)
                 (A) (A) (A) (A) (A) (A) (A) (A) (A) (A) (A) (A)
                 (A) (A) (A) (A) (A) (A) (A) (A) (A) (A) (A) (A)
                 (A) (A) (A) (A) (A) (A) (A) (A) (A) (A) (A) (A)
                 (A) (A) (A) (A) (A) (A) (A) (A) (A) (A) (A) (A)
                 (A) (A) (A) (A) (A) (A) (A) (A) (A) (A) (A) (A)
                 (A) (A) (A) (A) (A) (A) (A) (A) (A) (A) (A) (A)
                 (A) (A) (A) (A) (A) (A) (A) (A) (A) (A) (A) (A)
                 (A) (A) (A) (A) (A) (A) (A) (A) (A) (A) (A) (A)
                 (A) (A) (A) (A) (A) (A) (A) (A) (A) (A) (A) (A)
                 (A) (A) (A) (A) (A) (A) (A) (A) (A) (A) (A) (A)
                 (A) (A) (A) (A) (A) (A) (A) (A) (A) (A)
       Virtual   (A) (A) (A) (A) (A) (A) (A) (A) (A) (A) (A) (A)
                 (A) (A) (A) (A) (A) (A) (A) (A) (A) (A) (A) (A)
                 (A) (A) (A) (A) (A) (A) (A) (A) (A) (A) (A) (A)
                 (A) (A) (A) (A) (A) (A) (A) (A) (A) (A) (A) (A)
                 (A) (A) (A) (A) (A) (A) (A) (A) (A) (A) (A) (A)
                 (A) (A) (A) (A) (A) (A) (A) (A) (A) (A) (A) (A)
                 (A) (A) (A) (A) (A) (A) (A) (A) (A) (A) (A) (A)
                 (A) (A) (A) (A) (A) (A) (A) (A) (A) (A) (A) (A)
                 (A) (A) (A) (A) (A) (A) (A) (A) (A) (A) (A) (A)
                 (A) (A) (A) (A) (A) (A) (A) (A) (A) (A) (A) (A)
                 (A) (A) (A) (A) (A) (A) (A) (A) (A) (A) (A) (A)
                 (A) (A) (A) (A) (A) (A) (A) (A) (A) (A) (A) (A)
                 (A) (A) (A) (A) (A) (A) (A) (A) (A) (A) (A) (A)
                 (A) (A) (A) (A) (A) (A) (A) (A) (A) (A) (A) (A)
                 (A) (A) (A) (A) (A) (A) (A) (A) (A) (A) (A) (A)
                 (A) (A) (A) (A) (A) (A) (A) (A) (A) (A) (A) (A)
                 (A) (A) (A) (A) (A) (A) (A) (A) (A) (A) (A) (A)
                 (A) (A) (A) (A) (A) (A) (A) (A) (A) (A) (A) (A)
                 (A) (A) (A) (A) (A) (A) (A) (A) (A) (A) (A) (A)
                 (A) (A) (A) (A) (A) (A) (A) (A) (A) (A) (A) (A)
                 (A) (A) (A) (A) (A) (A) (A) (A) (A) (A) (A) (A)
                 (A) (A) (A) (A) (A) (A) (A) (A) (A) (A) (A) (A)
                 (A) (A) (A) (A) (A) (A) (A) (A) (A) (A) (A) (A)
                 (A) (A) (A) (A) (A) (A) (A) (A) (A) (A) (A) (A)
                 (A) (A) (A) (A) (A) (A) (A) (A) (A) (A) (A) (A)
                 (A) (A) (A) (A) (A) (A) (A) (A) (A) (A) (A) (A)
                 (A) (A) (A) (A) (A) (A) (A) (A) (A) (A) (A) (A)
                 (A) (A) (A) (A) (A) (A) (A) (A) (A) (A) (A) (A)
                 (A) (A) (A) (A) (A) (A) (A) (A) (A) (A) (A) (A)
                 (A) (A) (A) (A) (A) (A) (A) (A) (A) (A) (A) (A)
                 (A) (A) (A) (A) (A) (A) (A) (A) (A) (A) (A) (A)
                 (A) (A) (A) (A) (A) (A) (A) (A) (A) (A) (A) (A)
                 (A) (A) (A) (A) (A) (A) (A) (A) (A) (A) (A) (A)
                 (A) (A) (A) (A) (A) (A) (A) (A) (A) (A) (A) (A)
                 (A) (A) (A) (A) (A) (A) (A) (A) (A) (A) (A) (A)
                 (A) (A) (A) (A) (A) (A) (A) (A) (A) (A) (A) (A)
                 (A) (A) (A) (A) (A) (A) (A) (A) (A) (A) (A) (A)
                 (A) (A) (A) (A) (A) (A) (A) (A) (A) (A) (A) (A)
                 (A) (A) (A) (A) (A) (A) (A) (A) (A) (A) (A) (A)
                 (A) (A) (A) (A) (A) (A) (A) (A) (A) (A) (A) (A)
                 (A) (A) (A) (A) (A) (A) (A) (A) (A) (A) (A) (A)
                 (A) (A) (A) (A) (A) (A) (A) (A) (A) (A) (A) (A)
                 (A) (A) (A) (A) (A) (A) (A) (A) (A) (A) (A) (A)
                 (A) (A) (A) (A) (A) (A) (A) (A) (A) (A) (A) (A)
                 (A) (A) (A) (A) (A) (A) (A) (A) (A) (A) (A) (A)
                 (A) (A) (A) (A) (A) (A) (A) (A) (A) (A) (A) (A)
                 (A) (A) (A) (A) (A) (A) (A) (A) (A) (A) (A) (A)
                 (A) (A) (A) (A) (A) (A) (A) (A) (A) (A) (A) (A)
                 (A) (A) (A) (A) (A) (A) (A) (A) (A) (A) (A) (A)
                 (A) (A) (A) (A) (A) (A) (A) (A) (A) (A) (A) (A)
                 (A) (A) (A) (A) (A) (A) (A) (A) (A) (A) (A) (A)
                 (A) (A) (A) (A) (A) (A) (A) (A) (A) (A) (A) (A)
                 (A) (A) (A) (A) (A) (A) (A) (A) (A) (A) (A) (A)
                 (A) (A) (A) (A) (A) (A) (A) (A) (A) (A) (A) (A)
                 (A) (A) (A) (A) (A) (A) (A) (A) (A) (A) (A) (A)
                 (A) (A) (A) (A) (A) (A) (A) (A) (A) (A) (A) (A)
                 (A) (A) (A) (A) (A) (A) (A) (A) (A) (A) (A) (A)
                 (A) (A) (A) (A) (A) (A) (A) (A) (A) (A) (A) (A)
                 (A) (A) (A) (A) (A) (A) (A) (A) (A) (A) (A) (A)
                 (A) (A) (A) (A) (A) (A) (A) (A) (A) (A) (A) (A)
                 (A) (A) (A) (A) (A) (A) (A) (A) (A) (A) (A) (A)
                 (A) (A) (A) (A) (A) (A) (A) (A) (A) (A) (A) (A)
                 (A) (A) (A) (A) (A) (A) (A) (A) (A) (A) (A) (A)
                 (A) (A) (A) (A) (A) (A) (A) (A) (A) (A) (A) (A)
                 (A) (A) (A) (A) (A) (A) (A) (A) (A) (A) (A) (A)
                 (A) (A) (A) (A) (A) (A) (A) (A) (A) (A) (A) (A)
                 (A) (A) (A) (A) (A) (A) (A) (A) (A) (A) (A) (A)
                 (A) (A) (A) (A) (A) (A) (A) (A) (A) (A) (A) (A)
                 (A) (A) (A) (A) (A) (A) (A) (A) (A) (A) (A) (A)
                 (A) (A) (A) (A) (A) (A) (A) (A) (A) (A) (A) (A)
                 (A) (A) (A) (A) (A) (A) (A) (A) (A) (A) (A) (A)
                 (A) (A) (A) (A) (A) (A) (A) (A) (A) (A) (A) (A)
                 (A) (A) (A) (A) (A) (A) (A) (A) (A) (A) (A) (A)
                 (A) (A) (A) (A) (A) (A) (A) (A) (A) (A) (A) (A)
                 (A) (A) (A) (A) (A) (A) (A) (A) (A) (A) (A) (A)
                 (A) (A) (A) (A) (A) (A) (A) (A) (A) (A) (A) (A)
                 (A) (A) (A) (A) (A) (A) (A) (A) (A) (A) (A) (A)
                 (A) (A) (A) (A) (A) (A) (A) (A) (A) (A) (A) (A)
                 (A) (A) (A) (A) (A) (A) (A) (A) (A) (A) (A) (A)
                 (A) (A) (A) (A) (A) (A) (A) (A) (A) (A) (A) (A)
                 (A) (A) (A) (A) (A) (A) (A) (A) (A) (A) (A) (A)
                 (A) (A) (A) (A) (A) (A) (A) (A) (A) (A) (A) (A)
                 (A) (A) (A) (A) (A) (A) (A) (A) (A) (A) (A) (A)
                 (A) (A) (A) (A) (A) (A) (A) (A) (A) (A) (A) (A)
                 (A) (A) (A) (A) (A) (A) (A) (A) (A) (A) (A) (A)
                 (A) (A) (A) (A) (A) (A) (A) (A) (A) (A) (A) (A)
                 (A) (A) (A) (A) (A) (A) (A) (A) (A) (A) (A) (A)
                 (A) (A) (A) (A) (A) (A) (A) (A) (A) (A) (A) (A)
                 (A) (A) (A) (A) (A) (A) (A) (A) (A) (A) (A) (A)
                 (A) (A) (A) (A) (A) (A) (A) (A) (A) (A) (A) (A)
                 (A) (A) (A) (A) (A) (A) (A) (A) (A) (A) (A) (A)
                 (A) (A) (A) (A) (A) (A) (A) (A) (A) (A) (A) (A)
                 (A) (A) (A) (A) (A) (A) (A) (A) (A) (A) (A) (A)
                 (A) (A) (A) (A) (A) (A) (A) (A) (A) (A) (A) (A)
                 (A) (A) (A) (A) (A) (A) (A) (A) (A) (A) (A) (A)
                 (A) (A) (A) (A) (A) (A) (A) (A) (A) (A) (A) (A)
                 (A) (A) (A) (A) (A) (A) (A) (A) (A) (A) (A) (A)
                 (A) (A) (A) (A) (A) (A) (A) (A) (A) (A) (A) (A)
                 (A) (A) (A) (A) (A) (A) (A) (A) (A) (A) (A) (A)
                 (A) (A) (A) (A) (A) (A) (A) (A) (A) (A) (A) (A)
                 (A) (A) (A) (A) (A) (A) (A) (A) (A) (A) (A) (A)
                 (A) (A) (A) (A) (A) (A) (A) (A) (A) (A) (A) (A)
                 (A) (A) (A) (A) (A) (A) (A) (A) (A) (A) (A) (A)
                 (A) (A) (A) (A) (A) (A) (A) (A) (A) (A) (A) (A)
                 (A) (A) (A) (A) (A) (A) (A) (A) (A) (A) (A) (A)
                 (A) (A) (A) (A) (A) (A) (A) (A) (A) (A) (A) (A)
                 (A) (A) (A) (A) (A) (A) (A) (A) (A) (A) (A) (A)
                 (A) (A) (A) (A) (A) (A) (A) (A) (A) (A) (A) (A)
                 (A) (A) (A) (A) (A) (A) (A) (A) (A) (A) (A) (A)
                 (A) (A) (A) (A) (A) (A) (A) (A) (A) (A) (A) (A)
                 (A) (A) (A) (A) (A) (A) (A) (A) (A) (A) (A) (A)
                 (A) (A) (A) (A) (A) (A) (A) (A) (A) (A) (A) (A)
                 (A) (A) (A) (A) (A) (A) (A) (A) (A) (A) (A) (A)
                 (A) (A) (A) (A) (A) (A) (A) (A) (A) (A) (A) (A)
                 (A) (A) (A) (A) (A) (A) (A) (A) (A) (A) (A) (A)
                 (A) (A) (A) (A) (A) (A) (A) (A) (A) (A) (A) (A)
                 (A) (A) (A) (A) (A) (A) (A) (A) (A) (A) (A) (A)
                 (A) (A) (A) (A) (A) (A) (A) (A) (A) (A) (A) (A)
                 (A) (A) (A) (A) (A) (A) (A) (A) (A) (A) (A) (A)
                 (A) (A) (A) (A) (A) (A) (A) (A) (A) (A) (A) (A)
                 (A) (A) (A) (A) (A) (A) (A) (A) (A) (A) (A) (A)
                 (A) (A) (A) (A) (A) (A) (A) (A) (A) (A) (A) (A)
                 (A) (A) (A) (A) (A) (A) (A) (A) (A) (A) (A) (A)
                 (A) (A) (A) (A) (A) (A) (A) (A) (A) (A) (A) (A)
                 (A) (A) (A) (A) (A) (A) (A) (A) (A) (A) (A) (A)
                 (A) (A) (A) (A) (A) (A) (A) (A) (A) (A) (A) (A)
                 (A) (A) (A) (A) (A) (A) (A) (A) (A) (A) (A) (A)
                 (A) (A) (A) (A) (A) (A) (A) (A) (A) (A) (A) (A)
                 (A) (A) (A) (A) (A) (A) (A) (A) (A) (A) (A) (A)
                 (A) (A) (A) (A) (A) (A) (A) (A) (A) (A) (A) (A)
                 (A) (A) (A) (A) (A) (A) (A) (A) (A) (A) (A) (A)
                 (A) (A) (A) (A) (A) (A) (A) (A) (A) (A) (A) (A)
                 (A) (A) (A) (A) (A) (A) (A) (A) (A) (A) (A) (A)
                 (A) (A) (A) (A) (A) (A) (A) (A) (A) (A) (A) (A)
                 (A) (A) (A) (A) (A) (A)
 Beta  Orbitals:
       Occupied  (A) (A) (A) (A) (A) (A) (A) (A) (A) (A) (A) (A)
                 (A) (A) (A) (A) (A) (A) (A) (A) (A) (A) (A) (A)
                 (A) (A) (A) (A) (A) (A) (A) (A) (A) (A) (A) (A)
                 (A) (A) (A) (A) (A) (A) (A) (A) (A) (A) (A) (A)
                 (A) (A) (A) (A) (A) (A) (A) (A) (A) (A) (A) (A)
                 (A) (A) (A) (A) (A) (A) (A) (A) (A) (A) (A) (A)
                 (A) (A) (A) (A) (A) (A) (A) (A) (A) (A) (A) (A)
                 (A) (A) (A) (A) (A) (A) (A) (A) (A) (A) (A) (A)
                 (A) (A) (A) (A) (A) (A) (A) (A) (A) (A) (A) (A)
                 (A) (A) (A) (A) (A) (A) (A) (A) (A) (A) (A) (A)
                 (A) (A) (A) (A) (A) (A) (A) (A) (A) (A) (A) (A)
                 (A) (A) (A) (A) (A) (A) (A) (A) (A) (A) (A) (A)
                 (A) (A) (A) (A) (A) (A) (A) (A) (A) (A) (A) (A)
                 (A) (A) (A) (A) (A) (A) (A) (A) (A) (A) (A) (A)
                 (A) (A) (A) (A) (A) (A) (A) (A) (A) (A) (A) (A)
                 (A) (A) (A) (A) (A)
       Virtual   (A) (A) (A) (A) (A) (A) (A) (A) (A) (A) (A) (A)
                 (A) (A) (A) (A) (A) (A) (A) (A) (A) (A) (A) (A)
                 (A) (A) (A) (A) (A) (A) (A) (A) (A) (A) (A) (A)
                 (A) (A) (A) (A) (A) (A) (A) (A) (A) (A) (A) (A)
                 (A) (A) (A) (A) (A) (A) (A) (A) (A) (A) (A) (A)
                 (A) (A) (A) (A) (A) (A) (A) (A) (A) (A) (A) (A)
                 (A) (A) (A) (A) (A) (A) (A) (A) (A) (A) (A) (A)
                 (A) (A) (A) (A) (A) (A) (A) (A) (A) (A) (A) (A)
                 (A) (A) (A) (A) (A) (A) (A) (A) (A) (A) (A) (A)
                 (A) (A) (A) (A) (A) (A) (A) (A) (A) (A) (A) (A)
                 (A) (A) (A) (A) (A) (A) (A) (A) (A) (A) (A) (A)
                 (A) (A) (A) (A) (A) (A) (A) (A) (A) (A) (A) (A)
                 (A) (A) (A) (A) (A) (A) (A) (A) (A) (A) (A) (A)
                 (A) (A) (A) (A) (A) (A) (A) (A) (A) (A) (A) (A)
                 (A) (A) (A) (A) (A) (A) (A) (A) (A) (A) (A) (A)
                 (A) (A) (A) (A) (A) (A) (A) (A) (A) (A) (A) (A)
                 (A) (A) (A) (A) (A) (A) (A) (A) (A) (A) (A) (A)
                 (A) (A) (A) (A) (A) (A) (A) (A) (A) (A) (A) (A)
                 (A) (A) (A) (A) (A) (A) (A) (A) (A) (A) (A) (A)
                 (A) (A) (A) (A) (A) (A) (A) (A) (A) (A) (A) (A)
                 (A) (A) (A) (A) (A) (A) (A) (A) (A) (A) (A) (A)
                 (A) (A) (A) (A) (A) (A) (A) (A) (A) (A) (A) (A)
                 (A) (A) (A) (A) (A) (A) (A) (A) (A) (A) (A) (A)
                 (A) (A) (A) (A) (A) (A) (A) (A) (A) (A) (A) (A)
                 (A) (A) (A) (A) (A) (A) (A) (A) (A) (A) (A) (A)
                 (A) (A) (A) (A) (A) (A) (A) (A) (A) (A) (A) (A)
                 (A) (A) (A) (A) (A) (A) (A) (A) (A) (A) (A) (A)
                 (A) (A) (A) (A) (A) (A) (A) (A) (A) (A) (A) (A)
                 (A) (A) (A) (A) (A) (A) (A) (A) (A) (A) (A) (A)
                 (A) (A) (A) (A) (A) (A) (A) (A) (A) (A) (A) (A)
                 (A) (A) (A) (A) (A) (A) (A) (A) (A) (A) (A) (A)
                 (A) (A) (A) (A) (A) (A) (A) (A) (A) (A) (A) (A)
                 (A) (A) (A) (A) (A) (A) (A) (A) (A) (A) (A) (A)
                 (A) (A) (A) (A) (A) (A) (A) (A) (A) (A) (A) (A)
                 (A) (A) (A) (A) (A) (A) (A) (A) (A) (A) (A) (A)
                 (A) (A) (A) (A) (A) (A) (A) (A) (A) (A) (A) (A)
                 (A) (A) (A) (A) (A) (A) (A) (A) (A) (A) (A) (A)
                 (A) (A) (A) (A) (A) (A) (A) (A) (A) (A) (A) (A)
                 (A) (A) (A) (A) (A) (A) (A) (A) (A) (A) (A) (A)
                 (A) (A) (A) (A) (A) (A) (A) (A) (A) (A) (A) (A)
                 (A) (A) (A) (A) (A) (A) (A) (A) (A) (A) (A) (A)
                 (A) (A) (A) (A) (A) (A) (A) (A) (A) (A) (A) (A)
                 (A) (A) (A) (A) (A) (A) (A) (A) (A) (A) (A) (A)
                 (A) (A) (A) (A) (A) (A) (A) (A) (A) (A) (A) (A)
                 (A) (A) (A) (A) (A) (A) (A) (A) (A) (A) (A) (A)
                 (A) (A) (A) (A) (A) (A) (A) (A) (A) (A) (A) (A)
                 (A) (A) (A) (A) (A) (A) (A) (A) (A) (A) (A) (A)
                 (A) (A) (A) (A) (A) (A) (A) (A) (A) (A) (A) (A)
                 (A) (A) (A) (A) (A) (A) (A) (A) (A) (A) (A) (A)
                 (A) (A) (A) (A) (A) (A) (A) (A) (A) (A) (A) (A)
                 (A) (A) (A) (A) (A) (A) (A) (A) (A) (A) (A) (A)
                 (A) (A) (A) (A) (A) (A) (A) (A) (A) (A) (A) (A)
                 (A) (A) (A) (A) (A) (A) (A) (A) (A) (A) (A) (A)
                 (A) (A) (A) (A) (A) (A) (A) (A) (A) (A) (A) (A)
                 (A) (A) (A) (A) (A) (A) (A) (A) (A) (A) (A) (A)
                 (A) (A) (A) (A) (A) (A) (A) (A) (A) (A) (A) (A)
                 (A) (A) (A) (A) (A) (A) (A) (A) (A) (A) (A) (A)
                 (A) (A) (A) (A) (A) (A) (A) (A) (A) (A) (A) (A)
                 (A) (A) (A) (A) (A) (A) (A) (A) (A) (A) (A) (A)
                 (A) (A) (A) (A) (A) (A) (A) (A) (A) (A) (A) (A)
                 (A) (A) (A) (A) (A) (A) (A) (A) (A) (A) (A) (A)
                 (A) (A) (A) (A) (A) (A) (A) (A) (A) (A) (A) (A)
                 (A) (A) (A) (A) (A) (A) (A) (A) (A) (A) (A) (A)
                 (A) (A) (A) (A) (A) (A) (A) (A) (A) (A) (A) (A)
                 (A) (A) (A) (A) (A) (A) (A) (A) (A) (A) (A) (A)
                 (A) (A) (A) (A) (A) (A) (A) (A) (A) (A) (A) (A)
                 (A) (A) (A) (A) (A) (A) (A) (A) (A) (A) (A) (A)
                 (A) (A) (A) (A) (A) (A) (A) (A) (A) (A) (A) (A)
                 (A) (A) (A) (A) (A) (A) (A) (A) (A) (A) (A) (A)
                 (A) (A) (A) (A) (A) (A) (A) (A) (A) (A) (A) (A)
                 (A) (A) (A) (A) (A) (A) (A) (A) (A) (A) (A) (A)
                 (A) (A) (A) (A) (A) (A) (A) (A) (A) (A) (A) (A)
                 (A) (A) (A) (A) (A) (A) (A) (A) (A) (A) (A) (A)
                 (A) (A) (A) (A) (A) (A) (A) (A) (A) (A) (A) (A)
                 (A) (A) (A) (A) (A) (A) (A) (A) (A) (A) (A) (A)
                 (A) (A) (A) (A) (A) (A) (A) (A) (A) (A) (A) (A)
                 (A) (A) (A) (A) (A) (A) (A) (A) (A) (A) (A) (A)
                 (A) (A) (A) (A) (A) (A) (A) (A) (A) (A) (A) (A)
                 (A) (A) (A) (A) (A) (A) (A) (A) (A) (A) (A) (A)
                 (A) (A) (A) (A) (A) (A) (A) (A) (A) (A) (A) (A)
                 (A) (A) (A) (A) (A) (A) (A) (A) (A) (A) (A) (A)
                 (A) (A) (A) (A) (A) (A) (A) (A) (A) (A) (A) (A)
                 (A) (A) (A) (A) (A) (A) (A) (A) (A) (A) (A) (A)
                 (A) (A) (A) (A) (A) (A) (A) (A) (A) (A) (A) (A)
                 (A) (A) (A) (A) (A) (A) (A) (A) (A) (A) (A) (A)
                 (A) (A) (A) (A) (A) (A) (A) (A) (A) (A) (A) (A)
                 (A) (A) (A) (A) (A) (A) (A) (A) (A) (A) (A) (A)
                 (A) (A) (A) (A) (A) (A) (A) (A) (A) (A) (A) (A)
                 (A) (A) (A) (A) (A) (A) (A) (A) (A) (A) (A) (A)
                 (A) (A) (A) (A) (A) (A) (A) (A) (A) (A) (A) (A)
                 (A) (A) (A) (A) (A) (A) (A) (A) (A) (A) (A) (A)
                 (A) (A) (A) (A) (A) (A) (A) (A) (A) (A) (A) (A)
                 (A) (A) (A) (A) (A) (A) (A) (A) (A) (A) (A) (A)
                 (A) (A) (A) (A) (A) (A) (A) (A) (A) (A) (A) (A)
                 (A) (A) (A) (A) (A) (A) (A) (A) (A) (A) (A) (A)
                 (A) (A) (A) (A) (A) (A) (A) (A) (A) (A) (A) (A)
                 (A) (A) (A) (A) (A) (A) (A) (A) (A) (A) (A) (A)
                 (A) (A) (A) (A) (A) (A) (A) (A) (A) (A) (A) (A)
                 (A) (A) (A) (A) (A) (A) (A) (A) (A) (A) (A) (A)
                 (A) (A) (A) (A) (A) (A) (A) (A) (A) (A) (A) (A)
                 (A) (A) (A) (A) (A) (A) (A) (A) (A) (A) (A) (A)
                 (A) (A) (A) (A) (A) (A) (A) (A) (A) (A) (A) (A)
                 (A) (A) (A) (A) (A) (A) (A) (A) (A) (A) (A) (A)
                 (A) (A) (A) (A) (A) (A) (A) (A) (A) (A) (A) (A)
                 (A) (A) (A) (A) (A) (A) (A) (A) (A) (A) (A) (A)
                 (A) (A) (A) (A) (A) (A) (A) (A) (A) (A) (A) (A)
                 (A) (A) (A) (A) (A) (A) (A) (A) (A) (A) (A) (A)
                 (A) (A) (A) (A) (A) (A) (A) (A) (A) (A) (A) (A)
                 (A) (A) (A) (A) (A) (A) (A) (A) (A) (A) (A) (A)
                 (A) (A) (A) (A) (A) (A) (A) (A) (A) (A) (A) (A)
                 (A) (A) (A) (A) (A) (A) (A) (A) (A) (A) (A) (A)
                 (A) (A) (A) (A) (A) (A) (A) (A) (A) (A) (A) (A)
                 (A) (A) (A) (A) (A) (A) (A) (A) (A) (A) (A) (A)
                 (A) (A) (A) (A) (A) (A) (A) (A) (A) (A) (A) (A)
                 (A) (A) (A) (A) (A) (A) (A) (A) (A) (A) (A) (A)
                 (A) (A) (A) (A) (A) (A) (A) (A) (A) (A) (A) (A)
                 (A) (A) (A) (A) (A) (A) (A) (A) (A) (A) (A) (A)
                 (A) (A) (A) (A) (A) (A) (A) (A) (A) (A) (A) (A)
                 (A) (A) (A) (A) (A) (A) (A) (A) (A) (A) (A) (A)
                 (A) (A) (A) (A) (A) (A) (A) (A) (A) (A) (A) (A)
                 (A) (A) (A) (A) (A) (A) (A) (A) (A) (A) (A) (A)
                 (A) (A) (A) (A) (A) (A) (A) (A) (A) (A) (A) (A)
                 (A) (A) (A) (A) (A) (A) (A) (A) (A) (A) (A) (A)
                 (A) (A) (A) (A) (A) (A) (A) (A) (A) (A) (A) (A)
                 (A) (A) (A) (A) (A) (A) (A) (A) (A) (A) (A) (A)
                 (A) (A) (A) (A) (A) (A) (A) (A) (A) (A) (A) (A)
                 (A) (A) (A) (A) (A) (A) (A) (A) (A) (A) (A) (A)
                 (A) (A) (A) (A) (A) (A) (A) (A) (A) (A) (A) (A)
                 (A) (A) (A) (A) (A) (A) (A) (A) (A) (A) (A) (A)
                 (A) (A) (A) (A) (A) (A) (A) (A) (A) (A) (A) (A)
                 (A) (A) (A) (A) (A) (A) (A) (A) (A) (A) (A) (A)
                 (A) (A) (A) (A) (A) (A) (A) (A) (A) (A) (A) (A)
                 (A) (A) (A) (A) (A) (A) (A) (A) (A) (A) (A) (A)
                 (A) (A) (A) (A) (A) (A) (A) (A) (A) (A) (A) (A)
                 (A) (A) (A) (A) (A) (A) (A) (A) (A) (A) (A)
 The electronic state is 6-A.
 Alpha  occ. eigenvalues -- -256.54116 -30.34738 -26.18179 -26.16000 -26.15933
 Alpha  occ. eigenvalues --  -19.35830 -19.32999 -19.32770 -19.24767 -19.23681
 Alpha  occ. eigenvalues --  -14.56250 -14.50519 -14.50213 -14.49597 -14.49170
 Alpha  occ. eigenvalues --  -14.48969 -10.42174 -10.41418 -10.38838 -10.36905
 Alpha  occ. eigenvalues --  -10.36594 -10.36241 -10.36070 -10.35927 -10.35884
 Alpha  occ. eigenvalues --  -10.35868 -10.35821 -10.35708 -10.35069 -10.34354
 Alpha  occ. eigenvalues --  -10.34110 -10.34104 -10.33801 -10.33790 -10.33589
 Alpha  occ. eigenvalues --  -10.33532 -10.33421 -10.33312 -10.33312 -10.33230
 Alpha  occ. eigenvalues --  -10.33189 -10.32963 -10.32843 -10.32789 -10.32655
 Alpha  occ. eigenvalues --  -10.32557 -10.32046 -10.31523 -10.31452 -10.31106
 Alpha  occ. eigenvalues --  -10.30997 -10.30865 -10.30836 -10.30095  -3.74490
 Alpha  occ. eigenvalues --   -2.54453  -2.48333  -2.48236  -1.25640  -1.25571
 Alpha  occ. eigenvalues --   -1.20485  -1.19699  -1.12792  -1.12039  -1.11298
 Alpha  occ. eigenvalues --   -1.10687  -1.10459  -1.09850  -1.04497  -0.95625
 Alpha  occ. eigenvalues --   -0.94579  -0.93866  -0.93783  -0.93207  -0.92884
 Alpha  occ. eigenvalues --   -0.92618  -0.91451  -0.89714  -0.88714  -0.87886
 Alpha  occ. eigenvalues --   -0.86716  -0.86430  -0.84488  -0.83194  -0.82837
 Alpha  occ. eigenvalues --   -0.82719  -0.81773  -0.80788  -0.79416  -0.78574
 Alpha  occ. eigenvalues --   -0.77750  -0.77626  -0.77193  -0.75536  -0.75121
 Alpha  occ. eigenvalues --   -0.74216  -0.73767  -0.73328  -0.72428  -0.70486
 Alpha  occ. eigenvalues --   -0.70390  -0.68310  -0.67948  -0.66916  -0.66059
 Alpha  occ. eigenvalues --   -0.65044  -0.64168  -0.63784  -0.63498  -0.62158
 Alpha  occ. eigenvalues --   -0.61827  -0.60664  -0.60376  -0.60110  -0.59852
 Alpha  occ. eigenvalues --   -0.59737  -0.59495  -0.59378  -0.58162  -0.57696
 Alpha  occ. eigenvalues --   -0.57608  -0.56980  -0.56914  -0.56343  -0.55812
 Alpha  occ. eigenvalues --   -0.55563  -0.55202  -0.55169  -0.54850  -0.54627
 Alpha  occ. eigenvalues --   -0.54460  -0.54249  -0.53882  -0.53695  -0.53481
 Alpha  occ. eigenvalues --   -0.53409  -0.53029  -0.52830  -0.52446  -0.52322
 Alpha  occ. eigenvalues --   -0.52162  -0.51989  -0.51758  -0.51331  -0.51172
 Alpha  occ. eigenvalues --   -0.51099  -0.50809  -0.50549  -0.50506  -0.50056
 Alpha  occ. eigenvalues --   -0.49649  -0.49481  -0.49389  -0.49058  -0.48894
 Alpha  occ. eigenvalues --   -0.48788  -0.48648  -0.48208  -0.48019  -0.47824
 Alpha  occ. eigenvalues --   -0.47608  -0.47332  -0.47239  -0.46424  -0.45840
 Alpha  occ. eigenvalues --   -0.45723  -0.44620  -0.44369  -0.43998  -0.43671
 Alpha  occ. eigenvalues --   -0.43388  -0.42473  -0.42344  -0.41672  -0.40577
 Alpha  occ. eigenvalues --   -0.40439  -0.39607  -0.39324  -0.38178  -0.36845
 Alpha  occ. eigenvalues --   -0.36239  -0.35806  -0.35476  -0.34664  -0.34382
 Alpha  occ. eigenvalues --   -0.34181  -0.32837  -0.31622  -0.30821  -0.27712
 Alpha virt. eigenvalues --   -0.22279  -0.20063  -0.18207  -0.14809  -0.10825
 Alpha virt. eigenvalues --   -0.08690  -0.08512  -0.08006  -0.06853  -0.06539
 Alpha virt. eigenvalues --   -0.06454  -0.06023  -0.05324  -0.04785  -0.04121
 Alpha virt. eigenvalues --   -0.03889  -0.03771  -0.02882  -0.02724  -0.02615
 Alpha virt. eigenvalues --   -0.01837  -0.01608  -0.01265  -0.01227  -0.00909
 Alpha virt. eigenvalues --   -0.00725  -0.00447  -0.00358   0.00125   0.00330
 Alpha virt. eigenvalues --    0.00589   0.01288   0.01499   0.02002   0.02364
 Alpha virt. eigenvalues --    0.02432   0.02964   0.03373   0.03470   0.03607
 Alpha virt. eigenvalues --    0.03699   0.03981   0.04242   0.04406   0.04597
 Alpha virt. eigenvalues --    0.04842   0.05051   0.05398   0.05443   0.05581
 Alpha virt. eigenvalues --    0.05649   0.05779   0.06250   0.06370   0.06455
 Alpha virt. eigenvalues --    0.06794   0.06959   0.07170   0.07384   0.07616
 Alpha virt. eigenvalues --    0.07868   0.08138   0.08265   0.08474   0.08873
 Alpha virt. eigenvalues --    0.09060   0.09148   0.09425   0.09669   0.10022
 Alpha virt. eigenvalues --    0.10264   0.10446   0.10693   0.10962   0.11232
 Alpha virt. eigenvalues --    0.11323   0.11473   0.11716   0.11912   0.12255
 Alpha virt. eigenvalues --    0.12390   0.12718   0.12905   0.12968   0.13385
 Alpha virt. eigenvalues --    0.13423   0.13487   0.13583   0.13806   0.14223
 Alpha virt. eigenvalues --    0.14405   0.14659   0.14860   0.14919   0.15163
 Alpha virt. eigenvalues --    0.15283   0.15477   0.15793   0.16031   0.16344
 Alpha virt. eigenvalues --    0.16596   0.16778   0.17005   0.17290   0.17431
 Alpha virt. eigenvalues --    0.17707   0.17763   0.17958   0.18250   0.18589
 Alpha virt. eigenvalues --    0.18709   0.18936   0.19431   0.19520   0.19666
 Alpha virt. eigenvalues --    0.20081   0.20198   0.20396   0.20813   0.20900
 Alpha virt. eigenvalues --    0.21341   0.21582   0.21742   0.21906   0.22135
 Alpha virt. eigenvalues --    0.22221   0.22655   0.22750   0.22953   0.23062
 Alpha virt. eigenvalues --    0.23363   0.23592   0.23843   0.24218   0.24315
 Alpha virt. eigenvalues --    0.24650   0.24755   0.24925   0.25291   0.25898
 Alpha virt. eigenvalues --    0.26005   0.26135   0.26418   0.26614   0.26751
 Alpha virt. eigenvalues --    0.27188   0.27465   0.27633   0.27677   0.27761
 Alpha virt. eigenvalues --    0.28105   0.28388   0.28589   0.29054   0.29104
 Alpha virt. eigenvalues --    0.29376   0.29719   0.29924   0.30106   0.30227
 Alpha virt. eigenvalues --    0.30246   0.30854   0.31001   0.31308   0.31499
 Alpha virt. eigenvalues --    0.31593   0.31953   0.32113   0.32168   0.32272
 Alpha virt. eigenvalues --    0.32514   0.32915   0.33339   0.33417   0.33548
 Alpha virt. eigenvalues --    0.33928   0.34089   0.34182   0.34393   0.34504
 Alpha virt. eigenvalues --    0.34887   0.35116   0.35455   0.35580   0.35667
 Alpha virt. eigenvalues --    0.36055   0.36281   0.36316   0.36765   0.36859
 Alpha virt. eigenvalues --    0.36949   0.37149   0.37292   0.37411   0.37759
 Alpha virt. eigenvalues --    0.37827   0.38090   0.38219   0.38474   0.38581
 Alpha virt. eigenvalues --    0.38811   0.38917   0.39113   0.39302   0.39539
 Alpha virt. eigenvalues --    0.39632   0.39792   0.40084   0.40303   0.40496
 Alpha virt. eigenvalues --    0.40677   0.40760   0.41043   0.41285   0.41354
 Alpha virt. eigenvalues --    0.41655   0.41854   0.41889   0.42073   0.42275
 Alpha virt. eigenvalues --    0.42448   0.42915   0.43066   0.43083   0.43440
 Alpha virt. eigenvalues --    0.43552   0.43649   0.43962   0.44088   0.44205
 Alpha virt. eigenvalues --    0.44433   0.44859   0.45083   0.45200   0.45253
 Alpha virt. eigenvalues --    0.45504   0.45901   0.46085   0.46290   0.46510
 Alpha virt. eigenvalues --    0.46800   0.46944   0.47251   0.47394   0.47531
 Alpha virt. eigenvalues --    0.47775   0.47939   0.48164   0.48310   0.48698
 Alpha virt. eigenvalues --    0.48900   0.49338   0.49418   0.49533   0.49905
 Alpha virt. eigenvalues --    0.50151   0.50448   0.50579   0.50801   0.51026
 Alpha virt. eigenvalues --    0.51278   0.51724   0.51820   0.51996   0.52385
 Alpha virt. eigenvalues --    0.52642   0.52729   0.53011   0.53240   0.53437
 Alpha virt. eigenvalues --    0.53723   0.54302   0.54414   0.54548   0.54663
 Alpha virt. eigenvalues --    0.55082   0.55265   0.55822   0.55857   0.55966
 Alpha virt. eigenvalues --    0.56067   0.56179   0.56724   0.57037   0.57156
 Alpha virt. eigenvalues --    0.57485   0.57647   0.57934   0.57965   0.58643
 Alpha virt. eigenvalues --    0.58832   0.59058   0.59340   0.59480   0.59758
 Alpha virt. eigenvalues --    0.59985   0.60128   0.60868   0.60990   0.61289
 Alpha virt. eigenvalues --    0.61366   0.61647   0.61836   0.61998   0.62359
 Alpha virt. eigenvalues --    0.62603   0.63016   0.63272   0.63382   0.63573
 Alpha virt. eigenvalues --    0.63915   0.64194   0.64654   0.64807   0.65182
 Alpha virt. eigenvalues --    0.65669   0.65697   0.66186   0.66567   0.67043
 Alpha virt. eigenvalues --    0.67264   0.67349   0.67597   0.67970   0.68153
 Alpha virt. eigenvalues --    0.68437   0.68789   0.69398   0.69648   0.69916
 Alpha virt. eigenvalues --    0.70070   0.70686   0.70733   0.71018   0.71148
 Alpha virt. eigenvalues --    0.71581   0.71967   0.72068   0.72729   0.72763
 Alpha virt. eigenvalues --    0.73362   0.73579   0.73673   0.73819   0.74460
 Alpha virt. eigenvalues --    0.74818   0.75174   0.75251   0.75666   0.75883
 Alpha virt. eigenvalues --    0.76152   0.76444   0.76694   0.77193   0.77531
 Alpha virt. eigenvalues --    0.78223   0.78427   0.78622   0.78748   0.79075
 Alpha virt. eigenvalues --    0.79370   0.79818   0.79979   0.80289   0.80436
 Alpha virt. eigenvalues --    0.81012   0.81458   0.81643   0.82175   0.82584
 Alpha virt. eigenvalues --    0.83041   0.83352   0.83653   0.83771   0.84062
 Alpha virt. eigenvalues --    0.84512   0.84711   0.85027   0.85203   0.85580
 Alpha virt. eigenvalues --    0.85974   0.86184   0.86490   0.86526   0.86837
 Alpha virt. eigenvalues --    0.87323   0.87522   0.87613   0.87967   0.88248
 Alpha virt. eigenvalues --    0.88512   0.88729   0.89133   0.89189   0.89398
 Alpha virt. eigenvalues --    0.89734   0.90111   0.90265   0.90468   0.90708
 Alpha virt. eigenvalues --    0.90771   0.91198   0.91743   0.92109   0.92275
 Alpha virt. eigenvalues --    0.92827   0.92990   0.93226   0.93488   0.94232
 Alpha virt. eigenvalues --    0.94623   0.94764   0.95073   0.95149   0.96250
 Alpha virt. eigenvalues --    0.96337   0.96644   0.96765   0.97405   0.97485
 Alpha virt. eigenvalues --    0.97660   0.98005   0.98327   0.98597   0.98782
 Alpha virt. eigenvalues --    0.99469   0.99736   0.99995   1.00141   1.00364
 Alpha virt. eigenvalues --    1.01065   1.01402   1.01819   1.01960   1.02187
 Alpha virt. eigenvalues --    1.02979   1.03174   1.03437   1.04157   1.04477
 Alpha virt. eigenvalues --    1.04568   1.05098   1.05290   1.05873   1.06053
 Alpha virt. eigenvalues --    1.06455   1.06779   1.06928   1.07196   1.07823
 Alpha virt. eigenvalues --    1.08457   1.08537   1.08781   1.09385   1.09620
 Alpha virt. eigenvalues --    1.09970   1.10541   1.10798   1.11216   1.11491
 Alpha virt. eigenvalues --    1.12352   1.12762   1.13009   1.13403   1.13631
 Alpha virt. eigenvalues --    1.14151   1.14723   1.14936   1.15169   1.15499
 Alpha virt. eigenvalues --    1.15831   1.16344   1.16627   1.16864   1.17533
 Alpha virt. eigenvalues --    1.17585   1.17781   1.18494   1.18748   1.19361
 Alpha virt. eigenvalues --    1.19998   1.20192   1.20464   1.20687   1.20854
 Alpha virt. eigenvalues --    1.21443   1.21579   1.22626   1.22843   1.22933
 Alpha virt. eigenvalues --    1.23688   1.23763   1.24643   1.24721   1.24954
 Alpha virt. eigenvalues --    1.25365   1.26294   1.26550   1.26812   1.27022
 Alpha virt. eigenvalues --    1.27560   1.27934   1.28245   1.28387   1.29247
 Alpha virt. eigenvalues --    1.29923   1.30356   1.30621   1.30974   1.31461
 Alpha virt. eigenvalues --    1.31565   1.31802   1.31994   1.32596   1.33331
 Alpha virt. eigenvalues --    1.33682   1.34006   1.34281   1.34831   1.34986
 Alpha virt. eigenvalues --    1.35708   1.35866   1.35956   1.36316   1.36935
 Alpha virt. eigenvalues --    1.37042   1.37529   1.37726   1.37972   1.38538
 Alpha virt. eigenvalues --    1.38726   1.39384   1.39532   1.39779   1.40001
 Alpha virt. eigenvalues --    1.40233   1.40905   1.41427   1.41587   1.41910
 Alpha virt. eigenvalues --    1.42123   1.42586   1.42835   1.42960   1.43091
 Alpha virt. eigenvalues --    1.43560   1.43874   1.44106   1.44559   1.44821
 Alpha virt. eigenvalues --    1.45063   1.45510   1.45928   1.46463   1.46553
 Alpha virt. eigenvalues --    1.46923   1.47044   1.47459   1.47541   1.47862
 Alpha virt. eigenvalues --    1.47938   1.48187   1.48540   1.48828   1.48928
 Alpha virt. eigenvalues --    1.49193   1.49429   1.49728   1.49980   1.50141
 Alpha virt. eigenvalues --    1.50355   1.50596   1.50769   1.51058   1.51411
 Alpha virt. eigenvalues --    1.51560   1.51738   1.51842   1.52208   1.52473
 Alpha virt. eigenvalues --    1.52795   1.52862   1.53336   1.53676   1.53739
 Alpha virt. eigenvalues --    1.54041   1.54547   1.54782   1.55280   1.55748
 Alpha virt. eigenvalues --    1.55910   1.56317   1.56860   1.57078   1.57277
 Alpha virt. eigenvalues --    1.57488   1.57748   1.57907   1.58396   1.58617
 Alpha virt. eigenvalues --    1.58835   1.59406   1.59546   1.60034   1.60394
 Alpha virt. eigenvalues --    1.60717   1.61231   1.61377   1.61609   1.62232
 Alpha virt. eigenvalues --    1.62498   1.62656   1.62836   1.63250   1.63684
 Alpha virt. eigenvalues --    1.63972   1.64254   1.64610   1.65074   1.65285
 Alpha virt. eigenvalues --    1.65691   1.65878   1.66050   1.66907   1.67414
 Alpha virt. eigenvalues --    1.67573   1.67756   1.68544   1.68625   1.68901
 Alpha virt. eigenvalues --    1.69218   1.69944   1.70345   1.70555   1.71132
 Alpha virt. eigenvalues --    1.71374   1.71636   1.71759   1.72489   1.73145
 Alpha virt. eigenvalues --    1.73320   1.73543   1.74129   1.74351   1.74826
 Alpha virt. eigenvalues --    1.75021   1.76274   1.76638   1.77076   1.77269
 Alpha virt. eigenvalues --    1.77483   1.77854   1.78030   1.78790   1.79175
 Alpha virt. eigenvalues --    1.79513   1.79816   1.80085   1.80552   1.80769
 Alpha virt. eigenvalues --    1.80857   1.81327   1.81603   1.82324   1.82435
 Alpha virt. eigenvalues --    1.82944   1.83398   1.83628   1.83925   1.84387
 Alpha virt. eigenvalues --    1.84952   1.85342   1.85824   1.86084   1.86272
 Alpha virt. eigenvalues --    1.86707   1.86862   1.87230   1.87437   1.87817
 Alpha virt. eigenvalues --    1.88292   1.88803   1.89213   1.89322   1.89566
 Alpha virt. eigenvalues --    1.90588   1.90594   1.90788   1.91181   1.91531
 Alpha virt. eigenvalues --    1.91785   1.91979   1.92731   1.93163   1.93595
 Alpha virt. eigenvalues --    1.93807   1.94296   1.94743   1.95183   1.95436
 Alpha virt. eigenvalues --    1.96074   1.96612   1.96903   1.97274   1.97669
 Alpha virt. eigenvalues --    1.97964   1.98436   1.98497   1.99033   1.99421
 Alpha virt. eigenvalues --    2.00037   2.00481   2.00973   2.01297   2.01542
 Alpha virt. eigenvalues --    2.01760   2.01985   2.02378   2.02711   2.03058
 Alpha virt. eigenvalues --    2.03913   2.04222   2.04364   2.04771   2.05282
 Alpha virt. eigenvalues --    2.05628   2.06089   2.06309   2.06633   2.06843
 Alpha virt. eigenvalues --    2.07331   2.07672   2.07847   2.07980   2.08543
 Alpha virt. eigenvalues --    2.08887   2.09383   2.09569   2.09868   2.09982
 Alpha virt. eigenvalues --    2.10664   2.11472   2.11745   2.12013   2.12409
 Alpha virt. eigenvalues --    2.12653   2.13114   2.13654   2.14229   2.14828
 Alpha virt. eigenvalues --    2.15020   2.15924   2.16222   2.16776   2.17087
 Alpha virt. eigenvalues --    2.17170   2.17840   2.18165   2.18252   2.19131
 Alpha virt. eigenvalues --    2.19356   2.19514   2.19978   2.20035   2.20389
 Alpha virt. eigenvalues --    2.21109   2.21287   2.21860   2.22262   2.22445
 Alpha virt. eigenvalues --    2.22754   2.23022   2.23213   2.23633   2.24466
 Alpha virt. eigenvalues --    2.24714   2.25241   2.25545   2.25788   2.26451
 Alpha virt. eigenvalues --    2.27017   2.27287   2.27933   2.28118   2.28545
 Alpha virt. eigenvalues --    2.28667   2.29005   2.29513   2.29629   2.30164
 Alpha virt. eigenvalues --    2.30532   2.30935   2.31302   2.31900   2.31965
 Alpha virt. eigenvalues --    2.32352   2.32796   2.33485   2.33751   2.34029
 Alpha virt. eigenvalues --    2.34059   2.34333   2.35161   2.35296   2.35951
 Alpha virt. eigenvalues --    2.36406   2.36661   2.37218   2.37580   2.37892
 Alpha virt. eigenvalues --    2.38706   2.39284   2.39516   2.40068   2.40384
 Alpha virt. eigenvalues --    2.41006   2.41203   2.41502   2.42210   2.42486
 Alpha virt. eigenvalues --    2.43089   2.43328   2.43538   2.44261   2.44285
 Alpha virt. eigenvalues --    2.44542   2.45711   2.45890   2.46293   2.46523
 Alpha virt. eigenvalues --    2.47043   2.47570   2.47853   2.48018   2.48362
 Alpha virt. eigenvalues --    2.48776   2.48887   2.49269   2.49361   2.49597
 Alpha virt. eigenvalues --    2.49727   2.50192   2.50436   2.50673   2.51252
 Alpha virt. eigenvalues --    2.51558   2.51730   2.52256   2.52534   2.52851
 Alpha virt. eigenvalues --    2.53353   2.53693   2.53886   2.54111   2.54392
 Alpha virt. eigenvalues --    2.54689   2.55236   2.55486   2.55711   2.55902
 Alpha virt. eigenvalues --    2.56474   2.56817   2.57044   2.57617   2.57701
 Alpha virt. eigenvalues --    2.57796   2.58560   2.58633   2.58788   2.59443
 Alpha virt. eigenvalues --    2.59907   2.60052   2.60532   2.60860   2.61157
 Alpha virt. eigenvalues --    2.61629   2.61943   2.62107   2.62441   2.62907
 Alpha virt. eigenvalues --    2.63183   2.63537   2.63787   2.63962   2.64445
 Alpha virt. eigenvalues --    2.64657   2.64995   2.65231   2.65659   2.65794
 Alpha virt. eigenvalues --    2.66756   2.66893   2.67306   2.67560   2.67896
 Alpha virt. eigenvalues --    2.68014   2.68537   2.69165   2.69319   2.69673
 Alpha virt. eigenvalues --    2.70021   2.70390   2.70892   2.71241   2.71596
 Alpha virt. eigenvalues --    2.72061   2.72252   2.72734   2.73018   2.73527
 Alpha virt. eigenvalues --    2.73712   2.74141   2.74243   2.74501   2.74931
 Alpha virt. eigenvalues --    2.75111   2.75549   2.75902   2.76418   2.76650
 Alpha virt. eigenvalues --    2.76878   2.77207   2.77879   2.78213   2.78412
 Alpha virt. eigenvalues --    2.78818   2.79236   2.79688   2.79824   2.80080
 Alpha virt. eigenvalues --    2.80795   2.80863   2.81144   2.81292   2.81562
 Alpha virt. eigenvalues --    2.82037   2.82324   2.83039   2.83317   2.83505
 Alpha virt. eigenvalues --    2.84119   2.84215   2.84662   2.84859   2.85239
 Alpha virt. eigenvalues --    2.85464   2.86044   2.86428   2.86700   2.87343
 Alpha virt. eigenvalues --    2.87412   2.87549   2.87765   2.88142   2.88523
 Alpha virt. eigenvalues --    2.88719   2.88903   2.89294   2.89806   2.89845
 Alpha virt. eigenvalues --    2.90767   2.91010   2.91271   2.91897   2.92208
 Alpha virt. eigenvalues --    2.92568   2.92899   2.93199   2.93652   2.94095
 Alpha virt. eigenvalues --    2.94402   2.94613   2.94812   2.95025   2.95330
 Alpha virt. eigenvalues --    2.95695   2.96155   2.96683   2.96898   2.97068
 Alpha virt. eigenvalues --    2.98006   2.98084   2.98622   2.98829   2.99030
 Alpha virt. eigenvalues --    2.99462   2.99619   3.00062   3.00102   3.00333
 Alpha virt. eigenvalues --    3.00746   3.00871   3.01194   3.01492   3.01710
 Alpha virt. eigenvalues --    3.02268   3.02391   3.02483   3.02696   3.02831
 Alpha virt. eigenvalues --    3.03115   3.03489   3.03637   3.04094   3.04262
 Alpha virt. eigenvalues --    3.04421   3.05049   3.05110   3.05522   3.06029
 Alpha virt. eigenvalues --    3.06192   3.06316   3.06959   3.07234   3.07282
 Alpha virt. eigenvalues --    3.07685   3.07856   3.08231   3.08394   3.08511
 Alpha virt. eigenvalues --    3.08878   3.09134   3.09543   3.09736   3.10135
 Alpha virt. eigenvalues --    3.10417   3.10716   3.11343   3.11661   3.11857
 Alpha virt. eigenvalues --    3.12047   3.12210   3.12348   3.12667   3.13024
 Alpha virt. eigenvalues --    3.13466   3.13714   3.14052   3.14412   3.14756
 Alpha virt. eigenvalues --    3.14849   3.14960   3.15237   3.15868   3.16185
 Alpha virt. eigenvalues --    3.16361   3.16505   3.16923   3.17278   3.17770
 Alpha virt. eigenvalues --    3.17817   3.18443   3.18667   3.18991   3.19070
 Alpha virt. eigenvalues --    3.19374   3.19495   3.19877   3.20126   3.20332
 Alpha virt. eigenvalues --    3.20578   3.20898   3.20995   3.21425   3.21832
 Alpha virt. eigenvalues --    3.21954   3.22310   3.22544   3.22752   3.22810
 Alpha virt. eigenvalues --    3.23117   3.23326   3.23566   3.23723   3.24258
 Alpha virt. eigenvalues --    3.24393   3.24831   3.25111   3.25211   3.25446
 Alpha virt. eigenvalues --    3.25660   3.26353   3.26535   3.26830   3.26922
 Alpha virt. eigenvalues --    3.27221   3.27493   3.27556   3.27835   3.27938
 Alpha virt. eigenvalues --    3.28258   3.28482   3.28731   3.28991   3.29217
 Alpha virt. eigenvalues --    3.29359   3.29653   3.30004   3.30414   3.30782
 Alpha virt. eigenvalues --    3.30888   3.31217   3.31323   3.31619   3.31702
 Alpha virt. eigenvalues --    3.31902   3.32452   3.32603   3.32852   3.33669
 Alpha virt. eigenvalues --    3.34156   3.34417   3.34577   3.35118   3.35210
 Alpha virt. eigenvalues --    3.35741   3.35978   3.36104   3.36611   3.36899
 Alpha virt. eigenvalues --    3.37325   3.37669   3.37764   3.38353   3.38759
 Alpha virt. eigenvalues --    3.39168   3.39233   3.40058   3.40440   3.40693
 Alpha virt. eigenvalues --    3.41188   3.41376   3.41594   3.42018   3.42430
 Alpha virt. eigenvalues --    3.43013   3.43473   3.43992   3.44224   3.44553
 Alpha virt. eigenvalues --    3.44676   3.44991   3.45432   3.45517   3.46294
 Alpha virt. eigenvalues --    3.46677   3.46970   3.47430   3.47806   3.48220
 Alpha virt. eigenvalues --    3.48356   3.48737   3.48939   3.49543   3.49930
 Alpha virt. eigenvalues --    3.49970   3.50338   3.50629   3.51199   3.51499
 Alpha virt. eigenvalues --    3.52254   3.52564   3.52987   3.53239   3.53463
 Alpha virt. eigenvalues --    3.53937   3.54255   3.54802   3.55199   3.55739
 Alpha virt. eigenvalues --    3.56161   3.56568   3.56889   3.57145   3.57645
 Alpha virt. eigenvalues --    3.57771   3.57863   3.57924   3.59309   3.59449
 Alpha virt. eigenvalues --    3.60018   3.60180   3.60466   3.60973   3.61179
 Alpha virt. eigenvalues --    3.61416   3.61699   3.62441   3.62874   3.63018
 Alpha virt. eigenvalues --    3.63333   3.63722   3.63853   3.64139   3.64564
 Alpha virt. eigenvalues --    3.64977   3.65643   3.65804   3.65905   3.66023
 Alpha virt. eigenvalues --    3.66997   3.67427   3.67521   3.68246   3.68396
 Alpha virt. eigenvalues --    3.68976   3.69139   3.69450   3.70119   3.70472
 Alpha virt. eigenvalues --    3.70991   3.71349   3.71491   3.72292   3.72718
 Alpha virt. eigenvalues --    3.73509   3.74208   3.74273   3.74670   3.75332
 Alpha virt. eigenvalues --    3.75981   3.76205   3.76948   3.77457   3.77858
 Alpha virt. eigenvalues --    3.78240   3.78652   3.79309   3.80051   3.80585
 Alpha virt. eigenvalues --    3.80853   3.81305   3.81453   3.82424   3.82656
 Alpha virt. eigenvalues --    3.83383   3.83553   3.84057   3.84510   3.84862
 Alpha virt. eigenvalues --    3.85552   3.85917   3.86336   3.86870   3.87237
 Alpha virt. eigenvalues --    3.87805   3.88230   3.88912   3.89718   3.90003
 Alpha virt. eigenvalues --    3.90266   3.90483   3.90965   3.91280   3.91801
 Alpha virt. eigenvalues --    3.92068   3.92570   3.93332   3.94060   3.94318
 Alpha virt. eigenvalues --    3.94604   3.95114   3.95380   3.96136   3.96406
 Alpha virt. eigenvalues --    3.96972   3.97787   3.97977   3.98148   3.99588
 Alpha virt. eigenvalues --    3.99789   4.00088   4.00750   4.00873   4.01543
 Alpha virt. eigenvalues --    4.02477   4.02762   4.02914   4.03718   4.04314
 Alpha virt. eigenvalues --    4.04978   4.05165   4.05516   4.06297   4.06388
 Alpha virt. eigenvalues --    4.06997   4.08409   4.09449   4.09510   4.10063
 Alpha virt. eigenvalues --    4.10504   4.11195   4.11573   4.11973   4.12160
 Alpha virt. eigenvalues --    4.13052   4.13311   4.13622   4.14047   4.14823
 Alpha virt. eigenvalues --    4.14996   4.15320   4.15843   4.16818   4.17786
 Alpha virt. eigenvalues --    4.18459   4.19134   4.19420   4.19957   4.20208
 Alpha virt. eigenvalues --    4.20299   4.21568   4.22192   4.22368   4.23285
 Alpha virt. eigenvalues --    4.24210   4.24649   4.24922   4.25776   4.26567
 Alpha virt. eigenvalues --    4.27043   4.27731   4.28378   4.28563   4.29343
 Alpha virt. eigenvalues --    4.29736   4.30069   4.30423   4.30952   4.31589
 Alpha virt. eigenvalues --    4.31839   4.32834   4.32989   4.33345   4.33910
 Alpha virt. eigenvalues --    4.34208   4.34738   4.35401   4.36081   4.36764
 Alpha virt. eigenvalues --    4.37143   4.37882   4.39466   4.39761   4.40000
 Alpha virt. eigenvalues --    4.40189   4.41453   4.41650   4.42313   4.43422
 Alpha virt. eigenvalues --    4.44483   4.45253   4.45626   4.45954   4.46842
 Alpha virt. eigenvalues --    4.48537   4.48830   4.49917   4.50133   4.52233
 Alpha virt. eigenvalues --    4.52458   4.53564   4.54282   4.54398   4.55393
 Alpha virt. eigenvalues --    4.55902   4.56843   4.57405   4.57594   4.58719
 Alpha virt. eigenvalues --    4.59547   4.60289   4.60729   4.61707   4.62173
 Alpha virt. eigenvalues --    4.62499   4.62972   4.63370   4.64326   4.65371
 Alpha virt. eigenvalues --    4.66338   4.66583   4.67415   4.67984   4.68877
 Alpha virt. eigenvalues --    4.69363   4.70123   4.70633   4.70970   4.71298
 Alpha virt. eigenvalues --    4.72383   4.72808   4.73450   4.74465   4.75374
 Alpha virt. eigenvalues --    4.75850   4.77483   4.78115   4.78374   4.79465
 Alpha virt. eigenvalues --    4.80700   4.81171   4.82059   4.82831   4.83661
 Alpha virt. eigenvalues --    4.84394   4.84964   4.85836   4.86636   4.86947
 Alpha virt. eigenvalues --    4.87704   4.88352   4.88966   4.89208   4.90124
 Alpha virt. eigenvalues --    4.90991   4.91968   4.92629   4.93728   4.94540
 Alpha virt. eigenvalues --    4.95704   4.97382   4.97932   4.98637   4.98768
 Alpha virt. eigenvalues --    4.99026   5.00292   5.00631   5.01352   5.02636
 Alpha virt. eigenvalues --    5.02796   5.03833   5.03966   5.05536   5.06742
 Alpha virt. eigenvalues --    5.07651   5.08222   5.09636   5.10061   5.11341
 Alpha virt. eigenvalues --    5.11891   5.12523   5.12858   5.13582   5.14010
 Alpha virt. eigenvalues --    5.14237   5.15250   5.16194   5.16599   5.16645
 Alpha virt. eigenvalues --    5.17725   5.17940   5.19543   5.19921   5.20216
 Alpha virt. eigenvalues --    5.20730   5.21408   5.24111   5.27031   5.27796
 Alpha virt. eigenvalues --    5.28230   5.28921   5.29656   5.29881   5.30536
 Alpha virt. eigenvalues --    5.31618   5.32050   5.32885   5.34219   5.34433
 Alpha virt. eigenvalues --    5.35444   5.36563   5.37266   5.38376   5.39751
 Alpha virt. eigenvalues --    5.40986   5.42564   5.43287   5.43751   5.45236
 Alpha virt. eigenvalues --    5.46803   5.48545   5.48904   5.50706   5.51820
 Alpha virt. eigenvalues --    5.52510   5.52885   5.53733   5.54681   5.56017
 Alpha virt. eigenvalues --    5.57278   5.57765   5.58133   5.58795   5.60431
 Alpha virt. eigenvalues --    5.62271   5.64095   5.64703   5.65150   5.66140
 Alpha virt. eigenvalues --    5.66715   5.68456   5.70213   5.71735   5.73696
 Alpha virt. eigenvalues --    5.75667   5.76239   5.80435   5.81493   5.84159
 Alpha virt. eigenvalues --    5.84522   5.87771   5.89564   5.91333   5.91943
 Alpha virt. eigenvalues --    5.93106   5.95578   5.98538   5.98667   6.01611
 Alpha virt. eigenvalues --    6.02186   6.03318   6.03516   6.06203   6.07494
 Alpha virt. eigenvalues --    6.13486   6.14634   6.16051   6.16532   6.19734
 Alpha virt. eigenvalues --    6.27457   6.27533   6.29782   6.30211   6.32198
 Alpha virt. eigenvalues --    6.33363   6.33898   6.37852   6.39195   6.39817
 Alpha virt. eigenvalues --    6.41355   6.42031   6.42158   6.46631   6.47265
 Alpha virt. eigenvalues --    6.48775   6.57102   6.59787   6.60823   6.72009
 Alpha virt. eigenvalues --    6.74911   6.79333   6.81400   6.90475   6.92121
 Alpha virt. eigenvalues --    6.95862   6.97059   7.00478   7.00750   7.10381
 Alpha virt. eigenvalues --    7.10601   7.11604   7.11967   7.19844   7.30189
 Alpha virt. eigenvalues --   22.11891  22.20360  22.40191  22.42649  22.43869
 Alpha virt. eigenvalues --   22.44979  22.46811  22.53429  22.56037  22.60753
 Alpha virt. eigenvalues --   22.61050  22.62984  22.71092  22.78303  22.83636
 Alpha virt. eigenvalues --   22.84516  22.86679  22.87994  22.95983  22.96060
 Alpha virt. eigenvalues --   23.00633  23.04776  23.10041  23.22207  23.25462
 Alpha virt. eigenvalues --   23.28903  23.33111  23.38864  23.41232  23.42332
 Alpha virt. eigenvalues --   23.45894  23.51202  23.65987  23.68725  23.72194
 Alpha virt. eigenvalues --   23.81715  23.83403  23.93934  32.39775  32.67402
 Alpha virt. eigenvalues --   32.86099  32.87978  32.92574  33.04367  43.87716
 Alpha virt. eigenvalues --   43.90222  43.91792  43.95698  44.05726
  Beta  occ. eigenvalues -- -256.54014 -30.28223 -26.11626 -26.11495 -26.10567
  Beta  occ. eigenvalues --  -19.35596 -19.32999 -19.32770 -19.24765 -19.23682
  Beta  occ. eigenvalues --  -14.56240 -14.50207 -14.50164 -14.49608 -14.49361
  Beta  occ. eigenvalues --  -14.49079 -10.42173 -10.41418 -10.38818 -10.36887
  Beta  occ. eigenvalues --  -10.36530 -10.36402 -10.36166 -10.35924 -10.35883
  Beta  occ. eigenvalues --  -10.35815 -10.35778 -10.35624 -10.34126 -10.34101
  Beta  occ. eigenvalues --  -10.33760 -10.33748 -10.33649 -10.33603 -10.33541
  Beta  occ. eigenvalues --  -10.33517 -10.33286 -10.33266 -10.33214 -10.33165
  Beta  occ. eigenvalues --  -10.33107 -10.33000 -10.32793 -10.32764 -10.32575
  Beta  occ. eigenvalues --  -10.32554 -10.32045 -10.31517 -10.31454 -10.31118
  Beta  occ. eigenvalues --  -10.30996 -10.30868 -10.30834 -10.29689  -3.58780
  Beta  occ. eigenvalues --   -2.34784  -2.34512  -2.31133  -1.25640  -1.25570
  Beta  occ. eigenvalues --   -1.19975  -1.19531  -1.12760  -1.11963  -1.11351
  Beta  occ. eigenvalues --   -1.10684  -1.10528  -1.09850  -1.04181  -0.95487
  Beta  occ. eigenvalues --   -0.93922  -0.93824  -0.93504  -0.93227  -0.92682
  Beta  occ. eigenvalues --   -0.92657  -0.91389  -0.89620  -0.88661  -0.87425
  Beta  occ. eigenvalues --   -0.86623  -0.85370  -0.83885  -0.83100  -0.82765
  Beta  occ. eigenvalues --   -0.82011  -0.81538  -0.80783  -0.79410  -0.78551
  Beta  occ. eigenvalues --   -0.77669  -0.77470  -0.76912  -0.75444  -0.74146
  Beta  occ. eigenvalues --   -0.73960  -0.73130  -0.72617  -0.71984  -0.70414
  Beta  occ. eigenvalues --   -0.70329  -0.68129  -0.67921  -0.66692  -0.65615
  Beta  occ. eigenvalues --   -0.64636  -0.63888  -0.63778  -0.63498  -0.62121
  Beta  occ. eigenvalues --   -0.61530  -0.60253  -0.59985  -0.59784  -0.59647
  Beta  occ. eigenvalues --   -0.59437  -0.59339  -0.58358  -0.58004  -0.57469
  Beta  occ. eigenvalues --   -0.56995  -0.56653  -0.56115  -0.55712  -0.55634
  Beta  occ. eigenvalues --   -0.55304  -0.54867  -0.54783  -0.54491  -0.54256
  Beta  occ. eigenvalues --   -0.54085  -0.53581  -0.53465  -0.53134  -0.52920
  Beta  occ. eigenvalues --   -0.52689  -0.52551  -0.52188  -0.51998  -0.51847
  Beta  occ. eigenvalues --   -0.51755  -0.51552  -0.51249  -0.50945  -0.50835
  Beta  occ. eigenvalues --   -0.50573  -0.50025  -0.49682  -0.49219  -0.49153
  Beta  occ. eigenvalues --   -0.48825  -0.48691  -0.48483  -0.48183  -0.48032
  Beta  occ. eigenvalues --   -0.47953  -0.47914  -0.47319  -0.47167  -0.46933
  Beta  occ. eigenvalues --   -0.46245  -0.45950  -0.45629  -0.44538  -0.44179
  Beta  occ. eigenvalues --   -0.43824  -0.43634  -0.43449  -0.42647  -0.42471
  Beta  occ. eigenvalues --   -0.40572  -0.40443  -0.40259  -0.39417  -0.39213
  Beta  occ. eigenvalues --   -0.38337  -0.37669  -0.35930  -0.35644  -0.34628
  Beta  occ. eigenvalues --   -0.34343  -0.34257  -0.32312  -0.30590  -0.29892
  Beta virt. eigenvalues --   -0.21822  -0.20389  -0.19155  -0.17666  -0.17391
  Beta virt. eigenvalues --   -0.14957  -0.13779  -0.12797  -0.12459  -0.10139
  Beta virt. eigenvalues --   -0.08261  -0.08217  -0.07866  -0.06809  -0.06507
  Beta virt. eigenvalues --   -0.06373  -0.05718  -0.05042  -0.04687  -0.03941
  Beta virt. eigenvalues --   -0.03785  -0.03626  -0.02769  -0.02524  -0.01945
  Beta virt. eigenvalues --   -0.01645  -0.01419  -0.01218  -0.01034  -0.00804
  Beta virt. eigenvalues --   -0.00534  -0.00276  -0.00121   0.00389   0.00464
  Beta virt. eigenvalues --    0.00720   0.01600   0.01732   0.02126   0.02645
  Beta virt. eigenvalues --    0.02743   0.03182   0.03548   0.03650   0.03703
  Beta virt. eigenvalues --    0.03866   0.04266   0.04421   0.04596   0.04655
  Beta virt. eigenvalues --    0.05079   0.05155   0.05462   0.05493   0.05723
  Beta virt. eigenvalues --    0.05860   0.05939   0.06324   0.06469   0.06591
  Beta virt. eigenvalues --    0.06963   0.07259   0.07302   0.07551   0.07728
  Beta virt. eigenvalues --    0.08126   0.08350   0.08439   0.08703   0.09031
  Beta virt. eigenvalues --    0.09333   0.09367   0.09652   0.10022   0.10097
  Beta virt. eigenvalues --    0.10380   0.10574   0.10777   0.11261   0.11325
  Beta virt. eigenvalues --    0.11603   0.11784   0.11872   0.12175   0.12425
  Beta virt. eigenvalues --    0.12598   0.13018   0.13073   0.13394   0.13493
  Beta virt. eigenvalues --    0.13555   0.13626   0.14043   0.14138   0.14472
  Beta virt. eigenvalues --    0.14595   0.14921   0.14968   0.15233   0.15385
  Beta virt. eigenvalues --    0.15586   0.15803   0.16200   0.16375   0.16449
  Beta virt. eigenvalues --    0.16837   0.16936   0.17216   0.17450   0.17617
  Beta virt. eigenvalues --    0.18028   0.18245   0.18533   0.18714   0.18782
  Beta virt. eigenvalues --    0.18978   0.19145   0.19650   0.19824   0.20272
  Beta virt. eigenvalues --    0.20438   0.20618   0.20933   0.21139   0.21346
  Beta virt. eigenvalues --    0.21686   0.21921   0.21935   0.22116   0.22571
  Beta virt. eigenvalues --    0.22799   0.23041   0.23195   0.23258   0.23426
  Beta virt. eigenvalues --    0.23592   0.23907   0.24090   0.24585   0.24726
  Beta virt. eigenvalues --    0.24854   0.24978   0.25195   0.25597   0.26026
  Beta virt. eigenvalues --    0.26256   0.26460   0.26590   0.26935   0.27081
  Beta virt. eigenvalues --    0.27347   0.27824   0.27847   0.27928   0.28277
  Beta virt. eigenvalues --    0.28493   0.28618   0.28704   0.29227   0.29242
  Beta virt. eigenvalues --    0.29634   0.29921   0.30113   0.30328   0.30420
  Beta virt. eigenvalues --    0.30450   0.31091   0.31275   0.31593   0.31652
  Beta virt. eigenvalues --    0.31826   0.32132   0.32262   0.32306   0.32323
  Beta virt. eigenvalues --    0.32670   0.33073   0.33581   0.33666   0.33871
  Beta virt. eigenvalues --    0.34150   0.34240   0.34388   0.34523   0.34616
  Beta virt. eigenvalues --    0.35212   0.35449   0.35619   0.35776   0.35906
  Beta virt. eigenvalues --    0.36197   0.36374   0.36522   0.36888   0.36986
  Beta virt. eigenvalues --    0.37112   0.37254   0.37408   0.37584   0.37957
  Beta virt. eigenvalues --    0.37990   0.38219   0.38379   0.38682   0.38917
  Beta virt. eigenvalues --    0.39073   0.39219   0.39359   0.39551   0.39751
  Beta virt. eigenvalues --    0.39902   0.40165   0.40235   0.40574   0.40753
  Beta virt. eigenvalues --    0.40927   0.41004   0.41197   0.41519   0.41726
  Beta virt. eigenvalues --    0.41793   0.42088   0.42214   0.42241   0.42493
  Beta virt. eigenvalues --    0.42672   0.43130   0.43265   0.43485   0.43587
  Beta virt. eigenvalues --    0.43721   0.43897   0.44150   0.44308   0.44545
  Beta virt. eigenvalues --    0.44617   0.45053   0.45210   0.45314   0.45432
  Beta virt. eigenvalues --    0.45685   0.46027   0.46195   0.46490   0.46592
  Beta virt. eigenvalues --    0.47062   0.47226   0.47441   0.47550   0.47732
  Beta virt. eigenvalues --    0.47941   0.48051   0.48269   0.48445   0.48882
  Beta virt. eigenvalues --    0.49131   0.49491   0.49671   0.49750   0.50270
  Beta virt. eigenvalues --    0.50314   0.50517   0.50782   0.51008   0.51100
  Beta virt. eigenvalues --    0.51488   0.51843   0.51933   0.52225   0.52562
  Beta virt. eigenvalues --    0.52859   0.52943   0.53245   0.53403   0.53613
  Beta virt. eigenvalues --    0.53920   0.54434   0.54557   0.54691   0.54887
  Beta virt. eigenvalues --    0.55175   0.55470   0.55949   0.55983   0.56194
  Beta virt. eigenvalues --    0.56324   0.56335   0.56972   0.57136   0.57335
  Beta virt. eigenvalues --    0.57704   0.57767   0.58041   0.58173   0.58884
  Beta virt. eigenvalues --    0.59049   0.59200   0.59556   0.59629   0.60036
  Beta virt. eigenvalues --    0.60201   0.60311   0.61044   0.61187   0.61397
  Beta virt. eigenvalues --    0.61561   0.61857   0.62013   0.62221   0.62499
  Beta virt. eigenvalues --    0.62762   0.63188   0.63402   0.63518   0.63747
  Beta virt. eigenvalues --    0.64105   0.64352   0.64779   0.64888   0.65329
  Beta virt. eigenvalues --    0.65795   0.65836   0.66430   0.66854   0.67155
  Beta virt. eigenvalues --    0.67406   0.67491   0.67754   0.68139   0.68296
  Beta virt. eigenvalues --    0.68639   0.68918   0.69626   0.69866   0.70112
  Beta virt. eigenvalues --    0.70467   0.70785   0.71168   0.71274   0.71355
  Beta virt. eigenvalues --    0.71926   0.72178   0.72379   0.72970   0.73062
  Beta virt. eigenvalues --    0.73490   0.73742   0.73942   0.74079   0.74792
  Beta virt. eigenvalues --    0.74981   0.75336   0.75430   0.75917   0.76190
  Beta virt. eigenvalues --    0.76364   0.76663   0.76880   0.77351   0.78010
  Beta virt. eigenvalues --    0.78407   0.78593   0.78786   0.79083   0.79437
  Beta virt. eigenvalues --    0.79639   0.80157   0.80210   0.80476   0.80595
  Beta virt. eigenvalues --    0.81173   0.81576   0.81893   0.82565   0.82861
  Beta virt. eigenvalues --    0.83310   0.83681   0.83890   0.84119   0.84523
  Beta virt. eigenvalues --    0.84791   0.85094   0.85208   0.85530   0.86037
  Beta virt. eigenvalues --    0.86166   0.86458   0.86709   0.86725   0.87174
  Beta virt. eigenvalues --    0.87599   0.87694   0.87862   0.88201   0.88547
  Beta virt. eigenvalues --    0.88742   0.89091   0.89359   0.89484   0.89830
  Beta virt. eigenvalues --    0.90216   0.90431   0.90723   0.90858   0.91128
  Beta virt. eigenvalues --    0.91241   0.91498   0.91973   0.92566   0.92801
  Beta virt. eigenvalues --    0.93064   0.93270   0.93655   0.93815   0.94427
  Beta virt. eigenvalues --    0.94830   0.95072   0.95407   0.95561   0.96453
  Beta virt. eigenvalues --    0.96523   0.96886   0.97048   0.97619   0.97728
  Beta virt. eigenvalues --    0.97928   0.98377   0.98575   0.98814   0.99114
  Beta virt. eigenvalues --    1.00013   1.00226   1.00424   1.00674   1.00999
  Beta virt. eigenvalues --    1.01436   1.01755   1.02080   1.02393   1.03008
  Beta virt. eigenvalues --    1.03245   1.03605   1.03868   1.04398   1.04734
  Beta virt. eigenvalues --    1.04820   1.05409   1.05597   1.06144   1.06459
  Beta virt. eigenvalues --    1.06964   1.07079   1.07217   1.07522   1.08120
  Beta virt. eigenvalues --    1.08549   1.08826   1.09328   1.09658   1.09925
  Beta virt. eigenvalues --    1.10183   1.10771   1.11081   1.11464   1.11951
  Beta virt. eigenvalues --    1.12537   1.13034   1.13259   1.13731   1.13901
  Beta virt. eigenvalues --    1.14502   1.15030   1.15208   1.15458   1.15695
  Beta virt. eigenvalues --    1.16156   1.16687   1.17027   1.17175   1.17712
  Beta virt. eigenvalues --    1.17750   1.17974   1.18797   1.18841   1.19702
  Beta virt. eigenvalues --    1.20265   1.20402   1.20689   1.20994   1.21249
  Beta virt. eigenvalues --    1.21601   1.22125   1.22919   1.23043   1.23309
  Beta virt. eigenvalues --    1.23945   1.24085   1.24834   1.24996   1.25082
  Beta virt. eigenvalues --    1.25776   1.26502   1.26877   1.27116   1.27309
  Beta virt. eigenvalues --    1.27807   1.28099   1.28539   1.28654   1.29526
  Beta virt. eigenvalues --    1.30120   1.30606   1.30892   1.31122   1.31665
  Beta virt. eigenvalues --    1.31910   1.32063   1.32499   1.32986   1.33646
  Beta virt. eigenvalues --    1.34108   1.34321   1.34482   1.35014   1.35545
  Beta virt. eigenvalues --    1.36027   1.36245   1.36523   1.36895   1.37192
  Beta virt. eigenvalues --    1.37482   1.37747   1.37997   1.38222   1.38817
  Beta virt. eigenvalues --    1.38964   1.39710   1.39862   1.40006   1.40120
  Beta virt. eigenvalues --    1.40974   1.41093   1.41682   1.41756   1.42130
  Beta virt. eigenvalues --    1.42609   1.42779   1.42985   1.43139   1.43349
  Beta virt. eigenvalues --    1.43683   1.44178   1.44492   1.44794   1.45021
  Beta virt. eigenvalues --    1.45435   1.45885   1.46127   1.46592   1.46918
  Beta virt. eigenvalues --    1.47135   1.47568   1.47592   1.47772   1.47992
  Beta virt. eigenvalues --    1.48184   1.48580   1.48759   1.49005   1.49154
  Beta virt. eigenvalues --    1.49467   1.49525   1.49893   1.50155   1.50349
  Beta virt. eigenvalues --    1.50501   1.50839   1.51138   1.51338   1.51736
  Beta virt. eigenvalues --    1.51860   1.52015   1.52067   1.52537   1.52556
  Beta virt. eigenvalues --    1.53026   1.53066   1.53647   1.53882   1.54022
  Beta virt. eigenvalues --    1.54184   1.54626   1.55156   1.55514   1.55786
  Beta virt. eigenvalues --    1.56159   1.56425   1.57036   1.57436   1.57477
  Beta virt. eigenvalues --    1.57602   1.57978   1.58287   1.58554   1.58915
  Beta virt. eigenvalues --    1.59020   1.59481   1.59769   1.60213   1.60623
  Beta virt. eigenvalues --    1.60862   1.61345   1.61707   1.61896   1.62441
  Beta virt. eigenvalues --    1.62615   1.62823   1.63139   1.63425   1.63847
  Beta virt. eigenvalues --    1.64141   1.64575   1.64847   1.65252   1.65479
  Beta virt. eigenvalues --    1.65872   1.66083   1.66303   1.67035   1.67576
  Beta virt. eigenvalues --    1.67832   1.68365   1.68662   1.69054   1.69236
  Beta virt. eigenvalues --    1.69510   1.70170   1.70535   1.70696   1.71393
  Beta virt. eigenvalues --    1.71719   1.71963   1.72314   1.72659   1.73381
  Beta virt. eigenvalues --    1.73599   1.73757   1.74299   1.74593   1.75021
  Beta virt. eigenvalues --    1.75147   1.76497   1.76911   1.77255   1.77508
  Beta virt. eigenvalues --    1.77833   1.78070   1.78203   1.78980   1.79334
  Beta virt. eigenvalues --    1.79597   1.80105   1.80291   1.80785   1.80978
  Beta virt. eigenvalues --    1.81023   1.81531   1.81728   1.82531   1.82708
  Beta virt. eigenvalues --    1.83129   1.83552   1.83915   1.83974   1.84637
  Beta virt. eigenvalues --    1.85134   1.85528   1.85961   1.86183   1.86410
[...]
  1622. RY*(   5) H  75                  0.00001     3.17108   
  1623. RY*(   1) H  76                  0.00021     1.34871   
  1624. RY*(   2) H  76                  0.00009     1.87539   
  1625. RY*(   3) H  76                  0.00004     2.00346   
  1626. RY*(   4) H  76                  0.00001     2.80616   
  1627. RY*(   5) H  76                  0.00001     1.71055   
  1628. RY*(   1) H  77                  0.00046     0.94052   
  1629. RY*(   2) H  77                  0.00008     1.62935   
  1630. RY*(   3) H  77                  0.00003     2.10095   
  1631. RY*(   4) H  77                  0.00002     1.91122   
  1632. RY*(   5) H  77                  0.00000     2.84534   
  1633. RY*(   1) H  78                  0.00035     0.82561   
  1634. RY*(   2) H  78                  0.00009     1.78100   
  1635. RY*(   3) H  78                  0.00003     1.89890   
  1636. RY*(   4) H  78                  0.00003     2.08851   
  1637. RY*(   5) H  78                  0.00000     2.91137   
  1638. RY*(   1) H  79                  0.00051     1.01762   
  1639. RY*(   2) H  79                  0.00007     1.65950   
  1640. RY*(   3) H  79                  0.00006     2.10343   
  1641. RY*(   4) H  79                  0.00003     2.27217   
  1642. RY*(   5) H  79                  0.00001     2.84282   
  1643. RY*(   1) H  80                  0.00050     1.34008   
  1644. RY*(   2) H  80                  0.00006     1.83677   
  1645. RY*(   3) H  80                  0.00003     2.13829   
  1646. RY*(   4) H  80                  0.00003     1.83062   
  1647. RY*(   5) H  80                  0.00001     2.33079   
  1648. RY*(   1) H  81                  0.00037     1.37729   
  1649. RY*(   2) H  81                  0.00015     1.74199   
  1650. RY*(   3) H  81                  0.00008     1.88455   
  1651. RY*(   4) H  81                  0.00005     2.01371   
  1652. RY*(   5) H  81                  0.00001     2.99461   
  1653. RY*(   1) H  82                  0.00086     0.57628   
  1654. RY*(   2) H  82                  0.00013     2.07664   
  1655. RY*(   3) H  82                  0.00013     2.17089   
  1656. RY*(   4) H  82                  0.00005     3.01313   
  1657. RY*(   5) H  82                  0.00000     3.12684   
  1713. BD*(   1) C   7 - C  11          0.01172     0.43191   
  1714. BD*(   1) C   7 - C  38          0.01166     0.43360   
  1715. BD*(   2) C   7 - C  38          0.18847    -0.06994  1729(v),1785(v),1783(v)
                                                    1724(r),1163(g)
  1716. BD*(   1) C   7 - H  59          0.00570     0.33850   
  1717. BD*(   1) C   8 - C  14          0.01170     0.43320   
  1718. BD*(   1) C   8 - C  21          0.01165     0.42318   
  1719. BD*(   1) C   8 - H  68          0.00582     0.34603   
  1720. BD*(   1) C   9 - C  24          0.01133     0.44020   
  1721. BD*(   1) C   9 - C  28          0.01138     0.43443   
  1722. BD*(   1) C   9 - H  75          0.00668     0.34451   
  1723. BD*(   1) C  10 - C  31          0.01114     0.43380   
  1724. BD*(   2) C  10 - C  31          0.19556    -0.06927  1768(v),1783(v),1766(v)
                                                    1715(r),432(g),981(g)
                                                    1777(r),194(r)
  1725. BD*(   1) C  10 - C  35          0.01147     0.45352   
  1726. BD*(   1) C  10 - H  82          0.00600     0.34437   
  1727. BD*(   1) C  11 - C  12          0.01515     0.45967   
  1728. BD*(   1) C  11 - N  45          0.01463     0.44562   
  1729. BD*(   2) C  11 - N  45          0.32626    -0.10236  1715(v),1731(v),459(g)
                                                    190(r),1343(g),194(r)
                                                    1708(r),1345(g),1712(r)
                                                    193(r),192(r),188(r),1803(r)
                                                    189(r)
  1730. BD*(   1) C  12 - C  13          0.01155     0.45621   
  1731. BD*(   2) C  12 - C  13          0.14464    -0.04998  1729(v),1739(v),1736(v)
                                                    1737(v)
  1732. BD*(   1) C  12 - C  16          0.01141     0.29882   
  1733. BD*(   1) C  13 - C  14          0.01535     0.45744   
  1734. BD*(   1) C  13 - C  15          0.00773     0.27878   
  1735. BD*(   1) C  14 - N  45          0.01444     0.43996   
  1736. BD*(   1) C  15 - H  65          0.00392     0.31892   
  1737. BD*(   1) C  15 - H  66          0.00306     0.32087   
  1738. BD*(   1) C  15 - H  67          0.00221     0.32146   
  1739. BD*(   1) C  16 - C  17          0.00679     0.25902   
  1740. BD*(   1) C  16 - H  60          0.00661     0.33260   
  1741. BD*(   1) C  16 - H  61          0.00672     0.31258   
  1742. BD*(   1) C  17 - C  18          0.03655     0.27024   
  1743. BD*(   1) C  17 - H  62          0.00548     0.31407   
  1744. BD*(   1) C  17 - H  63          0.00629     0.31593   
  1745. BD*(   1) C  18 - O  19          0.01804     0.54135   
  1746. BD*(   2) C  18 - O  19          0.11421    -0.05543  1739(v),1748(v),1743(v)
                                                    641(g)
  1747. BD*(   1) C  18 - O  20          0.03350     0.49587   
  1748. BD*(   1) O  20 - H  64          0.00767     0.31267   
  1749. BD*(   1) C  21 - C  22          0.01452     0.45104   
  1750. BD*(   1) C  21 - N  46          0.01500     0.41455   
  1751. BD*(   2) C  21 - N  46          0.36537    -0.11809  174(v),167(v),176(v),194(r)
                                                    719(g),1369(g),380(v),178(r)
                                                    718(g),1371(g),190(r),189(r)
                                                    1708(r),1712(r),166(r)
                                                    188(r),1711(r)
  1752. BD*(   1) C  22 - C  23          0.01371     0.42964   
  1753. BD*(   1) C  22 - C  25          0.00730     0.26890   
  1754. BD*(   1) C  23 - C  24          0.01618     0.44696   
  1755. BD*(   1) C  23 - C  26          0.00971     0.44240   
  1756. BD*(   1) C  24 - N  46          0.01393     0.42898   
  1757. BD*(   1) C  25 - H  69          0.00251     0.31642   
  1758. BD*(   1) C  25 - H  70          0.00260     0.31765   
  1759. BD*(   1) C  25 - H  71          0.00244     0.32928   
  1760. BD*(   1) C  26 - C  27          0.00296     0.28205   
  1761. BD*(   1) C  26 - H  72          0.00490     0.34071   
  1762. BD*(   1) C  27 - H  73          0.00107     0.33665   
  1763. BD*(   1) C  27 - H  74          0.00129     0.34312   
  1764. BD*(   1) C  28 - C  29          0.01377     0.45314   
  1765. BD*(   1) C  28 - N  47          0.01426     0.42017   
  1766. BD*(   2) C  28 - N  47          0.33030    -0.10063  1768(v),1724(v),190(r)
                                                    901(g),1395(g),900(g)
                                                    1783(r),406(v),193(r),194(r)
                                                    1708(r),1712(r),189(r)
  1767. BD*(   1) C  29 - C  30          0.01443     0.43617   
  1768. BD*(   2) C  29 - C  30          0.17297    -0.05358  1724(v),1777(v),1766(v)
                                                    1774(v),1775(v),953(g)
  1769. BD*(   1) C  29 - C  32          0.00721     0.26918   
  1770. BD*(   1) C  30 - C  31          0.01592     0.45520   
  1771. BD*(   1) C  30 - C  33          0.01171     0.44183   
  1772. BD*(   1) C  31 - N  47          0.01321     0.42850   
  1773. BD*(   1) C  32 - H  76          0.00323     0.32737   
  1774. BD*(   1) C  32 - H  77          0.00414     0.32141   
  1775. BD*(   1) C  32 - H  78          0.00366     0.32170   
  1776. BD*(   1) C  33 - C  34          0.00351     0.38581   
  1777. BD*(   2) C  33 - C  34          0.05443    -0.08495   
  1778. BD*(   1) C  33 - H  81          0.00896     0.35482   
  1779. BD*(   1) C  34 - H  79          0.00348     0.36522   
  1780. BD*(   1) C  34 - H  80          0.00263     0.34736   
  1781. BD*(   1) C  35 - C  36          0.01542     0.45139   
  1782. BD*(   1) C  35 - N  48          0.01438     0.42373   
  1783. BD*(   2) C  35 - N  48          0.31547    -0.10072  1724(v),1785(v),1715(v)
                                                    1083(g),1421(g),193(r)
                                                    1766(r),432(v),189(r)
                                                    1712(r),188(r),194(r)
                                                    1709(r),190(r),1710(r)
  1784. BD*(   1) C  36 - C  37          0.01087     0.45669   
  1785. BD*(   2) C  36 - C  37          0.12840    -0.04781  1715(v),1783(v),1793(v)
                                                    1790(v),1791(v)
  1786. BD*(   1) C  36 - C  39          0.00799     0.27771   
  1787. BD*(   1) C  37 - C  38          0.01543     0.44285   
  1788. BD*(   1) C  37 - C  40          0.01109     0.27447   
  1789. BD*(   1) C  38 - N  48          0.01367     0.43132   
  1790. BD*(   1) C  39 - H  56          0.00419     0.31581   
  1791. BD*(   1) C  39 - H  57          0.00318     0.31698   
  1792. BD*(   1) C  39 - H  58          0.00228     0.32095   
  1793. BD*(   1) C  40 - C  41          0.00881     0.25349   
  1794. BD*(   1) C  40 - H  54          0.00684     0.30743   
  1795. BD*(   1) C  40 - H  55          0.00604     0.31854   
  1796. BD*(   1) C  41 - C  42          0.04431     0.25733   
  1797. BD*(   1) C  41 - H  52          0.00530     0.31032   
  1798. BD*(   1) C  41 - H  53          0.00514     0.31143   
  1799. BD*(   1) C  42 - O  43          0.03096     0.46916   
  1800. BD*(   2) C  42 - O  43          0.08000     0.00017   
  1801. BD*(   1) C  42 - O  44          0.03474     0.47570   
  1802. BD*(   1) O  44 - H  51          0.00830     0.29074   
       -------------------------------
              Total Lewis  142.53780  ( 96.8965%)
        Valence non-Lewis    4.26752  (  2.9010%)
        Rydberg non-Lewis    0.29777  (  0.2024%)
       -------------------------------
            Total unit  2  147.10309  (100.0000%)
           Charge unit  2    0.89691

 Molecular unit  3  (H2O)
   106. BD (   1) O  50 - H  89          0.95911    -0.93340  193(r),194(r),192(r),1712(r)
                                                    191(r),1803(g),1696(v)
                                                    1446(r),1447(r),190(r)
                                                    328(r),1451(r),1344(r)
                                                    1368(r),330(r),1448(r)
                                                    1342(r),1395(r),189(r)
                                                    1421(r),1369(r),1449(r)
                                                    1756(r),1397(r),1728(r)
                                                    1463(r),1396(r),1341(r)
                                                    1729(r)
   107. BD (   1) O  50 - H  90          0.99658    -0.93049  193(r),194(r),191(r),1447(r)
                                                    189(r),1712(r),192(r),190(r)
                                                    1446(r),1372(r),1397(r)
                                                    1451(r),330(r),329(r)
                                                    1369(r),1448(r)
   165. CR (   1) O  50                  0.99991   -19.13457  193(r),194(r),1712(r),189(r)
                                                    190(r),192(r),191(r),1449(r)
   195. LP (   1) O  50                  0.96877    -0.54629  194(r),193(r),190(r),192(r)
                                                    1693(v),191(r),1712(r)
                                                    1343(r),329(r),189(r)
                                                    1448(r),1341(r),330(r)
                                                    1421(r),1419(r),1394(r)
   196. LP (   2) O  50                  0.90721    -0.63925  193(r),194(r),190(r),1803(g)
                                                    191(r),1712(r),192(r)
                                                    1694(v),1475(g),1690(v)
                                                    1804(g),1446(r),1420(r)
                                                    1369(r),1451(r),1343(r)
                                                    1395(r),189(r),1368(r)
                                                    1370(r),1344(r),1422(r)
                                                    1450(r),1394(r),1372(r)
                                                    328(r),1347(r),330(r)
                                                    1349(r),309(r),1452(r)
                                                    1342(r),1765(r),1782(r)
                                                    1772(r),1453(r),353(r)
  1472. RY*(   1) O  50                  0.00059     1.46844   
  1473. RY*(   2) O  50                  0.00045     0.61325   
  1474. RY*(   3) O  50                  0.00020     0.70005   
  1475. RY*(   4) O  50                  0.00015     1.02253   
  1476. RY*(   5) O  50                  0.00001     5.30881   
  1477. RY*(   6) O  50                  0.00002     3.42483   
  1478. RY*(   7) O  50                  0.00002     2.07170   
  1479. RY*(   8) O  50                  0.00002     2.25153   
  1480. RY*(   9) O  50                  0.00000    42.13647   
  1481. RY*(  10) O  50                  0.00001     3.11038   
  1482. RY*(  11) O  50                  0.00000     6.25018   
  1483. RY*(  12) O  50                  0.00000     2.79855   
  1484. RY*(  13) O  50                  0.00000     6.45315   
  1485. RY*(  14) O  50                  0.00001     2.28709   
  1486. RY*(  15) O  50                  0.00000     6.41963   
  1487. RY*(  16) O  50                  0.00001     2.15378   
  1488. RY*(  17) O  50                  0.00000     6.26776   
  1489. RY*(  18) O  50                  0.00001     2.33945   
  1490. RY*(  19) O  50                  0.00000     6.30267   
  1491. RY*(  20) O  50                  0.00000     5.22997   
  1492. RY*(  21) O  50                  0.00000     5.49358   
  1493. RY*(  22) O  50                  0.00000     5.18572   
  1494. RY*(  23) O  50                  0.00000     5.53119   
  1495. RY*(  24) O  50                  0.00000     5.12160   
  1496. RY*(  25) O  50                  0.00000     5.16962   
  1497. RY*(  26) O  50                  0.00000     5.22678   
  1688. RY*(   1) H  89                  0.00076     1.62528   
  1689. RY*(   2) H  89                  0.00041     2.36811   
  1690. RY*(   3) H  89                  0.00030     1.81777   
  1691. RY*(   4) H  89                  0.00011     1.93384   
  1692. RY*(   5) H  89                  0.00003     2.80407   
  1693. RY*(   1) H  90                  0.00048     1.55778   
  1694. RY*(   2) H  90                  0.00034     1.94441   
  1695. RY*(   3) H  90                  0.00025     1.58147   
  1696. RY*(   4) H  90                  0.00009     1.46588   
  1697. RY*(   5) H  90                  0.00000     2.80325   
  1803. BD*(   1) O  50 - H  89          0.00864     0.31143   
  1804. BD*(   1) O  50 - H  90          0.00174     0.31647   
       -------------------------------
              Total Lewis    4.83158  ( 99.6980%)
        Valence non-Lewis    0.01037  (  0.2141%)
        Rydberg non-Lewis    0.00426  (  0.0879%)
       -------------------------------
            Total unit  3    4.84622  (100.0000%)
           Charge unit  3    0.15378
 1\1\GINC-NODE666\SP\UPBE1PBE\def2TZVP\C38H40Fe1N6O5(1+,6)\ZHARTOVSKA\3
 0-Sep-2022\0\\# PBE1PBE/def2TZVP empiricaldispersion=GD3BJ int=(grid=u
 ltrafine) geom=check pop=nbo\\1cmt_III_H\\1,6\C,0,30.84,90.204002,49.7
 49001\C,0,30.542999,91.193001,50.877998\N,0,31.306999,91.591003,51.887
 001\C,0,29.370001,91.917,51.015999\C,0,30.672001,92.508003,52.59\N,0,2
 9.489,92.708,52.060001\C,0,28.134001,95.913002,50.283001\C,0,30.540001
 ,95.952003,54.410999\C,0,28.478001,91.793999,55.631001\C,0,25.684999,9
 2.089996,51.740002\C,0,29.034,96.317001,51.285\C,0,29.743,97.504997,51
 .296001\C,0,30.465,97.518997,52.486\C,0,30.110001,96.348,53.132999\C,0
 ,31.452999,98.580002,52.966\C,0,29.697001,98.580002,50.227001\C,0,28.5
 97,99.632004,50.428001\C,0,28.593,100.586998,49.25\O,0,29.582001,101.2
 57004,48.993999\O,0,27.618999,100.681999,48.527\C,0,30.219,94.799004,5
 5.158001\C,0,30.846001,94.424004,56.337002\C,0,30.292999,93.161003,56.
 648998\C,0,29.325001,92.908997,55.681\C,0,31.92,95.263,57.049999\C,0,3
 0.625,92.235001,57.641998\C,0,31.93276086,92.3963347,58.43907577\C,0,2
 7.454,91.515999,54.708\C,0,26.549,90.473999,54.84\C,0,25.66,90.639999,
 53.757\C,0,26.166,91.692001,52.999001\C,0,26.506001,89.544998,56.063\C
 ,0,24.495001,89.952003,53.382\C,0,23.981001,88.694,53.902\C,0,26.15800
 1,93.103996,50.910999\C,0,25.753,93.323997,49.598999\C,0,26.488001,94.
 417,49.153\C,0,27.27,94.806,50.242001\C,0,24.73,92.525002,48.792999\C,
 0,26.434999,95.042,47.754002\C,0,25.483,96.251999,47.754002\C,0,25.34,
 97.045998,46.452999\O,0,24.723,98.103996,46.460999\O,0,25.805,96.62999
 7,45.401001\N,0,29.297001,95.619003,52.379002\N,0,29.298,93.898003,54.
 786999\N,0,27.197001,92.272003,53.626999\N,0,27.120001,93.967003,51.27
 1\Fe,0,28.238001,93.973999,53.014999\O,0,26.902,95.130997,53.977001\H,
 0,26.7564443,96.58297085,45.28207962\H,0,24.5105182,95.90099626,48.029
 63984\H,0,25.81634804,96.92839273,48.51312689\H,0,27.41594508,95.36226
 738,47.47102922\H,0,26.08345892,94.31389834,47.05315427\H,0,25.1401303
 5,91.56846514,48.54454308\H,0,23.842268,92.39207718,49.37537594\H,0,24
 .49119918,93.05493094,47.89463967\H,0,28.10238497,96.54507732,49.42022
 57\H,0,30.64313864,99.07939412,50.20880553\H,0,29.54407951,98.10782749
 ,49.27907366\H,0,28.78500604,100.17744006,51.32914096\H,0,27.6463051,9
 9.145835,50.49669528\H,0,27.73302371,100.80618101,47.58191948\H,0,32.3
 4993425,98.52074453,52.38557282\H,0,31.01755054,99.55065959,52.8515076
 8\H,0,31.68374239,98.41198289,53.997226\H,0,31.21477658,96.62926533,54
 .89151295\H,0,32.79444273,95.3193355,56.43593368\H,0,31.54365173,96.24
 904214,57.22601854\H,0,32.16904723,94.80428109,57.98405062\H,0,29.9705
 099,91.41404492,57.84833223\H,0,31.77428378,93.07525831,59.25077014\H,
 0,32.23564054,91.44494474,58.8238108\H,0,28.62990148,91.05901781,56.39
 364698\H,0,27.36932836,89.71621263,56.67148288\H,0,25.62271009,89.7457
 9184,56.6325428\H,0,26.49601923,88.5260155,55.73669487\H,0,24.67233277
 ,88.29310423,54.61350753\H,0,23.0376823,88.86353238,54.37771903\H,0,23
 .90909582,90.41252425,52.61418798\H,0,24.8443284,91.54147996,51.369457
 68\H,0,28.51212783,91.84486466,50.38058565\H,0,31.05905978,93.00808264
 ,53.45313722\H,0,32.22520133,91.2475732,52.08438502\H,0,31.7662679,89.
 70578751,49.9457498\H,0,30.05220129,89.4822925,49.69061789\H,0,30.9092
 346,90.73228238,48.82108591\H,0,27.75333133,95.57465788,53.977001\H,0,
 26.19993541,95.78575291,53.977001\\Version=ES64L-G16RevA.03\State=6-A\
 HF=-3438.3303575\S2=8.93683\S2-1=0.\S2A=8.75993\RMSD=4.501e-09\Dipole=
 2.5283197,-2.9829933,1.7363146\Quadrupole=-5.8677643,-17.5425673,23.41
 03316,-4.9615105,4.8044692,3.7663742\PG=C01 [X(C38H40Fe1N6O5)]\\@


 THE SCIENTIFIC THEORIST IS NOT TO BE ENVIED. FOR NATURE, OR MORE
 PRECISELY EXPERIMENT, IS AN INEXORABLE AND NOT VERY FRIENDLY JUDGE OF HIS
 WORK.  IT NEVER SAYS "YES" TO A THEORY. IN THE MOST FAVORABLE CASES
 IT SAYS "MAYBE", AND IN THE GREAT MAJORITY OF CASES SIMPLY "NO"...
 PROBABLY EVERY THEORY WILL SOME DAY EXPERIENCE ITS "NO" - MOST
 THEORIES, SOON AFTER CONCEPTION.  -- A.EINSTEIN, NOV 11, 1922.
 Job cpu time:       3 days 21 hours 48 minutes 13.7 seconds.
 Elapsed time:       0 days 23 hours 30 minutes 30.9 seconds.
 File lengths (MBytes):  RWF=   2989 Int=      0 D2E=      0 Chk=    250 Scr=      1
 Normal termination of Gaussian 16 at Fri Sep 30 11:38:13 2022.
