 Entering Gaussian System, Link 0=g16
 Input=/net/work/kleich/bench/splitthejobs/1ctj/1ctj12/1ctj16/1ctj16.com
 Output=/net/work/kleich/bench/splitthejobs/1ctj/1ctj12/1ctj16/1ctj16.log
 Initial command:
 /afs/math/software/gaussian/g16.A03/g16/l1.exe "/scratch/kleich_gaussian.AUGg7qv/Gau-23544.inp" -scrdir="/scratch/kleich_gaussian.AUGg7qv/"
 Entering Link 1 = /afs/math/software/gaussian/g16.A03/g16/l1.exe PID=     23545.
  
 Copyright (c) 1988,1990,1992,1993,1995,1998,2003,2009,2016,
            Gaussian, Inc.  All Rights Reserved.
  
 This is part of the Gaussian(R) 16 program.  It is based on
 the Gaussian(R) 09 system (copyright 2009, Gaussian, Inc.),
 the Gaussian(R) 03 system (copyright 2003, Gaussian, Inc.),
 the Gaussian(R) 98 system (copyright 1998, Gaussian, Inc.),
 the Gaussian(R) 94 system (copyright 1995, Gaussian, Inc.),
 the Gaussian 92(TM) system (copyright 1992, Gaussian, Inc.),
 the Gaussian 90(TM) system (copyright 1990, Gaussian, Inc.),
 the Gaussian 88(TM) system (copyright 1988, Gaussian, Inc.),
 the Gaussian 86(TM) system (copyright 1986, Carnegie Mellon
 University), and the Gaussian 82(TM) system (copyright 1983,
 Carnegie Mellon University). Gaussian is a federally registered
 trademark of Gaussian, Inc.
  
 This software contains proprietary and confidential information,
 including trade secrets, belonging to Gaussian, Inc.
  
 This software is provided under written license and may be
 used, copied, transmitted, or stored only in accord with that
 written license.
  
 The following legend is applicable only to US Government
 contracts under FAR:
  
                    RESTRICTED RIGHTS LEGEND
  
 Use, reproduction and disclosure by the US Government is
 subject to restrictions as set forth in subparagraphs (a)
 and (c) of the Commercial Computer Software - Restricted
 Rights clause in FAR 52.227-19.
  
 Gaussian, Inc.
 340 Quinnipiac St., Bldg. 40, Wallingford CT 06492
  
  
 ---------------------------------------------------------------
 Warning -- This program may not be used in any manner that
 competes with the business of Gaussian, Inc. or will provide
 assistance to any competitor of Gaussian, Inc.  The licensee
 of this program is prohibited from giving any competitor of
 Gaussian, Inc. access to this program.  By using this program,
 the user acknowledges that Gaussian, Inc. is engaged in the
 business of creating and licensing software in the field of
 computational chemistry and represents and warrants to the
 licensee that it is not a competitor of Gaussian, Inc. and that
 it will not use this program in any manner prohibited above.
 ---------------------------------------------------------------
  

 Cite this work as:
 Gaussian 16, Revision A.03,
 M. J. Frisch, G. W. Trucks, H. B. Schlegel, G. E. Scuseria, 
 M. A. Robb, J. R. Cheeseman, G. Scalmani, V. Barone, 
 G. A. Petersson, H. Nakatsuji, X. Li, M. Caricato, A. V. Marenich, 
 J. Bloino, B. G. Janesko, R. Gomperts, B. Mennucci, H. P. Hratchian, 
 J. V. Ortiz, A. F. Izmaylov, J. L. Sonnenberg, D. Williams-Young, 
 F. Ding, F. Lipparini, F. Egidi, J. Goings, B. Peng, A. Petrone, 
 T. Henderson, D. Ranasinghe, V. G. Zakrzewski, J. Gao, N. Rega, 
 G. Zheng, W. Liang, M. Hada, M. Ehara, K. Toyota, R. Fukuda, 
 J. Hasegawa, M. Ishida, T. Nakajima, Y. Honda, O. Kitao, H. Nakai, 
 T. Vreven, K. Throssell, J. A. Montgomery, Jr., J. E. Peralta, 
 F. Ogliaro, M. J. Bearpark, J. J. Heyd, E. N. Brothers, K. N. Kudin, 
 V. N. Staroverov, T. A. Keith, R. Kobayashi, J. Normand, 
 K. Raghavachari, A. P. Rendell, J. C. Burant, S. S. Iyengar, 
 J. Tomasi, M. Cossi, J. M. Millam, M. Klene, C. Adamo, R. Cammi, 
 J. W. Ochterski, R. L. Martin, K. Morokuma, O. Farkas, 
 J. B. Foresman, and D. J. Fox, Gaussian, Inc., Wallingford CT, 2016.
 
 ******************************************
 Gaussian 16:  ES64L-G16RevA.03 25-Dec-2016
                10-Sep-2022 
 ******************************************
 %nprocs=12
 Will use up to   12 processors via shared memory.
 %mem=16GB
 %oldchk=1ctj_III_D.chk
 %chk=1ctj_III_H.chk
 Copying data from "1ctj_III_D.chk" to current chk file "1ctj_III_H.chk"
 IOpt=  2 FromEx=T IUOpen= 4 IOptOp= 5 NList=   0 IFRang= 0 IUIn= 4 IUOut= 2.
 ----------------------------------------------------------------------
 # PBE1PBE/def2TZVP empiricaldispersion=GD3BJ int=(grid=ultrafine) geom
 =check pop=nbo
 ----------------------------------------------------------------------
 1/29=2,38=1,172=1/1;
 2/12=2,40=1/2;
 3/5=44,7=101,11=2,14=-4,25=1,30=1,74=-13,75=-5,124=41/1,2,3;
 4//1;
 5/5=2,38=5/2;
 6/7=2,8=2,9=2,10=2,28=1,40=1/1,7;
 99/5=1,9=1/99;
 ----------
 1ctj_III_H
 ----------
 Structure from the checkpoint file:  "1ctj_III_H.chk"
 Charge =  1 Multiplicity = 6
 Z-Matrix found in chk file.
 C,0,17.385,43.116,-18.171
 C,0,16.646,44.283,-17.629
 N,0,17.192,45.153,-16.726
 C,0,15.354,44.655,-17.762
 C,0,16.223,46.009,-16.352
 N,0,15.105,45.741,-16.934
 C,0,11.228,50.126,-17.291
 C,0,10.692,48.716,-17.503
 S,0,11.192,47.599,-16.165
 C,0,9.859,46.393,-16.206
 Fe,0,13.258,46.586,-16.683
 C,0,14.112,48.106,-13.777
 C,0,12.342,43.796,-14.983
 C,0,12.062,45.238,-19.575
 C,0,14.539,49.179,-18.442
 N,0,13.269,46.034,-14.737
 C,0,13.692,46.802,-13.682
 C,0,13.546,46.034,-12.457
 C,0,13.036,44.844,-12.789
 C,0,12.842,44.823,-14.225
 C,0,12.674,43.689,-11.857
 C,0,14.032,46.507,-11.078
 C,0,15.559,46.477,-10.964
 C,0,16.109,47.3,-9.807
 O,0,17.303,47.008,-9.454
 O,0,15.414,48.196,-9.329
 N,0,12.373,44.867,-17.193
 C,0,12.092,43.817,-16.329
 C,0,11.458,42.747,-17.065
 C,0,11.319,43.178,-18.339
 C,0,11.877,44.496,-18.421
 C,0,11.118,41.373,-16.491
 C,0,10.705,42.45,-19.528
 C,0,9.207,42.154,-19.34
 N,0,13.301,47.115,-18.61
 C,0,12.79,46.403,-19.667
 C,0,13.156,47.044,-20.932
 C,0,13.92,48.097,-20.624
 C,0,13.987,48.168,-19.179
 C,0,12.755,46.497,-22.32
 C,0,14.747,49.003,-21.545
 C,0,13.915,49.773,-22.585
 N,0,14.091,48.302,-16.212
 C,0,14.53,49.3,-17.081
 C,0,14.947,50.46,-16.332
 C,0,14.756,50.189,-15.024
 C,0,14.305,48.819,-14.945
 C,0,15.368,51.794,-16.965
 C,0,14.943,51.157,-13.855
 C,0,13.661,51.997,-13.611
 C,0,13.865,53.009,-12.515
 O,0,14.074,52.625,-11.351
 O,0,13.718,54.197,-12.862
 H,0,17.58804681,43.27348459,-19.20968696
 H,0,18.30719827,43.00025896,-17.6408544
 H,0,16.79265016,42.23272905,-18.05329656
 H,0,18.13828841,45.15312787,-16.40267629
 H,0,14.63681319,44.18698821,-18.40348892
 H,0,16.36341726,46.8114914,-15.65832101
 H,0,11.17812751,50.66872246,-18.21179589
 H,0,10.63763839,50.62444342,-16.55077887
 H,0,12.24474083,50.07527162,-16.9615084
 H,0,11.15969794,48.34762147,-18.39207587
 H,0,9.62580296,48.78911841,-17.45029742
 H,0,10.14001742,45.53129306,-15.63732579
 H,0,9.66920482,46.10545759,-17.21901389
 H,0,8.97452668,46.82457433,-15.78605888
 H,0,14.30862979,48.61907374,-12.85885401
 H,0,12.1244658,42.88294577,-14.46927745
 H,0,11.60078485,44.87594842,-20.47004148
 H,0,15.02955358,49.95714664,-18.9885757
 H,0,12.50518782,42.80417847,-12.43448879
 H,0,11.78600637,43.9346192,-11.31290579
 H,0,13.4772518,43.51921094,-11.1708089
 H,0,13.66546159,45.79258497,-10.37077955
 H,0,13.74644303,47.53500383,-10.99697323
 H,0,15.92701028,46.94302578,-11.85410584
 H,0,15.81523066,45.46108477,-10.74683164
 H,0,10.38304623,40.90038838,-17.1085607
 H,0,10.73146261,41.48628266,-15.49970999
 H,0,12.00130869,40.76979158,-16.46262126
 H,0,11.19095593,41.49786943,-19.57484249
 H,0,10.77138306,43.12579409,-20.35491937
 H,0,8.65935996,42.54257751,-20.17306536
 H,0,9.05758506,41.0963582,-19.277
 H,0,8.86221801,42.61720064,-18.4391834
 H,0,12.96412465,47.23339021,-23.0675937
 H,0,13.31379432,45.60859605,-22.52829625
 H,0,11.70933841,46.27014788,-22.32547351
 H,0,15.37919241,48.34722466,-22.10641914
 H,0,15.17851579,49.74753713,-20.90910804
 H,0,14.46884204,50.62228183,-22.92687624
 H,0,13.69776571,49.13176613,-23.41357008
 H,0,12.99971915,50.10050287,-22.13789505
 H,0,15.41269502,52.54938278,-16.2084954
 H,0,16.33125485,51.68553259,-17.41807274
 H,0,14.65343743,52.07672516,-17.70955814
 H,0,15.7043967,51.84720662,-14.15297631
 H,0,15.07973135,50.55369181,-12.98194573
 H,0,12.91693527,51.31477247,-13.25627012
 H,0,13.49117691,52.55481909,-14.50816106
 H,0,14.4869676,54.74865685,-13.02313209
 H,0,15.82900403,48.9597727,-8.9215409
 Recover connectivity data from disk.
 Stoichiometry    C41H50FeN6O4S(1+,6)
 Framework group  C1[X(C41H50FeN6O4S)]
 Deg. of freedom   303
 Full point group                 C1      NOp   1
 Largest Abelian subgroup         C1      NOp   1
 Largest concise Abelian subgroup C1      NOp   1
                         Standard orientation:                         
 ---------------------------------------------------------------------
 Center     Atomic      Atomic             Coordinates (Angstroms)
 Number     Number       Type             X           Y           Z
 ---------------------------------------------------------------------
      1          6           0        2.732842   -1.806351    4.866406
      2          6           0        1.865983   -1.204270    3.823416
      3          7           0        0.532504   -0.966886    4.012910
      4          6           0        2.111084   -0.907844    2.528273
      5          6           0        0.027008   -0.539774    2.840893
      6          7           0        0.929825   -0.502531    1.922195
      7          6           0       -0.116658    3.046120   -2.627393
      8          6           0        0.947675    1.974047   -2.822824
      9         16           0        0.339272    0.330616   -2.357081
     10          6           0        1.365063   -0.723098   -3.391704
     11         26           0        0.758187   -0.072001   -0.071199
     12          6           0       -2.613036   -0.417539   -0.074510
     13          6           0        1.123113   -3.386568   -0.698599
     14          6           0        4.115420    0.384435   -0.434289
     15          6           0        0.450783    3.138183    0.957836
     16          7           0       -0.513403   -1.628607   -0.298750
     17          6           0       -1.882390   -1.569231   -0.234513
     18          6           0       -2.418047   -2.904268   -0.440699
     19          6           0       -1.381717   -3.725970   -0.633701
     20          6           0       -0.165795   -2.941041   -0.558905
     21          6           0       -1.418561   -5.226516   -0.917778
     22          6           0       -3.906093   -3.266769   -0.314700
     23          6           0       -4.380155   -3.256343    1.141591
     24          6           0       -5.893673   -3.201405    1.298829
     25          8           0       -6.332790   -3.563402    2.444099
     26          8           0       -6.575646   -2.782577    0.364046
     27          7           0        2.318344   -1.251409   -0.487365
     28          6           0        2.258856   -2.621892   -0.702296
     29          6           0        3.588049   -3.123950   -0.966370
     30          6           0        4.417690   -2.056341   -0.958302
     31          6           0        3.633096   -0.891520   -0.670524
     32          6           0        3.950299   -4.599677   -1.121154
     33          6           0        5.922820   -2.019324   -1.190498
     34          6           0        6.320954   -2.466809   -2.607612
     35          7           0        2.012715    1.458471    0.209569
     36          6           0        3.376325    1.440448    0.049702
     37          6           0        3.954638    2.708308    0.500422
     38          6           0        2.944580    3.447766    0.969842
     39          6           0        1.727827    2.690476    0.761084
     40          6           0        5.467311    3.020727    0.472745
     41          6           0        2.984404    4.768057    1.749747
     42          6           0        3.625533    5.935881    0.980419
     43          7           0       -0.755453    1.123677    0.302477
     44          6           0       -0.705369    2.464634    0.680910
     45          6           0       -2.036514    3.019017    0.715602
     46          6           0       -2.892932    2.041892    0.351511
     47          6           0       -2.106039    0.843079    0.177757
     48          6           0       -2.351093    4.500680    0.966999
     49          6           0       -4.398912    2.185330    0.127897
     50          6           0       -4.709694    2.652631   -1.319067
     51          6           0       -6.184974    2.874719   -1.522047
     52          8           0       -6.969615    1.912679   -1.452403
     53          8           0       -6.503094    4.037156   -1.839699
     54          1           0        3.430387   -1.074434    5.216587
     55          1           0        2.128023   -2.141943    5.682784
     56          1           0        3.265209   -2.636840    4.451950
     57          1           0        0.025647   -1.088438    4.866327
     58          1           0        3.064081   -0.974839    2.046394
     59          1           0       -0.996301   -0.265517    2.690821
     60          1           0        0.346116    4.010834   -2.619210
     61          1           0       -0.824059    2.996666   -3.428666
     62          1           0       -0.619659    2.883926   -1.697026
     63          1           0        1.737156    2.206715   -2.139095
     64          1           0        1.144452    1.934518   -3.873831
     65          1           0        1.295553   -1.734738   -3.050159
     66          1           0        2.382497   -0.396696   -3.335226
     67          1           0        1.027574   -0.664912   -4.405418
     68          1           0       -3.676628   -0.504542   -0.152633
     69          1           0        1.255329   -4.441737   -0.817077
     70          1           0        5.148722    0.565008   -0.645430
     71          1           0        0.345872    4.119091    1.372217
     72          1           0       -0.437189   -5.636136   -0.799370
     73          1           0       -1.755458   -5.391645   -1.919842
     74          1           0       -2.088842   -5.702786   -0.233095
     75          1           0       -3.996734   -4.278421   -0.651219
     76          1           0       -4.446478   -2.487589   -0.810444
     77          1           0       -4.010079   -2.344703    1.562134
     78          1           0       -4.078231   -4.196723    1.553208
     79          1           0        4.891163   -4.685186   -1.623512
     80          1           0        3.193920   -5.094432   -1.693873
     81          1           0        4.019585   -5.053212   -0.154507
     82          1           0        6.342858   -2.742533   -0.523089
     83          1           0        6.208642   -0.991057   -1.113865
     84          1           0        6.925558   -1.710915   -3.063657
     85          1           0        6.874951   -3.380454   -2.550680
     86          1           0        5.439249   -2.620279   -3.194079
     87          1           0        5.619725    4.063043    0.660484
     88          1           0        5.964015    2.446198    1.226470
     89          1           0        5.865910    2.769328   -0.487889
     90          1           0        3.621335    4.589643    2.590811
     91          1           0        1.962566    5.046547    1.902026
     92          1           0        3.301553    6.863158    1.404791
     93          1           0        4.691054    5.865512    1.048344
     94          1           0        3.329912    5.891216   -0.046963
     95          1           0       -3.374719    4.694367    0.722919
     96          1           0       -2.180337    4.731653    1.997724
     97          1           0       -1.717449    5.108563    0.355548
     98          1           0       -4.727262    2.970682    0.776209
     99          1           0       -4.813582    1.203650    0.224081
    100          1           0       -4.435744    1.842757   -1.962461
    101          1           0       -4.242686    3.608491   -1.433678
    102          1           0       -6.869299    4.631627   -1.180839
    103          1           0       -7.419879   -2.359755    0.537515
 ---------------------------------------------------------------------
 Rotational constants (GHZ):           0.0649040           0.0437769           0.0340286
 Standard basis: def2TZVP (5D, 7F)
 There are  2230 symmetry adapted cartesian basis functions of A   symmetry.
 There are  1963 symmetry adapted basis functions of A   symmetry.
  1963 basis functions,  3172 primitive gaussians,  2230 cartesian basis functions
   208 alpha electrons      203 beta electrons
       nuclear repulsion energy      9034.5792672667 Hartrees.
 NAtoms=  103 NActive=  103 NUniq=  103 SFac= 1.00D+00 NAtFMM=   60 NAOKFM=T Big=T
 Integral buffers will be    131072 words long.
 Raffenetti 2 integral format.
 Two-electron integral symmetry is turned on.
 Nuclear repulsion after empirical dispersion term =     9034.4274506152 Hartrees.
 One-electron integrals computed using PRISM.
   1 Symmetry operations used in ECPInt.
 ECPInt:  NShTT=  311655 NPrTT=  958403 LenC2=  228098 LenP2D=  454103.
 LDataN:  DoStor=T MaxTD1= 6 Len=  172
 NBasis=  1963 RedAO= T EigKep=  2.80D-06  NBF=  1963
 NBsUse=  1963 1.00D-06 EigRej= -1.00D+00 NBFU=  1963
 ExpMin= 4.20D-02 ExpMax= 3.01D+05 ExpMxC= 2.91D+03 IAcc=3 IRadAn=         5 AccDes= 0.00D+00
 Harris functional with IExCor= 1009 and IRadAn=       5 diagonalized for initial guess.
 HarFok:  IExCor= 1009 AccDes= 0.00D+00 IRadAn=         5 IDoV= 1 UseB2=F ITyADJ=14
 ICtDFT=  3500011 ScaDFX=  1.000000  1.000000  1.000000  1.000000
 FoFCou: FMM=F IPFlag=           0 FMFlag=      100000 FMFlg1=        2001
         NFxFlg=           0 DoJE=T BraDBF=F KetDBF=T FulRan=T
         wScrn=  0.000000 ICntrl=       500 IOpCl=  0 I1Cent=   200000004 NGrid=           0
         NMat0=    1 NMatS0=      1 NMatT0=    0 NMatD0=    1 NMtDS0=    0 NMtDT0=    0
 Petite list used in FoFCou.
 Initial guess <Sx>= 0.0000 <Sy>= 0.0000 <Sz>= 2.5000 <S**2>= 8.7500 S= 2.5000
 Requested convergence on RMS density matrix=1.00D-08 within 128 cycles.
 Requested convergence on MAX density matrix=1.00D-06.
 Requested convergence on             energy=1.00D-06.
 No special actions if energy rises.
 EnCoef did   100 forward-backward iterations
 Restarting incremental Fock formation.
 SCF Done:  E(UPBE1PBE) =  -3881.70037557     A.U. after   26 cycles
            NFock= 26  Conv=0.69D-08     -V/T= 2.0028
 <Sx>= 0.0000 <Sy>= 0.0000 <Sz>= 2.5000 <S**2>= 8.7601 S= 2.5017
 <L.S>= 0.000000000000E+00
 Annihilation of the first spin contaminant:
 S**2 before annihilation     8.7601,   after     8.7500
 Hyperfine terms turned off by default for NAtoms > 100.

 **********************************************************************

            Population analysis using the SCF density.

 **********************************************************************

 Orbital symmetries:
 Alpha Orbitals:
       Occupied  (A) (A) (A) (A) (A) (A) (A) (A) (A) (A) (A) (A)
                 (A) (A) (A) (A) (A) (A) (A) (A) (A) (A) (A) (A)
                 (A) (A) (A) (A) (A) (A) (A) (A) (A) (A) (A) (A)
                 (A) (A) (A) (A) (A) (A) (A) (A) (A) (A) (A) (A)
                 (A) (A) (A) (A) (A) (A) (A) (A) (A) (A) (A) (A)
                 (A) (A) (A) (A) (A) (A) (A) (A) (A) (A) (A) (A)
                 (A) (A) (A) (A) (A) (A) (A) (A) (A) (A) (A) (A)
                 (A) (A) (A) (A) (A) (A) (A) (A) (A) (A) (A) (A)
                 (A) (A) (A) (A) (A) (A) (A) (A) (A) (A) (A) (A)
                 (A) (A) (A) (A) (A) (A) (A) (A) (A) (A) (A) (A)
                 (A) (A) (A) (A) (A) (A) (A) (A) (A) (A) (A) (A)
                 (A) (A) (A) (A) (A) (A) (A) (A) (A) (A) (A) (A)
                 (A) (A) (A) (A) (A) (A) (A) (A) (A) (A) (A) (A)
                 (A) (A) (A) (A) (A) (A) (A) (A) (A) (A) (A) (A)
                 (A) (A) (A) (A) (A) (A) (A) (A) (A) (A) (A) (A)
                 (A) (A) (A) (A) (A) (A) (A) (A) (A) (A) (A) (A)
                 (A) (A) (A) (A) (A) (A) (A) (A) (A) (A) (A) (A)
                 (A) (A) (A) (A)
       Virtual   (A) (A) (A) (A) (A) (A) (A) (A) (A) (A) (A) (A)
                 (A) (A) (A) (A) (A) (A) (A) (A) (A) (A) (A) (A)
                 (A) (A) (A) (A) (A) (A) (A) (A) (A) (A) (A) (A)
                 (A) (A) (A) (A) (A) (A) (A) (A) (A) (A) (A) (A)
                 (A) (A) (A) (A) (A) (A) (A) (A) (A) (A) (A) (A)
                 (A) (A) (A) (A) (A) (A) (A) (A) (A) (A) (A) (A)
                 (A) (A) (A) (A) (A) (A) (A) (A) (A) (A) (A) (A)
                 (A) (A) (A) (A) (A) (A) (A) (A) (A) (A) (A) (A)
                 (A) (A) (A) (A) (A) (A) (A) (A) (A) (A) (A) (A)
                 (A) (A) (A) (A) (A) (A) (A) (A) (A) (A) (A) (A)
                 (A) (A) (A) (A) (A) (A) (A) (A) (A) (A) (A) (A)
                 (A) (A) (A) (A) (A) (A) (A) (A) (A) (A) (A) (A)
                 (A) (A) (A) (A) (A) (A) (A) (A) (A) (A) (A) (A)
                 (A) (A) (A) (A) (A) (A) (A) (A) (A) (A) (A) (A)
                 (A) (A) (A) (A) (A) (A) (A) (A) (A) (A) (A) (A)
                 (A) (A) (A) (A) (A) (A) (A) (A) (A) (A) (A) (A)
                 (A) (A) (A) (A) (A) (A) (A) (A) (A) (A) (A) (A)
                 (A) (A) (A) (A) (A) (A) (A) (A) (A) (A) (A) (A)
                 (A) (A) (A) (A) (A) (A) (A) (A) (A) (A) (A) (A)
                 (A) (A) (A) (A) (A) (A) (A) (A) (A) (A) (A) (A)
                 (A) (A) (A) (A) (A) (A) (A) (A) (A) (A) (A) (A)
                 (A) (A) (A) (A) (A) (A) (A) (A) (A) (A) (A) (A)
                 (A) (A) (A) (A) (A) (A) (A) (A) (A) (A) (A) (A)
                 (A) (A) (A) (A) (A) (A) (A) (A) (A) (A) (A) (A)
                 (A) (A) (A) (A) (A) (A) (A) (A) (A) (A) (A) (A)
                 (A) (A) (A) (A) (A) (A) (A) (A) (A) (A) (A) (A)
                 (A) (A) (A) (A) (A) (A) (A) (A) (A) (A) (A) (A)
                 (A) (A) (A) (A) (A) (A) (A) (A) (A) (A) (A) (A)
                 (A) (A) (A) (A) (A) (A) (A) (A) (A) (A) (A) (A)
                 (A) (A) (A) (A) (A) (A) (A) (A) (A) (A) (A) (A)
                 (A) (A) (A) (A) (A) (A) (A) (A) (A) (A) (A) (A)
                 (A) (A) (A) (A) (A) (A) (A) (A) (A) (A) (A) (A)
                 (A) (A) (A) (A) (A) (A) (A) (A) (A) (A) (A) (A)
                 (A) (A) (A) (A) (A) (A) (A) (A) (A) (A) (A) (A)
                 (A) (A) (A) (A) (A) (A) (A) (A) (A) (A) (A) (A)
                 (A) (A) (A) (A) (A) (A) (A) (A) (A) (A) (A) (A)
                 (A) (A) (A) (A) (A) (A) (A) (A) (A) (A) (A) (A)
                 (A) (A) (A) (A) (A) (A) (A) (A) (A) (A) (A) (A)
                 (A) (A) (A) (A) (A) (A) (A) (A) (A) (A) (A) (A)
                 (A) (A) (A) (A) (A) (A) (A) (A) (A) (A) (A) (A)
                 (A) (A) (A) (A) (A) (A) (A) (A) (A) (A) (A) (A)
                 (A) (A) (A) (A) (A) (A) (A) (A) (A) (A) (A) (A)
                 (A) (A) (A) (A) (A) (A) (A) (A) (A) (A) (A) (A)
                 (A) (A) (A) (A) (A) (A) (A) (A) (A) (A) (A) (A)
                 (A) (A) (A) (A) (A) (A) (A) (A) (A) (A) (A) (A)
                 (A) (A) (A) (A) (A) (A) (A) (A) (A) (A) (A) (A)
                 (A) (A) (A) (A) (A) (A) (A) (A) (A) (A) (A) (A)
                 (A) (A) (A) (A) (A) (A) (A) (A) (A) (A) (A) (A)
                 (A) (A) (A) (A) (A) (A) (A) (A) (A) (A) (A) (A)
                 (A) (A) (A) (A) (A) (A) (A) (A) (A) (A) (A) (A)
                 (A) (A) (A) (A) (A) (A) (A) (A) (A) (A) (A) (A)
                 (A) (A) (A) (A) (A) (A) (A) (A) (A) (A) (A) (A)
                 (A) (A) (A) (A) (A) (A) (A) (A) (A) (A) (A) (A)
                 (A) (A) (A) (A) (A) (A) (A) (A) (A) (A) (A) (A)
                 (A) (A) (A) (A) (A) (A) (A) (A) (A) (A) (A) (A)
                 (A) (A) (A) (A) (A) (A) (A) (A) (A) (A) (A) (A)
                 (A) (A) (A) (A) (A) (A) (A) (A) (A) (A) (A) (A)
                 (A) (A) (A) (A) (A) (A) (A) (A) (A) (A) (A) (A)
                 (A) (A) (A) (A) (A) (A) (A) (A) (A) (A) (A) (A)
                 (A) (A) (A) (A) (A) (A) (A) (A) (A) (A) (A) (A)
                 (A) (A) (A) (A) (A) (A) (A) (A) (A) (A) (A) (A)
                 (A) (A) (A) (A) (A) (A) (A) (A) (A) (A) (A) (A)
                 (A) (A) (A) (A) (A) (A) (A) (A) (A) (A) (A) (A)
                 (A) (A) (A) (A) (A) (A) (A) (A) (A) (A) (A) (A)
                 (A) (A) (A) (A) (A) (A) (A) (A) (A) (A) (A) (A)
                 (A) (A) (A) (A) (A) (A) (A) (A) (A) (A) (A) (A)
                 (A) (A) (A) (A) (A) (A) (A) (A) (A) (A) (A) (A)
                 (A) (A) (A) (A) (A) (A) (A) (A) (A) (A) (A) (A)
                 (A) (A) (A) (A) (A) (A) (A) (A) (A) (A) (A) (A)
                 (A) (A) (A) (A) (A) (A) (A) (A) (A) (A) (A) (A)
                 (A) (A) (A) (A) (A) (A) (A) (A) (A) (A) (A) (A)
                 (A) (A) (A) (A) (A) (A) (A) (A) (A) (A) (A) (A)
                 (A) (A) (A) (A) (A) (A) (A) (A) (A) (A) (A) (A)
                 (A) (A) (A) (A) (A) (A) (A) (A) (A) (A) (A) (A)
                 (A) (A) (A) (A) (A) (A) (A) (A) (A) (A) (A) (A)
                 (A) (A) (A) (A) (A) (A) (A) (A) (A) (A) (A) (A)
                 (A) (A) (A) (A) (A) (A) (A) (A) (A) (A) (A) (A)
                 (A) (A) (A) (A) (A) (A) (A) (A) (A) (A) (A) (A)
                 (A) (A) (A) (A) (A) (A) (A) (A) (A) (A) (A) (A)
                 (A) (A) (A) (A) (A) (A) (A) (A) (A) (A) (A) (A)
                 (A) (A) (A) (A) (A) (A) (A) (A) (A) (A) (A) (A)
                 (A) (A) (A) (A) (A) (A) (A) (A) (A) (A) (A) (A)
                 (A) (A) (A) (A) (A) (A) (A) (A) (A) (A) (A) (A)
                 (A) (A) (A) (A) (A) (A) (A) (A) (A) (A) (A) (A)
                 (A) (A) (A) (A) (A) (A) (A) (A) (A) (A) (A) (A)
                 (A) (A) (A) (A) (A) (A) (A) (A) (A) (A) (A) (A)
                 (A) (A) (A) (A) (A) (A) (A) (A) (A) (A) (A) (A)
                 (A) (A) (A) (A) (A) (A) (A) (A) (A) (A) (A) (A)
                 (A) (A) (A) (A) (A) (A) (A) (A) (A) (A) (A) (A)
                 (A) (A) (A) (A) (A) (A) (A) (A) (A) (A) (A) (A)
                 (A) (A) (A) (A) (A) (A) (A) (A) (A) (A) (A) (A)
                 (A) (A) (A) (A) (A) (A) (A) (A) (A) (A) (A) (A)
                 (A) (A) (A) (A) (A) (A) (A) (A) (A) (A) (A) (A)
                 (A) (A) (A) (A) (A) (A) (A) (A) (A) (A) (A) (A)
                 (A) (A) (A) (A) (A) (A) (A) (A) (A) (A) (A) (A)
                 (A) (A) (A) (A) (A) (A) (A) (A) (A) (A) (A) (A)
                 (A) (A) (A) (A) (A) (A) (A) (A) (A) (A) (A) (A)
                 (A) (A) (A) (A) (A) (A) (A) (A) (A) (A) (A) (A)
                 (A) (A) (A) (A) (A) (A) (A) (A) (A) (A) (A) (A)
                 (A) (A) (A) (A) (A) (A) (A) (A) (A) (A) (A) (A)
                 (A) (A) (A) (A) (A) (A) (A) (A) (A) (A) (A) (A)
                 (A) (A) (A) (A) (A) (A) (A) (A) (A) (A) (A) (A)
                 (A) (A) (A) (A) (A) (A) (A) (A) (A) (A) (A) (A)
                 (A) (A) (A) (A) (A) (A) (A) (A) (A) (A) (A) (A)
                 (A) (A) (A) (A) (A) (A) (A) (A) (A) (A) (A) (A)
                 (A) (A) (A) (A) (A) (A) (A) (A) (A) (A) (A) (A)
                 (A) (A) (A) (A) (A) (A) (A) (A) (A) (A) (A) (A)
                 (A) (A) (A) (A) (A) (A) (A) (A) (A) (A) (A) (A)
                 (A) (A) (A) (A) (A) (A) (A) (A) (A) (A) (A) (A)
                 (A) (A) (A) (A) (A) (A) (A) (A) (A) (A) (A) (A)
                 (A) (A) (A) (A) (A) (A) (A) (A) (A) (A) (A) (A)
                 (A) (A) (A) (A) (A) (A) (A) (A) (A) (A) (A) (A)
                 (A) (A) (A) (A) (A) (A) (A) (A) (A) (A) (A) (A)
                 (A) (A) (A) (A) (A) (A) (A) (A) (A) (A) (A) (A)
                 (A) (A) (A) (A) (A) (A) (A) (A) (A) (A) (A) (A)
                 (A) (A) (A) (A) (A) (A) (A) (A) (A) (A) (A) (A)
                 (A) (A) (A) (A) (A) (A) (A) (A) (A) (A) (A) (A)
                 (A) (A) (A) (A) (A) (A) (A) (A) (A) (A) (A) (A)
                 (A) (A) (A) (A) (A) (A) (A) (A) (A) (A) (A) (A)
                 (A) (A) (A) (A) (A) (A) (A) (A) (A) (A) (A) (A)
                 (A) (A) (A) (A) (A) (A) (A) (A) (A) (A) (A) (A)
                 (A) (A) (A) (A) (A) (A) (A) (A) (A) (A) (A) (A)
                 (A) (A) (A) (A) (A) (A) (A) (A) (A) (A) (A) (A)
                 (A) (A) (A) (A) (A) (A) (A) (A) (A) (A) (A) (A)
                 (A) (A) (A) (A) (A) (A) (A) (A) (A) (A) (A) (A)
                 (A) (A) (A) (A) (A) (A) (A) (A) (A) (A) (A) (A)
                 (A) (A) (A) (A) (A) (A) (A) (A) (A) (A) (A) (A)
                 (A) (A) (A) (A) (A) (A) (A) (A) (A) (A) (A) (A)
                 (A) (A) (A) (A) (A) (A) (A) (A) (A) (A) (A) (A)
                 (A) (A) (A) (A) (A) (A) (A) (A) (A) (A) (A) (A)
                 (A) (A) (A) (A) (A) (A) (A) (A) (A) (A) (A) (A)
                 (A) (A) (A) (A) (A) (A) (A) (A) (A) (A) (A) (A)
                 (A) (A) (A) (A) (A) (A) (A) (A) (A) (A) (A) (A)
                 (A) (A) (A) (A) (A) (A) (A) (A) (A) (A) (A) (A)
                 (A) (A) (A) (A) (A) (A) (A) (A) (A) (A) (A) (A)
                 (A) (A) (A) (A) (A) (A) (A) (A) (A) (A) (A) (A)
                 (A) (A) (A) (A) (A) (A) (A) (A) (A) (A) (A) (A)
                 (A) (A) (A) (A) (A) (A) (A) (A) (A) (A) (A) (A)
                 (A) (A) (A) (A) (A) (A) (A) (A) (A) (A) (A) (A)
                 (A) (A) (A) (A) (A) (A) (A) (A) (A) (A) (A) (A)
                 (A) (A) (A) (A) (A) (A) (A) (A) (A) (A) (A) (A)
                 (A) (A) (A) (A) (A) (A) (A) (A) (A) (A) (A) (A)
                 (A) (A) (A) (A) (A) (A) (A) (A) (A) (A) (A) (A)
                 (A) (A) (A) (A) (A) (A) (A) (A) (A) (A) (A) (A)
                 (A) (A) (A) (A) (A) (A) (A) (A) (A) (A) (A) (A)
                 (A) (A) (A) (A) (A) (A) (A) (A) (A) (A) (A) (A)
                 (A) (A) (A)
 Beta  Orbitals:
       Occupied  (A) (A) (A) (A) (A) (A) (A) (A) (A) (A) (A) (A)
                 (A) (A) (A) (A) (A) (A) (A) (A) (A) (A) (A) (A)
                 (A) (A) (A) (A) (A) (A) (A) (A) (A) (A) (A) (A)
                 (A) (A) (A) (A) (A) (A) (A) (A) (A) (A) (A) (A)
                 (A) (A) (A) (A) (A) (A) (A) (A) (A) (A) (A) (A)
                 (A) (A) (A) (A) (A) (A) (A) (A) (A) (A) (A) (A)
                 (A) (A) (A) (A) (A) (A) (A) (A) (A) (A) (A) (A)
                 (A) (A) (A) (A) (A) (A) (A) (A) (A) (A) (A) (A)
                 (A) (A) (A) (A) (A) (A) (A) (A) (A) (A) (A) (A)
                 (A) (A) (A) (A) (A) (A) (A) (A) (A) (A) (A) (A)
                 (A) (A) (A) (A) (A) (A) (A) (A) (A) (A) (A) (A)
                 (A) (A) (A) (A) (A) (A) (A) (A) (A) (A) (A) (A)
                 (A) (A) (A) (A) (A) (A) (A) (A) (A) (A) (A) (A)
                 (A) (A) (A) (A) (A) (A) (A) (A) (A) (A) (A) (A)
                 (A) (A) (A) (A) (A) (A) (A) (A) (A) (A) (A) (A)
                 (A) (A) (A) (A) (A) (A) (A) (A) (A) (A) (A) (A)
                 (A) (A) (A) (A) (A) (A) (A) (A) (A) (A) (A)
       Virtual   (A) (A) (A) (A) (A) (A) (A) (A) (A) (A) (A) (A)
                 (A) (A) (A) (A) (A) (A) (A) (A) (A) (A) (A) (A)
                 (A) (A) (A) (A) (A) (A) (A) (A) (A) (A) (A) (A)
                 (A) (A) (A) (A) (A) (A) (A) (A) (A) (A) (A) (A)
                 (A) (A) (A) (A) (A) (A) (A) (A) (A) (A) (A) (A)
                 (A) (A) (A) (A) (A) (A) (A) (A) (A) (A) (A) (A)
                 (A) (A) (A) (A) (A) (A) (A) (A) (A) (A) (A) (A)
                 (A) (A) (A) (A) (A) (A) (A) (A) (A) (A) (A) (A)
                 (A) (A) (A) (A) (A) (A) (A) (A) (A) (A) (A) (A)
                 (A) (A) (A) (A) (A) (A) (A) (A) (A) (A) (A) (A)
                 (A) (A) (A) (A) (A) (A) (A) (A) (A) (A) (A) (A)
                 (A) (A) (A) (A) (A) (A) (A) (A) (A) (A) (A) (A)
                 (A) (A) (A) (A) (A) (A) (A) (A) (A) (A) (A) (A)
                 (A) (A) (A) (A) (A) (A) (A) (A) (A) (A) (A) (A)
                 (A) (A) (A) (A) (A) (A) (A) (A) (A) (A) (A) (A)
                 (A) (A) (A) (A) (A) (A) (A) (A) (A) (A) (A) (A)
                 (A) (A) (A) (A) (A) (A) (A) (A) (A) (A) (A) (A)
                 (A) (A) (A) (A) (A) (A) (A) (A) (A) (A) (A) (A)
                 (A) (A) (A) (A) (A) (A) (A) (A) (A) (A) (A) (A)
                 (A) (A) (A) (A) (A) (A) (A) (A) (A) (A) (A) (A)
                 (A) (A) (A) (A) (A) (A) (A) (A) (A) (A) (A) (A)
                 (A) (A) (A) (A) (A) (A) (A) (A) (A) (A) (A) (A)
                 (A) (A) (A) (A) (A) (A) (A) (A) (A) (A) (A) (A)
                 (A) (A) (A) (A) (A) (A) (A) (A) (A) (A) (A) (A)
                 (A) (A) (A) (A) (A) (A) (A) (A) (A) (A) (A) (A)
                 (A) (A) (A) (A) (A) (A) (A) (A) (A) (A) (A) (A)
                 (A) (A) (A) (A) (A) (A) (A) (A) (A) (A) (A) (A)
                 (A) (A) (A) (A) (A) (A) (A) (A) (A) (A) (A) (A)
                 (A) (A) (A) (A) (A) (A) (A) (A) (A) (A) (A) (A)
                 (A) (A) (A) (A) (A) (A) (A) (A) (A) (A) (A) (A)
                 (A) (A) (A) (A) (A) (A) (A) (A) (A) (A) (A) (A)
                 (A) (A) (A) (A) (A) (A) (A) (A) (A) (A) (A) (A)
                 (A) (A) (A) (A) (A) (A) (A) (A) (A) (A) (A) (A)
                 (A) (A) (A) (A) (A) (A) (A) (A) (A) (A) (A) (A)
                 (A) (A) (A) (A) (A) (A) (A) (A) (A) (A) (A) (A)
                 (A) (A) (A) (A) (A) (A) (A) (A) (A) (A) (A) (A)
                 (A) (A) (A) (A) (A) (A) (A) (A) (A) (A) (A) (A)
                 (A) (A) (A) (A) (A) (A) (A) (A) (A) (A) (A) (A)
                 (A) (A) (A) (A) (A) (A) (A) (A) (A) (A) (A) (A)
                 (A) (A) (A) (A) (A) (A) (A) (A) (A) (A) (A) (A)
                 (A) (A) (A) (A) (A) (A) (A) (A) (A) (A) (A) (A)
                 (A) (A) (A) (A) (A) (A) (A) (A) (A) (A) (A) (A)
                 (A) (A) (A) (A) (A) (A) (A) (A) (A) (A) (A) (A)
                 (A) (A) (A) (A) (A) (A) (A) (A) (A) (A) (A) (A)
                 (A) (A) (A) (A) (A) (A) (A) (A) (A) (A) (A) (A)
                 (A) (A) (A) (A) (A) (A) (A) (A) (A) (A) (A) (A)
                 (A) (A) (A) (A) (A) (A) (A) (A) (A) (A) (A) (A)
                 (A) (A) (A) (A) (A) (A) (A) (A) (A) (A) (A) (A)
                 (A) (A) (A) (A) (A) (A) (A) (A) (A) (A) (A) (A)
                 (A) (A) (A) (A) (A) (A) (A) (A) (A) (A) (A) (A)
                 (A) (A) (A) (A) (A) (A) (A) (A) (A) (A) (A) (A)
                 (A) (A) (A) (A) (A) (A) (A) (A) (A) (A) (A) (A)
                 (A) (A) (A) (A) (A) (A) (A) (A) (A) (A) (A) (A)
                 (A) (A) (A) (A) (A) (A) (A) (A) (A) (A) (A) (A)
                 (A) (A) (A) (A) (A) (A) (A) (A) (A) (A) (A) (A)
                 (A) (A) (A) (A) (A) (A) (A) (A) (A) (A) (A) (A)
                 (A) (A) (A) (A) (A) (A) (A) (A) (A) (A) (A) (A)
                 (A) (A) (A) (A) (A) (A) (A) (A) (A) (A) (A) (A)
                 (A) (A) (A) (A) (A) (A) (A) (A) (A) (A) (A) (A)
                 (A) (A) (A) (A) (A) (A) (A) (A) (A) (A) (A) (A)
                 (A) (A) (A) (A) (A) (A) (A) (A) (A) (A) (A) (A)
                 (A) (A) (A) (A) (A) (A) (A) (A) (A) (A) (A) (A)
                 (A) (A) (A) (A) (A) (A) (A) (A) (A) (A) (A) (A)
                 (A) (A) (A) (A) (A) (A) (A) (A) (A) (A) (A) (A)
                 (A) (A) (A) (A) (A) (A) (A) (A) (A) (A) (A) (A)
                 (A) (A) (A) (A) (A) (A) (A) (A) (A) (A) (A) (A)
                 (A) (A) (A) (A) (A) (A) (A) (A) (A) (A) (A) (A)
                 (A) (A) (A) (A) (A) (A) (A) (A) (A) (A) (A) (A)
                 (A) (A) (A) (A) (A) (A) (A) (A) (A) (A) (A) (A)
                 (A) (A) (A) (A) (A) (A) (A) (A) (A) (A) (A) (A)
                 (A) (A) (A) (A) (A) (A) (A) (A) (A) (A) (A) (A)
                 (A) (A) (A) (A) (A) (A) (A) (A) (A) (A) (A) (A)
                 (A) (A) (A) (A) (A) (A) (A) (A) (A) (A) (A) (A)
                 (A) (A) (A) (A) (A) (A) (A) (A) (A) (A) (A) (A)
                 (A) (A) (A) (A) (A) (A) (A) (A) (A) (A) (A) (A)
                 (A) (A) (A) (A) (A) (A) (A) (A) (A) (A) (A) (A)
                 (A) (A) (A) (A) (A) (A) (A) (A) (A) (A) (A) (A)
                 (A) (A) (A) (A) (A) (A) (A) (A) (A) (A) (A) (A)
                 (A) (A) (A) (A) (A) (A) (A) (A) (A) (A) (A) (A)
                 (A) (A) (A) (A) (A) (A) (A) (A) (A) (A) (A) (A)
                 (A) (A) (A) (A) (A) (A) (A) (A) (A) (A) (A) (A)
                 (A) (A) (A) (A) (A) (A) (A) (A) (A) (A) (A) (A)
                 (A) (A) (A) (A) (A) (A) (A) (A) (A) (A) (A) (A)
                 (A) (A) (A) (A) (A) (A) (A) (A) (A) (A) (A) (A)
                 (A) (A) (A) (A) (A) (A) (A) (A) (A) (A) (A) (A)
                 (A) (A) (A) (A) (A) (A) (A) (A) (A) (A) (A) (A)
                 (A) (A) (A) (A) (A) (A) (A) (A) (A) (A) (A) (A)
                 (A) (A) (A) (A) (A) (A) (A) (A) (A) (A) (A) (A)
                 (A) (A) (A) (A) (A) (A) (A) (A) (A) (A) (A) (A)
                 (A) (A) (A) (A) (A) (A) (A) (A) (A) (A) (A) (A)
                 (A) (A) (A) (A) (A) (A) (A) (A) (A) (A) (A) (A)
                 (A) (A) (A) (A) (A) (A) (A) (A) (A) (A) (A) (A)
                 (A) (A) (A) (A) (A) (A) (A) (A) (A) (A) (A) (A)
                 (A) (A) (A) (A) (A) (A) (A) (A) (A) (A) (A) (A)
                 (A) (A) (A) (A) (A) (A) (A) (A) (A) (A) (A) (A)
                 (A) (A) (A) (A) (A) (A) (A) (A) (A) (A) (A) (A)
                 (A) (A) (A) (A) (A) (A) (A) (A) (A) (A) (A) (A)
                 (A) (A) (A) (A) (A) (A) (A) (A) (A) (A) (A) (A)
                 (A) (A) (A) (A) (A) (A) (A) (A) (A) (A) (A) (A)
                 (A) (A) (A) (A) (A) (A) (A) (A) (A) (A) (A) (A)
                 (A) (A) (A) (A) (A) (A) (A) (A) (A) (A) (A) (A)
                 (A) (A) (A) (A) (A) (A) (A) (A) (A) (A) (A) (A)
                 (A) (A) (A) (A) (A) (A) (A) (A) (A) (A) (A) (A)
                 (A) (A) (A) (A) (A) (A) (A) (A) (A) (A) (A) (A)
                 (A) (A) (A) (A) (A) (A) (A) (A) (A) (A) (A) (A)
                 (A) (A) (A) (A) (A) (A) (A) (A) (A) (A) (A) (A)
                 (A) (A) (A) (A) (A) (A) (A) (A) (A) (A) (A) (A)
                 (A) (A) (A) (A) (A) (A) (A) (A) (A) (A) (A) (A)
                 (A) (A) (A) (A) (A) (A) (A) (A) (A) (A) (A) (A)
                 (A) (A) (A) (A) (A) (A) (A) (A) (A) (A) (A) (A)
                 (A) (A) (A) (A) (A) (A) (A) (A) (A) (A) (A) (A)
                 (A) (A) (A) (A) (A) (A) (A) (A) (A) (A) (A) (A)
                 (A) (A) (A) (A) (A) (A) (A) (A) (A) (A) (A) (A)
                 (A) (A) (A) (A) (A) (A) (A) (A) (A) (A) (A) (A)
                 (A) (A) (A) (A) (A) (A) (A) (A) (A) (A) (A) (A)
                 (A) (A) (A) (A) (A) (A) (A) (A) (A) (A) (A) (A)
                 (A) (A) (A) (A) (A) (A) (A) (A) (A) (A) (A) (A)
                 (A) (A) (A) (A) (A) (A) (A) (A) (A) (A) (A) (A)
                 (A) (A) (A) (A) (A) (A) (A) (A) (A) (A) (A) (A)
                 (A) (A) (A) (A) (A) (A) (A) (A) (A) (A) (A) (A)
                 (A) (A) (A) (A) (A) (A) (A) (A) (A) (A) (A) (A)
                 (A) (A) (A) (A) (A) (A) (A) (A) (A) (A) (A) (A)
                 (A) (A) (A) (A) (A) (A) (A) (A) (A) (A) (A) (A)
                 (A) (A) (A) (A) (A) (A) (A) (A) (A) (A) (A) (A)
                 (A) (A) (A) (A) (A) (A) (A) (A) (A) (A) (A) (A)
                 (A) (A) (A) (A) (A) (A) (A) (A) (A) (A) (A) (A)
                 (A) (A) (A) (A) (A) (A) (A) (A) (A) (A) (A) (A)
                 (A) (A) (A) (A) (A) (A) (A) (A) (A) (A) (A) (A)
                 (A) (A) (A) (A) (A) (A) (A) (A) (A) (A) (A) (A)
                 (A) (A) (A) (A) (A) (A) (A) (A) (A) (A) (A) (A)
                 (A) (A) (A) (A) (A) (A) (A) (A) (A) (A) (A) (A)
                 (A) (A) (A) (A) (A) (A) (A) (A) (A) (A) (A) (A)
                 (A) (A) (A) (A) (A) (A) (A) (A) (A) (A) (A) (A)
                 (A) (A) (A) (A) (A) (A) (A) (A) (A) (A) (A) (A)
                 (A) (A) (A) (A) (A) (A) (A) (A) (A) (A) (A) (A)
                 (A) (A) (A) (A) (A) (A) (A) (A) (A) (A) (A) (A)
                 (A) (A) (A) (A) (A) (A) (A) (A) (A) (A) (A) (A)
                 (A) (A) (A) (A) (A) (A) (A) (A) (A) (A) (A) (A)
                 (A) (A) (A) (A) (A) (A) (A) (A) (A) (A) (A) (A)
                 (A) (A) (A) (A) (A) (A) (A) (A) (A) (A) (A) (A)
                 (A) (A) (A) (A) (A) (A) (A) (A) (A) (A) (A) (A)
                 (A) (A) (A) (A) (A) (A) (A) (A) (A) (A) (A) (A)
                 (A) (A) (A) (A) (A) (A) (A) (A) (A) (A) (A) (A)
                 (A) (A) (A) (A) (A) (A) (A) (A) (A) (A) (A) (A)
                 (A) (A) (A) (A) (A) (A) (A) (A) (A) (A) (A) (A)
                 (A) (A) (A) (A) (A) (A) (A) (A) (A) (A) (A) (A)
                 (A) (A) (A) (A) (A) (A) (A) (A)
 The electronic state is 6-A.
 Alpha  occ. eigenvalues -- -256.54051 -89.12614 -30.36883 -26.18535 -26.18504
 Alpha  occ. eigenvalues --  -26.18479 -19.34319 -19.32543 -19.25672 -19.23755
 Alpha  occ. eigenvalues --  -14.54690 -14.49683 -14.48107 -14.47813 -14.47526
 Alpha  occ. eigenvalues --  -14.47497 -10.42423 -10.42087 -10.38521 -10.35945
 Alpha  occ. eigenvalues --  -10.35804 -10.35476 -10.35458 -10.35309 -10.35264
 Alpha  occ. eigenvalues --  -10.35256 -10.35243 -10.35241 -10.33736 -10.33383
 Alpha  occ. eigenvalues --  -10.33048 -10.32817 -10.32627 -10.32424 -10.32271
 Alpha  occ. eigenvalues --  -10.32240 -10.32238 -10.32151 -10.32007 -10.31991
 Alpha  occ. eigenvalues --  -10.31968 -10.31841 -10.31827 -10.31741 -10.31513
 Alpha  occ. eigenvalues --  -10.30970 -10.30906 -10.30771 -10.30746 -10.30625
 Alpha  occ. eigenvalues --  -10.30618 -10.30331 -10.30220 -10.29931 -10.29298
 Alpha  occ. eigenvalues --  -10.28335 -10.28185  -8.10619  -6.04216  -6.03966
 Alpha  occ. eigenvalues --   -6.03528  -3.79550  -2.55694  -2.55666  -2.55507
 Alpha  occ. eigenvalues --   -1.25036  -1.24019  -1.16978  -1.10482  -1.09109
 Alpha  occ. eigenvalues --   -1.07995  -1.07955  -1.07525  -1.06917  -1.02364
 Alpha  occ. eigenvalues --   -0.94583  -0.94279  -0.93429  -0.92866  -0.92538
 Alpha  occ. eigenvalues --   -0.92233  -0.91659  -0.91512  -0.91068  -0.88718
 Alpha  occ. eigenvalues --   -0.88097  -0.86907  -0.86638  -0.86404  -0.86140
 Alpha  occ. eigenvalues --   -0.83787  -0.82582  -0.82132  -0.81640  -0.81189
 Alpha  occ. eigenvalues --   -0.79544  -0.78750  -0.78248  -0.77103  -0.76422
 Alpha  occ. eigenvalues --   -0.76140  -0.75412  -0.73660  -0.73408  -0.73006
 Alpha  occ. eigenvalues --   -0.72795  -0.72284  -0.70362  -0.70130  -0.68859
 Alpha  occ. eigenvalues --   -0.67006  -0.66063  -0.65261  -0.65212  -0.64538
 Alpha  occ. eigenvalues --   -0.62788  -0.62498  -0.62368  -0.61869  -0.60535
 Alpha  occ. eigenvalues --   -0.59950  -0.59770  -0.59375  -0.59326  -0.59073
 Alpha  occ. eigenvalues --   -0.58748  -0.58597  -0.58165  -0.57869  -0.57502
 Alpha  occ. eigenvalues --   -0.57195  -0.56817  -0.56646  -0.56493  -0.56063
 Alpha  occ. eigenvalues --   -0.55697  -0.55363  -0.55080  -0.55018  -0.54849
 Alpha  occ. eigenvalues --   -0.54525  -0.54217  -0.54038  -0.54021  -0.53792
 Alpha  occ. eigenvalues --   -0.53642  -0.53446  -0.53119  -0.52993  -0.52823
 Alpha  occ. eigenvalues --   -0.52569  -0.52359  -0.52266  -0.52035  -0.51635
 Alpha  occ. eigenvalues --   -0.51454  -0.51200  -0.50740  -0.50609  -0.50422
 Alpha  occ. eigenvalues --   -0.50094  -0.49952  -0.49693  -0.49416  -0.49281
 Alpha  occ. eigenvalues --   -0.49118  -0.48701  -0.48158  -0.48046  -0.47669
 Alpha  occ. eigenvalues --   -0.47528  -0.47471  -0.47039  -0.46880  -0.46417
 Alpha  occ. eigenvalues --   -0.46262  -0.46015  -0.45882  -0.45514  -0.45364
 Alpha  occ. eigenvalues --   -0.45001  -0.44873  -0.44568  -0.43904  -0.43436
 Alpha  occ. eigenvalues --   -0.43393  -0.43151  -0.42907  -0.42763  -0.42627
 Alpha  occ. eigenvalues --   -0.41783  -0.41153  -0.40804  -0.38648  -0.38613
 Alpha  occ. eigenvalues --   -0.38589  -0.38187  -0.35554  -0.34876  -0.34821
 Alpha  occ. eigenvalues --   -0.34345  -0.34321  -0.34010  -0.33105  -0.32692
 Alpha  occ. eigenvalues --   -0.32434  -0.30031  -0.29430
 Alpha virt. eigenvalues --   -0.17961  -0.17617  -0.10873  -0.08790  -0.07917
 Alpha virt. eigenvalues --   -0.06936  -0.06777  -0.06214  -0.05961  -0.05479
 Alpha virt. eigenvalues --   -0.05460  -0.05048  -0.04577  -0.03987  -0.03808
 Alpha virt. eigenvalues --   -0.03274  -0.02920  -0.02728  -0.02512  -0.02320
 Alpha virt. eigenvalues --   -0.01979  -0.01876  -0.01309  -0.01061  -0.00783
 Alpha virt. eigenvalues --   -0.00611  -0.00536  -0.00071   0.00197   0.00242
 Alpha virt. eigenvalues --    0.00556   0.01032   0.01059   0.01370   0.01933
 Alpha virt. eigenvalues --    0.02132   0.02363   0.02520   0.02801   0.03082
 Alpha virt. eigenvalues --    0.03232   0.03375   0.03687   0.03732   0.03940
 Alpha virt. eigenvalues --    0.04208   0.04449   0.04531   0.04606   0.04768
 Alpha virt. eigenvalues --    0.04861   0.05253   0.05419   0.05623   0.05702
 Alpha virt. eigenvalues --    0.05909   0.06054   0.06311   0.06347   0.06446
 Alpha virt. eigenvalues --    0.06656   0.06828   0.06979   0.07124   0.07229
 Alpha virt. eigenvalues --    0.07570   0.07735   0.07972   0.08106   0.08492
 Alpha virt. eigenvalues --    0.08549   0.08874   0.08893   0.09122   0.09477
 Alpha virt. eigenvalues --    0.09711   0.09947   0.10298   0.10719   0.10947
 Alpha virt. eigenvalues --    0.11086   0.11190   0.11519   0.11648   0.11812
 Alpha virt. eigenvalues --    0.11966   0.12106   0.12258   0.12594   0.12695
 Alpha virt. eigenvalues --    0.12835   0.13004   0.13408   0.13472   0.13678
 Alpha virt. eigenvalues --    0.13768   0.14116   0.14248   0.14306   0.14721
 Alpha virt. eigenvalues --    0.14850   0.15083   0.15157   0.15242   0.15640
 Alpha virt. eigenvalues --    0.15881   0.16036   0.16096   0.16165   0.16502
 Alpha virt. eigenvalues --    0.16624   0.16719   0.16975   0.17101   0.17201
 Alpha virt. eigenvalues --    0.17348   0.17626   0.17734   0.17903   0.18182
 Alpha virt. eigenvalues --    0.18628   0.18672   0.19035   0.19534   0.19606
 Alpha virt. eigenvalues --    0.19926   0.20136   0.20277   0.20447   0.20616
 Alpha virt. eigenvalues --    0.21073   0.21379   0.21410   0.21681   0.21734
 Alpha virt. eigenvalues --    0.21856   0.22221   0.22655   0.22859   0.23036
 Alpha virt. eigenvalues --    0.23069   0.23364   0.23478   0.23544   0.24024
 Alpha virt. eigenvalues --    0.24376   0.24558   0.24860   0.24990   0.25215
 Alpha virt. eigenvalues --    0.25462   0.25813   0.25984   0.26177   0.26565
 Alpha virt. eigenvalues --    0.27080   0.27185   0.27256   0.27394   0.27762
 Alpha virt. eigenvalues --    0.27908   0.28035   0.28242   0.28516   0.28794
 Alpha virt. eigenvalues --    0.29116   0.29373   0.29456   0.29565   0.29875
 Alpha virt. eigenvalues --    0.30224   0.30431   0.30484   0.30643   0.30892
 Alpha virt. eigenvalues --    0.31040   0.31153   0.31472   0.31551   0.31680
 Alpha virt. eigenvalues --    0.31849   0.31975   0.32108   0.32496   0.32591
 Alpha virt. eigenvalues --    0.32808   0.33182   0.33441   0.33517   0.33621
 Alpha virt. eigenvalues --    0.33816   0.34150   0.34331   0.34521   0.34574
 Alpha virt. eigenvalues --    0.34683   0.34845   0.35115   0.35231   0.35274
 Alpha virt. eigenvalues --    0.35582   0.35732   0.36074   0.36189   0.36438
 Alpha virt. eigenvalues --    0.36477   0.36694   0.36900   0.37079   0.37244
 Alpha virt. eigenvalues --    0.37384   0.37580   0.37659   0.37804   0.37965
 Alpha virt. eigenvalues --    0.38076   0.38213   0.38277   0.38524   0.38752
 Alpha virt. eigenvalues --    0.38815   0.38933   0.39118   0.39290   0.39565
 Alpha virt. eigenvalues --    0.39639   0.39752   0.39835   0.40090   0.40221
 Alpha virt. eigenvalues --    0.40368   0.40517   0.40694   0.40968   0.41144
 Alpha virt. eigenvalues --    0.41237   0.41459   0.41623   0.41739   0.41918
 Alpha virt. eigenvalues --    0.41966   0.42314   0.42547   0.42623   0.42851
 Alpha virt. eigenvalues --    0.42893   0.43002   0.43066   0.43286   0.43526
 Alpha virt. eigenvalues --    0.43742   0.43958   0.44252   0.44384   0.44639
 Alpha virt. eigenvalues --    0.44748   0.44892   0.45051   0.45170   0.45385
 Alpha virt. eigenvalues --    0.45681   0.45713   0.45891   0.46031   0.46097
 Alpha virt. eigenvalues --    0.46355   0.46596   0.46709   0.46927   0.47193
 Alpha virt. eigenvalues --    0.47465   0.47654   0.47808   0.48070   0.48220
 Alpha virt. eigenvalues --    0.48427   0.48581   0.48824   0.48954   0.49356
 Alpha virt. eigenvalues --    0.49554   0.49697   0.49788   0.50192   0.50420
 Alpha virt. eigenvalues --    0.50503   0.50592   0.50861   0.50971   0.51346
 Alpha virt. eigenvalues --    0.51611   0.52060   0.52204   0.52402   0.52545
 Alpha virt. eigenvalues --    0.52625   0.52818   0.53265   0.53527   0.53726
 Alpha virt. eigenvalues --    0.53891   0.54233   0.54550   0.54668   0.54982
 Alpha virt. eigenvalues --    0.55217   0.55467   0.55812   0.55977   0.56226
 Alpha virt. eigenvalues --    0.56485   0.56918   0.57174   0.57247   0.57592
 Alpha virt. eigenvalues --    0.58019   0.58196   0.58454   0.58740   0.59149
 Alpha virt. eigenvalues --    0.59378   0.59549   0.59602   0.60104   0.60236
 Alpha virt. eigenvalues --    0.60610   0.60834   0.60985   0.61292   0.61370
 Alpha virt. eigenvalues --    0.61775   0.61958   0.62367   0.62705   0.62917
 Alpha virt. eigenvalues --    0.63148   0.63315   0.63504   0.63736   0.64318
 Alpha virt. eigenvalues --    0.64535   0.64667   0.65009   0.65401   0.65652
 Alpha virt. eigenvalues --    0.65998   0.66162   0.66477   0.67061   0.67225
 Alpha virt. eigenvalues --    0.67242   0.67621   0.67729   0.68230   0.68671
 Alpha virt. eigenvalues --    0.68940   0.69231   0.69631   0.69913   0.70147
 Alpha virt. eigenvalues --    0.70695   0.71001   0.71210   0.71311   0.71629
 Alpha virt. eigenvalues --    0.72087   0.72271   0.72390   0.72701   0.73048
 Alpha virt. eigenvalues --    0.73219   0.73447   0.74120   0.74702   0.74948
 Alpha virt. eigenvalues --    0.75114   0.75332   0.75538   0.75888   0.76117
 Alpha virt. eigenvalues --    0.76491   0.76665   0.77010   0.77017   0.77461
 Alpha virt. eigenvalues --    0.77902   0.78073   0.78537   0.79102   0.79254
 Alpha virt. eigenvalues --    0.79571   0.79680   0.79936   0.80229   0.80534
 Alpha virt. eigenvalues --    0.80945   0.81116   0.81237   0.81391   0.81727
 Alpha virt. eigenvalues --    0.81876   0.82367   0.82603   0.82693   0.82860
 Alpha virt. eigenvalues --    0.83402   0.83716   0.83784   0.84115   0.84291
 Alpha virt. eigenvalues --    0.84437   0.84685   0.84912   0.85192   0.85707
 Alpha virt. eigenvalues --    0.85955   0.86030   0.86266   0.86489   0.86716
 Alpha virt. eigenvalues --    0.87021   0.87318   0.87378   0.87523   0.87940
 Alpha virt. eigenvalues --    0.88109   0.88705   0.88844   0.88896   0.89406
 Alpha virt. eigenvalues --    0.89709   0.89750   0.90119   0.90243   0.90589
 Alpha virt. eigenvalues --    0.90947   0.91190   0.91580   0.91699   0.91991
 Alpha virt. eigenvalues --    0.92266   0.92416   0.92491   0.92972   0.93237
 Alpha virt. eigenvalues --    0.93732   0.94034   0.94211   0.94499   0.94677
 Alpha virt. eigenvalues --    0.94930   0.95450   0.95802   0.96082   0.96480
 Alpha virt. eigenvalues --    0.96635   0.96762   0.97006   0.97279   0.97517
 Alpha virt. eigenvalues --    0.97803   0.98099   0.98519   0.98562   0.98667
 Alpha virt. eigenvalues --    0.98987   0.99204   0.99307   1.00152   1.00303
 Alpha virt. eigenvalues --    1.00703   1.00982   1.01102   1.01384   1.01844
 Alpha virt. eigenvalues --    1.02141   1.02606   1.02906   1.03280   1.03435
 Alpha virt. eigenvalues --    1.03777   1.03878   1.04340   1.04474   1.04760
 Alpha virt. eigenvalues --    1.05003   1.05537   1.05726   1.06031   1.06316
 Alpha virt. eigenvalues --    1.06906   1.07369   1.07625   1.07925   1.08322
 Alpha virt. eigenvalues --    1.08473   1.08740   1.08930   1.09647   1.10281
 Alpha virt. eigenvalues --    1.10391   1.10631   1.10810   1.11398   1.11466
 Alpha virt. eigenvalues --    1.12156   1.12446   1.12688   1.12919   1.13414
 Alpha virt. eigenvalues --    1.13534   1.13890   1.14069   1.14460   1.14601
 Alpha virt. eigenvalues --    1.15194   1.15778   1.16099   1.16348   1.16576
 Alpha virt. eigenvalues --    1.17096   1.17427   1.17519   1.17699   1.18139
 Alpha virt. eigenvalues --    1.18355   1.18845   1.19264   1.19480   1.19723
 Alpha virt. eigenvalues --    1.20075   1.20231   1.20435   1.20671   1.20856
 Alpha virt. eigenvalues --    1.21470   1.22191   1.22526   1.22590   1.22855
 Alpha virt. eigenvalues --    1.23856   1.24170   1.24528   1.25036   1.25248
 Alpha virt. eigenvalues --    1.25666   1.25763   1.26221   1.26765   1.27203
 Alpha virt. eigenvalues --    1.27372   1.27768   1.27936   1.28215   1.28456
 Alpha virt. eigenvalues --    1.29293   1.29762   1.29961   1.30432   1.31114
 Alpha virt. eigenvalues --    1.31502   1.31606   1.31833   1.32292   1.33050
 Alpha virt. eigenvalues --    1.33189   1.33754   1.33956   1.34599   1.34777
 Alpha virt. eigenvalues --    1.35551   1.36091   1.36629   1.37319   1.37645
 Alpha virt. eigenvalues --    1.37807   1.38006   1.38272   1.38826   1.39258
 Alpha virt. eigenvalues --    1.39320   1.39950   1.40170   1.40397   1.40504
 Alpha virt. eigenvalues --    1.40801   1.41315   1.41585   1.41854   1.42365
 Alpha virt. eigenvalues --    1.42474   1.42697   1.42944   1.43349   1.43429
 Alpha virt. eigenvalues --    1.43814   1.43944   1.44064   1.44900   1.45032
 Alpha virt. eigenvalues --    1.45269   1.45316   1.45545   1.45937   1.46002
 Alpha virt. eigenvalues --    1.46369   1.46721   1.46796   1.47058   1.47280
 Alpha virt. eigenvalues --    1.47352   1.47567   1.48021   1.48338   1.48625
 Alpha virt. eigenvalues --    1.48870   1.49125   1.49239   1.49410   1.49876
 Alpha virt. eigenvalues --    1.50044   1.50057   1.50657   1.50672   1.50918
 Alpha virt. eigenvalues --    1.51317   1.51695   1.51843   1.52067   1.52158
 Alpha virt. eigenvalues --    1.52536   1.52749   1.52886   1.53196   1.53429
 Alpha virt. eigenvalues --    1.53843   1.54101   1.54360   1.54672   1.54860
 Alpha virt. eigenvalues --    1.55177   1.55581   1.55689   1.55970   1.56152
 Alpha virt. eigenvalues --    1.56580   1.56747   1.57055   1.57162   1.57500
 Alpha virt. eigenvalues --    1.57880   1.58177   1.58233   1.58489   1.58548
 Alpha virt. eigenvalues --    1.58902   1.59204   1.59706   1.59848   1.59925
 Alpha virt. eigenvalues --    1.60056   1.60600   1.60675   1.61046   1.61355
 Alpha virt. eigenvalues --    1.61672   1.61918   1.61986   1.62223   1.62614
 Alpha virt. eigenvalues --    1.62854   1.63230   1.63434   1.63609   1.63715
 Alpha virt. eigenvalues --    1.63881   1.64175   1.64478   1.64686   1.65175
 Alpha virt. eigenvalues --    1.65384   1.65677   1.66031   1.66314   1.66417
 Alpha virt. eigenvalues --    1.66763   1.66892   1.66988   1.67517   1.67828
 Alpha virt. eigenvalues --    1.68133   1.68654   1.68907   1.69051   1.69211
 Alpha virt. eigenvalues --    1.70431   1.70525   1.70766   1.71322   1.71914
 Alpha virt. eigenvalues --    1.72415   1.72700   1.72856   1.72928   1.73593
 Alpha virt. eigenvalues --    1.73952   1.74450   1.74951   1.75269   1.75750
 Alpha virt. eigenvalues --    1.75934   1.76082   1.76224   1.76491   1.76701
 Alpha virt. eigenvalues --    1.77028   1.77358   1.78022   1.78410   1.78505
 Alpha virt. eigenvalues --    1.78715   1.79182   1.79801   1.79956   1.80187
 Alpha virt. eigenvalues --    1.80554   1.81015   1.81134   1.81347   1.81977
 Alpha virt. eigenvalues --    1.82197   1.82616   1.82843   1.83408   1.83563
 Alpha virt. eigenvalues --    1.83788   1.84200   1.84252   1.84699   1.85049
 Alpha virt. eigenvalues --    1.85409   1.85601   1.86225   1.86437   1.86728
 Alpha virt. eigenvalues --    1.87075   1.87425   1.87678   1.87902   1.88384
 Alpha virt. eigenvalues --    1.88676   1.88955   1.89201   1.89850   1.90054
 Alpha virt. eigenvalues --    1.90477   1.90657   1.90901   1.91193   1.91609
 Alpha virt. eigenvalues --    1.92042   1.92138   1.92427   1.93052   1.93261
 Alpha virt. eigenvalues --    1.93630   1.94059   1.94606   1.94728   1.95060
 Alpha virt. eigenvalues --    1.95800   1.96142   1.96672   1.96871   1.97364
 Alpha virt. eigenvalues --    1.97763   1.98101   1.98370   1.98559   1.98999
 Alpha virt. eigenvalues --    1.99240   1.99546   1.99739   2.00271   2.00416
 Alpha virt. eigenvalues --    2.00765   2.01060   2.01753   2.02030   2.02354
 Alpha virt. eigenvalues --    2.02496   2.03102   2.03412   2.03734   2.03966
 Alpha virt. eigenvalues --    2.04217   2.04529   2.04851   2.05212   2.05370
 Alpha virt. eigenvalues --    2.05750   2.05863   2.06431   2.06585   2.06604
 Alpha virt. eigenvalues --    2.06781   2.07246   2.07670   2.08062   2.08357
 Alpha virt. eigenvalues --    2.08812   2.09099   2.09542   2.09935   2.10204
 Alpha virt. eigenvalues --    2.10225   2.10637   2.11086   2.11371   2.11653
 Alpha virt. eigenvalues --    2.12201   2.12385   2.12525   2.13229   2.13360
 Alpha virt. eigenvalues --    2.14022   2.14063   2.14335   2.14933   2.15333
 Alpha virt. eigenvalues --    2.15484   2.15782   2.16041   2.16449   2.17109
 Alpha virt. eigenvalues --    2.17396   2.17700   2.17830   2.18824   2.19052
 Alpha virt. eigenvalues --    2.19270   2.19638   2.19736   2.20295   2.20906
 Alpha virt. eigenvalues --    2.20985   2.21259   2.21721   2.22003   2.22434
 Alpha virt. eigenvalues --    2.22997   2.23232   2.23374   2.23616   2.23812
 Alpha virt. eigenvalues --    2.24554   2.24877   2.25192   2.25578   2.25854
 Alpha virt. eigenvalues --    2.26511   2.26767   2.27345   2.27543   2.28136
 Alpha virt. eigenvalues --    2.28409   2.28708   2.28937   2.29421   2.29591
 Alpha virt. eigenvalues --    2.29781   2.30320   2.30560   2.30663   2.31010
 Alpha virt. eigenvalues --    2.31090   2.31557   2.31783   2.32315   2.32735
 Alpha virt. eigenvalues --    2.32986   2.33270   2.33507   2.33794   2.34148
 Alpha virt. eigenvalues --    2.34450   2.35012   2.35296   2.35532   2.36017
 Alpha virt. eigenvalues --    2.36199   2.36631   2.37150   2.37334   2.37842
 Alpha virt. eigenvalues --    2.37963   2.38235   2.38576   2.39125   2.39279
 Alpha virt. eigenvalues --    2.39779   2.39980   2.40318   2.40864   2.40936
 Alpha virt. eigenvalues --    2.41638   2.42192   2.42746   2.43243   2.43298
 Alpha virt. eigenvalues --    2.43580   2.43877   2.44347   2.44428   2.44674
 Alpha virt. eigenvalues --    2.44813   2.45077   2.45784   2.45968   2.46308
 Alpha virt. eigenvalues --    2.46755   2.46825   2.47067   2.47791   2.48056
 Alpha virt. eigenvalues --    2.48178   2.48642   2.48968   2.49196   2.49276
 Alpha virt. eigenvalues --    2.49706   2.49893   2.50026   2.50426   2.51062
 Alpha virt. eigenvalues --    2.51194   2.51461   2.51647   2.52191   2.52391
 Alpha virt. eigenvalues --    2.52668   2.52843   2.53212   2.53283   2.53848
 Alpha virt. eigenvalues --    2.54104   2.54188   2.54525   2.54828   2.54923
 Alpha virt. eigenvalues --    2.55341   2.55672   2.55766   2.56070   2.56569
 Alpha virt. eigenvalues --    2.56996   2.57128   2.57548   2.57578   2.58260
 Alpha virt. eigenvalues --    2.58570   2.58996   2.59176   2.59347   2.59415
 Alpha virt. eigenvalues --    2.59855   2.60311   2.60662   2.60823   2.61221
 Alpha virt. eigenvalues --    2.61348   2.62000   2.62606   2.62818   2.62943
 Alpha virt. eigenvalues --    2.63502   2.63654   2.64015   2.64083   2.64588
 Alpha virt. eigenvalues --    2.64711   2.65039   2.65535   2.66005   2.66141
 Alpha virt. eigenvalues --    2.66291   2.66725   2.67194   2.67634   2.67914
 Alpha virt. eigenvalues --    2.68174   2.68537   2.68934   2.69534   2.69606
 Alpha virt. eigenvalues --    2.69784   2.69973   2.70436   2.70916   2.70993
 Alpha virt. eigenvalues --    2.71181   2.71648   2.71701   2.72492   2.72693
 Alpha virt. eigenvalues --    2.72941   2.73223   2.73497   2.73766   2.74036
 Alpha virt. eigenvalues --    2.74382   2.74587   2.74820   2.74941   2.75527
 Alpha virt. eigenvalues --    2.75828   2.76282   2.76572   2.76660   2.77168
 Alpha virt. eigenvalues --    2.77464   2.77630   2.77939   2.78194   2.78556
 Alpha virt. eigenvalues --    2.79089   2.79253   2.79470   2.79965   2.80729
 Alpha virt. eigenvalues --    2.80856   2.80991   2.81580   2.82052   2.82085
 Alpha virt. eigenvalues --    2.82546   2.82873   2.83090   2.83187   2.83386
 Alpha virt. eigenvalues --    2.83570   2.84031   2.84199   2.84357   2.85013
 Alpha virt. eigenvalues --    2.85332   2.85565   2.86056   2.86550   2.86818
 Alpha virt. eigenvalues --    2.86973   2.87443   2.87950   2.88204   2.88401
 Alpha virt. eigenvalues --    2.88674   2.88990   2.89293   2.89652   2.89877
 Alpha virt. eigenvalues --    2.89969   2.90310   2.90561   2.91295   2.92121
 Alpha virt. eigenvalues --    2.92369   2.92633   2.93135   2.93307   2.93439
 Alpha virt. eigenvalues --    2.93853   2.94012   2.94304   2.95204   2.95447
 Alpha virt. eigenvalues --    2.95770   2.95899   2.96060   2.96403   2.96663
 Alpha virt. eigenvalues --    2.96803   2.97512   2.97577   2.97867   2.98237
 Alpha virt. eigenvalues --    2.98382   2.98564   2.98970   2.99210   2.99595
 Alpha virt. eigenvalues --    2.99737   3.00041   3.00309   3.00447   3.00653
 Alpha virt. eigenvalues --    3.00858   3.01129   3.01451   3.01742   3.01821
 Alpha virt. eigenvalues --    3.02203   3.02453   3.03017   3.03153   3.03182
 Alpha virt. eigenvalues --    3.03606   3.03750   3.03932   3.04155   3.04742
 Alpha virt. eigenvalues --    3.05055   3.05399   3.05420   3.05637   3.06130
 Alpha virt. eigenvalues --    3.06287   3.06432   3.06700   3.07274   3.07437
 Alpha virt. eigenvalues --    3.07603   3.08069   3.08199   3.08344   3.08540
 Alpha virt. eigenvalues --    3.08903   3.09335   3.09716   3.09863   3.09945
 Alpha virt. eigenvalues --    3.10626   3.10819   3.11121   3.11414   3.11457
 Alpha virt. eigenvalues --    3.12008   3.12223   3.12289   3.12779   3.13009
 Alpha virt. eigenvalues --    3.13509   3.13674   3.14064   3.14092   3.14547
 Alpha virt. eigenvalues --    3.14770   3.14920   3.15324   3.15762   3.15893
 Alpha virt. eigenvalues --    3.16143   3.16489   3.16600   3.16785   3.17163
 Alpha virt. eigenvalues --    3.17353   3.17514   3.17688   3.17945   3.18128
 Alpha virt. eigenvalues --    3.18498   3.18584   3.19180   3.19251   3.19546
 Alpha virt. eigenvalues --    3.19629   3.20020   3.20382   3.20585   3.20782
 Alpha virt. eigenvalues --    3.20985   3.21217   3.21697   3.22140   3.22270
 Alpha virt. eigenvalues --    3.22580   3.22781   3.22992   3.23267   3.23474
 Alpha virt. eigenvalues --    3.23790   3.24083   3.24315   3.24701   3.24895
 Alpha virt. eigenvalues --    3.25254   3.25357   3.25705   3.25728   3.26016
 Alpha virt. eigenvalues --    3.26428   3.26610   3.26761   3.26837   3.27230
 Alpha virt. eigenvalues --    3.27298   3.27593   3.27812   3.28179   3.28563
 Alpha virt. eigenvalues --    3.28638   3.28952   3.29222   3.29392   3.29416
 Alpha virt. eigenvalues --    3.29775   3.29899   3.30332   3.30513   3.30743
 Alpha virt. eigenvalues --    3.30943   3.31224   3.31483   3.31758   3.31816
 Alpha virt. eigenvalues --    3.32171   3.32251   3.32495   3.32737   3.32964
 Alpha virt. eigenvalues --    3.33114   3.33416   3.33704   3.33858   3.34065
 Alpha virt. eigenvalues --    3.34528   3.34675   3.34898   3.35281   3.35524
 Alpha virt. eigenvalues --    3.35995   3.36253   3.36383   3.36689   3.37113
 Alpha virt. eigenvalues --    3.37512   3.37665   3.38123   3.38312   3.38681
 Alpha virt. eigenvalues --    3.38921   3.39130   3.39568   3.39796   3.39942
 Alpha virt. eigenvalues --    3.40012   3.40608   3.40774   3.41053   3.41454
 Alpha virt. eigenvalues --    3.41625   3.41924   3.42033   3.42192   3.42813
 Alpha virt. eigenvalues --    3.43039   3.43415   3.43943   3.44071   3.44458
 Alpha virt. eigenvalues --    3.44800   3.45225   3.45748   3.46120   3.46494
 Alpha virt. eigenvalues --    3.46787   3.46924   3.47192   3.47277   3.47625
 Alpha virt. eigenvalues --    3.48139   3.48360   3.48545   3.49260   3.49412
 Alpha virt. eigenvalues --    3.49676   3.49962   3.50125   3.50604   3.51041
 Alpha virt. eigenvalues --    3.51358   3.51823   3.51959   3.52254   3.52723
 Alpha virt. eigenvalues --    3.53133   3.53806   3.54049   3.54349   3.54609
 Alpha virt. eigenvalues --    3.54753   3.55092   3.55303   3.55691   3.56055
 Alpha virt. eigenvalues --    3.56249   3.56534   3.57585   3.57871   3.58021
 Alpha virt. eigenvalues --    3.58280   3.58990   3.59148   3.59468   3.59709
 Alpha virt. eigenvalues --    3.59991   3.60211   3.61087   3.61135   3.61384
 Alpha virt. eigenvalues --    3.61662   3.61872   3.62744   3.62899   3.63307
 Alpha virt. eigenvalues --    3.63806   3.64133   3.64393   3.64647   3.64988
 Alpha virt. eigenvalues --    3.65425   3.65818   3.66008   3.66145   3.66719
 Alpha virt. eigenvalues --    3.66975   3.67534   3.68028   3.68334   3.68685
 Alpha virt. eigenvalues --    3.69048   3.69181   3.69447   3.69619   3.70421
 Alpha virt. eigenvalues --    3.70847   3.71130   3.71205   3.71620   3.72381
 Alpha virt. eigenvalues --    3.72742   3.73528   3.74009   3.74513   3.74676
 Alpha virt. eigenvalues --    3.75191   3.75593   3.75947   3.76411   3.76598
 Alpha virt. eigenvalues --    3.76740   3.76844   3.77234   3.77672   3.78130
 Alpha virt. eigenvalues --    3.78372   3.78891   3.79496   3.79839   3.80093
 Alpha virt. eigenvalues --    3.81165   3.81326   3.81675   3.81850   3.82043
 Alpha virt. eigenvalues --    3.82721   3.83375   3.83814   3.84331   3.84794
 Alpha virt. eigenvalues --    3.85026   3.85656   3.85897   3.86173   3.86653
 Alpha virt. eigenvalues --    3.87023   3.87431   3.87908   3.88062   3.88507
 Alpha virt. eigenvalues --    3.88788   3.89322   3.89610   3.90062   3.90167
 Alpha virt. eigenvalues --    3.90621   3.91163   3.91710   3.92102   3.92613
 Alpha virt. eigenvalues --    3.92637   3.93168   3.93696   3.94422   3.95034
 Alpha virt. eigenvalues --    3.95973   3.96145   3.96746   3.96885   3.97800
 Alpha virt. eigenvalues --    3.98463   3.98674   3.99158   4.00406   4.00731
 Alpha virt. eigenvalues --    4.00945   4.01692   4.01833   4.03410   4.03896
 Alpha virt. eigenvalues --    4.04360   4.04832   4.05308   4.06133   4.06463
 Alpha virt. eigenvalues --    4.06909   4.07128   4.08157   4.08585   4.09037
 Alpha virt. eigenvalues --    4.09416   4.10089   4.10472   4.11257   4.11444
 Alpha virt. eigenvalues --    4.11921   4.12368   4.12982   4.13531   4.13935
 Alpha virt. eigenvalues --    4.14374   4.14634   4.14968   4.15358   4.16388
 Alpha virt. eigenvalues --    4.16841   4.16928   4.17488   4.18018   4.18807
 Alpha virt. eigenvalues --    4.19008   4.19790   4.20174   4.21101   4.21527
 Alpha virt. eigenvalues --    4.21939   4.23074   4.23710   4.24192   4.24392
 Alpha virt. eigenvalues --    4.24927   4.25236   4.25632   4.26550   4.26669
 Alpha virt. eigenvalues --    4.26950   4.27240   4.27450   4.27853   4.28446
 Alpha virt. eigenvalues --    4.28901   4.29437   4.29932   4.30252   4.30982
 Alpha virt. eigenvalues --    4.31118   4.32196   4.32437   4.32653   4.33204
 Alpha virt. eigenvalues --    4.33639   4.33717   4.34276   4.35291   4.36665
 Alpha virt. eigenvalues --    4.36857   4.37253   4.37934   4.38067   4.38319
 Alpha virt. eigenvalues --    4.39041   4.39958   4.40255   4.40860   4.41353
 Alpha virt. eigenvalues --    4.41956   4.42391   4.42631   4.42995   4.43662
 Alpha virt. eigenvalues --    4.43738   4.44413   4.45185   4.46557   4.47183
 Alpha virt. eigenvalues --    4.47774   4.48000   4.48518   4.50096   4.50299
 Alpha virt. eigenvalues --    4.50619   4.51785   4.52480   4.52524   4.53491
 Alpha virt. eigenvalues --    4.54168   4.54487   4.55298   4.55889   4.56309
 Alpha virt. eigenvalues --    4.57077   4.57380   4.58367   4.58628   4.59159
 Alpha virt. eigenvalues --    4.59613   4.60830   4.61258   4.61726   4.62248
 Alpha virt. eigenvalues --    4.62470   4.63266   4.63928   4.64304   4.64846
 Alpha virt. eigenvalues --    4.65025   4.66872   4.67525   4.67643   4.67951
 Alpha virt. eigenvalues --    4.68346   4.68763   4.69202   4.70139   4.71137
 Alpha virt. eigenvalues --    4.71437   4.72235   4.72850   4.73598   4.73819
 Alpha virt. eigenvalues --    4.74934   4.75492   4.75818   4.76941   4.77418
 Alpha virt. eigenvalues --    4.77760   4.78896   4.79047   4.80272   4.80460
 Alpha virt. eigenvalues --    4.80825   4.81633   4.82424   4.83463   4.83869
 Alpha virt. eigenvalues --    4.84075   4.84876   4.85109   4.86136   4.87032
 Alpha virt. eigenvalues --    4.87978   4.89217   4.89644   4.90256   4.91231
 Alpha virt. eigenvalues --    4.92042   4.92564   4.92910   4.93639   4.94799
 Alpha virt. eigenvalues --    4.95615   4.95799   4.96298   4.96930   4.98605
 Alpha virt. eigenvalues --    4.99409   5.00604   5.01723   5.02582   5.03541
 Alpha virt. eigenvalues --    5.07417   5.08224   5.08607   5.09817   5.10600
 Alpha virt. eigenvalues --    5.10752   5.11249   5.12138   5.13263   5.13741
 Alpha virt. eigenvalues --    5.14790   5.15250   5.15573   5.15797   5.16204
 Alpha virt. eigenvalues --    5.16346   5.16811   5.17632   5.18940   5.20261
 Alpha virt. eigenvalues --    5.21960   5.23208   5.23721   5.24150   5.25538
 Alpha virt. eigenvalues --    5.25946   5.26439   5.27195   5.28167   5.28707
 Alpha virt. eigenvalues --    5.30338   5.31114   5.33149   5.34467   5.36635
 Alpha virt. eigenvalues --    5.37015   5.37682   5.37944   5.38858   5.40365
 Alpha virt. eigenvalues --    5.40798   5.40986   5.42186   5.43579   5.45916
 Alpha virt. eigenvalues --    5.48169   5.48297   5.50308   5.50715   5.51351
 Alpha virt. eigenvalues --    5.51516   5.52529   5.52746   5.53209   5.54065
 Alpha virt. eigenvalues --    5.54800   5.55170   5.55609   5.55772   5.58331
 Alpha virt. eigenvalues --    5.62312   5.64819   5.68322   5.69545   5.72312
 Alpha virt. eigenvalues --    5.72862   5.73500   5.74614   5.75889   5.83842
 Alpha virt. eigenvalues --    5.85466   5.86969   5.87752   5.88823   5.88855
 Alpha virt. eigenvalues --    5.89903   5.91303   5.92843   5.93486   5.98887
 Alpha virt. eigenvalues --    5.99956   6.00982   6.02378   6.03658   6.03999
 Alpha virt. eigenvalues --    6.05319   6.06833   6.08605   6.10451   6.11724
 Alpha virt. eigenvalues --    6.17980   6.20434   6.20912   6.21857   6.26566
 Alpha virt. eigenvalues --    6.26700   6.27863   6.28507   6.33934   6.36448
 Alpha virt. eigenvalues --    6.38280   6.40001   6.44290   6.45492   6.58660
 Alpha virt. eigenvalues --    6.59488   6.67542   6.69669   6.74786   6.78233
 Alpha virt. eigenvalues --    6.83847   6.87894   6.94907   7.00450   7.04954
 Alpha virt. eigenvalues --    7.07831   7.12303   7.13860   7.19084   7.26574
 Alpha virt. eigenvalues --    9.19569   9.41140   9.53206  20.03642  22.39357
 Alpha virt. eigenvalues --   22.42053  22.43120  22.44681  22.45825  22.46454
 Alpha virt. eigenvalues --   22.46666  22.47109  22.47592  22.48674  22.52404
 Alpha virt. eigenvalues --   22.54188  22.56409  22.58571  22.59321  22.63803
 Alpha virt. eigenvalues --   22.73418  22.85598  22.86876  22.88326  22.88928
 Alpha virt. eigenvalues --   22.90842  22.98588  23.01764  23.05769  23.10804
 Alpha virt. eigenvalues --   23.15513  23.20512  23.21502  23.25867  23.30670
 Alpha virt. eigenvalues --   23.34571  23.43267  23.43484  23.45933  23.50624
 Alpha virt. eigenvalues --   23.54988  23.64078  23.68544  23.69970  23.80063
 Alpha virt. eigenvalues --   32.36984  32.74082  32.87898  32.95168  33.01563
 Alpha virt. eigenvalues --   33.07443  43.87497  43.89571  43.90031  43.92638
  Beta  occ. eigenvalues -- -256.53905 -89.12508 -30.27135 -26.10373 -26.10297
  Beta  occ. eigenvalues --  -26.10266 -19.34319 -19.32543 -19.25671 -19.23755
  Beta  occ. eigenvalues --  -14.54675 -14.49392 -14.47794 -14.47509 -14.47226
  Beta  occ. eigenvalues --  -14.47189 -10.42423 -10.42087 -10.38509 -10.35935
  Beta  occ. eigenvalues --  -10.35774 -10.35447 -10.35432 -10.35281 -10.35237
  Beta  occ. eigenvalues --  -10.35233 -10.35219 -10.35217 -10.33735 -10.33382
  Beta  occ. eigenvalues --  -10.33048 -10.32785 -10.32596 -10.32393 -10.32247
  Beta  occ. eigenvalues --  -10.32237 -10.32236 -10.32159 -10.31994 -10.31977
  Beta  occ. eigenvalues --  -10.31940 -10.31852 -10.31798 -10.31713 -10.31512
  Beta  occ. eigenvalues --  -10.30968 -10.30905 -10.30769 -10.30744 -10.30623
  Beta  occ. eigenvalues --  -10.30616 -10.30330 -10.30219 -10.29930 -10.29298
  Beta  occ. eigenvalues --  -10.28333 -10.28183  -8.10508  -6.04143  -6.03831
  Beta  occ. eigenvalues --   -6.03298  -3.56391  -2.30978  -2.30653  -2.30636
  Beta  occ. eigenvalues --   -1.25036  -1.24018  -1.16825  -1.10481  -1.08744
  Beta  occ. eigenvalues --   -1.07642  -1.07601  -1.07523  -1.06538  -1.02077
  Beta  occ. eigenvalues --   -0.94524  -0.94007  -0.93277  -0.92741  -0.92399
  Beta  occ. eigenvalues --   -0.92062  -0.91557  -0.91403  -0.91033  -0.88631
  Beta  occ. eigenvalues --   -0.88004  -0.86844  -0.86560  -0.86339  -0.86075
  Beta  occ. eigenvalues --   -0.83685  -0.82513  -0.82068  -0.81538  -0.81058
  Beta  occ. eigenvalues --   -0.79424  -0.78664  -0.78158  -0.76907  -0.76340
  Beta  occ. eigenvalues --   -0.76056  -0.75103  -0.73590  -0.73330  -0.72917
  Beta  occ. eigenvalues --   -0.72715  -0.72219  -0.70065  -0.69975  -0.68460
  Beta  occ. eigenvalues --   -0.66850  -0.65928  -0.65090  -0.65048  -0.63895
  Beta  occ. eigenvalues --   -0.62600  -0.62259  -0.61728  -0.60550  -0.59590
  Beta  occ. eigenvalues --   -0.59561  -0.59266  -0.59241  -0.58622  -0.58442
  Beta  occ. eigenvalues --   -0.58151  -0.58038  -0.57880  -0.57207  -0.57125
  Beta  occ. eigenvalues --   -0.56631  -0.56529  -0.55866  -0.55702  -0.54975
  Beta  occ. eigenvalues --   -0.54826  -0.54461  -0.54298  -0.54093  -0.53874
  Beta  occ. eigenvalues --   -0.53850  -0.53610  -0.53283  -0.53190  -0.52924
  Beta  occ. eigenvalues --   -0.52520  -0.52386  -0.52323  -0.52150  -0.51722
  Beta  occ. eigenvalues --   -0.51407  -0.51199  -0.51048  -0.50850  -0.50665
  Beta  occ. eigenvalues --   -0.50305  -0.50058  -0.49824  -0.49399  -0.49233
  Beta  occ. eigenvalues --   -0.49065  -0.48697  -0.48182  -0.48054  -0.47847
  Beta  occ. eigenvalues --   -0.47724  -0.47458  -0.47203  -0.47072  -0.46721
  Beta  occ. eigenvalues --   -0.46342  -0.46162  -0.45966  -0.45893  -0.45796
  Beta  occ. eigenvalues --   -0.45357  -0.45145  -0.44866  -0.44546  -0.43682
  Beta  occ. eigenvalues --   -0.43421  -0.43317  -0.43207  -0.42817  -0.42698
  Beta  occ. eigenvalues --   -0.42488  -0.41951  -0.41744  -0.40877  -0.40644
  Beta  occ. eigenvalues --   -0.38627  -0.38553  -0.38188  -0.36834  -0.35593
  Beta  occ. eigenvalues --   -0.35035  -0.34699  -0.34413  -0.34207  -0.33565
  Beta  occ. eigenvalues --   -0.33041  -0.29885  -0.29288
  Beta virt. eigenvalues --   -0.20234  -0.20016  -0.17922  -0.15984  -0.15668
  Beta virt. eigenvalues --   -0.12248  -0.10778  -0.09647  -0.08729  -0.07530
  Beta virt. eigenvalues --   -0.06726  -0.06498  -0.06114  -0.05870  -0.05325
  Beta virt. eigenvalues --   -0.05291  -0.04939  -0.04392  -0.03842  -0.03480
  Beta virt. eigenvalues --   -0.03224  -0.02827  -0.02478  -0.02268  -0.02190
  Beta virt. eigenvalues --   -0.01898  -0.01717  -0.01213  -0.00991  -0.00704
  Beta virt. eigenvalues --   -0.00551  -0.00469  -0.00013   0.00238   0.00294
  Beta virt. eigenvalues --    0.00683   0.01079   0.01091   0.01457   0.02106
  Beta virt. eigenvalues --    0.02247   0.02406   0.02654   0.02886   0.03248
  Beta virt. eigenvalues --    0.03295   0.03441   0.03728   0.03833   0.04026
  Beta virt. eigenvalues --    0.04298   0.04524   0.04591   0.04660   0.04851
  Beta virt. eigenvalues --    0.04943   0.05308   0.05555   0.05674   0.05786
  Beta virt. eigenvalues --    0.05943   0.06108   0.06349   0.06400   0.06514
  Beta virt. eigenvalues --    0.06715   0.06901   0.07037   0.07168   0.07292
  Beta virt. eigenvalues --    0.07632   0.07833   0.08000   0.08205   0.08569
  Beta virt. eigenvalues --    0.08672   0.08957   0.08960   0.09254   0.09526
  Beta virt. eigenvalues --    0.09763   0.10056   0.10389   0.10895   0.11089
  Beta virt. eigenvalues --    0.11189   0.11272   0.11669   0.11740   0.11894
  Beta virt. eigenvalues --    0.12041   0.12183   0.12340   0.12750   0.12780
  Beta virt. eigenvalues --    0.12947   0.13153   0.13502   0.13679   0.13843
  Beta virt. eigenvalues --    0.13873   0.14152   0.14372   0.14621   0.14807
  Beta virt. eigenvalues --    0.14905   0.15138   0.15264   0.15405   0.15739
  Beta virt. eigenvalues --    0.16044   0.16132   0.16236   0.16395   0.16596
  Beta virt. eigenvalues --    0.16783   0.17100   0.17175   0.17259   0.17393
  Beta virt. eigenvalues --    0.17502   0.17788   0.17832   0.18068   0.18499
  Beta virt. eigenvalues --    0.18717   0.18875   0.19196   0.19664   0.19789
  Beta virt. eigenvalues --    0.20013   0.20214   0.20429   0.20564   0.20825
  Beta virt. eigenvalues --    0.21187   0.21465   0.21519   0.21782   0.21909
  Beta virt. eigenvalues --    0.22196   0.22499   0.22794   0.22931   0.23201
  Beta virt. eigenvalues --    0.23315   0.23440   0.23561   0.23712   0.24199
  Beta virt. eigenvalues --    0.24521   0.24705   0.24988   0.25132   0.25353
  Beta virt. eigenvalues --    0.25579   0.25930   0.26090   0.26362   0.26786
  Beta virt. eigenvalues --    0.27247   0.27270   0.27372   0.27770   0.28024
  Beta virt. eigenvalues --    0.28081   0.28195   0.28390   0.28590   0.28907
  Beta virt. eigenvalues --    0.29222   0.29477   0.29567   0.29644   0.30017
  Beta virt. eigenvalues --    0.30381   0.30479   0.30623   0.30867   0.31064
  Beta virt. eigenvalues --    0.31285   0.31330   0.31574   0.31715   0.31795
  Beta virt. eigenvalues --    0.32033   0.32150   0.32236   0.32633   0.32694
  Beta virt. eigenvalues --    0.32895   0.33272   0.33503   0.33602   0.33758
  Beta virt. eigenvalues --    0.34001   0.34281   0.34466   0.34660   0.34675
  Beta virt. eigenvalues --    0.34811   0.35027   0.35223   0.35323   0.35412
  Beta virt. eigenvalues --    0.35693   0.35849   0.36146   0.36263   0.36505
  Beta virt. eigenvalues --    0.36650   0.36766   0.37039   0.37171   0.37309
  Beta virt. eigenvalues --    0.37484   0.37662   0.37716   0.37899   0.38103
  Beta virt. eigenvalues --    0.38150   0.38266   0.38356   0.38575   0.38811
  Beta virt. eigenvalues --    0.38915   0.38987   0.39261   0.39384   0.39608
  Beta virt. eigenvalues --    0.39683   0.39814   0.39920   0.40144   0.40320
  Beta virt. eigenvalues --    0.40437   0.40560   0.40767   0.41020   0.41221
  Beta virt. eigenvalues --    0.41304   0.41536   0.41723   0.41828   0.42001
  Beta virt. eigenvalues --    0.42140   0.42413   0.42611   0.42724   0.42918
  Beta virt. eigenvalues --    0.42953   0.43099   0.43143   0.43357   0.43622
  Beta virt. eigenvalues --    0.43835   0.44089   0.44376   0.44514   0.44719
  Beta virt. eigenvalues --    0.44814   0.44987   0.45122   0.45368   0.45521
  Beta virt. eigenvalues --    0.45777   0.45795   0.45966   0.46117   0.46245
  Beta virt. eigenvalues --    0.46443   0.46678   0.46793   0.47012   0.47231
  Beta virt. eigenvalues --    0.47579   0.47739   0.47892   0.48188   0.48308
  Beta virt. eigenvalues --    0.48525   0.48731   0.48982   0.49044   0.49467
  Beta virt. eigenvalues --    0.49659   0.49857   0.49908   0.50249   0.50514
  Beta virt. eigenvalues --    0.50618   0.50724   0.50938   0.51133   0.51436
  Beta virt. eigenvalues --    0.51761   0.52181   0.52308   0.52476   0.52646
  Beta virt. eigenvalues --    0.52827   0.52946   0.53381   0.53762   0.53825
  Beta virt. eigenvalues --    0.53959   0.54332   0.54638   0.54784   0.55176
  Beta virt. eigenvalues --    0.55329   0.55696   0.55985   0.56110   0.56322
  Beta virt. eigenvalues --    0.56658   0.57049   0.57271   0.57379   0.57697
  Beta virt. eigenvalues --    0.58107   0.58326   0.58550   0.58865   0.59366
  Beta virt. eigenvalues --    0.59471   0.59692   0.59834   0.60312   0.60444
  Beta virt. eigenvalues --    0.60765   0.60987   0.61139   0.61455   0.61529
  Beta virt. eigenvalues --    0.61982   0.62155   0.62445   0.62857   0.63040
[...]
  Beta virt. eigenvalues --    3.37326   3.37535   3.38004   3.38261   3.38354
  Beta virt. eigenvalues --    3.38601   3.38940   3.39054   3.39326   3.39472
  Beta virt. eigenvalues --    3.39661   3.39789   3.39984   3.40292   3.40442
  Beta virt. eigenvalues --    3.40540   3.40895   3.41063   3.41508   3.41678
  Beta virt. eigenvalues --    3.42080   3.42252   3.42543   3.42833   3.43167
  Beta virt. eigenvalues --    3.43573   3.43729   3.43912   3.44079   3.44446
  Beta virt. eigenvalues --    3.45121   3.45189   3.45690   3.45985   3.46342
  Beta virt. eigenvalues --    3.46600   3.46654   3.47265   3.47284   3.47497
  Beta virt. eigenvalues --    3.47673   3.48112   3.48486   3.48575   3.48971
  Beta virt. eigenvalues --    3.49198   3.49371   3.49780   3.49863   3.50405
  Beta virt. eigenvalues --    3.50419   3.51034   3.51415   3.51714   3.52004
  Beta virt. eigenvalues --    3.52458   3.52772   3.53069   3.53799   3.54155
  Beta virt. eigenvalues --    3.54377   3.54575   3.54843   3.54937   3.55186
  Beta virt. eigenvalues --    3.55781   3.55964   3.56269   3.56789   3.57044
  Beta virt. eigenvalues --    3.57161   3.57593   3.57978   3.58015   3.58349
  Beta virt. eigenvalues --    3.58798   3.59389   3.59629   3.59857   3.60684
  Beta virt. eigenvalues --    3.60879   3.61606   3.61772   3.62109   3.62422
  Beta virt. eigenvalues --    3.62508   3.62749   3.63002   3.63599   3.63699
  Beta virt. eigenvalues --    3.64012   3.64472   3.65262   3.65586   3.65774
  Beta virt. eigenvalues --    3.66086   3.66677   3.67087   3.67247   3.67522
  Beta virt. eigenvalues --    3.67752   3.67923   3.68765   3.68919   3.68999
  Beta virt. eigenvalues --    3.69324   3.69776   3.70430   3.70498   3.71006
  Beta virt. eigenvalues --    3.71579   3.71787   3.72147   3.72706   3.72854
  Beta virt. eigenvalues --    3.73346   3.73427   3.74000   3.74134   3.74497
  Beta virt. eigenvalues --    3.74739   3.75476   3.75881   3.76234   3.76346
  Beta virt. eigenvalues --    3.76822   3.77069   3.77220   3.77750   3.78235
  Beta virt. eigenvalues --    3.78676   3.78792   3.78910   3.79369   3.80140
  Beta virt. eigenvalues --    3.80470   3.81183   3.82000   3.82301   3.82447
  Beta virt. eigenvalues --    3.82945   3.83211   3.83588   3.84090   3.84207
  Beta virt. eigenvalues --    3.84322   3.85027   3.85085   3.85524   3.85746
  Beta virt. eigenvalues --    3.86643   3.87137   3.87525   3.88110   3.88268
  Beta virt. eigenvalues --    3.89060   3.89632   3.89894   3.90059   3.90241
  Beta virt. eigenvalues --    3.91668   3.91872   3.92254   3.92798   3.93012
  Beta virt. eigenvalues --    3.93528   3.93903   3.94459   3.94756   3.95052
  Beta virt. eigenvalues --    3.95292   3.96043   3.96101   3.96516   3.97132
  Beta virt. eigenvalues --    3.97178   3.97971   3.98080   3.98627   3.99450
  Beta virt. eigenvalues --    3.99837   4.00464   4.00784   4.01248   4.01447
  Beta virt. eigenvalues --    4.01685   4.02729   4.03008   4.03673   4.04070
  Beta virt. eigenvalues --    4.04777   4.05225   4.05689   4.06274   4.06508
  Beta virt. eigenvalues --    4.07487   4.08226   4.08699   4.09102   4.09627
  Beta virt. eigenvalues --    4.09983   4.11133   4.11996   4.12539   4.12764
  Beta virt. eigenvalues --    4.13336   4.13389   4.14266   4.15242   4.15623
  Beta virt. eigenvalues --    4.15802   4.16062   4.16760   4.17024   4.17594
  Beta virt. eigenvalues --    4.18096   4.18773   4.18898   4.19231   4.19581
  Beta virt. eigenvalues --    4.20748   4.21020   4.21466   4.21954   4.22265
  Beta virt. eigenvalues --    4.22704   4.23772   4.24123   4.24239   4.25217
  Beta virt. eigenvalues --    4.25442   4.25761   4.26766   4.27235   4.27713
  Beta virt. eigenvalues --    4.28329   4.29143   4.29323   4.29673   4.30700
  Beta virt. eigenvalues --    4.31375   4.31986   4.32051   4.32318   4.32419
  Beta virt. eigenvalues --    4.33034   4.33092   4.33815   4.34492   4.34773
  Beta virt. eigenvalues --    4.35020   4.35278   4.36084   4.36374   4.36523
  Beta virt. eigenvalues --    4.36645   4.37613   4.37926   4.38075   4.38689
  Beta virt. eigenvalues --    4.39182   4.40158   4.40694   4.41413   4.41528
  Beta virt. eigenvalues --    4.41974   4.42898   4.43116   4.43239   4.44800
  Beta virt. eigenvalues --    4.44829   4.45575   4.45981   4.46411   4.46870
  Beta virt. eigenvalues --    4.47698   4.47880   4.48261   4.48814   4.49024
  Beta virt. eigenvalues --    4.49304   4.49652   4.50502   4.50862   4.51443
  Beta virt. eigenvalues --    4.51924   4.52350   4.52821   4.54134   4.54807
  Beta virt. eigenvalues --    4.55384   4.55436   4.56251   4.57797   4.57916
  Beta virt. eigenvalues --    4.58255   4.58934   4.59927   4.60120   4.61055
  Beta virt. eigenvalues --    4.61503   4.62096   4.62873   4.63667   4.64177
  Beta virt. eigenvalues --    4.64890   4.65181   4.66103   4.66707   4.67092
  Beta virt. eigenvalues --    4.67622   4.68828   4.69180   4.69514   4.70094
  Beta virt. eigenvalues --    4.70746   4.71289   4.71852   4.71989   4.72670
  Beta virt. eigenvalues --    4.73084   4.74506   4.75042   4.75254   4.75505
  Beta virt. eigenvalues --    4.75725   4.76564   4.76900   4.77703   4.78712
  Beta virt. eigenvalues --    4.79412   4.80017   4.80762   4.81378   4.82029
  Beta virt. eigenvalues --    4.83222   4.83492   4.83685   4.84848   4.85158
  Beta virt. eigenvalues --    4.85595   4.86505   4.87069   4.88097   4.88466
  Beta virt. eigenvalues --    4.89046   4.89643   4.90513   4.91184   4.91867
  Beta virt. eigenvalues --    4.91961   4.92705   4.92963   4.93917   4.94700
  Beta virt. eigenvalues --    4.96012   4.97036   4.97579   4.98125   4.99235
  Beta virt. eigenvalues --    5.00111   5.00472   5.00824   5.01687   5.02981
  Beta virt. eigenvalues --    5.03516   5.03654   5.04100   5.05063   5.06638
  Beta virt. eigenvalues --    5.07193   5.08636   5.09834   5.10229   5.11682
  Beta virt. eigenvalues --    5.15138   5.15734   5.16147   5.16458   5.16690
  Beta virt. eigenvalues --    5.17714   5.18771   5.18901   5.20079   5.20537
  Beta virt. eigenvalues --    5.21974   5.22189   5.22561   5.23140   5.23631
  Beta virt. eigenvalues --    5.23794   5.24565   5.24809   5.27158   5.28423
  Beta virt. eigenvalues --    5.29060   5.30302   5.31515   5.31947   5.32913
  Beta virt. eigenvalues --    5.33614   5.34134   5.34990   5.36196   5.36721
  Beta virt. eigenvalues --    5.38571   5.39021   5.41171   5.42275   5.43413
  Beta virt. eigenvalues --    5.44918   5.45568   5.45867   5.46100   5.46785
  Beta virt. eigenvalues --    5.48264   5.48842   5.50276   5.52056   5.54215
  Beta virt. eigenvalues --    5.56012   5.56809   5.57113   5.58012   5.58311
  Beta virt. eigenvalues --    5.58534   5.59029   5.59602   5.60875   5.61315
  Beta virt. eigenvalues --    5.61773   5.62686   5.63018   5.63905   5.66603
  Beta virt. eigenvalues --    5.70755   5.72876   5.76144   5.77278   5.77768
  Beta virt. eigenvalues --    5.78802   5.81731   5.82452   5.83777   5.91883
  Beta virt. eigenvalues --    5.93414   5.93788   5.95205   5.95389   5.96717
  Beta virt. eigenvalues --    5.96861   5.99548   6.00968   6.01422   6.04312
  Beta virt. eigenvalues --    6.08267   6.09519   6.09763   6.10916   6.12294
  Beta virt. eigenvalues --    6.12625   6.13834   6.16586   6.17594   6.18948
  Beta virt. eigenvalues --    6.25983   6.26281   6.28245   6.29681   6.32527
  Beta virt. eigenvalues --    6.33186   6.34307   6.34354   6.40099   6.41994
  Beta virt. eigenvalues --    6.43473   6.45745   6.49900   6.50809   6.64897
  Beta virt. eigenvalues --    6.65113   6.73179   6.75545   6.79848   6.83621
  Beta virt. eigenvalues --    6.89153   6.93804   6.99978   7.06324   7.10195
  Beta virt. eigenvalues --    7.13803   7.18052   7.19012   7.25083   7.32427
  Beta virt. eigenvalues --    9.27415   9.49018   9.60956  20.11416  22.47132
  Beta virt. eigenvalues --   22.49485  22.50575  22.52039  22.53383  22.54061
  Beta virt. eigenvalues --   22.54682  22.55022  22.55456  22.56283  22.59523
  Beta virt. eigenvalues --   22.60890  22.63957  22.66116  22.66892  22.71014
  Beta virt. eigenvalues --   22.81662  22.93153  22.94424  22.95892  22.96426
  Beta virt. eigenvalues --   22.98486  23.06264  23.09412  23.14059  23.18449
  Beta virt. eigenvalues --   23.23068  23.28055  23.29056  23.34094  23.38243
  Beta virt. eigenvalues --   23.42093  23.49447  23.51024  23.52881  23.57719
  Beta virt. eigenvalues --   23.61224  23.71527  23.76069  23.77441  23.87613
  Beta virt. eigenvalues --   32.45692  32.82429  32.95746  33.03043  33.09431
  Beta virt. eigenvalues --   33.15352  43.92545  43.95324  43.95799  43.98870
          Condensed to atoms (all electrons):
          Atomic-Atomic Spin Densities.
 Mulliken charges and spin densities:
               1          2
     1  C   -0.386196   0.000767
     2  C    0.130715   0.005158
     3  N   -0.202504   0.004993
     4  C   -0.219389   0.002134
     5  C    0.013090   0.007253
     6  N    0.034699   0.052358
     7  C   -0.374214  -0.001542
     8  C   -0.153548   0.002870
     9  S   -0.015467   0.113501
    10  C   -0.386879   0.000194
    11  Fe  -0.272671   4.360124
    12  C   -0.548056  -0.021299
    13  C   -0.555933  -0.019061
    14  C   -0.512660  -0.020247
    15  C   -0.533618  -0.025163
    16  N    0.013861   0.046241
    17  C    0.275570   0.023152
    18  C    0.004025   0.015342
    19  C   -0.087175   0.017442
    20  C    0.321990   0.020449
    21  C   -0.440289   0.000568
    22  C   -0.309766  -0.000274
    23  C   -0.190748   0.000594
    24  C    0.278908   0.000036
    25  O   -0.454467   0.000113
    26  O   -0.305713   0.000005
    27  N   -0.015458   0.049633
    28  C    0.216911   0.019635
    29  C   -0.051777   0.020734
    30  C   -0.037880   0.017831
    31  C    0.228300   0.022651
    32  C   -0.428262  -0.000201
    33  C   -0.174456   0.000272
    34  C   -0.420507   0.000692
    35  N   -0.051558   0.043670
    36  C    0.230700   0.017044
    37  C   -0.066124   0.018735
    38  C   -0.097200   0.015533
    39  C    0.406443   0.026883
    40  C   -0.415219  -0.000081
    41  C   -0.166070   0.000066
    42  C   -0.410611   0.000522
    43  N    0.023486   0.048460
    44  C    0.146347   0.022523
    45  C   -0.041444   0.019748
    46  C    0.051003   0.018591
    47  C    0.302792   0.025849
    48  C   -0.412482   0.000068
    49  C   -0.391411  -0.000619
    50  C   -0.156229   0.001045
    51  C    0.304061   0.000135
    52  O   -0.393037   0.000164
    53  O   -0.365474   0.000008
    54  H    0.160506   0.000113
    55  H    0.149365   0.000173
    56  H    0.161965   0.000073
    57  H    0.283857   0.001259
    58  H    0.176146   0.000783
    59  H    0.192080   0.000674
    60  H    0.138007   0.000315
    61  H    0.137117   0.000479
    62  H    0.123856   0.000587
    63  H    0.139295   0.002496
    64  H    0.161609   0.002121
    65  H    0.177126   0.000295
    66  H    0.159515   0.001105
    67  H    0.181653   0.003612
    68  H    0.160988   0.000448
    69  H    0.149265   0.000282
    70  H    0.153745   0.000610
    71  H    0.150554   0.000667
    72  H    0.149114   0.000039
    73  H    0.163338   0.000675
    74  H    0.155070   0.000474
    75  H    0.150582   0.000399
    76  H    0.135983   0.000351
    77  H    0.148699   0.000026
    78  H    0.143876  -0.000001
    79  H    0.162572   0.000391
    80  H    0.151787   0.000358
    81  H    0.159311   0.000907
    82  H    0.140148   0.000519
    83  H    0.117859  -0.000012
    84  H    0.140315   0.000142
    85  H    0.135098   0.000024
    86  H    0.144943   0.000074
    87  H    0.145552   0.000322
    88  H    0.161060   0.000673
    89  H    0.154112   0.000339
    90  H    0.136762   0.000585
    91  H    0.115210   0.000013
    92  H    0.140733   0.000158
    93  H    0.130823  -0.000032
    94  H    0.134297   0.000071
    95  H    0.144802   0.000408
    96  H    0.160489   0.000670
    97  H    0.160802   0.000450
    98  H    0.150901   0.000474
    99  H    0.128374   0.000162
   100  H    0.142512  -0.000024
   101  H    0.121766  -0.000051
   102  H    0.392868   0.000022
   103  H    0.385183   0.000004
 Sum of Mulliken charges =   1.00000   5.00000
 Mulliken charges and spin densities with hydrogens summed into heavy atoms:
               1          2
     1  C    0.085640   0.001125
     2  C    0.130715   0.005158
     3  N    0.081353   0.006252
     4  C   -0.043243   0.002917
     5  C    0.205170   0.007927
     6  N    0.034699   0.052358
     7  C    0.024766  -0.000162
     8  C    0.147356   0.007487
     9  S   -0.015467   0.113501
    10  C    0.131416   0.005207
    11  Fe  -0.272671   4.360124
    12  C   -0.387068  -0.020851
    13  C   -0.406668  -0.018779
    14  C   -0.358915  -0.019637
    15  C   -0.383065  -0.024496
    16  N    0.013861   0.046241
    17  C    0.275570   0.023152
    18  C    0.004025   0.015342
    19  C   -0.087175   0.017442
    20  C    0.321990   0.020449
    21  C    0.027234   0.001756
    22  C   -0.023201   0.000476
    23  C    0.101826   0.000619
    24  C    0.278908   0.000036
    25  O   -0.454467   0.000113
    26  O    0.079471   0.000008
    27  N   -0.015458   0.049633
    28  C    0.216911   0.019635
    29  C   -0.051777   0.020734
    30  C   -0.037880   0.017831
    31  C    0.228300   0.022651
    32  C    0.045408   0.001455
    33  C    0.083551   0.000780
    34  C   -0.000151   0.000932
    35  N   -0.051558   0.043670
    36  C    0.230700   0.017044
    37  C   -0.066124   0.018735
    38  C   -0.097200   0.015533
    39  C    0.406443   0.026883
    40  C    0.045505   0.001254
    41  C    0.085903   0.000663
    42  C   -0.004758   0.000719
    43  N    0.023486   0.048460
    44  C    0.146347   0.022523
    45  C   -0.041444   0.019748
    46  C    0.051003   0.018591
    47  C    0.302792   0.025849
    48  C    0.053611   0.001596
    49  C   -0.112136   0.000017
    50  C    0.108049   0.000970
    51  C    0.304061   0.000135
    52  O   -0.393037   0.000164
    53  O    0.027394   0.000030
 Electronic spatial extent (au):  <R**2>=          34174.7523
 Charge=              1.0000 electrons
 Dipole moment (field-independent basis, Debye):
    X=              7.8054    Y=              3.9783    Z=              2.5731  Tot=              9.1308
 Quadrupole moment (field-independent basis, Debye-Ang):
   XX=           -282.0224   YY=           -252.8204   ZZ=           -286.5967
   XY=            -36.1930   XZ=              5.4758   YZ=             13.7747
 Traceless Quadrupole moment (field-independent basis, Debye-Ang):
   XX=             -8.2093   YY=             20.9928   ZZ=            -12.7835
   XY=            -36.1930   XZ=              5.4758   YZ=             13.7747
 Octapole moment (field-independent basis, Debye-Ang**2):
  XXX=            251.5858  YYY=            130.5718  ZZZ=            122.9108  XYY=            -32.4472
  XXY=            190.2128  XXZ=            -33.2853  XZZ=            139.3480  YZZ=             -5.6232
  YYZ=            -36.2400  XYZ=            -96.6480
 Hexadecapole moment (field-independent basis, Debye-Ang**3):
 XXXX=         -23091.1227 YYYY=         -13500.5883 ZZZZ=          -5097.3915 XXXY=          -1261.2327
 XXXZ=             89.8050 YYYX=          -1104.3376 YYYZ=            374.6711 ZZZX=            320.1184
 ZZZY=           -258.4434 XXYY=          -5485.0281 XXZZ=          -5613.4634 YYZZ=          -3622.8228
 XXYZ=            779.5779 YYXZ=            391.4039 ZZXY=           -275.6857
 N-N= 9.034406589294D+03 E-N=-2.715553492557D+04  KE= 3.870964933054D+03
 1\1\GINC-NODE411\SP\UPBE1PBE\def2TZVP\C41H50Fe1N6O4S1(1+,6)\KLEICH\12-
 Sep-2022\0\\# PBE1PBE/def2TZVP empiricaldispersion=GD3BJ int=(grid=ult
 rafine) geom=check guess=read scrf=(smd,solvent=Chloroform)\\1ctj_III_
 H_solv\\1,6\C,0,17.385,43.116,-18.171\C,0,16.646,44.283,-17.629\N,0,17
 .192,45.153,-16.726\C,0,15.354,44.655,-17.762\C,0,16.223,46.009,-16.35
 2\N,0,15.105,45.741,-16.934\C,0,11.228,50.126,-17.291\C,0,10.692,48.71
 6,-17.503\S,0,11.192,47.599,-16.165\C,0,9.859,46.393,-16.206\Fe,0,13.2
 58,46.586,-16.683\C,0,14.112,48.106,-13.777\C,0,12.342,43.796,-14.983\
 C,0,12.062,45.238,-19.575\C,0,14.539,49.179,-18.442\N,0,13.269,46.034,
 -14.737\C,0,13.692,46.802,-13.682\C,0,13.546,46.034,-12.457\C,0,13.036
 ,44.844,-12.789\C,0,12.842,44.823,-14.225\C,0,12.674,43.689,-11.857\C,
 0,14.032,46.507,-11.078\C,0,15.559,46.477,-10.964\C,0,16.109,47.3,-9.8
 07\O,0,17.303,47.008,-9.454\O,0,15.414,48.196,-9.329\N,0,12.373,44.867
 ,-17.193\C,0,12.092,43.817,-16.329\C,0,11.458,42.747,-17.065\C,0,11.31
 9,43.178,-18.339\C,0,11.877,44.496,-18.421\C,0,11.118,41.373,-16.491\C
 ,0,10.705,42.45,-19.528\C,0,9.207,42.154,-19.34\N,0,13.301,47.115,-18.
 61\C,0,12.79,46.403,-19.667\C,0,13.156,47.044,-20.932\C,0,13.92,48.097
 ,-20.624\C,0,13.987,48.168,-19.179\C,0,12.755,46.497,-22.32\C,0,14.747
 ,49.003,-21.545\C,0,13.915,49.773,-22.585\N,0,14.091,48.302,-16.212\C,
 0,14.53,49.3,-17.081\C,0,14.947,50.46,-16.332\C,0,14.756,50.189,-15.02
 4\C,0,14.305,48.819,-14.945\C,0,15.368,51.794,-16.965\C,0,14.943,51.15
 7,-13.855\C,0,13.661,51.997,-13.611\C,0,13.865,53.009,-12.515\O,0,14.0
 74,52.625,-11.351\O,0,13.718,54.197,-12.862\H,0,17.58804681,43.2734845
 9,-19.20968696\H,0,18.30719827,43.00025896,-17.6408544\H,0,16.79265016
 ,42.23272905,-18.05329656\H,0,18.13828841,45.15312787,-16.40267629\H,0
 ,14.63681319,44.18698821,-18.40348892\H,0,16.36341726,46.8114914,-15.6
 5832101\H,0,11.17812751,50.66872246,-18.21179589\H,0,10.63763839,50.62
 444342,-16.55077887\H,0,12.24474083,50.07527162,-16.9615084\H,0,11.159
 69794,48.34762147,-18.39207587\H,0,9.62580296,48.78911841,-17.45029742
 \H,0,10.14001742,45.53129306,-15.63732579\H,0,9.66920482,46.10545759,-
 17.21901389\H,0,8.97452668,46.82457433,-15.78605888\H,0,14.30862979,48
 .61907374,-12.85885401\H,0,12.1244658,42.88294577,-14.46927745\H,0,11.
 60078485,44.87594842,-20.47004148\H,0,15.02955358,49.95714664,-18.9885
 757\H,0,12.50518782,42.80417847,-12.43448879\H,0,11.78600637,43.934619
 2,-11.31290579\H,0,13.4772518,43.51921094,-11.1708089\H,0,13.66546159,
 45.79258497,-10.37077955\H,0,13.74644303,47.53500383,-10.99697323\H,0,
 15.92701028,46.94302578,-11.85410584\H,0,15.81523066,45.46108477,-10.7
 4683164\H,0,10.38304623,40.90038838,-17.1085607\H,0,10.73146261,41.486
 28266,-15.49970999\H,0,12.00130869,40.76979158,-16.46262126\H,0,11.190
 95593,41.49786943,-19.57484249\H,0,10.77138306,43.12579409,-20.3549193
 7\H,0,8.65935996,42.54257751,-20.17306536\H,0,9.05758506,41.0963582,-1
 9.277\H,0,8.86221801,42.61720064,-18.4391834\H,0,12.96412465,47.233390
 21,-23.0675937\H,0,13.31379432,45.60859605,-22.52829625\H,0,11.7093384
 1,46.27014788,-22.32547351\H,0,15.37919241,48.34722466,-22.10641914\H,
 0,15.17851579,49.74753713,-20.90910804\H,0,14.46884204,50.62228183,-22
 .92687624\H,0,13.69776571,49.13176613,-23.41357008\H,0,12.99971915,50.
 10050287,-22.13789505\H,0,15.41269502,52.54938278,-16.2084954\H,0,16.3
 3125485,51.68553259,-17.41807274\H,0,14.65343743,52.07672516,-17.70955
 814\H,0,15.7043967,51.84720662,-14.15297631\H,0,15.07973135,50.5536918
 1,-12.98194573\H,0,12.91693527,51.31477247,-13.25627012\H,0,13.4911769
 1,52.55481909,-14.50816106\H,0,14.4869676,54.74865685,-13.02313209\H,0
 ,15.82900403,48.9597727,-8.9215409\\Version=ES64L-G16RevA.03\State=6-A
 \HF=-3881.8017276\S2=8.759929\S2-1=0.\S2A=8.75003\RMSD=5.094e-09\Dipol
 e=0.2758733,-0.560629,-3.5375827\Quadrupole=-9.0061364,29.5137628,-20.
 5076264,14.6030328,-11.4672124,0.0554189\PG=C01 [X(C41H50Fe1N6O4S1)]\\
 @


 A FOOL CAN ASK MORE QUESTIONS THAN
 A WISE MAN CAN ANSWER.
 Job cpu time:       2 days 12 hours 52 minutes  7.7 seconds.
 Elapsed time:       0 days 15 hours 17 minutes 32.8 seconds.
 File lengths (MBytes):  RWF=   4409 Int=      0 D2E=      0 Chk=    298 Scr=      1
 Normal termination of Gaussian 16 at Mon Sep 12 14:17:17 2022.
