 Entering Gaussian System, Link 0=g16
 Input=/net/homes/chemie/zhartovska/work/BioModel/Konrad/1cmq/1cmq12/1cmq12.com
 Output=/net/homes/chemie/zhartovska/work/BioModel/Konrad/1cmq/1cmq12/1cmq12.log
 Initial command:
 /afs/math/software/gaussian/g16.A03/g16/l1.exe "/scratch/zhartovska_gaussian.MVOeN6Q/Gau-32563.inp" -scrdir="/scratch/zhartovska_gaussian.MVOeN6Q/"
 Entering Link 1 = /afs/math/software/gaussian/g16.A03/g16/l1.exe PID=     32564.
  
 Copyright (c) 1988,1990,1992,1993,1995,1998,2003,2009,2016,
            Gaussian, Inc.  All Rights Reserved.
  
 This is part of the Gaussian(R) 16 program.  It is based on
 the Gaussian(R) 09 system (copyright 2009, Gaussian, Inc.),
 the Gaussian(R) 03 system (copyright 2003, Gaussian, Inc.),
 the Gaussian(R) 98 system (copyright 1998, Gaussian, Inc.),
 the Gaussian(R) 94 system (copyright 1995, Gaussian, Inc.),
 the Gaussian 92(TM) system (copyright 1992, Gaussian, Inc.),
 the Gaussian 90(TM) system (copyright 1990, Gaussian, Inc.),
 the Gaussian 88(TM) system (copyright 1988, Gaussian, Inc.),
 the Gaussian 86(TM) system (copyright 1986, Carnegie Mellon
 University), and the Gaussian 82(TM) system (copyright 1983,
 Carnegie Mellon University). Gaussian is a federally registered
 trademark of Gaussian, Inc.
  
 This software contains proprietary and confidential information,
 including trade secrets, belonging to Gaussian, Inc.
  
 This software is provided under written license and may be
 used, copied, transmitted, or stored only in accord with that
 written license.
  
 The following legend is applicable only to US Government
 contracts under FAR:
  
                    RESTRICTED RIGHTS LEGEND
  
 Use, reproduction and disclosure by the US Government is
 subject to restrictions as set forth in subparagraphs (a)
 and (c) of the Commercial Computer Software - Restricted
 Rights clause in FAR 52.227-19.
  
 Gaussian, Inc.
 340 Quinnipiac St., Bldg. 40, Wallingford CT 06492
  
  
 ---------------------------------------------------------------
 Warning -- This program may not be used in any manner that
 competes with the business of Gaussian, Inc. or will provide
 assistance to any competitor of Gaussian, Inc.  The licensee
 of this program is prohibited from giving any competitor of
 Gaussian, Inc. access to this program.  By using this program,
 the user acknowledges that Gaussian, Inc. is engaged in the
 business of creating and licensing software in the field of
 computational chemistry and represents and warrants to the
 licensee that it is not a competitor of Gaussian, Inc. and that
 it will not use this program in any manner prohibited above.
 ---------------------------------------------------------------
  

 Cite this work as:
 Gaussian 16, Revision A.03,
 M. J. Frisch, G. W. Trucks, H. B. Schlegel, G. E. Scuseria, 
 M. A. Robb, J. R. Cheeseman, G. Scalmani, V. Barone, 
 G. A. Petersson, H. Nakatsuji, X. Li, M. Caricato, A. V. Marenich, 
 J. Bloino, B. G. Janesko, R. Gomperts, B. Mennucci, H. P. Hratchian, 
 J. V. Ortiz, A. F. Izmaylov, J. L. Sonnenberg, D. Williams-Young, 
 F. Ding, F. Lipparini, F. Egidi, J. Goings, B. Peng, A. Petrone, 
 T. Henderson, D. Ranasinghe, V. G. Zakrzewski, J. Gao, N. Rega, 
 G. Zheng, W. Liang, M. Hada, M. Ehara, K. Toyota, R. Fukuda, 
 J. Hasegawa, M. Ishida, T. Nakajima, Y. Honda, O. Kitao, H. Nakai, 
 T. Vreven, K. Throssell, J. A. Montgomery, Jr., J. E. Peralta, 
 F. Ogliaro, M. J. Bearpark, J. J. Heyd, E. N. Brothers, K. N. Kudin, 
 V. N. Staroverov, T. A. Keith, R. Kobayashi, J. Normand, 
 K. Raghavachari, A. P. Rendell, J. C. Burant, S. S. Iyengar, 
 J. Tomasi, M. Cossi, J. M. Millam, M. Klene, C. Adamo, R. Cammi, 
 J. W. Ochterski, R. L. Martin, K. Morokuma, O. Farkas, 
 J. B. Foresman, and D. J. Fox, Gaussian, Inc., Wallingford CT, 2016.
 
 ******************************************
 Gaussian 16:  ES64L-G16RevA.03 25-Dec-2016
                 8-Sep-2022 
 ******************************************
 %nprocs=12
 Will use up to   12 processors via shared memory.
 %mem=16GB
 %oldchk=1cmq_II_S.chk
 %chk=1cmq_III_D.chk
 Copying data from "1cmq_II_S.chk" to current chk file "1cmq_III_D.chk"
 IOpt=  2 FromEx=T IUOpen= 4 IOptOp= 5 NList=   0 IFRang= 0 IUIn= 4 IUOut= 2.
 ----------------------------------------------------------------------
 # PBE1PBE/def2TZVP empiricaldispersion=GD3BJ scf=maxcycle=999 geom=che
 ck pop=nbo
 ----------------------------------------------------------------------
 1/29=2,38=1,172=1/1;
 2/12=2,40=1/2;
 3/5=44,7=101,11=2,14=-4,25=1,30=1,74=-13,124=41/1,2,3;
 4//1;
 5/5=2,7=999,38=5/2;
 6/7=2,8=2,9=2,10=2,28=1,40=1/1,7;
 99/5=1,9=1/99;
 ----------
 1cmq_III_D
 ----------
 Structure from the checkpoint file:  "1cmq_III_D.chk"
 Charge =  1 Multiplicity = 2
 Z-Matrix found in chk file.
 C,0,-9.054,55.167999,107.806999
 C,0,-8.483,55.854,109.033997
 N,0,-9.094,56.655998,109.893997
 C,0,-7.189,55.75,109.502998
 C,0,-8.292,57.039001,110.848999
 N,0,-7.124,56.477001,110.595001
 H,0,-9.996,56.994999,109.786003
 C,0,-5.586,53.953999,112.992996
 C,0,-7.45,58.136002,114.417999
 C,0,-5.857,60.327,110.499001
 C,0,-3.574,56.296001,109.362999
 C,0,-6.312,54.890999,113.741997
 C,0,-6.804,54.659,115.013
 C,0,-7.365,55.868,115.435997
 C,0,-7.131,56.764,114.403999
 C,0,-8.109,56.148998,116.737
 C,0,-6.693,53.345001,115.777
 C,0,-5.471,53.191002,116.658997
 C,0,-5.385,51.824001,117.332001
 O,0,-6.221,51.484001,118.179001
 O,0,-4.472,51.056,117.025002
 C,0,-7.31,59.108002,113.417
 C,0,-7.86,60.397999,113.467003
 C,0,-7.432,61.004002,112.276001
 C,0,-6.623,60.075001,111.636002
 C,0,-8.733,60.909,114.617996
 C,0,-7.732,62.242001,111.709
 C,0,-8.708,63.185001,112.183998
 C,0,-5.015,59.43,109.825996
 C,0,-4.26,59.749001,108.697998
 C,0,-3.566,58.562,108.411003
 C,0,-3.984,57.624001,109.349998
 C,0,-4.158,61.146,108.060997
 C,0,-2.619,58.244999,107.426003
 C,0,-2.155,59.075001,106.356003
 C,0,-3.91,55.272999,110.214996
 C,0,-3.577,53.949001,110.002998
 C,0,-4.193,53.222,111.023003
 C,0,-4.837,54.186001,111.819
 C,0,-2.773,53.393002,108.838997
 C,0,-4.136,51.700001,111.188004
 C,0,-3.08,51.261002,112.223999
 C,0,-2.979,49.784,112.612
 O,0,-2.394,49.476002,113.651001
 O,0,-3.492,48.924,111.901001
 N,0,-6.57,56.157001,113.358002
 N,0,-6.673,58.889,112.253998
 N,0,-4.834,58.155998,110.217003
 N,0,-4.659,55.419998,111.303001
 O,0,-4.451,57.751999,113.419998
 H,0,-5.93214285,51.14295109,119.0286165
 H,0,-1.43439269,49.4681988,113.67732434
 H,0,-2.12285668,51.55856201,111.84951976
 H,0,-3.2638601,51.81455843,113.12103341
 H,0,-4.5955726,53.33478499,116.06078858
 H,0,-5.49744628,53.94573981,117.4170019
 H,0,-7.56221853,53.24409009,116.39277279
 H,0,-6.6922173,52.5458533,115.06547885
 H,0,-3.89858446,51.25792988,110.24296062
 H,0,-5.09667913,51.34966911,111.50306458
 H,0,-5.60144933,52.94645823,113.35288892
 H,0,-7.52042763,56.79775315,117.3514911
 H,0,-9.04562443,56.61776494,116.51815705
 H,0,-8.28302603,55.22865721,117.25428887
 H,0,-7.86458565,58.49280151,115.33762547
 H,0,-8.21820002,61.69092033,115.13614808
 H,0,-9.65420063,61.28698399,114.22631053
 H,0,-8.93620033,60.10591894,115.29524812
 H,0,-8.44303938,64.21475713,112.30357298
 H,0,-9.69925852,62.85698637,112.41790601
 H,0,-7.18146726,62.51755038,110.83385073
 H,0,-3.26262776,61.20784753,107.47843076
 H,0,-5.0060874,61.31323263,107.43037745
 H,0,-4.13435758,61.88834457,108.83123435
 H,0,-1.98183397,58.65307384,105.3880717
 H,0,-1.98133308,60.1173419,106.52412575
 H,0,-2.19227959,57.26531438,107.48102785
 H,0,-2.888209,56.02862901,108.58640198
 H,0,-1.84291279,53.00657052,109.20025659
 H,0,-3.32577544,52.60821669,108.36629061
 H,0,-2.58434412,54.17282893,108.13105709
 H,0,-3.59966867,58.19565988,113.419998
 H,0,-5.15306459,58.40675491,113.419998
 H,0,-6.3932281,55.18646861,109.0624535
 H,0,-8.53199326,57.67925965,111.67202518
 H,0,-8.37879846,54.40603207,107.47774336
 H,0,-9.99764983,54.7269206,108.05169237
 H,0,-9.18822415,55.88727254,107.02627533
 Fe,0,-5.683,57.139999,111.786003
 H,0,-5.91834286,61.31565263,110.09439868
 Recover connectivity data from disk.
 Stoichiometry    C38H40FeN6O5(1+,2)
 Framework group  C1[X(C38H40FeN6O5)]
 Deg. of freedom   264
 Full point group                 C1      NOp   1
 Largest Abelian subgroup         C1      NOp   1
 Largest concise Abelian subgroup C1      NOp   1
                         Standard orientation:                         
 ---------------------------------------------------------------------
 Center     Atomic      Atomic             Coordinates (Angstroms)
 Number     Number       Type             X           Y           Z
 ---------------------------------------------------------------------
      1          6           0       -1.476983   -1.891552    4.935873
      2          6           0       -1.465226   -1.011614    3.699858
      3          7           0       -1.921887    0.224389    3.558864
      4          6           0       -0.944368   -1.340893    2.464748
      5          6           0       -1.715160    0.679865    2.353986
      6          7           0       -1.116079   -0.293146    1.691465
      7          1           0       -2.428962    0.704496    4.231589
      8          6           0        2.413925    0.127313    0.333656
      9          6           0       -1.028379    3.417554   -0.231266
     10          6           0       -4.351611    0.040369   -0.728680
     11          6           0       -0.846614   -3.194579   -0.688065
     12          6           0        1.769904    1.371882    0.285366
     13          6           0        2.426948    2.587812    0.251575
     14          6           0        1.432536    3.559477    0.102105
     15          6           0        0.241079    2.856337    0.009276
     16          6           0        1.601841    5.074697    0.078660
     17          6           0        3.937469    2.777908    0.320853
     18          6           0        4.664881    2.804793   -1.007705
     19          6           0        6.179501    2.919952   -0.860439
     20          8           0        6.691792    3.944651   -0.391978
     21          8           0        6.893830    1.980354   -1.213328
     22          6           0       -2.290910    2.809805   -0.286389
     23          6           0       -3.513302    3.498102   -0.319525
     24          6           0       -4.480050    2.484451   -0.402101
     25          6           0       -3.782224    1.286374   -0.471190
     26          6           0       -3.634756    5.024333   -0.257041
     27          6           0       -5.873189    2.530694   -0.368079
     28          6           0       -6.682999    3.687341   -0.096373
     29          6           0       -3.690329   -1.192627   -0.823217
     30          6           0       -4.317373   -2.406926   -1.099727
     31          6           0       -3.261276   -3.332648   -1.125624
     32          6           0       -2.104584   -2.619713   -0.825515
     33          6           0       -5.810000   -2.583203   -1.429534
     34          6           0       -3.228699   -4.709898   -1.389530
     35          6           0       -4.336776   -5.582505   -1.634112
     36          6           0        0.363299   -2.618334   -0.389102
     37          6           0        1.508738   -3.332848   -0.095432
     38          6           0        2.477149   -2.392126    0.258996
     39          6           0        1.843613   -1.145145    0.113002
     40          6           0        1.652398   -4.845967   -0.078606
     41          6           0        3.909131   -2.713905    0.698133
     42          6           0        4.925449   -2.555662   -0.452171
     43          6           0        6.419729   -2.708444   -0.158804
     44          8           0        7.237300   -2.264535   -0.965732
     45          8           0        6.791391   -3.252007    0.877871
     46          7           0        0.436864    1.551236    0.198109
     47          7           0       -2.475838    1.479000   -0.253777
     48          7           0       -2.360889   -1.328241   -0.671804
     49          7           0        0.560528   -1.309324   -0.270960
     50          8           0       -0.577338    0.936398   -2.174946
     51          1           0        7.405909    4.382013   -0.861395
     52          1           0        7.425816   -2.748125   -1.773323
     53          1           0        4.672513   -3.275338   -1.202497
     54          1           0        4.781025   -1.582898   -0.873801
     55          1           0        4.439267    1.904931   -1.540854
     56          1           0        4.310821    3.639352   -1.576082
     57          1           0        4.133542    3.700619    0.825888
     58          1           0        4.346108    1.981810    0.907490
     59          1           0        3.943701   -3.722249    1.054431
     60          1           0        4.183148   -2.054928    1.495355
     61          1           0        3.458602    0.143905    0.564471
     62          1           0        1.390370    5.442053   -0.903801
     63          1           0        0.926395    5.519933    0.778973
     64          1           0        2.607561    5.325361    0.344356
     65          1           0       -1.029436    4.474438   -0.398283
     66          1           0       -4.018423    5.389949   -1.186570
     67          1           0       -4.300029    5.297042    0.535386
     68          1           0       -2.670623    5.451749   -0.076307
     69          1           0       -7.500011    3.932171   -0.742477
     70          1           0       -6.468611    4.303245    0.751919
     71          1           0       -6.390854    1.614868   -0.563490
     72          1           0       -5.952664   -3.503786   -1.955912
     73          1           0       -6.376283   -2.599909   -0.521820
     74          1           0       -6.138973   -1.768491   -2.040206
     75          1           0       -4.341206   -6.569998   -1.222119
     76          1           0       -5.160618   -5.247272   -2.228926
     77          1           0       -2.259363   -5.162497   -1.410543
     78          1           0       -0.816244   -4.253434   -0.839079
     79          1           0        2.313867   -5.150177   -0.862708
     80          1           0        2.051114   -5.155915    0.864716
     81          1           0        0.693341   -5.296954   -0.225983
     82          1           0       -0.820231    0.614317   -3.046076
     83          1           0       -1.283641    1.486824   -1.828873
     84          1           0       -0.489051   -2.269519    2.190450
     85          1           0       -1.977917    1.646658    1.978259
     86          1           0       -0.819676   -2.722833    4.788155
     87          1           0       -1.149137   -1.323454    5.781261
     88          1           0       -2.470426   -2.248908    5.109848
     89         26           0       -0.944616    0.095735   -0.246035
     90          1           0       -5.412085    0.022741   -0.870041
 ---------------------------------------------------------------------
 Rotational constants (GHZ):           0.0765482           0.0458069           0.0336276
 Standard basis: def2TZVP (5D, 7F)
 There are  2056 symmetry adapted cartesian basis functions of A   symmetry.
 There are  1804 symmetry adapted basis functions of A   symmetry.
  1804 basis functions,  2921 primitive gaussians,  2056 cartesian basis functions
   188 alpha electrons      187 beta electrons
       nuclear repulsion energy      7612.9516608368 Hartrees.
 NAtoms=   90 NActive=   90 NUniq=   90 SFac= 1.00D+00 NAtFMM=   60 NAOKFM=T Big=T
 Integral buffers will be    131072 words long.
 Raffenetti 2 integral format.
 Two-electron integral symmetry is turned on.
 Nuclear repulsion after empirical dispersion term =     7612.8261020233 Hartrees.
 One-electron integrals computed using PRISM.
   1 Symmetry operations used in ECPInt.
 ECPInt:  NShTT=  255255 NPrTT=  790653 LenC2=  185256 LenP2D=  372497.
 LDataN:  DoStor=T MaxTD1= 6 Len=  172
 NBasis=  1804 RedAO= T EigKep=  2.91D-06  NBF=  1804
 NBsUse=  1804 1.00D-06 EigRej= -1.00D+00 NBFU=  1804
 ExpMin= 4.20D-02 ExpMax= 3.01D+05 ExpMxC= 2.91D+03 IAcc=3 IRadAn=         5 AccDes= 0.00D+00
 Harris functional with IExCor= 1009 and IRadAn=       5 diagonalized for initial guess.
 HarFok:  IExCor= 1009 AccDes= 0.00D+00 IRadAn=         5 IDoV= 1 UseB2=F ITyADJ=14
 ICtDFT=  3500011 ScaDFX=  1.000000  1.000000  1.000000  1.000000
 FoFCou: FMM=F IPFlag=           0 FMFlag=      100000 FMFlg1=        2001
         NFxFlg=           0 DoJE=T BraDBF=F KetDBF=T FulRan=T
         wScrn=  0.000000 ICntrl=       500 IOpCl=  0 I1Cent=   200000004 NGrid=           0
         NMat0=    1 NMatS0=      1 NMatT0=    0 NMatD0=    1 NMtDS0=    0 NMtDT0=    0
 Petite list used in FoFCou.
 Initial guess <Sx>= 0.0000 <Sy>= 0.0000 <Sz>= 0.5000 <S**2>= 0.7500 S= 0.5000
 Requested convergence on RMS density matrix=1.00D-08 within 999 cycles.
 Requested convergence on MAX density matrix=1.00D-06.
 Requested convergence on             energy=1.00D-06.
 No special actions if energy rises.
 EnCoef did    14 forward-backward iterations
 EnCoef did   100 forward-backward iterations
 EnCoef did    10 forward-backward iterations
 EnCoef did     6 forward-backward iterations
 EnCoef did     4 forward-backward iterations
 Restarting incremental Fock formation.
 Restarting incremental Fock formation.
 Restarting incremental Fock formation.
 Restarting incremental Fock formation.
 Restarting incremental Fock formation.
 SCF Done:  E(UPBE1PBE) =  -3438.40821249     A.U. after  111 cycles
            NFock=111  Conv=0.15D-08     -V/T= 2.0029
 <Sx>= 0.0000 <Sy>= 0.0000 <Sz>= 0.5000 <S**2>= 0.9709 S= 0.6050
 <L.S>= 0.000000000000E+00
 Annihilation of the first spin contaminant:
 S**2 before annihilation     0.9709,   after     0.7573

 **********************************************************************

            Population analysis using the SCF density.

 **********************************************************************

 Orbital symmetries:
 Alpha Orbitals:
       Occupied  (A) (A) (A) (A) (A) (A) (A) (A) (A) (A) (A) (A)
                 (A) (A) (A) (A) (A) (A) (A) (A) (A) (A) (A) (A)
                 (A) (A) (A) (A) (A) (A) (A) (A) (A) (A) (A) (A)
                 (A) (A) (A) (A) (A) (A) (A) (A) (A) (A) (A) (A)
                 (A) (A) (A) (A) (A) (A) (A) (A) (A) (A) (A) (A)
                 (A) (A) (A) (A) (A) (A) (A) (A) (A) (A) (A) (A)
                 (A) (A) (A) (A) (A) (A) (A) (A) (A) (A) (A) (A)
                 (A) (A) (A) (A) (A) (A) (A) (A) (A) (A) (A) (A)
                 (A) (A) (A) (A) (A) (A) (A) (A) (A) (A) (A) (A)
                 (A) (A) (A) (A) (A) (A) (A) (A) (A) (A) (A) (A)
                 (A) (A) (A) (A) (A) (A) (A) (A) (A) (A) (A) (A)
                 (A) (A) (A) (A) (A) (A) (A) (A) (A) (A) (A) (A)
                 (A) (A) (A) (A) (A) (A) (A) (A) (A) (A) (A) (A)
                 (A) (A) (A) (A) (A) (A) (A) (A) (A) (A) (A) (A)
                 (A) (A) (A) (A) (A) (A) (A) (A) (A) (A) (A) (A)
                 (A) (A) (A) (A) (A) (A) (A) (A)
       Virtual   (A) (A) (A) (A) (A) (A) (A) (A) (A) (A) (A) (A)
                 (A) (A) (A) (A) (A) (A) (A) (A) (A) (A) (A) (A)
                 (A) (A) (A) (A) (A) (A) (A) (A) (A) (A) (A) (A)
                 (A) (A) (A) (A) (A) (A) (A) (A) (A) (A) (A) (A)
                 (A) (A) (A) (A) (A) (A) (A) (A) (A) (A) (A) (A)
                 (A) (A) (A) (A) (A) (A) (A) (A) (A) (A) (A) (A)
                 (A) (A) (A) (A) (A) (A) (A) (A) (A) (A) (A) (A)
                 (A) (A) (A) (A) (A) (A) (A) (A) (A) (A) (A) (A)
                 (A) (A) (A) (A) (A) (A) (A) (A) (A) (A) (A) (A)
                 (A) (A) (A) (A) (A) (A) (A) (A) (A) (A) (A) (A)
                 (A) (A) (A) (A) (A) (A) (A) (A) (A) (A) (A) (A)
                 (A) (A) (A) (A) (A) (A) (A) (A) (A) (A) (A) (A)
                 (A) (A) (A) (A) (A) (A) (A) (A) (A) (A) (A) (A)
                 (A) (A) (A) (A) (A) (A) (A) (A) (A) (A) (A) (A)
                 (A) (A) (A) (A) (A) (A) (A) (A) (A) (A) (A) (A)
                 (A) (A) (A) (A) (A) (A) (A) (A) (A) (A) (A) (A)
                 (A) (A) (A) (A) (A) (A) (A) (A) (A) (A) (A) (A)
                 (A) (A) (A) (A) (A) (A) (A) (A) (A) (A) (A) (A)
                 (A) (A) (A) (A) (A) (A) (A) (A) (A) (A) (A) (A)
                 (A) (A) (A) (A) (A) (A) (A) (A) (A) (A) (A) (A)
                 (A) (A) (A) (A) (A) (A) (A) (A) (A) (A) (A) (A)
                 (A) (A) (A) (A) (A) (A) (A) (A) (A) (A) (A) (A)
                 (A) (A) (A) (A) (A) (A) (A) (A) (A) (A) (A) (A)
                 (A) (A) (A) (A) (A) (A) (A) (A) (A) (A) (A) (A)
                 (A) (A) (A) (A) (A) (A) (A) (A) (A) (A) (A) (A)
                 (A) (A) (A) (A) (A) (A) (A) (A) (A) (A) (A) (A)
                 (A) (A) (A) (A) (A) (A) (A) (A) (A) (A) (A) (A)
                 (A) (A) (A) (A) (A) (A) (A) (A) (A) (A) (A) (A)
                 (A) (A) (A) (A) (A) (A) (A) (A) (A) (A) (A) (A)
                 (A) (A) (A) (A) (A) (A) (A) (A) (A) (A) (A) (A)
                 (A) (A) (A) (A) (A) (A) (A) (A) (A) (A) (A) (A)
                 (A) (A) (A) (A) (A) (A) (A) (A) (A) (A) (A) (A)
                 (A) (A) (A) (A) (A) (A) (A) (A) (A) (A) (A) (A)
                 (A) (A) (A) (A) (A) (A) (A) (A) (A) (A) (A) (A)
                 (A) (A) (A) (A) (A) (A) (A) (A) (A) (A) (A) (A)
                 (A) (A) (A) (A) (A) (A) (A) (A) (A) (A) (A) (A)
                 (A) (A) (A) (A) (A) (A) (A) (A) (A) (A) (A) (A)
                 (A) (A) (A) (A) (A) (A) (A) (A) (A) (A) (A) (A)
                 (A) (A) (A) (A) (A) (A) (A) (A) (A) (A) (A) (A)
                 (A) (A) (A) (A) (A) (A) (A) (A) (A) (A) (A) (A)
                 (A) (A) (A) (A) (A) (A) (A) (A) (A) (A) (A) (A)
                 (A) (A) (A) (A) (A) (A) (A) (A) (A) (A) (A) (A)
                 (A) (A) (A) (A) (A) (A) (A) (A) (A) (A) (A) (A)
                 (A) (A) (A) (A) (A) (A) (A) (A) (A) (A) (A) (A)
                 (A) (A) (A) (A) (A) (A) (A) (A) (A) (A) (A) (A)
                 (A) (A) (A) (A) (A) (A) (A) (A) (A) (A) (A) (A)
                 (A) (A) (A) (A) (A) (A) (A) (A) (A) (A) (A) (A)
                 (A) (A) (A) (A) (A) (A) (A) (A) (A) (A) (A) (A)
                 (A) (A) (A) (A) (A) (A) (A) (A) (A) (A) (A) (A)
                 (A) (A) (A) (A) (A) (A) (A) (A) (A) (A) (A) (A)
                 (A) (A) (A) (A) (A) (A) (A) (A) (A) (A) (A) (A)
                 (A) (A) (A) (A) (A) (A) (A) (A) (A) (A) (A) (A)
                 (A) (A) (A) (A) (A) (A) (A) (A) (A) (A) (A) (A)
                 (A) (A) (A) (A) (A) (A) (A) (A) (A) (A) (A) (A)
                 (A) (A) (A) (A) (A) (A) (A) (A) (A) (A) (A) (A)
                 (A) (A) (A) (A) (A) (A) (A) (A) (A) (A) (A) (A)
                 (A) (A) (A) (A) (A) (A) (A) (A) (A) (A) (A) (A)
                 (A) (A) (A) (A) (A) (A) (A) (A) (A) (A) (A) (A)
                 (A) (A) (A) (A) (A) (A) (A) (A) (A) (A) (A) (A)
                 (A) (A) (A) (A) (A) (A) (A) (A) (A) (A) (A) (A)
                 (A) (A) (A) (A) (A) (A) (A) (A) (A) (A) (A) (A)
                 (A) (A) (A) (A) (A) (A) (A) (A) (A) (A) (A) (A)
                 (A) (A) (A) (A) (A) (A) (A) (A) (A) (A) (A) (A)
                 (A) (A) (A) (A) (A) (A) (A) (A) (A) (A) (A) (A)
                 (A) (A) (A) (A) (A) (A) (A) (A) (A) (A) (A) (A)
                 (A) (A) (A) (A) (A) (A) (A) (A) (A) (A) (A) (A)
                 (A) (A) (A) (A) (A) (A) (A) (A) (A) (A) (A) (A)
                 (A) (A) (A) (A) (A) (A) (A) (A) (A) (A) (A) (A)
                 (A) (A) (A) (A) (A) (A) (A) (A) (A) (A) (A) (A)
                 (A) (A) (A) (A) (A) (A) (A) (A) (A) (A) (A) (A)
                 (A) (A) (A) (A) (A) (A) (A) (A) (A) (A) (A) (A)
                 (A) (A) (A) (A) (A) (A) (A) (A) (A) (A) (A) (A)
                 (A) (A) (A) (A) (A) (A) (A) (A) (A) (A) (A) (A)
                 (A) (A) (A) (A) (A) (A) (A) (A) (A) (A) (A) (A)
                 (A) (A) (A) (A) (A) (A) (A) (A) (A) (A) (A) (A)
                 (A) (A) (A) (A) (A) (A) (A) (A) (A) (A) (A) (A)
                 (A) (A) (A) (A) (A) (A) (A) (A) (A) (A) (A) (A)
                 (A) (A) (A) (A) (A) (A) (A) (A) (A) (A) (A) (A)
                 (A) (A) (A) (A) (A) (A) (A) (A) (A) (A) (A) (A)
                 (A) (A) (A) (A) (A) (A) (A) (A) (A) (A) (A) (A)
                 (A) (A) (A) (A) (A) (A) (A) (A) (A) (A) (A) (A)
                 (A) (A) (A) (A) (A) (A) (A) (A) (A) (A) (A) (A)
                 (A) (A) (A) (A) (A) (A) (A) (A) (A) (A) (A) (A)
                 (A) (A) (A) (A) (A) (A) (A) (A) (A) (A) (A) (A)
                 (A) (A) (A) (A) (A) (A) (A) (A) (A) (A) (A) (A)
                 (A) (A) (A) (A) (A) (A) (A) (A) (A) (A) (A) (A)
                 (A) (A) (A) (A) (A) (A) (A) (A) (A) (A) (A) (A)
                 (A) (A) (A) (A) (A) (A) (A) (A) (A) (A) (A) (A)
                 (A) (A) (A) (A) (A) (A) (A) (A) (A) (A) (A) (A)
                 (A) (A) (A) (A) (A) (A) (A) (A) (A) (A) (A) (A)
                 (A) (A) (A) (A) (A) (A) (A) (A) (A) (A) (A) (A)
                 (A) (A) (A) (A) (A) (A) (A) (A) (A) (A) (A) (A)
                 (A) (A) (A) (A) (A) (A) (A) (A) (A) (A) (A) (A)
                 (A) (A) (A) (A) (A) (A) (A) (A) (A) (A) (A) (A)
                 (A) (A) (A) (A) (A) (A) (A) (A) (A) (A) (A) (A)
                 (A) (A) (A) (A) (A) (A) (A) (A) (A) (A) (A) (A)
                 (A) (A) (A) (A) (A) (A) (A) (A) (A) (A) (A) (A)
                 (A) (A) (A) (A) (A) (A) (A) (A) (A) (A) (A) (A)
                 (A) (A) (A) (A) (A) (A) (A) (A) (A) (A) (A) (A)
                 (A) (A) (A) (A) (A) (A) (A) (A) (A) (A) (A) (A)
                 (A) (A) (A) (A) (A) (A) (A) (A) (A) (A) (A) (A)
                 (A) (A) (A) (A) (A) (A) (A) (A) (A) (A) (A) (A)
                 (A) (A) (A) (A) (A) (A) (A) (A) (A) (A) (A) (A)
                 (A) (A) (A) (A) (A) (A) (A) (A) (A) (A) (A) (A)
                 (A) (A) (A) (A) (A) (A) (A) (A) (A) (A) (A) (A)
                 (A) (A) (A) (A) (A) (A) (A) (A) (A) (A) (A) (A)
                 (A) (A) (A) (A) (A) (A) (A) (A) (A) (A) (A) (A)
                 (A) (A) (A) (A) (A) (A) (A) (A) (A) (A) (A) (A)
                 (A) (A) (A) (A) (A) (A) (A) (A) (A) (A) (A) (A)
                 (A) (A) (A) (A) (A) (A) (A) (A) (A) (A) (A) (A)
                 (A) (A) (A) (A) (A) (A) (A) (A) (A) (A) (A) (A)
                 (A) (A) (A) (A) (A) (A) (A) (A) (A) (A) (A) (A)
                 (A) (A) (A) (A) (A) (A) (A) (A) (A) (A) (A) (A)
                 (A) (A) (A) (A) (A) (A) (A) (A) (A) (A) (A) (A)
                 (A) (A) (A) (A) (A) (A) (A) (A) (A) (A) (A) (A)
                 (A) (A) (A) (A) (A) (A) (A) (A) (A) (A) (A) (A)
                 (A) (A) (A) (A) (A) (A) (A) (A) (A) (A) (A) (A)
                 (A) (A) (A) (A) (A) (A) (A) (A) (A) (A) (A) (A)
                 (A) (A) (A) (A) (A) (A) (A) (A) (A) (A) (A) (A)
                 (A) (A) (A) (A) (A) (A) (A) (A) (A) (A) (A) (A)
                 (A) (A) (A) (A) (A) (A) (A) (A) (A) (A) (A) (A)
                 (A) (A) (A) (A) (A) (A) (A) (A) (A) (A) (A) (A)
                 (A) (A) (A) (A) (A) (A) (A) (A) (A) (A) (A) (A)
                 (A) (A) (A) (A) (A) (A) (A) (A) (A) (A) (A) (A)
                 (A) (A) (A) (A) (A) (A) (A) (A) (A) (A) (A) (A)
                 (A) (A) (A) (A) (A) (A) (A) (A) (A) (A) (A) (A)
                 (A) (A) (A) (A) (A) (A) (A) (A) (A) (A) (A) (A)
                 (A) (A) (A) (A) (A) (A) (A) (A) (A) (A) (A) (A)
                 (A) (A) (A) (A) (A) (A) (A) (A) (A) (A) (A) (A)
                 (A) (A) (A) (A) (A) (A) (A) (A) (A) (A) (A) (A)
                 (A) (A) (A) (A) (A) (A) (A) (A) (A) (A) (A) (A)
                 (A) (A) (A) (A) (A) (A) (A) (A) (A) (A) (A) (A)
                 (A) (A) (A) (A) (A) (A) (A) (A) (A) (A) (A) (A)
                 (A) (A) (A) (A) (A) (A) (A) (A) (A) (A) (A) (A)
                 (A) (A) (A) (A) (A) (A) (A) (A)
 Beta  Orbitals:
       Occupied  (A) (A) (A) (A) (A) (A) (A) (A) (A) (A) (A) (A)
                 (A) (A) (A) (A) (A) (A) (A) (A) (A) (A) (A) (A)
                 (A) (A) (A) (A) (A) (A) (A) (A) (A) (A) (A) (A)
                 (A) (A) (A) (A) (A) (A) (A) (A) (A) (A) (A) (A)
                 (A) (A) (A) (A) (A) (A) (A) (A) (A) (A) (A) (A)
                 (A) (A) (A) (A) (A) (A) (A) (A) (A) (A) (A) (A)
                 (A) (A) (A) (A) (A) (A) (A) (A) (A) (A) (A) (A)
                 (A) (A) (A) (A) (A) (A) (A) (A) (A) (A) (A) (A)
                 (A) (A) (A) (A) (A) (A) (A) (A) (A) (A) (A) (A)
                 (A) (A) (A) (A) (A) (A) (A) (A) (A) (A) (A) (A)
                 (A) (A) (A) (A) (A) (A) (A) (A) (A) (A) (A) (A)
                 (A) (A) (A) (A) (A) (A) (A) (A) (A) (A) (A) (A)
                 (A) (A) (A) (A) (A) (A) (A) (A) (A) (A) (A) (A)
                 (A) (A) (A) (A) (A) (A) (A) (A) (A) (A) (A) (A)
                 (A) (A) (A) (A) (A) (A) (A) (A) (A) (A) (A) (A)
                 (A) (A) (A) (A) (A) (A) (A)
       Virtual   (A) (A) (A) (A) (A) (A) (A) (A) (A) (A) (A) (A)
                 (A) (A) (A) (A) (A) (A) (A) (A) (A) (A) (A) (A)
                 (A) (A) (A) (A) (A) (A) (A) (A) (A) (A) (A) (A)
                 (A) (A) (A) (A) (A) (A) (A) (A) (A) (A) (A) (A)
                 (A) (A) (A) (A) (A) (A) (A) (A) (A) (A) (A) (A)
                 (A) (A) (A) (A) (A) (A) (A) (A) (A) (A) (A) (A)
                 (A) (A) (A) (A) (A) (A) (A) (A) (A) (A) (A) (A)
                 (A) (A) (A) (A) (A) (A) (A) (A) (A) (A) (A) (A)
                 (A) (A) (A) (A) (A) (A) (A) (A) (A) (A) (A) (A)
                 (A) (A) (A) (A) (A) (A) (A) (A) (A) (A) (A) (A)
                 (A) (A) (A) (A) (A) (A) (A) (A) (A) (A) (A) (A)
                 (A) (A) (A) (A) (A) (A) (A) (A) (A) (A) (A) (A)
                 (A) (A) (A) (A) (A) (A) (A) (A) (A) (A) (A) (A)
                 (A) (A) (A) (A) (A) (A) (A) (A) (A) (A) (A) (A)
                 (A) (A) (A) (A) (A) (A) (A) (A) (A) (A) (A) (A)
                 (A) (A) (A) (A) (A) (A) (A) (A) (A) (A) (A) (A)
                 (A) (A) (A) (A) (A) (A) (A) (A) (A) (A) (A) (A)
                 (A) (A) (A) (A) (A) (A) (A) (A) (A) (A) (A) (A)
                 (A) (A) (A) (A) (A) (A) (A) (A) (A) (A) (A) (A)
                 (A) (A) (A) (A) (A) (A) (A) (A) (A) (A) (A) (A)
                 (A) (A) (A) (A) (A) (A) (A) (A) (A) (A) (A) (A)
                 (A) (A) (A) (A) (A) (A) (A) (A) (A) (A) (A) (A)
                 (A) (A) (A) (A) (A) (A) (A) (A) (A) (A) (A) (A)
                 (A) (A) (A) (A) (A) (A) (A) (A) (A) (A) (A) (A)
                 (A) (A) (A) (A) (A) (A) (A) (A) (A) (A) (A) (A)
                 (A) (A) (A) (A) (A) (A) (A) (A) (A) (A) (A) (A)
                 (A) (A) (A) (A) (A) (A) (A) (A) (A) (A) (A) (A)
                 (A) (A) (A) (A) (A) (A) (A) (A) (A) (A) (A) (A)
                 (A) (A) (A) (A) (A) (A) (A) (A) (A) (A) (A) (A)
                 (A) (A) (A) (A) (A) (A) (A) (A) (A) (A) (A) (A)
                 (A) (A) (A) (A) (A) (A) (A) (A) (A) (A) (A) (A)
                 (A) (A) (A) (A) (A) (A) (A) (A) (A) (A) (A) (A)
                 (A) (A) (A) (A) (A) (A) (A) (A) (A) (A) (A) (A)
                 (A) (A) (A) (A) (A) (A) (A) (A) (A) (A) (A) (A)
                 (A) (A) (A) (A) (A) (A) (A) (A) (A) (A) (A) (A)
                 (A) (A) (A) (A) (A) (A) (A) (A) (A) (A) (A) (A)
                 (A) (A) (A) (A) (A) (A) (A) (A) (A) (A) (A) (A)
                 (A) (A) (A) (A) (A) (A) (A) (A) (A) (A) (A) (A)
                 (A) (A) (A) (A) (A) (A) (A) (A) (A) (A) (A) (A)
                 (A) (A) (A) (A) (A) (A) (A) (A) (A) (A) (A) (A)
                 (A) (A) (A) (A) (A) (A) (A) (A) (A) (A) (A) (A)
                 (A) (A) (A) (A) (A) (A) (A) (A) (A) (A) (A) (A)
                 (A) (A) (A) (A) (A) (A) (A) (A) (A) (A) (A) (A)
                 (A) (A) (A) (A) (A) (A) (A) (A) (A) (A) (A) (A)
                 (A) (A) (A) (A) (A) (A) (A) (A) (A) (A) (A) (A)
                 (A) (A) (A) (A) (A) (A) (A) (A) (A) (A) (A) (A)
                 (A) (A) (A) (A) (A) (A) (A) (A) (A) (A) (A) (A)
                 (A) (A) (A) (A) (A) (A) (A) (A) (A) (A) (A) (A)
                 (A) (A) (A) (A) (A) (A) (A) (A) (A) (A) (A) (A)
                 (A) (A) (A) (A) (A) (A) (A) (A) (A) (A) (A) (A)
                 (A) (A) (A) (A) (A) (A) (A) (A) (A) (A) (A) (A)
                 (A) (A) (A) (A) (A) (A) (A) (A) (A) (A) (A) (A)
                 (A) (A) (A) (A) (A) (A) (A) (A) (A) (A) (A) (A)
                 (A) (A) (A) (A) (A) (A) (A) (A) (A) (A) (A) (A)
                 (A) (A) (A) (A) (A) (A) (A) (A) (A) (A) (A) (A)
                 (A) (A) (A) (A) (A) (A) (A) (A) (A) (A) (A) (A)
                 (A) (A) (A) (A) (A) (A) (A) (A) (A) (A) (A) (A)
                 (A) (A) (A) (A) (A) (A) (A) (A) (A) (A) (A) (A)
                 (A) (A) (A) (A) (A) (A) (A) (A) (A) (A) (A) (A)
                 (A) (A) (A) (A) (A) (A) (A) (A) (A) (A) (A) (A)
                 (A) (A) (A) (A) (A) (A) (A) (A) (A) (A) (A) (A)
                 (A) (A) (A) (A) (A) (A) (A) (A) (A) (A) (A) (A)
                 (A) (A) (A) (A) (A) (A) (A) (A) (A) (A) (A) (A)
                 (A) (A) (A) (A) (A) (A) (A) (A) (A) (A) (A) (A)
                 (A) (A) (A) (A) (A) (A) (A) (A) (A) (A) (A) (A)
                 (A) (A) (A) (A) (A) (A) (A) (A) (A) (A) (A) (A)
                 (A) (A) (A) (A) (A) (A) (A) (A) (A) (A) (A) (A)
                 (A) (A) (A) (A) (A) (A) (A) (A) (A) (A) (A) (A)
                 (A) (A) (A) (A) (A) (A) (A) (A) (A) (A) (A) (A)
                 (A) (A) (A) (A) (A) (A) (A) (A) (A) (A) (A) (A)
                 (A) (A) (A) (A) (A) (A) (A) (A) (A) (A) (A) (A)
                 (A) (A) (A) (A) (A) (A) (A) (A) (A) (A) (A) (A)
                 (A) (A) (A) (A) (A) (A) (A) (A) (A) (A) (A) (A)
                 (A) (A) (A) (A) (A) (A) (A) (A) (A) (A) (A) (A)
                 (A) (A) (A) (A) (A) (A) (A) (A) (A) (A) (A) (A)
                 (A) (A) (A) (A) (A) (A) (A) (A) (A) (A) (A) (A)
                 (A) (A) (A) (A) (A) (A) (A) (A) (A) (A) (A) (A)
                 (A) (A) (A) (A) (A) (A) (A) (A) (A) (A) (A) (A)
                 (A) (A) (A) (A) (A) (A) (A) (A) (A) (A) (A) (A)
                 (A) (A) (A) (A) (A) (A) (A) (A) (A) (A) (A) (A)
                 (A) (A) (A) (A) (A) (A) (A) (A) (A) (A) (A) (A)
                 (A) (A) (A) (A) (A) (A) (A) (A) (A) (A) (A) (A)
                 (A) (A) (A) (A) (A) (A) (A) (A) (A) (A) (A) (A)
                 (A) (A) (A) (A) (A) (A) (A) (A) (A) (A) (A) (A)
                 (A) (A) (A) (A) (A) (A) (A) (A) (A) (A) (A) (A)
                 (A) (A) (A) (A) (A) (A) (A) (A) (A) (A) (A) (A)
                 (A) (A) (A) (A) (A) (A) (A) (A) (A) (A) (A) (A)
                 (A) (A) (A) (A) (A) (A) (A) (A) (A) (A) (A) (A)
                 (A) (A) (A) (A) (A) (A) (A) (A) (A) (A) (A) (A)
                 (A) (A) (A) (A) (A) (A) (A) (A) (A) (A) (A) (A)
                 (A) (A) (A) (A) (A) (A) (A) (A) (A) (A) (A) (A)
                 (A) (A) (A) (A) (A) (A) (A) (A) (A) (A) (A) (A)
                 (A) (A) (A) (A) (A) (A) (A) (A) (A) (A) (A) (A)
                 (A) (A) (A) (A) (A) (A) (A) (A) (A) (A) (A) (A)
                 (A) (A) (A) (A) (A) (A) (A) (A) (A) (A) (A) (A)
                 (A) (A) (A) (A) (A) (A) (A) (A) (A) (A) (A) (A)
                 (A) (A) (A) (A) (A) (A) (A) (A) (A) (A) (A) (A)
                 (A) (A) (A) (A) (A) (A) (A) (A) (A) (A) (A) (A)
                 (A) (A) (A) (A) (A) (A) (A) (A) (A) (A) (A) (A)
                 (A) (A) (A) (A) (A) (A) (A) (A) (A) (A) (A) (A)
                 (A) (A) (A) (A) (A) (A) (A) (A) (A) (A) (A) (A)
                 (A) (A) (A) (A) (A) (A) (A) (A) (A) (A) (A) (A)
                 (A) (A) (A) (A) (A) (A) (A) (A) (A) (A) (A) (A)
                 (A) (A) (A) (A) (A) (A) (A) (A) (A) (A) (A) (A)
                 (A) (A) (A) (A) (A) (A) (A) (A) (A) (A) (A) (A)
                 (A) (A) (A) (A) (A) (A) (A) (A) (A) (A) (A) (A)
                 (A) (A) (A) (A) (A) (A) (A) (A) (A) (A) (A) (A)
                 (A) (A) (A) (A) (A) (A) (A) (A) (A) (A) (A) (A)
                 (A) (A) (A) (A) (A) (A) (A) (A) (A) (A) (A) (A)
                 (A) (A) (A) (A) (A) (A) (A) (A) (A) (A) (A) (A)
                 (A) (A) (A) (A) (A) (A) (A) (A) (A) (A) (A) (A)
                 (A) (A) (A) (A) (A) (A) (A) (A) (A) (A) (A) (A)
                 (A) (A) (A) (A) (A) (A) (A) (A) (A) (A) (A) (A)
                 (A) (A) (A) (A) (A) (A) (A) (A) (A) (A) (A) (A)
                 (A) (A) (A) (A) (A) (A) (A) (A) (A) (A) (A) (A)
                 (A) (A) (A) (A) (A) (A) (A) (A) (A) (A) (A) (A)
                 (A) (A) (A) (A) (A) (A) (A) (A) (A) (A) (A) (A)
                 (A) (A) (A) (A) (A) (A) (A) (A) (A) (A) (A) (A)
                 (A) (A) (A) (A) (A) (A) (A) (A) (A) (A) (A) (A)
                 (A) (A) (A) (A) (A) (A) (A) (A) (A) (A) (A) (A)
                 (A) (A) (A) (A) (A) (A) (A) (A) (A) (A) (A) (A)
                 (A) (A) (A) (A) (A) (A) (A) (A) (A) (A) (A) (A)
                 (A) (A) (A) (A) (A) (A) (A) (A) (A) (A) (A) (A)
                 (A) (A) (A) (A) (A) (A) (A) (A) (A) (A) (A) (A)
                 (A) (A) (A) (A) (A) (A) (A) (A) (A) (A) (A) (A)
                 (A) (A) (A) (A) (A) (A) (A) (A) (A) (A) (A) (A)
                 (A) (A) (A) (A) (A) (A) (A) (A) (A) (A) (A) (A)
                 (A) (A) (A) (A) (A) (A) (A) (A) (A) (A) (A) (A)
                 (A) (A) (A) (A) (A) (A) (A) (A) (A) (A) (A) (A)
                 (A) (A) (A) (A) (A) (A) (A) (A) (A) (A) (A) (A)
                 (A) (A) (A) (A) (A) (A) (A) (A) (A) (A) (A) (A)
                 (A) (A) (A) (A) (A) (A) (A) (A) (A) (A) (A) (A)
                 (A) (A) (A) (A) (A) (A) (A) (A) (A) (A) (A) (A)
                 (A) (A) (A) (A) (A) (A) (A) (A) (A) (A) (A) (A)
                 (A) (A) (A) (A) (A) (A) (A) (A) (A)
 The electronic state is 2-A.
 Alpha  occ. eigenvalues -- -256.53080 -30.31566 -26.14711 -26.14056 -26.12909
 Alpha  occ. eigenvalues --  -19.34982 -19.32400 -19.31020 -19.24230 -19.23882
 Alpha  occ. eigenvalues --  -14.56389 -14.52534 -14.49709 -14.48980 -14.48388
 Alpha  occ. eigenvalues --  -14.48343 -10.41738 -10.41054 -10.39625 -10.37339
 Alpha  occ. eigenvalues --  -10.36200 -10.35862 -10.35435 -10.35373 -10.35273
 Alpha  occ. eigenvalues --  -10.35130 -10.35041 -10.35035 -10.34492 -10.33741
 Alpha  occ. eigenvalues --  -10.33216 -10.33140 -10.33114 -10.33076 -10.32879
 Alpha  occ. eigenvalues --  -10.32858 -10.32623 -10.32559 -10.32479 -10.32429
 Alpha  occ. eigenvalues --  -10.32392 -10.32314 -10.32298 -10.32193 -10.32096
 Alpha  occ. eigenvalues --  -10.31577 -10.31493 -10.30839 -10.30810 -10.30793
 Alpha  occ. eigenvalues --  -10.30565 -10.30470 -10.30346 -10.30181  -3.67375
 Alpha  occ. eigenvalues --   -2.44634  -2.43111  -2.40902  -1.24256  -1.23360
 Alpha  occ. eigenvalues --   -1.20882  -1.18730  -1.12053  -1.10986  -1.10540
 Alpha  occ. eigenvalues --   -1.09756  -1.09598  -1.09398  -1.05055  -0.95247
 Alpha  occ. eigenvalues --   -0.94003  -0.93255  -0.92951  -0.92536  -0.92493
 Alpha  occ. eigenvalues --   -0.92360  -0.91928  -0.88981  -0.87943  -0.86842
 Alpha  occ. eigenvalues --   -0.86276  -0.85877  -0.84022  -0.83749  -0.82190
 Alpha  occ. eigenvalues --   -0.81936  -0.81548  -0.80206  -0.78325  -0.78030
 Alpha  occ. eigenvalues --   -0.77670  -0.76980  -0.76777  -0.75038  -0.74065
 Alpha  occ. eigenvalues --   -0.73465  -0.73173  -0.72414  -0.70765  -0.69886
 Alpha  occ. eigenvalues --   -0.69683  -0.68878  -0.67000  -0.65999  -0.65503
 Alpha  occ. eigenvalues --   -0.64194  -0.63474  -0.63042  -0.62753  -0.60983
 Alpha  occ. eigenvalues --   -0.60875  -0.60212  -0.60168  -0.59720  -0.59316
 Alpha  occ. eigenvalues --   -0.58955  -0.57788  -0.57712  -0.57557  -0.57310
 Alpha  occ. eigenvalues --   -0.56979  -0.56325  -0.55993  -0.55661  -0.54959
 Alpha  occ. eigenvalues --   -0.54770  -0.54491  -0.54387  -0.54284  -0.54142
 Alpha  occ. eigenvalues --   -0.53943  -0.53662  -0.53466  -0.53422  -0.53300
 Alpha  occ. eigenvalues --   -0.52775  -0.52723  -0.52246  -0.51795  -0.51588
 Alpha  occ. eigenvalues --   -0.51502  -0.51325  -0.51250  -0.51008  -0.50606
 Alpha  occ. eigenvalues --   -0.50460  -0.50125  -0.49513  -0.49391  -0.49082
 Alpha  occ. eigenvalues --   -0.48825  -0.48734  -0.48408  -0.47972  -0.47853
 Alpha  occ. eigenvalues --   -0.47598  -0.47198  -0.47068  -0.46911  -0.46734
 Alpha  occ. eigenvalues --   -0.46465  -0.45993  -0.45325  -0.45153  -0.44191
 Alpha  occ. eigenvalues --   -0.44042  -0.43719  -0.43196  -0.43050  -0.42561
 Alpha  occ. eigenvalues --   -0.42336  -0.41590  -0.40831  -0.40790  -0.40137
 Alpha  occ. eigenvalues --   -0.39755  -0.39688  -0.38282  -0.37980  -0.35523
 Alpha  occ. eigenvalues --   -0.34673  -0.34060  -0.33699  -0.33478  -0.32088
 Alpha  occ. eigenvalues --   -0.30399  -0.30190  -0.29096
 Alpha virt. eigenvalues --   -0.19341  -0.19264  -0.18535  -0.16915  -0.15105
 Alpha virt. eigenvalues --   -0.13040  -0.09752  -0.09315  -0.07687  -0.07224
 Alpha virt. eigenvalues --   -0.06846  -0.06023  -0.05834  -0.04961  -0.04273
 Alpha virt. eigenvalues --   -0.04122  -0.03290  -0.03204  -0.03145  -0.02528
 Alpha virt. eigenvalues --   -0.02102  -0.01823  -0.01546  -0.01375  -0.01085
 Alpha virt. eigenvalues --   -0.00544  -0.00202   0.00020   0.00183   0.00333
 Alpha virt. eigenvalues --    0.00826   0.00941   0.01134   0.01768   0.02291
 Alpha virt. eigenvalues --    0.02547   0.02636   0.03085   0.03259   0.03382
 Alpha virt. eigenvalues --    0.03822   0.03859   0.04145   0.04348   0.04470
 Alpha virt. eigenvalues --    0.04733   0.04848   0.05012   0.05042   0.05300
 Alpha virt. eigenvalues --    0.05865   0.06050   0.06276   0.06318   0.06776
 Alpha virt. eigenvalues --    0.06933   0.07114   0.07303   0.07762   0.07879
 Alpha virt. eigenvalues --    0.08064   0.08375   0.08621   0.09088   0.09222
 Alpha virt. eigenvalues --    0.09406   0.09635   0.09863   0.10072   0.10359
 Alpha virt. eigenvalues --    0.10499   0.10649   0.10825   0.11136   0.11192
 Alpha virt. eigenvalues --    0.11583   0.11880   0.12024   0.12188   0.12329
 Alpha virt. eigenvalues --    0.12649   0.12693   0.12957   0.13152   0.13482
 Alpha virt. eigenvalues --    0.13693   0.13812   0.14017   0.14082   0.14281
 Alpha virt. eigenvalues --    0.14509   0.14758   0.15058   0.15167   0.15556
 Alpha virt. eigenvalues --    0.15916   0.15992   0.16124   0.16472   0.16544
 Alpha virt. eigenvalues --    0.16787   0.17011   0.17206   0.17365   0.17876
 Alpha virt. eigenvalues --    0.18019   0.18168   0.18331   0.18634   0.18817
 Alpha virt. eigenvalues --    0.18891   0.19319   0.19577   0.19847   0.20006
 Alpha virt. eigenvalues --    0.20031   0.20232   0.20698   0.20772   0.21184
 Alpha virt. eigenvalues --    0.21295   0.21359   0.21638   0.21867   0.22006
 Alpha virt. eigenvalues --    0.22472   0.22697   0.22842   0.23089   0.23289
 Alpha virt. eigenvalues --    0.23597   0.23759   0.23938   0.24103   0.24719
 Alpha virt. eigenvalues --    0.24890   0.25118   0.25264   0.25657   0.25960
 Alpha virt. eigenvalues --    0.26323   0.26371   0.26481   0.26678   0.26758
 Alpha virt. eigenvalues --    0.27453   0.27764   0.27877   0.27991   0.28368
 Alpha virt. eigenvalues --    0.28749   0.29166   0.29246   0.29503   0.29678
 Alpha virt. eigenvalues --    0.29813   0.30148   0.30282   0.30682   0.30893
 Alpha virt. eigenvalues --    0.30973   0.31179   0.31614   0.31644   0.31753
 Alpha virt. eigenvalues --    0.31842   0.32088   0.32411   0.32683   0.32773
 Alpha virt. eigenvalues --    0.33037   0.33292   0.33538   0.33579   0.33993
 Alpha virt. eigenvalues --    0.34095   0.34322   0.34557   0.34800   0.34992
 Alpha virt. eigenvalues --    0.35107   0.35267   0.35422   0.35707   0.35777
 Alpha virt. eigenvalues --    0.35869   0.36191   0.36450   0.36619   0.36862
 Alpha virt. eigenvalues --    0.37013   0.37101   0.37285   0.37339   0.37593
 Alpha virt. eigenvalues --    0.38032   0.38257   0.38603   0.38736   0.38891
 Alpha virt. eigenvalues --    0.38992   0.39158   0.39369   0.39588   0.39755
 Alpha virt. eigenvalues --    0.39822   0.39963   0.40066   0.40437   0.40605
 Alpha virt. eigenvalues --    0.40940   0.41047   0.41162   0.41459   0.41796
 Alpha virt. eigenvalues --    0.41806   0.41928   0.42241   0.42494   0.42719
 Alpha virt. eigenvalues --    0.42891   0.42952   0.43186   0.43260   0.43463
 Alpha virt. eigenvalues --    0.43525   0.43868   0.44133   0.44308   0.44365
 Alpha virt. eigenvalues --    0.44691   0.44831   0.45104   0.45413   0.45603
 Alpha virt. eigenvalues --    0.45911   0.46080   0.46261   0.46538   0.46777
 Alpha virt. eigenvalues --    0.47006   0.47114   0.47296   0.47444   0.47624
 Alpha virt. eigenvalues --    0.48197   0.48343   0.48398   0.48654   0.48840
 Alpha virt. eigenvalues --    0.49048   0.49216   0.49692   0.49869   0.49981
 Alpha virt. eigenvalues --    0.50182   0.50510   0.50602   0.51182   0.51300
 Alpha virt. eigenvalues --    0.51456   0.51526   0.51846   0.52123   0.52276
 Alpha virt. eigenvalues --    0.52519   0.52872   0.53153   0.53230   0.53419
 Alpha virt. eigenvalues --    0.53718   0.54254   0.54316   0.54634   0.54745
 Alpha virt. eigenvalues --    0.55200   0.55340   0.55504   0.55689   0.55990
 Alpha virt. eigenvalues --    0.56121   0.56454   0.57127   0.57218   0.57397
 Alpha virt. eigenvalues --    0.57615   0.57874   0.58214   0.58350   0.58570
 Alpha virt. eigenvalues --    0.58702   0.59270   0.59490   0.59575   0.59796
 Alpha virt. eigenvalues --    0.60075   0.60726   0.60759   0.61000   0.61259
 Alpha virt. eigenvalues --    0.61534   0.61836   0.62193   0.62327   0.62809
 Alpha virt. eigenvalues --    0.62907   0.63337   0.63476   0.63765   0.64298
 Alpha virt. eigenvalues --    0.64369   0.64769   0.65059   0.65284   0.65570
 Alpha virt. eigenvalues --    0.65906   0.66192   0.66572   0.66698   0.67085
 Alpha virt. eigenvalues --    0.67311   0.67634   0.67944   0.68216   0.68416
 Alpha virt. eigenvalues --    0.68763   0.69004   0.69174   0.69655   0.70034
 Alpha virt. eigenvalues --    0.70243   0.70415   0.70713   0.71200   0.71704
 Alpha virt. eigenvalues --    0.71995   0.72241   0.72491   0.72807   0.72960
 Alpha virt. eigenvalues --    0.73154   0.73483   0.73913   0.74249   0.74503
 Alpha virt. eigenvalues --    0.74825   0.75029   0.75310   0.75836   0.75982
 Alpha virt. eigenvalues --    0.76326   0.76666   0.77094   0.77298   0.77582
 Alpha virt. eigenvalues --    0.77675   0.78392   0.78533   0.79009   0.79225
 Alpha virt. eigenvalues --    0.79503   0.80025   0.80343   0.80379   0.80454
 Alpha virt. eigenvalues --    0.80917   0.81376   0.81606   0.81750   0.82509
 Alpha virt. eigenvalues --    0.82683   0.83215   0.83303   0.83896   0.84025
 Alpha virt. eigenvalues --    0.84469   0.84677   0.84857   0.85625   0.85961
 Alpha virt. eigenvalues --    0.86335   0.86623   0.86843   0.86995   0.87228
 Alpha virt. eigenvalues --    0.87578   0.87905   0.88056   0.88329   0.88689
 Alpha virt. eigenvalues --    0.89060   0.89127   0.89534   0.89939   0.90149
 Alpha virt. eigenvalues --    0.90277   0.90687   0.91031   0.91329   0.91683
 Alpha virt. eigenvalues --    0.91792   0.92143   0.92475   0.92616   0.93026
 Alpha virt. eigenvalues --    0.93571   0.93952   0.94167   0.94460   0.94493
 Alpha virt. eigenvalues --    0.94731   0.95154   0.95547   0.95642   0.95963
 Alpha virt. eigenvalues --    0.96392   0.96791   0.97092   0.97242   0.97784
 Alpha virt. eigenvalues --    0.98132   0.98304   0.98419   0.98701   0.99023
 Alpha virt. eigenvalues --    0.99466   0.99695   1.00162   1.00526   1.00773
 Alpha virt. eigenvalues --    1.01218   1.01470   1.02141   1.02199   1.02339
 Alpha virt. eigenvalues --    1.03068   1.03290   1.03709   1.04130   1.04319
 Alpha virt. eigenvalues --    1.04666   1.04931   1.05383   1.05471   1.05929
 Alpha virt. eigenvalues --    1.06332   1.06446   1.06685   1.07057   1.07591
 Alpha virt. eigenvalues --    1.08009   1.08504   1.08574   1.08879   1.09210
 Alpha virt. eigenvalues --    1.09639   1.09940   1.10080   1.10468   1.11150
 Alpha virt. eigenvalues --    1.11824   1.12226   1.12396   1.13086   1.13666
 Alpha virt. eigenvalues --    1.13873   1.14284   1.14582   1.15155   1.15363
 Alpha virt. eigenvalues --    1.15422   1.16457   1.16514   1.16985   1.17480
 Alpha virt. eigenvalues --    1.17795   1.18074   1.18412   1.19128   1.19523
 Alpha virt. eigenvalues --    1.19872   1.19972   1.20492   1.20800   1.21241
 Alpha virt. eigenvalues --    1.21762   1.22075   1.22351   1.22712   1.23388
 Alpha virt. eigenvalues --    1.23576   1.23840   1.24506   1.25103   1.25221
 Alpha virt. eigenvalues --    1.25408   1.25946   1.26904   1.27094   1.27464
 Alpha virt. eigenvalues --    1.27987   1.28125   1.28425   1.28679   1.28932
 Alpha virt. eigenvalues --    1.29432   1.30057   1.30563   1.31115   1.31544
 Alpha virt. eigenvalues --    1.31686   1.32192   1.32632   1.32805   1.33394
 Alpha virt. eigenvalues --    1.33744   1.33937   1.34794   1.34834   1.34977
 Alpha virt. eigenvalues --    1.35404   1.35984   1.36210   1.36368   1.36627
 Alpha virt. eigenvalues --    1.36994   1.37694   1.38030   1.38330   1.38450
 Alpha virt. eigenvalues --    1.38865   1.39068   1.39692   1.39795   1.40079
 Alpha virt. eigenvalues --    1.40396   1.40751   1.41033   1.41395   1.41899
 Alpha virt. eigenvalues --    1.42042   1.42323   1.42804   1.43022   1.43410
 Alpha virt. eigenvalues --    1.43487   1.43945   1.44204   1.44352   1.44509
 Alpha virt. eigenvalues --    1.45015   1.45066   1.45658   1.45750   1.46099
 Alpha virt. eigenvalues --    1.46234   1.46609   1.46820   1.47432   1.47705
 Alpha virt. eigenvalues --    1.48115   1.48158   1.48707   1.48837   1.49186
 Alpha virt. eigenvalues --    1.49286   1.49839   1.49895   1.49903   1.50347
 Alpha virt. eigenvalues --    1.50714   1.50894   1.51061   1.51598   1.51764
 Alpha virt. eigenvalues --    1.52084   1.52229   1.52658   1.52819   1.53010
 Alpha virt. eigenvalues --    1.53172   1.53699   1.53879   1.54160   1.54623
 Alpha virt. eigenvalues --    1.54927   1.55193   1.55476   1.55700   1.55923
 Alpha virt. eigenvalues --    1.56414   1.56515   1.56623   1.57117   1.57399
 Alpha virt. eigenvalues --    1.57503   1.57668   1.58022   1.58152   1.58421
 Alpha virt. eigenvalues --    1.58831   1.59145   1.59861   1.60195   1.60223
 Alpha virt. eigenvalues --    1.60501   1.61155   1.61225   1.61674   1.61837
 Alpha virt. eigenvalues --    1.62467   1.62819   1.62953   1.63434   1.63705
 Alpha virt. eigenvalues --    1.64158   1.64383   1.64811   1.65252   1.65465
 Alpha virt. eigenvalues --    1.65836   1.66015   1.66590   1.66998   1.67436
 Alpha virt. eigenvalues --    1.67755   1.68057   1.68465   1.68867   1.69113
 Alpha virt. eigenvalues --    1.69860   1.70119   1.70288   1.71029   1.71569
 Alpha virt. eigenvalues --    1.72054   1.72127   1.72462   1.73048   1.73369
 Alpha virt. eigenvalues --    1.73822   1.74102   1.74410   1.75173   1.75448
 Alpha virt. eigenvalues --    1.75518   1.76224   1.76774   1.77170   1.77310
 Alpha virt. eigenvalues --    1.77731   1.78316   1.78475   1.79035   1.79299
 Alpha virt. eigenvalues --    1.79572   1.79991   1.80247   1.80719   1.81049
 Alpha virt. eigenvalues --    1.81495   1.81798   1.82247   1.82564   1.82928
 Alpha virt. eigenvalues --    1.83549   1.83638   1.84149   1.84357   1.84747
 Alpha virt. eigenvalues --    1.85078   1.85312   1.85488   1.86031   1.86323
 Alpha virt. eigenvalues --    1.86689   1.86961   1.87439   1.87492   1.87991
 Alpha virt. eigenvalues --    1.88500   1.88785   1.89039   1.89304   1.89748
 Alpha virt. eigenvalues --    1.90096   1.90279   1.90870   1.91474   1.91589
 Alpha virt. eigenvalues --    1.92010   1.92186   1.92395   1.92868   1.92979
 Alpha virt. eigenvalues --    1.93507   1.93544   1.94058   1.94767   1.95057
 Alpha virt. eigenvalues --    1.95590   1.95852   1.96329   1.96690   1.96842
 Alpha virt. eigenvalues --    1.97404   1.97797   1.98200   1.98963   1.99118
 Alpha virt. eigenvalues --    1.99500   1.99693   2.00003   2.00720   2.00898
 Alpha virt. eigenvalues --    2.01223   2.01263   2.01686   2.02257   2.02768
 Alpha virt. eigenvalues --    2.03027   2.03521   2.03762   2.04348   2.04674
 Alpha virt. eigenvalues --    2.05241   2.05687   2.05817   2.06335   2.06771
 Alpha virt. eigenvalues --    2.07242   2.07424   2.07722   2.08446   2.08717
 Alpha virt. eigenvalues --    2.08960   2.09199   2.09736   2.09845   2.10632
 Alpha virt. eigenvalues --    2.10747   2.11323   2.11574   2.11956   2.12709
 Alpha virt. eigenvalues --    2.12975   2.13088   2.13684   2.14024   2.14333
 Alpha virt. eigenvalues --    2.14528   2.14847   2.15440   2.16362   2.17012
 Alpha virt. eigenvalues --    2.17319   2.17593   2.18051   2.18158   2.18652
 Alpha virt. eigenvalues --    2.19242   2.19424   2.19938   2.20269   2.20658
 Alpha virt. eigenvalues --    2.21187   2.21938   2.22660   2.23035   2.23197
 Alpha virt. eigenvalues --    2.23665   2.23992   2.24577   2.24700   2.24921
 Alpha virt. eigenvalues --    2.25362   2.25754   2.26043   2.26759   2.27008
 Alpha virt. eigenvalues --    2.27328   2.27691   2.28105   2.28348   2.29060
 Alpha virt. eigenvalues --    2.29342   2.29642   2.29966   2.30504   2.31082
 Alpha virt. eigenvalues --    2.31431   2.31705   2.32143   2.32603   2.32996
 Alpha virt. eigenvalues --    2.33502   2.33570   2.33969   2.34101   2.34492
 Alpha virt. eigenvalues --    2.34807   2.35089   2.35505   2.36252   2.36705
 Alpha virt. eigenvalues --    2.37038   2.37483   2.38000   2.38522   2.38665
 Alpha virt. eigenvalues --    2.38771   2.39214   2.39984   2.40270   2.41056
 Alpha virt. eigenvalues --    2.41121   2.41486   2.42346   2.42661   2.42801
 Alpha virt. eigenvalues --    2.43088   2.43238   2.43613   2.43946   2.44141
 Alpha virt. eigenvalues --    2.44752   2.44998   2.45241   2.45773   2.46177
 Alpha virt. eigenvalues --    2.46222   2.46928   2.47493   2.47634   2.47767
 Alpha virt. eigenvalues --    2.48492   2.48746   2.49150   2.49355   2.49448
 Alpha virt. eigenvalues --    2.49605   2.49805   2.50371   2.50712   2.50849
 Alpha virt. eigenvalues --    2.51257   2.51406   2.51692   2.52353   2.52741
 Alpha virt. eigenvalues --    2.52860   2.53212   2.53442   2.53953   2.54264
 Alpha virt. eigenvalues --    2.54588   2.54871   2.54963   2.55747   2.55910
 Alpha virt. eigenvalues --    2.56368   2.56576   2.56904   2.57080   2.57383
 Alpha virt. eigenvalues --    2.57617   2.58249   2.58402   2.58843   2.59072
 Alpha virt. eigenvalues --    2.59739   2.60015   2.60695   2.60830   2.60912
 Alpha virt. eigenvalues --    2.61407   2.61795   2.62090   2.62347   2.63068
 Alpha virt. eigenvalues --    2.63134   2.63330   2.63635   2.64172   2.64345
 Alpha virt. eigenvalues --    2.64758   2.65190   2.65286   2.65886   2.66014
 Alpha virt. eigenvalues --    2.66239   2.66467   2.67345   2.67498   2.68437
 Alpha virt. eigenvalues --    2.68485   2.68712   2.69214   2.69412   2.69998
 Alpha virt. eigenvalues --    2.70192   2.70587   2.70799   2.71017   2.71398
 Alpha virt. eigenvalues --    2.71633   2.72139   2.72529   2.72891   2.73476
 Alpha virt. eigenvalues --    2.73883   2.74223   2.74480   2.74900   2.75178
 Alpha virt. eigenvalues --    2.75600   2.75705   2.76220   2.76629   2.77059
 Alpha virt. eigenvalues --    2.77443   2.77760   2.77862   2.78360   2.78849
 Alpha virt. eigenvalues --    2.79086   2.79219   2.79732   2.80181   2.80562
 Alpha virt. eigenvalues --    2.81088   2.81256   2.81646   2.81898   2.82179
 Alpha virt. eigenvalues --    2.82595   2.83123   2.83466   2.83717   2.84016
 Alpha virt. eigenvalues --    2.84213   2.84887   2.84956   2.85303   2.85586
 Alpha virt. eigenvalues --    2.86011   2.86485   2.86813   2.87117   2.87309
 Alpha virt. eigenvalues --    2.87526   2.87843   2.88133   2.88798   2.89162
 Alpha virt. eigenvalues --    2.89362   2.89621   2.89828   2.90248   2.90576
 Alpha virt. eigenvalues --    2.91170   2.91385   2.91588   2.91759   2.92229
 Alpha virt. eigenvalues --    2.92448   2.92823   2.93053   2.93172   2.93502
 Alpha virt. eigenvalues --    2.94066   2.94653   2.94686   2.94957   2.95266
 Alpha virt. eigenvalues --    2.95779   2.96089   2.96359   2.96725   2.96728
 Alpha virt. eigenvalues --    2.97312   2.97758   2.97934   2.98223   2.98487
 Alpha virt. eigenvalues --    2.99085   2.99398   2.99615   3.00054   3.00084
 Alpha virt. eigenvalues --    3.00485   3.00863   3.01022   3.01323   3.01445
 Alpha virt. eigenvalues --    3.01929   3.02381   3.02864   3.03029   3.03080
 Alpha virt. eigenvalues --    3.03626   3.03758   3.04065   3.04166   3.04776
 Alpha virt. eigenvalues --    3.04870   3.05103   3.05346   3.05414   3.06000
 Alpha virt. eigenvalues --    3.06162   3.06886   3.07060   3.07129   3.07177
 Alpha virt. eigenvalues --    3.07536   3.07970   3.08677   3.08907   3.09105
 Alpha virt. eigenvalues --    3.09294   3.09655   3.09995   3.10093   3.10356
 Alpha virt. eigenvalues --    3.10472   3.10979   3.11349   3.11459   3.12042
 Alpha virt. eigenvalues --    3.12246   3.12773   3.13000   3.13316   3.13378
 Alpha virt. eigenvalues --    3.13600   3.14129   3.14460   3.14493   3.14708
 Alpha virt. eigenvalues --    3.15150   3.15406   3.15548   3.16019   3.16049
 Alpha virt. eigenvalues --    3.16406   3.16510   3.16795   3.17088   3.17579
 Alpha virt. eigenvalues --    3.17795   3.18205   3.18382   3.19026   3.19093
 Alpha virt. eigenvalues --    3.19174   3.19573   3.19862   3.20023   3.20401
 Alpha virt. eigenvalues --    3.20664   3.20942   3.21067   3.21295   3.21703
 Alpha virt. eigenvalues --    3.22171   3.22181   3.22433   3.22636   3.22846
 Alpha virt. eigenvalues --    3.23430   3.23715   3.23986   3.24101   3.24251
 Alpha virt. eigenvalues --    3.24517   3.24774   3.25381   3.25480   3.25861
 Alpha virt. eigenvalues --    3.26247   3.26519   3.26562   3.26781   3.27034
 Alpha virt. eigenvalues --    3.27267   3.27616   3.27874   3.28085   3.28430
 Alpha virt. eigenvalues --    3.28666   3.28792   3.29153   3.29224   3.29324
 Alpha virt. eigenvalues --    3.29632   3.29900   3.30134   3.30516   3.30821
 Alpha virt. eigenvalues --    3.31247   3.31596   3.31911   3.32208   3.32415
 Alpha virt. eigenvalues --    3.32820   3.32958   3.33258   3.33966   3.34142
 Alpha virt. eigenvalues --    3.34201   3.34507   3.34819   3.35607   3.35735
 Alpha virt. eigenvalues --    3.36072   3.36129   3.36481   3.36676   3.36761
 Alpha virt. eigenvalues --    3.37618   3.37721   3.38235   3.38931   3.39100
 Alpha virt. eigenvalues --    3.39500   3.39804   3.40160   3.40522   3.40794
 Alpha virt. eigenvalues --    3.41224   3.41498   3.41967   3.42150   3.42200
 Alpha virt. eigenvalues --    3.42969   3.43058   3.43982   3.44202   3.44418
 Alpha virt. eigenvalues --    3.44913   3.45321   3.45610   3.45937   3.46303
 Alpha virt. eigenvalues --    3.46490   3.46916   3.47364   3.48058   3.48145
 Alpha virt. eigenvalues --    3.48549   3.48730   3.49023   3.49377   3.50019
 Alpha virt. eigenvalues --    3.50448   3.50679   3.51016   3.51291   3.51715
 Alpha virt. eigenvalues --    3.51935   3.52912   3.53089   3.53215   3.53881
 Alpha virt. eigenvalues --    3.54066   3.54472   3.54910   3.55001   3.55386
 Alpha virt. eigenvalues --    3.55868   3.56314   3.56530   3.57133   3.57481
 Alpha virt. eigenvalues --    3.57643   3.58244   3.58800   3.59277   3.59882
 Alpha virt. eigenvalues --    3.60038   3.60262   3.60319   3.60854   3.61259
 Alpha virt. eigenvalues --    3.61386   3.61707   3.61837   3.62585   3.63161
 Alpha virt. eigenvalues --    3.63405   3.63631   3.63773   3.64216   3.64603
 Alpha virt. eigenvalues --    3.64933   3.65057   3.65882   3.66189   3.66514
 Alpha virt. eigenvalues --    3.66999   3.67108   3.67501   3.67741   3.68151
 Alpha virt. eigenvalues --    3.68293   3.68786   3.69146   3.69644   3.70128
 Alpha virt. eigenvalues --    3.70296   3.71289   3.71754   3.72085   3.72604
 Alpha virt. eigenvalues --    3.73348   3.73612   3.74040   3.74595   3.75230
 Alpha virt. eigenvalues --    3.75802   3.76117   3.76361   3.77193   3.77425
 Alpha virt. eigenvalues --    3.77679   3.78590   3.79473   3.79651   3.80167
 Alpha virt. eigenvalues --    3.80679   3.80877   3.81847   3.82014   3.83513
 Alpha virt. eigenvalues --    3.83835   3.84361   3.84802   3.85708   3.86153
 Alpha virt. eigenvalues --    3.86209   3.86365   3.87107   3.87541   3.88254
 Alpha virt. eigenvalues --    3.88369   3.88948   3.89075   3.89683   3.90488
 Alpha virt. eigenvalues --    3.90883   3.91102   3.91799   3.92138   3.92617
 Alpha virt. eigenvalues --    3.93085   3.93367   3.93901   3.94850   3.95302
 Alpha virt. eigenvalues --    3.95759   3.96028   3.96543   3.96780   3.97021
 Alpha virt. eigenvalues --    3.97884   3.98315   3.99868   3.99919   4.00358
 Alpha virt. eigenvalues --    4.00750   4.00969   4.01830   4.02591   4.02993
 Alpha virt. eigenvalues --    4.03829   4.04355   4.04670   4.05188   4.05903
 Alpha virt. eigenvalues --    4.06547   4.06919   4.07075   4.07553   4.07722
 Alpha virt. eigenvalues --    4.08668   4.09125   4.09377   4.09729   4.10298
 Alpha virt. eigenvalues --    4.10574   4.10890   4.11886   4.12151   4.12631
 Alpha virt. eigenvalues --    4.13222   4.14067   4.14304   4.14623   4.15245
 Alpha virt. eigenvalues --    4.15410   4.16008   4.16716   4.16937   4.17853
 Alpha virt. eigenvalues --    4.18898   4.19258   4.19635   4.19994   4.20395
 Alpha virt. eigenvalues --    4.21867   4.22061   4.22582   4.22869   4.23335
 Alpha virt. eigenvalues --    4.23885   4.24648   4.25218   4.25607   4.25903
 Alpha virt. eigenvalues --    4.26680   4.27551   4.27778   4.28720   4.29470
 Alpha virt. eigenvalues --    4.29616   4.30052   4.30501   4.31498   4.31865
 Alpha virt. eigenvalues --    4.32499   4.32741   4.33399   4.33735   4.33959
 Alpha virt. eigenvalues --    4.34702   4.35406   4.35973   4.36937   4.37374
 Alpha virt. eigenvalues --    4.37992   4.38545   4.39396   4.40394   4.40796
 Alpha virt. eigenvalues --    4.41332   4.41987   4.42884   4.43513   4.44180
 Alpha virt. eigenvalues --    4.45262   4.45995   4.46218   4.47385   4.47621
 Alpha virt. eigenvalues --    4.48286   4.48443   4.49337   4.50273   4.50442
 Alpha virt. eigenvalues --    4.51593   4.52248   4.53092   4.53941   4.56147
 Alpha virt. eigenvalues --    4.56477   4.56948   4.57763   4.58075   4.58365
 Alpha virt. eigenvalues --    4.59163   4.59261   4.59838   4.60746   4.61866
 Alpha virt. eigenvalues --    4.62402   4.63288   4.63600   4.64423   4.65161
 Alpha virt. eigenvalues --    4.66150   4.66194   4.66793   4.67014   4.67791
 Alpha virt. eigenvalues --    4.68520   4.70002   4.70735   4.70928   4.71474
 Alpha virt. eigenvalues --    4.72347   4.73051   4.73230   4.75227   4.75496
 Alpha virt. eigenvalues --    4.76170   4.76961   4.77896   4.78367   4.79652
 Alpha virt. eigenvalues --    4.80169   4.80523   4.80815   4.81891   4.82795
 Alpha virt. eigenvalues --    4.83811   4.84233   4.85706   4.86089   4.86584
 Alpha virt. eigenvalues --    4.87112   4.87525   4.88015   4.88568   4.89482
 Alpha virt. eigenvalues --    4.91228   4.92083   4.92486   4.92825   4.93721
 Alpha virt. eigenvalues --    4.94330   4.94948   4.97208   4.97376   4.98300
 Alpha virt. eigenvalues --    4.99247   5.00480   5.00572   5.00988   5.01585
 Alpha virt. eigenvalues --    5.01908   5.03595   5.04197   5.05676   5.05905
 Alpha virt. eigenvalues --    5.07279   5.08673   5.09108   5.09775   5.10163
 Alpha virt. eigenvalues --    5.10580   5.11319   5.12345   5.12607   5.13413
 Alpha virt. eigenvalues --    5.13692   5.14158   5.14914   5.16243   5.16653
 Alpha virt. eigenvalues --    5.16905   5.17665   5.18209   5.19800   5.20377
 Alpha virt. eigenvalues --    5.21313   5.21688   5.23588   5.24241   5.25088
 Alpha virt. eigenvalues --    5.28139   5.28518   5.29608   5.29936   5.30362
 Alpha virt. eigenvalues --    5.31474   5.31784   5.32173   5.32508   5.34273
 Alpha virt. eigenvalues --    5.35885   5.36443   5.37170   5.38413   5.39251
 Alpha virt. eigenvalues --    5.40318   5.40932   5.41792   5.43236   5.44186
 Alpha virt. eigenvalues --    5.45217   5.46368   5.47393   5.49502   5.50823
 Alpha virt. eigenvalues --    5.50997   5.51239   5.51970   5.53184   5.53724
 Alpha virt. eigenvalues --    5.53838   5.57007   5.57230   5.58022   5.59298
 Alpha virt. eigenvalues --    5.59958   5.60714   5.62656   5.62992   5.63917
 Alpha virt. eigenvalues --    5.65072   5.65599   5.68712   5.69313   5.70732
 Alpha virt. eigenvalues --    5.71712   5.74240   5.74680   5.76446   5.78113
 Alpha virt. eigenvalues --    5.78581   5.79236   5.85773   5.86263   5.86886
 Alpha virt. eigenvalues --    5.91199   5.91761   5.94892   5.95977   5.98787
 Alpha virt. eigenvalues --    6.00511   6.01562   6.03676   6.03758   6.04124
 Alpha virt. eigenvalues --    6.05094   6.06386   6.14490   6.14869   6.15018
 Alpha virt. eigenvalues --    6.16508   6.19075   6.26805   6.28526   6.30617
 Alpha virt. eigenvalues --    6.31063   6.31327   6.31661   6.32436   6.37624
 Alpha virt. eigenvalues --    6.38024   6.40009   6.41167   6.42121   6.43396
 Alpha virt. eigenvalues --    6.44045   6.46935   6.47635   6.58592   6.61704
 Alpha virt. eigenvalues --    6.62551   6.71131   6.75167   6.77837   6.80333
 Alpha virt. eigenvalues --    6.90472   6.91883   6.97153   6.97525   7.02369
 Alpha virt. eigenvalues --    7.03546   7.07585   7.10149   7.10247   7.16458
 Alpha virt. eigenvalues --    7.19535   7.25111  22.27413  22.27971  22.39646
 Alpha virt. eigenvalues --   22.43191  22.44092  22.45644  22.46884  22.54010
 Alpha virt. eigenvalues --   22.55589  22.63622  22.65517  22.72532  22.73578
 Alpha virt. eigenvalues --   22.78155  22.83987  22.85570  22.89040  22.90781
 Alpha virt. eigenvalues --   22.95373  22.98508  23.00802  23.10493  23.12216
 Alpha virt. eigenvalues --   23.23497  23.29556  23.30884  23.32125  23.37580
 Alpha virt. eigenvalues --   23.39861  23.42126  23.47562  23.49673  23.60425
 Alpha virt. eigenvalues --   23.62820  23.71121  23.82239  23.86254  23.96876
 Alpha virt. eigenvalues --   32.43597  32.67397  32.87621  32.90894  32.94188
 Alpha virt. eigenvalues --   33.03386  43.87365  43.89742  43.91923  43.93712
 Alpha virt. eigenvalues --   44.03633
  Beta  occ. eigenvalues -- -256.53046 -30.29270 -26.12392 -26.12136 -26.11368
  Beta  occ. eigenvalues --  -19.35005 -19.32400 -19.31020 -19.24230 -19.23882
  Beta  occ. eigenvalues --  -14.56384 -14.52649 -14.49759 -14.49051 -14.48451
  Beta  occ. eigenvalues --  -14.48416 -10.41738 -10.41054 -10.39592 -10.37337
  Beta  occ. eigenvalues --  -10.36209 -10.35853 -10.35429 -10.35379 -10.35280
  Beta  occ. eigenvalues --  -10.35125 -10.35052 -10.35042 -10.34486 -10.33713
  Beta  occ. eigenvalues --  -10.33210 -10.33135 -10.33064 -10.33053 -10.32891
  Beta  occ. eigenvalues --  -10.32875 -10.32626 -10.32559 -10.32514 -10.32438
  Beta  occ. eigenvalues --  -10.32380 -10.32305 -10.32285 -10.32273 -10.32113
  Beta  occ. eigenvalues --  -10.31527 -10.31494 -10.30842 -10.30811 -10.30792
  Beta  occ. eigenvalues --  -10.30565 -10.30471 -10.30345 -10.30182  -3.61734
  Beta  occ. eigenvalues --   -2.37203  -2.37132  -2.36086  -1.24256  -1.23360
  Beta  occ. eigenvalues --   -1.20893  -1.18771  -1.12088  -1.11026  -1.10587
  Beta  occ. eigenvalues --   -1.09813  -1.09598  -1.09398  -1.05137  -0.95249
  Beta  occ. eigenvalues --   -0.93997  -0.93261  -0.92957  -0.92535  -0.92493
  Beta  occ. eigenvalues --   -0.92378  -0.91940  -0.88989  -0.87946  -0.86844
  Beta  occ. eigenvalues --   -0.86285  -0.85877  -0.84032  -0.83756  -0.82206
  Beta  occ. eigenvalues --   -0.81962  -0.81545  -0.80217  -0.78350  -0.78074
  Beta  occ. eigenvalues --   -0.77688  -0.76983  -0.76783  -0.75064  -0.74081
  Beta  occ. eigenvalues --   -0.73479  -0.73191  -0.72405  -0.70734  -0.69886
  Beta  occ. eigenvalues --   -0.69673  -0.68899  -0.67009  -0.66014  -0.65513
  Beta  occ. eigenvalues --   -0.64216  -0.63484  -0.63063  -0.62782  -0.60932
  Beta  occ. eigenvalues --   -0.60810  -0.60208  -0.60148  -0.59727  -0.59329
  Beta  occ. eigenvalues --   -0.58952  -0.57779  -0.57666  -0.57491  -0.57306
  Beta  occ. eigenvalues --   -0.56883  -0.56268  -0.55944  -0.55620  -0.54958
  Beta  occ. eigenvalues --   -0.54767  -0.54460  -0.54373  -0.54286  -0.54155
  Beta  occ. eigenvalues --   -0.53932  -0.53648  -0.53461  -0.53394  -0.53300
  Beta  occ. eigenvalues --   -0.52765  -0.52706  -0.52207  -0.51698  -0.51572
  Beta  occ. eigenvalues --   -0.51418  -0.51342  -0.51248  -0.50993  -0.50569
  Beta  occ. eigenvalues --   -0.50515  -0.50114  -0.49465  -0.49277  -0.48780
  Beta  occ. eigenvalues --   -0.48756  -0.48690  -0.48289  -0.47676  -0.47528
  Beta  occ. eigenvalues --   -0.47276  -0.47168  -0.46884  -0.46817  -0.46532
  Beta  occ. eigenvalues --   -0.46005  -0.45549  -0.45166  -0.44850  -0.44061
  Beta  occ. eigenvalues --   -0.43660  -0.43068  -0.42575  -0.42290  -0.41202
  Beta  occ. eigenvalues --   -0.40917  -0.40820  -0.39980  -0.39779  -0.39695
  Beta  occ. eigenvalues --   -0.39407  -0.38200  -0.37748  -0.35695  -0.34670
  Beta  occ. eigenvalues --   -0.34045  -0.33734  -0.33294  -0.32206  -0.30385
  Beta  occ. eigenvalues --   -0.30141  -0.29167
  Beta virt. eigenvalues --   -0.20483  -0.18953  -0.18054  -0.16075  -0.14983
  Beta virt. eigenvalues --   -0.13906  -0.12946  -0.09679  -0.09137  -0.07648
  Beta virt. eigenvalues --   -0.07209  -0.06845  -0.05994  -0.05708  -0.04939
  Beta virt. eigenvalues --   -0.04271  -0.04120  -0.03280  -0.03197  -0.03141
  Beta virt. eigenvalues --   -0.02508  -0.02021  -0.01784  -0.01500  -0.01332
  Beta virt. eigenvalues --   -0.01074  -0.00535  -0.00191   0.00032   0.00189
  Beta virt. eigenvalues --    0.00344   0.00847   0.00952   0.01149   0.01791
  Beta virt. eigenvalues --    0.02299   0.02571   0.02648   0.03106   0.03280
  Beta virt. eigenvalues --    0.03399   0.03847   0.03868   0.04147   0.04357
  Beta virt. eigenvalues --    0.04490   0.04736   0.04853   0.05020   0.05051
  Beta virt. eigenvalues --    0.05305   0.05879   0.06061   0.06288   0.06323
  Beta virt. eigenvalues --    0.06796   0.06939   0.07119   0.07313   0.07773
  Beta virt. eigenvalues --    0.07886   0.08076   0.08377   0.08629   0.09085
  Beta virt. eigenvalues --    0.09234   0.09420   0.09644   0.09890   0.10083
  Beta virt. eigenvalues --    0.10367   0.10502   0.10678   0.10846   0.11154
  Beta virt. eigenvalues --    0.11215   0.11599   0.11886   0.12070   0.12230
  Beta virt. eigenvalues --    0.12351   0.12639   0.12721   0.12973   0.13160
  Beta virt. eigenvalues --    0.13471   0.13694   0.13827   0.14062   0.14098
  Beta virt. eigenvalues --    0.14288   0.14553   0.14800   0.15096   0.15174
  Beta virt. eigenvalues --    0.15597   0.15931   0.16027   0.16150   0.16482
  Beta virt. eigenvalues --    0.16540   0.16809   0.17057   0.17243   0.17411
  Beta virt. eigenvalues --    0.17889   0.18032   0.18217   0.18366   0.18645
  Beta virt. eigenvalues --    0.18830   0.18891   0.19343   0.19601   0.19885
  Beta virt. eigenvalues --    0.20027   0.20087   0.20268   0.20711   0.20775
  Beta virt. eigenvalues --    0.21172   0.21321   0.21390   0.21730   0.21902
  Beta virt. eigenvalues --    0.22036   0.22521   0.22748   0.22877   0.23105
  Beta virt. eigenvalues --    0.23332   0.23624   0.23798   0.23965   0.24120
  Beta virt. eigenvalues --    0.24723   0.25012   0.25113   0.25330   0.25691
  Beta virt. eigenvalues --    0.26000   0.26339   0.26399   0.26490   0.26691
  Beta virt. eigenvalues --    0.26782   0.27490   0.27786   0.27902   0.28055
  Beta virt. eigenvalues --    0.28392   0.28780   0.29175   0.29268   0.29515
  Beta virt. eigenvalues --    0.29751   0.29836   0.30167   0.30282   0.30713
  Beta virt. eigenvalues --    0.30939   0.30988   0.31199   0.31656   0.31701
  Beta virt. eigenvalues --    0.31801   0.31848   0.32113   0.32426   0.32697
  Beta virt. eigenvalues --    0.32790   0.33167   0.33307   0.33548   0.33617
  Beta virt. eigenvalues --    0.34005   0.34121   0.34327   0.34620   0.34820
  Beta virt. eigenvalues --    0.35067   0.35133   0.35276   0.35440   0.35723
  Beta virt. eigenvalues --    0.35781   0.35879   0.36197   0.36466   0.36646
  Beta virt. eigenvalues --    0.36869   0.37028   0.37127   0.37298   0.37387
  Beta virt. eigenvalues --    0.37608   0.38041   0.38274   0.38626   0.38743
  Beta virt. eigenvalues --    0.38941   0.38996   0.39162   0.39389   0.39608
  Beta virt. eigenvalues --    0.39788   0.39860   0.39992   0.40069   0.40449
  Beta virt. eigenvalues --    0.40620   0.40938   0.41048   0.41192   0.41504
  Beta virt. eigenvalues --    0.41805   0.41862   0.41931   0.42238   0.42503
  Beta virt. eigenvalues --    0.42742   0.42912   0.42969   0.43232   0.43276
  Beta virt. eigenvalues --    0.43483   0.43527   0.43877   0.44164   0.44318
  Beta virt. eigenvalues --    0.44393   0.44710   0.44847   0.45112   0.45432
  Beta virt. eigenvalues --    0.45625   0.45914   0.46104   0.46268   0.46606
  Beta virt. eigenvalues --    0.46793   0.47011   0.47128   0.47307   0.47502
  Beta virt. eigenvalues --    0.47658   0.48214   0.48356   0.48412   0.48664
  Beta virt. eigenvalues --    0.48846   0.49052   0.49242   0.49703   0.49903
  Beta virt. eigenvalues --    0.49985   0.50197   0.50528   0.50658   0.51182
  Beta virt. eigenvalues --    0.51300   0.51457   0.51545   0.51852   0.52131
  Beta virt. eigenvalues --    0.52307   0.52558   0.52872   0.53177   0.53238
  Beta virt. eigenvalues --    0.53435   0.53733   0.54264   0.54331   0.54677
  Beta virt. eigenvalues --    0.54762   0.55213   0.55341   0.55527   0.55708
  Beta virt. eigenvalues --    0.56018   0.56128   0.56474   0.57134   0.57222
  Beta virt. eigenvalues --    0.57444   0.57672   0.57905   0.58248   0.58365
  Beta virt. eigenvalues --    0.58596   0.58740   0.59275   0.59520   0.59584
  Beta virt. eigenvalues --    0.59811   0.60104   0.60748   0.60787   0.61017
  Beta virt. eigenvalues --    0.61302   0.61552   0.61920   0.62209   0.62337
  Beta virt. eigenvalues --    0.62826   0.62966   0.63366   0.63504   0.63810
  Beta virt. eigenvalues --    0.64321   0.64396   0.64786   0.65075   0.65294
  Beta virt. eigenvalues --    0.65582   0.65911   0.66222   0.66607   0.66750
  Beta virt. eigenvalues --    0.67095   0.67323   0.67667   0.67948   0.68287
  Beta virt. eigenvalues --    0.68433   0.68778   0.69001   0.69201   0.69671
  Beta virt. eigenvalues --    0.70046   0.70271   0.70436   0.70718   0.71218
  Beta virt. eigenvalues --    0.71721   0.72011   0.72281   0.72504   0.72827
  Beta virt. eigenvalues --    0.72972   0.73172   0.73534   0.73924   0.74279
  Beta virt. eigenvalues --    0.74577   0.74836   0.75071   0.75342   0.75860
  Beta virt. eigenvalues --    0.76035   0.76349   0.76701   0.77107   0.77315
  Beta virt. eigenvalues --    0.77612   0.77695   0.78409   0.78556   0.79026
  Beta virt. eigenvalues --    0.79236   0.79524   0.80042   0.80392   0.80436
  Beta virt. eigenvalues --    0.80563   0.80959   0.81395   0.81626   0.81790
  Beta virt. eigenvalues --    0.82525   0.82713   0.83219   0.83316   0.83916
  Beta virt. eigenvalues --    0.84047   0.84488   0.84705   0.84894   0.85636
  Beta virt. eigenvalues --    0.86015   0.86350   0.86639   0.86831   0.87020
  Beta virt. eigenvalues --    0.87257   0.87605   0.87913   0.88065   0.88350
  Beta virt. eigenvalues --    0.88695   0.89057   0.89148   0.89557   0.89954
  Beta virt. eigenvalues --    0.90162   0.90345   0.90714   0.91061   0.91393
  Beta virt. eigenvalues --    0.91693   0.91914   0.92180   0.92546   0.92659
  Beta virt. eigenvalues --    0.93085   0.93588   0.94044   0.94255   0.94477
  Beta virt. eigenvalues --    0.94594   0.94739   0.95183   0.95583   0.95694
  Beta virt. eigenvalues --    0.96194   0.96429   0.96806   0.97164   0.97312
  Beta virt. eigenvalues --    0.97788   0.98253   0.98342   0.98458   0.98773
  Beta virt. eigenvalues --    0.99036   0.99511   0.99701   1.00212   1.00556
  Beta virt. eigenvalues --    1.00987   1.01239   1.01497   1.02186   1.02219
  Beta virt. eigenvalues --    1.02434   1.03062   1.03356   1.03744   1.04151
  Beta virt. eigenvalues --    1.04411   1.04688   1.04950   1.05400   1.05559
  Beta virt. eigenvalues --    1.05941   1.06405   1.06464   1.06700   1.07055
  Beta virt. eigenvalues --    1.07584   1.08074   1.08521   1.08618   1.08912
  Beta virt. eigenvalues --    1.09301   1.09666   1.09986   1.10158   1.10487
  Beta virt. eigenvalues --    1.11167   1.11851   1.12263   1.12479   1.13114
  Beta virt. eigenvalues --    1.13667   1.13910   1.14356   1.14613   1.15170
  Beta virt. eigenvalues --    1.15342   1.15433   1.16528   1.16628   1.17022
  Beta virt. eigenvalues --    1.17548   1.17831   1.18097   1.18449   1.19141
  Beta virt. eigenvalues --    1.19543   1.19893   1.20020   1.20548   1.20814
  Beta virt. eigenvalues --    1.21271   1.21784   1.22114   1.22415   1.22766
  Beta virt. eigenvalues --    1.23398   1.23597   1.23884   1.24564   1.25128
  Beta virt. eigenvalues --    1.25267   1.25442   1.26065   1.26896   1.27121
  Beta virt. eigenvalues --    1.27508   1.28001   1.28152   1.28463   1.28721
  Beta virt. eigenvalues --    1.28959   1.29443   1.30069   1.30585   1.31126
  Beta virt. eigenvalues --    1.31564   1.31705   1.32225   1.32652   1.32854
  Beta virt. eigenvalues --    1.33421   1.33765   1.33970   1.34803   1.34853
  Beta virt. eigenvalues --    1.35073   1.35420   1.36008   1.36225   1.36393
  Beta virt. eigenvalues --    1.36694   1.37018   1.37714   1.38060   1.38360
  Beta virt. eigenvalues --    1.38472   1.38867   1.39104   1.39707   1.39822
  Beta virt. eigenvalues --    1.40087   1.40415   1.40761   1.41055   1.41419
  Beta virt. eigenvalues --    1.41914   1.42121   1.42334   1.42821   1.43045
  Beta virt. eigenvalues --    1.43428   1.43523   1.43993   1.44239   1.44401
  Beta virt. eigenvalues --    1.44531   1.45024   1.45081   1.45667   1.45762
  Beta virt. eigenvalues --    1.46128   1.46244   1.46639   1.46826   1.47446
  Beta virt. eigenvalues --    1.47748   1.48133   1.48171   1.48725   1.48850
  Beta virt. eigenvalues --    1.49210   1.49281   1.49853   1.49895   1.49913
  Beta virt. eigenvalues --    1.50355   1.50717   1.50892   1.51068   1.51614
  Beta virt. eigenvalues --    1.51767   1.52096   1.52252   1.52662   1.52847
  Beta virt. eigenvalues --    1.53016   1.53184   1.53698   1.53906   1.54159
  Beta virt. eigenvalues --    1.54632   1.54913   1.55198   1.55494   1.55710
  Beta virt. eigenvalues --    1.55941   1.56436   1.56515   1.56636   1.57129
  Beta virt. eigenvalues --    1.57433   1.57545   1.57684   1.58067   1.58159
  Beta virt. eigenvalues --    1.58461   1.58854   1.59154   1.59878   1.60201
  Beta virt. eigenvalues --    1.60245   1.60518   1.61175   1.61242   1.61696
  Beta virt. eigenvalues --    1.61849   1.62503   1.62842   1.62969   1.63462
  Beta virt. eigenvalues --    1.63718   1.64174   1.64401   1.64846   1.65286
  Beta virt. eigenvalues --    1.65480   1.65873   1.66041   1.66633   1.67043
  Beta virt. eigenvalues --    1.67455   1.67812   1.68062   1.68474   1.68885
  Beta virt. eigenvalues --    1.69118   1.69866   1.70132   1.70296   1.71071
  Beta virt. eigenvalues --    1.71601   1.72065   1.72132   1.72464   1.73057
  Beta virt. eigenvalues --    1.73377   1.73836   1.74092   1.74403   1.75175
  Beta virt. eigenvalues --    1.75465   1.75537   1.76231   1.76783   1.77221
  Beta virt. eigenvalues --    1.77315   1.77750   1.78343   1.78486   1.79038
  Beta virt. eigenvalues --    1.79316   1.79595   1.80030   1.80287   1.80741
  Beta virt. eigenvalues --    1.81110   1.81514   1.81818   1.82251   1.82573
  Beta virt. eigenvalues --    1.82946   1.83572   1.83650   1.84161   1.84386
  Beta virt. eigenvalues --    1.84787   1.85100   1.85339   1.85517   1.86048
  Beta virt. eigenvalues --    1.86348   1.86707   1.86986   1.87455   1.87520
[...]
  1664. RY*(   3)Fe  89                  0.00205     0.53816   
  1665. RY*(   4)Fe  89                  0.00113     1.04545   
  1666. RY*(   5)Fe  89                  0.00087     0.75116   
  1667. RY*(   6)Fe  89                  0.00063     1.12700   
  1668. RY*(   7)Fe  89                  0.00029     1.54974   
  1669. RY*(   8)Fe  89                  0.00012     1.50202   
  1670. RY*(   9)Fe  89                  0.00013     1.78878   
  1671. RY*(  10)Fe  89                  0.00008     2.61984   
  1672. RY*(  11)Fe  89                  0.00005     2.93859   
  1673. RY*(  12)Fe  89                  0.00006     2.55437   
  1674. RY*(  13)Fe  89                  0.00004     2.41412   
  1675. RY*(  14)Fe  89                  0.00004     1.70686   
  1676. RY*(  15)Fe  89                  0.00004     3.50543   
  1677. RY*(  16)Fe  89                  0.00004     3.56569   
  1678. RY*(  17)Fe  89                  0.00002     2.81556   
  1679. RY*(  18)Fe  89                  0.00002     2.49038   
  1680. RY*(  19)Fe  89                  0.00001     2.90351   
  1681. RY*(  20)Fe  89                  0.00001     2.50324   
  1682. RY*(  21)Fe  89                  0.00000     3.02047   
  1683. RY*(  22)Fe  89                  0.00001     2.25511   
  1684. RY*(  23)Fe  89                  0.00001     3.89130   
  1685. RY*(  24)Fe  89                  0.00001     4.03352   
  1686. RY*(  25)Fe  89                  0.00001     3.95255   
  1687. RY*(  26)Fe  89                  0.00001     4.13811   
  1688. RY*(  27)Fe  89                  0.00001     4.13034   
  1689. RY*(   1) H  90                  0.00109     0.60002   
  1690. RY*(   2) H  90                  0.00014     2.08919   
  1691. RY*(   3) H  90                  0.00012     2.15811   
  1692. RY*(   4) H  90                  0.00007     2.98778   
  1693. RY*(   5) H  90                  0.00000     3.12765   
  1694. BD*(   1) C   1 - C   2          0.00611     0.26043   
  1695. BD*(   1) C   1 - H  86          0.00139     0.30667   
  1696. BD*(   1) C   1 - H  87          0.00351     0.30138   
  1697. BD*(   1) C   1 - H  88          0.00470     0.30173   
  1698. BD*(   1) C   2 - N   3          0.01250     0.38439   
  1699. BD*(   2) C   2 - N   3          0.35198    -0.14529  1704(v),170(v),1697(v)
                                                    220(g),1696(v),245(g),224(g)
  1700. BD*(   1) C   2 - C   4          0.01046     0.43139   
  1701. BD*(   1) N   3 - C   5          0.01044     0.40974   
  1702. BD*(   1) N   3 - H   7          0.00810     0.32432   
  1703. BD*(   1) C   4 - N   6          0.00819     0.44169   
  1704. BD*(   2) C   4 - N   6          0.31414    -0.12137  1699(v),191(v),170(v),271(g)
                                                    325(g),299(v),327(g),286(g)
  1705. BD*(   1) C   4 - H  84          0.00707     0.31253   
  1706. BD*(   1) C   5 - N   6          0.00978     0.40077   
  1707. BD*(   1) C   5 - H  85          0.00732     0.27706   
  1708. BD*(   1) N   6 -Fe  89          0.04262     0.13337   
  1709. BD*(   1) C   8 - C  12          0.01119     0.44452   
  1710. BD*(   1) C   8 - C  39          0.01115     0.43228   
  1711. BD*(   1) C   8 - H  61          0.00564     0.35186   
  1712. BD*(   1) C   9 - C  15          0.01211     0.43457   
  1713. BD*(   1) C   9 - C  22          0.01163     0.43630   
  1714. BD*(   2) C   9 - C  22          0.22054    -0.07812  1748(v),173(v),380(g)
                                                    1717(r),1804(r)
  1715. BD*(   1) C   9 - H  65          0.00605     0.35127   
  1716. BD*(   1) C  10 - C  25          0.01139     0.45180   
  1717. BD*(   2) C  10 - C  25          0.19742    -0.06785  1748(v),1763(v),407(g)
                                                    1714(r),1757(r)
  1718. BD*(   1) C  10 - C  29          0.01140     0.44369   
  1719. BD*(   1) C  10 - H  90          0.00624     0.34771   
  1720. BD*(   1) C  11 - C  32          0.01192     0.46358   
  1721. BD*(   1) C  11 - C  36          0.01222     0.48957   
  1722. BD*(   1) C  11 - H  78          0.00821     0.35654   
  1723. BD*(   1) C  12 - C  13          0.01454     0.46739   
  1724. BD*(   1) C  12 - N  46          0.01480     0.42281   
  1725. BD*(   2) C  12 - N  46          0.32943    -0.09749  171(v),1727(v),173(v),191(v)
                                                    460(g),1343(g),192(v)
                                                    1803(r)
  1726. BD*(   1) C  13 - C  14          0.01158     0.45594   
  1727. BD*(   2) C  13 - C  14          0.13793    -0.04323  1725(v),173(v),1735(v)
                                                    1732(v),1733(v)
  1728. BD*(   1) C  13 - C  17          0.01179     0.29687   
  1729. BD*(   1) C  14 - C  15          0.01529     0.46131   
  1730. BD*(   1) C  14 - C  16          0.00794     0.28616   
  1731. BD*(   1) C  15 - N  46          0.01364     0.44423   
  1732. BD*(   1) C  16 - H  62          0.00410     0.31980   
  1733. BD*(   1) C  16 - H  63          0.00359     0.32018   
  1734. BD*(   1) C  16 - H  64          0.00242     0.32715   
  1735. BD*(   1) C  17 - C  18          0.00793     0.28446   
  1736. BD*(   1) C  17 - H  57          0.00718     0.32708   
  1737. BD*(   1) C  17 - H  58          0.00742     0.32295   
  1738. BD*(   1) C  18 - C  19          0.03659     0.26443   
  1739. BD*(   1) C  18 - H  55          0.00526     0.32663   
  1740. BD*(   1) C  18 - H  56          0.00666     0.31355   
  1741. BD*(   1) C  19 - O  20          0.03466     0.45289   
  1742. BD*(   1) C  19 - O  21          0.02017     0.51724   
  1743. BD*(   2) C  19 - O  21          0.09691    -0.05388   
  1744. BD*(   1) O  20 - H  51          0.00688     0.31464   
  1745. BD*(   1) C  22 - C  23          0.01522     0.42970   
  1746. BD*(   1) C  22 - N  47          0.01579     0.39992   
  1747. BD*(   1) C  23 - C  24          0.01397     0.44510   
  1748. BD*(   2) C  23 - C  24          0.17813    -0.05606  1717(v),1714(v),1757(v)
                                                    1753(v),1754(v),773(g)
  1749. BD*(   1) C  23 - C  26          0.00726     0.27270   
  1750. BD*(   1) C  24 - C  25          0.01578     0.45819   
  1751. BD*(   1) C  24 - C  27          0.01100     0.45392   
  1752. BD*(   1) C  25 - N  47          0.01446     0.41755   
  1753. BD*(   1) C  26 - H  66          0.00410     0.32054   
  1754. BD*(   1) C  26 - H  67          0.00315     0.32023   
  1755. BD*(   1) C  26 - H  68          0.00289     0.32390   
  1756. BD*(   1) C  27 - C  28          0.00323     0.39564   
  1757. BD*(   2) C  27 - C  28          0.06430    -0.08208   
  1758. BD*(   1) C  27 - H  71          0.00860     0.34612   
  1759. BD*(   1) C  28 - H  69          0.00209     0.34887   
  1760. BD*(   1) C  28 - H  70          0.00274     0.34358   
  1761. BD*(   1) C  29 - C  30          0.01412     0.44622   
  1762. BD*(   1) C  29 - N  48          0.01394     0.42228   
  1763. BD*(   2) C  29 - N  48          0.33296    -0.10049  1717(v),1765(v),178(v)
                                                    191(v),902(g),192(v),407(v)
                                                    1396(g)
  1764. BD*(   1) C  30 - C  31          0.01345     0.44936   
  1765. BD*(   2) C  30 - C  31          0.17430    -0.04953  1774(v),1763(v),178(v)
                                                    1771(v),1772(v),928(g)
  1766. BD*(   1) C  30 - C  33          0.00707     0.27027   
  1767. BD*(   1) C  31 - C  32          0.01538     0.46121   
  1768. BD*(   1) C  31 - C  34          0.01116     0.45006   
  1769. BD*(   1) C  32 - N  48          0.01345     0.45474   
  1770. BD*(   1) C  33 - H  72          0.00272     0.33509   
  1771. BD*(   1) C  33 - H  73          0.00403     0.32051   
  1772. BD*(   1) C  33 - H  74          0.00265     0.32112   
  1773. BD*(   1) C  34 - C  35          0.00335     0.41114   
  1774. BD*(   2) C  34 - C  35          0.05408    -0.07040   
  1775. BD*(   1) C  34 - H  77          0.00778     0.35554   
  1776. BD*(   1) C  35 - H  75          0.00223     0.35700   
  1777. BD*(   1) C  35 - H  76          0.00329     0.35489   
  1778. BD*(   1) C  36 - C  37          0.01611     0.47426   
  1779. BD*(   1) C  36 - N  49          0.01464     0.45374   
  1780. BD*(   2) C  36 - N  49          0.32428    -0.09269  1782(v),179(v),191(v)
                                                    1084(g),1420(g),433(v)
                                                    192(v)
  1781. BD*(   1) C  37 - C  38          0.01122     0.45943   
  1782. BD*(   2) C  37 - C  38          0.13411    -0.04093  1780(v),179(v),1790(v)
                                                    1787(v),1788(v)
  1783. BD*(   1) C  37 - C  40          0.00816     0.29414   
  1784. BD*(   1) C  38 - C  39          0.01530     0.43780   
  1785. BD*(   1) C  38 - C  41          0.01010     0.29461   
  1786. BD*(   1) C  39 - N  49          0.01321     0.42031   
  1787. BD*(   1) C  40 - H  79          0.00431     0.32298   
  1788. BD*(   1) C  40 - H  80          0.00366     0.32484   
  1789. BD*(   1) C  40 - H  81          0.00266     0.32886   
  1790. BD*(   1) C  41 - C  42          0.00786     0.26797   
  1791. BD*(   1) C  41 - H  59          0.00576     0.33978   
  1792. BD*(   1) C  41 - H  60          0.00632     0.33642   
  1793. BD*(   1) C  42 - C  43          0.04450     0.27035   
  1794. BD*(   1) C  42 - H  53          0.00572     0.31180   
  1795. BD*(   1) C  42 - H  54          0.00609     0.32278   
  1796. BD*(   1) C  43 - O  44          0.03312     0.47630   
  1797. BD*(   1) C  43 - O  45          0.02328     0.52105   
  1798. BD*(   2) C  43 - O  45          0.08490    -0.03852   
  1799. BD*(   1) O  44 - H  52          0.00740     0.31167   
  1800. BD*(   1) N  46 -Fe  89          0.03956     0.26210   
  1801. BD*(   1) N  48 -Fe  89          0.03817     0.24629   
  1802. BD*(   1) N  49 -Fe  89          0.05752     0.16377   
       -------------------------------
              Total Lewis  176.34589  ( 96.8367%)
        Valence non-Lewis    5.40133  (  2.9660%)
        Rydberg non-Lewis    0.35916  (  0.1972%)
       -------------------------------
            Total unit  1  182.10639  (100.0000%)
           Charge unit  1    0.89361

 Molecular unit  2  (H2O)
   110. BD (   1) O  50 - H  82          0.99660    -0.90173  192(r),1664(r),1665(r)
                                                    1708(r),1346(r),191(r)
                                                    326(r),324(r),1663(r)
                                                    1666(r),1350(r),1344(r)
                                                    1667(r),1342(r),1343(r)
   111. BD (   1) O  50 - H  83          0.97947    -0.93750  192(r),191(r),190(r),1708(r)
                                                    1801(r),1663(r),1629(v)
                                                    1802(r),1664(r),1668(r)
                                                    323(r),1662(r),1421(r)
                                                    326(r),1752(r),1343(r)
                                                    1345(r),173(r),1370(r)
                                                    1371(r),1745(r),1394(r)
                                                    1667(r),1800(r),1671(r)
                                                    1729(r)
   160. CR (   1) O  50                  0.99992   -19.13195  192(r),191(r),1632(v)
                                                    1629(v),1708(r),1801(r)
                                                    1666(r),1802(r)
   186. LP (   1) O  50                  0.98566    -0.62018  192(r),191(r),1800(r)
                                                    1633(v),1801(r),1627(v)
                                                    190(r),173(r),1666(r)
                                                    1369(r),325(r),1725(r)
                                                    1708(r),326(r),1664(r)
                                                    1395(r),1667(r),1371(r)
                                                    1422(r),1802(r),1345(r)
                                                    1671(r)
   187. LP (   2) O  50                  0.91185    -0.56498  192(r),191(r),1804(g)
                                                    1708(r),1628(v),1634(v)
                                                    1632(v),1800(r),1671(r)
                                                    1663(r),1396(r),1666(r)
                                                    1343(r),1369(r),1371(r)
                                                    1345(r),190(r),1344(r)
                                                    1801(r),1668(r),1664(r)
                                                    1670(r),1422(r),1397(r)
                                                    326(r),1394(r),1662(r)
                                                    1368(r),1724(r),1667(r)
                                                    325(r),1786(r),1725(r)
  1446. RY*(   1) O  50                  0.00108     0.70873   
  1447. RY*(   2) O  50                  0.00054     1.20867   
  1448. RY*(   3) O  50                  0.00026     1.11779   
  1449. RY*(   4) O  50                  0.00012     0.87655   
  1450. RY*(   5) O  50                  0.00004     2.82423   
  1451. RY*(   6) O  50                  0.00001     4.67671   
  1452. RY*(   7) O  50                  0.00001     3.03003   
  1453. RY*(   8) O  50                  0.00002     2.12846   
  1454. RY*(   9) O  50                  0.00001     3.36979   
  1455. RY*(  10) O  50                  0.00001     2.38617   
  1456. RY*(  11) O  50                  0.00000     6.31526   
  1457. RY*(  12) O  50                  0.00000     2.96326   
  1458. RY*(  13) O  50                  0.00000     6.42304   
  1459. RY*(  14) O  50                  0.00001     2.22381   
  1460. RY*(  15) O  50                  0.00000     6.46934   
  1461. RY*(  16) O  50                  0.00000    42.02656   
  1462. RY*(  17) O  50                  0.00000     6.18720   
  1463. RY*(  18) O  50                  0.00001     2.44428   
  1464. RY*(  19) O  50                  0.00000     6.53174   
  1465. RY*(  20) O  50                  0.00000     5.48085   
  1466. RY*(  21) O  50                  0.00000     5.34567   
  1467. RY*(  22) O  50                  0.00000     5.34527   
  1468. RY*(  23) O  50                  0.00000     5.02789   
  1469. RY*(  24) O  50                  0.00000     5.44483   
  1470. RY*(  25) O  50                  0.00000     5.13373   
  1471. RY*(  26) O  50                  0.00000     5.32157   
  1627. RY*(   1) H  82                  0.00039     1.85718   
  1628. RY*(   2) H  82                  0.00033     1.95846   
  1629. RY*(   3) H  82                  0.00019     2.14829   
  1630. RY*(   4) H  82                  0.00011     0.89658   
  1631. RY*(   5) H  82                  0.00000     2.81954   
  1632. RY*(   1) H  83                  0.00110     1.89977   
  1633. RY*(   2) H  83                  0.00048     1.84514   
  1634. RY*(   3) H  83                  0.00033     2.17135   
  1635. RY*(   4) H  83                  0.00009     2.08432   
  1636. RY*(   5) H  83                  0.00004     2.52280   
  1803. BD*(   1) O  50 - H  82          0.00189     0.33114   
  1804. BD*(   1) O  50 - H  83          0.01295     0.31483   
       -------------------------------
              Total Lewis    4.87351  ( 99.5912%)
        Valence non-Lewis    0.01484  (  0.3032%)
        Rydberg non-Lewis    0.00517  (  0.1056%)
       -------------------------------
            Total unit  2    4.89351  (100.0000%)
           Charge unit  2    0.10649
 1\1\GINC-NODE653\SP\UPBE1PBE\def2TZVP\C38H40Fe1N6O5(1+,2)\ZHARTOVSKA\1
 0-Sep-2022\0\\# PBE1PBE/def2TZVP empiricaldispersion=GD3BJ scf=maxcycl
 e=999 geom=check pop=nbo\\1cmq_III_D\\1,2\C,0,-9.054,55.167999,107.806
 999\C,0,-8.483,55.854,109.033997\N,0,-9.094,56.655998,109.893997\C,0,-
 7.189,55.75,109.502998\C,0,-8.292,57.039001,110.848999\N,0,-7.124,56.4
 77001,110.595001\H,0,-9.996,56.994999,109.786003\C,0,-5.586,53.953999,
 112.992996\C,0,-7.45,58.136002,114.417999\C,0,-5.857,60.327,110.499001
 \C,0,-3.574,56.296001,109.362999\C,0,-6.312,54.890999,113.741997\C,0,-
 6.804,54.659,115.013\C,0,-7.365,55.868,115.435997\C,0,-7.131,56.764,11
 4.403999\C,0,-8.109,56.148998,116.737\C,0,-6.693,53.345001,115.777\C,0
 ,-5.471,53.191002,116.658997\C,0,-5.385,51.824001,117.332001\O,0,-6.22
 1,51.484001,118.179001\O,0,-4.472,51.056,117.025002\C,0,-7.31,59.10800
 2,113.417\C,0,-7.86,60.397999,113.467003\C,0,-7.432,61.004002,112.2760
 01\C,0,-6.623,60.075001,111.636002\C,0,-8.733,60.909,114.617996\C,0,-7
 .732,62.242001,111.709\C,0,-8.708,63.185001,112.183998\C,0,-5.015,59.4
 3,109.825996\C,0,-4.26,59.749001,108.697998\C,0,-3.566,58.562,108.4110
 03\C,0,-3.984,57.624001,109.349998\C,0,-4.158,61.146,108.060997\C,0,-2
 .619,58.244999,107.426003\C,0,-2.155,59.075001,106.356003\C,0,-3.91,55
 .272999,110.214996\C,0,-3.577,53.949001,110.002998\C,0,-4.193,53.222,1
 11.023003\C,0,-4.837,54.186001,111.819\C,0,-2.773,53.393002,108.838997
 \C,0,-4.136,51.700001,111.188004\C,0,-3.08,51.261002,112.223999\C,0,-2
 .979,49.784,112.612\O,0,-2.394,49.476002,113.651001\O,0,-3.492,48.924,
 111.901001\N,0,-6.57,56.157001,113.358002\N,0,-6.673,58.889,112.253998
 \N,0,-4.834,58.155998,110.217003\N,0,-4.659,55.419998,111.303001\O,0,-
 4.451,57.751999,113.419998\H,0,-5.93214285,51.14295109,119.0286165\H,0
 ,-1.43439269,49.4681988,113.67732434\H,0,-2.12285668,51.55856201,111.8
 4951976\H,0,-3.2638601,51.81455843,113.12103341\H,0,-4.5955726,53.3347
 8499,116.06078858\H,0,-5.49744628,53.94573981,117.4170019\H,0,-7.56221
 853,53.24409009,116.39277279\H,0,-6.6922173,52.5458533,115.06547885\H,
 0,-3.89858446,51.25792988,110.24296062\H,0,-5.09667913,51.34966911,111
 .50306458\H,0,-5.60144933,52.94645823,113.35288892\H,0,-7.52042763,56.
 79775315,117.3514911\H,0,-9.04562443,56.61776494,116.51815705\H,0,-8.2
 8302603,55.22865721,117.25428887\H,0,-7.86458565,58.49280151,115.33762
 547\H,0,-8.21820002,61.69092033,115.13614808\H,0,-9.65420063,61.286983
 99,114.22631053\H,0,-8.93620033,60.10591894,115.29524812\H,0,-8.443039
 38,64.21475713,112.30357298\H,0,-9.69925852,62.85698637,112.41790601\H
 ,0,-7.18146726,62.51755038,110.83385073\H,0,-3.26262776,61.20784753,10
 7.47843076\H,0,-5.0060874,61.31323263,107.43037745\H,0,-4.13435758,61.
 88834457,108.83123435\H,0,-1.98183397,58.65307384,105.3880717\H,0,-1.9
 8133308,60.1173419,106.52412575\H,0,-2.19227959,57.26531438,107.481027
 85\H,0,-2.888209,56.02862901,108.58640198\H,0,-1.84291279,53.00657052,
 109.20025659\H,0,-3.32577544,52.60821669,108.36629061\H,0,-2.58434412,
 54.17282893,108.13105709\H,0,-3.59966867,58.19565988,113.419998\H,0,-5
 .15306459,58.40675491,113.419998\H,0,-6.3932281,55.18646861,109.062453
 5\H,0,-8.53199326,57.67925965,111.67202518\H,0,-8.37879846,54.40603207
 ,107.47774336\H,0,-9.99764983,54.7269206,108.05169237\H,0,-9.18822415,
 55.88727254,107.02627533\Fe,0,-5.683,57.139999,111.786003\H,0,-5.91834
 286,61.31565263,110.09439868\\Version=ES64L-G16RevA.03\State=2-A\HF=-3
 438.4082125\S2=0.970936\S2-1=0.\S2A=0.757273\RMSD=1.454e-09\Dipole=-1.
 5569993,3.3788178,-0.5322213\Quadrupole=5.6877314,-25.7864141,20.09868
 26,-12.8270996,-4.1498081,-9.6818072\PG=C01 [X(C38H40Fe1N6O5)]\\@


 In the beginning there was nothing, which exploded.
 Job cpu time:       7 days 14 hours 47 minutes  9.1 seconds.
 Elapsed time:       1 days 21 hours 49 minutes 22.1 seconds.
 File lengths (MBytes):  RWF=   2989 Int=      0 D2E=      0 Chk=    250 Scr=      1
 Normal termination of Gaussian 16 at Sat Sep 10 07:50:57 2022.
