 Entering Gaussian System, Link 0=g16
 Input=/net/work/kleich/bench/splitthejobs/2v07/2v0712/2v0716/2v0716.com
 Output=/net/work/kleich/bench/splitthejobs/2v07/2v0712/2v0716/2v0716.log
 Initial command:
 /afs/math/software/gaussian/g16.A03/g16/l1.exe "/scratch/kleich_gaussian.cnDchJK/Gau-6448.inp" -scrdir="/scratch/kleich_gaussian.cnDchJK/"
 Entering Link 1 = /afs/math/software/gaussian/g16.A03/g16/l1.exe PID=      6449.
  
 Copyright (c) 1988,1990,1992,1993,1995,1998,2003,2009,2016,
            Gaussian, Inc.  All Rights Reserved.
  
 This is part of the Gaussian(R) 16 program.  It is based on
 the Gaussian(R) 09 system (copyright 2009, Gaussian, Inc.),
 the Gaussian(R) 03 system (copyright 2003, Gaussian, Inc.),
 the Gaussian(R) 98 system (copyright 1998, Gaussian, Inc.),
 the Gaussian(R) 94 system (copyright 1995, Gaussian, Inc.),
 the Gaussian 92(TM) system (copyright 1992, Gaussian, Inc.),
 the Gaussian 90(TM) system (copyright 1990, Gaussian, Inc.),
 the Gaussian 88(TM) system (copyright 1988, Gaussian, Inc.),
 the Gaussian 86(TM) system (copyright 1986, Carnegie Mellon
 University), and the Gaussian 82(TM) system (copyright 1983,
 Carnegie Mellon University). Gaussian is a federally registered
 trademark of Gaussian, Inc.
  
 This software contains proprietary and confidential information,
 including trade secrets, belonging to Gaussian, Inc.
  
 This software is provided under written license and may be
 used, copied, transmitted, or stored only in accord with that
 written license.
  
 The following legend is applicable only to US Government
 contracts under FAR:
  
                    RESTRICTED RIGHTS LEGEND
  
 Use, reproduction and disclosure by the US Government is
 subject to restrictions as set forth in subparagraphs (a)
 and (c) of the Commercial Computer Software - Restricted
 Rights clause in FAR 52.227-19.
  
 Gaussian, Inc.
 340 Quinnipiac St., Bldg. 40, Wallingford CT 06492
  
  
 ---------------------------------------------------------------
 Warning -- This program may not be used in any manner that
 competes with the business of Gaussian, Inc. or will provide
 assistance to any competitor of Gaussian, Inc.  The licensee
 of this program is prohibited from giving any competitor of
 Gaussian, Inc. access to this program.  By using this program,
 the user acknowledges that Gaussian, Inc. is engaged in the
 business of creating and licensing software in the field of
 computational chemistry and represents and warrants to the
 licensee that it is not a competitor of Gaussian, Inc. and that
 it will not use this program in any manner prohibited above.
 ---------------------------------------------------------------
  

 Cite this work as:
 Gaussian 16, Revision A.03,
 M. J. Frisch, G. W. Trucks, H. B. Schlegel, G. E. Scuseria, 
 M. A. Robb, J. R. Cheeseman, G. Scalmani, V. Barone, 
 G. A. Petersson, H. Nakatsuji, X. Li, M. Caricato, A. V. Marenich, 
 J. Bloino, B. G. Janesko, R. Gomperts, B. Mennucci, H. P. Hratchian, 
 J. V. Ortiz, A. F. Izmaylov, J. L. Sonnenberg, D. Williams-Young, 
 F. Ding, F. Lipparini, F. Egidi, J. Goings, B. Peng, A. Petrone, 
 T. Henderson, D. Ranasinghe, V. G. Zakrzewski, J. Gao, N. Rega, 
 G. Zheng, W. Liang, M. Hada, M. Ehara, K. Toyota, R. Fukuda, 
 J. Hasegawa, M. Ishida, T. Nakajima, Y. Honda, O. Kitao, H. Nakai, 
 T. Vreven, K. Throssell, J. A. Montgomery, Jr., J. E. Peralta, 
 F. Ogliaro, M. J. Bearpark, J. J. Heyd, E. N. Brothers, K. N. Kudin, 
 V. N. Staroverov, T. A. Keith, R. Kobayashi, J. Normand, 
 K. Raghavachari, A. P. Rendell, J. C. Burant, S. S. Iyengar, 
 J. Tomasi, M. Cossi, J. M. Millam, M. Klene, C. Adamo, R. Cammi, 
 J. W. Ochterski, R. L. Martin, K. Morokuma, O. Farkas, 
 J. B. Foresman, and D. J. Fox, Gaussian, Inc., Wallingford CT, 2016.
 
 ******************************************
 Gaussian 16:  ES64L-G16RevA.03 25-Dec-2016
                 6-Oct-2022 
 ******************************************
 %nprocs=12
 Will use up to   12 processors via shared memory.
 %mem=16GB
 %oldchk=2v07_III_D.chk
 %chk=2v07_III_H.chk
 Copying data from "2v07_III_D.chk" to current chk file "2v07_III_H.chk"
 IOpt=  2 FromEx=T IUOpen= 4 IOptOp= 5 NList=   0 IFRang= 0 IUIn= 4 IUOut= 2.
 ----------------------------------------------------------------------
 # PBE1PBE/def2TZVP empiricaldispersion=GD3BJ int=(grid=ultrafine) geom
 =check pop=nbo
 ----------------------------------------------------------------------
 1/29=2,38=1,172=1/1;
 2/12=2,40=1/2;
 3/5=44,7=101,11=2,14=-4,25=1,30=1,74=-13,75=-5,124=41/1,2,3;
 4//1;
 5/5=2,38=5/2;
 6/7=2,8=2,9=2,10=2,28=1,40=1/1,7;
 99/5=1,9=1/99;
 ----------
 2v07_III_H
 ----------
 Structure from the checkpoint file:  "2v07_III_H.chk"
 Charge =  1 Multiplicity = 6
 Z-Matrix found in chk file.
 C,0,19.31,-18.566,20.036
 C,0,19.862,-19.718,19.248
 N,0,21.133,-20.196,19.454
 C,0,19.335,-20.466,18.244
 C,0,21.372,-21.198,18.617
 N,0,20.306,-21.37,17.855
 C,0,21.268,-26.36,14.954
 C,0,20.836,-25.248,13.998
 S,0,19.563,-24.21,14.646
 C,0,18.971,-23.364,13.215
 Fe,0,20.044,-22.673,16.351
 C,0,23.427,-23.259,16.142
 C,0,20.379,-20.037,14.221
 C,0,16.633,-22.302,16.288
 C,0,19.732,-25.058,18.706
 N,0,21.592,-21.835,15.357
 C,0,22.929,-22.196,15.445
 C,0,23.716,-21.253,14.673
 C,0,22.869,-20.378,14.119
 C,0,21.51,-20.718,14.541
 C,0,23.219,-19.187,13.215
 C,0,25.251,-21.313,14.578
 C,0,25.839,-20.816,15.905
 C,0,27.343,-20.976,16.007
 O,0,27.909,-21.789,15.233
 O,0,27.981,-20.318,16.902
 N,0,18.738,-21.419,15.446
 C,0,19.097,-20.373,14.631
 C,0,17.892,-19.7,14.208
 C,0,16.847,-20.33,14.771
 C,0,17.372,-21.429,15.546
 C,0,17.916,-18.486,13.271
 C,0,15.349,-20.071,14.594
 C,0,14.937,-20.186,13.293
 N,0,18.461,-23.518,17.311
 C,0,17.147,-23.218,17.15
 C,0,16.387,-24.015,18.098
 C,0,17.243,-24.788,18.779
 C,0,18.572,-24.486,18.28
 C,0,14.876,-23.957,18.249
 C,0,16.934,-25.784,19.901
 C,0,15.978,-26.724,19.784
 N,0,21.344,-23.921,17.258
 C,0,20.959,-24.892,18.174
 C,0,22.095,-25.74,18.503
 C,0,23.221,-25.194,17.691
 C,0,22.694,-24.076,16.966
 C,0,22.126,-26.956,19.441
 C,0,24.633,-25.775,17.674
 C,0,24.649,-26.905,16.636
 C,0,26.007,-27.59,16.542
 O,0,26.229,-28.393,15.615
 O,0,26.876,-27.363,17.394
 H,0,18.69588043,-17.9616168,19.40158837
 H,0,20.11679155,-17.97627665,20.41837909
 H,0,18.7238086,-18.93884864,20.84979576
 H,0,18.35215653,-20.37294573,17.83137473
 H,0,22.27503937,-21.76981705,18.56755147
 H,0,22.14320354,-26.84079558,14.56961167
 H,0,21.48410112,-25.94070726,15.9144134
 H,0,20.47905825,-27.07680167,15.04709283
 H,0,20.40829078,-25.74090735,13.15005709
 H,0,21.6925391,-24.61858986,13.87518448
 H,0,18.32338451,-22.56663084,13.51449389
 H,0,18.43099686,-24.04802106,12.59418457
 H,0,19.79965513,-22.96436985,12.66862428
 H,0,24.47041554,-23.47186812,16.0377351
 H,0,20.48565692,-19.1706565,13.60215169
 H,0,15.56880874,-22.26290086,16.18374929
 H,0,19.66184279,-25.70817764,19.55290437
 H,0,22.31878791,-18.75123154,12.83470533
 H,0,23.82431295,-19.52395494,12.39955067
 H,0,23.75777106,-18.45595225,13.78085769
 H,0,25.54533352,-20.61331695,13.82387042
 H,0,25.51852378,-22.34476436,14.48422723
 H,0,25.42600106,-21.44878447,16.66257224
 H,0,25.65515154,-19.7621943,15.92935762
 H,0,16.91490785,-18.15233342,13.09385284
 H,0,18.36981406,-18.76142053,12.34197022
 H,0,18.48002154,-17.69730667,13.72348485
 H,0,15.12768929,-19.08256047,14.93883164
 H,0,15.55364565,-20.89788817,12.78519751
 H,0,13.91898758,-20.51459357,13.2689794
 H,0,14.56010682,-24.69188594,18.95967162
 H,0,14.58871593,-22.9843583,18.5900806
 H,0,14.41525625,-24.15391697,17.30356946
 H,0,17.49759236,-25.73054597,20.80896823
 H,0,15.40352635,-26.79369589,18.8839875
 H,0,15.79240037,-27.4016565,20.59099098
 H,0,23.13817859,-27.27444351,19.57879778
 H,0,21.70464327,-26.68742956,20.38716511
 H,0,21.55677244,-27.75318065,19.01043874
 H,0,24.80377746,-26.22136791,18.63133523
 H,0,25.2874811,-25.00737506,17.31719972
 H,0,24.48451422,-26.43926211,15.68682528
 H,0,23.96581868,-27.64687309,16.99347392
 H,0,27.80506974,-27.42523148,17.16042634
 H,0,28.86746391,-21.82831723,15.19556883
 H,0,21.7791892,-19.8432351,20.13075435
 H,0,15.01647167,-19.23536762,12.8083534
 H,0,14.8055584,-20.77381571,15.19033992
 Recover connectivity data from disk.
 Center=     20.63270410    -22.78634843     16.33891383
 Residue   0                        charge    0.00000000 layers R        AvRTP=      1.42638797     43.36013034     99.76088908
 Residue   4                        charge    0.00000000 layers R        AvRTP=      0.00000000      0.00000000      0.00000000
 Residue   2 PDB Number    60_A MET charge    0.00000000 layers R        AvRTP=      3.17274967    260.67716879    137.16680796
 Residue   3 PDB Number  1102_A HEC charge    0.00000000 layers R        AvRTP=      0.18161309    299.92294354     97.21555089
 Residue   1 PDB Number    20_A HIS charge    0.00000000 layers R        AvRTP=      4.10169257    103.10738699     46.95863707
 Stoichiometry    C41H48FeN6O4S(1+,6)
 Framework group  C1[X(C41H48FeN6O4S)]
 Deg. of freedom   297
 Full point group                 C1      NOp   1
 Largest Abelian subgroup         C1      NOp   1
 Largest concise Abelian subgroup C1      NOp   1
                         Standard orientation:                         
 ---------------------------------------------------------------------
 Center     Atomic      Atomic             Coordinates (Angstroms)
 Number     Number       Type             X           Y           Z
 ---------------------------------------------------------------------
      1          6           0        2.644068   -1.585285    4.965724
      2          6           0        1.804293   -1.106549    3.817534
      3          7           0        0.450037   -0.912954    3.939492
      4          6           0        2.113948   -0.809797    2.528619
      5          6           0       -0.047469   -0.508556    2.777320
      6          7           0        0.936052   -0.458039    1.896003
      7          6           0       -1.329303    2.201808   -2.798114
      8          6           0       -0.605716    0.915390   -3.196431
      9         16           0        0.897720    0.643730   -2.311130
     10          6           0        1.705736   -0.598781   -3.268844
     11         26           0        0.842731    0.013503   -0.052691
     12          6           0       -2.570892   -0.407909   -0.089486
     13          6           0        1.249349   -3.302958   -0.710999
     14          6           0        4.226438    0.497914   -0.356674
     15          6           0        0.480902    3.215656    0.920391
     16          7           0       -0.413346   -1.538952   -0.366911
     17          6           0       -1.798622   -1.515922   -0.288706
     18          6           0       -2.295121   -2.869238   -0.451881
     19          6           0       -1.238941   -3.665821   -0.651600
     20          6           0       -0.026030   -2.849501   -0.596511
     21          6           0       -1.246718   -5.185369   -0.873209
     22          6           0       -3.788045   -3.235694   -0.376122
     23          6           0       -4.226518   -3.183248    1.093120
     24          6           0       -5.717942   -3.365306    1.294438
     25          8           0       -6.479116   -3.171864    0.312809
     26          8           0       -6.158246   -3.663263    2.459937
     27          7           0        2.445694   -1.157446   -0.448377
     28          6           0        2.389319   -2.514355   -0.655359
     29          6           0        3.734335   -2.991000   -0.873586
     30          6           0        4.565420   -1.938615   -0.785959
     31          6           0        3.756926   -0.770200   -0.530629
     32          6           0        4.046720   -4.466222   -1.153722
     33          6           0        6.078420   -1.877185   -1.008381
     34          6           0        6.451217   -2.285307   -2.261389
     35          7           0        2.130786    1.564584    0.224037
     36          6           0        3.477771    1.553847    0.056604
     37          6           0        3.986951    2.858384    0.444458
     38          6           0        2.949098    3.625170    0.803520
     39          6           0        1.755175    2.812600    0.659559
     40          6           0        5.455909    3.246796    0.420270
     41          6           0        2.969159    5.070415    1.310713
     42          6           0        3.634288    6.048084    0.668069
     43          7           0       -0.752837    1.181739    0.346733
     44          6           0       -0.651642    2.528218    0.673649
     45          6           0       -1.977284    3.126731    0.721598
     46          6           0       -2.907700    2.010105    0.385728
     47          6           0       -2.092408    0.849306    0.182941
     48          6           0       -2.343145    4.590747    1.008413
     49          6           0       -4.424344    2.153149    0.281205
     50          6           0       -4.740876    2.627023   -1.143523
     51          6           0       -6.233377    2.835802   -1.369524
     52          8           0       -6.659902    3.033099   -2.523895
     53          8           0       -7.012893    2.828326   -0.407810
     54          1           0        3.403046   -2.245725    4.601482
     55          1           0        2.025759   -2.105027    5.667480
     56          1           0        3.102074   -0.746391    5.446753
     57          1           0        3.087463   -0.842226    2.085767
     58          1           0       -1.071642   -0.264687    2.586278
     59          1           0       -2.299993    2.218958   -3.247964
     60          1           0       -1.428877    2.239999   -1.733442
     61          1           0       -0.765487    3.046848   -3.134147
     62          1           0       -0.323174    1.043681   -4.220448
     63          1           0       -1.258166    0.114415   -2.917776
     64          1           0        2.543967   -0.980154   -2.724028
     65          1           0        2.043064   -0.174772   -4.191517
     66          1           0        1.020123   -1.394824   -3.471703
     67          1           0       -3.632255   -0.529095   -0.150504
     68          1           0        1.385829   -4.354275   -0.855935
     69          1           0        5.261771    0.674841   -0.560838
     70          1           0        0.366733    4.180443    1.368780
     71          1           0       -0.259745   -5.514398   -1.123258
     72          1           0       -1.916072   -5.425802   -1.672619
     73          1           0       -1.569756   -5.674692    0.021838
     74          1           0       -3.876689   -4.253883   -0.692876
     75          1           0       -4.325423   -2.466637   -0.890591
     76          1           0       -4.005513   -2.191516    1.428567
     77          1           0       -3.763266   -4.023743    1.566265
     78          1           0        5.101832   -4.589210   -1.282221
     79          1           0        3.540547   -4.775087   -2.044391
     80          1           0        3.715714   -5.063550   -0.329990
     81          1           0        6.558085   -2.503650   -0.285634
     82          1           0        5.667241   -2.066180   -2.955842
     83          1           0        7.341688   -1.769406   -2.554320
     84          1           0        5.555984    4.279930    0.680115
     85          1           0        5.994789    2.648066    1.124565
     86          1           0        5.851273    3.085880   -0.560899
     87          1           0        2.436041    5.310923    2.206727
     88          1           0        4.173416    5.827746   -0.229535
     89          1           0        3.623975    7.045723    1.054734
     90          1           0       -3.404559    4.679754    1.110290
     91          1           0       -1.870169    4.905531    1.915112
     92          1           0       -2.009565    5.206775    0.199628
     93          1           0       -4.715609    2.937406    0.948293
     94          1           0       -4.843412    1.174703    0.390401
     95          1           0       -4.450448    1.828559   -1.793913
     96          1           0       -4.287193    3.590853   -1.244034
     97          1           0       -7.922515    2.546541   -0.529406
     98          1           0       -7.411938   -3.388907    0.378647
     99          1           0       -0.079852   -1.054898    4.775595
    100          1           0        6.635988   -3.339199   -2.252979
    101          1           0        6.406854   -0.869274   -0.862967
 ---------------------------------------------------------------------
 Rotational constants (GHZ):           0.0664463           0.0435039           0.0340808
 Standard basis: def2TZVP (5D, 7F)
 There are  2218 symmetry adapted cartesian basis functions of A   symmetry.
 There are  1951 symmetry adapted basis functions of A   symmetry.
  1951 basis functions,  3156 primitive gaussians,  2218 cartesian basis functions
   207 alpha electrons      202 beta electrons
       nuclear repulsion energy      8968.6430917394 Hartrees.
 NAtoms=  101 NActive=  101 NUniq=  101 SFac= 1.00D+00 NAtFMM=   60 NAOKFM=T Big=T
 Integral buffers will be    131072 words long.
 Raffenetti 2 integral format.
 Two-electron integral symmetry is turned on.
 Nuclear repulsion after empirical dispersion term =     8968.4911544101 Hartrees.
 One-electron integrals computed using PRISM.
   1 Symmetry operations used in ECPInt.
 ECPInt:  NShTT=  305371 NPrTT=  941867 LenC2=  224130 LenP2D=  447274.
 LDataN:  DoStor=T MaxTD1= 6 Len=  172
 NBasis=  1951 RedAO= T EigKep=  3.00D-06  NBF=  1951
 NBsUse=  1951 1.00D-06 EigRej= -1.00D+00 NBFU=  1951
 ExpMin= 4.20D-02 ExpMax= 3.01D+05 ExpMxC= 2.91D+03 IAcc=3 IRadAn=         5 AccDes= 0.00D+00
 Harris functional with IExCor= 1009 and IRadAn=       5 diagonalized for initial guess.
 HarFok:  IExCor= 1009 AccDes= 0.00D+00 IRadAn=         5 IDoV= 1 UseB2=F ITyADJ=14
 ICtDFT=  3500011 ScaDFX=  1.000000  1.000000  1.000000  1.000000
 FoFCou: FMM=F IPFlag=           0 FMFlag=      100000 FMFlg1=        2001
         NFxFlg=           0 DoJE=T BraDBF=F KetDBF=T FulRan=T
         wScrn=  0.000000 ICntrl=       500 IOpCl=  0 I1Cent=   200000004 NGrid=           0
         NMat0=    1 NMatS0=      1 NMatT0=    0 NMatD0=    1 NMtDS0=    0 NMtDT0=    0
 Petite list used in FoFCou.
 Initial guess <Sx>= 0.0000 <Sy>= 0.0000 <Sz>= 2.5000 <S**2>= 8.7500 S= 2.5000
 Requested convergence on RMS density matrix=1.00D-08 within 128 cycles.
 Requested convergence on MAX density matrix=1.00D-06.
 Requested convergence on             energy=1.00D-06.
 No special actions if energy rises.
 EnCoef did   100 forward-backward iterations
 EnCoef did   100 forward-backward iterations
 EnCoef did    14 forward-backward iterations
 EnCoef did    13 forward-backward iterations
 Restarting incremental Fock formation.
 SCF Done:  E(UPBE1PBE) =  -3880.46236332     A.U. after   31 cycles
            NFock= 31  Conv=0.40D-08     -V/T= 2.0028
 <Sx>= 0.0000 <Sy>= 0.0000 <Sz>= 2.5000 <S**2>= 8.7600 S= 2.5017
 <L.S>= 0.000000000000E+00
 Annihilation of the first spin contaminant:
 S**2 before annihilation     8.7600,   after     8.7500
 Hyperfine terms turned off by default for NAtoms > 100.

 **********************************************************************

            Population analysis using the SCF density.

 **********************************************************************

 Orbital symmetries:
 Alpha Orbitals:
       Occupied  (A) (A) (A) (A) (A) (A) (A) (A) (A) (A) (A) (A)
                 (A) (A) (A) (A) (A) (A) (A) (A) (A) (A) (A) (A)
                 (A) (A) (A) (A) (A) (A) (A) (A) (A) (A) (A) (A)
                 (A) (A) (A) (A) (A) (A) (A) (A) (A) (A) (A) (A)
                 (A) (A) (A) (A) (A) (A) (A) (A) (A) (A) (A) (A)
                 (A) (A) (A) (A) (A) (A) (A) (A) (A) (A) (A) (A)
                 (A) (A) (A) (A) (A) (A) (A) (A) (A) (A) (A) (A)
                 (A) (A) (A) (A) (A) (A) (A) (A) (A) (A) (A) (A)
                 (A) (A) (A) (A) (A) (A) (A) (A) (A) (A) (A) (A)
                 (A) (A) (A) (A) (A) (A) (A) (A) (A) (A) (A) (A)
                 (A) (A) (A) (A) (A) (A) (A) (A) (A) (A) (A) (A)
                 (A) (A) (A) (A) (A) (A) (A) (A) (A) (A) (A) (A)
                 (A) (A) (A) (A) (A) (A) (A) (A) (A) (A) (A) (A)
                 (A) (A) (A) (A) (A) (A) (A) (A) (A) (A) (A) (A)
                 (A) (A) (A) (A) (A) (A) (A) (A) (A) (A) (A) (A)
                 (A) (A) (A) (A) (A) (A) (A) (A) (A) (A) (A) (A)
                 (A) (A) (A) (A) (A) (A) (A) (A) (A) (A) (A) (A)
                 (A) (A) (A)
       Virtual   (A) (A) (A) (A) (A) (A) (A) (A) (A) (A) (A) (A)
                 (A) (A) (A) (A) (A) (A) (A) (A) (A) (A) (A) (A)
                 (A) (A) (A) (A) (A) (A) (A) (A) (A) (A) (A) (A)
                 (A) (A) (A) (A) (A) (A) (A) (A) (A) (A) (A) (A)
                 (A) (A) (A) (A) (A) (A) (A) (A) (A) (A) (A) (A)
                 (A) (A) (A) (A) (A) (A) (A) (A) (A) (A) (A) (A)
                 (A) (A) (A) (A) (A) (A) (A) (A) (A) (A) (A) (A)
                 (A) (A) (A) (A) (A) (A) (A) (A) (A) (A) (A) (A)
                 (A) (A) (A) (A) (A) (A) (A) (A) (A) (A) (A) (A)
                 (A) (A) (A) (A) (A) (A) (A) (A) (A) (A) (A) (A)
                 (A) (A) (A) (A) (A) (A) (A) (A) (A) (A) (A) (A)
                 (A) (A) (A) (A) (A) (A) (A) (A) (A) (A) (A) (A)
                 (A) (A) (A) (A) (A) (A) (A) (A) (A) (A) (A) (A)
                 (A) (A) (A) (A) (A) (A) (A) (A) (A) (A) (A) (A)
                 (A) (A) (A) (A) (A) (A) (A) (A) (A) (A) (A) (A)
                 (A) (A) (A) (A) (A) (A) (A) (A) (A) (A) (A) (A)
                 (A) (A) (A) (A) (A) (A) (A) (A) (A) (A) (A) (A)
                 (A) (A) (A) (A) (A) (A) (A) (A) (A) (A) (A) (A)
                 (A) (A) (A) (A) (A) (A) (A) (A) (A) (A) (A) (A)
                 (A) (A) (A) (A) (A) (A) (A) (A) (A) (A) (A) (A)
                 (A) (A) (A) (A) (A) (A) (A) (A) (A) (A) (A) (A)
                 (A) (A) (A) (A) (A) (A) (A) (A) (A) (A) (A) (A)
                 (A) (A) (A) (A) (A) (A) (A) (A) (A) (A) (A) (A)
                 (A) (A) (A) (A) (A) (A) (A) (A) (A) (A) (A) (A)
                 (A) (A) (A) (A) (A) (A) (A) (A) (A) (A) (A) (A)
                 (A) (A) (A) (A) (A) (A) (A) (A) (A) (A) (A) (A)
                 (A) (A) (A) (A) (A) (A) (A) (A) (A) (A) (A) (A)
                 (A) (A) (A) (A) (A) (A) (A) (A) (A) (A) (A) (A)
                 (A) (A) (A) (A) (A) (A) (A) (A) (A) (A) (A) (A)
                 (A) (A) (A) (A) (A) (A) (A) (A) (A) (A) (A) (A)
                 (A) (A) (A) (A) (A) (A) (A) (A) (A) (A) (A) (A)
                 (A) (A) (A) (A) (A) (A) (A) (A) (A) (A) (A) (A)
                 (A) (A) (A) (A) (A) (A) (A) (A) (A) (A) (A) (A)
                 (A) (A) (A) (A) (A) (A) (A) (A) (A) (A) (A) (A)
                 (A) (A) (A) (A) (A) (A) (A) (A) (A) (A) (A) (A)
                 (A) (A) (A) (A) (A) (A) (A) (A) (A) (A) (A) (A)
                 (A) (A) (A) (A) (A) (A) (A) (A) (A) (A) (A) (A)
                 (A) (A) (A) (A) (A) (A) (A) (A) (A) (A) (A) (A)
                 (A) (A) (A) (A) (A) (A) (A) (A) (A) (A) (A) (A)
                 (A) (A) (A) (A) (A) (A) (A) (A) (A) (A) (A) (A)
                 (A) (A) (A) (A) (A) (A) (A) (A) (A) (A) (A) (A)
                 (A) (A) (A) (A) (A) (A) (A) (A) (A) (A) (A) (A)
                 (A) (A) (A) (A) (A) (A) (A) (A) (A) (A) (A) (A)
                 (A) (A) (A) (A) (A) (A) (A) (A) (A) (A) (A) (A)
                 (A) (A) (A) (A) (A) (A) (A) (A) (A) (A) (A) (A)
                 (A) (A) (A) (A) (A) (A) (A) (A) (A) (A) (A) (A)
                 (A) (A) (A) (A) (A) (A) (A) (A) (A) (A) (A) (A)
                 (A) (A) (A) (A) (A) (A) (A) (A) (A) (A) (A) (A)
                 (A) (A) (A) (A) (A) (A) (A) (A) (A) (A) (A) (A)
                 (A) (A) (A) (A) (A) (A) (A) (A) (A) (A) (A) (A)
                 (A) (A) (A) (A) (A) (A) (A) (A) (A) (A) (A) (A)
                 (A) (A) (A) (A) (A) (A) (A) (A) (A) (A) (A) (A)
                 (A) (A) (A) (A) (A) (A) (A) (A) (A) (A) (A) (A)
                 (A) (A) (A) (A) (A) (A) (A) (A) (A) (A) (A) (A)
                 (A) (A) (A) (A) (A) (A) (A) (A) (A) (A) (A) (A)
                 (A) (A) (A) (A) (A) (A) (A) (A) (A) (A) (A) (A)
                 (A) (A) (A) (A) (A) (A) (A) (A) (A) (A) (A) (A)
                 (A) (A) (A) (A) (A) (A) (A) (A) (A) (A) (A) (A)
                 (A) (A) (A) (A) (A) (A) (A) (A) (A) (A) (A) (A)
                 (A) (A) (A) (A) (A) (A) (A) (A) (A) (A) (A) (A)
                 (A) (A) (A) (A) (A) (A) (A) (A) (A) (A) (A) (A)
                 (A) (A) (A) (A) (A) (A) (A) (A) (A) (A) (A) (A)
                 (A) (A) (A) (A) (A) (A) (A) (A) (A) (A) (A) (A)
                 (A) (A) (A) (A) (A) (A) (A) (A) (A) (A) (A) (A)
                 (A) (A) (A) (A) (A) (A) (A) (A) (A) (A) (A) (A)
                 (A) (A) (A) (A) (A) (A) (A) (A) (A) (A) (A) (A)
                 (A) (A) (A) (A) (A) (A) (A) (A) (A) (A) (A) (A)
                 (A) (A) (A) (A) (A) (A) (A) (A) (A) (A) (A) (A)
                 (A) (A) (A) (A) (A) (A) (A) (A) (A) (A) (A) (A)
                 (A) (A) (A) (A) (A) (A) (A) (A) (A) (A) (A) (A)
                 (A) (A) (A) (A) (A) (A) (A) (A) (A) (A) (A) (A)
                 (A) (A) (A) (A) (A) (A) (A) (A) (A) (A) (A) (A)
                 (A) (A) (A) (A) (A) (A) (A) (A) (A) (A) (A) (A)
                 (A) (A) (A) (A) (A) (A) (A) (A) (A) (A) (A) (A)
                 (A) (A) (A) (A) (A) (A) (A) (A) (A) (A) (A) (A)
                 (A) (A) (A) (A) (A) (A) (A) (A) (A) (A) (A) (A)
                 (A) (A) (A) (A) (A) (A) (A) (A) (A) (A) (A) (A)
                 (A) (A) (A) (A) (A) (A) (A) (A) (A) (A) (A) (A)
                 (A) (A) (A) (A) (A) (A) (A) (A) (A) (A) (A) (A)
                 (A) (A) (A) (A) (A) (A) (A) (A) (A) (A) (A) (A)
                 (A) (A) (A) (A) (A) (A) (A) (A) (A) (A) (A) (A)
                 (A) (A) (A) (A) (A) (A) (A) (A) (A) (A) (A) (A)
                 (A) (A) (A) (A) (A) (A) (A) (A) (A) (A) (A) (A)
                 (A) (A) (A) (A) (A) (A) (A) (A) (A) (A) (A) (A)
                 (A) (A) (A) (A) (A) (A) (A) (A) (A) (A) (A) (A)
                 (A) (A) (A) (A) (A) (A) (A) (A) (A) (A) (A) (A)
                 (A) (A) (A) (A) (A) (A) (A) (A) (A) (A) (A) (A)
                 (A) (A) (A) (A) (A) (A) (A) (A) (A) (A) (A) (A)
                 (A) (A) (A) (A) (A) (A) (A) (A) (A) (A) (A) (A)
                 (A) (A) (A) (A) (A) (A) (A) (A) (A) (A) (A) (A)
                 (A) (A) (A) (A) (A) (A) (A) (A) (A) (A) (A) (A)
                 (A) (A) (A) (A) (A) (A) (A) (A) (A) (A) (A) (A)
                 (A) (A) (A) (A) (A) (A) (A) (A) (A) (A) (A) (A)
                 (A) (A) (A) (A) (A) (A) (A) (A) (A) (A) (A) (A)
                 (A) (A) (A) (A) (A) (A) (A) (A) (A) (A) (A) (A)
                 (A) (A) (A) (A) (A) (A) (A) (A) (A) (A) (A) (A)
                 (A) (A) (A) (A) (A) (A) (A) (A) (A) (A) (A) (A)
                 (A) (A) (A) (A) (A) (A) (A) (A) (A) (A) (A) (A)
                 (A) (A) (A) (A) (A) (A) (A) (A) (A) (A) (A) (A)
                 (A) (A) (A) (A) (A) (A) (A) (A) (A) (A) (A) (A)
                 (A) (A) (A) (A) (A) (A) (A) (A) (A) (A) (A) (A)
                 (A) (A) (A) (A) (A) (A) (A) (A) (A) (A) (A) (A)
                 (A) (A) (A) (A) (A) (A) (A) (A) (A) (A) (A) (A)
                 (A) (A) (A) (A) (A) (A) (A) (A) (A) (A) (A) (A)
                 (A) (A) (A) (A) (A) (A) (A) (A) (A) (A) (A) (A)
                 (A) (A) (A) (A) (A) (A) (A) (A) (A) (A) (A) (A)
                 (A) (A) (A) (A) (A) (A) (A) (A) (A) (A) (A) (A)
                 (A) (A) (A) (A) (A) (A) (A) (A) (A) (A) (A) (A)
                 (A) (A) (A) (A) (A) (A) (A) (A) (A) (A) (A) (A)
                 (A) (A) (A) (A) (A) (A) (A) (A) (A) (A) (A) (A)
                 (A) (A) (A) (A) (A) (A) (A) (A) (A) (A) (A) (A)
                 (A) (A) (A) (A) (A) (A) (A) (A) (A) (A) (A) (A)
                 (A) (A) (A) (A) (A) (A) (A) (A) (A) (A) (A) (A)
                 (A) (A) (A) (A) (A) (A) (A) (A) (A) (A) (A) (A)
                 (A) (A) (A) (A) (A) (A) (A) (A) (A) (A) (A) (A)
                 (A) (A) (A) (A) (A) (A) (A) (A) (A) (A) (A) (A)
                 (A) (A) (A) (A) (A) (A) (A) (A) (A) (A) (A) (A)
                 (A) (A) (A) (A) (A) (A) (A) (A) (A) (A) (A) (A)
                 (A) (A) (A) (A) (A) (A) (A) (A) (A) (A) (A) (A)
                 (A) (A) (A) (A) (A) (A) (A) (A) (A) (A) (A) (A)
                 (A) (A) (A) (A) (A) (A) (A) (A) (A) (A) (A) (A)
                 (A) (A) (A) (A) (A) (A) (A) (A) (A) (A) (A) (A)
                 (A) (A) (A) (A) (A) (A) (A) (A) (A) (A) (A) (A)
                 (A) (A) (A) (A) (A) (A) (A) (A) (A) (A) (A) (A)
                 (A) (A) (A) (A) (A) (A) (A) (A) (A) (A) (A) (A)
                 (A) (A) (A) (A) (A) (A) (A) (A) (A) (A) (A) (A)
                 (A) (A) (A) (A) (A) (A) (A) (A) (A) (A) (A) (A)
                 (A) (A) (A) (A) (A) (A) (A) (A) (A) (A) (A) (A)
                 (A) (A) (A) (A) (A) (A) (A) (A) (A) (A) (A) (A)
                 (A) (A) (A) (A) (A) (A) (A) (A) (A) (A) (A) (A)
                 (A) (A) (A) (A) (A) (A) (A) (A) (A) (A) (A) (A)
                 (A) (A) (A) (A) (A) (A) (A) (A) (A) (A) (A) (A)
                 (A) (A) (A) (A) (A) (A) (A) (A) (A) (A) (A) (A)
                 (A) (A) (A) (A) (A) (A) (A) (A) (A) (A) (A) (A)
                 (A) (A) (A) (A) (A) (A) (A) (A) (A) (A) (A) (A)
                 (A) (A) (A) (A) (A) (A) (A) (A) (A) (A) (A) (A)
                 (A) (A) (A) (A) (A) (A) (A) (A) (A) (A) (A) (A)
                 (A) (A) (A) (A) (A) (A) (A) (A) (A) (A) (A) (A)
                 (A) (A) (A) (A) (A) (A) (A) (A) (A) (A) (A) (A)
                 (A) (A) (A) (A) (A) (A) (A) (A) (A) (A) (A) (A)
                 (A) (A) (A) (A) (A) (A) (A) (A) (A) (A) (A) (A)
                 (A) (A) (A) (A) (A) (A) (A) (A) (A) (A) (A) (A)
                 (A) (A) (A) (A) (A) (A) (A) (A) (A) (A) (A) (A)
                 (A) (A) (A) (A) (A) (A) (A) (A) (A) (A) (A) (A)
                 (A) (A) (A) (A) (A) (A) (A) (A) (A) (A) (A) (A)
                 (A) (A) (A) (A)
 Beta  Orbitals:
       Occupied  (A) (A) (A) (A) (A) (A) (A) (A) (A) (A) (A) (A)
                 (A) (A) (A) (A) (A) (A) (A) (A) (A) (A) (A) (A)
                 (A) (A) (A) (A) (A) (A) (A) (A) (A) (A) (A) (A)
                 (A) (A) (A) (A) (A) (A) (A) (A) (A) (A) (A) (A)
                 (A) (A) (A) (A) (A) (A) (A) (A) (A) (A) (A) (A)
                 (A) (A) (A) (A) (A) (A) (A) (A) (A) (A) (A) (A)
                 (A) (A) (A) (A) (A) (A) (A) (A) (A) (A) (A) (A)
                 (A) (A) (A) (A) (A) (A) (A) (A) (A) (A) (A) (A)
                 (A) (A) (A) (A) (A) (A) (A) (A) (A) (A) (A) (A)
                 (A) (A) (A) (A) (A) (A) (A) (A) (A) (A) (A) (A)
                 (A) (A) (A) (A) (A) (A) (A) (A) (A) (A) (A) (A)
                 (A) (A) (A) (A) (A) (A) (A) (A) (A) (A) (A) (A)
                 (A) (A) (A) (A) (A) (A) (A) (A) (A) (A) (A) (A)
                 (A) (A) (A) (A) (A) (A) (A) (A) (A) (A) (A) (A)
                 (A) (A) (A) (A) (A) (A) (A) (A) (A) (A) (A) (A)
                 (A) (A) (A) (A) (A) (A) (A) (A) (A) (A) (A) (A)
                 (A) (A) (A) (A) (A) (A) (A) (A) (A) (A)
       Virtual   (A) (A) (A) (A) (A) (A) (A) (A) (A) (A) (A) (A)
                 (A) (A) (A) (A) (A) (A) (A) (A) (A) (A) (A) (A)
                 (A) (A) (A) (A) (A) (A) (A) (A) (A) (A) (A) (A)
                 (A) (A) (A) (A) (A) (A) (A) (A) (A) (A) (A) (A)
                 (A) (A) (A) (A) (A) (A) (A) (A) (A) (A) (A) (A)
                 (A) (A) (A) (A) (A) (A) (A) (A) (A) (A) (A) (A)
                 (A) (A) (A) (A) (A) (A) (A) (A) (A) (A) (A) (A)
                 (A) (A) (A) (A) (A) (A) (A) (A) (A) (A) (A) (A)
                 (A) (A) (A) (A) (A) (A) (A) (A) (A) (A) (A) (A)
                 (A) (A) (A) (A) (A) (A) (A) (A) (A) (A) (A) (A)
                 (A) (A) (A) (A) (A) (A) (A) (A) (A) (A) (A) (A)
                 (A) (A) (A) (A) (A) (A) (A) (A) (A) (A) (A) (A)
                 (A) (A) (A) (A) (A) (A) (A) (A) (A) (A) (A) (A)
                 (A) (A) (A) (A) (A) (A) (A) (A) (A) (A) (A) (A)
                 (A) (A) (A) (A) (A) (A) (A) (A) (A) (A) (A) (A)
                 (A) (A) (A) (A) (A) (A) (A) (A) (A) (A) (A) (A)
                 (A) (A) (A) (A) (A) (A) (A) (A) (A) (A) (A) (A)
                 (A) (A) (A) (A) (A) (A) (A) (A) (A) (A) (A) (A)
                 (A) (A) (A) (A) (A) (A) (A) (A) (A) (A) (A) (A)
                 (A) (A) (A) (A) (A) (A) (A) (A) (A) (A) (A) (A)
                 (A) (A) (A) (A) (A) (A) (A) (A) (A) (A) (A) (A)
                 (A) (A) (A) (A) (A) (A) (A) (A) (A) (A) (A) (A)
                 (A) (A) (A) (A) (A) (A) (A) (A) (A) (A) (A) (A)
                 (A) (A) (A) (A) (A) (A) (A) (A) (A) (A) (A) (A)
                 (A) (A) (A) (A) (A) (A) (A) (A) (A) (A) (A) (A)
                 (A) (A) (A) (A) (A) (A) (A) (A) (A) (A) (A) (A)
                 (A) (A) (A) (A) (A) (A) (A) (A) (A) (A) (A) (A)
                 (A) (A) (A) (A) (A) (A) (A) (A) (A) (A) (A) (A)
                 (A) (A) (A) (A) (A) (A) (A) (A) (A) (A) (A) (A)
                 (A) (A) (A) (A) (A) (A) (A) (A) (A) (A) (A) (A)
                 (A) (A) (A) (A) (A) (A) (A) (A) (A) (A) (A) (A)
                 (A) (A) (A) (A) (A) (A) (A) (A) (A) (A) (A) (A)
                 (A) (A) (A) (A) (A) (A) (A) (A) (A) (A) (A) (A)
                 (A) (A) (A) (A) (A) (A) (A) (A) (A) (A) (A) (A)
                 (A) (A) (A) (A) (A) (A) (A) (A) (A) (A) (A) (A)
                 (A) (A) (A) (A) (A) (A) (A) (A) (A) (A) (A) (A)
                 (A) (A) (A) (A) (A) (A) (A) (A) (A) (A) (A) (A)
                 (A) (A) (A) (A) (A) (A) (A) (A) (A) (A) (A) (A)
                 (A) (A) (A) (A) (A) (A) (A) (A) (A) (A) (A) (A)
                 (A) (A) (A) (A) (A) (A) (A) (A) (A) (A) (A) (A)
                 (A) (A) (A) (A) (A) (A) (A) (A) (A) (A) (A) (A)
                 (A) (A) (A) (A) (A) (A) (A) (A) (A) (A) (A) (A)
                 (A) (A) (A) (A) (A) (A) (A) (A) (A) (A) (A) (A)
                 (A) (A) (A) (A) (A) (A) (A) (A) (A) (A) (A) (A)
                 (A) (A) (A) (A) (A) (A) (A) (A) (A) (A) (A) (A)
                 (A) (A) (A) (A) (A) (A) (A) (A) (A) (A) (A) (A)
                 (A) (A) (A) (A) (A) (A) (A) (A) (A) (A) (A) (A)
                 (A) (A) (A) (A) (A) (A) (A) (A) (A) (A) (A) (A)
                 (A) (A) (A) (A) (A) (A) (A) (A) (A) (A) (A) (A)
                 (A) (A) (A) (A) (A) (A) (A) (A) (A) (A) (A) (A)
                 (A) (A) (A) (A) (A) (A) (A) (A) (A) (A) (A) (A)
                 (A) (A) (A) (A) (A) (A) (A) (A) (A) (A) (A) (A)
                 (A) (A) (A) (A) (A) (A) (A) (A) (A) (A) (A) (A)
                 (A) (A) (A) (A) (A) (A) (A) (A) (A) (A) (A) (A)
                 (A) (A) (A) (A) (A) (A) (A) (A) (A) (A) (A) (A)
                 (A) (A) (A) (A) (A) (A) (A) (A) (A) (A) (A) (A)
                 (A) (A) (A) (A) (A) (A) (A) (A) (A) (A) (A) (A)
                 (A) (A) (A) (A) (A) (A) (A) (A) (A) (A) (A) (A)
                 (A) (A) (A) (A) (A) (A) (A) (A) (A) (A) (A) (A)
                 (A) (A) (A) (A) (A) (A) (A) (A) (A) (A) (A) (A)
                 (A) (A) (A) (A) (A) (A) (A) (A) (A) (A) (A) (A)
                 (A) (A) (A) (A) (A) (A) (A) (A) (A) (A) (A) (A)
                 (A) (A) (A) (A) (A) (A) (A) (A) (A) (A) (A) (A)
                 (A) (A) (A) (A) (A) (A) (A) (A) (A) (A) (A) (A)
                 (A) (A) (A) (A) (A) (A) (A) (A) (A) (A) (A) (A)
                 (A) (A) (A) (A) (A) (A) (A) (A) (A) (A) (A) (A)
                 (A) (A) (A) (A) (A) (A) (A) (A) (A) (A) (A) (A)
                 (A) (A) (A) (A) (A) (A) (A) (A) (A) (A) (A) (A)
                 (A) (A) (A) (A) (A) (A) (A) (A) (A) (A) (A) (A)
                 (A) (A) (A) (A) (A) (A) (A) (A) (A) (A) (A) (A)
                 (A) (A) (A) (A) (A) (A) (A) (A) (A) (A) (A) (A)
                 (A) (A) (A) (A) (A) (A) (A) (A) (A) (A) (A) (A)
                 (A) (A) (A) (A) (A) (A) (A) (A) (A) (A) (A) (A)
                 (A) (A) (A) (A) (A) (A) (A) (A) (A) (A) (A) (A)
                 (A) (A) (A) (A) (A) (A) (A) (A) (A) (A) (A) (A)
                 (A) (A) (A) (A) (A) (A) (A) (A) (A) (A) (A) (A)
                 (A) (A) (A) (A) (A) (A) (A) (A) (A) (A) (A) (A)
                 (A) (A) (A) (A) (A) (A) (A) (A) (A) (A) (A) (A)
                 (A) (A) (A) (A) (A) (A) (A) (A) (A) (A) (A) (A)
                 (A) (A) (A) (A) (A) (A) (A) (A) (A) (A) (A) (A)
                 (A) (A) (A) (A) (A) (A) (A) (A) (A) (A) (A) (A)
                 (A) (A) (A) (A) (A) (A) (A) (A) (A) (A) (A) (A)
                 (A) (A) (A) (A) (A) (A) (A) (A) (A) (A) (A) (A)
                 (A) (A) (A) (A) (A) (A) (A) (A) (A) (A) (A) (A)
                 (A) (A) (A) (A) (A) (A) (A) (A) (A) (A) (A) (A)
                 (A) (A) (A) (A) (A) (A) (A) (A) (A) (A) (A) (A)
                 (A) (A) (A) (A) (A) (A) (A) (A) (A) (A) (A) (A)
                 (A) (A) (A) (A) (A) (A) (A) (A) (A) (A) (A) (A)
                 (A) (A) (A) (A) (A) (A) (A) (A) (A) (A) (A) (A)
                 (A) (A) (A) (A) (A) (A) (A) (A) (A) (A) (A) (A)
                 (A) (A) (A) (A) (A) (A) (A) (A) (A) (A) (A) (A)
                 (A) (A) (A) (A) (A) (A) (A) (A) (A) (A) (A) (A)
                 (A) (A) (A) (A) (A) (A) (A) (A) (A) (A) (A) (A)
                 (A) (A) (A) (A) (A) (A) (A) (A) (A) (A) (A) (A)
                 (A) (A) (A) (A) (A) (A) (A) (A) (A) (A) (A) (A)
                 (A) (A) (A) (A) (A) (A) (A) (A) (A) (A) (A) (A)
                 (A) (A) (A) (A) (A) (A) (A) (A) (A) (A) (A) (A)
                 (A) (A) (A) (A) (A) (A) (A) (A) (A) (A) (A) (A)
                 (A) (A) (A) (A) (A) (A) (A) (A) (A) (A) (A) (A)
                 (A) (A) (A) (A) (A) (A) (A) (A) (A) (A) (A) (A)
                 (A) (A) (A) (A) (A) (A) (A) (A) (A) (A) (A) (A)
                 (A) (A) (A) (A) (A) (A) (A) (A) (A) (A) (A) (A)
                 (A) (A) (A) (A) (A) (A) (A) (A) (A) (A) (A) (A)
                 (A) (A) (A) (A) (A) (A) (A) (A) (A) (A) (A) (A)
                 (A) (A) (A) (A) (A) (A) (A) (A) (A) (A) (A) (A)
                 (A) (A) (A) (A) (A) (A) (A) (A) (A) (A) (A) (A)
                 (A) (A) (A) (A) (A) (A) (A) (A) (A) (A) (A) (A)
                 (A) (A) (A) (A) (A) (A) (A) (A) (A) (A) (A) (A)
                 (A) (A) (A) (A) (A) (A) (A) (A) (A) (A) (A) (A)
                 (A) (A) (A) (A) (A) (A) (A) (A) (A) (A) (A) (A)
                 (A) (A) (A) (A) (A) (A) (A) (A) (A) (A) (A) (A)
                 (A) (A) (A) (A) (A) (A) (A) (A) (A) (A) (A) (A)
                 (A) (A) (A) (A) (A) (A) (A) (A) (A) (A) (A) (A)
                 (A) (A) (A) (A) (A) (A) (A) (A) (A) (A) (A) (A)
                 (A) (A) (A) (A) (A) (A) (A) (A) (A) (A) (A) (A)
                 (A) (A) (A) (A) (A) (A) (A) (A) (A) (A) (A) (A)
                 (A) (A) (A) (A) (A) (A) (A) (A) (A) (A) (A) (A)
                 (A) (A) (A) (A) (A) (A) (A) (A) (A) (A) (A) (A)
                 (A) (A) (A) (A) (A) (A) (A) (A) (A) (A) (A) (A)
                 (A) (A) (A) (A) (A) (A) (A) (A) (A) (A) (A) (A)
                 (A) (A) (A) (A) (A) (A) (A) (A) (A) (A) (A) (A)
                 (A) (A) (A) (A) (A) (A) (A) (A) (A) (A) (A) (A)
                 (A) (A) (A) (A) (A) (A) (A) (A) (A) (A) (A) (A)
                 (A) (A) (A) (A) (A) (A) (A) (A) (A) (A) (A) (A)
                 (A) (A) (A) (A) (A) (A) (A) (A) (A) (A) (A) (A)
                 (A) (A) (A) (A) (A) (A) (A) (A) (A) (A) (A) (A)
                 (A) (A) (A) (A) (A) (A) (A) (A) (A) (A) (A) (A)
                 (A) (A) (A) (A) (A) (A) (A) (A) (A) (A) (A) (A)
                 (A) (A) (A) (A) (A) (A) (A) (A) (A) (A) (A) (A)
                 (A) (A) (A) (A) (A) (A) (A) (A) (A) (A) (A) (A)
                 (A) (A) (A) (A) (A) (A) (A) (A) (A) (A) (A) (A)
                 (A) (A) (A) (A) (A) (A) (A) (A) (A) (A) (A) (A)
                 (A) (A) (A) (A) (A) (A) (A) (A) (A) (A) (A) (A)
                 (A) (A) (A) (A) (A) (A) (A) (A) (A) (A) (A) (A)
                 (A) (A) (A) (A) (A) (A) (A) (A) (A) (A) (A) (A)
                 (A) (A) (A) (A) (A) (A) (A) (A) (A) (A) (A) (A)
                 (A) (A) (A) (A) (A) (A) (A) (A) (A) (A) (A) (A)
                 (A) (A) (A) (A) (A) (A) (A) (A) (A) (A) (A) (A)
                 (A) (A) (A) (A) (A) (A) (A) (A) (A) (A) (A) (A)
                 (A) (A) (A) (A) (A) (A) (A) (A) (A) (A) (A) (A)
                 (A) (A) (A) (A) (A) (A) (A) (A) (A) (A) (A) (A)
                 (A) (A) (A) (A) (A) (A) (A) (A) (A) (A) (A) (A)
                 (A) (A) (A) (A) (A) (A) (A) (A) (A) (A) (A) (A)
                 (A) (A) (A) (A) (A) (A) (A) (A) (A) (A) (A) (A)
                 (A) (A) (A) (A) (A) (A) (A) (A) (A) (A) (A) (A)
                 (A) (A) (A) (A) (A) (A) (A) (A) (A)
 The electronic state is 6-A.
 Alpha  occ. eigenvalues -- -256.54261 -89.12163 -30.37052 -26.18731 -26.18677
 Alpha  occ. eigenvalues --  -26.18632 -19.34750 -19.33570 -19.24731 -19.24041
 Alpha  occ. eigenvalues --  -14.55241 -14.50034 -14.47892 -14.47865 -14.47793
 Alpha  occ. eigenvalues --  -14.47538 -10.43110 -10.42043 -10.39149 -10.36486
 Alpha  occ. eigenvalues --  -10.35873 -10.35699 -10.35679 -10.35607 -10.35443
 Alpha  occ. eigenvalues --  -10.35307 -10.35230 -10.35031 -10.34289 -10.34123
 Alpha  occ. eigenvalues --  -10.33847 -10.33727 -10.32699 -10.32692 -10.32604
 Alpha  occ. eigenvalues --  -10.32361 -10.32330 -10.32248 -10.32215 -10.32097
 Alpha  occ. eigenvalues --  -10.32018 -10.32014 -10.31961 -10.31916 -10.31897
 Alpha  occ. eigenvalues --  -10.31896 -10.31855 -10.31811 -10.31630 -10.30888
 Alpha  occ. eigenvalues --  -10.30412 -10.30286 -10.30029 -10.29409 -10.29380
 Alpha  occ. eigenvalues --  -10.29144 -10.26940  -8.10332  -6.03927  -6.03681
 Alpha  occ. eigenvalues --   -6.03216  -3.79678  -2.55860  -2.55743  -2.55629
 Alpha  occ. eigenvalues --   -1.24871  -1.24510  -1.17282  -1.09321  -1.08978
 Alpha  occ. eigenvalues --   -1.08135  -1.08083  -1.07864  -1.06596  -1.02085
 Alpha  occ. eigenvalues --   -0.95221  -0.95155  -0.93942  -0.93482  -0.93078
 Alpha  occ. eigenvalues --   -0.92398  -0.91874  -0.91711  -0.91345  -0.88927
 Alpha  occ. eigenvalues --   -0.88619  -0.87922  -0.86953  -0.86830  -0.86332
 Alpha  occ. eigenvalues --   -0.84281  -0.82672  -0.82134  -0.81874  -0.81050
 Alpha  occ. eigenvalues --   -0.79464  -0.78676  -0.78112  -0.77253  -0.76806
 Alpha  occ. eigenvalues --   -0.76147  -0.75804  -0.73861  -0.73778  -0.72908
 Alpha  occ. eigenvalues --   -0.72223  -0.70388  -0.70221  -0.69992  -0.69350
 Alpha  occ. eigenvalues --   -0.67313  -0.66395  -0.65489  -0.64875  -0.64484
 Alpha  occ. eigenvalues --   -0.62962  -0.62758  -0.62287  -0.62029  -0.60528
 Alpha  occ. eigenvalues --   -0.60179  -0.59972  -0.59885  -0.59357  -0.59270
 Alpha  occ. eigenvalues --   -0.59023  -0.58843  -0.58431  -0.58207  -0.58171
 Alpha  occ. eigenvalues --   -0.57002  -0.56889  -0.56746  -0.56543  -0.56229
 Alpha  occ. eigenvalues --   -0.55870  -0.55810  -0.55290  -0.55215  -0.55005
 Alpha  occ. eigenvalues --   -0.54871  -0.54584  -0.54348  -0.54133  -0.53887
 Alpha  occ. eigenvalues --   -0.53666  -0.53554  -0.53531  -0.53201  -0.53055
 Alpha  occ. eigenvalues --   -0.52918  -0.52643  -0.52316  -0.52281  -0.52059
 Alpha  occ. eigenvalues --   -0.51551  -0.51294  -0.51153  -0.50808  -0.50461
 Alpha  occ. eigenvalues --   -0.50315  -0.50220  -0.49934  -0.49610  -0.49542
 Alpha  occ. eigenvalues --   -0.48918  -0.48697  -0.48632  -0.48365  -0.47759
 Alpha  occ. eigenvalues --   -0.47456  -0.47271  -0.47090  -0.46931  -0.46731
 Alpha  occ. eigenvalues --   -0.46471  -0.46426  -0.46033  -0.45748  -0.45337
 Alpha  occ. eigenvalues --   -0.44425  -0.44246  -0.44128  -0.43802  -0.43769
 Alpha  occ. eigenvalues --   -0.43377  -0.43122  -0.42375  -0.42030  -0.41052
 Alpha  occ. eigenvalues --   -0.39490  -0.39168  -0.38989  -0.38947  -0.38036
 Alpha  occ. eigenvalues --   -0.37221  -0.35385  -0.35075  -0.34744  -0.34608
 Alpha  occ. eigenvalues --   -0.33902  -0.33313  -0.33048  -0.32692  -0.32218
 Alpha  occ. eigenvalues --   -0.30254  -0.29791
 Alpha virt. eigenvalues --   -0.18538  -0.17737  -0.11559  -0.08667  -0.08401
 Alpha virt. eigenvalues --   -0.06984  -0.06912  -0.06526  -0.06212  -0.05857
 Alpha virt. eigenvalues --   -0.05570  -0.05500  -0.04894  -0.04375  -0.03781
 Alpha virt. eigenvalues --   -0.03626  -0.03170  -0.03158  -0.02726  -0.02414
 Alpha virt. eigenvalues --   -0.02101  -0.01998  -0.01849  -0.01326  -0.01111
 Alpha virt. eigenvalues --   -0.00777  -0.00453  -0.00288  -0.00101   0.00055
 Alpha virt. eigenvalues --    0.00354   0.00925   0.01008   0.01285   0.01703
 Alpha virt. eigenvalues --    0.02178   0.02491   0.02824   0.02924   0.03023
 Alpha virt. eigenvalues --    0.03308   0.03613   0.03710   0.03812   0.04081
 Alpha virt. eigenvalues --    0.04180   0.04298   0.04551   0.04647   0.04676
 Alpha virt. eigenvalues --    0.04846   0.05134   0.05400   0.05477   0.05615
 Alpha virt. eigenvalues --    0.05861   0.06030   0.06047   0.06381   0.06543
 Alpha virt. eigenvalues --    0.06689   0.06782   0.07128   0.07324   0.07478
 Alpha virt. eigenvalues --    0.07668   0.07691   0.07977   0.08328   0.08608
 Alpha virt. eigenvalues --    0.08700   0.08894   0.09274   0.09556   0.09714
 Alpha virt. eigenvalues --    0.09806   0.10039   0.10348   0.10409   0.10691
 Alpha virt. eigenvalues --    0.10891   0.11277   0.11443   0.11453   0.11768
 Alpha virt. eigenvalues --    0.12085   0.12289   0.12393   0.12527   0.12684
 Alpha virt. eigenvalues --    0.12975   0.13028   0.13345   0.13565   0.13586
 Alpha virt. eigenvalues --    0.13825   0.14022   0.14318   0.14429   0.14824
 Alpha virt. eigenvalues --    0.14905   0.15046   0.15210   0.15302   0.15711
 Alpha virt. eigenvalues --    0.15933   0.16048   0.16254   0.16437   0.16551
 Alpha virt. eigenvalues --    0.16942   0.17097   0.17176   0.17363   0.17740
 Alpha virt. eigenvalues --    0.17849   0.17980   0.18206   0.18443   0.18526
 Alpha virt. eigenvalues --    0.18660   0.18693   0.18847   0.19347   0.19530
 Alpha virt. eigenvalues --    0.19703   0.20031   0.20199   0.20578   0.21039
 Alpha virt. eigenvalues --    0.21356   0.21562   0.21872   0.21953   0.22223
 Alpha virt. eigenvalues --    0.22443   0.22764   0.22856   0.22967   0.23205
 Alpha virt. eigenvalues --    0.23444   0.23645   0.23946   0.24130   0.24318
 Alpha virt. eigenvalues --    0.24598   0.24740   0.25115   0.25321   0.25632
 Alpha virt. eigenvalues --    0.25713   0.25913   0.26030   0.26236   0.26680
 Alpha virt. eigenvalues --    0.26948   0.26992   0.27316   0.27463   0.27813
 Alpha virt. eigenvalues --    0.27914   0.28366   0.28600   0.28785   0.28876
 Alpha virt. eigenvalues --    0.29034   0.29191   0.29421   0.29636   0.29803
 Alpha virt. eigenvalues --    0.30019   0.30244   0.30548   0.30800   0.30897
 Alpha virt. eigenvalues --    0.31161   0.31394   0.31509   0.31652   0.31888
 Alpha virt. eigenvalues --    0.32034   0.32247   0.32335   0.32436   0.32771
 Alpha virt. eigenvalues --    0.33020   0.33073   0.33227   0.33325   0.33525
 Alpha virt. eigenvalues --    0.33685   0.33859   0.34108   0.34331   0.34444
 Alpha virt. eigenvalues --    0.34798   0.34915   0.35211   0.35386   0.35536
 Alpha virt. eigenvalues --    0.35570   0.35961   0.36320   0.36418   0.36581
 Alpha virt. eigenvalues --    0.36726   0.36895   0.37074   0.37156   0.37380
 Alpha virt. eigenvalues --    0.37534   0.37913   0.37955   0.38084   0.38167
 Alpha virt. eigenvalues --    0.38433   0.38507   0.38739   0.38846   0.39312
 Alpha virt. eigenvalues --    0.39407   0.39560   0.39792   0.40014   0.40163
 Alpha virt. eigenvalues --    0.40203   0.40445   0.40484   0.40710   0.40803
 Alpha virt. eigenvalues --    0.40825   0.40949   0.41247   0.41279   0.41505
 Alpha virt. eigenvalues --    0.41674   0.41961   0.41993   0.42319   0.42397
 Alpha virt. eigenvalues --    0.42618   0.42669   0.42998   0.43187   0.43265
 Alpha virt. eigenvalues --    0.43512   0.43672   0.43750   0.44041   0.44076
 Alpha virt. eigenvalues --    0.44268   0.44335   0.44486   0.44746   0.44893
 Alpha virt. eigenvalues --    0.44930   0.45067   0.45304   0.45578   0.45791
 Alpha virt. eigenvalues --    0.46005   0.46213   0.46371   0.46722   0.46842
 Alpha virt. eigenvalues --    0.47058   0.47390   0.47466   0.47589   0.47779
 Alpha virt. eigenvalues --    0.48041   0.48313   0.48478   0.48723   0.48762
 Alpha virt. eigenvalues --    0.49132   0.49281   0.49458   0.49722   0.49822
 Alpha virt. eigenvalues --    0.50047   0.50487   0.50748   0.50997   0.51145
 Alpha virt. eigenvalues --    0.51403   0.51507   0.51617   0.51970   0.51996
 Alpha virt. eigenvalues --    0.52263   0.52535   0.52581   0.53063   0.53349
 Alpha virt. eigenvalues --    0.53480   0.53817   0.54136   0.54260   0.54479
 Alpha virt. eigenvalues --    0.54802   0.55069   0.55322   0.55538   0.55914
 Alpha virt. eigenvalues --    0.56160   0.56424   0.56668   0.56769   0.57175
 Alpha virt. eigenvalues --    0.57352   0.57559   0.57792   0.58214   0.58431
 Alpha virt. eigenvalues --    0.58855   0.59233   0.59265   0.59516   0.59615
 Alpha virt. eigenvalues --    0.59810   0.60065   0.60281   0.60569   0.60826
 Alpha virt. eigenvalues --    0.61145   0.61277   0.61812   0.62021   0.62279
 Alpha virt. eigenvalues --    0.62605   0.62957   0.63258   0.63469   0.63651
 Alpha virt. eigenvalues --    0.63775   0.64263   0.64472   0.64946   0.65086
 Alpha virt. eigenvalues --    0.65316   0.65605   0.65959   0.66043   0.66486
 Alpha virt. eigenvalues --    0.66861   0.67043   0.67377   0.67662   0.67781
 Alpha virt. eigenvalues --    0.68054   0.68589   0.68773   0.68983   0.69526
 Alpha virt. eigenvalues --    0.69730   0.70200   0.70338   0.70634   0.71123
 Alpha virt. eigenvalues --    0.71574   0.71758   0.71915   0.72338   0.72397
 Alpha virt. eigenvalues --    0.73022   0.73251   0.73424   0.73890   0.74116
 Alpha virt. eigenvalues --    0.74316   0.74663   0.74773   0.75041   0.75564
 Alpha virt. eigenvalues --    0.75696   0.75831   0.76376   0.76454   0.76743
 Alpha virt. eigenvalues --    0.76881   0.77067   0.77756   0.77937   0.78031
 Alpha virt. eigenvalues --    0.78426   0.78759   0.78945   0.79149   0.79817
 Alpha virt. eigenvalues --    0.80194   0.80350   0.80774   0.80936   0.81142
 Alpha virt. eigenvalues --    0.81538   0.81879   0.81959   0.82398   0.82702
 Alpha virt. eigenvalues --    0.83017   0.83044   0.83243   0.83432   0.83758
 Alpha virt. eigenvalues --    0.84005   0.84308   0.84463   0.84921   0.85089
 Alpha virt. eigenvalues --    0.85119   0.85455   0.85838   0.86072   0.86317
 Alpha virt. eigenvalues --    0.86607   0.86908   0.86947   0.87224   0.87404
 Alpha virt. eigenvalues --    0.87619   0.87916   0.88394   0.88700   0.88870
 Alpha virt. eigenvalues --    0.88954   0.89080   0.89301   0.89459   0.89811
 Alpha virt. eigenvalues --    0.90049   0.90296   0.90563   0.91259   0.91304
 Alpha virt. eigenvalues --    0.91522   0.91843   0.92068   0.92532   0.92730
 Alpha virt. eigenvalues --    0.92989   0.93357   0.93517   0.93920   0.94126
 Alpha virt. eigenvalues --    0.94501   0.94645   0.94880   0.95455   0.95737
 Alpha virt. eigenvalues --    0.95968   0.96053   0.96304   0.96756   0.96991
 Alpha virt. eigenvalues --    0.97265   0.97463   0.98007   0.98273   0.98406
 Alpha virt. eigenvalues --    0.98647   0.98924   0.99178   0.99473   0.99741
 Alpha virt. eigenvalues --    0.99862   1.00765   1.01027   1.01334   1.01570
 Alpha virt. eigenvalues --    1.01845   1.02105   1.02328   1.02837   1.03317
 Alpha virt. eigenvalues --    1.03422   1.03601   1.04050   1.04357   1.04458
 Alpha virt. eigenvalues --    1.04582   1.04984   1.05177   1.05381   1.06013
 Alpha virt. eigenvalues --    1.06410   1.06733   1.07084   1.07534   1.07971
 Alpha virt. eigenvalues --    1.08259   1.08664   1.08855   1.09032   1.09668
 Alpha virt. eigenvalues --    1.09852   1.10040   1.10426   1.10730   1.10833
 Alpha virt. eigenvalues --    1.11238   1.11539   1.11861   1.12262   1.12513
 Alpha virt. eigenvalues --    1.13008   1.13470   1.13882   1.14239   1.14566
 Alpha virt. eigenvalues --    1.14790   1.15017   1.15231   1.15473   1.15640
 Alpha virt. eigenvalues --    1.16001   1.16526   1.17119   1.17183   1.17816
 Alpha virt. eigenvalues --    1.17919   1.18138   1.18497   1.18874   1.19274
 Alpha virt. eigenvalues --    1.19395   1.19827   1.20228   1.20652   1.20794
 Alpha virt. eigenvalues --    1.21139   1.21709   1.21821   1.22453   1.22681
 Alpha virt. eigenvalues --    1.23066   1.23139   1.23873   1.24221   1.24531
 Alpha virt. eigenvalues --    1.24823   1.24903   1.25344   1.25852   1.26111
 Alpha virt. eigenvalues --    1.26658   1.26888   1.27174   1.27339   1.27840
 Alpha virt. eigenvalues --    1.28189   1.28516   1.29402   1.29615   1.30014
 Alpha virt. eigenvalues --    1.30374   1.30620   1.30682   1.31813   1.32187
 Alpha virt. eigenvalues --    1.32687   1.33235   1.33607   1.34060   1.34215
 Alpha virt. eigenvalues --    1.34553   1.34863   1.36047   1.36927   1.37118
 Alpha virt. eigenvalues --    1.37200   1.37389   1.37984   1.38120   1.38428
 Alpha virt. eigenvalues --    1.38654   1.38967   1.39003   1.39500   1.39884
 Alpha virt. eigenvalues --    1.40041   1.40425   1.40886   1.40977   1.41223
 Alpha virt. eigenvalues --    1.41625   1.42011   1.42503   1.42700   1.43198
 Alpha virt. eigenvalues --    1.43292   1.43449   1.43803   1.44222   1.44474
 Alpha virt. eigenvalues --    1.44656   1.44787   1.45039   1.45307   1.45459
 Alpha virt. eigenvalues --    1.45838   1.45981   1.46248   1.46700   1.46959
 Alpha virt. eigenvalues --    1.47132   1.47386   1.47617   1.47790   1.48219
 Alpha virt. eigenvalues --    1.48608   1.48718   1.48931   1.49383   1.49534
 Alpha virt. eigenvalues --    1.49804   1.50098   1.50559   1.50595   1.50888
 Alpha virt. eigenvalues --    1.50983   1.51324   1.51519   1.51747   1.52082
 Alpha virt. eigenvalues --    1.52209   1.52314   1.52610   1.52736   1.53148
 Alpha virt. eigenvalues --    1.53210   1.53459   1.53664   1.53907   1.54357
 Alpha virt. eigenvalues --    1.54459   1.54785   1.54986   1.55246   1.55404
 Alpha virt. eigenvalues --    1.55724   1.55934   1.55979   1.56122   1.56593
 Alpha virt. eigenvalues --    1.56932   1.57127   1.57580   1.57884   1.58081
 Alpha virt. eigenvalues --    1.58411   1.58728   1.58815   1.59100   1.59278
 Alpha virt. eigenvalues --    1.59512   1.59983   1.60160   1.60260   1.60569
 Alpha virt. eigenvalues --    1.61004   1.61208   1.61494   1.61731   1.62014
 Alpha virt. eigenvalues --    1.62207   1.62600   1.62916   1.63062   1.63584
 Alpha virt. eigenvalues --    1.63796   1.64076   1.64434   1.64585   1.64654
 Alpha virt. eigenvalues --    1.65009   1.65127   1.65775   1.66072   1.66175
 Alpha virt. eigenvalues --    1.66727   1.66951   1.67016   1.67790   1.67964
 Alpha virt. eigenvalues --    1.68369   1.68660   1.69247   1.69430   1.69824
 Alpha virt. eigenvalues --    1.69968   1.70329   1.70753   1.71267   1.71669
 Alpha virt. eigenvalues --    1.72267   1.72392   1.72732   1.73479   1.73811
 Alpha virt. eigenvalues --    1.74198   1.74798   1.74978   1.75093   1.75355
 Alpha virt. eigenvalues --    1.76095   1.76387   1.76968   1.77076   1.77301
 Alpha virt. eigenvalues --    1.77446   1.78152   1.78398   1.78752   1.79054
 Alpha virt. eigenvalues --    1.79148   1.79412   1.79816   1.79883   1.80365
 Alpha virt. eigenvalues --    1.80624   1.80950   1.81318   1.81731   1.81956
 Alpha virt. eigenvalues --    1.82470   1.82634   1.83238   1.83458   1.83951
 Alpha virt. eigenvalues --    1.84260   1.84483   1.84733   1.85096   1.85328
 Alpha virt. eigenvalues --    1.85835   1.86033   1.86260   1.86703   1.86752
 Alpha virt. eigenvalues --    1.87561   1.87695   1.87878   1.88343   1.88943
 Alpha virt. eigenvalues --    1.89031   1.89557   1.89726   1.90297   1.90391
 Alpha virt. eigenvalues --    1.90652   1.91094   1.91483   1.91681   1.92331
 Alpha virt. eigenvalues --    1.92470   1.92735   1.92886   1.93109   1.93311
 Alpha virt. eigenvalues --    1.93694   1.94004   1.94370   1.94662   1.94730
 Alpha virt. eigenvalues --    1.95384   1.95512   1.95893   1.96592   1.96777
 Alpha virt. eigenvalues --    1.97200   1.97588   1.97759   1.98219   1.98592
 Alpha virt. eigenvalues --    1.98829   1.99631   1.99681   2.00341   2.00627
 Alpha virt. eigenvalues --    2.00961   2.01314   2.01759   2.02086   2.02623
 Alpha virt. eigenvalues --    2.03067   2.03204   2.03538   2.03746   2.04113
 Alpha virt. eigenvalues --    2.04435   2.04935   2.05145   2.05698   2.05769
 Alpha virt. eigenvalues --    2.06290   2.06535   2.06748   2.07210   2.07251
 Alpha virt. eigenvalues --    2.07561   2.07719   2.08055   2.08279   2.08676
 Alpha virt. eigenvalues --    2.08756   2.09624   2.09887   2.10024   2.10256
 Alpha virt. eigenvalues --    2.11064   2.11275   2.11739   2.12134   2.12498
 Alpha virt. eigenvalues --    2.12811   2.12996   2.13213   2.13786   2.14067
 Alpha virt. eigenvalues --    2.14688   2.15040   2.15649   2.16170   2.16362
 Alpha virt. eigenvalues --    2.16575   2.16653   2.17064   2.17278   2.17910
 Alpha virt. eigenvalues --    2.18294   2.18503   2.18831   2.19289   2.19743
 Alpha virt. eigenvalues --    2.20094   2.20341   2.20795   2.21142   2.21861
 Alpha virt. eigenvalues --    2.21995   2.22338   2.22586   2.23066   2.23186
 Alpha virt. eigenvalues --    2.23560   2.23669   2.24177   2.24519   2.25095
 Alpha virt. eigenvalues --    2.25498   2.25655   2.26308   2.26537   2.27004
 Alpha virt. eigenvalues --    2.27064   2.27269   2.27844   2.27991   2.28047
 Alpha virt. eigenvalues --    2.28467   2.28892   2.29407   2.29594   2.30032
 Alpha virt. eigenvalues --    2.30277   2.30471   2.30965   2.31008   2.31299
 Alpha virt. eigenvalues --    2.31487   2.31765   2.31972   2.31991   2.32449
 Alpha virt. eigenvalues --    2.32622   2.33336   2.33727   2.33831   2.34478
 Alpha virt. eigenvalues --    2.34813   2.35453   2.35953   2.36024   2.36244
 Alpha virt. eigenvalues --    2.36865   2.37229   2.37862   2.37944   2.38579
 Alpha virt. eigenvalues --    2.38879   2.39114   2.39306   2.40142   2.40368
 Alpha virt. eigenvalues --    2.40593   2.40870   2.41189   2.42016   2.42097
 Alpha virt. eigenvalues --    2.42433   2.42934   2.43132   2.43572   2.44110
 Alpha virt. eigenvalues --    2.44391   2.44734   2.45140   2.45263   2.45548
 Alpha virt. eigenvalues --    2.45747   2.46423   2.46610   2.47035   2.47271
 Alpha virt. eigenvalues --    2.47784   2.47950   2.48325   2.48992   2.49226
 Alpha virt. eigenvalues --    2.49567   2.49683   2.49915   2.50284   2.50443
 Alpha virt. eigenvalues --    2.50645   2.50820   2.51011   2.51549   2.51717
 Alpha virt. eigenvalues --    2.51923   2.52130   2.52581   2.52828   2.53240
 Alpha virt. eigenvalues --    2.53461   2.53908   2.53993   2.54344   2.54494
 Alpha virt. eigenvalues --    2.54840   2.55217   2.55486   2.56038   2.56128
 Alpha virt. eigenvalues --    2.56396   2.56598   2.56858   2.57351   2.57564
 Alpha virt. eigenvalues --    2.57719   2.57962   2.58050   2.58481   2.59278
 Alpha virt. eigenvalues --    2.59386   2.59682   2.59958   2.60378   2.60401
 Alpha virt. eigenvalues --    2.60795   2.61065   2.61933   2.62368   2.62702
 Alpha virt. eigenvalues --    2.62930   2.63207   2.63510   2.63853   2.64008
 Alpha virt. eigenvalues --    2.64413   2.64646   2.64916   2.65377   2.65599
 Alpha virt. eigenvalues --    2.65888   2.66388   2.66773   2.66887   2.67116
 Alpha virt. eigenvalues --    2.67794   2.67991   2.68412   2.68600   2.68841
 Alpha virt. eigenvalues --    2.69138   2.69470   2.69584   2.69969   2.70156
 Alpha virt. eigenvalues --    2.70466   2.70754   2.70996   2.71234   2.71447
 Alpha virt. eigenvalues --    2.72018   2.72205   2.72605   2.73346   2.73607
 Alpha virt. eigenvalues --    2.73657   2.73940   2.74266   2.74588   2.75018
 Alpha virt. eigenvalues --    2.75218   2.75424   2.75638   2.75901   2.76248
 Alpha virt. eigenvalues --    2.76630   2.76984   2.77380   2.77734   2.77923
 Alpha virt. eigenvalues --    2.78372   2.78808   2.79109   2.79354   2.79415
 Alpha virt. eigenvalues --    2.79969   2.80648   2.80863   2.81243   2.81387
 Alpha virt. eigenvalues --    2.82048   2.82381   2.82828   2.83283   2.83533
 Alpha virt. eigenvalues --    2.83701   2.83842   2.84268   2.84855   2.85085
 Alpha virt. eigenvalues --    2.85292   2.85451   2.85645   2.85813   2.86234
 Alpha virt. eigenvalues --    2.86638   2.86944   2.87448   2.87691   2.88033
 Alpha virt. eigenvalues --    2.88118   2.88348   2.88951   2.89149   2.89421
 Alpha virt. eigenvalues --    2.89877   2.90049   2.90455   2.90709   2.90784
 Alpha virt. eigenvalues --    2.91028   2.91343   2.91815   2.92491   2.92849
 Alpha virt. eigenvalues --    2.92954   2.93168   2.93652   2.93902   2.94165
 Alpha virt. eigenvalues --    2.94546   2.94842   2.95074   2.95112   2.95730
 Alpha virt. eigenvalues --    2.95928   2.96112   2.96453   2.96639   2.97082
 Alpha virt. eigenvalues --    2.97515   2.97931   2.98067   2.98330   2.98458
 Alpha virt. eigenvalues --    2.98686   2.98904   2.99530   2.99604   2.99771
 Alpha virt. eigenvalues --    2.99874   3.00201   3.00622   3.00679   3.00943
 Alpha virt. eigenvalues --    3.01482   3.01775   3.02185   3.02440   3.02726
 Alpha virt. eigenvalues --    3.03087   3.03366   3.03441   3.03947   3.04247
 Alpha virt. eigenvalues --    3.04485   3.04640   3.04785   3.05219   3.05667
 Alpha virt. eigenvalues --    3.05748   3.05918   3.06390   3.06721   3.06970
 Alpha virt. eigenvalues --    3.07531   3.07776   3.07924   3.08013   3.08151
 Alpha virt. eigenvalues --    3.08627   3.08797   3.09331   3.09449   3.09644
 Alpha virt. eigenvalues --    3.10089   3.10633   3.10720   3.10873   3.11110
 Alpha virt. eigenvalues --    3.11241   3.11589   3.11981   3.12202   3.12333
 Alpha virt. eigenvalues --    3.12823   3.12954   3.13333   3.13583   3.13754
 Alpha virt. eigenvalues --    3.14008   3.14185   3.14554   3.14842   3.14997
 Alpha virt. eigenvalues --    3.15147   3.15532   3.15602   3.15825   3.16081
 Alpha virt. eigenvalues --    3.16213   3.16587   3.16850   3.17085   3.17201
 Alpha virt. eigenvalues --    3.17439   3.17656   3.17861   3.17885   3.18186
 Alpha virt. eigenvalues --    3.18505   3.18948   3.19092   3.19451   3.19749
 Alpha virt. eigenvalues --    3.20098   3.20153   3.20565   3.20915   3.21101
 Alpha virt. eigenvalues --    3.21363   3.21412   3.21943   3.22273   3.22425
 Alpha virt. eigenvalues --    3.22796   3.23017   3.23287   3.23810   3.23897
 Alpha virt. eigenvalues --    3.24051   3.24346   3.24477   3.24902   3.24963
 Alpha virt. eigenvalues --    3.25579   3.25614   3.25904   3.26072   3.26327
 Alpha virt. eigenvalues --    3.26514   3.26601   3.27010   3.27359   3.27439
 Alpha virt. eigenvalues --    3.27494   3.27740   3.27893   3.28222   3.28516
 Alpha virt. eigenvalues --    3.28689   3.28736   3.29115   3.29404   3.29712
 Alpha virt. eigenvalues --    3.30144   3.30575   3.30955   3.30977   3.31073
 Alpha virt. eigenvalues --    3.31267   3.31523   3.31905   3.32137   3.32269
 Alpha virt. eigenvalues --    3.32533   3.32825   3.32977   3.33269   3.33387
 Alpha virt. eigenvalues --    3.33737   3.34344   3.34470   3.34715   3.34960
 Alpha virt. eigenvalues --    3.35499   3.35590   3.35676   3.36208   3.36486
 Alpha virt. eigenvalues --    3.36664   3.37069   3.37157   3.37526   3.37810
 Alpha virt. eigenvalues --    3.38168   3.38515   3.38624   3.39300   3.39354
 Alpha virt. eigenvalues --    3.39684   3.40037   3.40260   3.40595   3.40783
 Alpha virt. eigenvalues --    3.41084   3.41488   3.41732   3.42001   3.42427
 Alpha virt. eigenvalues --    3.42498   3.42670   3.42849   3.43455   3.43522
 Alpha virt. eigenvalues --    3.43850   3.43967   3.44636   3.45057   3.45419
 Alpha virt. eigenvalues --    3.45549   3.45895   3.46047   3.46275   3.46984
 Alpha virt. eigenvalues --    3.47332   3.47471   3.48041   3.48188   3.48823
 Alpha virt. eigenvalues --    3.49422   3.49594   3.49833   3.50066   3.50253
 Alpha virt. eigenvalues --    3.50576   3.50775   3.51190   3.51641   3.51917
 Alpha virt. eigenvalues --    3.52121   3.52716   3.52808   3.53132   3.53637
 Alpha virt. eigenvalues --    3.53652   3.53944   3.54420   3.54806   3.55350
 Alpha virt. eigenvalues --    3.55399   3.55802   3.56277   3.56498   3.56984
 Alpha virt. eigenvalues --    3.57383   3.57964   3.58373   3.58477   3.59242
 Alpha virt. eigenvalues --    3.59468   3.59990   3.60216   3.60598   3.61061
 Alpha virt. eigenvalues --    3.61319   3.61643   3.62032   3.62227   3.62394
 Alpha virt. eigenvalues --    3.63162   3.63205   3.63560   3.64237   3.64619
 Alpha virt. eigenvalues --    3.64749   3.65025   3.65498   3.65700   3.65812
 Alpha virt. eigenvalues --    3.66321   3.66758   3.66894   3.67372   3.68069
 Alpha virt. eigenvalues --    3.68633   3.68887   3.69412   3.69644   3.69799
 Alpha virt. eigenvalues --    3.70847   3.70893   3.71409   3.71736   3.72447
 Alpha virt. eigenvalues --    3.72823   3.73351   3.73395   3.73846   3.74363
 Alpha virt. eigenvalues --    3.74712   3.74848   3.75608   3.76051   3.76190
 Alpha virt. eigenvalues --    3.76966   3.77192   3.77392   3.77630   3.78530
 Alpha virt. eigenvalues --    3.78832   3.79315   3.79405   3.79916   3.80104
 Alpha virt. eigenvalues --    3.80508   3.81262   3.81485   3.82191   3.82340
 Alpha virt. eigenvalues --    3.82814   3.83492   3.83703   3.84027   3.84672
 Alpha virt. eigenvalues --    3.85169   3.85592   3.86107   3.86320   3.86539
 Alpha virt. eigenvalues --    3.87316   3.87721   3.87931   3.88255   3.88685
 Alpha virt. eigenvalues --    3.89134   3.89300   3.89695   3.90417   3.90823
 Alpha virt. eigenvalues --    3.91031   3.91532   3.92130   3.92497   3.93302
 Alpha virt. eigenvalues --    3.93586   3.93661   3.94658   3.95854   3.96458
 Alpha virt. eigenvalues --    3.96705   3.97369   3.97695   3.98569   3.98790
 Alpha virt. eigenvalues --    3.99765   4.00269   4.01042   4.01701   4.02043
 Alpha virt. eigenvalues --    4.02427   4.02541   4.03008   4.03760   4.04475
 Alpha virt. eigenvalues --    4.05036   4.05134   4.06175   4.06950   4.07227
 Alpha virt. eigenvalues --    4.07805   4.08222   4.08552   4.09124   4.09872
 Alpha virt. eigenvalues --    4.10025   4.10266   4.11166   4.11411   4.12130
 Alpha virt. eigenvalues --    4.12310   4.12947   4.13403   4.13975   4.14285
 Alpha virt. eigenvalues --    4.14627   4.15351   4.15539   4.15984   4.16371
 Alpha virt. eigenvalues --    4.16591   4.17092   4.17221   4.17413   4.18211
 Alpha virt. eigenvalues --    4.18865   4.19508   4.19843   4.21059   4.21545
 Alpha virt. eigenvalues --    4.21794   4.22458   4.23455   4.24394   4.24771
 Alpha virt. eigenvalues --    4.25131   4.25794   4.26426   4.26692   4.27060
 Alpha virt. eigenvalues --    4.27420   4.27736   4.28174   4.28372   4.28610
 Alpha virt. eigenvalues --    4.29104   4.29849   4.30341   4.30887   4.31579
 Alpha virt. eigenvalues --    4.32241   4.32881   4.33130   4.33636   4.34185
 Alpha virt. eigenvalues --    4.34430   4.34626   4.35158   4.35502   4.36201
 Alpha virt. eigenvalues --    4.36876   4.37365   4.37509   4.38039   4.38705
 Alpha virt. eigenvalues --    4.39118   4.39245   4.39667   4.40242   4.41446
 Alpha virt. eigenvalues --    4.41715   4.42295   4.42820   4.43524   4.44373
 Alpha virt. eigenvalues --    4.44825   4.45448   4.46117   4.47452   4.47609
 Alpha virt. eigenvalues --    4.47937   4.48414   4.49251   4.49576   4.49740
 Alpha virt. eigenvalues --    4.51085   4.51603   4.52305   4.52916   4.53129
 Alpha virt. eigenvalues --    4.54197   4.54494   4.55274   4.56101   4.56874
 Alpha virt. eigenvalues --    4.57601   4.57989   4.59810   4.60060   4.60224
 Alpha virt. eigenvalues --    4.61248   4.61457   4.62279   4.62588   4.63085
 Alpha virt. eigenvalues --    4.63732   4.64600   4.65151   4.66010   4.66733
 Alpha virt. eigenvalues --    4.67360   4.67824   4.68085   4.68727   4.69098
 Alpha virt. eigenvalues --    4.69727   4.70645   4.70776   4.70997   4.71869
 Alpha virt. eigenvalues --    4.72788   4.73111   4.73831   4.74344   4.74894
 Alpha virt. eigenvalues --    4.75982   4.76221   4.76461   4.77665   4.78708
 Alpha virt. eigenvalues --    4.79467   4.80118   4.80722   4.81262   4.81662
 Alpha virt. eigenvalues --    4.82265   4.83314   4.83595   4.84292   4.84719
 Alpha virt. eigenvalues --    4.85113   4.86209   4.86518   4.87467   4.88191
 Alpha virt. eigenvalues --    4.88412   4.89060   4.90580   4.91449   4.91883
 Alpha virt. eigenvalues --    4.92200   4.93038   4.93432   4.94621   4.94777
 Alpha virt. eigenvalues --    4.95270   4.96844   4.97230   4.98868   4.99960
 Alpha virt. eigenvalues --    5.01077   5.02043   5.02316   5.03945   5.06035
 Alpha virt. eigenvalues --    5.07504   5.07992   5.08525   5.09266   5.09802
 Alpha virt. eigenvalues --    5.10750   5.11436   5.12507   5.13601   5.14220
 Alpha virt. eigenvalues --    5.14439   5.14661   5.15098   5.16101   5.16269
 Alpha virt. eigenvalues --    5.17275   5.17996   5.18545   5.19622   5.21071
 Alpha virt. eigenvalues --    5.22472   5.23912   5.24263   5.24937   5.25785
 Alpha virt. eigenvalues --    5.26919   5.28370   5.29148   5.29720   5.30816
 Alpha virt. eigenvalues --    5.32787   5.33318   5.34002   5.34421   5.35323
 Alpha virt. eigenvalues --    5.36049   5.37973   5.38795   5.40182   5.41217
 Alpha virt. eigenvalues --    5.42277   5.42886   5.45499   5.46081   5.47251
 Alpha virt. eigenvalues --    5.47860   5.48663   5.50094   5.50716   5.51625
 Alpha virt. eigenvalues --    5.52469   5.53229   5.53978   5.54946   5.55011
 Alpha virt. eigenvalues --    5.57054   5.59017   5.60723   5.61055   5.61516
 Alpha virt. eigenvalues --    5.64131   5.66825   5.69217   5.69430   5.72889
 Alpha virt. eigenvalues --    5.73646   5.77631   5.78046   5.84539   5.86546
 Alpha virt. eigenvalues --    5.87715   5.88524   5.89344   5.90399   5.91507
 Alpha virt. eigenvalues --    5.92150   5.93285   5.95567   5.96389   5.97330
 Alpha virt. eigenvalues --    5.99104   6.00925   6.01206   6.01705   6.02649
 Alpha virt. eigenvalues --    6.06189   6.09134   6.11028   6.12409   6.13487
 Alpha virt. eigenvalues --    6.16394   6.20813   6.22261   6.23648   6.26248
 Alpha virt. eigenvalues --    6.28397   6.29582   6.33250   6.36541   6.38725
 Alpha virt. eigenvalues --    6.42697   6.43328   6.47199   6.59445   6.60318
 Alpha virt. eigenvalues --    6.66738   6.69905   6.75676   6.77669   6.79837
 Alpha virt. eigenvalues --    6.87529   6.91175   6.95251   7.01961   7.06034
 Alpha virt. eigenvalues --    7.06529   7.07475   7.27334   7.28824   9.17794
 Alpha virt. eigenvalues --    9.42183   9.57685  20.22459  22.22423  22.38120
 Alpha virt. eigenvalues --   22.43080  22.43658  22.44418  22.45127  22.47648
 Alpha virt. eigenvalues --   22.50669  22.51625  22.54390  22.55844  22.58228
 Alpha virt. eigenvalues --   22.62181  22.64498  22.71225  22.72699  22.84789
 Alpha virt. eigenvalues --   22.85861  22.88153  22.91402  22.93148  22.95619
 Alpha virt. eigenvalues --   23.00997  23.03458  23.04830  23.10729  23.13695
 Alpha virt. eigenvalues --   23.18589  23.21721  23.22546  23.25868  23.35117
 Alpha virt. eigenvalues --   23.36208  23.37995  23.45349  23.47045  23.55840
 Alpha virt. eigenvalues --   23.59548  23.65892  23.69113  23.76911  32.37969
 Alpha virt. eigenvalues --   32.71964  32.87969  32.96790  32.99199  33.06621
 Alpha virt. eigenvalues --   43.85287  43.86687  43.87424  43.89822
  Beta  occ. eigenvalues -- -256.54116 -89.12062 -30.27306 -26.10528 -26.10480
  Beta  occ. eigenvalues --  -26.10456 -19.34750 -19.33570 -19.24731 -19.24040
  Beta  occ. eigenvalues --  -14.55224 -14.49731 -14.47580 -14.47530 -14.47485
  Beta  occ. eigenvalues --  -14.47244 -10.43110 -10.42042 -10.39132 -10.36475
  Beta  occ. eigenvalues --  -10.35856 -10.35677 -10.35659 -10.35585 -10.35423
  Beta  occ. eigenvalues --  -10.35286 -10.35208 -10.35014 -10.34248 -10.34120
  Beta  occ. eigenvalues --  -10.33805 -10.33713 -10.32703 -10.32691 -10.32580
  Beta  occ. eigenvalues --  -10.32336 -10.32335 -10.32221 -10.32192 -10.32071
  Beta  occ. eigenvalues --  -10.32020 -10.31988 -10.31962 -10.31914 -10.31903
  Beta  occ. eigenvalues --  -10.31896 -10.31853 -10.31809 -10.31626 -10.30886
  Beta  occ. eigenvalues --  -10.30410 -10.30285 -10.30023 -10.29408 -10.29379
  Beta  occ. eigenvalues --  -10.29145 -10.26938  -8.10223  -6.03857  -6.03546
  Beta  occ. eigenvalues --   -6.03007  -3.56513  -2.31089  -2.30793  -2.30719
  Beta  occ. eigenvalues --   -1.24871  -1.24510  -1.17122  -1.08978  -1.08973
  Beta  occ. eigenvalues --   -1.08082  -1.07798  -1.07512  -1.06202  -1.01756
  Beta  occ. eigenvalues --   -0.95171  -0.94866  -0.93842  -0.93380  -0.92982
  Beta  occ. eigenvalues --   -0.92335  -0.91751  -0.91570  -0.91301  -0.88823
  Beta  occ. eigenvalues --   -0.88491  -0.87790  -0.86899  -0.86755  -0.86266
  Beta  occ. eigenvalues --   -0.84182  -0.82596  -0.82072  -0.81778  -0.80921
  Beta  occ. eigenvalues --   -0.79357  -0.78568  -0.77994  -0.77072  -0.76731
  Beta  occ. eigenvalues --   -0.76061  -0.75450  -0.73813  -0.73712  -0.72823
  Beta  occ. eigenvalues --   -0.72133  -0.70182  -0.70101  -0.69717  -0.69017
  Beta  occ. eigenvalues --   -0.67145  -0.66268  -0.65366  -0.64742  -0.63921
  Beta  occ. eigenvalues --   -0.62788  -0.62533  -0.61981  -0.60461  -0.60234
  Beta  occ. eigenvalues --   -0.59842  -0.59762  -0.59342  -0.58939  -0.58616
  Beta  occ. eigenvalues --   -0.58469  -0.58247  -0.57963  -0.57722  -0.56980
  Beta  occ. eigenvalues --   -0.56611  -0.56515  -0.56198  -0.55571  -0.55257
  Beta  occ. eigenvalues --   -0.54929  -0.54854  -0.54750  -0.54510  -0.54312
  Beta  occ. eigenvalues --   -0.53927  -0.53701  -0.53654  -0.53399  -0.53099
  Beta  occ. eigenvalues --   -0.52987  -0.52831  -0.52485  -0.52275  -0.52121
  Beta  occ. eigenvalues --   -0.51779  -0.51427  -0.51204  -0.50960  -0.50723
  Beta  occ. eigenvalues --   -0.50387  -0.50277  -0.49988  -0.49770  -0.49519
  Beta  occ. eigenvalues --   -0.48987  -0.48706  -0.48667  -0.48318  -0.47909
  Beta  occ. eigenvalues --   -0.47536  -0.47346  -0.47051  -0.46940  -0.46728
  Beta  occ. eigenvalues --   -0.46685  -0.46479  -0.46099  -0.45873  -0.45706
  Beta  occ. eigenvalues --   -0.45434  -0.44404  -0.44267  -0.44131  -0.43739
  Beta  occ. eigenvalues --   -0.43538  -0.43248  -0.42886  -0.42548  -0.42300
  Beta  occ. eigenvalues --   -0.41455  -0.40722  -0.39418  -0.39143  -0.38973
  Beta  occ. eigenvalues --   -0.38863  -0.37852  -0.36239  -0.35118  -0.35054
  Beta  occ. eigenvalues --   -0.34813  -0.34498  -0.33531  -0.33133  -0.32557
  Beta  occ. eigenvalues --   -0.30088  -0.29680
  Beta virt. eigenvalues --   -0.20229  -0.20197  -0.17973  -0.16417  -0.16141
  Beta virt. eigenvalues --   -0.12104  -0.11474  -0.10293  -0.08248  -0.08117
  Beta virt. eigenvalues --   -0.06942  -0.06838  -0.06487  -0.05988  -0.05571
  Beta virt. eigenvalues --   -0.05399  -0.05258  -0.04680  -0.04260  -0.03550
  Beta virt. eigenvalues --   -0.03410  -0.03111  -0.02991  -0.02628  -0.02326
  Beta virt. eigenvalues --   -0.01984  -0.01907  -0.01771  -0.01187  -0.00959
  Beta virt. eigenvalues --   -0.00725  -0.00416  -0.00179  -0.00050   0.00106
  Beta virt. eigenvalues --    0.00427   0.00991   0.01095   0.01395   0.01746
  Beta virt. eigenvalues --    0.02248   0.02615   0.02908   0.02972   0.03161
  Beta virt. eigenvalues --    0.03461   0.03711   0.03788   0.03878   0.04118
  Beta virt. eigenvalues --    0.04288   0.04397   0.04600   0.04720   0.04772
  Beta virt. eigenvalues --    0.04900   0.05233   0.05469   0.05546   0.05697
  Beta virt. eigenvalues --    0.05910   0.06077   0.06125   0.06465   0.06593
  Beta virt. eigenvalues --    0.06748   0.06829   0.07212   0.07372   0.07631
  Beta virt. eigenvalues --    0.07722   0.07793   0.08038   0.08379   0.08634
  Beta virt. eigenvalues --    0.08780   0.09046   0.09356   0.09636   0.09823
  Beta virt. eigenvalues --    0.09844   0.10142   0.10424   0.10494   0.10837
  Beta virt. eigenvalues --    0.10957   0.11443   0.11515   0.11619   0.11904
  Beta virt. eigenvalues --    0.12173   0.12366   0.12540   0.12578   0.12733
  Beta virt. eigenvalues --    0.13038   0.13178   0.13469   0.13685   0.13713
  Beta virt. eigenvalues --    0.13920   0.14105   0.14482   0.14573   0.14968
  Beta virt. eigenvalues --    0.15134   0.15298   0.15376   0.15394   0.15807
  Beta virt. eigenvalues --    0.16044   0.16225   0.16446   0.16625   0.17027
  Beta virt. eigenvalues --    0.17111   0.17202   0.17328   0.17424   0.17838
  Beta virt. eigenvalues --    0.18053   0.18105   0.18324   0.18572   0.18684
  Beta virt. eigenvalues --    0.18719   0.18952   0.19104   0.19541   0.19759
  Beta virt. eigenvalues --    0.19961   0.20179   0.20378   0.20669   0.21185
  Beta virt. eigenvalues --    0.21466   0.21711   0.21971   0.22068   0.22359
  Beta virt. eigenvalues --    0.22567   0.22907   0.22970   0.23086   0.23333
  Beta virt. eigenvalues --    0.23511   0.23762   0.24076   0.24260   0.24643
  Beta virt. eigenvalues --    0.24700   0.24874   0.25244   0.25505   0.25793
  Beta virt. eigenvalues --    0.25836   0.26086   0.26172   0.26436   0.26783
  Beta virt. eigenvalues --    0.27022   0.27178   0.27430   0.27582   0.27975
  Beta virt. eigenvalues --    0.28199   0.28569   0.28716   0.28874   0.28981
  Beta virt. eigenvalues --    0.29164   0.29387   0.29645   0.29794   0.29911
  Beta virt. eigenvalues --    0.30220   0.30448   0.30631   0.30910   0.31036
  Beta virt. eigenvalues --    0.31443   0.31489   0.31693   0.31873   0.31961
  Beta virt. eigenvalues --    0.32123   0.32405   0.32527   0.32607   0.32822
  Beta virt. eigenvalues --    0.33176   0.33273   0.33360   0.33457   0.33649
  Beta virt. eigenvalues --    0.33872   0.33944   0.34208   0.34425   0.34637
  Beta virt. eigenvalues --    0.34869   0.35018   0.35322   0.35525   0.35672
  Beta virt. eigenvalues --    0.35693   0.36091   0.36417   0.36489   0.36706
  Beta virt. eigenvalues --    0.36841   0.36967   0.37175   0.37298   0.37451
  Beta virt. eigenvalues --    0.37642   0.37992   0.38041   0.38148   0.38245
  Beta virt. eigenvalues --    0.38499   0.38574   0.38824   0.38911   0.39451
  Beta virt. eigenvalues --    0.39484   0.39654   0.39849   0.40049   0.40229
  Beta virt. eigenvalues --    0.40276   0.40501   0.40582   0.40800   0.40915
  Beta virt. eigenvalues --    0.40936   0.41027   0.41356   0.41370   0.41578
  Beta virt. eigenvalues --    0.41755   0.42001   0.42057   0.42366   0.42485
  Beta virt. eigenvalues --    0.42705   0.42755   0.43101   0.43270   0.43343
  Beta virt. eigenvalues --    0.43658   0.43787   0.43867   0.44090   0.44220
  Beta virt. eigenvalues --    0.44321   0.44410   0.44567   0.44873   0.44982
  Beta virt. eigenvalues --    0.45016   0.45152   0.45368   0.45621   0.45895
  Beta virt. eigenvalues --    0.46107   0.46287   0.46505   0.46783   0.46936
  Beta virt. eigenvalues --    0.47117   0.47487   0.47566   0.47635   0.47861
  Beta virt. eigenvalues --    0.48125   0.48429   0.48662   0.48818   0.48823
  Beta virt. eigenvalues --    0.49187   0.49380   0.49557   0.49817   0.49966
  Beta virt. eigenvalues --    0.50216   0.50596   0.50825   0.51061   0.51311
  Beta virt. eigenvalues --    0.51493   0.51586   0.51799   0.52063   0.52126
  Beta virt. eigenvalues --    0.52439   0.52717   0.52853   0.53210   0.53511
  Beta virt. eigenvalues --    0.53559   0.53948   0.54286   0.54444   0.54703
  Beta virt. eigenvalues --    0.54901   0.55173   0.55519   0.55685   0.56034
  Beta virt. eigenvalues --    0.56297   0.56567   0.56770   0.56914   0.57282
  Beta virt. eigenvalues --    0.57477   0.57683   0.57886   0.58308   0.58608
[...]
  Beta virt. eigenvalues --    3.35059   3.35315   3.35559   3.35748   3.36023
  Beta virt. eigenvalues --    3.36219   3.36370   3.36816   3.36976   3.37364
  Beta virt. eigenvalues --    3.37918   3.38085   3.38382   3.38537   3.38717
  Beta virt. eigenvalues --    3.38880   3.39149   3.39450   3.39618   3.39755
  Beta virt. eigenvalues --    3.39909   3.40415   3.40535   3.40680   3.40841
  Beta virt. eigenvalues --    3.41258   3.41865   3.42060   3.42391   3.42581
  Beta virt. eigenvalues --    3.42925   3.43049   3.43391   3.43837   3.44005
  Beta virt. eigenvalues --    3.44367   3.44575   3.44878   3.45168   3.45370
  Beta virt. eigenvalues --    3.45591   3.45999   3.46125   3.46712   3.47053
  Beta virt. eigenvalues --    3.47248   3.47538   3.47885   3.48172   3.48203
  Beta virt. eigenvalues --    3.48549   3.49029   3.49325   3.49607   3.49930
  Beta virt. eigenvalues --    3.50030   3.50285   3.50522   3.50999   3.51147
  Beta virt. eigenvalues --    3.51543   3.51597   3.52345   3.52596   3.52877
  Beta virt. eigenvalues --    3.53207   3.53350   3.53699   3.53822   3.54466
  Beta virt. eigenvalues --    3.55004   3.55143   3.55675   3.55714   3.56293
  Beta virt. eigenvalues --    3.57056   3.57164   3.57489   3.57551   3.57840
  Beta virt. eigenvalues --    3.58415   3.58577   3.59015   3.59356   3.59449
  Beta virt. eigenvalues --    3.59759   3.60589   3.60699   3.60994   3.61191
  Beta virt. eigenvalues --    3.61508   3.61808   3.61984   3.62620   3.63106
  Beta virt. eigenvalues --    3.63366   3.63720   3.64243   3.64319   3.65045
  Beta virt. eigenvalues --    3.65271   3.65752   3.65847   3.66539   3.67168
  Beta virt. eigenvalues --    3.67190   3.67698   3.68000   3.68300   3.68844
  Beta virt. eigenvalues --    3.69158   3.69305   3.69668   3.69931   3.70156
  Beta virt. eigenvalues --    3.70937   3.71080   3.71362   3.72140   3.72568
  Beta virt. eigenvalues --    3.72699   3.72919   3.73361   3.73682   3.73690
  Beta virt. eigenvalues --    3.74340   3.74643   3.74766   3.75289   3.75715
  Beta virt. eigenvalues --    3.76314   3.76938   3.77190   3.77317   3.77489
  Beta virt. eigenvalues --    3.78558   3.78727   3.78991   3.79473   3.80243
  Beta virt. eigenvalues --    3.80650   3.81080   3.81371   3.81933   3.82208
  Beta virt. eigenvalues --    3.82500   3.82666   3.83472   3.83975   3.84375
  Beta virt. eigenvalues --    3.84792   3.85182   3.85209   3.85485   3.86588
  Beta virt. eigenvalues --    3.87121   3.87262   3.87839   3.88445   3.88540
  Beta virt. eigenvalues --    3.89291   3.89489   3.90182   3.90304   3.90899
  Beta virt. eigenvalues --    3.91222   3.91356   3.92322   3.92764   3.93053
  Beta virt. eigenvalues --    3.93220   3.94006   3.94455   3.94533   3.94985
  Beta virt. eigenvalues --    3.95658   3.96109   3.96514   3.96869   3.97210
  Beta virt. eigenvalues --    3.97881   3.98330   3.99024   3.99788   4.00006
  Beta virt. eigenvalues --    4.00203   4.01176   4.01512   4.01837   4.02152
  Beta virt. eigenvalues --    4.03366   4.03415   4.04154   4.04926   4.05259
  Beta virt. eigenvalues --    4.05537   4.06260   4.06860   4.07330   4.07826
  Beta virt. eigenvalues --    4.08508   4.09433   4.10225   4.10432   4.10699
  Beta virt. eigenvalues --    4.11587   4.12087   4.12981   4.13377   4.13587
  Beta virt. eigenvalues --    4.14099   4.14554   4.14730   4.15263   4.15883
  Beta virt. eigenvalues --    4.16534   4.16605   4.17067   4.17216   4.18056
  Beta virt. eigenvalues --    4.18830   4.19335   4.19747   4.20437   4.20637
  Beta virt. eigenvalues --    4.20963   4.21869   4.22567   4.22939   4.23309
  Beta virt. eigenvalues --    4.23447   4.23735   4.23967   4.24426   4.24846
  Beta virt. eigenvalues --    4.25105   4.25413   4.26554   4.26905   4.27286
  Beta virt. eigenvalues --    4.27575   4.28329   4.28964   4.29962   4.30256
  Beta virt. eigenvalues --    4.31243   4.31577   4.32231   4.32647   4.33132
  Beta virt. eigenvalues --    4.33288   4.34004   4.34279   4.34547   4.35098
  Beta virt. eigenvalues --    4.35444   4.35762   4.35983   4.36656   4.37305
  Beta virt. eigenvalues --    4.37725   4.37977   4.38629   4.39296   4.39643
  Beta virt. eigenvalues --    4.40105   4.40495   4.41024   4.41324   4.41962
  Beta virt. eigenvalues --    4.42493   4.42746   4.43248   4.43758   4.44312
  Beta virt. eigenvalues --    4.44842   4.45090   4.45504   4.45893   4.46082
  Beta virt. eigenvalues --    4.46780   4.47613   4.47634   4.48148   4.48317
  Beta virt. eigenvalues --    4.50034   4.50265   4.51126   4.51690   4.52494
  Beta virt. eigenvalues --    4.53227   4.53505   4.53980   4.54987   4.55203
  Beta virt. eigenvalues --    4.55506   4.55992   4.56733   4.57309   4.57942
  Beta virt. eigenvalues --    4.58765   4.59331   4.60265   4.60511   4.60744
  Beta virt. eigenvalues --    4.61969   4.62491   4.63050   4.64055   4.64676
  Beta virt. eigenvalues --    4.65589   4.66089   4.67629   4.67843   4.67981
  Beta virt. eigenvalues --    4.68892   4.69697   4.69892   4.70471   4.71188
  Beta virt. eigenvalues --    4.71797   4.72118   4.72738   4.73410   4.74358
  Beta virt. eigenvalues --    4.74942   4.75399   4.76094   4.76466   4.76717
  Beta virt. eigenvalues --    4.77326   4.78032   4.78422   4.79120   4.80014
  Beta virt. eigenvalues --    4.80705   4.80952   4.81938   4.82421   4.82880
  Beta virt. eigenvalues --    4.83783   4.84165   4.84932   4.85461   4.86412
  Beta virt. eigenvalues --    4.87336   4.87992   4.88751   4.88980   4.89671
  Beta virt. eigenvalues --    4.90237   4.91315   4.91535   4.92102   4.92723
  Beta virt. eigenvalues --    4.93669   4.94018   4.94287   4.95476   4.95840
  Beta virt. eigenvalues --    4.96022   4.96857   4.98620   4.99392   4.99773
  Beta virt. eigenvalues --    4.99927   5.00928   5.01396   5.02499   5.02830
  Beta virt. eigenvalues --    5.03552   5.04615   5.05316   5.06846   5.07901
  Beta virt. eigenvalues --    5.09392   5.09956   5.10183   5.11820   5.13949
  Beta virt. eigenvalues --    5.14478   5.14981   5.16223   5.16634   5.17145
  Beta virt. eigenvalues --    5.17620   5.19037   5.19530   5.19671   5.20345
  Beta virt. eigenvalues --    5.21030   5.22047   5.22589   5.22816   5.24389
  Beta virt. eigenvalues --    5.25300   5.25376   5.26415   5.27061   5.27794
  Beta virt. eigenvalues --    5.30004   5.30841   5.32178   5.33061   5.34054
  Beta virt. eigenvalues --    5.34985   5.36453   5.36936   5.37929   5.38909
  Beta virt. eigenvalues --    5.40522   5.41236   5.41663   5.42059   5.42895
  Beta virt. eigenvalues --    5.44092   5.46023   5.46778   5.48155   5.49257
  Beta virt. eigenvalues --    5.50260   5.51062   5.51799   5.53138   5.53762
  Beta virt. eigenvalues --    5.55591   5.56880   5.57624   5.58865   5.59373
  Beta virt. eigenvalues --    5.60107   5.60411   5.60771   5.61823   5.62305
  Beta virt. eigenvalues --    5.65557   5.66152   5.67619   5.69353   5.69684
  Beta virt. eigenvalues --    5.72542   5.74606   5.75289   5.77075   5.80775
  Beta virt. eigenvalues --    5.81989   5.83769   5.85676   5.92589   5.92966
  Beta virt. eigenvalues --    5.95119   5.96308   5.96760   5.97583   5.99500
  Beta virt. eigenvalues --    6.00079   6.01109   6.01919   6.04797   6.05377
  Beta virt. eigenvalues --    6.06950   6.07503   6.07752   6.09438   6.11160
  Beta virt. eigenvalues --    6.14608   6.16768   6.17805   6.19141   6.20318
  Beta virt. eigenvalues --    6.24457   6.28561   6.29333   6.30066   6.32101
  Beta virt. eigenvalues --    6.34012   6.37227   6.39505   6.42280   6.44579
  Beta virt. eigenvalues --    6.48132   6.49198   6.52640   6.65507   6.66355
  Beta virt. eigenvalues --    6.72929   6.75876   6.81322   6.82893   6.85546
  Beta virt. eigenvalues --    6.93266   6.96895   7.00804   7.07566   7.11437
  Beta virt. eigenvalues --    7.12110   7.13135   7.33704   7.34882   9.25615
  Beta virt. eigenvalues --    9.49991   9.65387  20.30192  22.29321  22.45964
  Beta virt. eigenvalues --   22.50925  22.51785  22.52088  22.52836  22.55358
  Beta virt. eigenvalues --   22.58253  22.58901  22.61993  22.63049  22.65418
  Beta virt. eigenvalues --   22.69741  22.72031  22.79424  22.79751  22.92203
  Beta virt. eigenvalues --   22.93415  22.95680  22.98941  23.00762  23.03198
  Beta virt. eigenvalues --   23.09198  23.11068  23.12714  23.18325  23.21332
  Beta virt. eigenvalues --   23.26130  23.29901  23.30232  23.33396  23.42078
  Beta virt. eigenvalues --   23.42962  23.45309  23.52716  23.54542  23.62450
  Beta virt. eigenvalues --   23.66247  23.73414  23.76589  23.84431  32.46805
  Beta virt. eigenvalues --   32.80393  32.95827  33.04640  33.07048  33.14547
  Beta virt. eigenvalues --   43.91028  43.92713  43.93125  43.95704
          Condensed to atoms (all electrons):
          Atomic-Atomic Spin Densities.
 Mulliken charges and spin densities:
               1          2
     1  C   -0.395043   0.001124
     2  C    0.134883   0.005342
     3  N   -0.190899   0.005917
     4  C   -0.217757   0.001626
     5  C    0.013616   0.010966
     6  N    0.036316   0.056407
     7  C   -0.358306  -0.001979
     8  C   -0.162820   0.007524
     9  S   -0.004807   0.099698
    10  C   -0.358331   0.000780
    11  Fe  -0.136023   4.360990
    12  C   -0.708537  -0.018772
    13  C   -0.566410  -0.019939
    14  C   -0.491836  -0.018760
    15  C   -0.523253  -0.019435
    16  N    0.010599   0.050035
    17  C    0.295369   0.015884
    18  C    0.011587   0.015847
    19  C   -0.103457   0.013654
    20  C    0.333267   0.022027
    21  C   -0.438815   0.000709
    22  C   -0.273989  -0.000308
    23  C   -0.166399   0.000609
    24  C    0.267902   0.000068
    25  O   -0.325945   0.000002
    26  O   -0.458009   0.000098
    27  N   -0.085953   0.052838
    28  C    0.271328   0.019271
    29  C   -0.048465   0.014213
    30  C   -0.054833   0.019975
    31  C    0.238420   0.019476
    32  C   -0.417289   0.000030
    33  C   -0.149944   0.000135
    34  C   -0.389920   0.000296
    35  N    0.013791   0.045336
    36  C    0.190622   0.014799
    37  C   -0.036725   0.014515
    38  C    0.012317   0.012535
    39  C    0.270234   0.019958
    40  C   -0.407686   0.000137
    41  C   -0.294252  -0.001673
    42  C   -0.304038   0.003545
    43  N   -0.082148   0.063879
    44  C    0.310299   0.016878
    45  C   -0.073476   0.025071
    46  C    0.089682   0.028171
    47  C    0.267697   0.014656
    48  C   -0.426566  -0.000093
    49  C   -0.325153  -0.000779
    50  C   -0.155104   0.001290
    51  C    0.256531   0.000243
    52  O   -0.428748   0.000257
    53  O   -0.326962  -0.000005
    54  H    0.162263   0.000041
    55  H    0.151253   0.000175
    56  H    0.161851   0.000159
    57  H    0.180395   0.000790
    58  H    0.200680   0.000513
    59  H    0.147807   0.000191
    60  H    0.097855   0.001490
    61  H    0.134503   0.000269
    62  H    0.160679   0.004741
    63  H    0.135717   0.001566
    64  H    0.170395   0.000019
    65  H    0.176539   0.003434
    66  H    0.156654   0.000899
    67  H    0.159290   0.000414
    68  H    0.163094   0.000318
    69  H    0.159402   0.000423
    70  H    0.154003   0.000288
    71  H    0.146330  -0.000007
    72  H    0.160420   0.000455
    73  H    0.158843   0.000465
    74  H    0.145306   0.000358
    75  H    0.135491   0.000318
    76  H    0.151314   0.000017
    77  H    0.152657  -0.000022
    78  H    0.153203   0.000332
    79  H    0.157685   0.000391
    80  H    0.155745   0.000446
    81  H    0.125921   0.000604
    82  H    0.127395   0.000091
    83  H    0.133722   0.000268
    84  H    0.158567   0.000433
    85  H    0.156273   0.000489
    86  H    0.152720   0.000353
    87  H    0.154708   0.000204
    88  H    0.169303  -0.000149
    89  H    0.162310  -0.000021
    90  H    0.151720   0.000358
    91  H    0.159371   0.000694
    92  H    0.168692   0.000950
    93  H    0.145958   0.000558
    94  H    0.126362   0.000207
    95  H    0.145307  -0.000006
    96  H    0.153374  -0.000033
    97  H    0.383841   0.000018
    98  H    0.378204   0.000007
    99  H    0.282742   0.001436
   100  H    0.124849  -0.000032
   101  H    0.112724   0.000019
 Sum of Mulliken charges =   1.00000   5.00000
 Mulliken charges and spin densities with hydrogens summed into heavy atoms:
               1          2
     1  C    0.080324   0.001499
     2  C    0.134883   0.005342
     3  N    0.091843   0.007353
     4  C   -0.037363   0.002416
     5  C    0.214296   0.011479
     6  N    0.036316   0.056407
     7  C    0.021860  -0.000030
     8  C    0.133576   0.013831
     9  S   -0.004807   0.099698
    10  C    0.145256   0.005132
    11  Fe  -0.136023   4.360990
    12  C   -0.549248  -0.018358
    13  C   -0.403316  -0.019620
    14  C   -0.332434  -0.018337
    15  C   -0.369249  -0.019147
    16  N    0.010599   0.050035
    17  C    0.295369   0.015884
    18  C    0.011587   0.015847
    19  C   -0.103457   0.013654
    20  C    0.333267   0.022027
    21  C    0.026778   0.001622
    22  C    0.006809   0.000367
    23  C    0.137572   0.000605
    24  C    0.267902   0.000068
    25  O    0.052260   0.000009
    26  O   -0.458009   0.000098
    27  N   -0.085953   0.052838
    28  C    0.271328   0.019271
    29  C   -0.048465   0.014213
    30  C   -0.054833   0.019975
    31  C    0.238420   0.019476
    32  C    0.049344   0.001200
    33  C    0.088700   0.000757
    34  C   -0.003955   0.000623
    35  N    0.013791   0.045336
    36  C    0.190622   0.014799
    37  C   -0.036725   0.014515
    38  C    0.012317   0.012535
    39  C    0.270234   0.019958
    40  C    0.059875   0.001412
    41  C   -0.139545  -0.001469
    42  C    0.027575   0.003375
    43  N   -0.082148   0.063879
    44  C    0.310299   0.016878
    45  C   -0.073476   0.025071
    46  C    0.089682   0.028171
    47  C    0.267697   0.014656
    48  C    0.053217   0.001909
    49  C   -0.052833  -0.000015
    50  C    0.143577   0.001251
    51  C    0.256531   0.000243
    52  O   -0.428748   0.000257
    53  O    0.056879   0.000014
 Electronic spatial extent (au):  <R**2>=          33888.5216
 Charge=              1.0000 electrons
 Dipole moment (field-independent basis, Debye):
    X=              3.9236    Y=             -3.0437    Z=              3.5974  Tot=              6.1319
 Quadrupole moment (field-independent basis, Debye-Ang):
   XX=           -249.6667   YY=           -275.4145   ZZ=           -293.7496
   XY=             -1.5678   XZ=             -0.9782   YZ=             23.7408
 Traceless Quadrupole moment (field-independent basis, Debye-Ang):
   XX=             23.2769   YY=             -2.4709   ZZ=            -20.8060
   XY=             -1.5678   XZ=             -0.9782   YZ=             23.7408
 Octapole moment (field-independent basis, Debye-Ang**2):
  XXX=            -95.6662  YYY=             -8.3235  ZZZ=            154.1819  XYY=             76.6875
  XXY=            -69.0988  XXZ=             -8.9333  XZZ=            175.5954  YZZ=            -35.4758
  YYZ=              6.8917  XYZ=           -160.2064
 Hexadecapole moment (field-independent basis, Debye-Ang**3):
 XXXX=         -19555.5704 YYYY=         -13280.6780 ZZZZ=          -5089.0818 XXXY=            293.7200
 XXXZ=           -223.9162 YYYX=            183.0537 YYYZ=            554.0604 ZZZX=            109.0976
 ZZZY=           -122.6937 XXYY=          -6179.6750 XXZZ=          -6059.6374 YYZZ=          -3646.9490
 XXYZ=           1037.7028 YYXZ=             78.8106 ZZXY=           -100.6198
 N-N= 8.968471067191D+03 E-N=-2.702059885115D+04  KE= 3.869682047450D+03
 1\1\GINC-NODE478\SP\UPBE1PBE\def2TZVP\C41H48Fe1N6O4S1(1+,6)\KLEICH\07-
 Oct-2022\0\\# PBE1PBE/def2TZVP empiricaldispersion=GD3BJ int=(grid=ult
 rafine) geom=check guess=read scrf=(smd,solvent=Chloroform)\\2v07_III_
 H_solv\\1,6\C,0,19.31,-18.566,20.036\C,0,19.862,-19.718,19.248\N,0,21.
 133,-20.196,19.454\C,0,19.335,-20.466,18.244\C,0,21.372,-21.198,18.617
 \N,0,20.306,-21.37,17.855\C,0,21.268,-26.36,14.954\C,0,20.836,-25.248,
 13.998\S,0,19.563,-24.21,14.646\C,0,18.971,-23.364,13.215\Fe,0,20.044,
 -22.673,16.351\C,0,23.427,-23.259,16.142\C,0,20.379,-20.037,14.221\C,0
 ,16.633,-22.302,16.288\C,0,19.732,-25.058,18.706\N,0,21.592,-21.835,15
 .357\C,0,22.929,-22.196,15.445\C,0,23.716,-21.253,14.673\C,0,22.869,-2
 0.378,14.119\C,0,21.51,-20.718,14.541\C,0,23.219,-19.187,13.215\C,0,25
 .251,-21.313,14.578\C,0,25.839,-20.816,15.905\C,0,27.343,-20.976,16.00
 7\O,0,27.909,-21.789,15.233\O,0,27.981,-20.318,16.902\N,0,18.738,-21.4
 19,15.446\C,0,19.097,-20.373,14.631\C,0,17.892,-19.7,14.208\C,0,16.847
 ,-20.33,14.771\C,0,17.372,-21.429,15.546\C,0,17.916,-18.486,13.271\C,0
 ,15.349,-20.071,14.594\C,0,14.937,-20.186,13.293\N,0,18.461,-23.518,17
 .311\C,0,17.147,-23.218,17.15\C,0,16.387,-24.015,18.098\C,0,17.243,-24
 .788,18.779\C,0,18.572,-24.486,18.28\C,0,14.876,-23.957,18.249\C,0,16.
 934,-25.784,19.901\C,0,15.978,-26.724,19.784\N,0,21.344,-23.921,17.258
 \C,0,20.959,-24.892,18.174\C,0,22.095,-25.74,18.503\C,0,23.221,-25.194
 ,17.691\C,0,22.694,-24.076,16.966\C,0,22.126,-26.956,19.441\C,0,24.633
 ,-25.775,17.674\C,0,24.649,-26.905,16.636\C,0,26.007,-27.59,16.542\O,0
 ,26.229,-28.393,15.615\O,0,26.876,-27.363,17.394\H,0,18.69588043,-17.9
 616168,19.40158837\H,0,20.11679155,-17.97627665,20.41837909\H,0,18.723
 8086,-18.93884864,20.84979576\H,0,18.35215653,-20.37294573,17.83137473
 \H,0,22.27503937,-21.76981705,18.56755147\H,0,22.14320354,-26.84079558
 ,14.56961167\H,0,21.48410112,-25.94070726,15.9144134\H,0,20.47905825,-
 27.07680167,15.04709283\H,0,20.40829078,-25.74090735,13.15005709\H,0,2
 1.6925391,-24.61858986,13.87518448\H,0,18.32338451,-22.56663084,13.514
 49389\H,0,18.43099686,-24.04802106,12.59418457\H,0,19.79965513,-22.964
 36985,12.66862428\H,0,24.47041554,-23.47186812,16.0377351\H,0,20.48565
 692,-19.1706565,13.60215169\H,0,15.56880874,-22.26290086,16.18374929\H
 ,0,19.66184279,-25.70817764,19.55290437\H,0,22.31878791,-18.75123154,1
 2.83470533\H,0,23.82431295,-19.52395494,12.39955067\H,0,23.75777106,-1
 8.45595225,13.78085769\H,0,25.54533352,-20.61331695,13.82387042\H,0,25
 .51852378,-22.34476436,14.48422723\H,0,25.42600106,-21.44878447,16.662
 57224\H,0,25.65515154,-19.7621943,15.92935762\H,0,16.91490785,-18.1523
 3342,13.09385284\H,0,18.36981406,-18.76142053,12.34197022\H,0,18.48002
 154,-17.69730667,13.72348485\H,0,15.12768929,-19.08256047,14.93883164\
 H,0,15.55364565,-20.89788817,12.78519751\H,0,13.91898758,-20.51459357,
 13.2689794\H,0,14.56010682,-24.69188594,18.95967162\H,0,14.58871593,-2
 2.9843583,18.5900806\H,0,14.41525625,-24.15391697,17.30356946\H,0,17.4
 9759236,-25.73054597,20.80896823\H,0,15.40352635,-26.79369589,18.88398
 75\H,0,15.79240037,-27.4016565,20.59099098\H,0,23.13817859,-27.2744435
 1,19.57879778\H,0,21.70464327,-26.68742956,20.38716511\H,0,21.55677244
 ,-27.75318065,19.01043874\H,0,24.80377746,-26.22136791,18.63133523\H,0
 ,25.2874811,-25.00737506,17.31719972\H,0,24.48451422,-26.43926211,15.6
 8682528\H,0,23.96581868,-27.64687309,16.99347392\H,0,27.80506974,-27.4
 2523148,17.16042634\H,0,28.86746391,-21.82831723,15.19556883\H,0,21.77
 91892,-19.8432351,20.13075435\H,0,15.01647167,-19.23536762,12.8083534\
 H,0,14.8055584,-20.77381571,15.19033992\\Version=ES64L-G16RevA.03\Stat
 e=6-A\HF=-3880.5638971\S2=8.75977\S2-1=0.\S2A=8.750028\RMSD=3.789e-09\
 Dipole=-1.0220744,2.0749989,0.6853926\Quadrupole=14.2688911,-16.326639
 9,2.0577488,-10.0982499,-3.0164701,-15.3700051\PG=C01 [X(C41H48Fe1N6O4
 S1)]\\@


 It takes a long time to grow an old friend.
                            -- John Leonard
 Job cpu time:       1 days 20 hours 17 minutes 18.1 seconds.
 Elapsed time:       0 days 11 hours  6 minutes 40.2 seconds.
 File lengths (MBytes):  RWF=   4342 Int=      0 D2E=      0 Chk=    295 Scr=      1
 Normal termination of Gaussian 16 at Fri Oct  7 19:44:48 2022.
