 Entering Gaussian System, Link 0=g16
 Input=/net/work/kleich/bench/splitthejobs/2v07/2v0712/2v0712.com
 Output=/net/work/kleich/bench/splitthejobs/2v07/2v0712/2v0712.log
 Initial command:
 /afs/math/software/gaussian/g16.A03/g16/l1.exe "/scratch/kleich_gaussian.N5GKMg2/Gau-22336.inp" -scrdir="/scratch/kleich_gaussian.N5GKMg2/"
 Entering Link 1 = /afs/math/software/gaussian/g16.A03/g16/l1.exe PID=     22337.
  
 Copyright (c) 1988,1990,1992,1993,1995,1998,2003,2009,2016,
            Gaussian, Inc.  All Rights Reserved.
  
 This is part of the Gaussian(R) 16 program.  It is based on
 the Gaussian(R) 09 system (copyright 2009, Gaussian, Inc.),
 the Gaussian(R) 03 system (copyright 2003, Gaussian, Inc.),
 the Gaussian(R) 98 system (copyright 1998, Gaussian, Inc.),
 the Gaussian(R) 94 system (copyright 1995, Gaussian, Inc.),
 the Gaussian 92(TM) system (copyright 1992, Gaussian, Inc.),
 the Gaussian 90(TM) system (copyright 1990, Gaussian, Inc.),
 the Gaussian 88(TM) system (copyright 1988, Gaussian, Inc.),
 the Gaussian 86(TM) system (copyright 1986, Carnegie Mellon
 University), and the Gaussian 82(TM) system (copyright 1983,
 Carnegie Mellon University). Gaussian is a federally registered
 trademark of Gaussian, Inc.
  
 This software contains proprietary and confidential information,
 including trade secrets, belonging to Gaussian, Inc.
  
 This software is provided under written license and may be
 used, copied, transmitted, or stored only in accord with that
 written license.
  
 The following legend is applicable only to US Government
 contracts under FAR:
  
                    RESTRICTED RIGHTS LEGEND
  
 Use, reproduction and disclosure by the US Government is
 subject to restrictions as set forth in subparagraphs (a)
 and (c) of the Commercial Computer Software - Restricted
 Rights clause in FAR 52.227-19.
  
 Gaussian, Inc.
 340 Quinnipiac St., Bldg. 40, Wallingford CT 06492
  
  
 ---------------------------------------------------------------
 Warning -- This program may not be used in any manner that
 competes with the business of Gaussian, Inc. or will provide
 assistance to any competitor of Gaussian, Inc.  The licensee
 of this program is prohibited from giving any competitor of
 Gaussian, Inc. access to this program.  By using this program,
 the user acknowledges that Gaussian, Inc. is engaged in the
 business of creating and licensing software in the field of
 computational chemistry and represents and warrants to the
 licensee that it is not a competitor of Gaussian, Inc. and that
 it will not use this program in any manner prohibited above.
 ---------------------------------------------------------------
  

 Cite this work as:
 Gaussian 16, Revision A.03,
 M. J. Frisch, G. W. Trucks, H. B. Schlegel, G. E. Scuseria, 
 M. A. Robb, J. R. Cheeseman, G. Scalmani, V. Barone, 
 G. A. Petersson, H. Nakatsuji, X. Li, M. Caricato, A. V. Marenich, 
 J. Bloino, B. G. Janesko, R. Gomperts, B. Mennucci, H. P. Hratchian, 
 J. V. Ortiz, A. F. Izmaylov, J. L. Sonnenberg, D. Williams-Young, 
 F. Ding, F. Lipparini, F. Egidi, J. Goings, B. Peng, A. Petrone, 
 T. Henderson, D. Ranasinghe, V. G. Zakrzewski, J. Gao, N. Rega, 
 G. Zheng, W. Liang, M. Hada, M. Ehara, K. Toyota, R. Fukuda, 
 J. Hasegawa, M. Ishida, T. Nakajima, Y. Honda, O. Kitao, H. Nakai, 
 T. Vreven, K. Throssell, J. A. Montgomery, Jr., J. E. Peralta, 
 F. Ogliaro, M. J. Bearpark, J. J. Heyd, E. N. Brothers, K. N. Kudin, 
 V. N. Staroverov, T. A. Keith, R. Kobayashi, J. Normand, 
 K. Raghavachari, A. P. Rendell, J. C. Burant, S. S. Iyengar, 
 J. Tomasi, M. Cossi, J. M. Millam, M. Klene, C. Adamo, R. Cammi, 
 J. W. Ochterski, R. L. Martin, K. Morokuma, O. Farkas, 
 J. B. Foresman, and D. J. Fox, Gaussian, Inc., Wallingford CT, 2016.
 
 ******************************************
 Gaussian 16:  ES64L-G16RevA.03 25-Dec-2016
                18-Sep-2022 
 ******************************************
 %nprocs=12
 Will use up to   12 processors via shared memory.
 %mem=16GB
 %oldchk=2v07_II_S.chk
 %chk=2v07_III_D.chk
 Copying data from "2v07_II_S.chk" to current chk file "2v07_III_D.chk"
 IOpt=  2 FromEx=T IUOpen= 4 IOptOp= 5 NList=   0 IFRang= 0 IUIn= 4 IUOut= 2.
 ----------------------------------------------------------------------
 # PBE1PBE/def2TZVP empiricaldispersion=GD3BJ int=(grid=ultrafine) geom
 =check pop=nbo
 ----------------------------------------------------------------------
 1/29=2,38=1,172=1/1;
 2/12=2,40=1/2;
 3/5=44,7=101,11=2,14=-4,25=1,30=1,74=-13,75=-5,124=41/1,2,3;
 4//1;
 5/5=2,38=5/2;
 6/7=2,8=2,9=2,10=2,28=1,40=1/1,7;
 99/5=1,9=1/99;
 ----------
 2v07_III_D
 ----------
 Structure from the checkpoint file:  "2v07_III_D.chk"
 Charge =  1 Multiplicity = 2
 Z-Matrix found in chk file.
 C,0,19.31,-18.566,20.036
 C,0,19.862,-19.718,19.248
 N,0,21.133,-20.196,19.454
 C,0,19.335,-20.466,18.244
 C,0,21.372,-21.198,18.617
 N,0,20.306,-21.37,17.855
 C,0,21.268,-26.36,14.954
 C,0,20.836,-25.248,13.998
 S,0,19.563,-24.21,14.646
 C,0,18.971,-23.364,13.215
 Fe,0,20.044,-22.673,16.351
 C,0,23.427,-23.259,16.142
 C,0,20.379,-20.037,14.221
 C,0,16.633,-22.302,16.288
 C,0,19.732,-25.058,18.706
 N,0,21.592,-21.835,15.357
 C,0,22.929,-22.196,15.445
 C,0,23.716,-21.253,14.673
 C,0,22.869,-20.378,14.119
 C,0,21.51,-20.718,14.541
 C,0,23.219,-19.187,13.215
 C,0,25.251,-21.313,14.578
 C,0,25.839,-20.816,15.905
 C,0,27.343,-20.976,16.007
 O,0,27.909,-21.789,15.233
 O,0,27.981,-20.318,16.902
 N,0,18.738,-21.419,15.446
 C,0,19.097,-20.373,14.631
 C,0,17.892,-19.7,14.208
 C,0,16.847,-20.33,14.771
 C,0,17.372,-21.429,15.546
 C,0,17.916,-18.486,13.271
 C,0,15.349,-20.071,14.594
 C,0,14.937,-20.186,13.293
 N,0,18.461,-23.518,17.311
 C,0,17.147,-23.218,17.15
 C,0,16.387,-24.015,18.098
 C,0,17.243,-24.788,18.779
 C,0,18.572,-24.486,18.28
 C,0,14.876,-23.957,18.249
 C,0,16.934,-25.784,19.901
 C,0,15.978,-26.724,19.784
 N,0,21.344,-23.921,17.258
 C,0,20.959,-24.892,18.174
 C,0,22.095,-25.74,18.503
 C,0,23.221,-25.194,17.691
 C,0,22.694,-24.076,16.966
 C,0,22.126,-26.956,19.441
 C,0,24.633,-25.775,17.674
 C,0,24.649,-26.905,16.636
 C,0,26.007,-27.59,16.542
 O,0,26.229,-28.393,15.615
 O,0,26.876,-27.363,17.394
 H,0,18.69588043,-17.9616168,19.40158837
 H,0,20.11679155,-17.97627665,20.41837909
 H,0,18.7238086,-18.93884864,20.84979576
 H,0,18.35215653,-20.37294573,17.83137473
 H,0,22.27503937,-21.76981705,18.56755147
 H,0,22.14320354,-26.84079558,14.56961167
 H,0,21.48410112,-25.94070726,15.9144134
 H,0,20.47905825,-27.07680167,15.04709283
 H,0,20.40829078,-25.74090735,13.15005709
 H,0,21.6925391,-24.61858986,13.87518448
 H,0,18.32338451,-22.56663084,13.51449389
 H,0,18.43099686,-24.04802106,12.59418457
 H,0,19.79965513,-22.96436985,12.66862428
 H,0,24.47041554,-23.47186812,16.0377351
 H,0,20.48565692,-19.1706565,13.60215169
 H,0,15.56880874,-22.26290086,16.18374929
 H,0,19.66184279,-25.70817764,19.55290437
 H,0,22.31878791,-18.75123154,12.83470533
 H,0,23.82431295,-19.52395494,12.39955067
 H,0,23.75777106,-18.45595225,13.78085769
 H,0,25.54533352,-20.61331695,13.82387042
 H,0,25.51852378,-22.34476436,14.48422723
 H,0,25.42600106,-21.44878447,16.66257224
 H,0,25.65515154,-19.7621943,15.92935762
 H,0,16.91490785,-18.15233342,13.09385284
 H,0,18.36981406,-18.76142053,12.34197022
 H,0,18.48002154,-17.69730667,13.72348485
 H,0,15.12768929,-19.08256047,14.93883164
 H,0,15.55364565,-20.89788817,12.78519751
 H,0,13.91898758,-20.51459357,13.2689794
 H,0,14.56010682,-24.69188594,18.95967162
 H,0,14.58871593,-22.9843583,18.5900806
 H,0,14.41525625,-24.15391697,17.30356946
 H,0,17.49759236,-25.73054597,20.80896823
 H,0,15.40352635,-26.79369589,18.8839875
 H,0,15.79240037,-27.4016565,20.59099098
 H,0,23.13817859,-27.27444351,19.57879778
 H,0,21.70464327,-26.68742956,20.38716511
 H,0,21.55677244,-27.75318065,19.01043874
 H,0,24.80377746,-26.22136791,18.63133523
 H,0,25.2874811,-25.00737506,17.31719972
 H,0,24.48451422,-26.43926211,15.68682528
 H,0,23.96581868,-27.64687309,16.99347392
 H,0,27.80506974,-27.42523148,17.16042634
 H,0,28.86746391,-21.82831723,15.19556883
 H,0,21.7791892,-19.8432351,20.13075435
 H,0,15.01647167,-19.23536762,12.8083534
 H,0,14.8055584,-20.77381571,15.19033992
 Recover connectivity data from disk.
 Center=     20.63270410    -22.78634843     16.33891383
 Residue   0                        charge    0.00000000 layers R        AvRTP=      1.42638797     43.36013034     99.76088908
 Residue   4                        charge    0.00000000 layers R        AvRTP=      0.00000000      0.00000000      0.00000000
 Residue   2 PDB Number    60_A MET charge    0.00000000 layers R        AvRTP=      3.17274967    260.67716879    137.16680796
 Residue   3 PDB Number  1102_A HEC charge    0.00000000 layers R        AvRTP=      0.18161309    299.92294354     97.21555089
 Residue   1 PDB Number    20_A HIS charge    0.00000000 layers R        AvRTP=      4.10169257    103.10738699     46.95863707
 Stoichiometry    C41H48FeN6O4S(1+,2)
 Framework group  C1[X(C41H48FeN6O4S)]
 Deg. of freedom   297
 Full point group                 C1      NOp   1
 Largest Abelian subgroup         C1      NOp   1
 Largest concise Abelian subgroup C1      NOp   1
                         Standard orientation:                         
 ---------------------------------------------------------------------
 Center     Atomic      Atomic             Coordinates (Angstroms)
 Number     Number       Type             X           Y           Z
 ---------------------------------------------------------------------
      1          6           0        2.644068   -1.585285    4.965724
      2          6           0        1.804293   -1.106549    3.817534
      3          7           0        0.450037   -0.912954    3.939492
      4          6           0        2.113948   -0.809797    2.528619
      5          6           0       -0.047469   -0.508556    2.777320
      6          7           0        0.936052   -0.458039    1.896003
      7          6           0       -1.329303    2.201808   -2.798114
      8          6           0       -0.605716    0.915390   -3.196431
      9         16           0        0.897720    0.643730   -2.311130
     10          6           0        1.705736   -0.598781   -3.268844
     11         26           0        0.842731    0.013503   -0.052691
     12          6           0       -2.570892   -0.407909   -0.089486
     13          6           0        1.249349   -3.302958   -0.710999
     14          6           0        4.226438    0.497914   -0.356674
     15          6           0        0.480902    3.215656    0.920391
     16          7           0       -0.413346   -1.538952   -0.366911
     17          6           0       -1.798622   -1.515922   -0.288706
     18          6           0       -2.295121   -2.869238   -0.451881
     19          6           0       -1.238941   -3.665821   -0.651600
     20          6           0       -0.026030   -2.849501   -0.596511
     21          6           0       -1.246718   -5.185369   -0.873209
     22          6           0       -3.788045   -3.235694   -0.376122
     23          6           0       -4.226518   -3.183248    1.093120
     24          6           0       -5.717942   -3.365306    1.294438
     25          8           0       -6.479116   -3.171864    0.312809
     26          8           0       -6.158246   -3.663263    2.459937
     27          7           0        2.445694   -1.157446   -0.448377
     28          6           0        2.389319   -2.514355   -0.655359
     29          6           0        3.734335   -2.991000   -0.873586
     30          6           0        4.565420   -1.938615   -0.785959
     31          6           0        3.756926   -0.770200   -0.530629
     32          6           0        4.046720   -4.466222   -1.153722
     33          6           0        6.078420   -1.877185   -1.008381
     34          6           0        6.451217   -2.285307   -2.261389
     35          7           0        2.130786    1.564584    0.224037
     36          6           0        3.477771    1.553847    0.056604
     37          6           0        3.986951    2.858384    0.444458
     38          6           0        2.949098    3.625170    0.803520
     39          6           0        1.755175    2.812600    0.659559
     40          6           0        5.455909    3.246796    0.420270
     41          6           0        2.969159    5.070415    1.310713
     42          6           0        3.634288    6.048084    0.668069
     43          7           0       -0.752837    1.181739    0.346733
     44          6           0       -0.651642    2.528218    0.673649
     45          6           0       -1.977284    3.126731    0.721598
     46          6           0       -2.907700    2.010105    0.385728
     47          6           0       -2.092408    0.849306    0.182941
     48          6           0       -2.343145    4.590747    1.008413
     49          6           0       -4.424344    2.153149    0.281205
     50          6           0       -4.740876    2.627023   -1.143523
     51          6           0       -6.233377    2.835802   -1.369524
     52          8           0       -6.659902    3.033099   -2.523895
     53          8           0       -7.012893    2.828326   -0.407810
     54          1           0        3.403046   -2.245725    4.601482
     55          1           0        2.025759   -2.105027    5.667480
     56          1           0        3.102074   -0.746391    5.446753
     57          1           0        3.087463   -0.842226    2.085767
     58          1           0       -1.071642   -0.264687    2.586278
     59          1           0       -2.299993    2.218958   -3.247964
     60          1           0       -1.428877    2.239999   -1.733442
     61          1           0       -0.765487    3.046848   -3.134147
     62          1           0       -0.323174    1.043681   -4.220448
     63          1           0       -1.258166    0.114415   -2.917776
     64          1           0        2.543967   -0.980154   -2.724028
     65          1           0        2.043064   -0.174772   -4.191517
     66          1           0        1.020123   -1.394824   -3.471703
     67          1           0       -3.632255   -0.529095   -0.150504
     68          1           0        1.385829   -4.354275   -0.855935
     69          1           0        5.261771    0.674841   -0.560838
     70          1           0        0.366733    4.180443    1.368780
     71          1           0       -0.259745   -5.514398   -1.123258
     72          1           0       -1.916072   -5.425802   -1.672619
     73          1           0       -1.569756   -5.674692    0.021838
     74          1           0       -3.876689   -4.253883   -0.692876
     75          1           0       -4.325423   -2.466637   -0.890591
     76          1           0       -4.005513   -2.191516    1.428567
     77          1           0       -3.763266   -4.023743    1.566265
     78          1           0        5.101832   -4.589210   -1.282221
     79          1           0        3.540547   -4.775087   -2.044391
     80          1           0        3.715714   -5.063550   -0.329990
     81          1           0        6.558085   -2.503650   -0.285634
     82          1           0        5.667241   -2.066180   -2.955842
     83          1           0        7.341688   -1.769406   -2.554320
     84          1           0        5.555984    4.279930    0.680115
     85          1           0        5.994789    2.648066    1.124565
     86          1           0        5.851273    3.085880   -0.560899
     87          1           0        2.436041    5.310923    2.206727
     88          1           0        4.173416    5.827746   -0.229535
     89          1           0        3.623975    7.045723    1.054734
     90          1           0       -3.404559    4.679754    1.110290
     91          1           0       -1.870169    4.905531    1.915112
     92          1           0       -2.009565    5.206775    0.199628
     93          1           0       -4.715609    2.937406    0.948293
     94          1           0       -4.843412    1.174703    0.390401
     95          1           0       -4.450448    1.828559   -1.793913
     96          1           0       -4.287193    3.590853   -1.244034
     97          1           0       -7.922515    2.546541   -0.529406
     98          1           0       -7.411938   -3.388907    0.378647
     99          1           0       -0.079852   -1.054898    4.775595
    100          1           0        6.635988   -3.339199   -2.252979
    101          1           0        6.406854   -0.869274   -0.862967
 ---------------------------------------------------------------------
 Rotational constants (GHZ):           0.0664463           0.0435039           0.0340808
 Standard basis: def2TZVP (5D, 7F)
 There are  2218 symmetry adapted cartesian basis functions of A   symmetry.
 There are  1951 symmetry adapted basis functions of A   symmetry.
  1951 basis functions,  3156 primitive gaussians,  2218 cartesian basis functions
   205 alpha electrons      204 beta electrons
       nuclear repulsion energy      8968.6430917394 Hartrees.
 NAtoms=  101 NActive=  101 NUniq=  101 SFac= 1.00D+00 NAtFMM=   60 NAOKFM=T Big=T
 Integral buffers will be    131072 words long.
 Raffenetti 2 integral format.
 Two-electron integral symmetry is turned on.
 Nuclear repulsion after empirical dispersion term =     8968.4911544101 Hartrees.
 One-electron integrals computed using PRISM.
   1 Symmetry operations used in ECPInt.
 ECPInt:  NShTT=  305371 NPrTT=  941867 LenC2=  224130 LenP2D=  447274.
 LDataN:  DoStor=T MaxTD1= 6 Len=  172
 NBasis=  1951 RedAO= T EigKep=  3.00D-06  NBF=  1951
 NBsUse=  1951 1.00D-06 EigRej= -1.00D+00 NBFU=  1951
 ExpMin= 4.20D-02 ExpMax= 3.01D+05 ExpMxC= 2.91D+03 IAcc=3 IRadAn=         5 AccDes= 0.00D+00
 Harris functional with IExCor= 1009 and IRadAn=       5 diagonalized for initial guess.
 HarFok:  IExCor= 1009 AccDes= 0.00D+00 IRadAn=         5 IDoV= 1 UseB2=F ITyADJ=14
 ICtDFT=  3500011 ScaDFX=  1.000000  1.000000  1.000000  1.000000
 FoFCou: FMM=F IPFlag=           0 FMFlag=      100000 FMFlg1=        2001
         NFxFlg=           0 DoJE=T BraDBF=F KetDBF=T FulRan=T
         wScrn=  0.000000 ICntrl=       500 IOpCl=  0 I1Cent=   200000004 NGrid=           0
         NMat0=    1 NMatS0=      1 NMatT0=    0 NMatD0=    1 NMtDS0=    0 NMtDT0=    0
 Petite list used in FoFCou.
 Initial guess <Sx>= 0.0000 <Sy>= 0.0000 <Sz>= 0.5000 <S**2>= 0.7500 S= 0.5000
 Requested convergence on RMS density matrix=1.00D-08 within 128 cycles.
 Requested convergence on MAX density matrix=1.00D-06.
 Requested convergence on             energy=1.00D-06.
 No special actions if energy rises.
 EnCoef did    21 forward-backward iterations
 EnCoef did   100 forward-backward iterations
 EnCoef did    12 forward-backward iterations
 Restarting incremental Fock formation.
 Restarting incremental Fock formation.
 Restarting incremental Fock formation.
 SCF Done:  E(UPBE1PBE) =  -3880.47640125     A.U. after   62 cycles
            NFock= 62  Conv=0.16D-08     -V/T= 2.0031
 <Sx>= 0.0000 <Sy>= 0.0000 <Sz>= 0.5000 <S**2>= 0.8277 S= 0.5381
 <L.S>= 0.000000000000E+00
 Annihilation of the first spin contaminant:
 S**2 before annihilation     0.8277,   after     0.7515
 Hyperfine terms turned off by default for NAtoms > 100.

 **********************************************************************

            Population analysis using the SCF density.

 **********************************************************************

 Orbital symmetries:
 Alpha Orbitals:
       Occupied  (A) (A) (A) (A) (A) (A) (A) (A) (A) (A) (A) (A)
                 (A) (A) (A) (A) (A) (A) (A) (A) (A) (A) (A) (A)
                 (A) (A) (A) (A) (A) (A) (A) (A) (A) (A) (A) (A)
                 (A) (A) (A) (A) (A) (A) (A) (A) (A) (A) (A) (A)
                 (A) (A) (A) (A) (A) (A) (A) (A) (A) (A) (A) (A)
                 (A) (A) (A) (A) (A) (A) (A) (A) (A) (A) (A) (A)
                 (A) (A) (A) (A) (A) (A) (A) (A) (A) (A) (A) (A)
                 (A) (A) (A) (A) (A) (A) (A) (A) (A) (A) (A) (A)
                 (A) (A) (A) (A) (A) (A) (A) (A) (A) (A) (A) (A)
                 (A) (A) (A) (A) (A) (A) (A) (A) (A) (A) (A) (A)
                 (A) (A) (A) (A) (A) (A) (A) (A) (A) (A) (A) (A)
                 (A) (A) (A) (A) (A) (A) (A) (A) (A) (A) (A) (A)
                 (A) (A) (A) (A) (A) (A) (A) (A) (A) (A) (A) (A)
                 (A) (A) (A) (A) (A) (A) (A) (A) (A) (A) (A) (A)
                 (A) (A) (A) (A) (A) (A) (A) (A) (A) (A) (A) (A)
                 (A) (A) (A) (A) (A) (A) (A) (A) (A) (A) (A) (A)
                 (A) (A) (A) (A) (A) (A) (A) (A) (A) (A) (A) (A)
                 (A)
       Virtual   (A) (A) (A) (A) (A) (A) (A) (A) (A) (A) (A) (A)
                 (A) (A) (A) (A) (A) (A) (A) (A) (A) (A) (A) (A)
                 (A) (A) (A) (A) (A) (A) (A) (A) (A) (A) (A) (A)
                 (A) (A) (A) (A) (A) (A) (A) (A) (A) (A) (A) (A)
                 (A) (A) (A) (A) (A) (A) (A) (A) (A) (A) (A) (A)
                 (A) (A) (A) (A) (A) (A) (A) (A) (A) (A) (A) (A)
                 (A) (A) (A) (A) (A) (A) (A) (A) (A) (A) (A) (A)
                 (A) (A) (A) (A) (A) (A) (A) (A) (A) (A) (A) (A)
                 (A) (A) (A) (A) (A) (A) (A) (A) (A) (A) (A) (A)
                 (A) (A) (A) (A) (A) (A) (A) (A) (A) (A) (A) (A)
                 (A) (A) (A) (A) (A) (A) (A) (A) (A) (A) (A) (A)
                 (A) (A) (A) (A) (A) (A) (A) (A) (A) (A) (A) (A)
                 (A) (A) (A) (A) (A) (A) (A) (A) (A) (A) (A) (A)
                 (A) (A) (A) (A) (A) (A) (A) (A) (A) (A) (A) (A)
                 (A) (A) (A) (A) (A) (A) (A) (A) (A) (A) (A) (A)
                 (A) (A) (A) (A) (A) (A) (A) (A) (A) (A) (A) (A)
                 (A) (A) (A) (A) (A) (A) (A) (A) (A) (A) (A) (A)
                 (A) (A) (A) (A) (A) (A) (A) (A) (A) (A) (A) (A)
                 (A) (A) (A) (A) (A) (A) (A) (A) (A) (A) (A) (A)
                 (A) (A) (A) (A) (A) (A) (A) (A) (A) (A) (A) (A)
                 (A) (A) (A) (A) (A) (A) (A) (A) (A) (A) (A) (A)
                 (A) (A) (A) (A) (A) (A) (A) (A) (A) (A) (A) (A)
                 (A) (A) (A) (A) (A) (A) (A) (A) (A) (A) (A) (A)
                 (A) (A) (A) (A) (A) (A) (A) (A) (A) (A) (A) (A)
                 (A) (A) (A) (A) (A) (A) (A) (A) (A) (A) (A) (A)
                 (A) (A) (A) (A) (A) (A) (A) (A) (A) (A) (A) (A)
                 (A) (A) (A) (A) (A) (A) (A) (A) (A) (A) (A) (A)
                 (A) (A) (A) (A) (A) (A) (A) (A) (A) (A) (A) (A)
                 (A) (A) (A) (A) (A) (A) (A) (A) (A) (A) (A) (A)
                 (A) (A) (A) (A) (A) (A) (A) (A) (A) (A) (A) (A)
                 (A) (A) (A) (A) (A) (A) (A) (A) (A) (A) (A) (A)
                 (A) (A) (A) (A) (A) (A) (A) (A) (A) (A) (A) (A)
                 (A) (A) (A) (A) (A) (A) (A) (A) (A) (A) (A) (A)
                 (A) (A) (A) (A) (A) (A) (A) (A) (A) (A) (A) (A)
                 (A) (A) (A) (A) (A) (A) (A) (A) (A) (A) (A) (A)
                 (A) (A) (A) (A) (A) (A) (A) (A) (A) (A) (A) (A)
                 (A) (A) (A) (A) (A) (A) (A) (A) (A) (A) (A) (A)
                 (A) (A) (A) (A) (A) (A) (A) (A) (A) (A) (A) (A)
                 (A) (A) (A) (A) (A) (A) (A) (A) (A) (A) (A) (A)
                 (A) (A) (A) (A) (A) (A) (A) (A) (A) (A) (A) (A)
                 (A) (A) (A) (A) (A) (A) (A) (A) (A) (A) (A) (A)
                 (A) (A) (A) (A) (A) (A) (A) (A) (A) (A) (A) (A)
                 (A) (A) (A) (A) (A) (A) (A) (A) (A) (A) (A) (A)
                 (A) (A) (A) (A) (A) (A) (A) (A) (A) (A) (A) (A)
                 (A) (A) (A) (A) (A) (A) (A) (A) (A) (A) (A) (A)
                 (A) (A) (A) (A) (A) (A) (A) (A) (A) (A) (A) (A)
                 (A) (A) (A) (A) (A) (A) (A) (A) (A) (A) (A) (A)
                 (A) (A) (A) (A) (A) (A) (A) (A) (A) (A) (A) (A)
                 (A) (A) (A) (A) (A) (A) (A) (A) (A) (A) (A) (A)
                 (A) (A) (A) (A) (A) (A) (A) (A) (A) (A) (A) (A)
                 (A) (A) (A) (A) (A) (A) (A) (A) (A) (A) (A) (A)
                 (A) (A) (A) (A) (A) (A) (A) (A) (A) (A) (A) (A)
                 (A) (A) (A) (A) (A) (A) (A) (A) (A) (A) (A) (A)
                 (A) (A) (A) (A) (A) (A) (A) (A) (A) (A) (A) (A)
                 (A) (A) (A) (A) (A) (A) (A) (A) (A) (A) (A) (A)
                 (A) (A) (A) (A) (A) (A) (A) (A) (A) (A) (A) (A)
                 (A) (A) (A) (A) (A) (A) (A) (A) (A) (A) (A) (A)
                 (A) (A) (A) (A) (A) (A) (A) (A) (A) (A) (A) (A)
                 (A) (A) (A) (A) (A) (A) (A) (A) (A) (A) (A) (A)
                 (A) (A) (A) (A) (A) (A) (A) (A) (A) (A) (A) (A)
                 (A) (A) (A) (A) (A) (A) (A) (A) (A) (A) (A) (A)
                 (A) (A) (A) (A) (A) (A) (A) (A) (A) (A) (A) (A)
                 (A) (A) (A) (A) (A) (A) (A) (A) (A) (A) (A) (A)
                 (A) (A) (A) (A) (A) (A) (A) (A) (A) (A) (A) (A)
                 (A) (A) (A) (A) (A) (A) (A) (A) (A) (A) (A) (A)
                 (A) (A) (A) (A) (A) (A) (A) (A) (A) (A) (A) (A)
                 (A) (A) (A) (A) (A) (A) (A) (A) (A) (A) (A) (A)
                 (A) (A) (A) (A) (A) (A) (A) (A) (A) (A) (A) (A)
                 (A) (A) (A) (A) (A) (A) (A) (A) (A) (A) (A) (A)
                 (A) (A) (A) (A) (A) (A) (A) (A) (A) (A) (A) (A)
                 (A) (A) (A) (A) (A) (A) (A) (A) (A) (A) (A) (A)
                 (A) (A) (A) (A) (A) (A) (A) (A) (A) (A) (A) (A)
                 (A) (A) (A) (A) (A) (A) (A) (A) (A) (A) (A) (A)
                 (A) (A) (A) (A) (A) (A) (A) (A) (A) (A) (A) (A)
                 (A) (A) (A) (A) (A) (A) (A) (A) (A) (A) (A) (A)
                 (A) (A) (A) (A) (A) (A) (A) (A) (A) (A) (A) (A)
                 (A) (A) (A) (A) (A) (A) (A) (A) (A) (A) (A) (A)
                 (A) (A) (A) (A) (A) (A) (A) (A) (A) (A) (A) (A)
                 (A) (A) (A) (A) (A) (A) (A) (A) (A) (A) (A) (A)
                 (A) (A) (A) (A) (A) (A) (A) (A) (A) (A) (A) (A)
                 (A) (A) (A) (A) (A) (A) (A) (A) (A) (A) (A) (A)
                 (A) (A) (A) (A) (A) (A) (A) (A) (A) (A) (A) (A)
                 (A) (A) (A) (A) (A) (A) (A) (A) (A) (A) (A) (A)
                 (A) (A) (A) (A) (A) (A) (A) (A) (A) (A) (A) (A)
                 (A) (A) (A) (A) (A) (A) (A) (A) (A) (A) (A) (A)
                 (A) (A) (A) (A) (A) (A) (A) (A) (A) (A) (A) (A)
                 (A) (A) (A) (A) (A) (A) (A) (A) (A) (A) (A) (A)
                 (A) (A) (A) (A) (A) (A) (A) (A) (A) (A) (A) (A)
                 (A) (A) (A) (A) (A) (A) (A) (A) (A) (A) (A) (A)
                 (A) (A) (A) (A) (A) (A) (A) (A) (A) (A) (A) (A)
                 (A) (A) (A) (A) (A) (A) (A) (A) (A) (A) (A) (A)
                 (A) (A) (A) (A) (A) (A) (A) (A) (A) (A) (A) (A)
                 (A) (A) (A) (A) (A) (A) (A) (A) (A) (A) (A) (A)
                 (A) (A) (A) (A) (A) (A) (A) (A) (A) (A) (A) (A)
                 (A) (A) (A) (A) (A) (A) (A) (A) (A) (A) (A) (A)
                 (A) (A) (A) (A) (A) (A) (A) (A) (A) (A) (A) (A)
                 (A) (A) (A) (A) (A) (A) (A) (A) (A) (A) (A) (A)
                 (A) (A) (A) (A) (A) (A) (A) (A) (A) (A) (A) (A)
                 (A) (A) (A) (A) (A) (A) (A) (A) (A) (A) (A) (A)
                 (A) (A) (A) (A) (A) (A) (A) (A) (A) (A) (A) (A)
                 (A) (A) (A) (A) (A) (A) (A) (A) (A) (A) (A) (A)
                 (A) (A) (A) (A) (A) (A) (A) (A) (A) (A) (A) (A)
                 (A) (A) (A) (A) (A) (A) (A) (A) (A) (A) (A) (A)
                 (A) (A) (A) (A) (A) (A) (A) (A) (A) (A) (A) (A)
                 (A) (A) (A) (A) (A) (A) (A) (A) (A) (A) (A) (A)
                 (A) (A) (A) (A) (A) (A) (A) (A) (A) (A) (A) (A)
                 (A) (A) (A) (A) (A) (A) (A) (A) (A) (A) (A) (A)
                 (A) (A) (A) (A) (A) (A) (A) (A) (A) (A) (A) (A)
                 (A) (A) (A) (A) (A) (A) (A) (A) (A) (A) (A) (A)
                 (A) (A) (A) (A) (A) (A) (A) (A) (A) (A) (A) (A)
                 (A) (A) (A) (A) (A) (A) (A) (A) (A) (A) (A) (A)
                 (A) (A) (A) (A) (A) (A) (A) (A) (A) (A) (A) (A)
                 (A) (A) (A) (A) (A) (A) (A) (A) (A) (A) (A) (A)
                 (A) (A) (A) (A) (A) (A) (A) (A) (A) (A) (A) (A)
                 (A) (A) (A) (A) (A) (A) (A) (A) (A) (A) (A) (A)
                 (A) (A) (A) (A) (A) (A) (A) (A) (A) (A) (A) (A)
                 (A) (A) (A) (A) (A) (A) (A) (A) (A) (A) (A) (A)
                 (A) (A) (A) (A) (A) (A) (A) (A) (A) (A) (A) (A)
                 (A) (A) (A) (A) (A) (A) (A) (A) (A) (A) (A) (A)
                 (A) (A) (A) (A) (A) (A) (A) (A) (A) (A) (A) (A)
                 (A) (A) (A) (A) (A) (A) (A) (A) (A) (A) (A) (A)
                 (A) (A) (A) (A) (A) (A) (A) (A) (A) (A) (A) (A)
                 (A) (A) (A) (A) (A) (A) (A) (A) (A) (A) (A) (A)
                 (A) (A) (A) (A) (A) (A) (A) (A) (A) (A) (A) (A)
                 (A) (A) (A) (A) (A) (A) (A) (A) (A) (A) (A) (A)
                 (A) (A) (A) (A) (A) (A) (A) (A) (A) (A) (A) (A)
                 (A) (A) (A) (A) (A) (A) (A) (A) (A) (A) (A) (A)
                 (A) (A) (A) (A) (A) (A) (A) (A) (A) (A) (A) (A)
                 (A) (A) (A) (A) (A) (A) (A) (A) (A) (A) (A) (A)
                 (A) (A) (A) (A) (A) (A) (A) (A) (A) (A) (A) (A)
                 (A) (A) (A) (A) (A) (A) (A) (A) (A) (A) (A) (A)
                 (A) (A) (A) (A) (A) (A) (A) (A) (A) (A) (A) (A)
                 (A) (A) (A) (A) (A) (A) (A) (A) (A) (A) (A) (A)
                 (A) (A) (A) (A) (A) (A) (A) (A) (A) (A) (A) (A)
                 (A) (A) (A) (A) (A) (A) (A) (A) (A) (A) (A) (A)
                 (A) (A) (A) (A) (A) (A) (A) (A) (A) (A) (A) (A)
                 (A) (A) (A) (A) (A) (A) (A) (A) (A) (A) (A) (A)
                 (A) (A) (A) (A) (A) (A) (A) (A) (A) (A) (A) (A)
                 (A) (A) (A) (A) (A) (A) (A) (A) (A) (A) (A) (A)
                 (A) (A) (A) (A) (A) (A) (A) (A) (A) (A) (A) (A)
                 (A) (A) (A) (A) (A) (A) (A) (A) (A) (A) (A) (A)
                 (A) (A) (A) (A) (A) (A) (A) (A) (A) (A) (A) (A)
                 (A) (A) (A) (A) (A) (A) (A) (A) (A) (A) (A) (A)
                 (A) (A) (A) (A) (A) (A) (A) (A) (A) (A) (A) (A)
                 (A) (A) (A) (A) (A) (A) (A) (A) (A) (A) (A) (A)
                 (A) (A) (A) (A) (A) (A)
 Beta  Orbitals:
       Occupied  (A) (A) (A) (A) (A) (A) (A) (A) (A) (A) (A) (A)
                 (A) (A) (A) (A) (A) (A) (A) (A) (A) (A) (A) (A)
                 (A) (A) (A) (A) (A) (A) (A) (A) (A) (A) (A) (A)
                 (A) (A) (A) (A) (A) (A) (A) (A) (A) (A) (A) (A)
                 (A) (A) (A) (A) (A) (A) (A) (A) (A) (A) (A) (A)
                 (A) (A) (A) (A) (A) (A) (A) (A) (A) (A) (A) (A)
                 (A) (A) (A) (A) (A) (A) (A) (A) (A) (A) (A) (A)
                 (A) (A) (A) (A) (A) (A) (A) (A) (A) (A) (A) (A)
                 (A) (A) (A) (A) (A) (A) (A) (A) (A) (A) (A) (A)
                 (A) (A) (A) (A) (A) (A) (A) (A) (A) (A) (A) (A)
                 (A) (A) (A) (A) (A) (A) (A) (A) (A) (A) (A) (A)
                 (A) (A) (A) (A) (A) (A) (A) (A) (A) (A) (A) (A)
                 (A) (A) (A) (A) (A) (A) (A) (A) (A) (A) (A) (A)
                 (A) (A) (A) (A) (A) (A) (A) (A) (A) (A) (A) (A)
                 (A) (A) (A) (A) (A) (A) (A) (A) (A) (A) (A) (A)
                 (A) (A) (A) (A) (A) (A) (A) (A) (A) (A) (A) (A)
                 (A) (A) (A) (A) (A) (A) (A) (A) (A) (A) (A) (A)
       Virtual   (A) (A) (A) (A) (A) (A) (A) (A) (A) (A) (A) (A)
                 (A) (A) (A) (A) (A) (A) (A) (A) (A) (A) (A) (A)
                 (A) (A) (A) (A) (A) (A) (A) (A) (A) (A) (A) (A)
                 (A) (A) (A) (A) (A) (A) (A) (A) (A) (A) (A) (A)
                 (A) (A) (A) (A) (A) (A) (A) (A) (A) (A) (A) (A)
                 (A) (A) (A) (A) (A) (A) (A) (A) (A) (A) (A) (A)
                 (A) (A) (A) (A) (A) (A) (A) (A) (A) (A) (A) (A)
                 (A) (A) (A) (A) (A) (A) (A) (A) (A) (A) (A) (A)
                 (A) (A) (A) (A) (A) (A) (A) (A) (A) (A) (A) (A)
                 (A) (A) (A) (A) (A) (A) (A) (A) (A) (A) (A) (A)
                 (A) (A) (A) (A) (A) (A) (A) (A) (A) (A) (A) (A)
                 (A) (A) (A) (A) (A) (A) (A) (A) (A) (A) (A) (A)
                 (A) (A) (A) (A) (A) (A) (A) (A) (A) (A) (A) (A)
                 (A) (A) (A) (A) (A) (A) (A) (A) (A) (A) (A) (A)
                 (A) (A) (A) (A) (A) (A) (A) (A) (A) (A) (A) (A)
                 (A) (A) (A) (A) (A) (A) (A) (A) (A) (A) (A) (A)
                 (A) (A) (A) (A) (A) (A) (A) (A) (A) (A) (A) (A)
                 (A) (A) (A) (A) (A) (A) (A) (A) (A) (A) (A) (A)
                 (A) (A) (A) (A) (A) (A) (A) (A) (A) (A) (A) (A)
                 (A) (A) (A) (A) (A) (A) (A) (A) (A) (A) (A) (A)
                 (A) (A) (A) (A) (A) (A) (A) (A) (A) (A) (A) (A)
                 (A) (A) (A) (A) (A) (A) (A) (A) (A) (A) (A) (A)
                 (A) (A) (A) (A) (A) (A) (A) (A) (A) (A) (A) (A)
                 (A) (A) (A) (A) (A) (A) (A) (A) (A) (A) (A) (A)
                 (A) (A) (A) (A) (A) (A) (A) (A) (A) (A) (A) (A)
                 (A) (A) (A) (A) (A) (A) (A) (A) (A) (A) (A) (A)
                 (A) (A) (A) (A) (A) (A) (A) (A) (A) (A) (A) (A)
                 (A) (A) (A) (A) (A) (A) (A) (A) (A) (A) (A) (A)
                 (A) (A) (A) (A) (A) (A) (A) (A) (A) (A) (A) (A)
                 (A) (A) (A) (A) (A) (A) (A) (A) (A) (A) (A) (A)
                 (A) (A) (A) (A) (A) (A) (A) (A) (A) (A) (A) (A)
                 (A) (A) (A) (A) (A) (A) (A) (A) (A) (A) (A) (A)
                 (A) (A) (A) (A) (A) (A) (A) (A) (A) (A) (A) (A)
                 (A) (A) (A) (A) (A) (A) (A) (A) (A) (A) (A) (A)
                 (A) (A) (A) (A) (A) (A) (A) (A) (A) (A) (A) (A)
                 (A) (A) (A) (A) (A) (A) (A) (A) (A) (A) (A) (A)
                 (A) (A) (A) (A) (A) (A) (A) (A) (A) (A) (A) (A)
                 (A) (A) (A) (A) (A) (A) (A) (A) (A) (A) (A) (A)
                 (A) (A) (A) (A) (A) (A) (A) (A) (A) (A) (A) (A)
                 (A) (A) (A) (A) (A) (A) (A) (A) (A) (A) (A) (A)
                 (A) (A) (A) (A) (A) (A) (A) (A) (A) (A) (A) (A)
                 (A) (A) (A) (A) (A) (A) (A) (A) (A) (A) (A) (A)
                 (A) (A) (A) (A) (A) (A) (A) (A) (A) (A) (A) (A)
                 (A) (A) (A) (A) (A) (A) (A) (A) (A) (A) (A) (A)
                 (A) (A) (A) (A) (A) (A) (A) (A) (A) (A) (A) (A)
                 (A) (A) (A) (A) (A) (A) (A) (A) (A) (A) (A) (A)
                 (A) (A) (A) (A) (A) (A) (A) (A) (A) (A) (A) (A)
                 (A) (A) (A) (A) (A) (A) (A) (A) (A) (A) (A) (A)
                 (A) (A) (A) (A) (A) (A) (A) (A) (A) (A) (A) (A)
                 (A) (A) (A) (A) (A) (A) (A) (A) (A) (A) (A) (A)
                 (A) (A) (A) (A) (A) (A) (A) (A) (A) (A) (A) (A)
                 (A) (A) (A) (A) (A) (A) (A) (A) (A) (A) (A) (A)
                 (A) (A) (A) (A) (A) (A) (A) (A) (A) (A) (A) (A)
                 (A) (A) (A) (A) (A) (A) (A) (A) (A) (A) (A) (A)
                 (A) (A) (A) (A) (A) (A) (A) (A) (A) (A) (A) (A)
                 (A) (A) (A) (A) (A) (A) (A) (A) (A) (A) (A) (A)
                 (A) (A) (A) (A) (A) (A) (A) (A) (A) (A) (A) (A)
                 (A) (A) (A) (A) (A) (A) (A) (A) (A) (A) (A) (A)
                 (A) (A) (A) (A) (A) (A) (A) (A) (A) (A) (A) (A)
                 (A) (A) (A) (A) (A) (A) (A) (A) (A) (A) (A) (A)
                 (A) (A) (A) (A) (A) (A) (A) (A) (A) (A) (A) (A)
                 (A) (A) (A) (A) (A) (A) (A) (A) (A) (A) (A) (A)
                 (A) (A) (A) (A) (A) (A) (A) (A) (A) (A) (A) (A)
                 (A) (A) (A) (A) (A) (A) (A) (A) (A) (A) (A) (A)
                 (A) (A) (A) (A) (A) (A) (A) (A) (A) (A) (A) (A)
                 (A) (A) (A) (A) (A) (A) (A) (A) (A) (A) (A) (A)
                 (A) (A) (A) (A) (A) (A) (A) (A) (A) (A) (A) (A)
                 (A) (A) (A) (A) (A) (A) (A) (A) (A) (A) (A) (A)
                 (A) (A) (A) (A) (A) (A) (A) (A) (A) (A) (A) (A)
                 (A) (A) (A) (A) (A) (A) (A) (A) (A) (A) (A) (A)
                 (A) (A) (A) (A) (A) (A) (A) (A) (A) (A) (A) (A)
                 (A) (A) (A) (A) (A) (A) (A) (A) (A) (A) (A) (A)
                 (A) (A) (A) (A) (A) (A) (A) (A) (A) (A) (A) (A)
                 (A) (A) (A) (A) (A) (A) (A) (A) (A) (A) (A) (A)
                 (A) (A) (A) (A) (A) (A) (A) (A) (A) (A) (A) (A)
                 (A) (A) (A) (A) (A) (A) (A) (A) (A) (A) (A) (A)
                 (A) (A) (A) (A) (A) (A) (A) (A) (A) (A) (A) (A)
                 (A) (A) (A) (A) (A) (A) (A) (A) (A) (A) (A) (A)
                 (A) (A) (A) (A) (A) (A) (A) (A) (A) (A) (A) (A)
                 (A) (A) (A) (A) (A) (A) (A) (A) (A) (A) (A) (A)
                 (A) (A) (A) (A) (A) (A) (A) (A) (A) (A) (A) (A)
                 (A) (A) (A) (A) (A) (A) (A) (A) (A) (A) (A) (A)
                 (A) (A) (A) (A) (A) (A) (A) (A) (A) (A) (A) (A)
                 (A) (A) (A) (A) (A) (A) (A) (A) (A) (A) (A) (A)
                 (A) (A) (A) (A) (A) (A) (A) (A) (A) (A) (A) (A)
                 (A) (A) (A) (A) (A) (A) (A) (A) (A) (A) (A) (A)
                 (A) (A) (A) (A) (A) (A) (A) (A) (A) (A) (A) (A)
                 (A) (A) (A) (A) (A) (A) (A) (A) (A) (A) (A) (A)
                 (A) (A) (A) (A) (A) (A) (A) (A) (A) (A) (A) (A)
                 (A) (A) (A) (A) (A) (A) (A) (A) (A) (A) (A) (A)
                 (A) (A) (A) (A) (A) (A) (A) (A) (A) (A) (A) (A)
                 (A) (A) (A) (A) (A) (A) (A) (A) (A) (A) (A) (A)
                 (A) (A) (A) (A) (A) (A) (A) (A) (A) (A) (A) (A)
                 (A) (A) (A) (A) (A) (A) (A) (A) (A) (A) (A) (A)
                 (A) (A) (A) (A) (A) (A) (A) (A) (A) (A) (A) (A)
                 (A) (A) (A) (A) (A) (A) (A) (A) (A) (A) (A) (A)
                 (A) (A) (A) (A) (A) (A) (A) (A) (A) (A) (A) (A)
                 (A) (A) (A) (A) (A) (A) (A) (A) (A) (A) (A) (A)
                 (A) (A) (A) (A) (A) (A) (A) (A) (A) (A) (A) (A)
                 (A) (A) (A) (A) (A) (A) (A) (A) (A) (A) (A) (A)
                 (A) (A) (A) (A) (A) (A) (A) (A) (A) (A) (A) (A)
                 (A) (A) (A) (A) (A) (A) (A) (A) (A) (A) (A) (A)
                 (A) (A) (A) (A) (A) (A) (A) (A) (A) (A) (A) (A)
                 (A) (A) (A) (A) (A) (A) (A) (A) (A) (A) (A) (A)
                 (A) (A) (A) (A) (A) (A) (A) (A) (A) (A) (A) (A)
                 (A) (A) (A) (A) (A) (A) (A) (A) (A) (A) (A) (A)
                 (A) (A) (A) (A) (A) (A) (A) (A) (A) (A) (A) (A)
                 (A) (A) (A) (A) (A) (A) (A) (A) (A) (A) (A) (A)
                 (A) (A) (A) (A) (A) (A) (A) (A) (A) (A) (A) (A)
                 (A) (A) (A) (A) (A) (A) (A) (A) (A) (A) (A) (A)
                 (A) (A) (A) (A) (A) (A) (A) (A) (A) (A) (A) (A)
                 (A) (A) (A) (A) (A) (A) (A) (A) (A) (A) (A) (A)
                 (A) (A) (A) (A) (A) (A) (A) (A) (A) (A) (A) (A)
                 (A) (A) (A) (A) (A) (A) (A) (A) (A) (A) (A) (A)
                 (A) (A) (A) (A) (A) (A) (A) (A) (A) (A) (A) (A)
                 (A) (A) (A) (A) (A) (A) (A) (A) (A) (A) (A) (A)
                 (A) (A) (A) (A) (A) (A) (A) (A) (A) (A) (A) (A)
                 (A) (A) (A) (A) (A) (A) (A) (A) (A) (A) (A) (A)
                 (A) (A) (A) (A) (A) (A) (A) (A) (A) (A) (A) (A)
                 (A) (A) (A) (A) (A) (A) (A) (A) (A) (A) (A) (A)
                 (A) (A) (A) (A) (A) (A) (A) (A) (A) (A) (A) (A)
                 (A) (A) (A) (A) (A) (A) (A) (A) (A) (A) (A) (A)
                 (A) (A) (A) (A) (A) (A) (A) (A) (A) (A) (A) (A)
                 (A) (A) (A) (A) (A) (A) (A) (A) (A) (A) (A) (A)
                 (A) (A) (A) (A) (A) (A) (A) (A) (A) (A) (A) (A)
                 (A) (A) (A) (A) (A) (A) (A) (A) (A) (A) (A) (A)
                 (A) (A) (A) (A) (A) (A) (A) (A) (A) (A) (A) (A)
                 (A) (A) (A) (A) (A) (A) (A) (A) (A) (A) (A) (A)
                 (A) (A) (A) (A) (A) (A) (A) (A) (A) (A) (A) (A)
                 (A) (A) (A) (A) (A) (A) (A) (A) (A) (A) (A) (A)
                 (A) (A) (A) (A) (A) (A) (A) (A) (A) (A) (A) (A)
                 (A) (A) (A) (A) (A) (A) (A) (A) (A) (A) (A) (A)
                 (A) (A) (A) (A) (A) (A) (A) (A) (A) (A) (A) (A)
                 (A) (A) (A) (A) (A) (A) (A) (A) (A) (A) (A) (A)
                 (A) (A) (A) (A) (A) (A) (A) (A) (A) (A) (A) (A)
                 (A) (A) (A) (A) (A) (A) (A) (A) (A) (A) (A) (A)
                 (A) (A) (A) (A) (A) (A) (A) (A) (A) (A) (A) (A)
                 (A) (A) (A) (A) (A) (A) (A) (A) (A) (A) (A) (A)
                 (A) (A) (A) (A) (A) (A) (A) (A) (A) (A) (A) (A)
                 (A) (A) (A) (A) (A) (A) (A) (A) (A) (A) (A) (A)
                 (A) (A) (A) (A) (A) (A) (A) (A) (A) (A) (A) (A)
                 (A) (A) (A) (A) (A) (A) (A) (A) (A) (A) (A) (A)
                 (A) (A) (A) (A) (A) (A) (A) (A) (A) (A) (A) (A)
                 (A) (A) (A) (A) (A) (A) (A) (A) (A) (A) (A) (A)
                 (A) (A) (A) (A) (A) (A) (A) (A) (A) (A) (A) (A)
                 (A) (A) (A) (A) (A) (A) (A)
 The electronic state is 2-A.
 Alpha  occ. eigenvalues -- -256.50608 -89.13891 -30.29253 -26.12361 -26.11906
 Alpha  occ. eigenvalues --  -26.10432 -19.34702 -19.33470 -19.24680 -19.23936
 Alpha  occ. eigenvalues --  -14.55540 -14.51468 -14.48932 -14.48635 -14.48564
 Alpha  occ. eigenvalues --  -14.48555 -10.43056 -10.41927 -10.39509 -10.36739
 Alpha  occ. eigenvalues --  -10.35720 -10.35640 -10.35558 -10.35358 -10.35209
 Alpha  occ. eigenvalues --  -10.35138 -10.35057 -10.35017 -10.34416 -10.34192
 Alpha  occ. eigenvalues --  -10.34005 -10.33416 -10.33207 -10.32614 -10.32557
 Alpha  occ. eigenvalues --  -10.32220 -10.32173 -10.32145 -10.32113 -10.31985
 Alpha  occ. eigenvalues --  -10.31976 -10.31974 -10.31920 -10.31832 -10.31783
 Alpha  occ. eigenvalues --  -10.31760 -10.31742 -10.31717 -10.31463 -10.30724
 Alpha  occ. eigenvalues --  -10.30382 -10.30190 -10.29983 -10.29372 -10.29321
 Alpha  occ. eigenvalues --  -10.29288 -10.26846  -8.11832  -6.05442  -6.05171
 Alpha  occ. eigenvalues --   -6.04700  -3.64881  -2.42163  -2.41060  -2.37952
 Alpha  occ. eigenvalues --   -1.24769  -1.24461  -1.17585  -1.09071  -1.08877
 Alpha  occ. eigenvalues --   -1.08033  -1.07946  -1.07621  -1.06274  -1.02272
 Alpha  occ. eigenvalues --   -0.95607  -0.95048  -0.93745  -0.93343  -0.92834
 Alpha  occ. eigenvalues --   -0.92237  -0.91703  -0.91588  -0.91526  -0.88800
 Alpha  occ. eigenvalues --   -0.88404  -0.87670  -0.87229  -0.86787  -0.86215
 Alpha  occ. eigenvalues --   -0.84110  -0.82847  -0.81975  -0.81688  -0.80859
 Alpha  occ. eigenvalues --   -0.79295  -0.78528  -0.77897  -0.77535  -0.76646
 Alpha  occ. eigenvalues --   -0.75999  -0.75789  -0.73753  -0.73582  -0.73107
 Alpha  occ. eigenvalues --   -0.72038  -0.70429  -0.69997  -0.69906  -0.69054
 Alpha  occ. eigenvalues --   -0.67420  -0.66178  -0.65283  -0.64702  -0.63816
 Alpha  occ. eigenvalues --   -0.62756  -0.62421  -0.61987  -0.60391  -0.60176
 Alpha  occ. eigenvalues --   -0.59932  -0.59734  -0.59470  -0.58906  -0.58804
 Alpha  occ. eigenvalues --   -0.58675  -0.58487  -0.58002  -0.57609  -0.56948
 Alpha  occ. eigenvalues --   -0.56770  -0.56449  -0.56127  -0.55846  -0.55322
 Alpha  occ. eigenvalues --   -0.55205  -0.54925  -0.54780  -0.54583  -0.54455
 Alpha  occ. eigenvalues --   -0.54033  -0.53897  -0.53814  -0.53472  -0.53175
 Alpha  occ. eigenvalues --   -0.53016  -0.52839  -0.52697  -0.52182  -0.52087
 Alpha  occ. eigenvalues --   -0.51905  -0.51373  -0.51227  -0.51006  -0.50911
 Alpha  occ. eigenvalues --   -0.50405  -0.50298  -0.50097  -0.49844  -0.49659
 Alpha  occ. eigenvalues --   -0.49108  -0.48676  -0.48624  -0.48395  -0.47928
 Alpha  occ. eigenvalues --   -0.47594  -0.47541  -0.47307  -0.47101  -0.46943
 Alpha  occ. eigenvalues --   -0.46823  -0.46640  -0.46335  -0.46211  -0.45876
 Alpha  occ. eigenvalues --   -0.45823  -0.45547  -0.44390  -0.44347  -0.44131
 Alpha  occ. eigenvalues --   -0.43795  -0.43600  -0.43381  -0.42581  -0.42401
 Alpha  occ. eigenvalues --   -0.42235  -0.41507  -0.41114  -0.40274  -0.39709
 Alpha  occ. eigenvalues --   -0.39215  -0.39048  -0.38913  -0.38670  -0.37419
 Alpha  occ. eigenvalues --   -0.36122  -0.35306  -0.34988  -0.34590  -0.33997
 Alpha  occ. eigenvalues --   -0.33619  -0.32994  -0.32173  -0.30127  -0.29653
 Alpha virt. eigenvalues --   -0.18297  -0.17539  -0.16525  -0.13800  -0.11407
 Alpha virt. eigenvalues --   -0.08815  -0.08278  -0.06943  -0.06845  -0.06472
 Alpha virt. eigenvalues --   -0.06179  -0.05820  -0.05555  -0.05519  -0.04881
 Alpha virt. eigenvalues --   -0.04285  -0.03694  -0.03549  -0.03128  -0.03076
 Alpha virt. eigenvalues --   -0.02683  -0.02368  -0.02019  -0.01941  -0.01783
 Alpha virt. eigenvalues --   -0.01218  -0.01172  -0.00877  -0.00424  -0.00286
 Alpha virt. eigenvalues --   -0.00072   0.00052   0.00363   0.00966   0.01030
 Alpha virt. eigenvalues --    0.01288   0.01714   0.02252   0.02584   0.02804
 Alpha virt. eigenvalues --    0.02950   0.03076   0.03397   0.03664   0.03812
 Alpha virt. eigenvalues --    0.03833   0.04114   0.04242   0.04343   0.04502
 Alpha virt. eigenvalues --    0.04706   0.04736   0.04883   0.05164   0.05406
 Alpha virt. eigenvalues --    0.05541   0.05668   0.05878   0.06054   0.06107
 Alpha virt. eigenvalues --    0.06386   0.06610   0.06726   0.06851   0.07109
 Alpha virt. eigenvalues --    0.07403   0.07575   0.07672   0.07816   0.08062
 Alpha virt. eigenvalues --    0.08385   0.08663   0.08766   0.09046   0.09348
 Alpha virt. eigenvalues --    0.09627   0.09855   0.09869   0.10097   0.10352
 Alpha virt. eigenvalues --    0.10491   0.10855   0.10941   0.11433   0.11486
 Alpha virt. eigenvalues --    0.11647   0.11882   0.12180   0.12362   0.12518
 Alpha virt. eigenvalues --    0.12567   0.12737   0.13041   0.13157   0.13411
 Alpha virt. eigenvalues --    0.13646   0.13710   0.13927   0.14068   0.14438
 Alpha virt. eigenvalues --    0.14570   0.14941   0.15104   0.15235   0.15361
 Alpha virt. eigenvalues --    0.15416   0.15819   0.15965   0.16205   0.16424
 Alpha virt. eigenvalues --    0.16574   0.16886   0.17031   0.17141   0.17302
 Alpha virt. eigenvalues --    0.17426   0.17822   0.18028   0.18081   0.18288
 Alpha virt. eigenvalues --    0.18581   0.18633   0.18721   0.18951   0.18970
 Alpha virt. eigenvalues --    0.19576   0.19687   0.19846   0.20197   0.20311
 Alpha virt. eigenvalues --    0.20670   0.21174   0.21445   0.21648   0.21964
 Alpha virt. eigenvalues --    0.22044   0.22345   0.22521   0.22881   0.22938
 Alpha virt. eigenvalues --    0.23074   0.23329   0.23525   0.23728   0.24081
 Alpha virt. eigenvalues --    0.24266   0.24572   0.24729   0.24856   0.25253
 Alpha virt. eigenvalues --    0.25480   0.25780   0.25867   0.26112   0.26143
 Alpha virt. eigenvalues --    0.26446   0.26769   0.27030   0.27218   0.27417
 Alpha virt. eigenvalues --    0.27523   0.27975   0.28185   0.28561   0.28662
 Alpha virt. eigenvalues --    0.28867   0.28989   0.29194   0.29378   0.29599
 Alpha virt. eigenvalues --    0.29837   0.29915   0.30200   0.30467   0.30648
 Alpha virt. eigenvalues --    0.30911   0.31020   0.31435   0.31481   0.31691
 Alpha virt. eigenvalues --    0.31821   0.31960   0.32132   0.32411   0.32575
 Alpha virt. eigenvalues --    0.32621   0.32836   0.33171   0.33222   0.33354
 Alpha virt. eigenvalues --    0.33477   0.33619   0.33849   0.33915   0.34190
 Alpha virt. eigenvalues --    0.34438   0.34607   0.34869   0.34968   0.35318
 Alpha virt. eigenvalues --    0.35536   0.35676   0.35708   0.36059   0.36372
 Alpha virt. eigenvalues --    0.36479   0.36660   0.36832   0.36976   0.37119
 Alpha virt. eigenvalues --    0.37215   0.37395   0.37633   0.37945   0.38025
 Alpha virt. eigenvalues --    0.38093   0.38197   0.38450   0.38582   0.38822
 Alpha virt. eigenvalues --    0.38934   0.39428   0.39480   0.39630   0.39845
 Alpha virt. eigenvalues --    0.40061   0.40231   0.40246   0.40503   0.40595
 Alpha virt. eigenvalues --    0.40780   0.40894   0.40925   0.41003   0.41342
 Alpha virt. eigenvalues --    0.41383   0.41582   0.41720   0.42010   0.42055
 Alpha virt. eigenvalues --    0.42393   0.42437   0.42702   0.42758   0.43127
 Alpha virt. eigenvalues --    0.43251   0.43336   0.43617   0.43737   0.43864
 Alpha virt. eigenvalues --    0.44117   0.44203   0.44342   0.44405   0.44551
 Alpha virt. eigenvalues --    0.44857   0.44987   0.45035   0.45162   0.45382
 Alpha virt. eigenvalues --    0.45665   0.45914   0.46117   0.46312   0.46487
 Alpha virt. eigenvalues --    0.46789   0.46958   0.47132   0.47498   0.47536
 Alpha virt. eigenvalues --    0.47683   0.47890   0.48119   0.48394   0.48652
 Alpha virt. eigenvalues --    0.48805   0.48820   0.49201   0.49377   0.49522
 Alpha virt. eigenvalues --    0.49818   0.49917   0.50217   0.50583   0.50805
 Alpha virt. eigenvalues --    0.51036   0.51325   0.51488   0.51587   0.51785
 Alpha virt. eigenvalues --    0.52066   0.52109   0.52464   0.52734   0.52829
 Alpha virt. eigenvalues --    0.53218   0.53532   0.53594   0.53924   0.54244
 Alpha virt. eigenvalues --    0.54419   0.54686   0.54895   0.55165   0.55524
 Alpha virt. eigenvalues --    0.55703   0.56059   0.56264   0.56564   0.56804
 Alpha virt. eigenvalues --    0.56920   0.57290   0.57499   0.57681   0.57879
 Alpha virt. eigenvalues --    0.58321   0.58602   0.59002   0.59330   0.59421
 Alpha virt. eigenvalues --    0.59636   0.59720   0.59941   0.60220   0.60461
 Alpha virt. eigenvalues --    0.60750   0.60960   0.61235   0.61427   0.61964
 Alpha virt. eigenvalues --    0.62116   0.62386   0.62719   0.63140   0.63477
 Alpha virt. eigenvalues --    0.63537   0.63791   0.63929   0.64390   0.64721
 Alpha virt. eigenvalues --    0.65130   0.65231   0.65492   0.65764   0.66088
 Alpha virt. eigenvalues --    0.66284   0.66665   0.67020   0.67152   0.67575
 Alpha virt. eigenvalues --    0.67811   0.67899   0.68176   0.68674   0.69004
 Alpha virt. eigenvalues --    0.69120   0.69665   0.69932   0.70295   0.70463
 Alpha virt. eigenvalues --    0.70802   0.71262   0.71670   0.71888   0.72017
 Alpha virt. eigenvalues --    0.72464   0.72509   0.73118   0.73358   0.73579
 Alpha virt. eigenvalues --    0.73994   0.74232   0.74441   0.74876   0.74931
 Alpha virt. eigenvalues --    0.75163   0.75617   0.75820   0.76007   0.76505
 Alpha virt. eigenvalues --    0.76653   0.76868   0.76981   0.77202   0.77851
 Alpha virt. eigenvalues --    0.78054   0.78169   0.78585   0.78882   0.79073
 Alpha virt. eigenvalues --    0.79215   0.79921   0.80340   0.80480   0.80859
 Alpha virt. eigenvalues --    0.81008   0.81238   0.81640   0.82011   0.82043
 Alpha virt. eigenvalues --    0.82465   0.82870   0.83130   0.83200   0.83380
 Alpha virt. eigenvalues --    0.83519   0.83887   0.84105   0.84448   0.84543
 Alpha virt. eigenvalues --    0.85011   0.85228   0.85268   0.85689   0.85997
 Alpha virt. eigenvalues --    0.86205   0.86407   0.86847   0.87019   0.87073
 Alpha virt. eigenvalues --    0.87339   0.87572   0.87777   0.87957   0.88643
 Alpha virt. eigenvalues --    0.88842   0.88982   0.89108   0.89229   0.89376
 Alpha virt. eigenvalues --    0.89609   0.89915   0.90178   0.90437   0.90734
 Alpha virt. eigenvalues --    0.91322   0.91408   0.91707   0.91897   0.92220
 Alpha virt. eigenvalues --    0.92680   0.92898   0.93187   0.93484   0.93664
 Alpha virt. eigenvalues --    0.94089   0.94293   0.94744   0.94851   0.95203
 Alpha virt. eigenvalues --    0.95652   0.95891   0.96071   0.96301   0.96460
 Alpha virt. eigenvalues --    0.96872   0.97167   0.97406   0.97593   0.98191
 Alpha virt. eigenvalues --    0.98411   0.98505   0.98835   0.99061   0.99327
 Alpha virt. eigenvalues --    0.99705   0.99942   1.00084   1.01042   1.01349
 Alpha virt. eigenvalues --    1.01607   1.01713   1.02036   1.02187   1.02487
 Alpha virt. eigenvalues --    1.03008   1.03514   1.03582   1.03741   1.04150
 Alpha virt. eigenvalues --    1.04514   1.04705   1.04725   1.05127   1.05285
 Alpha virt. eigenvalues --    1.05569   1.06260   1.06638   1.06947   1.07312
 Alpha virt. eigenvalues --    1.07757   1.08182   1.08409   1.08828   1.08968
 Alpha virt. eigenvalues --    1.09237   1.09760   1.09973   1.10190   1.10684
 Alpha virt. eigenvalues --    1.10886   1.11104   1.11467   1.11685   1.12006
 Alpha virt. eigenvalues --    1.12469   1.12775   1.13149   1.13661   1.14240
 Alpha virt. eigenvalues --    1.14462   1.14784   1.15124   1.15238   1.15439
 Alpha virt. eigenvalues --    1.15703   1.15872   1.16160   1.16613   1.17388
 Alpha virt. eigenvalues --    1.17450   1.18063   1.18133   1.18326   1.18743
 Alpha virt. eigenvalues --    1.19047   1.19454   1.19616   1.20030   1.20521
 Alpha virt. eigenvalues --    1.20983   1.21156   1.21329   1.21977   1.22337
 Alpha virt. eigenvalues --    1.22640   1.23127   1.23195   1.23550   1.24037
 Alpha virt. eigenvalues --    1.24598   1.24793   1.25013   1.25254   1.25584
 Alpha virt. eigenvalues --    1.26024   1.26321   1.26896   1.27078   1.27449
 Alpha virt. eigenvalues --    1.27609   1.28142   1.28385   1.28640   1.29627
 Alpha virt. eigenvalues --    1.29743   1.30406   1.30688   1.30895   1.31077
 Alpha virt. eigenvalues --    1.32017   1.32491   1.32976   1.33422   1.33777
 Alpha virt. eigenvalues --    1.34222   1.34511   1.34857   1.35125   1.36213
 Alpha virt. eigenvalues --    1.37105   1.37366   1.37568   1.37730   1.38185
 Alpha virt. eigenvalues --    1.38358   1.38620   1.38922   1.39159   1.39246
 Alpha virt. eigenvalues --    1.39778   1.40084   1.40233   1.40673   1.41101
 Alpha virt. eigenvalues --    1.41167   1.41470   1.41840   1.42280   1.42674
 Alpha virt. eigenvalues --    1.42830   1.43370   1.43432   1.43619   1.43905
 Alpha virt. eigenvalues --    1.44347   1.44475   1.44807   1.44906   1.45195
 Alpha virt. eigenvalues --    1.45399   1.45557   1.45998   1.46234   1.46427
 Alpha virt. eigenvalues --    1.46822   1.47110   1.47257   1.47424   1.47777
 Alpha virt. eigenvalues --    1.47926   1.48521   1.48712   1.48828   1.49027
 Alpha virt. eigenvalues --    1.49425   1.49622   1.49938   1.50100   1.50685
 Alpha virt. eigenvalues --    1.50702   1.51018   1.51118   1.51370   1.51613
 Alpha virt. eigenvalues --    1.51855   1.52162   1.52298   1.52477   1.52764
 Alpha virt. eigenvalues --    1.52851   1.53221   1.53273   1.53578   1.53766
 Alpha virt. eigenvalues --    1.53979   1.54449   1.54506   1.54878   1.55106
 Alpha virt. eigenvalues --    1.55367   1.55496   1.55835   1.56019   1.56110
 Alpha virt. eigenvalues --    1.56226   1.56708   1.57034   1.57223   1.57708
 Alpha virt. eigenvalues --    1.57999   1.58197   1.58558   1.58786   1.58899
 Alpha virt. eigenvalues --    1.59198   1.59395   1.59564   1.60049   1.60251
 Alpha virt. eigenvalues --    1.60419   1.60702   1.61056   1.61268   1.61535
 Alpha virt. eigenvalues --    1.61835   1.62087   1.62298   1.62721   1.63081
 Alpha virt. eigenvalues --    1.63142   1.63643   1.63902   1.64162   1.64502
 Alpha virt. eigenvalues --    1.64679   1.64742   1.65083   1.65233   1.65835
 Alpha virt. eigenvalues --    1.66164   1.66217   1.66793   1.67058   1.67138
 Alpha virt. eigenvalues --    1.67856   1.68042   1.68414   1.68732   1.69326
 Alpha virt. eigenvalues --    1.69584   1.69816   1.70060   1.70399   1.70793
 Alpha virt. eigenvalues --    1.71330   1.71742   1.72389   1.72458   1.72805
 Alpha virt. eigenvalues --    1.73581   1.73903   1.74278   1.74899   1.75090
 Alpha virt. eigenvalues --    1.75122   1.75445   1.76232   1.76499   1.77093
 Alpha virt. eigenvalues --    1.77180   1.77374   1.77526   1.78250   1.78521
 Alpha virt. eigenvalues --    1.78809   1.79151   1.79265   1.79464   1.79871
 Alpha virt. eigenvalues --    1.79997   1.80466   1.80756   1.81040   1.81428
 Alpha virt. eigenvalues --    1.81849   1.82042   1.82618   1.82752   1.83387
 Alpha virt. eigenvalues --    1.83574   1.84062   1.84386   1.84560   1.84802
 Alpha virt. eigenvalues --    1.85137   1.85438   1.85968   1.86139   1.86391
 Alpha virt. eigenvalues --    1.86892   1.87022   1.87646   1.87869   1.87955
 Alpha virt. eigenvalues --    1.88502   1.89140   1.89241   1.89713   1.89853
 Alpha virt. eigenvalues --    1.90410   1.90497   1.90769   1.91246   1.91617
 Alpha virt. eigenvalues --    1.91808   1.92478   1.92534   1.92868   1.93010
 Alpha virt. eigenvalues --    1.93189   1.93478   1.93796   1.94102   1.94500
 Alpha virt. eigenvalues --    1.94796   1.94819   1.95514   1.95612   1.96016
 Alpha virt. eigenvalues --    1.96690   1.96867   1.97244   1.97735   1.97940
 Alpha virt. eigenvalues --    1.98410   1.98749   1.98955   1.99750   1.99943
 Alpha virt. eigenvalues --    2.00453   2.00812   2.01129   2.01452   2.01900
 Alpha virt. eigenvalues --    2.02151   2.02765   2.03161   2.03320   2.03647
 Alpha virt. eigenvalues --    2.03815   2.04244   2.04587   2.05107   2.05304
 Alpha virt. eigenvalues --    2.05835   2.06007   2.06356   2.06666   2.06848
 Alpha virt. eigenvalues --    2.07267   2.07428   2.07720   2.08028   2.08139
 Alpha virt. eigenvalues --    2.08387   2.08800   2.08884   2.09780   2.09998
 Alpha virt. eigenvalues --    2.10159   2.10408   2.11244   2.11357   2.11877
 Alpha virt. eigenvalues --    2.12274   2.12609   2.12915   2.13117   2.13227
 Alpha virt. eigenvalues --    2.13901   2.14245   2.14734   2.15202   2.15748
 Alpha virt. eigenvalues --    2.16302   2.16431   2.16704   2.16811   2.17145
 Alpha virt. eigenvalues --    2.17378   2.18060   2.18454   2.18571   2.19006
 Alpha virt. eigenvalues --    2.19383   2.19881   2.20185   2.20389   2.21008
 Alpha virt. eigenvalues --    2.21253   2.21936   2.22119   2.22487   2.22733
 Alpha virt. eigenvalues --    2.23173   2.23256   2.23678   2.23748   2.24278
 Alpha virt. eigenvalues --    2.24646   2.25221   2.25736   2.25843   2.26484
 Alpha virt. eigenvalues --    2.26715   2.27065   2.27170   2.27447   2.27914
 Alpha virt. eigenvalues --    2.28153   2.28287   2.28542   2.29063   2.29487
 Alpha virt. eigenvalues --    2.29922   2.30220   2.30453   2.30656   2.31141
 Alpha virt. eigenvalues --    2.31181   2.31501   2.31690   2.31874   2.32091
 Alpha virt. eigenvalues --    2.32175   2.32535   2.32762   2.33378   2.33833
 Alpha virt. eigenvalues --    2.34095   2.34735   2.34953   2.35554   2.36067
 Alpha virt. eigenvalues --    2.36179   2.36443   2.37359   2.37532   2.37959
 Alpha virt. eigenvalues --    2.38277   2.38796   2.39022   2.39212   2.39391
 Alpha virt. eigenvalues --    2.40241   2.40513   2.40869   2.41031   2.41564
 Alpha virt. eigenvalues --    2.42160   2.42196   2.42707   2.43114   2.43279
 Alpha virt. eigenvalues --    2.43609   2.44170   2.44506   2.44963   2.45275
 Alpha virt. eigenvalues --    2.45393   2.45661   2.45931   2.46595   2.46736
 Alpha virt. eigenvalues --    2.47120   2.47387   2.47815   2.48111   2.48461
 Alpha virt. eigenvalues --    2.49111   2.49338   2.49689   2.49828   2.50051
 Alpha virt. eigenvalues --    2.50369   2.50634   2.50715   2.50975   2.51172
 Alpha virt. eigenvalues --    2.51746   2.51917   2.52099   2.52269   2.52741
 Alpha virt. eigenvalues --    2.52957   2.53367   2.53569   2.53957   2.54157
 Alpha virt. eigenvalues --    2.54470   2.54609   2.54954   2.55317   2.55665
 Alpha virt. eigenvalues --    2.56117   2.56287   2.56505   2.56719   2.56992
 Alpha virt. eigenvalues --    2.57545   2.57691   2.57852   2.58048   2.58220
 Alpha virt. eigenvalues --    2.58601   2.59352   2.59548   2.59863   2.60066
 Alpha virt. eigenvalues --    2.60388   2.60495   2.60919   2.61218   2.62196
 Alpha virt. eigenvalues --    2.62478   2.62882   2.63103   2.63156   2.63673
 Alpha virt. eigenvalues --    2.64019   2.64222   2.64552   2.64821   2.65024
 Alpha virt. eigenvalues --    2.65555   2.65738   2.66003   2.66590   2.66879
 Alpha virt. eigenvalues --    2.67112   2.67341   2.67972   2.68070   2.68557
 Alpha virt. eigenvalues --    2.68749   2.68977   2.69268   2.69592   2.69735
 Alpha virt. eigenvalues --    2.70151   2.70344   2.70580   2.70876   2.71074
 Alpha virt. eigenvalues --    2.71378   2.71572   2.72090   2.72433   2.72708
 Alpha virt. eigenvalues --    2.73494   2.73714   2.73738   2.74094   2.74360
 Alpha virt. eigenvalues --    2.74746   2.75155   2.75286   2.75583   2.75877
 Alpha virt. eigenvalues --    2.76016   2.76475   2.76798   2.77064   2.77550
 Alpha virt. eigenvalues --    2.77803   2.78122   2.78502   2.78975   2.79218
 Alpha virt. eigenvalues --    2.79504   2.79625   2.80067   2.80784   2.80945
 Alpha virt. eigenvalues --    2.81313   2.81525   2.82218   2.82453   2.82976
 Alpha virt. eigenvalues --    2.83374   2.83641   2.83795   2.83918   2.84500
 Alpha virt. eigenvalues --    2.85009   2.85205   2.85468   2.85665   2.85882
 Alpha virt. eigenvalues --    2.86211   2.86421   2.86712   2.87066   2.87704
 Alpha virt. eigenvalues --    2.87906   2.88197   2.88332   2.88515   2.89180
 Alpha virt. eigenvalues --    2.89312   2.89619   2.89999   2.90366   2.90656
 Alpha virt. eigenvalues --    2.90824   2.90958   2.91250   2.91492   2.91927
 Alpha virt. eigenvalues --    2.92665   2.93024   2.93076   2.93270   2.93869
 Alpha virt. eigenvalues --    2.94028   2.94308   2.94877   2.94959   2.95193
 Alpha virt. eigenvalues --    2.95330   2.95776   2.96094   2.96255   2.96593
 Alpha virt. eigenvalues --    2.96767   2.97256   2.97715   2.98077   2.98223
 Alpha virt. eigenvalues --    2.98471   2.98606   2.98787   2.99016   2.99625
 Alpha virt. eigenvalues --    2.99706   2.99849   2.99896   3.00371   3.00751
 Alpha virt. eigenvalues --    3.00822   3.01080   3.01549   3.01833   3.02265
 Alpha virt. eigenvalues --    3.02551   3.02827   3.03197   3.03452   3.03577
 Alpha virt. eigenvalues --    3.04079   3.04379   3.04614   3.04753   3.04905
 Alpha virt. eigenvalues --    3.05327   3.05727   3.05843   3.06065   3.06574
 Alpha virt. eigenvalues --    3.06770   3.07111   3.07594   3.07786   3.08082
 Alpha virt. eigenvalues --    3.08098   3.08230   3.08698   3.08823   3.09421
 Alpha virt. eigenvalues --    3.09496   3.09763   3.10177   3.10749   3.10786
 Alpha virt. eigenvalues --    3.10934   3.11159   3.11341   3.11731   3.12052
 Alpha virt. eigenvalues --    3.12330   3.12450   3.12913   3.13070   3.13421
 Alpha virt. eigenvalues --    3.13697   3.13832   3.14092   3.14285   3.14625
 Alpha virt. eigenvalues --    3.14952   3.15062   3.15281   3.15649   3.15722
 Alpha virt. eigenvalues --    3.15918   3.16195   3.16309   3.16712   3.17001
 Alpha virt. eigenvalues --    3.17217   3.17370   3.17513   3.17780   3.17931
 Alpha virt. eigenvalues --    3.17978   3.18297   3.18618   3.19025   3.19169
 Alpha virt. eigenvalues --    3.19608   3.19842   3.20203   3.20322   3.20650
 Alpha virt. eigenvalues --    3.21045   3.21208   3.21450   3.21538   3.22055
 Alpha virt. eigenvalues --    3.22346   3.22546   3.22907   3.23167   3.23423
 Alpha virt. eigenvalues --    3.23921   3.24052   3.24139   3.24491   3.24598
 Alpha virt. eigenvalues --    3.25047   3.25059   3.25687   3.25732   3.26063
 Alpha virt. eigenvalues --    3.26200   3.26425   3.26618   3.26704   3.27147
 Alpha virt. eigenvalues --    3.27429   3.27547   3.27584   3.27816   3.27994
 Alpha virt. eigenvalues --    3.28325   3.28578   3.28778   3.28853   3.29184
 Alpha virt. eigenvalues --    3.29506   3.29812   3.30127   3.30722   3.31041
 Alpha virt. eigenvalues --    3.31095   3.31191   3.31376   3.31581   3.32008
 Alpha virt. eigenvalues --    3.32281   3.32367   3.32599   3.32860   3.33060
 Alpha virt. eigenvalues --    3.33385   3.33512   3.33829   3.34434   3.34590
 Alpha virt. eigenvalues --    3.34814   3.35025   3.35583   3.35688   3.35814
 Alpha virt. eigenvalues --    3.36140   3.36583   3.36816   3.37185   3.37315
 Alpha virt. eigenvalues --    3.37731   3.37952   3.38248   3.38624   3.38720
 Alpha virt. eigenvalues --    3.39423   3.39519   3.39812   3.40130   3.40388
 Alpha virt. eigenvalues --    3.40705   3.40968   3.41220   3.41559   3.42002
 Alpha virt. eigenvalues --    3.42175   3.42587   3.42612   3.42894   3.43080
 Alpha virt. eigenvalues --    3.43674   3.43698   3.43988   3.44118   3.44820
 Alpha virt. eigenvalues --    3.45215   3.45616   3.45662   3.46028   3.46206
 Alpha virt. eigenvalues --    3.46482   3.47150   3.47492   3.47650   3.48126
 Alpha virt. eigenvalues --    3.48290   3.48984   3.49578   3.49780   3.50054
 Alpha virt. eigenvalues --    3.50205   3.50385   3.50736   3.50828   3.51284
 Alpha virt. eigenvalues --    3.51725   3.52070   3.52268   3.52876   3.52986
 Alpha virt. eigenvalues --    3.53340   3.53752   3.53847   3.54149   3.54521
 Alpha virt. eigenvalues --    3.54989   3.55337   3.55597   3.56038   3.56488
 Alpha virt. eigenvalues --    3.56722   3.57231   3.57570   3.58227   3.58554
 Alpha virt. eigenvalues --    3.58733   3.59491   3.59738   3.60131   3.60389
 Alpha virt. eigenvalues --    3.60702   3.61241   3.61351   3.61871   3.62224
 Alpha virt. eigenvalues --    3.62392   3.62624   3.63313   3.63542   3.63756
 Alpha virt. eigenvalues --    3.64435   3.64759   3.64974   3.65185   3.65580
 Alpha virt. eigenvalues --    3.65755   3.65940   3.66494   3.66963   3.67227
 Alpha virt. eigenvalues --    3.67594   3.68327   3.68825   3.69469   3.69744
 Alpha virt. eigenvalues --    3.69852   3.70093   3.71125   3.71240   3.71569
 Alpha virt. eigenvalues --    3.71924   3.72736   3.73125   3.73484   3.73843
 Alpha virt. eigenvalues --    3.74362   3.74477   3.74989   3.75014   3.75931
 Alpha virt. eigenvalues --    3.76392   3.76611   3.77335   3.77560   3.77631
 Alpha virt. eigenvalues --    3.78020   3.78960   3.79229   3.79712   3.80172
 Alpha virt. eigenvalues --    3.80546   3.80870   3.81175   3.81724   3.82436
 Alpha virt. eigenvalues --    3.82691   3.83016   3.83374   3.84001   3.84538
 Alpha virt. eigenvalues --    3.85094   3.85402   3.85575   3.86197   3.86788
 Alpha virt. eigenvalues --    3.86996   3.87244   3.87938   3.88604   3.88923
 Alpha virt. eigenvalues --    3.89205   3.89983   3.90287   3.90506   3.91055
 Alpha virt. eigenvalues --    3.91790   3.92201   3.92596   3.93412   3.93795
 Alpha virt. eigenvalues --    3.94098   3.94274   3.95633   3.95755   3.96499
 Alpha virt. eigenvalues --    3.97484   3.97683   3.97971   3.98182   3.98735
 Alpha virt. eigenvalues --    3.99098   4.00569   4.00690   4.01093   4.01936
 Alpha virt. eigenvalues --    4.02401   4.03012   4.03051   4.03363   4.04176
 Alpha virt. eigenvalues --    4.04434   4.05404   4.05886   4.06842   4.07194
 Alpha virt. eigenvalues --    4.07572   4.08102   4.08610   4.09118   4.09349
 Alpha virt. eigenvalues --    4.09719   4.10449   4.11317   4.11682   4.12086
 Alpha virt. eigenvalues --    4.12976   4.13216   4.13526   4.14426   4.14691
 Alpha virt. eigenvalues --    4.15117   4.15346   4.15844   4.16027   4.16367
 Alpha virt. eigenvalues --    4.16970   4.17098   4.17109   4.17972   4.18625
 Alpha virt. eigenvalues --    4.18832   4.19305   4.19605   4.20246   4.21272
 Alpha virt. eigenvalues --    4.22032   4.22084   4.23123   4.23792   4.24328
 Alpha virt. eigenvalues --    4.24915   4.25240   4.25497   4.26105   4.26656
 Alpha virt. eigenvalues --    4.27047   4.27330   4.27866   4.28190   4.28539
 Alpha virt. eigenvalues --    4.28699   4.29352   4.29815   4.30448   4.30746
 Alpha virt. eigenvalues --    4.31416   4.32168   4.32944   4.33287   4.33357
 Alpha virt. eigenvalues --    4.33874   4.34472   4.34926   4.35217   4.35439
 Alpha virt. eigenvalues --    4.36613   4.37050   4.37217   4.37712   4.37822
 Alpha virt. eigenvalues --    4.38348   4.38817   4.39244   4.39528   4.40136
 Alpha virt. eigenvalues --    4.40453   4.41598   4.42461   4.42816   4.43730
 Alpha virt. eigenvalues --    4.44059   4.45084   4.45435   4.45895   4.46468
 Alpha virt. eigenvalues --    4.47573   4.47804   4.48134   4.48614   4.49433
 Alpha virt. eigenvalues --    4.49818   4.50122   4.51206   4.51720   4.52792
 Alpha virt. eigenvalues --    4.53082   4.53322   4.54245   4.54676   4.55490
 Alpha virt. eigenvalues --    4.56236   4.57202   4.57732   4.58304   4.60091
 Alpha virt. eigenvalues --    4.60234   4.60522   4.61401   4.61523   4.62462
 Alpha virt. eigenvalues --    4.62891   4.63138   4.63810   4.64840   4.65262
 Alpha virt. eigenvalues --    4.66151   4.66728   4.67414   4.67869   4.68185
 Alpha virt. eigenvalues --    4.68804   4.69299   4.69945   4.70789   4.71099
 Alpha virt. eigenvalues --    4.71390   4.72365   4.72850   4.73214   4.73927
 Alpha virt. eigenvalues --    4.74516   4.75068   4.76130   4.76385   4.77079
 Alpha virt. eigenvalues --    4.77881   4.78936   4.79466   4.80345   4.80933
 Alpha virt. eigenvalues --    4.81523   4.81844   4.82547   4.83443   4.83953
 Alpha virt. eigenvalues --    4.84379   4.84908   4.85720   4.86454   4.86708
 Alpha virt. eigenvalues --    4.87562   4.88346   4.88619   4.89273   4.90759
 Alpha virt. eigenvalues --    4.91641   4.92179   4.92381   4.93143   4.93798
 Alpha virt. eigenvalues --    4.94602   4.94954   4.95378   4.96952   4.97440
 Alpha virt. eigenvalues --    4.98947   5.00065   5.01167   5.02206   5.02487
 Alpha virt. eigenvalues --    5.04088   5.06337   5.07674   5.08085   5.08628
 Alpha virt. eigenvalues --    5.09499   5.10019   5.10906   5.11578   5.12495
 Alpha virt. eigenvalues --    5.13790   5.14350   5.14609   5.14784   5.15313
 Alpha virt. eigenvalues --    5.16322   5.16609   5.17698   5.18246   5.18820
 Alpha virt. eigenvalues --    5.19940   5.21179   5.22610   5.23989   5.24430
 Alpha virt. eigenvalues --    5.25042   5.26134   5.27192   5.28418   5.29342
 Alpha virt. eigenvalues --    5.29746   5.30942   5.33014   5.33283   5.34229
 Alpha virt. eigenvalues --    5.34410   5.35383   5.36253   5.38200   5.39161
 Alpha virt. eigenvalues --    5.40496   5.41356   5.42437   5.43016   5.45580
 Alpha virt. eigenvalues --    5.46176   5.47327   5.48024   5.48895   5.50564
 Alpha virt. eigenvalues --    5.50819   5.51838   5.52690   5.53392   5.54194
 Alpha virt. eigenvalues --    5.55108   5.55161   5.57255   5.59131   5.60840
 Alpha virt. eigenvalues --    5.61201   5.61570   5.64111   5.66961   5.69333
 Alpha virt. eigenvalues --    5.69537   5.73109   5.73779   5.77802   5.78170
 Alpha virt. eigenvalues --    5.84785   5.86697   5.87832   5.88777   5.89495
 Alpha virt. eigenvalues --    5.90504   5.91762   5.92420   5.93721   5.95625
 Alpha virt. eigenvalues --    5.96514   5.97660   5.99322   6.01231   6.01661
 Alpha virt. eigenvalues --    6.01760   6.03377   6.06937   6.08984   6.11130
 Alpha virt. eigenvalues --    6.12686   6.13538   6.16763   6.21128   6.22496
 Alpha virt. eigenvalues --    6.23753   6.26297   6.28500   6.29798   6.33299
 Alpha virt. eigenvalues --    6.36641   6.38775   6.42747   6.43429   6.47300
 Alpha virt. eigenvalues --    6.59494   6.60418   6.66787   6.70005   6.75725
 Alpha virt. eigenvalues --    6.77766   6.79886   6.87628   6.91224   6.95352
 Alpha virt. eigenvalues --    7.02010   7.06134   7.06579   7.07578   7.27383
 Alpha virt. eigenvalues --    7.28925   9.16621   9.41069   9.56477  20.21200
 Alpha virt. eigenvalues --   22.22469  22.37625  22.42949  22.43717  22.44470
 Alpha virt. eigenvalues --   22.45201  22.47265  22.50475  22.51679  22.54476
 Alpha virt. eigenvalues --   22.55913  22.58391  22.62367  22.64555  22.70968
 Alpha virt. eigenvalues --   22.72743  22.84910  22.85955  22.88297  22.91536
 Alpha virt. eigenvalues --   22.93343  22.95743  23.00807  23.03578  23.04850
 Alpha virt. eigenvalues --   23.10944  23.13825  23.18787  23.21510  23.22650
 Alpha virt. eigenvalues --   23.26053  23.35262  23.36303  23.38131  23.45453
 Alpha virt. eigenvalues --   23.47224  23.55998  23.59706  23.66063  23.69206
 Alpha virt. eigenvalues --   23.77039  32.37671  32.70713  32.87146  32.95987
 Alpha virt. eigenvalues --   32.98447  33.05830  43.85337  43.86741  43.87521
 Alpha virt. eigenvalues --   43.89923
  Beta  occ. eigenvalues -- -256.50573 -89.13919 -30.26976 -26.09976 -26.09812
  Beta  occ. eigenvalues --  -26.09176 -19.34702 -19.33470 -19.24680 -19.23936
  Beta  occ. eigenvalues --  -14.55531 -14.51548 -14.48997 -14.48692 -14.48628
  Beta  occ. eigenvalues --  -14.48615 -10.43056 -10.41927 -10.39488 -10.36743
  Beta  occ. eigenvalues --  -10.35712 -10.35632 -10.35557 -10.35360 -10.35201
  Beta  occ. eigenvalues --  -10.35143 -10.35058 -10.35011 -10.34413 -10.34195
  Beta  occ. eigenvalues --  -10.33973 -10.33431 -10.33198 -10.32620 -10.32540
  Beta  occ. eigenvalues --  -10.32225 -10.32159 -10.32130 -10.32115 -10.31986
  Beta  occ. eigenvalues --  -10.31980 -10.31977 -10.31923 -10.31833 -10.31783
  Beta  occ. eigenvalues --  -10.31762 -10.31749 -10.31718 -10.31464 -10.30726
  Beta  occ. eigenvalues --  -10.30383 -10.30191 -10.29978 -10.29372 -10.29322
  Beta  occ. eigenvalues --  -10.29289 -10.26847  -8.11859  -6.05460  -6.05218
  Beta  occ. eigenvalues --   -6.04751  -3.59288  -2.34573  -2.34473  -2.34076
  Beta  occ. eigenvalues --   -1.24769  -1.24461  -1.17589  -1.09108  -1.08877
  Beta  occ. eigenvalues --   -1.08034  -1.07982  -1.07655  -1.06310  -1.02317
  Beta  occ. eigenvalues --   -0.95673  -0.95051  -0.93753  -0.93351  -0.92842
  Beta  occ. eigenvalues --   -0.92226  -0.91712  -0.91588  -0.91532  -0.88798
  Beta  occ. eigenvalues --   -0.88402  -0.87670  -0.87237  -0.86797  -0.86220
  Beta  occ. eigenvalues --   -0.84118  -0.82845  -0.81983  -0.81703  -0.80866
  Beta  occ. eigenvalues --   -0.79300  -0.78540  -0.77910  -0.77562  -0.76648
  Beta  occ. eigenvalues --   -0.75997  -0.75822  -0.73757  -0.73586  -0.73106
  Beta  occ. eigenvalues --   -0.72044  -0.70463  -0.69995  -0.69914  -0.69057
  Beta  occ. eigenvalues --   -0.67424  -0.66180  -0.65294  -0.64712  -0.63831
  Beta  occ. eigenvalues --   -0.62778  -0.62435  -0.62001  -0.60392  -0.60185
  Beta  occ. eigenvalues --   -0.59947  -0.59737  -0.59480  -0.58913  -0.58783
  Beta  occ. eigenvalues --   -0.58616  -0.58452  -0.58000  -0.57612  -0.56944
  Beta  occ. eigenvalues --   -0.56760  -0.56454  -0.56128  -0.55820  -0.55321
  Beta  occ. eigenvalues --   -0.55184  -0.54862  -0.54757  -0.54565  -0.54457
  Beta  occ. eigenvalues --   -0.54023  -0.53865  -0.53772  -0.53465  -0.53167
  Beta  occ. eigenvalues --   -0.52992  -0.52838  -0.52656  -0.52193  -0.52093
  Beta  occ. eigenvalues --   -0.51907  -0.51368  -0.51201  -0.50948  -0.50753
  Beta  occ. eigenvalues --   -0.50334  -0.50279  -0.50029  -0.49812  -0.49576
  Beta  occ. eigenvalues --   -0.49028  -0.48678  -0.48619  -0.48339  -0.47901
  Beta  occ. eigenvalues --   -0.47608  -0.47474  -0.47174  -0.47030  -0.46956
  Beta  occ. eigenvalues --   -0.46714  -0.46552  -0.46179  -0.46052  -0.45775
  Beta  occ. eigenvalues --   -0.45512  -0.44354  -0.44266  -0.44041  -0.43769
  Beta  occ. eigenvalues --   -0.43607  -0.43454  -0.43083  -0.42466  -0.42225
  Beta  occ. eigenvalues --   -0.41584  -0.40898  -0.39858  -0.39071  -0.39032
  Beta  occ. eigenvalues --   -0.38886  -0.38810  -0.37212  -0.37051  -0.36266
  Beta  occ. eigenvalues --   -0.35301  -0.34939  -0.34586  -0.33903  -0.33462
  Beta  occ. eigenvalues --   -0.33205  -0.31961  -0.30165  -0.29606
  Beta virt. eigenvalues --   -0.19654  -0.17785  -0.15859  -0.13857  -0.11397
  Beta virt. eigenvalues --   -0.10860  -0.08428  -0.08234  -0.06936  -0.06822
  Beta virt. eigenvalues --   -0.06446  -0.06072  -0.05797  -0.05539  -0.05482
  Beta virt. eigenvalues --   -0.04867  -0.04266  -0.03615  -0.03436  -0.03122
  Beta virt. eigenvalues --   -0.02960  -0.02634  -0.02356  -0.02003  -0.01921
  Beta virt. eigenvalues --   -0.01773  -0.01193  -0.01148  -0.00873  -0.00422
  Beta virt. eigenvalues --   -0.00245  -0.00067   0.00058   0.00371   0.00983
  Beta virt. eigenvalues --    0.01034   0.01308   0.01728   0.02270   0.02643
  Beta virt. eigenvalues --    0.02813   0.02949   0.03100   0.03427   0.03671
  Beta virt. eigenvalues --    0.03826   0.03851   0.04111   0.04252   0.04355
  Beta virt. eigenvalues --    0.04500   0.04716   0.04744   0.04894   0.05162
  Beta virt. eigenvalues --    0.05447   0.05554   0.05682   0.05883   0.06060
  Beta virt. eigenvalues --    0.06123   0.06387   0.06614   0.06731   0.06866
  Beta virt. eigenvalues --    0.07122   0.07414   0.07592   0.07684   0.07817
  Beta virt. eigenvalues --    0.08072   0.08389   0.08668   0.08776   0.09063
  Beta virt. eigenvalues --    0.09353   0.09644   0.09862   0.09881   0.10099
  Beta virt. eigenvalues --    0.10357   0.10504   0.10871   0.10944   0.11428
  Beta virt. eigenvalues --    0.11500   0.11668   0.11897   0.12192   0.12370
  Beta virt. eigenvalues --    0.12545   0.12593   0.12740   0.13050   0.13170
  Beta virt. eigenvalues --    0.13423   0.13657   0.13731   0.13940   0.14081
  Beta virt. eigenvalues --    0.14454   0.14597   0.14966   0.15118   0.15277
  Beta virt. eigenvalues --    0.15375   0.15422   0.15832   0.15967   0.16227
  Beta virt. eigenvalues --    0.16478   0.16618   0.16922   0.17062   0.17142
  Beta virt. eigenvalues --    0.17319   0.17433   0.17827   0.18043   0.18117
  Beta virt. eigenvalues --    0.18300   0.18597   0.18672   0.18728   0.18984
  Beta virt. eigenvalues --    0.19004   0.19604   0.19720   0.19925   0.20205
  Beta virt. eigenvalues --    0.20358   0.20673   0.21182   0.21456   0.21689
  Beta virt. eigenvalues --    0.21979   0.22077   0.22356   0.22524   0.22890
  Beta virt. eigenvalues --    0.22962   0.23088   0.23344   0.23536   0.23743
  Beta virt. eigenvalues --    0.24101   0.24278   0.24651   0.24737   0.24917
  Beta virt. eigenvalues --    0.25274   0.25538   0.25799   0.25880   0.26118
  Beta virt. eigenvalues --    0.26181   0.26492   0.26775   0.27042   0.27238
  Beta virt. eigenvalues --    0.27433   0.27563   0.28005   0.28240   0.28595
  Beta virt. eigenvalues --    0.28671   0.28871   0.28998   0.29207   0.29409
  Beta virt. eigenvalues --    0.29647   0.29848   0.29942   0.30234   0.30499
  Beta virt. eigenvalues --    0.30654   0.30936   0.31040   0.31453   0.31509
  Beta virt. eigenvalues --    0.31714   0.31879   0.31989   0.32138   0.32433
  Beta virt. eigenvalues --    0.32583   0.32691   0.32841   0.33181   0.33261
  Beta virt. eigenvalues --    0.33368   0.33511   0.33661   0.33852   0.33954
  Beta virt. eigenvalues --    0.34218   0.34459   0.34645   0.34880   0.34988
  Beta virt. eigenvalues --    0.35327   0.35558   0.35698   0.35728   0.36074
  Beta virt. eigenvalues --    0.36393   0.36492   0.36672   0.36839   0.36985
  Beta virt. eigenvalues --    0.37126   0.37226   0.37407   0.37644   0.37954
  Beta virt. eigenvalues --    0.38060   0.38116   0.38206   0.38453   0.38600
  Beta virt. eigenvalues --    0.38822   0.38944   0.39436   0.39502   0.39644
  Beta virt. eigenvalues --    0.39855   0.40063   0.40238   0.40251   0.40511
  Beta virt. eigenvalues --    0.40608   0.40789   0.40907   0.40950   0.41014
  Beta virt. eigenvalues --    0.41356   0.41394   0.41592   0.41733   0.42011
  Beta virt. eigenvalues --    0.42060   0.42395   0.42461   0.42701   0.42769
  Beta virt. eigenvalues --    0.43143   0.43266   0.43340   0.43634   0.43744
  Beta virt. eigenvalues --    0.43886   0.44123   0.44231   0.44351   0.44408
  Beta virt. eigenvalues --    0.44556   0.44883   0.44991   0.45051   0.45177
  Beta virt. eigenvalues --    0.45392   0.45667   0.45920   0.46125   0.46321
  Beta virt. eigenvalues --    0.46514   0.46799   0.46963   0.47138   0.47504
  Beta virt. eigenvalues --    0.47547   0.47687   0.47891   0.48137   0.48402
  Beta virt. eigenvalues --    0.48693   0.48815   0.48825   0.49204   0.49393
  Beta virt. eigenvalues --    0.49528   0.49835   0.49943   0.50253   0.50623
  Beta virt. eigenvalues --    0.50818   0.51044   0.51340   0.51499   0.51591
  Beta virt. eigenvalues --    0.51825   0.52071   0.52145   0.52496   0.52768
  Beta virt. eigenvalues --    0.52870   0.53233   0.53563   0.53608   0.53936
  Beta virt. eigenvalues --    0.54287   0.54434   0.54710   0.54906   0.55184
  Beta virt. eigenvalues --    0.55562   0.55724   0.56099   0.56285   0.56587
  Beta virt. eigenvalues --    0.56809   0.56938   0.57310   0.57523   0.57713
[...]
  Beta virt. eigenvalues --    3.35553   3.35752   3.36024   3.36229   3.36391
  Beta virt. eigenvalues --    3.36769   3.36965   3.37363   3.37857   3.38099
  Beta virt. eigenvalues --    3.38396   3.38532   3.38713   3.38861   3.39126
  Beta virt. eigenvalues --    3.39462   3.39659   3.39767   3.39923   3.40362
  Beta virt. eigenvalues --    3.40533   3.40642   3.40859   3.41246   3.41874
  Beta virt. eigenvalues --    3.42061   3.42345   3.42570   3.42922   3.43064
  Beta virt. eigenvalues --    3.43348   3.43751   3.43957   3.44367   3.44586
  Beta virt. eigenvalues --    3.44895   3.45149   3.45376   3.45614   3.45964
  Beta virt. eigenvalues --    3.46138   3.46731   3.47036   3.47245   3.47567
  Beta virt. eigenvalues --    3.47835   3.48176   3.48224   3.48553   3.49013
  Beta virt. eigenvalues --    3.49335   3.49644   3.49942   3.50072   3.50259
  Beta virt. eigenvalues --    3.50526   3.51004   3.51178   3.51556   3.51601
  Beta virt. eigenvalues --    3.52328   3.52607   3.52931   3.53233   3.53336
  Beta virt. eigenvalues --    3.53698   3.53867   3.54498   3.54977   3.55157
  Beta virt. eigenvalues --    3.55625   3.55725   3.56323   3.57079   3.57129
  Beta virt. eigenvalues --    3.57507   3.57582   3.57801   3.58393   3.58490
  Beta virt. eigenvalues --    3.59003   3.59337   3.59446   3.59754   3.60583
  Beta virt. eigenvalues --    3.60695   3.60929   3.61201   3.61472   3.61757
  Beta virt. eigenvalues --    3.61948   3.62595   3.63021   3.63302   3.63727
  Beta virt. eigenvalues --    3.64246   3.64281   3.65031   3.65220   3.65777
  Beta virt. eigenvalues --    3.65889   3.66507   3.67142   3.67205   3.67709
  Beta virt. eigenvalues --    3.67974   3.68271   3.68829   3.69073   3.69332
  Beta virt. eigenvalues --    3.69687   3.69942   3.70132   3.70881   3.71115
  Beta virt. eigenvalues --    3.71331   3.72118   3.72596   3.72695   3.72865
  Beta virt. eigenvalues --    3.73300   3.73567   3.73635   3.74370   3.74576
  Beta virt. eigenvalues --    3.74751   3.75246   3.75712   3.76286   3.76950
  Beta virt. eigenvalues --    3.77202   3.77344   3.77492   3.78593   3.78713
  Beta virt. eigenvalues --    3.79012   3.79454   3.80255   3.80629   3.81057
  Beta virt. eigenvalues --    3.81407   3.81962   3.82211   3.82467   3.82619
  Beta virt. eigenvalues --    3.83487   3.83910   3.84358   3.84754   3.85151
  Beta virt. eigenvalues --    3.85239   3.85475   3.86603   3.87026   3.87264
  Beta virt. eigenvalues --    3.87788   3.88439   3.88551   3.89322   3.89535
  Beta virt. eigenvalues --    3.90245   3.90355   3.90875   3.91029   3.91409
  Beta virt. eigenvalues --    3.92279   3.92762   3.93020   3.93170   3.93941
  Beta virt. eigenvalues --    3.94425   3.94523   3.94959   3.95653   3.96080
  Beta virt. eigenvalues --    3.96526   3.96884   3.97299   3.97891   3.98230
  Beta virt. eigenvalues --    3.99035   3.99860   3.99933   4.00285   4.01125
  Beta virt. eigenvalues --    4.01473   4.01857   4.02344   4.03386   4.03414
  Beta virt. eigenvalues --    4.04177   4.04934   4.05251   4.05572   4.06290
  Beta virt. eigenvalues --    4.06850   4.07230   4.07792   4.08457   4.09417
  Beta virt. eigenvalues --    4.10264   4.10417   4.10744   4.11615   4.12108
  Beta virt. eigenvalues --    4.13030   4.13315   4.13841   4.13961   4.14556
  Beta virt. eigenvalues --    4.14831   4.15435   4.15924   4.16426   4.16709
  Beta virt. eigenvalues --    4.17042   4.17213   4.18117   4.18890   4.19320
  Beta virt. eigenvalues --    4.19741   4.20436   4.20656   4.20978   4.21919
  Beta virt. eigenvalues --    4.22615   4.22874   4.23309   4.23456   4.23690
  Beta virt. eigenvalues --    4.23943   4.24461   4.24909   4.24994   4.25437
  Beta virt. eigenvalues --    4.26617   4.26753   4.27240   4.27369   4.28496
  Beta virt. eigenvalues --    4.29138   4.29894   4.30149   4.31187   4.31607
  Beta virt. eigenvalues --    4.32230   4.32584   4.33094   4.33222   4.34020
  Beta virt. eigenvalues --    4.34312   4.34503   4.35008   4.35444   4.35781
  Beta virt. eigenvalues --    4.36014   4.36518   4.37274   4.37680   4.38008
  Beta virt. eigenvalues --    4.38625   4.39324   4.39654   4.40117   4.40491
  Beta virt. eigenvalues --    4.40995   4.41356   4.41958   4.42479   4.42789
  Beta virt. eigenvalues --    4.43177   4.43772   4.44363   4.44832   4.45161
  Beta virt. eigenvalues --    4.45567   4.45919   4.46050   4.46846   4.47513
  Beta virt. eigenvalues --    4.47694   4.48106   4.48313   4.50096   4.50352
  Beta virt. eigenvalues --    4.51164   4.51707   4.52529   4.53171   4.53660
  Beta virt. eigenvalues --    4.54092   4.54997   4.55245   4.55562   4.56032
  Beta virt. eigenvalues --    4.56787   4.57354   4.57898   4.58748   4.59311
  Beta virt. eigenvalues --    4.60318   4.60544   4.60757   4.61909   4.62410
  Beta virt. eigenvalues --    4.63028   4.64040   4.64729   4.65566   4.66027
  Beta virt. eigenvalues --    4.67644   4.67833   4.67981   4.68898   4.69598
  Beta virt. eigenvalues --    4.69921   4.70466   4.71098   4.71652   4.72142
  Beta virt. eigenvalues --    4.72666   4.73448   4.74291   4.74925   4.75431
  Beta virt. eigenvalues --    4.76068   4.76315   4.76738   4.77317   4.78050
  Beta virt. eigenvalues --    4.78468   4.79108   4.80025   4.80661   4.80915
  Beta virt. eigenvalues --    4.81852   4.82365   4.82772   4.83751   4.84118
  Beta virt. eigenvalues --    4.84865   4.85404   4.86410   4.87171   4.87918
  Beta virt. eigenvalues --    4.88564   4.88956   4.89523   4.90099   4.91100
  Beta virt. eigenvalues --    4.91459   4.91883   4.92481   4.93430   4.93941
  Beta virt. eigenvalues --    4.94214   4.95250   4.95865   4.95994   4.96793
  Beta virt. eigenvalues --    4.98543   4.99265   4.99711   4.99910   5.00648
  Beta virt. eigenvalues --    5.01366   5.02432   5.02617   5.03316   5.04526
  Beta virt. eigenvalues --    5.05162   5.06722   5.07735   5.09209   5.09866
  Beta virt. eigenvalues --    5.10109   5.11728   5.13909   5.14497   5.14985
  Beta virt. eigenvalues --    5.16066   5.16670   5.16937   5.17637   5.18853
  Beta virt. eigenvalues --    5.19509   5.19705   5.20359   5.20855   5.21931
  Beta virt. eigenvalues --    5.22529   5.22805   5.24154   5.25180   5.25365
  Beta virt. eigenvalues --    5.26155   5.27031   5.27478   5.29950   5.30709
  Beta virt. eigenvalues --    5.32080   5.32665   5.33782   5.34731   5.36144
  Beta virt. eigenvalues --    5.36813   5.37584   5.38694   5.40428   5.41218
  Beta virt. eigenvalues --    5.41475   5.41912   5.42524   5.43913   5.45835
  Beta virt. eigenvalues --    5.46662   5.47990   5.49051   5.50030   5.50758
  Beta virt. eigenvalues --    5.51825   5.53132   5.53624   5.55517   5.56726
  Beta virt. eigenvalues --    5.57469   5.58583   5.59333   5.60045   5.60334
  Beta virt. eigenvalues --    5.60794   5.61647   5.62283   5.65187   5.66039
  Beta virt. eigenvalues --    5.67437   5.68986   5.69347   5.72221   5.74436
  Beta virt. eigenvalues --    5.75301   5.76968   5.80588   5.81582   5.83806
  Beta virt. eigenvalues --    5.85526   5.92370   5.92938   5.94907   5.96177
  Beta virt. eigenvalues --    5.96613   5.97306   5.99197   5.99826   6.01044
  Beta virt. eigenvalues --    6.01860   6.04520   6.05232   6.06983   6.07341
  Beta virt. eigenvalues --    6.07551   6.09208   6.10890   6.14445   6.16809
  Beta virt. eigenvalues --    6.17428   6.19159   6.20156   6.24225   6.28564
  Beta virt. eigenvalues --    6.29367   6.30000   6.32118   6.34051   6.37226
  Beta virt. eigenvalues --    6.39522   6.42320   6.44596   6.48150   6.49238
  Beta virt. eigenvalues --    6.52680   6.65525   6.66395   6.72946   6.75915
  Beta virt. eigenvalues --    6.81340   6.82932   6.85563   6.93305   6.96912
  Beta virt. eigenvalues --    7.00843   7.07583   7.11477   7.12129   7.13177
  Beta virt. eigenvalues --    7.33721   7.34922   9.24210   9.48689   9.64127
  Beta virt. eigenvalues --   20.28830  22.29331  22.45618  22.50961  22.51699
  Beta virt. eigenvalues --   22.52103  22.52867  22.55091  22.58131  22.58911
  Beta virt. eigenvalues --   22.62032  22.63083  22.65513  22.69853  22.72053
  Beta virt. eigenvalues --   22.79272  22.79689  22.92270  22.93468  22.95768
  Beta virt. eigenvalues --   22.99026  23.00905  23.03279  23.09044  23.11150
  Beta virt. eigenvalues --   23.12683  23.18478  23.21420  23.26274  23.29800
  Beta virt. eigenvalues --   23.30196  23.33521  23.42117  23.43063  23.45406
  Beta virt. eigenvalues --   23.52770  23.54664  23.62531  23.66361  23.73529
  Beta virt. eigenvalues --   23.76635  23.84509  32.46555  32.78758  32.94607
  Beta virt. eigenvalues --   33.03451  33.05898  33.13347  43.91047  43.92737
  Beta virt. eigenvalues --   43.93160  43.95745
          Condensed to atoms (all electrons):
          Atomic-Atomic Spin Densities.
 Mulliken charges and spin densities:
               1          2
     1  C   -0.394218  -0.000338
     2  C    0.138556  -0.000142
     3  N   -0.188976   0.004052
     4  C   -0.219256   0.001872
     5  C    0.014634   0.016083
     6  N    0.064402  -0.045868
     7  C   -0.359865  -0.000145
     8  C   -0.163187   0.000283
     9  S    0.044703  -0.037323
    10  C   -0.356927   0.005504
    11  Fe  -0.342297   1.153227
    12  C   -0.705600  -0.005137
    13  C   -0.558137  -0.007282
    14  C   -0.485970  -0.002161
    15  C   -0.519088  -0.004374
    16  N    0.056938  -0.041424
    17  C    0.281472   0.008922
    18  C    0.008030  -0.001976
    19  C   -0.103360   0.012368
    20  C    0.323659   0.004484
    21  C   -0.438892  -0.000723
    22  C   -0.273960  -0.000798
    23  C   -0.166241   0.000076
    24  C    0.267899  -0.000011
    25  O   -0.325967  -0.000001
    26  O   -0.458238   0.000002
    27  N   -0.024630  -0.034698
    28  C    0.256617   0.002982
    29  C   -0.049847   0.009731
    30  C   -0.062315  -0.003755
    31  C    0.221345   0.007256
    32  C   -0.417108  -0.000749
    33  C   -0.151197  -0.000297
    34  C   -0.388745  -0.000090
    35  N    0.057269  -0.039581
    36  C    0.177167   0.006924
    37  C   -0.040409  -0.002893
    38  C    0.013244   0.010813
    39  C    0.261585   0.003375
    40  C   -0.407675  -0.000576
    41  C   -0.293792  -0.002416
    42  C   -0.304052   0.002865
    43  N   -0.016417  -0.035580
    44  C    0.302328   0.000728
    45  C   -0.077997   0.022213
    46  C    0.078627  -0.008692
    47  C    0.249546   0.007996
    48  C   -0.426605  -0.001455
    49  C   -0.325535  -0.000297
    50  C   -0.154333  -0.000228
    51  C    0.256501  -0.000068
    52  O   -0.429443  -0.000048
    53  O   -0.326910   0.000003
    54  H    0.163051   0.000045
    55  H    0.151901  -0.000075
    56  H    0.162605   0.000101
    57  H    0.181956  -0.000330
    58  H    0.202762  -0.000901
    59  H    0.148933  -0.000023
    60  H    0.101137   0.000507
    61  H    0.135663   0.000016
    62  H    0.166232  -0.001684
    63  H    0.139082  -0.000427
    64  H    0.173317  -0.000360
    65  H    0.181750  -0.002300
    66  H    0.159483  -0.000016
    67  H    0.158815   0.000162
    68  H    0.162604   0.000162
    69  H    0.158883   0.000090
    70  H    0.153291   0.000087
    71  H    0.146424  -0.000004
    72  H    0.160417   0.000384
    73  H    0.158888   0.000490
    74  H    0.145173  -0.000061
    75  H    0.135024   0.000019
    76  H    0.151220   0.000001
    77  H    0.152411  -0.000003
    78  H    0.153101  -0.000046
    79  H    0.156921   0.000399
    80  H    0.155213   0.000434
    81  H    0.125362  -0.000148
    82  H    0.126346  -0.000001
    83  H    0.133119  -0.000007
    84  H    0.158754  -0.000134
    85  H    0.155817   0.000029
    86  H    0.152084  -0.000010
    87  H    0.154613   0.000293
    88  H    0.169142  -0.000125
    89  H    0.162286  -0.000092
    90  H    0.151455   0.000012
    91  H    0.158504   0.000677
    92  H    0.167657   0.000976
    93  H    0.145171  -0.000127
    94  H    0.125368  -0.000091
    95  H    0.144246   0.000011
    96  H    0.152777  -0.000009
    97  H    0.383564  -0.000005
    98  H    0.378095  -0.000000
    99  H    0.285139  -0.000517
   100  H    0.124530   0.000006
   101  H    0.112382  -0.000042
 Sum of Mulliken charges =   1.00000   1.00000
 Mulliken charges and spin densities with hydrogens summed into heavy atoms:
               1          2
     1  C    0.083338  -0.000266
     2  C    0.138556  -0.000142
     3  N    0.096163   0.003535
     4  C   -0.037300   0.001542
     5  C    0.217396   0.015182
     6  N    0.064402  -0.045868
     7  C    0.025868   0.000356
     8  C    0.142127  -0.001828
     9  S    0.044703  -0.037323
    10  C    0.157623   0.002828
    11  Fe  -0.342297   1.153227
    12  C   -0.546785  -0.004975
    13  C   -0.395534  -0.007120
    14  C   -0.327088  -0.002071
    15  C   -0.365797  -0.004287
    16  N    0.056938  -0.041424
    17  C    0.281472   0.008922
    18  C    0.008030  -0.001976
    19  C   -0.103360   0.012368
    20  C    0.323659   0.004484
    21  C    0.026837   0.000148
    22  C    0.006238  -0.000840
    23  C    0.137390   0.000075
    24  C    0.267899  -0.000011
    25  O    0.052128  -0.000002
    26  O   -0.458238   0.000002
    27  N   -0.024630  -0.034698
    28  C    0.256617   0.002982
    29  C   -0.049847   0.009731
    30  C   -0.062315  -0.003755
    31  C    0.221345   0.007256
    32  C    0.048126   0.000039
    33  C    0.086547  -0.000488
    34  C   -0.004751  -0.000092
    35  N    0.057269  -0.039581
    36  C    0.177167   0.006924
    37  C   -0.040409  -0.002893
    38  C    0.013244   0.010813
    39  C    0.261585   0.003375
    40  C    0.058980  -0.000692
    41  C   -0.139178  -0.002122
    42  C    0.027376   0.002648
    43  N   -0.016417  -0.035580
    44  C    0.302328   0.000728
    45  C   -0.077997   0.022213
    46  C    0.078627  -0.008692
    47  C    0.249546   0.007996
    48  C    0.051012   0.000210
    49  C   -0.054996  -0.000515
    50  C    0.142689  -0.000226
    51  C    0.256501  -0.000068
    52  O   -0.429443  -0.000048
    53  O    0.056654  -0.000002
 Electronic spatial extent (au):  <R**2>=          33886.8740
 Charge=              1.0000 electrons
 Dipole moment (field-independent basis, Debye):
    X=              4.0734    Y=             -3.1097    Z=              3.2937  Tot=              6.0919
 Quadrupole moment (field-independent basis, Debye-Ang):
   XX=           -251.2406   YY=           -276.0980   ZZ=           -289.2761
   XY=             -0.7661   XZ=             -0.7607   YZ=             22.6701
 Traceless Quadrupole moment (field-independent basis, Debye-Ang):
   XX=             20.9643   YY=             -3.8931   ZZ=            -17.0712
   XY=             -0.7661   XZ=             -0.7607   YZ=             22.6701
 Octapole moment (field-independent basis, Debye-Ang**2):
  XXX=            -95.0709  YYY=             -9.4581  ZZZ=            150.4865  XYY=             77.5477
  XXY=            -69.3312  XXZ=             -7.5188  XZZ=            179.9768  YZZ=            -35.7989
  YYZ=              6.4680  XYZ=           -161.3716
 Hexadecapole moment (field-independent basis, Debye-Ang**3):
 XXXX=         -19637.1823 YYYY=         -13307.6431 ZZZZ=          -5019.0253 XXXY=            313.3790
 XXXZ=           -215.7791 YYYX=            192.5778 YYYZ=            546.8926 ZZZX=            111.4556
 ZZZY=           -136.2494 XXYY=          -6201.4482 XXZZ=          -6055.0082 YYZZ=          -3643.8001
 XXYZ=           1033.2120 YYXZ=             82.1736 ZZXY=           -101.3869
 N-N= 8.968471067191D+03 E-N=-2.702089394321D+04  KE= 3.868577562455D+03
 1\1\GINC-NODE536\SP\UPBE1PBE\def2TZVP\C41H48Fe1N6O4S1(1+,2)\KLEICH\20-
 Sep-2022\0\\# PBE1PBE/def2TZVP empiricaldispersion=GD3BJ int=(grid=ult
 rafine) geom=check guess=read scrf=(smd,solvent=Chloroform)\\2v07_III_
 D_solv\\1,2\C,0,19.31,-18.566,20.036\C,0,19.862,-19.718,19.248\N,0,21.
 133,-20.196,19.454\C,0,19.335,-20.466,18.244\C,0,21.372,-21.198,18.617
 \N,0,20.306,-21.37,17.855\C,0,21.268,-26.36,14.954\C,0,20.836,-25.248,
 13.998\S,0,19.563,-24.21,14.646\C,0,18.971,-23.364,13.215\Fe,0,20.044,
 -22.673,16.351\C,0,23.427,-23.259,16.142\C,0,20.379,-20.037,14.221\C,0
 ,16.633,-22.302,16.288\C,0,19.732,-25.058,18.706\N,0,21.592,-21.835,15
 .357\C,0,22.929,-22.196,15.445\C,0,23.716,-21.253,14.673\C,0,22.869,-2
 0.378,14.119\C,0,21.51,-20.718,14.541\C,0,23.219,-19.187,13.215\C,0,25
 .251,-21.313,14.578\C,0,25.839,-20.816,15.905\C,0,27.343,-20.976,16.00
 7\O,0,27.909,-21.789,15.233\O,0,27.981,-20.318,16.902\N,0,18.738,-21.4
 19,15.446\C,0,19.097,-20.373,14.631\C,0,17.892,-19.7,14.208\C,0,16.847
 ,-20.33,14.771\C,0,17.372,-21.429,15.546\C,0,17.916,-18.486,13.271\C,0
 ,15.349,-20.071,14.594\C,0,14.937,-20.186,13.293\N,0,18.461,-23.518,17
 .311\C,0,17.147,-23.218,17.15\C,0,16.387,-24.015,18.098\C,0,17.243,-24
 .788,18.779\C,0,18.572,-24.486,18.28\C,0,14.876,-23.957,18.249\C,0,16.
 934,-25.784,19.901\C,0,15.978,-26.724,19.784\N,0,21.344,-23.921,17.258
 \C,0,20.959,-24.892,18.174\C,0,22.095,-25.74,18.503\C,0,23.221,-25.194
 ,17.691\C,0,22.694,-24.076,16.966\C,0,22.126,-26.956,19.441\C,0,24.633
 ,-25.775,17.674\C,0,24.649,-26.905,16.636\C,0,26.007,-27.59,16.542\O,0
 ,26.229,-28.393,15.615\O,0,26.876,-27.363,17.394\H,0,18.69588043,-17.9
 616168,19.40158837\H,0,20.11679155,-17.97627665,20.41837909\H,0,18.723
 8086,-18.93884864,20.84979576\H,0,18.35215653,-20.37294573,17.83137473
 \H,0,22.27503937,-21.76981705,18.56755147\H,0,22.14320354,-26.84079558
 ,14.56961167\H,0,21.48410112,-25.94070726,15.9144134\H,0,20.47905825,-
 27.07680167,15.04709283\H,0,20.40829078,-25.74090735,13.15005709\H,0,2
 1.6925391,-24.61858986,13.87518448\H,0,18.32338451,-22.56663084,13.514
 49389\H,0,18.43099686,-24.04802106,12.59418457\H,0,19.79965513,-22.964
 36985,12.66862428\H,0,24.47041554,-23.47186812,16.0377351\H,0,20.48565
 692,-19.1706565,13.60215169\H,0,15.56880874,-22.26290086,16.18374929\H
 ,0,19.66184279,-25.70817764,19.55290437\H,0,22.31878791,-18.75123154,1
 2.83470533\H,0,23.82431295,-19.52395494,12.39955067\H,0,23.75777106,-1
 8.45595225,13.78085769\H,0,25.54533352,-20.61331695,13.82387042\H,0,25
 .51852378,-22.34476436,14.48422723\H,0,25.42600106,-21.44878447,16.662
 57224\H,0,25.65515154,-19.7621943,15.92935762\H,0,16.91490785,-18.1523
 3342,13.09385284\H,0,18.36981406,-18.76142053,12.34197022\H,0,18.48002
 154,-17.69730667,13.72348485\H,0,15.12768929,-19.08256047,14.93883164\
 H,0,15.55364565,-20.89788817,12.78519751\H,0,13.91898758,-20.51459357,
 13.2689794\H,0,14.56010682,-24.69188594,18.95967162\H,0,14.58871593,-2
 2.9843583,18.5900806\H,0,14.41525625,-24.15391697,17.30356946\H,0,17.4
 9759236,-25.73054597,20.80896823\H,0,15.40352635,-26.79369589,18.88398
 75\H,0,15.79240037,-27.4016565,20.59099098\H,0,23.13817859,-27.2744435
 1,19.57879778\H,0,21.70464327,-26.68742956,20.38716511\H,0,21.55677244
 ,-27.75318065,19.01043874\H,0,24.80377746,-26.22136791,18.63133523\H,0
 ,25.2874811,-25.00737506,17.31719972\H,0,24.48451422,-26.43926211,15.6
 8682528\H,0,23.96581868,-27.64687309,16.99347392\H,0,27.80506974,-27.4
 2523148,17.16042634\H,0,28.86746391,-21.82831723,15.19556883\H,0,21.77
 91892,-19.8432351,20.13075435\H,0,15.01647167,-19.23536762,12.8083534\
 H,0,14.8055584,-20.77381571,15.19033992\\Version=ES64L-G16RevA.03\Stat
 e=2-A\HF=-3880.578431\S2=0.823404\S2-1=0.\S2A=0.751356\RMSD=1.632e-09\
 Dipole=-1.0870156,2.0593581,0.5672177\Quadrupole=12.9433879,-16.284269
 9,3.340882,-9.1618198,-2.8853935,-13.2937933\PG=C01 [X(C41H48Fe1N6O4S1
 )]\\@


      SCIENCE SANS CONSCIENCE N'EST QUE RUINE DE L'AME.

                                                  -- RABELAIS
 Job cpu time:       3 days  4 hours 25 minutes  3.4 seconds.
 Elapsed time:       0 days 19 hours  9 minutes  9.0 seconds.
 File lengths (MBytes):  RWF=   4342 Int=      0 D2E=      0 Chk=    307 Scr=      1
 Normal termination of Gaussian 16 at Tue Sep 20 20:45:13 2022.
