 Entering Gaussian System, Link 0=g16
 Input=/net/homes/chemie/zhartovska/work/BioModel/Konrad/1drm/1drm12/1drm16/1drm16.com
 Output=/net/homes/chemie/zhartovska/work/BioModel/Konrad/1drm/1drm12/1drm16/1drm16.log
 Initial command:
 /afs/math/software/gaussian/g16.A03/g16/l1.exe "/scratch/zhartovska_gaussian.H4FnLCX/Gau-20339.inp" -scrdir="/scratch/zhartovska_gaussian.H4FnLCX/"
 Entering Link 1 = /afs/math/software/gaussian/g16.A03/g16/l1.exe PID=     20340.
  
 Copyright (c) 1988,1990,1992,1993,1995,1998,2003,2009,2016,
            Gaussian, Inc.  All Rights Reserved.
  
 This is part of the Gaussian(R) 16 program.  It is based on
 the Gaussian(R) 09 system (copyright 2009, Gaussian, Inc.),
 the Gaussian(R) 03 system (copyright 2003, Gaussian, Inc.),
 the Gaussian(R) 98 system (copyright 1998, Gaussian, Inc.),
 the Gaussian(R) 94 system (copyright 1995, Gaussian, Inc.),
 the Gaussian 92(TM) system (copyright 1992, Gaussian, Inc.),
 the Gaussian 90(TM) system (copyright 1990, Gaussian, Inc.),
 the Gaussian 88(TM) system (copyright 1988, Gaussian, Inc.),
 the Gaussian 86(TM) system (copyright 1986, Carnegie Mellon
 University), and the Gaussian 82(TM) system (copyright 1983,
 Carnegie Mellon University). Gaussian is a federally registered
 trademark of Gaussian, Inc.
  
 This software contains proprietary and confidential information,
 including trade secrets, belonging to Gaussian, Inc.
  
 This software is provided under written license and may be
 used, copied, transmitted, or stored only in accord with that
 written license.
  
 The following legend is applicable only to US Government
 contracts under FAR:
  
                    RESTRICTED RIGHTS LEGEND
  
 Use, reproduction and disclosure by the US Government is
 subject to restrictions as set forth in subparagraphs (a)
 and (c) of the Commercial Computer Software - Restricted
 Rights clause in FAR 52.227-19.
  
 Gaussian, Inc.
 340 Quinnipiac St., Bldg. 40, Wallingford CT 06492
  
  
 ---------------------------------------------------------------
 Warning -- This program may not be used in any manner that
 competes with the business of Gaussian, Inc. or will provide
 assistance to any competitor of Gaussian, Inc.  The licensee
 of this program is prohibited from giving any competitor of
 Gaussian, Inc. access to this program.  By using this program,
 the user acknowledges that Gaussian, Inc. is engaged in the
 business of creating and licensing software in the field of
 computational chemistry and represents and warrants to the
 licensee that it is not a competitor of Gaussian, Inc. and that
 it will not use this program in any manner prohibited above.
 ---------------------------------------------------------------
  

 Cite this work as:
 Gaussian 16, Revision A.03,
 M. J. Frisch, G. W. Trucks, H. B. Schlegel, G. E. Scuseria, 
 M. A. Robb, J. R. Cheeseman, G. Scalmani, V. Barone, 
 G. A. Petersson, H. Nakatsuji, X. Li, M. Caricato, A. V. Marenich, 
 J. Bloino, B. G. Janesko, R. Gomperts, B. Mennucci, H. P. Hratchian, 
 J. V. Ortiz, A. F. Izmaylov, J. L. Sonnenberg, D. Williams-Young, 
 F. Ding, F. Lipparini, F. Egidi, J. Goings, B. Peng, A. Petrone, 
 T. Henderson, D. Ranasinghe, V. G. Zakrzewski, J. Gao, N. Rega, 
 G. Zheng, W. Liang, M. Hada, M. Ehara, K. Toyota, R. Fukuda, 
 J. Hasegawa, M. Ishida, T. Nakajima, Y. Honda, O. Kitao, H. Nakai, 
 T. Vreven, K. Throssell, J. A. Montgomery, Jr., J. E. Peralta, 
 F. Ogliaro, M. J. Bearpark, J. J. Heyd, E. N. Brothers, K. N. Kudin, 
 V. N. Staroverov, T. A. Keith, R. Kobayashi, J. Normand, 
 K. Raghavachari, A. P. Rendell, J. C. Burant, S. S. Iyengar, 
 J. Tomasi, M. Cossi, J. M. Millam, M. Klene, C. Adamo, R. Cammi, 
 J. W. Ochterski, R. L. Martin, K. Morokuma, O. Farkas, 
 J. B. Foresman, and D. J. Fox, Gaussian, Inc., Wallingford CT, 2016.
 
 ******************************************
 Gaussian 16:  ES64L-G16RevA.03 25-Dec-2016
                 7-Nov-2022 
 ******************************************
 %nprocs=12
 Will use up to   12 processors via shared memory.
 %mem=16GB
 %oldchk=1drm_III_D.chk
 %chk=1drm_III_H.chk
 Copying data from "1drm_III_D.chk" to current chk file "1drm_III_H.chk"
 IOpt=  2 FromEx=T IUOpen= 4 IOptOp= 5 NList=   0 IFRang= 0 IUIn= 4 IUOut= 2.
 ----------------------------------------------------------------------
 # PBE1PBE/def2TZVP empiricaldispersion=GD3BJ int=(grid=ultrafine) geom
 =check pop=nbo
 ----------------------------------------------------------------------
 1/29=2,38=1,172=1/1;
 2/12=2,40=1/2;
 3/5=44,7=101,11=2,14=-4,25=1,30=1,74=-13,75=-5,124=41/1,2,3;
 4//1;
 5/5=2,38=5/2;
 6/7=2,8=2,9=2,10=2,28=1,40=1/1,7;
 99/5=1,9=1/99;
 ----------
 1drm_III_H
 ----------
 Structure from the checkpoint file:  "1drm_III_H.chk"
 Charge =  1 Multiplicity = 6
 Z-Matrix found in chk file.
 C,0,48.068001,60.623001,29.973
 C,0,48.181,59.849998,31.268
 N,0,47.933998,60.384998,32.516998
 C,0,48.473,58.541,31.49
 C,0,48.068001,59.411999,33.443001
 N,0,48.400002,58.257,32.889999
 Fe,0,48.765999,56.499001,34.030998
 C,0,45.678001,55.007999,33.291
 C,0,50.331001,55.000999,31.341999
 C,0,51.877998,57.230999,35.203999
 C,0,47.299,57.897999,36.900002
 N,0,48.188,55.292999,32.580002
 C,0,46.804001,54.751999,32.449001
 C,0,46.826,53.873001,31.332001
 C,0,48.123001,53.901001,30.809999
 C,0,48.922001,54.757999,31.573
 C,0,48.710999,53.084,29.59
 C,0,45.639999,52.916,31.042
 C,0,45.424,52.798,29.694
 C,0,44.573002,51.631001,29.422001
 O,0,43.542,51.953999,28.733
 O,0,44.916,50.459,29.83
 N,0,50.624001,56.294998,33.435001
 C,0,51.097,55.622002,32.187
 C,0,52.467999,55.814999,31.962999
 C,0,52.971001,56.416,33.016998
 C,0,51.838001,56.742001,33.980999
 C,0,53.264999,55.367001,30.736
 C,0,54.458,56.728001,33.074001
 C,0,55.09693339,57.19376978,34.3955242
 N,0,49.436001,57.335999,35.605
 C,0,50.751999,57.528,35.959
 C,0,50.819,58.118,37.297001
 C,0,49.610001,58.249001,37.731998
 C,0,48.743,57.799,36.740002
 C,0,52.186001,58.487999,38.056999
 C,0,48.980999,58.606998,39.147999
 C,0,49.32857166,59.94369725,39.82919527
 N,0,47.058998,56.563999,34.905998
 C,0,46.537998,57.237,36.117001
 C,0,45.07,57.032001,36.300999
 C,0,44.625,56.328999,35.282001
 C,0,45.769001,55.956001,34.452999
 C,0,44.231998,57.564999,37.375999
 C,0,43.164001,55.853001,34.801998
 C,0,42.825001,54.415001,35.34
 C,0,42.188999,53.115002,35.033001
 O,0,42.549,52.308998,35.884998
 O,0,42.134998,52.839001,33.841
 H,0,43.4846353,52.16130555,36.04111822
 H,0,43.80326767,54.08387538,35.61973226
 H,0,42.30710607,54.66908985,36.24117906
 H,0,43.13313015,55.84277089,33.73249235
 H,0,42.43333071,56.5443519,35.16676487
 H,0,44.75046246,54.51403329,33.08957971
 H,0,45.85972007,51.95091072,31.4484792
 H,0,44.75640512,53.30046253,31.50713484
 H,0,46.36202809,52.67753947,29.19350768
 H,0,44.94028785,53.68168899,29.33342224
 H,0,43.64950944,52.35892198,27.86924129
 H,0,49.65462918,52.66138077,29.865418
 H,0,48.03255864,52.299936,29.32568518
 H,0,48.84359391,53.73797639,28.75355904
 H,0,50.76309554,54.65077001,30.42792353
 H,0,54.19655882,54.9448365,31.05044146
 H,0,52.70498256,54.63270141,30.19555047
 H,0,53.45077069,56.21019528,30.10400927
 H,0,52.94883066,58.69836102,37.3367638
 H,0,52.02988441,59.34887937,38.67296376
 H,0,52.48935753,57.66308038,38.66723181
 H,0,52.83769674,57.41011033,35.64194586
 H,0,46.88066238,58.5178466,37.66530102
 H,0,44.74403567,58.36900803,37.86209251
 H,0,43.31151685,57.9245862,36.96574117
 H,0,44.02777626,56.79107885,38.08609835
 H,0,48.91256188,60.40564405,29.35302188
 H,0,47.17014309,60.33873095,29.46512037
 H,0,48.04135249,61.67151902,30.18465967
 H,0,48.72058404,57.82910785,30.73051879
 H,0,47.92368984,59.55686386,34.49328118
 H,0,47.6949062,61.33766942,32.7047539
 H,0,55.06052685,56.6239501,32.19591512
 H,0,56.16202967,57.22778249,34.49202827
 H,0,54.47577134,57.48337564,35.21722132
 H,0,48.31627702,57.91913223,39.62746263
 H,0,50.35205681,60.22173043,39.97088396
 H,0,48.54658178,60.59440966,40.16080529
 Recover connectivity data from disk.
 Stoichiometry    C38H38FeN6O4(1+,6)
 Framework group  C1[X(C38H38FeN6O4)]
 Deg. of freedom   255
 Full point group                 C1      NOp   1
 Largest Abelian subgroup         C1      NOp   1
 Largest concise Abelian subgroup C1      NOp   1
                         Standard orientation:                         
 ---------------------------------------------------------------------
 Center     Atomic      Atomic             Coordinates (Angstroms)
 Number     Number       Type             X           Y           Z
 ---------------------------------------------------------------------
      1          6           0       -1.131239   -1.830485    5.439987
      2          6           0       -1.273583   -1.064428    4.143753
      3          7           0       -1.820839    0.199580    4.043630
      4          6           0       -0.879682   -1.385500    2.882889
      5          6           0       -1.739390    0.610183    2.760300
      6          7           0       -1.178207   -0.307977    1.990809
      7         26           0       -0.933636   -0.056462   -0.107600
      8          6           0        2.491177    0.681681    0.071878
      9          6           0       -0.361600   -3.437758   -0.512035
     10          6           0       -4.128773   -0.659191   -1.119583
     11          6           0       -1.592933    3.387985    0.096321
     12          7           0        0.675452   -1.196588   -0.177292
     13          6           0        2.070118   -0.674044   -0.092725
     14          6           0        2.925176   -1.797215   -0.260569
     15          6           0        2.106334   -2.920942   -0.409620
     16          6           0        0.762633   -2.537964   -0.356589
     17          6           0        2.532451   -4.422787   -0.663620
     18          6           0        4.447444   -1.616867   -0.498741
     19          6           0        5.162547   -2.596475    0.138973
     20          6           0        6.533866   -2.640906   -0.387884
     21          8           0        7.399573   -2.534376    0.550848
     22          8           0        6.748551   -2.807573   -1.646386
     23          7           0       -2.031406   -1.608491   -0.592476
     24          6           0       -1.583912   -3.032035   -0.678672
     25          6           0       -2.654949   -3.918092   -0.865341
     26          6           0       -3.740850   -3.206399   -1.063934
     27          6           0       -3.395806   -1.732125   -0.900453
     28          6           0       -2.582868   -5.446412   -0.887283
     29          6           0       -5.065573   -3.903276   -1.330823
     30          6           0       -6.280066   -3.089301   -1.814611
     31          7           0       -2.460926    1.035707   -0.426196
     32          6           0       -3.698136    0.638070   -0.879217
     33          6           0       -4.547130    1.813154   -1.082251
     34          6           0       -3.848928    2.860019   -0.791307
     35          6           0       -2.587351    2.437439   -0.381308
     36          6           0       -6.064878    1.754859   -1.607828
     37          6           0       -4.069877    4.422235   -0.990125
     38          6           0       -5.294211    5.112928   -0.361198
     39          7           0        0.021874    1.597653    0.078434
     40          6           0       -0.375527    3.018401    0.198626
     41          6           0        0.790581    3.923289    0.427248
     42          6           0        1.873808    3.181125    0.507274
     43          6           0        1.496624    1.795753    0.236006
     44          6           0        0.759487    5.375560    0.605862
     45          6           0        3.418827    3.486200    0.840954
     46          6           0        4.250171    3.731435   -0.470891
     47          6           0        5.540488    3.506291   -1.158741
     48          8           0        5.386745    3.776098   -2.345632
     49          8           0        6.159471    2.520293   -0.778444
     50          1           0        4.693090    3.344747   -2.849992
     51          1           0        3.576989    3.327486   -1.197906
     52          1           0        4.185541    4.797404   -0.537469
     53          1           0        3.834238    2.652684    1.367818
     54          1           0        3.477776    4.356629    1.460453
     55          1           0        3.536926    0.908103    0.078365
     56          1           0        4.646753   -1.663530   -1.548978
     57          1           0        4.750691   -0.661011   -0.125536
     58          1           0        4.689738   -3.542761   -0.021941
     59          1           0        5.192043   -2.388346    1.188121
     60          1           0        7.413546   -3.174813    1.265862
     61          1           0        1.936087   -4.834469   -1.450874
     62          1           0        3.564893   -4.458330   -0.942369
     63          1           0        2.384645   -4.991571    0.230549
     64          1           0       -0.175424   -4.491170   -0.488353
     65          1           0       -3.184335   -5.820364   -1.689341
     66          1           0       -1.567816   -5.753598   -1.029434
     67          1           0       -2.946049   -5.833976    0.041584
     68          1           0       -6.500534    0.816037   -1.336321
     69          1           0       -6.626665    2.550284   -1.164438
     70          1           0       -6.077864    1.859448   -2.672625
     71          1           0       -5.116793   -0.796598   -1.506670
     72          1           0       -1.879567    4.384970    0.358544
     73          1           0       -0.236362    5.684049    0.846733
     74          1           0        1.420434    5.651373    1.400832
     75          1           0        1.071657    5.853015   -0.299392
     76          1           0       -1.437730   -2.844680    5.290412
     77          1           0       -0.109242   -1.809678    5.756198
     78          1           0       -1.746037   -1.379076    6.190421
     79          1           0       -0.415438   -2.307076    2.599911
     80          1           0       -2.085548    1.559827    2.409229
     81          1           0       -2.213363    0.724909    4.798584
     82          1           0       -5.153998   -4.959251   -1.182506
     83          1           0       -7.148078   -3.592896   -2.185888
     84          1           0       -6.255890   -2.020151   -1.779473
     85          1           0       -3.367869    4.993481   -1.560882
     86          1           0       -6.276737    4.730734   -0.544147
     87          1           0       -5.162359    5.975019    0.258732
 ---------------------------------------------------------------------
 Rotational constants (GHZ):           0.0714639           0.0471370           0.0348108
 Standard basis: def2TZVP (5D, 7F)
 There are  2008 symmetry adapted cartesian basis functions of A   symmetry.
 There are  1761 symmetry adapted basis functions of A   symmetry.
  1761 basis functions,  2854 primitive gaussians,  2008 cartesian basis functions
   185 alpha electrons      180 beta electrons
       nuclear repulsion energy      7097.3226863538 Hartrees.
 NAtoms=   87 NActive=   87 NUniq=   87 SFac= 1.00D+00 NAtFMM=   60 NAOKFM=T Big=T
 Integral buffers will be    131072 words long.
 Raffenetti 2 integral format.
 Two-electron integral symmetry is turned on.
 Nuclear repulsion after empirical dispersion term =     7097.2009012968 Hartrees.
 One-electron integrals computed using PRISM.
   1 Symmetry operations used in ECPInt.
 ECPInt:  NShTT=  241860 NPrTT=  750929 LenC2=  173627 LenP2D=  348639.
 LDataN:  DoStor=T MaxTD1= 6 Len=  172
 NBasis=  1761 RedAO= T EigKep=  3.81D-06  NBF=  1761
 NBsUse=  1761 1.00D-06 EigRej= -1.00D+00 NBFU=  1761
 ExpMin= 4.20D-02 ExpMax= 3.01D+05 ExpMxC= 2.91D+03 IAcc=3 IRadAn=         5 AccDes= 0.00D+00
 Harris functional with IExCor= 1009 and IRadAn=       5 diagonalized for initial guess.
 HarFok:  IExCor= 1009 AccDes= 0.00D+00 IRadAn=         5 IDoV= 1 UseB2=F ITyADJ=14
 ICtDFT=  3500011 ScaDFX=  1.000000  1.000000  1.000000  1.000000
 FoFCou: FMM=F IPFlag=           0 FMFlag=      100000 FMFlg1=        2001
         NFxFlg=           0 DoJE=T BraDBF=F KetDBF=T FulRan=T
         wScrn=  0.000000 ICntrl=       500 IOpCl=  0 I1Cent=   200000004 NGrid=           0
         NMat0=    1 NMatS0=      1 NMatT0=    0 NMatD0=    1 NMtDS0=    0 NMtDT0=    0
 Petite list used in FoFCou.
 Initial guess <Sx>= 0.0000 <Sy>= 0.0000 <Sz>= 2.5000 <S**2>= 8.7500 S= 2.5000
 Requested convergence on RMS density matrix=1.00D-08 within 128 cycles.
 Requested convergence on MAX density matrix=1.00D-06.
 Requested convergence on             energy=1.00D-06.
 No special actions if energy rises.
 EnCoef did     2 forward-backward iterations
 EnCoef did   100 forward-backward iterations
 EnCoef did     7 forward-backward iterations
 EnCoef did     3 forward-backward iterations
 Restarting incremental Fock formation.
 Restarting incremental Fock formation.
 SCF Done:  E(UPBE1PBE) =  -3361.78168413     A.U. after   45 cycles
            NFock= 45  Conv=0.87D-08     -V/T= 2.0033
 <Sx>= 0.0000 <Sy>= 0.0000 <Sz>= 2.5000 <S**2>= 9.2441 S= 2.5812
 <L.S>= 0.000000000000E+00
 Annihilation of the first spin contaminant:
 S**2 before annihilation     9.2441,   after     8.7650

 **********************************************************************

            Population analysis using the SCF density.

 **********************************************************************

 Orbital symmetries:
 Alpha Orbitals:
       Occupied  (A) (A) (A) (A) (A) (A) (A) (A) (A) (A) (A) (A)
                 (A) (A) (A) (A) (A) (A) (A) (A) (A) (A) (A) (A)
                 (A) (A) (A) (A) (A) (A) (A) (A) (A) (A) (A) (A)
                 (A) (A) (A) (A) (A) (A) (A) (A) (A) (A) (A) (A)
                 (A) (A) (A) (A) (A) (A) (A) (A) (A) (A) (A) (A)
                 (A) (A) (A) (A) (A) (A) (A) (A) (A) (A) (A) (A)
                 (A) (A) (A) (A) (A) (A) (A) (A) (A) (A) (A) (A)
                 (A) (A) (A) (A) (A) (A) (A) (A) (A) (A) (A) (A)
                 (A) (A) (A) (A) (A) (A) (A) (A) (A) (A) (A) (A)
                 (A) (A) (A) (A) (A) (A) (A) (A) (A) (A) (A) (A)
                 (A) (A) (A) (A) (A) (A) (A) (A) (A) (A) (A) (A)
                 (A) (A) (A) (A) (A) (A) (A) (A) (A) (A) (A) (A)
                 (A) (A) (A) (A) (A) (A) (A) (A) (A) (A) (A) (A)
                 (A) (A) (A) (A) (A) (A) (A) (A) (A) (A) (A) (A)
                 (A) (A) (A) (A) (A) (A) (A) (A) (A) (A) (A) (A)
                 (A) (A) (A) (A) (A)
       Virtual   (A) (A) (A) (A) (A) (A) (A) (A) (A) (A) (A) (A)
                 (A) (A) (A) (A) (A) (A) (A) (A) (A) (A) (A) (A)
                 (A) (A) (A) (A) (A) (A) (A) (A) (A) (A) (A) (A)
                 (A) (A) (A) (A) (A) (A) (A) (A) (A) (A) (A) (A)
                 (A) (A) (A) (A) (A) (A) (A) (A) (A) (A) (A) (A)
                 (A) (A) (A) (A) (A) (A) (A) (A) (A) (A) (A) (A)
                 (A) (A) (A) (A) (A) (A) (A) (A) (A) (A) (A) (A)
                 (A) (A) (A) (A) (A) (A) (A) (A) (A) (A) (A) (A)
                 (A) (A) (A) (A) (A) (A) (A) (A) (A) (A) (A) (A)
                 (A) (A) (A) (A) (A) (A) (A) (A) (A) (A) (A) (A)
                 (A) (A) (A) (A) (A) (A) (A) (A) (A) (A) (A) (A)
                 (A) (A) (A) (A) (A) (A) (A) (A) (A) (A) (A) (A)
                 (A) (A) (A) (A) (A) (A) (A) (A) (A) (A) (A) (A)
                 (A) (A) (A) (A) (A) (A) (A) (A) (A) (A) (A) (A)
                 (A) (A) (A) (A) (A) (A) (A) (A) (A) (A) (A) (A)
                 (A) (A) (A) (A) (A) (A) (A) (A) (A) (A) (A) (A)
                 (A) (A) (A) (A) (A) (A) (A) (A) (A) (A) (A) (A)
                 (A) (A) (A) (A) (A) (A) (A) (A) (A) (A) (A) (A)
                 (A) (A) (A) (A) (A) (A) (A) (A) (A) (A) (A) (A)
                 (A) (A) (A) (A) (A) (A) (A) (A) (A) (A) (A) (A)
                 (A) (A) (A) (A) (A) (A) (A) (A) (A) (A) (A) (A)
                 (A) (A) (A) (A) (A) (A) (A) (A) (A) (A) (A) (A)
                 (A) (A) (A) (A) (A) (A) (A) (A) (A) (A) (A) (A)
                 (A) (A) (A) (A) (A) (A) (A) (A) (A) (A) (A) (A)
                 (A) (A) (A) (A) (A) (A) (A) (A) (A) (A) (A) (A)
                 (A) (A) (A) (A) (A) (A) (A) (A) (A) (A) (A) (A)
                 (A) (A) (A) (A) (A) (A) (A) (A) (A) (A) (A) (A)
                 (A) (A) (A) (A) (A) (A) (A) (A) (A) (A) (A) (A)
                 (A) (A) (A) (A) (A) (A) (A) (A) (A) (A) (A) (A)
                 (A) (A) (A) (A) (A) (A) (A) (A) (A) (A) (A) (A)
                 (A) (A) (A) (A) (A) (A) (A) (A) (A) (A) (A) (A)
                 (A) (A) (A) (A) (A) (A) (A) (A) (A) (A) (A) (A)
                 (A) (A) (A) (A) (A) (A) (A) (A) (A) (A) (A) (A)
                 (A) (A) (A) (A) (A) (A) (A) (A) (A) (A) (A) (A)
                 (A) (A) (A) (A) (A) (A) (A) (A) (A) (A) (A) (A)
                 (A) (A) (A) (A) (A) (A) (A) (A) (A) (A) (A) (A)
                 (A) (A) (A) (A) (A) (A) (A) (A) (A) (A) (A) (A)
                 (A) (A) (A) (A) (A) (A) (A) (A) (A) (A) (A) (A)
                 (A) (A) (A) (A) (A) (A) (A) (A) (A) (A) (A) (A)
                 (A) (A) (A) (A) (A) (A) (A) (A) (A) (A) (A) (A)
                 (A) (A) (A) (A) (A) (A) (A) (A) (A) (A) (A) (A)
                 (A) (A) (A) (A) (A) (A) (A) (A) (A) (A) (A) (A)
                 (A) (A) (A) (A) (A) (A) (A) (A) (A) (A) (A) (A)
                 (A) (A) (A) (A) (A) (A) (A) (A) (A) (A) (A) (A)
                 (A) (A) (A) (A) (A) (A) (A) (A) (A) (A) (A) (A)
                 (A) (A) (A) (A) (A) (A) (A) (A) (A) (A) (A) (A)
                 (A) (A) (A) (A) (A) (A) (A) (A) (A) (A) (A) (A)
                 (A) (A) (A) (A) (A) (A) (A) (A) (A) (A) (A) (A)
                 (A) (A) (A) (A) (A) (A) (A) (A) (A) (A) (A) (A)
                 (A) (A) (A) (A) (A) (A) (A) (A) (A) (A) (A) (A)
                 (A) (A) (A) (A) (A) (A) (A) (A) (A) (A) (A) (A)
                 (A) (A) (A) (A) (A) (A) (A) (A) (A) (A) (A) (A)
                 (A) (A) (A) (A) (A) (A) (A) (A) (A) (A) (A) (A)
                 (A) (A) (A) (A) (A) (A) (A) (A) (A) (A) (A) (A)
                 (A) (A) (A) (A) (A) (A) (A) (A) (A) (A) (A) (A)
                 (A) (A) (A) (A) (A) (A) (A) (A) (A) (A) (A) (A)
                 (A) (A) (A) (A) (A) (A) (A) (A) (A) (A) (A) (A)
                 (A) (A) (A) (A) (A) (A) (A) (A) (A) (A) (A) (A)
                 (A) (A) (A) (A) (A) (A) (A) (A) (A) (A) (A) (A)
                 (A) (A) (A) (A) (A) (A) (A) (A) (A) (A) (A) (A)
                 (A) (A) (A) (A) (A) (A) (A) (A) (A) (A) (A) (A)
                 (A) (A) (A) (A) (A) (A) (A) (A) (A) (A) (A) (A)
                 (A) (A) (A) (A) (A) (A) (A) (A) (A) (A) (A) (A)
                 (A) (A) (A) (A) (A) (A) (A) (A) (A) (A) (A) (A)
                 (A) (A) (A) (A) (A) (A) (A) (A) (A) (A) (A) (A)
                 (A) (A) (A) (A) (A) (A) (A) (A) (A) (A) (A) (A)
                 (A) (A) (A) (A) (A) (A) (A) (A) (A) (A) (A) (A)
                 (A) (A) (A) (A) (A) (A) (A) (A) (A) (A) (A) (A)
                 (A) (A) (A) (A) (A) (A) (A) (A) (A) (A) (A) (A)
                 (A) (A) (A) (A) (A) (A) (A) (A) (A) (A) (A) (A)
                 (A) (A) (A) (A) (A) (A) (A) (A) (A) (A) (A) (A)
                 (A) (A) (A) (A) (A) (A) (A) (A) (A) (A) (A) (A)
                 (A) (A) (A) (A) (A) (A) (A) (A) (A) (A) (A) (A)
                 (A) (A) (A) (A) (A) (A) (A) (A) (A) (A) (A) (A)
                 (A) (A) (A) (A) (A) (A) (A) (A) (A) (A) (A) (A)
                 (A) (A) (A) (A) (A) (A) (A) (A) (A) (A) (A) (A)
                 (A) (A) (A) (A) (A) (A) (A) (A) (A) (A) (A) (A)
                 (A) (A) (A) (A) (A) (A) (A) (A) (A) (A) (A) (A)
                 (A) (A) (A) (A) (A) (A) (A) (A) (A) (A) (A) (A)
                 (A) (A) (A) (A) (A) (A) (A) (A) (A) (A) (A) (A)
                 (A) (A) (A) (A) (A) (A) (A) (A) (A) (A) (A) (A)
                 (A) (A) (A) (A) (A) (A) (A) (A) (A) (A) (A) (A)
                 (A) (A) (A) (A) (A) (A) (A) (A) (A) (A) (A) (A)
                 (A) (A) (A) (A) (A) (A) (A) (A) (A) (A) (A) (A)
                 (A) (A) (A) (A) (A) (A) (A) (A) (A) (A) (A) (A)
                 (A) (A) (A) (A) (A) (A) (A) (A) (A) (A) (A) (A)
                 (A) (A) (A) (A) (A) (A) (A) (A) (A) (A) (A) (A)
                 (A) (A) (A) (A) (A) (A) (A) (A) (A) (A) (A) (A)
                 (A) (A) (A) (A) (A) (A) (A) (A) (A) (A) (A) (A)
                 (A) (A) (A) (A) (A) (A) (A) (A) (A) (A) (A) (A)
                 (A) (A) (A) (A) (A) (A) (A) (A) (A) (A) (A) (A)
                 (A) (A) (A) (A) (A) (A) (A) (A) (A) (A) (A) (A)
                 (A) (A) (A) (A) (A) (A) (A) (A) (A) (A) (A) (A)
                 (A) (A) (A) (A) (A) (A) (A) (A) (A) (A) (A) (A)
                 (A) (A) (A) (A) (A) (A) (A) (A) (A) (A) (A) (A)
                 (A) (A) (A) (A) (A) (A) (A) (A) (A) (A) (A) (A)
                 (A) (A) (A) (A) (A) (A) (A) (A) (A) (A) (A) (A)
                 (A) (A) (A) (A) (A) (A) (A) (A) (A) (A) (A) (A)
                 (A) (A) (A) (A) (A) (A) (A) (A) (A) (A) (A) (A)
                 (A) (A) (A) (A) (A) (A) (A) (A) (A) (A) (A) (A)
                 (A) (A) (A) (A) (A) (A) (A) (A) (A) (A) (A) (A)
                 (A) (A) (A) (A) (A) (A) (A) (A) (A) (A) (A) (A)
                 (A) (A) (A) (A) (A) (A) (A) (A) (A) (A) (A) (A)
                 (A) (A) (A) (A) (A) (A) (A) (A) (A) (A) (A) (A)
                 (A) (A) (A) (A) (A) (A) (A) (A) (A) (A) (A) (A)
                 (A) (A) (A) (A) (A) (A) (A) (A) (A) (A) (A) (A)
                 (A) (A) (A) (A) (A) (A) (A) (A) (A) (A) (A) (A)
                 (A) (A) (A) (A) (A) (A) (A) (A) (A) (A) (A) (A)
                 (A) (A) (A) (A) (A) (A) (A) (A) (A) (A) (A) (A)
                 (A) (A) (A) (A) (A) (A) (A) (A) (A) (A) (A) (A)
                 (A) (A) (A) (A) (A) (A) (A) (A) (A) (A) (A) (A)
                 (A) (A) (A) (A) (A) (A) (A) (A) (A) (A) (A) (A)
                 (A) (A) (A) (A) (A) (A) (A) (A) (A) (A) (A) (A)
                 (A) (A) (A) (A) (A) (A) (A) (A) (A) (A) (A) (A)
                 (A) (A) (A) (A) (A) (A) (A) (A) (A) (A) (A) (A)
                 (A) (A) (A) (A) (A) (A) (A) (A) (A) (A) (A) (A)
                 (A) (A) (A) (A) (A) (A) (A) (A) (A) (A) (A) (A)
                 (A) (A) (A) (A) (A) (A) (A) (A) (A) (A) (A) (A)
                 (A) (A) (A) (A) (A) (A) (A) (A) (A) (A) (A) (A)
                 (A) (A) (A) (A) (A) (A) (A) (A) (A) (A) (A) (A)
                 (A) (A) (A) (A) (A) (A) (A) (A) (A) (A) (A) (A)
                 (A) (A) (A) (A) (A) (A) (A) (A) (A) (A) (A) (A)
                 (A) (A) (A) (A) (A) (A) (A) (A) (A) (A) (A) (A)
                 (A) (A) (A) (A) (A) (A) (A) (A) (A) (A) (A) (A)
                 (A) (A) (A) (A) (A) (A) (A) (A) (A) (A) (A) (A)
                 (A) (A) (A) (A) (A) (A) (A) (A) (A) (A) (A) (A)
                 (A) (A) (A) (A) (A) (A) (A) (A) (A) (A) (A) (A)
                 (A) (A) (A) (A) (A) (A) (A) (A) (A) (A) (A) (A)
                 (A) (A) (A) (A) (A) (A) (A) (A) (A) (A) (A) (A)
                 (A) (A) (A) (A) (A) (A) (A) (A) (A) (A) (A) (A)
                 (A) (A) (A) (A) (A) (A) (A) (A) (A) (A) (A) (A)
                 (A) (A) (A) (A)
 Beta  Orbitals:
       Occupied  (A) (A) (A) (A) (A) (A) (A) (A) (A) (A) (A) (A)
                 (A) (A) (A) (A) (A) (A) (A) (A) (A) (A) (A) (A)
                 (A) (A) (A) (A) (A) (A) (A) (A) (A) (A) (A) (A)
                 (A) (A) (A) (A) (A) (A) (A) (A) (A) (A) (A) (A)
                 (A) (A) (A) (A) (A) (A) (A) (A) (A) (A) (A) (A)
                 (A) (A) (A) (A) (A) (A) (A) (A) (A) (A) (A) (A)
                 (A) (A) (A) (A) (A) (A) (A) (A) (A) (A) (A) (A)
                 (A) (A) (A) (A) (A) (A) (A) (A) (A) (A) (A) (A)
                 (A) (A) (A) (A) (A) (A) (A) (A) (A) (A) (A) (A)
                 (A) (A) (A) (A) (A) (A) (A) (A) (A) (A) (A) (A)
                 (A) (A) (A) (A) (A) (A) (A) (A) (A) (A) (A) (A)
                 (A) (A) (A) (A) (A) (A) (A) (A) (A) (A) (A) (A)
                 (A) (A) (A) (A) (A) (A) (A) (A) (A) (A) (A) (A)
                 (A) (A) (A) (A) (A) (A) (A) (A) (A) (A) (A) (A)
                 (A) (A) (A) (A) (A) (A) (A) (A) (A) (A) (A) (A)
       Virtual   (A) (A) (A) (A) (A) (A) (A) (A) (A) (A) (A) (A)
                 (A) (A) (A) (A) (A) (A) (A) (A) (A) (A) (A) (A)
                 (A) (A) (A) (A) (A) (A) (A) (A) (A) (A) (A) (A)
                 (A) (A) (A) (A) (A) (A) (A) (A) (A) (A) (A) (A)
                 (A) (A) (A) (A) (A) (A) (A) (A) (A) (A) (A) (A)
                 (A) (A) (A) (A) (A) (A) (A) (A) (A) (A) (A) (A)
                 (A) (A) (A) (A) (A) (A) (A) (A) (A) (A) (A) (A)
                 (A) (A) (A) (A) (A) (A) (A) (A) (A) (A) (A) (A)
                 (A) (A) (A) (A) (A) (A) (A) (A) (A) (A) (A) (A)
                 (A) (A) (A) (A) (A) (A) (A) (A) (A) (A) (A) (A)
                 (A) (A) (A) (A) (A) (A) (A) (A) (A) (A) (A) (A)
                 (A) (A) (A) (A) (A) (A) (A) (A) (A) (A) (A) (A)
                 (A) (A) (A) (A) (A) (A) (A) (A) (A) (A) (A) (A)
                 (A) (A) (A) (A) (A) (A) (A) (A) (A) (A) (A) (A)
                 (A) (A) (A) (A) (A) (A) (A) (A) (A) (A) (A) (A)
                 (A) (A) (A) (A) (A) (A) (A) (A) (A) (A) (A) (A)
                 (A) (A) (A) (A) (A) (A) (A) (A) (A) (A) (A) (A)
                 (A) (A) (A) (A) (A) (A) (A) (A) (A) (A) (A) (A)
                 (A) (A) (A) (A) (A) (A) (A) (A) (A) (A) (A) (A)
                 (A) (A) (A) (A) (A) (A) (A) (A) (A) (A) (A) (A)
                 (A) (A) (A) (A) (A) (A) (A) (A) (A) (A) (A) (A)
                 (A) (A) (A) (A) (A) (A) (A) (A) (A) (A) (A) (A)
                 (A) (A) (A) (A) (A) (A) (A) (A) (A) (A) (A) (A)
                 (A) (A) (A) (A) (A) (A) (A) (A) (A) (A) (A) (A)
                 (A) (A) (A) (A) (A) (A) (A) (A) (A) (A) (A) (A)
                 (A) (A) (A) (A) (A) (A) (A) (A) (A) (A) (A) (A)
                 (A) (A) (A) (A) (A) (A) (A) (A) (A) (A) (A) (A)
                 (A) (A) (A) (A) (A) (A) (A) (A) (A) (A) (A) (A)
                 (A) (A) (A) (A) (A) (A) (A) (A) (A) (A) (A) (A)
                 (A) (A) (A) (A) (A) (A) (A) (A) (A) (A) (A) (A)
                 (A) (A) (A) (A) (A) (A) (A) (A) (A) (A) (A) (A)
                 (A) (A) (A) (A) (A) (A) (A) (A) (A) (A) (A) (A)
                 (A) (A) (A) (A) (A) (A) (A) (A) (A) (A) (A) (A)
                 (A) (A) (A) (A) (A) (A) (A) (A) (A) (A) (A) (A)
                 (A) (A) (A) (A) (A) (A) (A) (A) (A) (A) (A) (A)
                 (A) (A) (A) (A) (A) (A) (A) (A) (A) (A) (A) (A)
                 (A) (A) (A) (A) (A) (A) (A) (A) (A) (A) (A) (A)
                 (A) (A) (A) (A) (A) (A) (A) (A) (A) (A) (A) (A)
                 (A) (A) (A) (A) (A) (A) (A) (A) (A) (A) (A) (A)
                 (A) (A) (A) (A) (A) (A) (A) (A) (A) (A) (A) (A)
                 (A) (A) (A) (A) (A) (A) (A) (A) (A) (A) (A) (A)
                 (A) (A) (A) (A) (A) (A) (A) (A) (A) (A) (A) (A)
                 (A) (A) (A) (A) (A) (A) (A) (A) (A) (A) (A) (A)
                 (A) (A) (A) (A) (A) (A) (A) (A) (A) (A) (A) (A)
                 (A) (A) (A) (A) (A) (A) (A) (A) (A) (A) (A) (A)
                 (A) (A) (A) (A) (A) (A) (A) (A) (A) (A) (A) (A)
                 (A) (A) (A) (A) (A) (A) (A) (A) (A) (A) (A) (A)
                 (A) (A) (A) (A) (A) (A) (A) (A) (A) (A) (A) (A)
                 (A) (A) (A) (A) (A) (A) (A) (A) (A) (A) (A) (A)
                 (A) (A) (A) (A) (A) (A) (A) (A) (A) (A) (A) (A)
                 (A) (A) (A) (A) (A) (A) (A) (A) (A) (A) (A) (A)
                 (A) (A) (A) (A) (A) (A) (A) (A) (A) (A) (A) (A)
                 (A) (A) (A) (A) (A) (A) (A) (A) (A) (A) (A) (A)
                 (A) (A) (A) (A) (A) (A) (A) (A) (A) (A) (A) (A)
                 (A) (A) (A) (A) (A) (A) (A) (A) (A) (A) (A) (A)
                 (A) (A) (A) (A) (A) (A) (A) (A) (A) (A) (A) (A)
                 (A) (A) (A) (A) (A) (A) (A) (A) (A) (A) (A) (A)
                 (A) (A) (A) (A) (A) (A) (A) (A) (A) (A) (A) (A)
                 (A) (A) (A) (A) (A) (A) (A) (A) (A) (A) (A) (A)
                 (A) (A) (A) (A) (A) (A) (A) (A) (A) (A) (A) (A)
                 (A) (A) (A) (A) (A) (A) (A) (A) (A) (A) (A) (A)
                 (A) (A) (A) (A) (A) (A) (A) (A) (A) (A) (A) (A)
                 (A) (A) (A) (A) (A) (A) (A) (A) (A) (A) (A) (A)
                 (A) (A) (A) (A) (A) (A) (A) (A) (A) (A) (A) (A)
                 (A) (A) (A) (A) (A) (A) (A) (A) (A) (A) (A) (A)
                 (A) (A) (A) (A) (A) (A) (A) (A) (A) (A) (A) (A)
                 (A) (A) (A) (A) (A) (A) (A) (A) (A) (A) (A) (A)
                 (A) (A) (A) (A) (A) (A) (A) (A) (A) (A) (A) (A)
                 (A) (A) (A) (A) (A) (A) (A) (A) (A) (A) (A) (A)
                 (A) (A) (A) (A) (A) (A) (A) (A) (A) (A) (A) (A)
                 (A) (A) (A) (A) (A) (A) (A) (A) (A) (A) (A) (A)
                 (A) (A) (A) (A) (A) (A) (A) (A) (A) (A) (A) (A)
                 (A) (A) (A) (A) (A) (A) (A) (A) (A) (A) (A) (A)
                 (A) (A) (A) (A) (A) (A) (A) (A) (A) (A) (A) (A)
                 (A) (A) (A) (A) (A) (A) (A) (A) (A) (A) (A) (A)
                 (A) (A) (A) (A) (A) (A) (A) (A) (A) (A) (A) (A)
                 (A) (A) (A) (A) (A) (A) (A) (A) (A) (A) (A) (A)
                 (A) (A) (A) (A) (A) (A) (A) (A) (A) (A) (A) (A)
                 (A) (A) (A) (A) (A) (A) (A) (A) (A) (A) (A) (A)
                 (A) (A) (A) (A) (A) (A) (A) (A) (A) (A) (A) (A)
                 (A) (A) (A) (A) (A) (A) (A) (A) (A) (A) (A) (A)
                 (A) (A) (A) (A) (A) (A) (A) (A) (A) (A) (A) (A)
                 (A) (A) (A) (A) (A) (A) (A) (A) (A) (A) (A) (A)
                 (A) (A) (A) (A) (A) (A) (A) (A) (A) (A) (A) (A)
                 (A) (A) (A) (A) (A) (A) (A) (A) (A) (A) (A) (A)
                 (A) (A) (A) (A) (A) (A) (A) (A) (A) (A) (A) (A)
                 (A) (A) (A) (A) (A) (A) (A) (A) (A) (A) (A) (A)
                 (A) (A) (A) (A) (A) (A) (A) (A) (A) (A) (A) (A)
                 (A) (A) (A) (A) (A) (A) (A) (A) (A) (A) (A) (A)
                 (A) (A) (A) (A) (A) (A) (A) (A) (A) (A) (A) (A)
                 (A) (A) (A) (A) (A) (A) (A) (A) (A) (A) (A) (A)
                 (A) (A) (A) (A) (A) (A) (A) (A) (A) (A) (A) (A)
                 (A) (A) (A) (A) (A) (A) (A) (A) (A) (A) (A) (A)
                 (A) (A) (A) (A) (A) (A) (A) (A) (A) (A) (A) (A)
                 (A) (A) (A) (A) (A) (A) (A) (A) (A) (A) (A) (A)
                 (A) (A) (A) (A) (A) (A) (A) (A) (A) (A) (A) (A)
                 (A) (A) (A) (A) (A) (A) (A) (A) (A) (A) (A) (A)
                 (A) (A) (A) (A) (A) (A) (A) (A) (A) (A) (A) (A)
                 (A) (A) (A) (A) (A) (A) (A) (A) (A) (A) (A) (A)
                 (A) (A) (A) (A) (A) (A) (A) (A) (A) (A) (A) (A)
                 (A) (A) (A) (A) (A) (A) (A) (A) (A) (A) (A) (A)
                 (A) (A) (A) (A) (A) (A) (A) (A) (A) (A) (A) (A)
                 (A) (A) (A) (A) (A) (A) (A) (A) (A) (A) (A) (A)
                 (A) (A) (A) (A) (A) (A) (A) (A) (A) (A) (A) (A)
                 (A) (A) (A) (A) (A) (A) (A) (A) (A) (A) (A) (A)
                 (A) (A) (A) (A) (A) (A) (A) (A) (A) (A) (A) (A)
                 (A) (A) (A) (A) (A) (A) (A) (A) (A) (A) (A) (A)
                 (A) (A) (A) (A) (A) (A) (A) (A) (A) (A) (A) (A)
                 (A) (A) (A) (A) (A) (A) (A) (A) (A) (A) (A) (A)
                 (A) (A) (A) (A) (A) (A) (A) (A) (A) (A) (A) (A)
                 (A) (A) (A) (A) (A) (A) (A) (A) (A) (A) (A) (A)
                 (A) (A) (A) (A) (A) (A) (A) (A) (A) (A) (A) (A)
                 (A) (A) (A) (A) (A) (A) (A) (A) (A) (A) (A) (A)
                 (A) (A) (A) (A) (A) (A) (A) (A) (A) (A) (A) (A)
                 (A) (A) (A) (A) (A) (A) (A) (A) (A) (A) (A) (A)
                 (A) (A) (A) (A) (A) (A) (A) (A) (A) (A) (A) (A)
                 (A) (A) (A) (A) (A) (A) (A) (A) (A) (A) (A) (A)
                 (A) (A) (A) (A) (A) (A) (A) (A) (A) (A) (A) (A)
                 (A) (A) (A) (A) (A) (A) (A) (A) (A) (A) (A) (A)
                 (A) (A) (A) (A) (A) (A) (A) (A) (A) (A) (A) (A)
                 (A) (A) (A) (A) (A) (A) (A) (A) (A) (A) (A) (A)
                 (A) (A) (A) (A) (A) (A) (A) (A) (A) (A) (A) (A)
                 (A) (A) (A) (A) (A) (A) (A) (A) (A) (A) (A) (A)
                 (A) (A) (A) (A) (A) (A) (A) (A) (A) (A) (A) (A)
                 (A) (A) (A) (A) (A) (A) (A) (A) (A) (A) (A) (A)
                 (A) (A) (A) (A) (A) (A) (A) (A) (A) (A) (A) (A)
                 (A) (A) (A) (A) (A) (A) (A) (A) (A) (A) (A) (A)
                 (A) (A) (A) (A) (A) (A) (A) (A) (A) (A) (A) (A)
                 (A) (A) (A) (A) (A) (A) (A) (A) (A) (A) (A) (A)
                 (A) (A) (A) (A) (A) (A) (A) (A) (A) (A) (A) (A)
                 (A) (A) (A) (A) (A) (A) (A) (A) (A) (A) (A) (A)
                 (A) (A) (A) (A) (A) (A) (A) (A) (A)
 The electronic state is 6-A.
 Alpha  occ. eigenvalues -- -256.55270 -30.38075 -26.19894 -26.19640 -26.19585
 Alpha  occ. eigenvalues --  -19.32264 -19.31857 -19.25944 -19.25823 -14.55869
 Alpha  occ. eigenvalues --  -14.51708 -14.50375 -14.49912 -14.49484 -14.49054
 Alpha  occ. eigenvalues --  -10.42768 -10.42647 -10.40104 -10.39038 -10.37483
 Alpha  occ. eigenvalues --  -10.37290 -10.36798 -10.36736 -10.36571 -10.36424
 Alpha  occ. eigenvalues --  -10.36388 -10.35876 -10.35453 -10.35337 -10.35057
 Alpha  occ. eigenvalues --  -10.34865 -10.34265 -10.34154 -10.34076 -10.33679
 Alpha  occ. eigenvalues --  -10.33656 -10.33416 -10.33380 -10.33308 -10.33089
 Alpha  occ. eigenvalues --  -10.32874 -10.32838 -10.32758 -10.32628 -10.32620
 Alpha  occ. eigenvalues --  -10.32017 -10.31156 -10.31055 -10.31016 -10.30951
 Alpha  occ. eigenvalues --  -10.30788 -10.30091 -10.28904  -3.80604  -2.56808
 Alpha  occ. eigenvalues --   -2.56637  -2.56567  -1.25430  -1.21864  -1.16643
 Alpha  occ. eigenvalues --   -1.11506  -1.09713  -1.08573  -1.07544  -1.06305
 Alpha  occ. eigenvalues --   -1.05169  -1.02157  -0.95710  -0.94881  -0.94126
 Alpha  occ. eigenvalues --   -0.93282  -0.92606  -0.92286  -0.91537  -0.90781
 Alpha  occ. eigenvalues --   -0.89156  -0.88783  -0.87379  -0.85360  -0.84277
 Alpha  occ. eigenvalues --   -0.83707  -0.83070  -0.82410  -0.81970  -0.81533
 Alpha  occ. eigenvalues --   -0.79755  -0.78992  -0.77830  -0.77064  -0.75751
 Alpha  occ. eigenvalues --   -0.75722  -0.74821  -0.73205  -0.72911  -0.72530
 Alpha  occ. eigenvalues --   -0.71634  -0.70637  -0.68395  -0.67655  -0.66625
 Alpha  occ. eigenvalues --   -0.66291  -0.65238  -0.65131  -0.63881  -0.63502
 Alpha  occ. eigenvalues --   -0.62824  -0.61697  -0.61269  -0.60920  -0.60399
 Alpha  occ. eigenvalues --   -0.59850  -0.59152  -0.58932  -0.58735  -0.58588
 Alpha  occ. eigenvalues --   -0.58305  -0.57430  -0.57418  -0.56910  -0.56820
 Alpha  occ. eigenvalues --   -0.56218  -0.56143  -0.55748  -0.55658  -0.55219
 Alpha  occ. eigenvalues --   -0.55166  -0.54811  -0.54514  -0.54188  -0.54092
 Alpha  occ. eigenvalues --   -0.53842  -0.53698  -0.53454  -0.53124  -0.52900
 Alpha  occ. eigenvalues --   -0.52822  -0.52575  -0.52375  -0.51912  -0.51718
 Alpha  occ. eigenvalues --   -0.51444  -0.51403  -0.50984  -0.50824  -0.50159
 Alpha  occ. eigenvalues --   -0.50142  -0.49899  -0.49699  -0.49344  -0.49046
 Alpha  occ. eigenvalues --   -0.48832  -0.48738  -0.48629  -0.47722  -0.47092
 Alpha  occ. eigenvalues --   -0.46573  -0.46095  -0.45747  -0.45549  -0.45339
 Alpha  occ. eigenvalues --   -0.44987  -0.44682  -0.44139  -0.44000  -0.43825
 Alpha  occ. eigenvalues --   -0.43192  -0.42307  -0.41782  -0.40961  -0.40311
 Alpha  occ. eigenvalues --   -0.40012  -0.39982  -0.39200  -0.38042  -0.37296
 Alpha  occ. eigenvalues --   -0.35982  -0.35565  -0.35254  -0.34443  -0.34043
 Alpha  occ. eigenvalues --   -0.33041  -0.32800  -0.32453  -0.31512  -0.29116
 Alpha virt. eigenvalues --   -0.20308  -0.18044  -0.14572  -0.13528  -0.12683
 Alpha virt. eigenvalues --   -0.10266  -0.09395  -0.08820  -0.07487  -0.06614
 Alpha virt. eigenvalues --   -0.06548  -0.05436  -0.04738  -0.04351  -0.03988
 Alpha virt. eigenvalues --   -0.03684  -0.03514  -0.03192  -0.02740  -0.02286
 Alpha virt. eigenvalues --   -0.02151  -0.01790  -0.01424  -0.01092  -0.00907
 Alpha virt. eigenvalues --   -0.00499  -0.00176  -0.00037   0.00086   0.00581
 Alpha virt. eigenvalues --    0.00996   0.01047   0.01511   0.01661   0.01796
 Alpha virt. eigenvalues --    0.02001   0.02407   0.02617   0.03062   0.03268
 Alpha virt. eigenvalues --    0.03313   0.03685   0.03844   0.04032   0.04249
 Alpha virt. eigenvalues --    0.04581   0.04702   0.04975   0.05069   0.05248
 Alpha virt. eigenvalues --    0.05259   0.05560   0.05791   0.05968   0.06365
 Alpha virt. eigenvalues --    0.06659   0.06668   0.06719   0.06878   0.07193
 Alpha virt. eigenvalues --    0.07406   0.08054   0.08077   0.08202   0.08428
 Alpha virt. eigenvalues --    0.08794   0.08932   0.09340   0.09506   0.09880
 Alpha virt. eigenvalues --    0.10094   0.10206   0.10581   0.10691   0.10874
 Alpha virt. eigenvalues --    0.11074   0.11322   0.11423   0.11552   0.11820
 Alpha virt. eigenvalues --    0.12049   0.12180   0.12556   0.12619   0.13084
 Alpha virt. eigenvalues --    0.13263   0.13447   0.13661   0.14020   0.14105
 Alpha virt. eigenvalues --    0.14263   0.14790   0.14858   0.15116   0.15423
 Alpha virt. eigenvalues --    0.15640   0.15840   0.16177   0.16247   0.16354
 Alpha virt. eigenvalues --    0.16853   0.17230   0.17253   0.17389   0.17810
 Alpha virt. eigenvalues --    0.17938   0.18149   0.18195   0.18524   0.18742
 Alpha virt. eigenvalues --    0.18970   0.19099   0.19242   0.19413   0.19785
 Alpha virt. eigenvalues --    0.20111   0.20259   0.20510   0.20597   0.20806
 Alpha virt. eigenvalues --    0.21043   0.21277   0.21445   0.21517   0.21844
 Alpha virt. eigenvalues --    0.22105   0.22453   0.22678   0.22832   0.22990
 Alpha virt. eigenvalues --    0.23305   0.23344   0.23552   0.23877   0.23991
 Alpha virt. eigenvalues --    0.24304   0.24549   0.24789   0.24930   0.25244
 Alpha virt. eigenvalues --    0.25601   0.25604   0.26078   0.26289   0.26565
 Alpha virt. eigenvalues --    0.26826   0.27228   0.27360   0.27476   0.27740
 Alpha virt. eigenvalues --    0.27886   0.28024   0.28316   0.28517   0.28941
 Alpha virt. eigenvalues --    0.29064   0.29472   0.29895   0.30017   0.30118
 Alpha virt. eigenvalues --    0.30345   0.30614   0.31042   0.31121   0.31383
 Alpha virt. eigenvalues --    0.31702   0.31832   0.31951   0.32046   0.32326
 Alpha virt. eigenvalues --    0.32522   0.32720   0.32894   0.33206   0.33512
 Alpha virt. eigenvalues --    0.33641   0.33829   0.34048   0.34421   0.34577
 Alpha virt. eigenvalues --    0.35002   0.35271   0.35384   0.35719   0.35777
 Alpha virt. eigenvalues --    0.35941   0.36200   0.36297   0.36442   0.36489
 Alpha virt. eigenvalues --    0.36720   0.37105   0.37168   0.37580   0.37854
 Alpha virt. eigenvalues --    0.38010   0.38221   0.38283   0.38386   0.38531
 Alpha virt. eigenvalues --    0.38868   0.38922   0.39256   0.39482   0.39632
 Alpha virt. eigenvalues --    0.39928   0.40111   0.40256   0.40489   0.40592
 Alpha virt. eigenvalues --    0.40759   0.40801   0.41151   0.41214   0.41370
 Alpha virt. eigenvalues --    0.41603   0.41841   0.42010   0.42219   0.42524
 Alpha virt. eigenvalues --    0.42631   0.42833   0.43144   0.43291   0.43524
 Alpha virt. eigenvalues --    0.43649   0.44132   0.44198   0.44390   0.44478
 Alpha virt. eigenvalues --    0.44827   0.44852   0.44946   0.45247   0.45512
 Alpha virt. eigenvalues --    0.45650   0.46056   0.46144   0.46304   0.46420
 Alpha virt. eigenvalues --    0.47127   0.47352   0.47505   0.47693   0.47838
 Alpha virt. eigenvalues --    0.48202   0.48472   0.48530   0.48821   0.49029
 Alpha virt. eigenvalues --    0.49063   0.49301   0.49683   0.49927   0.50126
 Alpha virt. eigenvalues --    0.50415   0.50546   0.50860   0.50989   0.51442
 Alpha virt. eigenvalues --    0.51657   0.51851   0.52130   0.52385   0.52610
 Alpha virt. eigenvalues --    0.52621   0.52934   0.53216   0.53762   0.54060
 Alpha virt. eigenvalues --    0.54220   0.54475   0.54754   0.54971   0.55210
 Alpha virt. eigenvalues --    0.55447   0.56028   0.56174   0.56471   0.56890
 Alpha virt. eigenvalues --    0.57029   0.57206   0.57448   0.57815   0.57921
 Alpha virt. eigenvalues --    0.58116   0.58547   0.58935   0.58998   0.59179
 Alpha virt. eigenvalues --    0.59636   0.59873   0.59889   0.60552   0.60752
 Alpha virt. eigenvalues --    0.60992   0.61130   0.61564   0.62378   0.62495
 Alpha virt. eigenvalues --    0.62565   0.62811   0.62920   0.63117   0.63759
 Alpha virt. eigenvalues --    0.64039   0.64255   0.64650   0.64760   0.64887
 Alpha virt. eigenvalues --    0.65264   0.65816   0.65998   0.66223   0.66404
 Alpha virt. eigenvalues --    0.66685   0.66916   0.67504   0.67617   0.68084
 Alpha virt. eigenvalues --    0.68356   0.68847   0.68874   0.69215   0.69253
 Alpha virt. eigenvalues --    0.69611   0.70090   0.70296   0.70538   0.70764
 Alpha virt. eigenvalues --    0.70849   0.71498   0.71836   0.72155   0.72262
 Alpha virt. eigenvalues --    0.72598   0.73243   0.73517   0.73856   0.74189
 Alpha virt. eigenvalues --    0.74527   0.74720   0.75057   0.75299   0.75754
 Alpha virt. eigenvalues --    0.76251   0.76500   0.76950   0.77235   0.77651
 Alpha virt. eigenvalues --    0.77857   0.77959   0.78494   0.78802   0.79088
 Alpha virt. eigenvalues --    0.79526   0.79568   0.79926   0.80143   0.80514
 Alpha virt. eigenvalues --    0.80886   0.81108   0.81377   0.81617   0.81776
 Alpha virt. eigenvalues --    0.82202   0.82388   0.82876   0.83199   0.83390
 Alpha virt. eigenvalues --    0.83516   0.83758   0.84035   0.84210   0.84641
 Alpha virt. eigenvalues --    0.85102   0.85235   0.85516   0.85905   0.86082
 Alpha virt. eigenvalues --    0.86503   0.86719   0.86942   0.87037   0.87597
 Alpha virt. eigenvalues --    0.88046   0.88181   0.88404   0.88785   0.89247
 Alpha virt. eigenvalues --    0.89479   0.89802   0.89896   0.89994   0.90472
 Alpha virt. eigenvalues --    0.90788   0.90844   0.91226   0.91870   0.91953
 Alpha virt. eigenvalues --    0.92130   0.92430   0.92687   0.92782   0.93042
 Alpha virt. eigenvalues --    0.93633   0.93881   0.94328   0.94626   0.95157
 Alpha virt. eigenvalues --    0.95574   0.95738   0.95962   0.96405   0.96736
 Alpha virt. eigenvalues --    0.97119   0.97411   0.97710   0.98085   0.98574
 Alpha virt. eigenvalues --    0.98643   0.99036   0.99388   0.99564   0.99899
 Alpha virt. eigenvalues --    1.00443   1.00843   1.01278   1.01835   1.02007
 Alpha virt. eigenvalues --    1.02577   1.02705   1.02906   1.03558   1.04014
 Alpha virt. eigenvalues --    1.04201   1.04717   1.04937   1.05178   1.05446
 Alpha virt. eigenvalues --    1.06141   1.06481   1.06830   1.07049   1.07622
 Alpha virt. eigenvalues --    1.07881   1.08632   1.08787   1.09102   1.09215
 Alpha virt. eigenvalues --    1.09365   1.10204   1.10710   1.10984   1.11144
 Alpha virt. eigenvalues --    1.11635   1.12001   1.12109   1.12486   1.12945
 Alpha virt. eigenvalues --    1.13376   1.13958   1.14306   1.14444   1.14612
 Alpha virt. eigenvalues --    1.14954   1.15277   1.15514   1.16032   1.16355
 Alpha virt. eigenvalues --    1.16919   1.17528   1.17764   1.18249   1.18544
 Alpha virt. eigenvalues --    1.18881   1.19468   1.19748   1.20281   1.20328
 Alpha virt. eigenvalues --    1.20822   1.21144   1.21473   1.22021   1.22510
 Alpha virt. eigenvalues --    1.22647   1.23031   1.23456   1.23593   1.24406
 Alpha virt. eigenvalues --    1.24697   1.25147   1.25230   1.25824   1.26213
 Alpha virt. eigenvalues --    1.27158   1.27326   1.27457   1.27959   1.28637
 Alpha virt. eigenvalues --    1.29029   1.29894   1.30158   1.30324   1.31077
 Alpha virt. eigenvalues --    1.31378   1.31853   1.32161   1.32249   1.32919
 Alpha virt. eigenvalues --    1.33102   1.33493   1.33889   1.34414   1.34725
 Alpha virt. eigenvalues --    1.34850   1.35332   1.35462   1.35759   1.36146
 Alpha virt. eigenvalues --    1.36773   1.37019   1.37314   1.37817   1.38327
 Alpha virt. eigenvalues --    1.38550   1.38849   1.39159   1.39478   1.39878
 Alpha virt. eigenvalues --    1.40146   1.40432   1.40990   1.41126   1.41787
 Alpha virt. eigenvalues --    1.41879   1.42033   1.42346   1.42924   1.43195
 Alpha virt. eigenvalues --    1.43372   1.43876   1.44084   1.44398   1.44606
 Alpha virt. eigenvalues --    1.44657   1.45178   1.45566   1.45755   1.45984
 Alpha virt. eigenvalues --    1.46023   1.46758   1.47076   1.47314   1.47521
 Alpha virt. eigenvalues --    1.47967   1.48064   1.48351   1.48369   1.48904
 Alpha virt. eigenvalues --    1.49384   1.49657   1.49883   1.50105   1.50172
 Alpha virt. eigenvalues --    1.50649   1.51029   1.51242   1.51512   1.51800
 Alpha virt. eigenvalues --    1.52291   1.52330   1.52681   1.52892   1.53049
 Alpha virt. eigenvalues --    1.53071   1.53495   1.53775   1.54765   1.54888
 Alpha virt. eigenvalues --    1.55163   1.55448   1.55757   1.55948   1.56195
 Alpha virt. eigenvalues --    1.56477   1.56835   1.57011   1.57483   1.57719
 Alpha virt. eigenvalues --    1.58284   1.58482   1.58733   1.59148   1.59546
 Alpha virt. eigenvalues --    1.59961   1.60247   1.60754   1.60798   1.60984
 Alpha virt. eigenvalues --    1.61369   1.61467   1.62261   1.62484   1.62893
 Alpha virt. eigenvalues --    1.63121   1.63551   1.63650   1.63918   1.64577
 Alpha virt. eigenvalues --    1.65016   1.65371   1.65647   1.66065   1.66290
 Alpha virt. eigenvalues --    1.66400   1.66668   1.67454   1.68049   1.68325
 Alpha virt. eigenvalues --    1.68722   1.69272   1.69664   1.70286   1.70324
 Alpha virt. eigenvalues --    1.71005   1.71511   1.71656   1.72322   1.72999
 Alpha virt. eigenvalues --    1.73372   1.73525   1.73661   1.74287   1.74387
 Alpha virt. eigenvalues --    1.74596   1.75262   1.75613   1.75644   1.76042
 Alpha virt. eigenvalues --    1.76341   1.77045   1.77592   1.77767   1.77912
 Alpha virt. eigenvalues --    1.78526   1.78856   1.79109   1.79152   1.79565
 Alpha virt. eigenvalues --    1.80507   1.80716   1.81014   1.81257   1.81484
 Alpha virt. eigenvalues --    1.82277   1.82852   1.82954   1.83255   1.83814
 Alpha virt. eigenvalues --    1.84009   1.84148   1.84220   1.85056   1.85536
 Alpha virt. eigenvalues --    1.85991   1.86198   1.86687   1.86856   1.87061
 Alpha virt. eigenvalues --    1.87805   1.88178   1.88633   1.89090   1.89194
 Alpha virt. eigenvalues --    1.89641   1.89708   1.90286   1.90783   1.90988
 Alpha virt. eigenvalues --    1.91400   1.91733   1.92254   1.92567   1.92688
 Alpha virt. eigenvalues --    1.93046   1.93745   1.94368   1.95036   1.95193
 Alpha virt. eigenvalues --    1.95594   1.95986   1.96204   1.96423   1.97037
 Alpha virt. eigenvalues --    1.97395   1.97711   1.98163   1.98455   1.98866
 Alpha virt. eigenvalues --    1.99324   1.99342   2.00103   2.00454   2.00733
 Alpha virt. eigenvalues --    2.01328   2.01740   2.01811   2.02229   2.02628
 Alpha virt. eigenvalues --    2.03147   2.03642   2.04117   2.04239   2.04416
 Alpha virt. eigenvalues --    2.04732   2.04961   2.05712   2.05971   2.06203
 Alpha virt. eigenvalues --    2.06716   2.07354   2.07536   2.07786   2.08138
 Alpha virt. eigenvalues --    2.08441   2.08728   2.09072   2.09439   2.10015
 Alpha virt. eigenvalues --    2.10658   2.11164   2.11215   2.11553   2.11935
 Alpha virt. eigenvalues --    2.12293   2.13118   2.13341   2.13540   2.14339
 Alpha virt. eigenvalues --    2.14501   2.15111   2.15287   2.15677   2.16039
 Alpha virt. eigenvalues --    2.16455   2.17437   2.17869   2.18089   2.19099
 Alpha virt. eigenvalues --    2.19302   2.19746   2.20222   2.20372   2.20857
 Alpha virt. eigenvalues --    2.21084   2.21389   2.21704   2.22730   2.23151
 Alpha virt. eigenvalues --    2.23828   2.24006   2.24605   2.24766   2.25256
 Alpha virt. eigenvalues --    2.25743   2.26165   2.26307   2.26854   2.27555
 Alpha virt. eigenvalues --    2.27891   2.28115   2.28373   2.28803   2.29141
 Alpha virt. eigenvalues --    2.29546   2.29697   2.30242   2.30415   2.31119
 Alpha virt. eigenvalues --    2.31279   2.31730   2.32328   2.32473   2.33090
 Alpha virt. eigenvalues --    2.33216   2.33481   2.33842   2.34039   2.34514
 Alpha virt. eigenvalues --    2.34720   2.35420   2.35748   2.35970   2.36374
 Alpha virt. eigenvalues --    2.36897   2.37384   2.37781   2.37875   2.37986
 Alpha virt. eigenvalues --    2.38148   2.39009   2.39307   2.39668   2.40125
 Alpha virt. eigenvalues --    2.40260   2.40851   2.41006   2.41908   2.42015
 Alpha virt. eigenvalues --    2.42300   2.43012   2.43712   2.44062   2.44517
 Alpha virt. eigenvalues --    2.44786   2.45058   2.45595   2.45669   2.45916
 Alpha virt. eigenvalues --    2.46823   2.47352   2.47670   2.47715   2.47944
 Alpha virt. eigenvalues --    2.48310   2.48550   2.48951   2.49396   2.49638
 Alpha virt. eigenvalues --    2.49844   2.50318   2.50699   2.50967   2.51366
 Alpha virt. eigenvalues --    2.52010   2.52067   2.52084   2.52582   2.53207
 Alpha virt. eigenvalues --    2.53870   2.54203   2.54579   2.54990   2.55389
 Alpha virt. eigenvalues --    2.55840   2.56097   2.56479   2.56573   2.56914
 Alpha virt. eigenvalues --    2.57062   2.57646   2.58192   2.58509   2.58976
 Alpha virt. eigenvalues --    2.58992   2.59217   2.59668   2.59879   2.60338
 Alpha virt. eigenvalues --    2.60445   2.60624   2.61292   2.61671   2.61977
 Alpha virt. eigenvalues --    2.62003   2.62628   2.62948   2.63652   2.63974
 Alpha virt. eigenvalues --    2.64140   2.64443   2.64776   2.64918   2.65051
 Alpha virt. eigenvalues --    2.65528   2.66039   2.66506   2.67075   2.67431
 Alpha virt. eigenvalues --    2.67543   2.67808   2.68339   2.69021   2.69520
 Alpha virt. eigenvalues --    2.70025   2.70269   2.70658   2.70802   2.71105
 Alpha virt. eigenvalues --    2.71717   2.72128   2.72495   2.73067   2.73214
 Alpha virt. eigenvalues --    2.73600   2.73938   2.74367   2.74528   2.74779
 Alpha virt. eigenvalues --    2.75236   2.75788   2.75886   2.76241   2.76620
 Alpha virt. eigenvalues --    2.76900   2.77242   2.77831   2.78428   2.78924
 Alpha virt. eigenvalues --    2.79303   2.79735   2.79780   2.79968   2.80494
 Alpha virt. eigenvalues --    2.80667   2.81212   2.81470   2.81740   2.82432
 Alpha virt. eigenvalues --    2.82569   2.82758   2.83452   2.83720   2.84037
 Alpha virt. eigenvalues --    2.84351   2.84753   2.84922   2.85438   2.85653
 Alpha virt. eigenvalues --    2.85906   2.86124   2.86575   2.86653   2.87002
 Alpha virt. eigenvalues --    2.87355   2.88127   2.88180   2.88383   2.88639
 Alpha virt. eigenvalues --    2.89394   2.89639   2.89819   2.90282   2.90595
 Alpha virt. eigenvalues --    2.90662   2.90759   2.91318   2.91738   2.92141
 Alpha virt. eigenvalues --    2.92234   2.92508   2.92783   2.93117   2.93294
 Alpha virt. eigenvalues --    2.93521   2.94408   2.94628   2.94906   2.95276
 Alpha virt. eigenvalues --    2.95413   2.95840   2.96245   2.96269   2.96582
 Alpha virt. eigenvalues --    2.96964   2.97097   2.97472   2.98073   2.98523
 Alpha virt. eigenvalues --    2.98625   2.98702   2.99043   2.99399   2.99624
 Alpha virt. eigenvalues --    2.99844   3.00270   3.00372   3.00987   3.01035
 Alpha virt. eigenvalues --    3.01206   3.01381   3.02215   3.02275   3.02385
 Alpha virt. eigenvalues --    3.02742   3.02940   3.03298   3.03725   3.03855
 Alpha virt. eigenvalues --    3.04117   3.04201   3.04982   3.05047   3.05359
 Alpha virt. eigenvalues --    3.05535   3.05779   3.06126   3.06266   3.06494
 Alpha virt. eigenvalues --    3.06594   3.07032   3.07228   3.07537   3.07962
 Alpha virt. eigenvalues --    3.08304   3.08374   3.08923   3.09138   3.09460
 Alpha virt. eigenvalues --    3.09746   3.10075   3.10482   3.10686   3.11023
 Alpha virt. eigenvalues --    3.11334   3.11614   3.11931   3.12123   3.12469
 Alpha virt. eigenvalues --    3.12858   3.13015   3.13336   3.13397   3.13431
 Alpha virt. eigenvalues --    3.13908   3.14175   3.14255   3.14489   3.14611
 Alpha virt. eigenvalues --    3.14957   3.15304   3.15802   3.16034   3.16314
 Alpha virt. eigenvalues --    3.16421   3.16889   3.17221   3.17361   3.17508
 Alpha virt. eigenvalues --    3.17624   3.18191   3.18422   3.18682   3.19007
 Alpha virt. eigenvalues --    3.19275   3.19448   3.19891   3.20494   3.20547
 Alpha virt. eigenvalues --    3.20767   3.21173   3.21302   3.21623   3.21891
 Alpha virt. eigenvalues --    3.22274   3.22474   3.22802   3.22919   3.23338
 Alpha virt. eigenvalues --    3.23447   3.23911   3.24577   3.24736   3.24868
 Alpha virt. eigenvalues --    3.25050   3.25628   3.25780   3.26111   3.26273
 Alpha virt. eigenvalues --    3.26412   3.26783   3.27338   3.27430   3.27647
 Alpha virt. eigenvalues --    3.27871   3.27972   3.28365   3.28590   3.28888
 Alpha virt. eigenvalues --    3.29115   3.29508   3.29923   3.29987   3.30236
 Alpha virt. eigenvalues --    3.30619   3.30894   3.31207   3.31865   3.31982
 Alpha virt. eigenvalues --    3.32119   3.32562   3.32739   3.32919   3.33200
 Alpha virt. eigenvalues --    3.33499   3.33634   3.33868   3.34683   3.34750
 Alpha virt. eigenvalues --    3.35116   3.35491   3.35700   3.36020   3.36912
 Alpha virt. eigenvalues --    3.37140   3.37486   3.37650   3.37903   3.38399
 Alpha virt. eigenvalues --    3.38990   3.39358   3.39662   3.39951   3.40211
 Alpha virt. eigenvalues --    3.40421   3.41136   3.41429   3.41715   3.42326
 Alpha virt. eigenvalues --    3.42642   3.42843   3.43006   3.43647   3.43877
 Alpha virt. eigenvalues --    3.44374   3.44695   3.45062   3.45618   3.45895
 Alpha virt. eigenvalues --    3.46243   3.46378   3.46698   3.47116   3.47406
 Alpha virt. eigenvalues --    3.47846   3.48779   3.48845   3.49272   3.49750
 Alpha virt. eigenvalues --    3.49994   3.50382   3.50726   3.50963   3.51456
 Alpha virt. eigenvalues --    3.51595   3.52007   3.52187   3.52767   3.52979
 Alpha virt. eigenvalues --    3.53611   3.53889   3.54133   3.54633   3.54717
 Alpha virt. eigenvalues --    3.55237   3.55937   3.56342   3.56441   3.57464
 Alpha virt. eigenvalues --    3.57777   3.58472   3.58502   3.58735   3.59246
 Alpha virt. eigenvalues --    3.59620   3.59925   3.60202   3.60971   3.61402
 Alpha virt. eigenvalues --    3.61579   3.61981   3.62033   3.62500   3.63041
 Alpha virt. eigenvalues --    3.63398   3.63887   3.63997   3.64516   3.64705
 Alpha virt. eigenvalues --    3.64773   3.65209   3.65590   3.66447   3.66789
 Alpha virt. eigenvalues --    3.67600   3.67942   3.68222   3.68900   3.69351
 Alpha virt. eigenvalues --    3.70147   3.70707   3.70986   3.71461   3.72024
 Alpha virt. eigenvalues --    3.72284   3.72881   3.73288   3.73317   3.73583
 Alpha virt. eigenvalues --    3.74034   3.74669   3.75210   3.75497   3.75583
 Alpha virt. eigenvalues --    3.76020   3.76706   3.77597   3.78226   3.78502
 Alpha virt. eigenvalues --    3.78817   3.79574   3.79840   3.80521   3.80692
 Alpha virt. eigenvalues --    3.81386   3.81830   3.82611   3.82856   3.83002
 Alpha virt. eigenvalues --    3.83796   3.84185   3.85033   3.85643   3.86266
 Alpha virt. eigenvalues --    3.86641   3.86761   3.87210   3.88352   3.88901
 Alpha virt. eigenvalues --    3.89357   3.90346   3.90554   3.90928   3.91650
 Alpha virt. eigenvalues --    3.91815   3.92417   3.93078   3.93657   3.94567
 Alpha virt. eigenvalues --    3.94989   3.95345   3.95676   3.96686   3.96899
 Alpha virt. eigenvalues --    3.97540   3.98165   3.98232   3.99060   3.99658
 Alpha virt. eigenvalues --    4.00306   4.00685   4.01123   4.01476   4.01742
 Alpha virt. eigenvalues --    4.02443   4.03585   4.03641   4.04528   4.04937
 Alpha virt. eigenvalues --    4.05456   4.06761   4.07099   4.07763   4.08401
 Alpha virt. eigenvalues --    4.08550   4.09033   4.09286   4.10016   4.10392
 Alpha virt. eigenvalues --    4.10594   4.10946   4.11624   4.11800   4.12148
 Alpha virt. eigenvalues --    4.12833   4.13414   4.13638   4.14662   4.16069
 Alpha virt. eigenvalues --    4.16449   4.16858   4.17040   4.17899   4.18851
 Alpha virt. eigenvalues --    4.19597   4.20099   4.20429   4.21217   4.21703
 Alpha virt. eigenvalues --    4.23062   4.23173   4.23519   4.23955   4.24292
 Alpha virt. eigenvalues --    4.24919   4.25424   4.25984   4.26476   4.26668
 Alpha virt. eigenvalues --    4.27035   4.27655   4.27998   4.28700   4.30374
 Alpha virt. eigenvalues --    4.30904   4.30972   4.31989   4.32283   4.32714
 Alpha virt. eigenvalues --    4.32935   4.33472   4.34127   4.35171   4.35264
 Alpha virt. eigenvalues --    4.35905   4.36283   4.37416   4.38191   4.38872
 Alpha virt. eigenvalues --    4.39472   4.40553   4.41047   4.42364   4.42896
 Alpha virt. eigenvalues --    4.43279   4.44413   4.45088   4.45124   4.45519
 Alpha virt. eigenvalues --    4.46471   4.47475   4.47817   4.48944   4.49713
 Alpha virt. eigenvalues --    4.50656   4.51099   4.51262   4.51676   4.52170
 Alpha virt. eigenvalues --    4.52361   4.53177   4.53601   4.54175   4.54731
 Alpha virt. eigenvalues --    4.55159   4.56174   4.56672   4.57492   4.57648
 Alpha virt. eigenvalues --    4.57860   4.58465   4.58968   4.59386   4.60429
 Alpha virt. eigenvalues --    4.61526   4.61735   4.62822   4.63014   4.63582
 Alpha virt. eigenvalues --    4.63868   4.64513   4.65977   4.66432   4.66906
 Alpha virt. eigenvalues --    4.67729   4.68416   4.68556   4.69258   4.70381
 Alpha virt. eigenvalues --    4.70771   4.71322   4.72057   4.72346   4.73486
 Alpha virt. eigenvalues --    4.73992   4.74361   4.74618   4.74884   4.75846
 Alpha virt. eigenvalues --    4.76633   4.76785   4.78036   4.78831   4.79570
 Alpha virt. eigenvalues --    4.80718   4.81003   4.81906   4.82846   4.83422
 Alpha virt. eigenvalues --    4.84719   4.84977   4.85882   4.86792   4.86895
 Alpha virt. eigenvalues --    4.88242   4.88741   4.90750   4.91182   4.91483
 Alpha virt. eigenvalues --    4.92599   4.93780   4.94779   4.95258   4.95894
 Alpha virt. eigenvalues --    4.96741   4.97743   4.97923   4.98946   5.01187
 Alpha virt. eigenvalues --    5.02375   5.03294   5.04338   5.05009   5.05544
 Alpha virt. eigenvalues --    5.06669   5.07696   5.08496   5.09330   5.10192
 Alpha virt. eigenvalues --    5.11036   5.11486   5.12000   5.13611   5.13662
 Alpha virt. eigenvalues --    5.13760   5.14048   5.14279   5.15815   5.16386
 Alpha virt. eigenvalues --    5.16683   5.17988   5.18998   5.19281   5.19683
 Alpha virt. eigenvalues --    5.20611   5.21737   5.22023   5.22971   5.24380
 Alpha virt. eigenvalues --    5.26358   5.27213   5.28268   5.28399   5.29308
 Alpha virt. eigenvalues --    5.29998   5.31935   5.34378   5.34914   5.36156
 Alpha virt. eigenvalues --    5.37212   5.37438   5.38544   5.39687   5.40073
 Alpha virt. eigenvalues --    5.41001   5.42286   5.44813   5.46001   5.46221
 Alpha virt. eigenvalues --    5.47258   5.47917   5.48032   5.48615   5.49501
 Alpha virt. eigenvalues --    5.51748   5.53449   5.55041   5.55174   5.56216
 Alpha virt. eigenvalues --    5.59303   5.59744   5.63099   5.64946   5.70928
 Alpha virt. eigenvalues --    5.71257   5.72007   5.73168   5.74350   5.78075
 Alpha virt. eigenvalues --    5.78364   5.79037   5.80389   5.80489   5.83983
 Alpha virt. eigenvalues --    5.87067   5.87533   5.92359   5.93995   5.94549
 Alpha virt. eigenvalues --    5.95461   5.97390   5.98391   5.99056   5.99454
 Alpha virt. eigenvalues --    6.00217   6.02084   6.06972   6.12032   6.15761
 Alpha virt. eigenvalues --    6.17582   6.18172   6.24846   6.29681   6.30347
 Alpha virt. eigenvalues --    6.34943   6.35288   6.36998   6.38113   6.40414
 Alpha virt. eigenvalues --    6.42900   6.50283   6.57904   6.59856   6.61373
 Alpha virt. eigenvalues --    6.64893   6.78389   6.85416   6.85940   6.91320
 Alpha virt. eigenvalues --    6.94516   6.98740   7.01705   7.05713   7.10971
 Alpha virt. eigenvalues --    7.12936   7.18177   7.19330  22.07115  22.07340
 Alpha virt. eigenvalues --   22.26065  22.31901  22.40918  22.42427  22.43578
 Alpha virt. eigenvalues --   22.45134  22.49387  22.50978  22.51649  22.54042
 Alpha virt. eigenvalues --   22.57060  22.61280  22.62122  22.66246  22.68640
 Alpha virt. eigenvalues --   22.76304  22.92162  22.92244  22.94235  22.96441
 Alpha virt. eigenvalues --   23.06316  23.07932  23.13726  23.14280  23.19295
 Alpha virt. eigenvalues --   23.20778  23.26087  23.34424  23.39741  23.43230
 Alpha virt. eigenvalues --   23.46409  23.49396  23.57601  23.64172  23.65126
 Alpha virt. eigenvalues --   23.76004  32.32480  32.48149  32.65650  32.76067
 Alpha virt. eigenvalues --   32.78448  32.97895  43.85766  43.90499  43.93207
 Alpha virt. eigenvalues --   43.95383
  Beta  occ. eigenvalues -- -256.55114 -30.28429 -26.11841 -26.11485 -26.11463
  Beta  occ. eigenvalues --  -19.32263 -19.31857 -19.25944 -19.25822 -14.55858
  Beta  occ. eigenvalues --  -14.51370 -14.50051 -14.49571 -14.49184 -14.48745
  Beta  occ. eigenvalues --  -10.42768 -10.42647 -10.40100 -10.38944 -10.37471
  Beta  occ. eigenvalues --  -10.37224 -10.36802 -10.36796 -10.36551 -10.36430
  Beta  occ. eigenvalues --  -10.36329 -10.35977 -10.35811 -10.35462 -10.35454
  Beta  occ. eigenvalues --  -10.35049 -10.34200 -10.34076 -10.34066 -10.33524
  Beta  occ. eigenvalues --  -10.33413 -10.33331 -10.33259 -10.33155 -10.32812
  Beta  occ. eigenvalues --  -10.32775 -10.32706 -10.32656 -10.32625 -10.32520
  Beta  occ. eigenvalues --  -10.32026 -10.31153 -10.31056 -10.31017 -10.30943
  Beta  occ. eigenvalues --  -10.30787 -10.30090 -10.28902  -3.57673  -2.32510
  Beta  occ. eigenvalues --   -2.31860  -2.31790  -1.25429  -1.21863  -1.16504
  Beta  occ. eigenvalues --   -1.11506  -1.09346  -1.08570  -1.07136  -1.05934
  Beta  occ. eigenvalues --   -1.04774  -1.01826  -0.95666  -0.94798  -0.93937
  Beta  occ. eigenvalues --   -0.93096  -0.92523  -0.92142  -0.91501  -0.90670
  Beta  occ. eigenvalues --   -0.89071  -0.88565  -0.87283  -0.85402  -0.84318
  Beta  occ. eigenvalues --   -0.83545  -0.83004  -0.82229  -0.81610  -0.81298
  Beta  occ. eigenvalues --   -0.79656  -0.78906  -0.77637  -0.76990  -0.75661
  Beta  occ. eigenvalues --   -0.75445  -0.74753  -0.73111  -0.72857  -0.72360
  Beta  occ. eigenvalues --   -0.71111  -0.70398  -0.67974  -0.67501  -0.66595
  Beta  occ. eigenvalues --   -0.65988  -0.65078  -0.64535  -0.63272  -0.63001
  Beta  occ. eigenvalues --   -0.61558  -0.61209  -0.60852  -0.60151  -0.59907
  Beta  occ. eigenvalues --   -0.59661  -0.58655  -0.58365  -0.58208  -0.58128
  Beta  occ. eigenvalues --   -0.57525  -0.56719  -0.55905  -0.55762  -0.55475
  Beta  occ. eigenvalues --   -0.55281  -0.54955  -0.54702  -0.54216  -0.54024
  Beta  occ. eigenvalues --   -0.53918  -0.53671  -0.53610  -0.53272  -0.53143
  Beta  occ. eigenvalues --   -0.52990  -0.52879  -0.52361  -0.52229  -0.51778
  Beta  occ. eigenvalues --   -0.51551  -0.51451  -0.51028  -0.51001  -0.50536
  Beta  occ. eigenvalues --   -0.50364  -0.50217  -0.49687  -0.49375  -0.49187
  Beta  occ. eigenvalues --   -0.49043  -0.48695  -0.48536  -0.48149  -0.47537
  Beta  occ. eigenvalues --   -0.46922  -0.46824  -0.46435  -0.46113  -0.45549
  Beta  occ. eigenvalues --   -0.45381  -0.45293  -0.44760  -0.44241  -0.44042
  Beta  occ. eigenvalues --   -0.43913  -0.43197  -0.42968  -0.42080  -0.40963
  Beta  occ. eigenvalues --   -0.40316  -0.40150  -0.39967  -0.39172  -0.38410
  Beta  occ. eigenvalues --   -0.37901  -0.36453  -0.35562  -0.35264  -0.34445
  Beta  occ. eigenvalues --   -0.34227  -0.33433  -0.31871  -0.31026  -0.29163
  Beta virt. eigenvalues --   -0.22173  -0.20606  -0.18957  -0.17146  -0.17018
  Beta virt. eigenvalues --   -0.16305  -0.13834  -0.13434  -0.12646  -0.10115
  Beta virt. eigenvalues --   -0.09634  -0.08970  -0.08803  -0.07096  -0.06446
  Beta virt. eigenvalues --   -0.06359  -0.05236  -0.04581  -0.04101  -0.03643
  Beta virt. eigenvalues --   -0.03518  -0.03297  -0.02874  -0.02651  -0.02238
  Beta virt. eigenvalues --   -0.02068  -0.01651  -0.01221  -0.00918  -0.00710
  Beta virt. eigenvalues --   -0.00352  -0.00094   0.00078   0.00237   0.00729
  Beta virt. eigenvalues --    0.01051   0.01225   0.01683   0.01713   0.01810
  Beta virt. eigenvalues --    0.02060   0.02448   0.02642   0.03204   0.03339
  Beta virt. eigenvalues --    0.03425   0.03771   0.03962   0.04096   0.04278
  Beta virt. eigenvalues --    0.04656   0.04779   0.05068   0.05118   0.05282
  Beta virt. eigenvalues --    0.05319   0.05616   0.05906   0.06054   0.06465
  Beta virt. eigenvalues --    0.06727   0.06761   0.06840   0.06992   0.07263
  Beta virt. eigenvalues --    0.07471   0.07978   0.08178   0.08267   0.08642
  Beta virt. eigenvalues --    0.08901   0.09079   0.09536   0.09671   0.10097
  Beta virt. eigenvalues --    0.10323   0.10399   0.10700   0.10814   0.11130
  Beta virt. eigenvalues --    0.11175   0.11517   0.11684   0.11820   0.11986
  Beta virt. eigenvalues --    0.12165   0.12379   0.12653   0.12833   0.13262
  Beta virt. eigenvalues --    0.13390   0.13729   0.13929   0.14160   0.14323
  Beta virt. eigenvalues --    0.14382   0.14955   0.14996   0.15199   0.15522
  Beta virt. eigenvalues --    0.15715   0.15873   0.16296   0.16410   0.16457
  Beta virt. eigenvalues --    0.17019   0.17288   0.17500   0.17569   0.18069
  Beta virt. eigenvalues --    0.18233   0.18321   0.18553   0.18756   0.18897
  Beta virt. eigenvalues --    0.19141   0.19266   0.19311   0.19695   0.20018
  Beta virt. eigenvalues --    0.20206   0.20405   0.20572   0.20895   0.20909
  Beta virt. eigenvalues --    0.21282   0.21413   0.21600   0.21783   0.22036
  Beta virt. eigenvalues --    0.22419   0.22715   0.22883   0.23026   0.23112
  Beta virt. eigenvalues --    0.23317   0.23486   0.23807   0.23996   0.24391
  Beta virt. eigenvalues --    0.24612   0.24735   0.24930   0.25201   0.25387
  Beta virt. eigenvalues --    0.25671   0.26006   0.26132   0.26435   0.26738
  Beta virt. eigenvalues --    0.27028   0.27385   0.27503   0.27664   0.27890
  Beta virt. eigenvalues --    0.27967   0.28313   0.28393   0.28613   0.29010
  Beta virt. eigenvalues --    0.29160   0.29575   0.29936   0.30223   0.30314
  Beta virt. eigenvalues --    0.30479   0.30668   0.31171   0.31255   0.31546
  Beta virt. eigenvalues --    0.31829   0.31923   0.32089   0.32140   0.32425
  Beta virt. eigenvalues --    0.32628   0.32808   0.33015   0.33330   0.33602
  Beta virt. eigenvalues --    0.33828   0.34131   0.34185   0.34509   0.34770
  Beta virt. eigenvalues --    0.35084   0.35306   0.35531   0.35809   0.35943
  Beta virt. eigenvalues --    0.36016   0.36343   0.36462   0.36486   0.36590
  Beta virt. eigenvalues --    0.36967   0.37269   0.37279   0.37584   0.37913
  Beta virt. eigenvalues --    0.38110   0.38296   0.38380   0.38477   0.38523
  Beta virt. eigenvalues --    0.38906   0.39164   0.39309   0.39667   0.39710
  Beta virt. eigenvalues --    0.40002   0.40222   0.40430   0.40579   0.40720
  Beta virt. eigenvalues --    0.40881   0.41075   0.41277   0.41371   0.41492
  Beta virt. eigenvalues --    0.41684   0.41918   0.42128   0.42303   0.42665
  Beta virt. eigenvalues --    0.42824   0.42988   0.43231   0.43378   0.43621
  Beta virt. eigenvalues --    0.43829   0.44221   0.44308   0.44482   0.44632
  Beta virt. eigenvalues --    0.44901   0.44934   0.45041   0.45356   0.45593
  Beta virt. eigenvalues --    0.45712   0.46226   0.46247   0.46406   0.46598
  Beta virt. eigenvalues --    0.47232   0.47512   0.47531   0.47779   0.47939
  Beta virt. eigenvalues --    0.48277   0.48541   0.48650   0.48943   0.49165
  Beta virt. eigenvalues --    0.49246   0.49400   0.49885   0.50083   0.50348
  Beta virt. eigenvalues --    0.50527   0.50675   0.50937   0.51124   0.51559
  Beta virt. eigenvalues --    0.51863   0.52031   0.52269   0.52494   0.52664
  Beta virt. eigenvalues --    0.52730   0.53123   0.53320   0.53923   0.54247
  Beta virt. eigenvalues --    0.54417   0.54569   0.54841   0.55073   0.55289
  Beta virt. eigenvalues --    0.55565   0.56149   0.56334   0.56711   0.57138
  Beta virt. eigenvalues --    0.57239   0.57379   0.57584   0.57913   0.58064
  Beta virt. eigenvalues --    0.58292   0.58763   0.59026   0.59161   0.59305
  Beta virt. eigenvalues --    0.59827   0.59959   0.60249   0.60703   0.60841
  Beta virt. eigenvalues --    0.61143   0.61298   0.61713   0.62536   0.62578
  Beta virt. eigenvalues --    0.62868   0.62980   0.63069   0.63229   0.63848
  Beta virt. eigenvalues --    0.64192   0.64372   0.64723   0.64893   0.65015
  Beta virt. eigenvalues --    0.65422   0.65872   0.66069   0.66336   0.66520
  Beta virt. eigenvalues --    0.66770   0.67061   0.67598   0.67776   0.68287
  Beta virt. eigenvalues --    0.68444   0.68898   0.69012   0.69278   0.69403
  Beta virt. eigenvalues --    0.69785   0.70242   0.70421   0.70677   0.70831
  Beta virt. eigenvalues --    0.70957   0.71598   0.71925   0.72264   0.72542
  Beta virt. eigenvalues --    0.72791   0.73372   0.73589   0.74018   0.74221
  Beta virt. eigenvalues --    0.74548   0.74889   0.75210   0.75489   0.75817
  Beta virt. eigenvalues --    0.76385   0.76661   0.77073   0.77379   0.77776
  Beta virt. eigenvalues --    0.77892   0.78054   0.78656   0.78919   0.79157
  Beta virt. eigenvalues --    0.79666   0.79805   0.80093   0.80311   0.80673
  Beta virt. eigenvalues --    0.81219   0.81307   0.81571   0.81772   0.81997
  Beta virt. eigenvalues --    0.82359   0.82458   0.83024   0.83272   0.83503
  Beta virt. eigenvalues --    0.83693   0.83913   0.84251   0.84463   0.85026
  Beta virt. eigenvalues --    0.85205   0.85357   0.85627   0.86016   0.86313
  Beta virt. eigenvalues --    0.86653   0.87004   0.87099   0.87303   0.87744
  Beta virt. eigenvalues --    0.88158   0.88597   0.88652   0.89025   0.89401
  Beta virt. eigenvalues --    0.89637   0.89912   0.90006   0.90258   0.90731
  Beta virt. eigenvalues --    0.90998   0.91118   0.91295   0.92122   0.92228
  Beta virt. eigenvalues --    0.92363   0.92561   0.92860   0.92983   0.93317
  Beta virt. eigenvalues --    0.93866   0.93950   0.94583   0.95064   0.95314
  Beta virt. eigenvalues --    0.95749   0.95950   0.96688   0.96950   0.97108
  Beta virt. eigenvalues --    0.97258   0.97813   0.97851   0.98575   0.98650
  Beta virt. eigenvalues --    0.98886   0.99253   0.99604   0.99720   1.00240
  Beta virt. eigenvalues --    1.00456   1.01025   1.01397   1.01938   1.02194
  Beta virt. eigenvalues --    1.02620   1.02842   1.03049   1.03762   1.04202
  Beta virt. eigenvalues --    1.04384   1.04819   1.05022   1.05436   1.05670
  Beta virt. eigenvalues --    1.06225   1.06804   1.07055   1.07188   1.07791
  Beta virt. eigenvalues --    1.08058   1.08649   1.09106   1.09223   1.09315
  Beta virt. eigenvalues --    1.09528   1.10419   1.11051   1.11249   1.11426
  Beta virt. eigenvalues --    1.11790   1.12244   1.12319   1.12659   1.13279
  Beta virt. eigenvalues --    1.13525   1.14148   1.14522   1.14615   1.14768
  Beta virt. eigenvalues --    1.15143   1.15473   1.15768   1.16159   1.16561
  Beta virt. eigenvalues --    1.16960   1.17607   1.17955   1.18335   1.18795
  Beta virt. eigenvalues --    1.19337   1.19658   1.19895   1.20416   1.20694
  Beta virt. eigenvalues --    1.21028   1.21407   1.21624   1.22205   1.22604
  Beta virt. eigenvalues --    1.22837   1.23110   1.23471   1.23690   1.24683
  Beta virt. eigenvalues --    1.24919   1.25228   1.25514   1.26022   1.26307
  Beta virt. eigenvalues --    1.27205   1.27466   1.27530   1.28228   1.28740
  Beta virt. eigenvalues --    1.29176   1.30144   1.30299   1.30577   1.31192
  Beta virt. eigenvalues --    1.31744   1.31933   1.32348   1.32419   1.33077
  Beta virt. eigenvalues --    1.33298   1.33736   1.34022   1.34751   1.34883
  Beta virt. eigenvalues --    1.35287   1.35651   1.35792   1.36168   1.36735
  Beta virt. eigenvalues --    1.37176   1.37278   1.37532   1.38088   1.38626
  Beta virt. eigenvalues --    1.38772   1.39078   1.39404   1.39730   1.40065
  Beta virt. eigenvalues --    1.40403   1.40657   1.40873   1.41235   1.41914
  Beta virt. eigenvalues --    1.42137   1.42172   1.42487   1.43017   1.43312
  Beta virt. eigenvalues --    1.43641   1.44077   1.44172   1.44509   1.44740
  Beta virt. eigenvalues --    1.44751   1.45302   1.45730   1.46099   1.46152
  Beta virt. eigenvalues --    1.46328   1.46834   1.47227   1.47425   1.47646
  Beta virt. eigenvalues --    1.48106   1.48152   1.48557   1.48867   1.49198
  Beta virt. eigenvalues --    1.49482   1.49841   1.50072   1.50282   1.50487
  Beta virt. eigenvalues --    1.50724   1.51168   1.51361   1.51734   1.51848
  Beta virt. eigenvalues --    1.52340   1.52437   1.52709   1.53052   1.53079
  Beta virt. eigenvalues --    1.53219   1.53617   1.53853   1.54865   1.54981
  Beta virt. eigenvalues --    1.55174   1.55571   1.55794   1.56108   1.56400
  Beta virt. eigenvalues --    1.56619   1.56899   1.57146   1.57528   1.57889
  Beta virt. eigenvalues --    1.58387   1.58595   1.58804   1.59236   1.59653
  Beta virt. eigenvalues --    1.60036   1.60400   1.60844   1.60868   1.61146
  Beta virt. eigenvalues --    1.61396   1.61659   1.62279   1.62560   1.63011
  Beta virt. eigenvalues --    1.63229   1.63594   1.63681   1.64006   1.64635
  Beta virt. eigenvalues --    1.65099   1.65496   1.65770   1.66194   1.66386
  Beta virt. eigenvalues --    1.66442   1.66759   1.67546   1.68080   1.68462
  Beta virt. eigenvalues --    1.68786   1.69432   1.69665   1.70334   1.70458
  Beta virt. eigenvalues --    1.71059   1.71455   1.71828   1.72319   1.73027
  Beta virt. eigenvalues --    1.73474   1.73709   1.73797   1.74325   1.74452
  Beta virt. eigenvalues --    1.75001   1.75592   1.75740   1.75864   1.76188
  Beta virt. eigenvalues --    1.76539   1.77145   1.77659   1.77954   1.78117
  Beta virt. eigenvalues --    1.78651   1.78881   1.79188   1.79354   1.79781
  Beta virt. eigenvalues --    1.80643   1.80876   1.81204   1.81417   1.81631
  Beta virt. eigenvalues --    1.82346   1.82957   1.83097   1.83399   1.83935
  Beta virt. eigenvalues --    1.84167   1.84179   1.84383   1.85324   1.85627
  Beta virt. eigenvalues --    1.86139   1.86389   1.86835   1.86955   1.87134
  Beta virt. eigenvalues --    1.87877   1.88293   1.88811   1.89254   1.89347
  Beta virt. eigenvalues --    1.89718   1.89913   1.90515   1.90785   1.91093
  Beta virt. eigenvalues --    1.91539   1.91744   1.92400   1.92715   1.92912
  Beta virt. eigenvalues --    1.93353   1.94066   1.94554   1.95227   1.95379
  Beta virt. eigenvalues --    1.95695   1.96081   1.96520   1.96592   1.97180
  Beta virt. eigenvalues --    1.97698   1.98046   1.98482   1.98553   1.98925
  Beta virt. eigenvalues --    1.99415   1.99506   2.00214   2.00625   2.00917
  Beta virt. eigenvalues --    2.01629   2.01833   2.02098   2.02336   2.02814
  Beta virt. eigenvalues --    2.03484   2.03762   2.04274   2.04421   2.04560
  Beta virt. eigenvalues --    2.04825   2.05058   2.05780   2.06069   2.06411
  Beta virt. eigenvalues --    2.06868   2.07499   2.07907   2.08063   2.08341
  Beta virt. eigenvalues --    2.08691   2.09098   2.09378   2.10092   2.10702
  Beta virt. eigenvalues --    2.10730   2.11306   2.11439   2.11981   2.12338
  Beta virt. eigenvalues --    2.12699   2.13326   2.13451   2.14023   2.14525
  Beta virt. eigenvalues --    2.14663   2.15242   2.15544   2.15908   2.16285
  Beta virt. eigenvalues --    2.16686   2.17500   2.17991   2.18900   2.19263
  Beta virt. eigenvalues --    2.19682   2.20004   2.20330   2.20667   2.20934
  Beta virt. eigenvalues --    2.21200   2.21679   2.21797   2.22805   2.23224
  Beta virt. eigenvalues --    2.24109   2.24319   2.24703   2.24959   2.25529
  Beta virt. eigenvalues --    2.25970   2.26283   2.26471   2.27004   2.27706
  Beta virt. eigenvalues --    2.28133   2.28226   2.28569   2.28961   2.29320
  Beta virt. eigenvalues --    2.29694   2.29909   2.30418   2.30490   2.31267
[...]
  1539. RY*(   5) H  65                  0.00000     2.93527   
  1540. RY*(   1) H  66                  0.00018     1.35417   
  1541. RY*(   2) H  66                  0.00007     1.64436   
  1542. RY*(   3) H  66                  0.00004     2.13154   
  1543. RY*(   4) H  66                  0.00004     2.04632   
  1544. RY*(   5) H  66                  0.00001     2.97393   
  1545. RY*(   1) H  67                  0.00030     0.81454   
  1546. RY*(   2) H  67                  0.00010     1.63982   
  1547. RY*(   3) H  67                  0.00005     2.13358   
  1548. RY*(   4) H  67                  0.00003     2.32762   
  1549. RY*(   5) H  67                  0.00001     2.95722   
  1550. RY*(   1) H  68                  0.00019     1.10742   
  1551. RY*(   2) H  68                  0.00009     1.88559   
  1552. RY*(   3) H  68                  0.00004     2.07672   
  1553. RY*(   4) H  68                  0.00002     1.65289   
  1554. RY*(   5) H  68                  0.00000     2.87062   
  1555. RY*(   1) H  69                  0.00037     0.78600   
  1556. RY*(   2) H  69                  0.00007     1.74764   
  1557. RY*(   3) H  69                  0.00005     1.98689   
  1558. RY*(   4) H  69                  0.00003     2.08348   
  1559. RY*(   5) H  69                  0.00000     2.91546   
  1560. RY*(   1) H  70                  0.00031     0.92698   
  1561. RY*(   2) H  70                  0.00008     1.66989   
  1562. RY*(   3) H  70                  0.00004     2.06953   
  1563. RY*(   4) H  70                  0.00002     1.86675   
  1564. RY*(   5) H  70                  0.00001     2.87582   
  1565. RY*(   1) H  71                  0.00094     0.90420   
  1566. RY*(   2) H  71                  0.00017     2.13157   
  1567. RY*(   3) H  71                  0.00013     2.16736   
  1568. RY*(   4) H  71                  0.00007     2.92734   
  1569. RY*(   5) H  71                  0.00001     3.26165   
  1570. RY*(   1) H  72                  0.00079     0.63130   
  1571. RY*(   2) H  72                  0.00015     2.02057   
  1572. RY*(   3) H  72                  0.00011     2.16802   
  1573. RY*(   4) H  72                  0.00007     2.77932   
  1574. RY*(   5) H  72                  0.00000     3.08775   
  1575. RY*(   1) H  73                  0.00019     1.42104   
  1576. RY*(   2) H  73                  0.00006     1.29703   
  1577. RY*(   3) H  73                  0.00005     2.16449   
  1578. RY*(   4) H  73                  0.00003     2.33005   
  1579. RY*(   5) H  73                  0.00000     2.95906   
  1580. RY*(   1) H  74                  0.00034     0.95998   
  1581. RY*(   2) H  74                  0.00009     1.55192   
  1582. RY*(   3) H  74                  0.00005     2.20476   
  1583. RY*(   4) H  74                  0.00003     2.34668   
  1584. RY*(   5) H  74                  0.00000     2.95187   
  1585. RY*(   1) H  75                  0.00035     0.94240   
  1586. RY*(   2) H  75                  0.00010     1.51491   
  1587. RY*(   3) H  75                  0.00005     2.15424   
  1588. RY*(   4) H  75                  0.00002     2.52613   
  1589. RY*(   5) H  75                  0.00001     2.79166   
  1590. RY*(   1) H  76                  0.00016     1.30167   
  1591. RY*(   2) H  76                  0.00007     1.82869   
  1592. RY*(   3) H  76                  0.00002     2.01637   
  1593. RY*(   4) H  76                  0.00002     1.24141   
  1594. RY*(   5) H  76                  0.00000     2.84605   
  1595. RY*(   1) H  77                  0.00024     1.21676   
  1596. RY*(   2) H  77                  0.00007     1.79722   
  1597. RY*(   3) H  77                  0.00003     1.91453   
  1598. RY*(   4) H  77                  0.00002     1.44721   
  1599. RY*(   5) H  77                  0.00000     2.83308   
  1600. RY*(   1) H  78                  0.00019     1.24059   
  1601. RY*(   2) H  78                  0.00006     1.66892   
  1602. RY*(   3) H  78                  0.00004     1.97929   
  1603. RY*(   4) H  78                  0.00002     1.50800   
  1604. RY*(   5) H  78                  0.00000     2.84879   
  1605. RY*(   1) H  79                  0.00021     0.80969   
  1606. RY*(   2) H  79                  0.00013     2.11225   
  1607. RY*(   3) H  79                  0.00010     2.00483   
  1608. RY*(   4) H  79                  0.00002     2.54901   
  1609. RY*(   5) H  79                  0.00000     2.89358   
  1610. RY*(   1) H  80                  0.00031     0.62266   
  1611. RY*(   2) H  80                  0.00015     2.24832   
  1612. RY*(   3) H  80                  0.00008     2.10830   
  1613. RY*(   4) H  80                  0.00002     2.49011   
  1614. RY*(   5) H  80                  0.00000     3.00205   
  1615. RY*(   1) H  81                  0.00026     2.08843   
  1616. RY*(   2) H  81                  0.00021     2.03014   
  1617. RY*(   3) H  81                  0.00010     2.50499   
  1618. RY*(   4) H  81                  0.00008     1.16907   
  1619. RY*(   5) H  81                  0.00000     2.99521   
  1620. RY*(   1) H  82                  0.00027     1.45018   
  1621. RY*(   2) H  82                  0.00013     0.95629   
  1622. RY*(   3) H  82                  0.00008     1.92455   
  1623. RY*(   4) H  82                  0.00005     2.26548   
  1624. RY*(   5) H  82                  0.00001     2.93704   
  1625. RY*(   1) H  83                  0.00018     1.58356   
  1626. RY*(   2) H  83                  0.00007     1.51271   
  1627. RY*(   3) H  83                  0.00004     1.50252   
  1628. RY*(   4) H  83                  0.00000     1.77271   
  1629. RY*(   5) H  83                  0.00001     2.61646   
  1630. RY*(   1) H  84                  0.00027     1.48598   
  1631. RY*(   2) H  84                  0.00009     1.72805   
  1632. RY*(   3) H  84                  0.00007     2.04147   
  1633. RY*(   4) H  84                  0.00002     2.61331   
  1634. RY*(   5) H  84                  0.00001     1.71059   
  1635. RY*(   1) H  85                  0.00030     1.81251   
  1636. RY*(   2) H  85                  0.00015     1.69322   
  1637. RY*(   3) H  85                  0.00008     0.83838   
  1638. RY*(   4) H  85                  0.00005     2.20145   
  1639. RY*(   5) H  85                  0.00001     2.86350   
  1640. RY*(   1) H  86                  0.00059     0.87379   
  1641. RY*(   2) H  86                  0.00006     1.57487   
  1642. RY*(   3) H  86                  0.00003     2.69833   
  1643. RY*(   4) H  86                  0.00004     2.06783   
  1644. RY*(   5) H  86                  0.00001     1.87259   
  1645. RY*(   1) H  87                  0.00040     1.01285   
  1646. RY*(   2) H  87                  0.00007     1.52571   
  1647. RY*(   3) H  87                  0.00002     2.19076   
  1648. RY*(   4) H  87                  0.00001     2.42936   
  1649. RY*(   5) H  87                  0.00000     1.79858   
  1650. BD*(   1) C   1 - C   2          0.00616     0.26621   
  1651. BD*(   1) C   1 - H  76          0.00263     0.30336   
  1652. BD*(   1) C   1 - H  77          0.00412     0.30193   
  1653. BD*(   1) C   1 - H  78          0.00169     0.29784   
  1654. BD*(   1) C   2 - N   3          0.01342     0.31400   
  1655. BD*(   2) C   2 - N   3          0.37645    -0.15341  1660(v),170(v),1652(v)
                                                    212(g),237(g),1651(v),268(v)
                                                    186(v)
  1656. BD*(   1) C   2 - C   4          0.00907     0.45700   
  1657. BD*(   1) N   3 - C   5          0.01101     0.34295   
  1658. BD*(   1) N   3 - H  81          0.00663     0.28683   
  1659. BD*(   1) C   4 - N   6          0.00798     0.28909   
  1660. BD*(   2) C   4 - N   6          0.34985    -0.14329  1655(v),170(v),1666(v)
                                                    264(g),1668(v),316(g)
                                                    1670(v),290(v)
  1661. BD*(   1) C   4 - H  79          0.00562     0.31700   
  1662. BD*(   1) C   5 - N   6          0.00632     0.40669   
  1663. BD*(   1) C   5 - H  80          0.00847     0.27881   
  1664. BD*(   1) N   6 -Fe   7          0.01719     0.12940   
  1665. BD*(   1)Fe   7 - N  12          0.03153     0.25296   
  1666. BD*(   2)Fe   7 - N  12          0.06632    -0.14064   
  1667. BD*(   1)Fe   7 - N  23          0.03849     0.21673   
  1668. BD*(   2)Fe   7 - N  23          0.07229    -0.09043   
  1669. BD*(   1)Fe   7 - N  31          0.03216     0.26525   
  1670. BD*(   1)Fe   7 - N  39          0.04996    -0.06004   
  1671. BD*(   1) C   8 - C  13          0.00786     0.39175   
  1672. BD*(   2) C   8 - C  13          0.16547    -0.07598  1691(v),180(v),1666(v)
                                                    369(g),502(g)
  1673. BD*(   1) C   8 - C  43          0.01032     0.30703   
  1674. BD*(   1) C   8 - H  55          0.00484     0.35169   
  1675. BD*(   1) C   9 - C  16          0.01333     0.38242   
  1676. BD*(   1) C   9 - C  24          0.00893     0.59345   
  1677. BD*(   2) C   9 - C  24          0.14790    -0.03831  1712(v),173(v),1668(v)
                                                    1680(r),394(g),788(g)
  1678. BD*(   1) C   9 - H  64          0.00765     0.34157   
  1679. BD*(   1) C  10 - C  27          0.00937     0.56361   
  1680. BD*(   2) C  10 - C  27          0.16014    -0.04232  1712(v),1725(v),1668(v)
                                                    1677(r),420(g),866(g)
  1681. BD*(   1) C  10 - C  32          0.01113     0.46234   
  1682. BD*(   1) C  10 - H  71          0.00916     0.35663   
  1683. BD*(   1) C  11 - C  35          0.01260     0.36789   
  1684. BD*(   1) C  11 - C  40          0.00908     0.62399   
  1685. BD*(   2) C  11 - C  40          0.14483    -0.03452  1745(v),1670(v),447(g)
                                                    1204(g),1202(g)
  1686. BD*(   1) C  11 - H  72          0.00857     0.34043   
  1687. BD*(   1) N  12 - C  13          0.01734     0.24036   
  1688. BD*(   1) N  12 - C  16          0.01159     0.41037   
  1689. BD*(   1) C  13 - C  14          0.01195     0.40839   
  1690. BD*(   1) C  14 - C  15          0.01052     0.45095   
  1691. BD*(   2) C  14 - C  15          0.13090    -0.04364  1672(v),173(v),1699(v)
                                                    1697(v)
  1692. BD*(   1) C  14 - C  18          0.01396     0.27142   
  1693. BD*(   1) C  15 - C  16          0.01326     0.44049   
  1694. BD*(   1) C  15 - C  17          0.00892     0.23123   
  1695. BD*(   1) C  17 - H  61          0.00320     0.32678   
  1696. BD*(   1) C  17 - H  62          0.00253     0.33776   
  1697. BD*(   1) C  17 - H  63          0.00334     0.31892   
  1698. BD*(   1) C  18 - C  19          0.00608     0.45205   
  1699. BD*(   1) C  18 - H  56          0.01129     0.33740   
  1700. BD*(   1) C  18 - H  57          0.00848     0.32691   
  1701. BD*(   1) C  19 - C  20          0.03707     0.31935   
  1702. BD*(   1) C  19 - H  58          0.01176     0.32771   
  1703. BD*(   1) C  19 - H  59          0.00970     0.31889   
  1704. BD*(   1) C  20 - O  21          0.03737     0.37657   
  1705. BD*(   1) C  20 - O  22          0.02795     0.38710   
  1706. BD*(   2) C  20 - O  22          0.08673    -0.05662   
  1707. BD*(   1) O  21 - H  60          0.00640     0.31366   
  1708. BD*(   1) N  23 - C  24          0.01968     0.23381   
  1709. BD*(   1) N  23 - C  27          0.01250     0.33625   
  1710. BD*(   1) C  24 - C  25          0.01647     0.44204   
  1711. BD*(   1) C  25 - C  26          0.00863     0.56197   
  1712. BD*(   2) C  25 - C  26          0.11826    -0.02593  1677(v),1680(v),1720(v)
                                                    838(g),1718(v),812(g)
                                                    1716(v)
  1713. BD*(   1) C  25 - C  28          0.00968     0.27226   
  1714. BD*(   1) C  26 - C  27          0.02021     0.29752   
  1715. BD*(   1) C  26 - C  29          0.01091     0.29835   
  1716. BD*(   1) C  28 - H  65          0.00298     0.31891   
  1717. BD*(   1) C  28 - H  66          0.00266     0.32091   
  1718. BD*(   1) C  28 - H  67          0.00372     0.31430   
  1719. BD*(   1) C  29 - C  30          0.00223     0.27367   
  1720. BD*(   2) C  29 - C  30          0.02945    -0.09667   
  1721. BD*(   1) C  29 - H  82          0.00422     0.36153   
  1722. BD*(   1) C  30 - H  83          0.00189     0.36258   
  1723. BD*(   1) C  30 - H  84          0.00327     0.36421   
  1724. BD*(   1) N  31 - C  32          0.01397     0.36971   
  1725. BD*(   2) N  31 - C  32          0.32711    -0.11182  1680(v),1729(v),1668(v)
                                                    1666(v),1670(v),993(g)
                                                    967(g),420(v)
  1726. BD*(   1) N  31 - C  35          0.01483     0.32321   
  1727. BD*(   1) C  32 - C  33          0.01595     0.36373   
  1728. BD*(   1) C  33 - C  34          0.01210     0.61131   
  1729. BD*(   2) C  33 - C  34          0.13950    -0.01708  1725(v),1737(v),1020(g)
                                                    1735(v),1738(v),1736(v)
  1730. BD*(   1) C  33 - C  36          0.00997     0.20802   
  1731. BD*(   1) C  34 - C  35          0.01490     0.44640   
  1732. BD*(   1) C  34 - C  37          0.01755     0.21784   
  1733. BD*(   1) C  36 - H  68          0.00160     0.32376   
  1734. BD*(   1) C  36 - H  69          0.00224     0.32917   
  1735. BD*(   1) C  36 - H  70          0.00315     0.32569   
  1736. BD*(   1) C  37 - C  38          0.00458     0.26457   
  1737. BD*(   2) C  37 - C  38          0.02288    -0.07798   
  1738. BD*(   1) C  37 - H  85          0.00451     0.34695   
  1739. BD*(   1) C  38 - H  86          0.00300     0.34503   
  1740. BD*(   1) C  38 - H  87          0.00279     0.34760   
  1741. BD*(   1) N  39 - C  40          0.01752     0.24192   
  1742. BD*(   1) N  39 - C  43          0.01432     0.22200   
  1743. BD*(   1) C  40 - C  41          0.02154     0.32843   
  1744. BD*(   1) C  41 - C  42          0.01031     0.55849   
  1745. BD*(   2) C  41 - C  42          0.10992    -0.03070  1685(v),180(v),1751(v)
                                                    1752(v),1750(v),1228(g)
  1746. BD*(   1) C  41 - C  44          0.00902     0.33983   
  1747. BD*(   1) C  42 - C  43          0.01345     0.34990   
  1748. BD*(   1) C  42 - C  45          0.01245     0.20271   
  1749. BD*(   1) C  44 - H  73          0.00311     0.31023   
  1750. BD*(   1) C  44 - H  74          0.00361     0.31035   
  1751. BD*(   1) C  44 - H  75          0.00476     0.30819   
  1752. BD*(   1) C  45 - C  46          0.01211     0.22625   
  1753. BD*(   1) C  45 - H  53          0.00647     0.32679   
  1754. BD*(   1) C  45 - H  54          0.00449     0.32970   
  1755. BD*(   1) C  46 - C  47          0.04143     0.29704   
  1756. BD*(   1) C  46 - H  51          0.00560     0.29094   
  1757. BD*(   1) C  46 - H  52          0.00707     0.29748   
  1758. BD*(   1) C  47 - O  48          0.03287     0.47495   
  1759. BD*(   1) C  47 - O  49          0.02410     0.52141   
  1760. BD*(   2) C  47 - O  49          0.08308    -0.08756   
  1761. BD*(   1) O  48 - H  50          0.00678     0.30228   
       -------------------------------
              Total Lewis  174.95377  ( 97.1965%)
        Valence non-Lewis    4.73713  (  2.6317%)
        Rydberg non-Lewis    0.30911  (  0.1717%)
       -------------------------------
            Total unit  1  180.00000  (100.0000%)
           Charge unit  1    3.00000
 1\1\GINC-NODE678\SP\UPBE1PBE\def2TZVP\C38H38Fe1N6O4(1+,6)\ZHARTOVSKA\0
 8-Nov-2022\0\\# PBE1PBE/def2TZVP empiricaldispersion=GD3BJ int=(grid=u
 ltrafine) geom=check pop=nbo\\1drm_III_H\\1,6\C,0,48.068001,60.623001,
 29.973\C,0,48.181,59.849998,31.268\N,0,47.933998,60.384998,32.516998\C
 ,0,48.473,58.541,31.49\C,0,48.068001,59.411999,33.443001\N,0,48.400002
 ,58.257,32.889999\Fe,0,48.765999,56.499001,34.030998\C,0,45.678001,55.
 007999,33.291\C,0,50.331001,55.000999,31.341999\C,0,51.877998,57.23099
 9,35.203999\C,0,47.299,57.897999,36.900002\N,0,48.188,55.292999,32.580
 002\C,0,46.804001,54.751999,32.449001\C,0,46.826,53.873001,31.332001\C
 ,0,48.123001,53.901001,30.809999\C,0,48.922001,54.757999,31.573\C,0,48
 .710999,53.084,29.59\C,0,45.639999,52.916,31.042\C,0,45.424,52.798,29.
 694\C,0,44.573002,51.631001,29.422001\O,0,43.542,51.953999,28.733\O,0,
 44.916,50.459,29.83\N,0,50.624001,56.294998,33.435001\C,0,51.097,55.62
 2002,32.187\C,0,52.467999,55.814999,31.962999\C,0,52.971001,56.416,33.
 016998\C,0,51.838001,56.742001,33.980999\C,0,53.264999,55.367001,30.73
 6\C,0,54.458,56.728001,33.074001\C,0,55.09693339,57.19376978,34.395524
 2\N,0,49.436001,57.335999,35.605\C,0,50.751999,57.528,35.959\C,0,50.81
 9,58.118,37.297001\C,0,49.610001,58.249001,37.731998\C,0,48.743,57.799
 ,36.740002\C,0,52.186001,58.487999,38.056999\C,0,48.980999,58.606998,3
 9.147999\C,0,49.32857166,59.94369725,39.82919527\N,0,47.058998,56.5639
 99,34.905998\C,0,46.537998,57.237,36.117001\C,0,45.07,57.032001,36.300
 999\C,0,44.625,56.328999,35.282001\C,0,45.769001,55.956001,34.452999\C
 ,0,44.231998,57.564999,37.375999\C,0,43.164001,55.853001,34.801998\C,0
 ,42.825001,54.415001,35.34\C,0,42.188999,53.115002,35.033001\O,0,42.54
 9,52.308998,35.884998\O,0,42.134998,52.839001,33.841\H,0,43.4846353,52
 .16130555,36.04111822\H,0,43.80326767,54.08387538,35.61973226\H,0,42.3
 0710607,54.66908985,36.24117906\H,0,43.13313015,55.84277089,33.7324923
 5\H,0,42.43333071,56.5443519,35.16676487\H,0,44.75046246,54.51403329,3
 3.08957971\H,0,45.85972007,51.95091072,31.4484792\H,0,44.75640512,53.3
 0046253,31.50713484\H,0,46.36202809,52.67753947,29.19350768\H,0,44.940
 28785,53.68168899,29.33342224\H,0,43.64950944,52.35892198,27.86924129\
 H,0,49.65462918,52.66138077,29.865418\H,0,48.03255864,52.299936,29.325
 68518\H,0,48.84359391,53.73797639,28.75355904\H,0,50.76309554,54.65077
 001,30.42792353\H,0,54.19655882,54.9448365,31.05044146\H,0,52.70498256
 ,54.63270141,30.19555047\H,0,53.45077069,56.21019528,30.10400927\H,0,5
 2.94883066,58.69836102,37.3367638\H,0,52.02988441,59.34887937,38.67296
 376\H,0,52.48935753,57.66308038,38.66723181\H,0,52.83769674,57.4101103
 3,35.64194586\H,0,46.88066238,58.5178466,37.66530102\H,0,44.74403567,5
 8.36900803,37.86209251\H,0,43.31151685,57.9245862,36.96574117\H,0,44.0
 2777626,56.79107885,38.08609835\H,0,48.91256188,60.40564405,29.3530218
 8\H,0,47.17014309,60.33873095,29.46512037\H,0,48.04135249,61.67151902,
 30.18465967\H,0,48.72058404,57.82910785,30.73051879\H,0,47.92368984,59
 .55686386,34.49328118\H,0,47.6949062,61.33766942,32.7047539\H,0,55.060
 52685,56.6239501,32.19591512\H,0,56.16202967,57.22778249,34.49202827\H
 ,0,54.47577134,57.48337564,35.21722132\H,0,48.31627702,57.91913223,39.
 62746263\H,0,50.35205681,60.22173043,39.97088396\H,0,48.54658178,60.59
 440966,40.16080529\\Version=ES64L-G16RevA.03\State=6-A\HF=-3361.781684
 1\S2=9.244101\S2-1=0.\S2A=8.765019\RMSD=8.704e-09\Dipole=1.675031,4.75
 67506,-0.1699652\Quadrupole=-1.1796549,-24.5387573,25.7184122,-13.2499
 495,-9.4361943,2.5730696\PG=C01 [X(C38H38Fe1N6O4)]\\@


      LET US REMEMBER, PLEASE, THAT THE SEARCH FOR THE CONSTITUTION
      OF THE WORLD IS ONE OF THE GREATEST AND NOBLEST PROBLEMS PRESENTED 
      BY NATURE.

                                                  -- GALILEO
 Job cpu time:       2 days 18 hours 11 minutes  2.6 seconds.
 Elapsed time:       0 days 16 hours 36 minutes  5.0 seconds.
 File lengths (MBytes):  RWF=   2849 Int=      0 D2E=      0 Chk=    238 Scr=      1
 Normal termination of Gaussian 16 at Tue Nov  8 02:26:34 2022.
