 Entering Gaussian System, Link 0=g16
 Input=/net/homes/chemie/zhartovska/work/BioModel/Konrad/1drm/1drm05/1drm05.com
 Output=/net/homes/chemie/zhartovska/work/BioModel/Konrad/1drm/1drm05/1drm05.log
 Initial command:
 /afs/math/software/gaussian/g16.A03/g16/l1.exe "/scratch/zhartovska_gaussian.htfq5FQ/Gau-15920.inp" -scrdir="/scratch/zhartovska_gaussian.htfq5FQ/"
 Entering Link 1 = /afs/math/software/gaussian/g16.A03/g16/l1.exe PID=     15921.
  
 Copyright (c) 1988,1990,1992,1993,1995,1998,2003,2009,2016,
            Gaussian, Inc.  All Rights Reserved.
  
 This is part of the Gaussian(R) 16 program.  It is based on
 the Gaussian(R) 09 system (copyright 2009, Gaussian, Inc.),
 the Gaussian(R) 03 system (copyright 2003, Gaussian, Inc.),
 the Gaussian(R) 98 system (copyright 1998, Gaussian, Inc.),
 the Gaussian(R) 94 system (copyright 1995, Gaussian, Inc.),
 the Gaussian 92(TM) system (copyright 1992, Gaussian, Inc.),
 the Gaussian 90(TM) system (copyright 1990, Gaussian, Inc.),
 the Gaussian 88(TM) system (copyright 1988, Gaussian, Inc.),
 the Gaussian 86(TM) system (copyright 1986, Carnegie Mellon
 University), and the Gaussian 82(TM) system (copyright 1983,
 Carnegie Mellon University). Gaussian is a federally registered
 trademark of Gaussian, Inc.
  
 This software contains proprietary and confidential information,
 including trade secrets, belonging to Gaussian, Inc.
  
 This software is provided under written license and may be
 used, copied, transmitted, or stored only in accord with that
 written license.
  
 The following legend is applicable only to US Government
 contracts under FAR:
  
                    RESTRICTED RIGHTS LEGEND
  
 Use, reproduction and disclosure by the US Government is
 subject to restrictions as set forth in subparagraphs (a)
 and (c) of the Commercial Computer Software - Restricted
 Rights clause in FAR 52.227-19.
  
 Gaussian, Inc.
 340 Quinnipiac St., Bldg. 40, Wallingford CT 06492
  
  
 ---------------------------------------------------------------
 Warning -- This program may not be used in any manner that
 competes with the business of Gaussian, Inc. or will provide
 assistance to any competitor of Gaussian, Inc.  The licensee
 of this program is prohibited from giving any competitor of
 Gaussian, Inc. access to this program.  By using this program,
 the user acknowledges that Gaussian, Inc. is engaged in the
 business of creating and licensing software in the field of
 computational chemistry and represents and warrants to the
 licensee that it is not a competitor of Gaussian, Inc. and that
 it will not use this program in any manner prohibited above.
 ---------------------------------------------------------------
  

 Cite this work as:
 Gaussian 16, Revision A.03,
 M. J. Frisch, G. W. Trucks, H. B. Schlegel, G. E. Scuseria, 
 M. A. Robb, J. R. Cheeseman, G. Scalmani, V. Barone, 
 G. A. Petersson, H. Nakatsuji, X. Li, M. Caricato, A. V. Marenich, 
 J. Bloino, B. G. Janesko, R. Gomperts, B. Mennucci, H. P. Hratchian, 
 J. V. Ortiz, A. F. Izmaylov, J. L. Sonnenberg, D. Williams-Young, 
 F. Ding, F. Lipparini, F. Egidi, J. Goings, B. Peng, A. Petrone, 
 T. Henderson, D. Ranasinghe, V. G. Zakrzewski, J. Gao, N. Rega, 
 G. Zheng, W. Liang, M. Hada, M. Ehara, K. Toyota, R. Fukuda, 
 J. Hasegawa, M. Ishida, T. Nakajima, Y. Honda, O. Kitao, H. Nakai, 
 T. Vreven, K. Throssell, J. A. Montgomery, Jr., J. E. Peralta, 
 F. Ogliaro, M. J. Bearpark, J. J. Heyd, E. N. Brothers, K. N. Kudin, 
 V. N. Staroverov, T. A. Keith, R. Kobayashi, J. Normand, 
 K. Raghavachari, A. P. Rendell, J. C. Burant, S. S. Iyengar, 
 J. Tomasi, M. Cossi, J. M. Millam, M. Klene, C. Adamo, R. Cammi, 
 J. W. Ochterski, R. L. Martin, K. Morokuma, O. Farkas, 
 J. B. Foresman, and D. J. Fox, Gaussian, Inc., Wallingford CT, 2016.
 
 ******************************************
 Gaussian 16:  ES64L-G16RevA.03 25-Dec-2016
                27-Aug-2022 
 ******************************************
 %nprocs=12
 Will use up to   12 processors via shared memory.
 %mem=16GB
 %oldchk=1drm_II_S.chk
 %chk=1drm_II_Q.chk
 Copying data from "1drm_II_S.chk" to current chk file "1drm_II_Q.chk"
 IOpt=  2 FromEx=T IUOpen= 4 IOptOp= 5 NList=   0 IFRang= 0 IUIn= 4 IUOut= 2.
 ----------------------------------------------------------------------
 # PBE1PBE/def2TZVP empiricaldispersion=GD3BJ int=(grid=ultrafine) geom
 =check pop=nbo
 ----------------------------------------------------------------------
 1/29=2,38=1,172=1/1;
 2/12=2,40=1/2;
 3/5=44,7=101,11=2,14=-4,25=1,30=1,74=-13,75=-5,124=41/1,2,3;
 4//1;
 5/5=2,38=5/2;
 6/7=2,8=2,9=2,10=2,28=1,40=1/1,7;
 99/5=1,9=1/99;
 ---------
 1drm_II_Q
 ---------
 Structure from the checkpoint file:  "1drm_II_Q.chk"
 Charge =  0 Multiplicity = 5
 Z-Matrix found in chk file.
 C,0,48.068001,60.623001,29.973
 C,0,48.181,59.849998,31.268
 N,0,47.933998,60.384998,32.516998
 C,0,48.473,58.541,31.49
 C,0,48.068001,59.411999,33.443001
 N,0,48.400002,58.257,32.889999
 Fe,0,48.765999,56.499001,34.030998
 C,0,45.678001,55.007999,33.291
 C,0,50.331001,55.000999,31.341999
 C,0,51.877998,57.230999,35.203999
 C,0,47.299,57.897999,36.900002
 N,0,48.188,55.292999,32.580002
 C,0,46.804001,54.751999,32.449001
 C,0,46.826,53.873001,31.332001
 C,0,48.123001,53.901001,30.809999
 C,0,48.922001,54.757999,31.573
 C,0,48.710999,53.084,29.59
 C,0,45.639999,52.916,31.042
 C,0,45.424,52.798,29.694
 C,0,44.573002,51.631001,29.422001
 O,0,43.542,51.953999,28.733
 O,0,44.916,50.459,29.83
 N,0,50.624001,56.294998,33.435001
 C,0,51.097,55.622002,32.187
 C,0,52.467999,55.814999,31.962999
 C,0,52.971001,56.416,33.016998
 C,0,51.838001,56.742001,33.980999
 C,0,53.264999,55.367001,30.736
 C,0,54.458,56.728001,33.074001
 C,0,55.09693339,57.19376978,34.3955242
 N,0,49.436001,57.335999,35.605
 C,0,50.751999,57.528,35.959
 C,0,50.819,58.118,37.297001
 C,0,49.610001,58.249001,37.731998
 C,0,48.743,57.799,36.740002
 C,0,52.186001,58.487999,38.056999
 C,0,48.980999,58.606998,39.147999
 C,0,49.32857166,59.94369725,39.82919527
 N,0,47.058998,56.563999,34.905998
 C,0,46.537998,57.237,36.117001
 C,0,45.07,57.032001,36.300999
 C,0,44.625,56.328999,35.282001
 C,0,45.769001,55.956001,34.452999
 C,0,44.231998,57.564999,37.375999
 C,0,43.164001,55.853001,34.801998
 C,0,42.825001,54.415001,35.34
 C,0,42.188999,53.115002,35.033001
 O,0,42.549,52.308998,35.884998
 O,0,42.134998,52.839001,33.841
 H,0,43.4846353,52.16130555,36.04111822
 H,0,43.80326767,54.08387538,35.61973226
 H,0,42.30710607,54.66908985,36.24117906
 H,0,43.13313015,55.84277089,33.73249235
 H,0,42.43333071,56.5443519,35.16676487
 H,0,44.75046246,54.51403329,33.08957971
 H,0,45.85972007,51.95091072,31.4484792
 H,0,44.75640512,53.30046253,31.50713484
 H,0,46.36202809,52.67753947,29.19350768
 H,0,44.94028785,53.68168899,29.33342224
 H,0,43.64950944,52.35892198,27.86924129
 H,0,49.65462918,52.66138077,29.865418
 H,0,48.03255864,52.299936,29.32568518
 H,0,48.84359391,53.73797639,28.75355904
 H,0,50.76309554,54.65077001,30.42792353
 H,0,54.19655882,54.9448365,31.05044146
 H,0,52.70498256,54.63270141,30.19555047
 H,0,53.45077069,56.21019528,30.10400927
 H,0,52.94883066,58.69836102,37.3367638
 H,0,52.02988441,59.34887937,38.67296376
 H,0,52.48935753,57.66308038,38.66723181
 H,0,52.83769674,57.41011033,35.64194586
 H,0,46.88066238,58.5178466,37.66530102
 H,0,44.74403567,58.36900803,37.86209251
 H,0,43.31151685,57.9245862,36.96574117
 H,0,44.02777626,56.79107885,38.08609835
 H,0,48.91256188,60.40564405,29.35302188
 H,0,47.17014309,60.33873095,29.46512037
 H,0,48.04135249,61.67151902,30.18465967
 H,0,48.72058404,57.82910785,30.73051879
 H,0,47.92368984,59.55686386,34.49328118
 H,0,47.6949062,61.33766942,32.7047539
 H,0,55.06052685,56.6239501,32.19591512
 H,0,56.16202967,57.22778249,34.49202827
 H,0,54.47577134,57.48337564,35.21722132
 H,0,48.31627702,57.91913223,39.62746263
 H,0,50.35205681,60.22173043,39.97088396
 H,0,48.54658178,60.59440966,40.16080529
 Recover connectivity data from disk.
 Stoichiometry    C38H38FeN6O4(5)
 Framework group  C1[X(C38H38FeN6O4)]
 Deg. of freedom   255
 Full point group                 C1      NOp   1
 Largest Abelian subgroup         C1      NOp   1
 Largest concise Abelian subgroup C1      NOp   1
                         Standard orientation:                         
 ---------------------------------------------------------------------
 Center     Atomic      Atomic             Coordinates (Angstroms)
 Number     Number       Type             X           Y           Z
 ---------------------------------------------------------------------
      1          6           0       -1.131239   -1.830485    5.439987
      2          6           0       -1.273583   -1.064428    4.143753
      3          7           0       -1.820839    0.199580    4.043630
      4          6           0       -0.879682   -1.385500    2.882889
      5          6           0       -1.739390    0.610183    2.760300
      6          7           0       -1.178207   -0.307977    1.990809
      7         26           0       -0.933636   -0.056462   -0.107600
      8          6           0        2.491177    0.681681    0.071878
      9          6           0       -0.361600   -3.437758   -0.512035
     10          6           0       -4.128773   -0.659191   -1.119583
     11          6           0       -1.592933    3.387985    0.096321
     12          7           0        0.675452   -1.196588   -0.177292
     13          6           0        2.070118   -0.674044   -0.092725
     14          6           0        2.925176   -1.797215   -0.260569
     15          6           0        2.106334   -2.920942   -0.409620
     16          6           0        0.762633   -2.537964   -0.356589
     17          6           0        2.532451   -4.422787   -0.663620
     18          6           0        4.447444   -1.616867   -0.498741
     19          6           0        5.162547   -2.596475    0.138973
     20          6           0        6.533866   -2.640906   -0.387884
     21          8           0        7.399573   -2.534376    0.550848
     22          8           0        6.748551   -2.807573   -1.646386
     23          7           0       -2.031406   -1.608491   -0.592476
     24          6           0       -1.583912   -3.032035   -0.678672
     25          6           0       -2.654949   -3.918092   -0.865341
     26          6           0       -3.740850   -3.206399   -1.063934
     27          6           0       -3.395806   -1.732125   -0.900453
     28          6           0       -2.582868   -5.446412   -0.887283
     29          6           0       -5.065573   -3.903276   -1.330823
     30          6           0       -6.280066   -3.089301   -1.814611
     31          7           0       -2.460926    1.035707   -0.426196
     32          6           0       -3.698136    0.638070   -0.879217
     33          6           0       -4.547130    1.813154   -1.082251
     34          6           0       -3.848928    2.860019   -0.791307
     35          6           0       -2.587351    2.437439   -0.381308
     36          6           0       -6.064878    1.754859   -1.607828
     37          6           0       -4.069877    4.422235   -0.990125
     38          6           0       -5.294211    5.112928   -0.361198
     39          7           0        0.021874    1.597653    0.078434
     40          6           0       -0.375527    3.018401    0.198626
     41          6           0        0.790581    3.923289    0.427248
     42          6           0        1.873808    3.181125    0.507274
     43          6           0        1.496624    1.795753    0.236006
     44          6           0        0.759487    5.375560    0.605862
     45          6           0        3.418827    3.486200    0.840954
     46          6           0        4.250171    3.731435   -0.470891
     47          6           0        5.540488    3.506291   -1.158741
     48          8           0        5.386745    3.776098   -2.345632
     49          8           0        6.159471    2.520293   -0.778444
     50          1           0        4.693090    3.344747   -2.849992
     51          1           0        3.576989    3.327486   -1.197906
     52          1           0        4.185541    4.797404   -0.537469
     53          1           0        3.834238    2.652684    1.367818
     54          1           0        3.477776    4.356629    1.460453
     55          1           0        3.536926    0.908103    0.078365
     56          1           0        4.646753   -1.663530   -1.548978
     57          1           0        4.750691   -0.661011   -0.125536
     58          1           0        4.689738   -3.542761   -0.021941
     59          1           0        5.192043   -2.388346    1.188121
     60          1           0        7.413546   -3.174813    1.265862
     61          1           0        1.936087   -4.834469   -1.450874
     62          1           0        3.564893   -4.458330   -0.942369
     63          1           0        2.384645   -4.991571    0.230549
     64          1           0       -0.175424   -4.491170   -0.488353
     65          1           0       -3.184335   -5.820364   -1.689341
     66          1           0       -1.567816   -5.753598   -1.029434
     67          1           0       -2.946049   -5.833976    0.041584
     68          1           0       -6.500534    0.816037   -1.336321
     69          1           0       -6.626665    2.550284   -1.164438
     70          1           0       -6.077864    1.859448   -2.672625
     71          1           0       -5.116793   -0.796598   -1.506670
     72          1           0       -1.879567    4.384970    0.358544
     73          1           0       -0.236362    5.684049    0.846733
     74          1           0        1.420434    5.651373    1.400832
     75          1           0        1.071657    5.853015   -0.299392
     76          1           0       -1.437730   -2.844680    5.290412
     77          1           0       -0.109242   -1.809678    5.756198
     78          1           0       -1.746037   -1.379076    6.190421
     79          1           0       -0.415438   -2.307076    2.599911
     80          1           0       -2.085548    1.559827    2.409229
     81          1           0       -2.213363    0.724909    4.798584
     82          1           0       -5.153998   -4.959251   -1.182506
     83          1           0       -7.148078   -3.592896   -2.185888
     84          1           0       -6.255890   -2.020151   -1.779473
     85          1           0       -3.367869    4.993481   -1.560882
     86          1           0       -6.276737    4.730734   -0.544147
     87          1           0       -5.162359    5.975019    0.258732
 ---------------------------------------------------------------------
 Rotational constants (GHZ):           0.0714639           0.0471370           0.0348108
 Standard basis: def2TZVP (5D, 7F)
 There are  2008 symmetry adapted cartesian basis functions of A   symmetry.
 There are  1761 symmetry adapted basis functions of A   symmetry.
  1761 basis functions,  2854 primitive gaussians,  2008 cartesian basis functions
   185 alpha electrons      181 beta electrons
       nuclear repulsion energy      7097.3226863538 Hartrees.
 NAtoms=   87 NActive=   87 NUniq=   87 SFac= 1.00D+00 NAtFMM=   60 NAOKFM=T Big=T
 Integral buffers will be    131072 words long.
 Raffenetti 2 integral format.
 Two-electron integral symmetry is turned on.
 Nuclear repulsion after empirical dispersion term =     7097.2009012968 Hartrees.
 One-electron integrals computed using PRISM.
   1 Symmetry operations used in ECPInt.
 ECPInt:  NShTT=  241860 NPrTT=  750929 LenC2=  173627 LenP2D=  348639.
 LDataN:  DoStor=T MaxTD1= 6 Len=  172
 NBasis=  1761 RedAO= T EigKep=  3.81D-06  NBF=  1761
 NBsUse=  1761 1.00D-06 EigRej= -1.00D+00 NBFU=  1761
 ExpMin= 4.20D-02 ExpMax= 3.01D+05 ExpMxC= 2.91D+03 IAcc=3 IRadAn=         5 AccDes= 0.00D+00
 Harris functional with IExCor= 1009 and IRadAn=       5 diagonalized for initial guess.
 HarFok:  IExCor= 1009 AccDes= 0.00D+00 IRadAn=         5 IDoV= 1 UseB2=F ITyADJ=14
 ICtDFT=  3500011 ScaDFX=  1.000000  1.000000  1.000000  1.000000
 FoFCou: FMM=F IPFlag=           0 FMFlag=      100000 FMFlg1=        2001
         NFxFlg=           0 DoJE=T BraDBF=F KetDBF=T FulRan=T
         wScrn=  0.000000 ICntrl=       500 IOpCl=  0 I1Cent=   200000004 NGrid=           0
         NMat0=    1 NMatS0=      1 NMatT0=    0 NMatD0=    1 NMtDS0=    0 NMtDT0=    0
 Petite list used in FoFCou.
 Initial guess <Sx>= 0.0000 <Sy>= 0.0000 <Sz>= 2.0000 <S**2>= 6.0000 S= 2.0000
 Requested convergence on RMS density matrix=1.00D-08 within 128 cycles.
 Requested convergence on MAX density matrix=1.00D-06.
 Requested convergence on             energy=1.00D-06.
 No special actions if energy rises.
 EnCoef did   100 forward-backward iterations
 EnCoef did   100 forward-backward iterations
 EnCoef did     6 forward-backward iterations
 EnCoef did   100 forward-backward iterations
 EnCoef did    10 forward-backward iterations
 EnCoef did    13 forward-backward iterations
 EnCoef did     7 forward-backward iterations
 EnCoef did     3 forward-backward iterations
 Rare condition: small coef for last iteration:  0.000D+00
 Rare condition: small coef for last iteration:  0.000D+00
 Restarting incremental Fock formation.
 Restarting incremental Fock formation.
 SCF Done:  E(UPBE1PBE) =  -3361.94241160     A.U. after   54 cycles
            NFock= 54  Conv=0.28D-08     -V/T= 2.0035
 <Sx>= 0.0000 <Sy>= 0.0000 <Sz>= 2.0000 <S**2>= 6.1459 S= 2.0290
 <L.S>= 0.000000000000E+00
 Annihilation of the first spin contaminant:
 S**2 before annihilation     6.1459,   after     6.0047

 **********************************************************************

            Population analysis using the SCF density.

 **********************************************************************

 Orbital symmetries:
 Alpha Orbitals:
       Occupied  (A) (A) (A) (A) (A) (A) (A) (A) (A) (A) (A) (A)
                 (A) (A) (A) (A) (A) (A) (A) (A) (A) (A) (A) (A)
                 (A) (A) (A) (A) (A) (A) (A) (A) (A) (A) (A) (A)
                 (A) (A) (A) (A) (A) (A) (A) (A) (A) (A) (A) (A)
                 (A) (A) (A) (A) (A) (A) (A) (A) (A) (A) (A) (A)
                 (A) (A) (A) (A) (A) (A) (A) (A) (A) (A) (A) (A)
                 (A) (A) (A) (A) (A) (A) (A) (A) (A) (A) (A) (A)
                 (A) (A) (A) (A) (A) (A) (A) (A) (A) (A) (A) (A)
                 (A) (A) (A) (A) (A) (A) (A) (A) (A) (A) (A) (A)
                 (A) (A) (A) (A) (A) (A) (A) (A) (A) (A) (A) (A)
                 (A) (A) (A) (A) (A) (A) (A) (A) (A) (A) (A) (A)
                 (A) (A) (A) (A) (A) (A) (A) (A) (A) (A) (A) (A)
                 (A) (A) (A) (A) (A) (A) (A) (A) (A) (A) (A) (A)
                 (A) (A) (A) (A) (A) (A) (A) (A) (A) (A) (A) (A)
                 (A) (A) (A) (A) (A) (A) (A) (A) (A) (A) (A) (A)
                 (A) (A) (A) (A) (A)
       Virtual   (A) (A) (A) (A) (A) (A) (A) (A) (A) (A) (A) (A)
                 (A) (A) (A) (A) (A) (A) (A) (A) (A) (A) (A) (A)
                 (A) (A) (A) (A) (A) (A) (A) (A) (A) (A) (A) (A)
                 (A) (A) (A) (A) (A) (A) (A) (A) (A) (A) (A) (A)
                 (A) (A) (A) (A) (A) (A) (A) (A) (A) (A) (A) (A)
                 (A) (A) (A) (A) (A) (A) (A) (A) (A) (A) (A) (A)
                 (A) (A) (A) (A) (A) (A) (A) (A) (A) (A) (A) (A)
                 (A) (A) (A) (A) (A) (A) (A) (A) (A) (A) (A) (A)
                 (A) (A) (A) (A) (A) (A) (A) (A) (A) (A) (A) (A)
                 (A) (A) (A) (A) (A) (A) (A) (A) (A) (A) (A) (A)
                 (A) (A) (A) (A) (A) (A) (A) (A) (A) (A) (A) (A)
                 (A) (A) (A) (A) (A) (A) (A) (A) (A) (A) (A) (A)
                 (A) (A) (A) (A) (A) (A) (A) (A) (A) (A) (A) (A)
                 (A) (A) (A) (A) (A) (A) (A) (A) (A) (A) (A) (A)
                 (A) (A) (A) (A) (A) (A) (A) (A) (A) (A) (A) (A)
                 (A) (A) (A) (A) (A) (A) (A) (A) (A) (A) (A) (A)
                 (A) (A) (A) (A) (A) (A) (A) (A) (A) (A) (A) (A)
                 (A) (A) (A) (A) (A) (A) (A) (A) (A) (A) (A) (A)
                 (A) (A) (A) (A) (A) (A) (A) (A) (A) (A) (A) (A)
                 (A) (A) (A) (A) (A) (A) (A) (A) (A) (A) (A) (A)
                 (A) (A) (A) (A) (A) (A) (A) (A) (A) (A) (A) (A)
                 (A) (A) (A) (A) (A) (A) (A) (A) (A) (A) (A) (A)
                 (A) (A) (A) (A) (A) (A) (A) (A) (A) (A) (A) (A)
                 (A) (A) (A) (A) (A) (A) (A) (A) (A) (A) (A) (A)
                 (A) (A) (A) (A) (A) (A) (A) (A) (A) (A) (A) (A)
                 (A) (A) (A) (A) (A) (A) (A) (A) (A) (A) (A) (A)
                 (A) (A) (A) (A) (A) (A) (A) (A) (A) (A) (A) (A)
                 (A) (A) (A) (A) (A) (A) (A) (A) (A) (A) (A) (A)
                 (A) (A) (A) (A) (A) (A) (A) (A) (A) (A) (A) (A)
                 (A) (A) (A) (A) (A) (A) (A) (A) (A) (A) (A) (A)
                 (A) (A) (A) (A) (A) (A) (A) (A) (A) (A) (A) (A)
                 (A) (A) (A) (A) (A) (A) (A) (A) (A) (A) (A) (A)
                 (A) (A) (A) (A) (A) (A) (A) (A) (A) (A) (A) (A)
                 (A) (A) (A) (A) (A) (A) (A) (A) (A) (A) (A) (A)
                 (A) (A) (A) (A) (A) (A) (A) (A) (A) (A) (A) (A)
                 (A) (A) (A) (A) (A) (A) (A) (A) (A) (A) (A) (A)
                 (A) (A) (A) (A) (A) (A) (A) (A) (A) (A) (A) (A)
                 (A) (A) (A) (A) (A) (A) (A) (A) (A) (A) (A) (A)
                 (A) (A) (A) (A) (A) (A) (A) (A) (A) (A) (A) (A)
                 (A) (A) (A) (A) (A) (A) (A) (A) (A) (A) (A) (A)
                 (A) (A) (A) (A) (A) (A) (A) (A) (A) (A) (A) (A)
                 (A) (A) (A) (A) (A) (A) (A) (A) (A) (A) (A) (A)
                 (A) (A) (A) (A) (A) (A) (A) (A) (A) (A) (A) (A)
                 (A) (A) (A) (A) (A) (A) (A) (A) (A) (A) (A) (A)
                 (A) (A) (A) (A) (A) (A) (A) (A) (A) (A) (A) (A)
                 (A) (A) (A) (A) (A) (A) (A) (A) (A) (A) (A) (A)
                 (A) (A) (A) (A) (A) (A) (A) (A) (A) (A) (A) (A)
                 (A) (A) (A) (A) (A) (A) (A) (A) (A) (A) (A) (A)
                 (A) (A) (A) (A) (A) (A) (A) (A) (A) (A) (A) (A)
                 (A) (A) (A) (A) (A) (A) (A) (A) (A) (A) (A) (A)
                 (A) (A) (A) (A) (A) (A) (A) (A) (A) (A) (A) (A)
                 (A) (A) (A) (A) (A) (A) (A) (A) (A) (A) (A) (A)
                 (A) (A) (A) (A) (A) (A) (A) (A) (A) (A) (A) (A)
                 (A) (A) (A) (A) (A) (A) (A) (A) (A) (A) (A) (A)
                 (A) (A) (A) (A) (A) (A) (A) (A) (A) (A) (A) (A)
                 (A) (A) (A) (A) (A) (A) (A) (A) (A) (A) (A) (A)
                 (A) (A) (A) (A) (A) (A) (A) (A) (A) (A) (A) (A)
                 (A) (A) (A) (A) (A) (A) (A) (A) (A) (A) (A) (A)
                 (A) (A) (A) (A) (A) (A) (A) (A) (A) (A) (A) (A)
                 (A) (A) (A) (A) (A) (A) (A) (A) (A) (A) (A) (A)
                 (A) (A) (A) (A) (A) (A) (A) (A) (A) (A) (A) (A)
                 (A) (A) (A) (A) (A) (A) (A) (A) (A) (A) (A) (A)
                 (A) (A) (A) (A) (A) (A) (A) (A) (A) (A) (A) (A)
                 (A) (A) (A) (A) (A) (A) (A) (A) (A) (A) (A) (A)
                 (A) (A) (A) (A) (A) (A) (A) (A) (A) (A) (A) (A)
                 (A) (A) (A) (A) (A) (A) (A) (A) (A) (A) (A) (A)
                 (A) (A) (A) (A) (A) (A) (A) (A) (A) (A) (A) (A)
                 (A) (A) (A) (A) (A) (A) (A) (A) (A) (A) (A) (A)
                 (A) (A) (A) (A) (A) (A) (A) (A) (A) (A) (A) (A)
                 (A) (A) (A) (A) (A) (A) (A) (A) (A) (A) (A) (A)
                 (A) (A) (A) (A) (A) (A) (A) (A) (A) (A) (A) (A)
                 (A) (A) (A) (A) (A) (A) (A) (A) (A) (A) (A) (A)
                 (A) (A) (A) (A) (A) (A) (A) (A) (A) (A) (A) (A)
                 (A) (A) (A) (A) (A) (A) (A) (A) (A) (A) (A) (A)
                 (A) (A) (A) (A) (A) (A) (A) (A) (A) (A) (A) (A)
                 (A) (A) (A) (A) (A) (A) (A) (A) (A) (A) (A) (A)
                 (A) (A) (A) (A) (A) (A) (A) (A) (A) (A) (A) (A)
                 (A) (A) (A) (A) (A) (A) (A) (A) (A) (A) (A) (A)
                 (A) (A) (A) (A) (A) (A) (A) (A) (A) (A) (A) (A)
                 (A) (A) (A) (A) (A) (A) (A) (A) (A) (A) (A) (A)
                 (A) (A) (A) (A) (A) (A) (A) (A) (A) (A) (A) (A)
                 (A) (A) (A) (A) (A) (A) (A) (A) (A) (A) (A) (A)
                 (A) (A) (A) (A) (A) (A) (A) (A) (A) (A) (A) (A)
                 (A) (A) (A) (A) (A) (A) (A) (A) (A) (A) (A) (A)
                 (A) (A) (A) (A) (A) (A) (A) (A) (A) (A) (A) (A)
                 (A) (A) (A) (A) (A) (A) (A) (A) (A) (A) (A) (A)
                 (A) (A) (A) (A) (A) (A) (A) (A) (A) (A) (A) (A)
                 (A) (A) (A) (A) (A) (A) (A) (A) (A) (A) (A) (A)
                 (A) (A) (A) (A) (A) (A) (A) (A) (A) (A) (A) (A)
                 (A) (A) (A) (A) (A) (A) (A) (A) (A) (A) (A) (A)
                 (A) (A) (A) (A) (A) (A) (A) (A) (A) (A) (A) (A)
                 (A) (A) (A) (A) (A) (A) (A) (A) (A) (A) (A) (A)
                 (A) (A) (A) (A) (A) (A) (A) (A) (A) (A) (A) (A)
                 (A) (A) (A) (A) (A) (A) (A) (A) (A) (A) (A) (A)
                 (A) (A) (A) (A) (A) (A) (A) (A) (A) (A) (A) (A)
                 (A) (A) (A) (A) (A) (A) (A) (A) (A) (A) (A) (A)
                 (A) (A) (A) (A) (A) (A) (A) (A) (A) (A) (A) (A)
                 (A) (A) (A) (A) (A) (A) (A) (A) (A) (A) (A) (A)
                 (A) (A) (A) (A) (A) (A) (A) (A) (A) (A) (A) (A)
                 (A) (A) (A) (A) (A) (A) (A) (A) (A) (A) (A) (A)
                 (A) (A) (A) (A) (A) (A) (A) (A) (A) (A) (A) (A)
                 (A) (A) (A) (A) (A) (A) (A) (A) (A) (A) (A) (A)
                 (A) (A) (A) (A) (A) (A) (A) (A) (A) (A) (A) (A)
                 (A) (A) (A) (A) (A) (A) (A) (A) (A) (A) (A) (A)
                 (A) (A) (A) (A) (A) (A) (A) (A) (A) (A) (A) (A)
                 (A) (A) (A) (A) (A) (A) (A) (A) (A) (A) (A) (A)
                 (A) (A) (A) (A) (A) (A) (A) (A) (A) (A) (A) (A)
                 (A) (A) (A) (A) (A) (A) (A) (A) (A) (A) (A) (A)
                 (A) (A) (A) (A) (A) (A) (A) (A) (A) (A) (A) (A)
                 (A) (A) (A) (A) (A) (A) (A) (A) (A) (A) (A) (A)
                 (A) (A) (A) (A) (A) (A) (A) (A) (A) (A) (A) (A)
                 (A) (A) (A) (A) (A) (A) (A) (A) (A) (A) (A) (A)
                 (A) (A) (A) (A) (A) (A) (A) (A) (A) (A) (A) (A)
                 (A) (A) (A) (A) (A) (A) (A) (A) (A) (A) (A) (A)
                 (A) (A) (A) (A) (A) (A) (A) (A) (A) (A) (A) (A)
                 (A) (A) (A) (A) (A) (A) (A) (A) (A) (A) (A) (A)
                 (A) (A) (A) (A) (A) (A) (A) (A) (A) (A) (A) (A)
                 (A) (A) (A) (A) (A) (A) (A) (A) (A) (A) (A) (A)
                 (A) (A) (A) (A) (A) (A) (A) (A) (A) (A) (A) (A)
                 (A) (A) (A) (A) (A) (A) (A) (A) (A) (A) (A) (A)
                 (A) (A) (A) (A) (A) (A) (A) (A) (A) (A) (A) (A)
                 (A) (A) (A) (A) (A) (A) (A) (A) (A) (A) (A) (A)
                 (A) (A) (A) (A) (A) (A) (A) (A) (A) (A) (A) (A)
                 (A) (A) (A) (A) (A) (A) (A) (A) (A) (A) (A) (A)
                 (A) (A) (A) (A) (A) (A) (A) (A) (A) (A) (A) (A)
                 (A) (A) (A) (A) (A) (A) (A) (A) (A) (A) (A) (A)
                 (A) (A) (A) (A) (A) (A) (A) (A) (A) (A) (A) (A)
                 (A) (A) (A) (A) (A) (A) (A) (A) (A) (A) (A) (A)
                 (A) (A) (A) (A) (A) (A) (A) (A) (A) (A) (A) (A)
                 (A) (A) (A) (A) (A) (A) (A) (A) (A) (A) (A) (A)
                 (A) (A) (A) (A) (A) (A) (A) (A) (A) (A) (A) (A)
                 (A) (A) (A) (A)
 Beta  Orbitals:
       Occupied  (A) (A) (A) (A) (A) (A) (A) (A) (A) (A) (A) (A)
                 (A) (A) (A) (A) (A) (A) (A) (A) (A) (A) (A) (A)
                 (A) (A) (A) (A) (A) (A) (A) (A) (A) (A) (A) (A)
                 (A) (A) (A) (A) (A) (A) (A) (A) (A) (A) (A) (A)
                 (A) (A) (A) (A) (A) (A) (A) (A) (A) (A) (A) (A)
                 (A) (A) (A) (A) (A) (A) (A) (A) (A) (A) (A) (A)
                 (A) (A) (A) (A) (A) (A) (A) (A) (A) (A) (A) (A)
                 (A) (A) (A) (A) (A) (A) (A) (A) (A) (A) (A) (A)
                 (A) (A) (A) (A) (A) (A) (A) (A) (A) (A) (A) (A)
                 (A) (A) (A) (A) (A) (A) (A) (A) (A) (A) (A) (A)
                 (A) (A) (A) (A) (A) (A) (A) (A) (A) (A) (A) (A)
                 (A) (A) (A) (A) (A) (A) (A) (A) (A) (A) (A) (A)
                 (A) (A) (A) (A) (A) (A) (A) (A) (A) (A) (A) (A)
                 (A) (A) (A) (A) (A) (A) (A) (A) (A) (A) (A) (A)
                 (A) (A) (A) (A) (A) (A) (A) (A) (A) (A) (A) (A)
                 (A)
       Virtual   (A) (A) (A) (A) (A) (A) (A) (A) (A) (A) (A) (A)
                 (A) (A) (A) (A) (A) (A) (A) (A) (A) (A) (A) (A)
                 (A) (A) (A) (A) (A) (A) (A) (A) (A) (A) (A) (A)
                 (A) (A) (A) (A) (A) (A) (A) (A) (A) (A) (A) (A)
                 (A) (A) (A) (A) (A) (A) (A) (A) (A) (A) (A) (A)
                 (A) (A) (A) (A) (A) (A) (A) (A) (A) (A) (A) (A)
                 (A) (A) (A) (A) (A) (A) (A) (A) (A) (A) (A) (A)
                 (A) (A) (A) (A) (A) (A) (A) (A) (A) (A) (A) (A)
                 (A) (A) (A) (A) (A) (A) (A) (A) (A) (A) (A) (A)
                 (A) (A) (A) (A) (A) (A) (A) (A) (A) (A) (A) (A)
                 (A) (A) (A) (A) (A) (A) (A) (A) (A) (A) (A) (A)
                 (A) (A) (A) (A) (A) (A) (A) (A) (A) (A) (A) (A)
                 (A) (A) (A) (A) (A) (A) (A) (A) (A) (A) (A) (A)
                 (A) (A) (A) (A) (A) (A) (A) (A) (A) (A) (A) (A)
                 (A) (A) (A) (A) (A) (A) (A) (A) (A) (A) (A) (A)
                 (A) (A) (A) (A) (A) (A) (A) (A) (A) (A) (A) (A)
                 (A) (A) (A) (A) (A) (A) (A) (A) (A) (A) (A) (A)
                 (A) (A) (A) (A) (A) (A) (A) (A) (A) (A) (A) (A)
                 (A) (A) (A) (A) (A) (A) (A) (A) (A) (A) (A) (A)
                 (A) (A) (A) (A) (A) (A) (A) (A) (A) (A) (A) (A)
                 (A) (A) (A) (A) (A) (A) (A) (A) (A) (A) (A) (A)
                 (A) (A) (A) (A) (A) (A) (A) (A) (A) (A) (A) (A)
                 (A) (A) (A) (A) (A) (A) (A) (A) (A) (A) (A) (A)
                 (A) (A) (A) (A) (A) (A) (A) (A) (A) (A) (A) (A)
                 (A) (A) (A) (A) (A) (A) (A) (A) (A) (A) (A) (A)
                 (A) (A) (A) (A) (A) (A) (A) (A) (A) (A) (A) (A)
                 (A) (A) (A) (A) (A) (A) (A) (A) (A) (A) (A) (A)
                 (A) (A) (A) (A) (A) (A) (A) (A) (A) (A) (A) (A)
                 (A) (A) (A) (A) (A) (A) (A) (A) (A) (A) (A) (A)
                 (A) (A) (A) (A) (A) (A) (A) (A) (A) (A) (A) (A)
                 (A) (A) (A) (A) (A) (A) (A) (A) (A) (A) (A) (A)
                 (A) (A) (A) (A) (A) (A) (A) (A) (A) (A) (A) (A)
                 (A) (A) (A) (A) (A) (A) (A) (A) (A) (A) (A) (A)
                 (A) (A) (A) (A) (A) (A) (A) (A) (A) (A) (A) (A)
                 (A) (A) (A) (A) (A) (A) (A) (A) (A) (A) (A) (A)
                 (A) (A) (A) (A) (A) (A) (A) (A) (A) (A) (A) (A)
                 (A) (A) (A) (A) (A) (A) (A) (A) (A) (A) (A) (A)
                 (A) (A) (A) (A) (A) (A) (A) (A) (A) (A) (A) (A)
                 (A) (A) (A) (A) (A) (A) (A) (A) (A) (A) (A) (A)
                 (A) (A) (A) (A) (A) (A) (A) (A) (A) (A) (A) (A)
                 (A) (A) (A) (A) (A) (A) (A) (A) (A) (A) (A) (A)
                 (A) (A) (A) (A) (A) (A) (A) (A) (A) (A) (A) (A)
                 (A) (A) (A) (A) (A) (A) (A) (A) (A) (A) (A) (A)
                 (A) (A) (A) (A) (A) (A) (A) (A) (A) (A) (A) (A)
                 (A) (A) (A) (A) (A) (A) (A) (A) (A) (A) (A) (A)
                 (A) (A) (A) (A) (A) (A) (A) (A) (A) (A) (A) (A)
                 (A) (A) (A) (A) (A) (A) (A) (A) (A) (A) (A) (A)
                 (A) (A) (A) (A) (A) (A) (A) (A) (A) (A) (A) (A)
                 (A) (A) (A) (A) (A) (A) (A) (A) (A) (A) (A) (A)
                 (A) (A) (A) (A) (A) (A) (A) (A) (A) (A) (A) (A)
                 (A) (A) (A) (A) (A) (A) (A) (A) (A) (A) (A) (A)
                 (A) (A) (A) (A) (A) (A) (A) (A) (A) (A) (A) (A)
                 (A) (A) (A) (A) (A) (A) (A) (A) (A) (A) (A) (A)
                 (A) (A) (A) (A) (A) (A) (A) (A) (A) (A) (A) (A)
                 (A) (A) (A) (A) (A) (A) (A) (A) (A) (A) (A) (A)
                 (A) (A) (A) (A) (A) (A) (A) (A) (A) (A) (A) (A)
                 (A) (A) (A) (A) (A) (A) (A) (A) (A) (A) (A) (A)
                 (A) (A) (A) (A) (A) (A) (A) (A) (A) (A) (A) (A)
                 (A) (A) (A) (A) (A) (A) (A) (A) (A) (A) (A) (A)
                 (A) (A) (A) (A) (A) (A) (A) (A) (A) (A) (A) (A)
                 (A) (A) (A) (A) (A) (A) (A) (A) (A) (A) (A) (A)
                 (A) (A) (A) (A) (A) (A) (A) (A) (A) (A) (A) (A)
                 (A) (A) (A) (A) (A) (A) (A) (A) (A) (A) (A) (A)
                 (A) (A) (A) (A) (A) (A) (A) (A) (A) (A) (A) (A)
                 (A) (A) (A) (A) (A) (A) (A) (A) (A) (A) (A) (A)
                 (A) (A) (A) (A) (A) (A) (A) (A) (A) (A) (A) (A)
                 (A) (A) (A) (A) (A) (A) (A) (A) (A) (A) (A) (A)
                 (A) (A) (A) (A) (A) (A) (A) (A) (A) (A) (A) (A)
                 (A) (A) (A) (A) (A) (A) (A) (A) (A) (A) (A) (A)
                 (A) (A) (A) (A) (A) (A) (A) (A) (A) (A) (A) (A)
                 (A) (A) (A) (A) (A) (A) (A) (A) (A) (A) (A) (A)
                 (A) (A) (A) (A) (A) (A) (A) (A) (A) (A) (A) (A)
                 (A) (A) (A) (A) (A) (A) (A) (A) (A) (A) (A) (A)
                 (A) (A) (A) (A) (A) (A) (A) (A) (A) (A) (A) (A)
                 (A) (A) (A) (A) (A) (A) (A) (A) (A) (A) (A) (A)
                 (A) (A) (A) (A) (A) (A) (A) (A) (A) (A) (A) (A)
                 (A) (A) (A) (A) (A) (A) (A) (A) (A) (A) (A) (A)
                 (A) (A) (A) (A) (A) (A) (A) (A) (A) (A) (A) (A)
                 (A) (A) (A) (A) (A) (A) (A) (A) (A) (A) (A) (A)
                 (A) (A) (A) (A) (A) (A) (A) (A) (A) (A) (A) (A)
                 (A) (A) (A) (A) (A) (A) (A) (A) (A) (A) (A) (A)
                 (A) (A) (A) (A) (A) (A) (A) (A) (A) (A) (A) (A)
                 (A) (A) (A) (A) (A) (A) (A) (A) (A) (A) (A) (A)
                 (A) (A) (A) (A) (A) (A) (A) (A) (A) (A) (A) (A)
                 (A) (A) (A) (A) (A) (A) (A) (A) (A) (A) (A) (A)
                 (A) (A) (A) (A) (A) (A) (A) (A) (A) (A) (A) (A)
                 (A) (A) (A) (A) (A) (A) (A) (A) (A) (A) (A) (A)
                 (A) (A) (A) (A) (A) (A) (A) (A) (A) (A) (A) (A)
                 (A) (A) (A) (A) (A) (A) (A) (A) (A) (A) (A) (A)
                 (A) (A) (A) (A) (A) (A) (A) (A) (A) (A) (A) (A)
                 (A) (A) (A) (A) (A) (A) (A) (A) (A) (A) (A) (A)
                 (A) (A) (A) (A) (A) (A) (A) (A) (A) (A) (A) (A)
                 (A) (A) (A) (A) (A) (A) (A) (A) (A) (A) (A) (A)
                 (A) (A) (A) (A) (A) (A) (A) (A) (A) (A) (A) (A)
                 (A) (A) (A) (A) (A) (A) (A) (A) (A) (A) (A) (A)
                 (A) (A) (A) (A) (A) (A) (A) (A) (A) (A) (A) (A)
                 (A) (A) (A) (A) (A) (A) (A) (A) (A) (A) (A) (A)
                 (A) (A) (A) (A) (A) (A) (A) (A) (A) (A) (A) (A)
                 (A) (A) (A) (A) (A) (A) (A) (A) (A) (A) (A) (A)
                 (A) (A) (A) (A) (A) (A) (A) (A) (A) (A) (A) (A)
                 (A) (A) (A) (A) (A) (A) (A) (A) (A) (A) (A) (A)
                 (A) (A) (A) (A) (A) (A) (A) (A) (A) (A) (A) (A)
                 (A) (A) (A) (A) (A) (A) (A) (A) (A) (A) (A) (A)
                 (A) (A) (A) (A) (A) (A) (A) (A) (A) (A) (A) (A)
                 (A) (A) (A) (A) (A) (A) (A) (A) (A) (A) (A) (A)
                 (A) (A) (A) (A) (A) (A) (A) (A) (A) (A) (A) (A)
                 (A) (A) (A) (A) (A) (A) (A) (A) (A) (A) (A) (A)
                 (A) (A) (A) (A) (A) (A) (A) (A) (A) (A) (A) (A)
                 (A) (A) (A) (A) (A) (A) (A) (A) (A) (A) (A) (A)
                 (A) (A) (A) (A) (A) (A) (A) (A) (A) (A) (A) (A)
                 (A) (A) (A) (A) (A) (A) (A) (A) (A) (A) (A) (A)
                 (A) (A) (A) (A) (A) (A) (A) (A) (A) (A) (A) (A)
                 (A) (A) (A) (A) (A) (A) (A) (A) (A) (A) (A) (A)
                 (A) (A) (A) (A) (A) (A) (A) (A) (A) (A) (A) (A)
                 (A) (A) (A) (A) (A) (A) (A) (A) (A) (A) (A) (A)
                 (A) (A) (A) (A) (A) (A) (A) (A) (A) (A) (A) (A)
                 (A) (A) (A) (A) (A) (A) (A) (A) (A) (A) (A) (A)
                 (A) (A) (A) (A) (A) (A) (A) (A) (A) (A) (A) (A)
                 (A) (A) (A) (A) (A) (A) (A) (A) (A) (A) (A) (A)
                 (A) (A) (A) (A) (A) (A) (A) (A) (A) (A) (A) (A)
                 (A) (A) (A) (A) (A) (A) (A) (A) (A) (A) (A) (A)
                 (A) (A) (A) (A) (A) (A) (A) (A) (A) (A) (A) (A)
                 (A) (A) (A) (A) (A) (A) (A) (A) (A) (A) (A) (A)
                 (A) (A) (A) (A) (A) (A) (A) (A) (A) (A) (A) (A)
                 (A) (A) (A) (A) (A) (A) (A) (A) (A) (A) (A) (A)
                 (A) (A) (A) (A) (A) (A) (A) (A) (A) (A) (A) (A)
                 (A) (A) (A) (A) (A) (A) (A) (A) (A) (A) (A) (A)
                 (A) (A) (A) (A) (A) (A) (A) (A) (A) (A) (A) (A)
                 (A) (A) (A) (A) (A) (A) (A) (A) (A) (A) (A) (A)
                 (A) (A) (A) (A) (A) (A) (A) (A) (A) (A) (A) (A)
                 (A) (A) (A) (A) (A) (A) (A) (A) (A) (A) (A) (A)
                 (A) (A) (A) (A) (A) (A) (A) (A)
 The electronic state is 5-A.
 Alpha  occ. eigenvalues -- -256.40440 -30.20967 -26.04392 -26.02377 -26.02131
 Alpha  occ. eigenvalues --  -19.25661 -19.24818 -19.18878 -19.18797 -14.46644
 Alpha  occ. eigenvalues --  -14.41408 -14.40072 -14.39855 -14.38956 -14.38775
 Alpha  occ. eigenvalues --  -10.35613 -10.35430 -10.30342 -10.28368 -10.27174
 Alpha  occ. eigenvalues --  -10.26402 -10.26042 -10.25941 -10.25742 -10.25684
 Alpha  occ. eigenvalues --  -10.25494 -10.25103 -10.25095 -10.24949 -10.24865
 Alpha  occ. eigenvalues --  -10.24726 -10.24484 -10.24288 -10.24011 -10.23958
 Alpha  occ. eigenvalues --  -10.23456 -10.23401 -10.23035 -10.22831 -10.22636
 Alpha  occ. eigenvalues --  -10.22467 -10.22333 -10.21912 -10.21713 -10.21606
 Alpha  occ. eigenvalues --  -10.21496 -10.21482 -10.21467 -10.21204 -10.21191
 Alpha  occ. eigenvalues --  -10.21008 -10.20791 -10.20595  -3.60001  -2.39579
 Alpha  occ. eigenvalues --   -2.34211  -2.33709  -1.18335  -1.15197  -1.07178
 Alpha  occ. eigenvalues --   -1.04362  -1.01669  -0.98502  -0.96358  -0.95259
 Alpha  occ. eigenvalues --   -0.94143  -0.92419  -0.86200  -0.84839  -0.84030
 Alpha  occ. eigenvalues --   -0.82785  -0.82755  -0.81799  -0.81393  -0.80666
 Alpha  occ. eigenvalues --   -0.79449  -0.78695  -0.76669  -0.75381  -0.74544
 Alpha  occ. eigenvalues --   -0.74425  -0.73658  -0.72580  -0.72069  -0.71460
 Alpha  occ. eigenvalues --   -0.71042  -0.69456  -0.68999  -0.67506  -0.66904
 Alpha  occ. eigenvalues --   -0.66290  -0.65298  -0.64272  -0.63636  -0.62755
 Alpha  occ. eigenvalues --   -0.60911  -0.59761  -0.58280  -0.57346  -0.56547
 Alpha  occ. eigenvalues --   -0.55760  -0.54977  -0.54543  -0.53513  -0.53090
 Alpha  occ. eigenvalues --   -0.52763  -0.52382  -0.52048  -0.51010  -0.50454
 Alpha  occ. eigenvalues --   -0.49616  -0.49289  -0.49207  -0.48960  -0.48712
 Alpha  occ. eigenvalues --   -0.48493  -0.48004  -0.47627  -0.47152  -0.46396
 Alpha  occ. eigenvalues --   -0.45900  -0.45786  -0.45448  -0.45375  -0.44972
 Alpha  occ. eigenvalues --   -0.44791  -0.44597  -0.44327  -0.44204  -0.44001
 Alpha  occ. eigenvalues --   -0.43593  -0.43368  -0.42771  -0.42689  -0.42316
 Alpha  occ. eigenvalues --   -0.42140  -0.41795  -0.41639  -0.41371  -0.41299
 Alpha  occ. eigenvalues --   -0.41028  -0.40617  -0.40213  -0.40092  -0.39752
 Alpha  occ. eigenvalues --   -0.39650  -0.39258  -0.38968  -0.38693  -0.38470
 Alpha  occ. eigenvalues --   -0.38175  -0.37893  -0.37778  -0.37306  -0.36958
 Alpha  occ. eigenvalues --   -0.36772  -0.36485  -0.35979  -0.35654  -0.35517
 Alpha  occ. eigenvalues --   -0.34883  -0.33932  -0.33679  -0.33365  -0.33115
 Alpha  occ. eigenvalues --   -0.32935  -0.32643  -0.31952  -0.31755  -0.30674
 Alpha  occ. eigenvalues --   -0.30512  -0.29361  -0.28865  -0.28248  -0.27454
 Alpha  occ. eigenvalues --   -0.27138  -0.26485  -0.26234  -0.24857  -0.23422
 Alpha  occ. eigenvalues --   -0.22746  -0.22557  -0.21044  -0.18491  -0.13331
 Alpha virt. eigenvalues --   -0.09224  -0.07367  -0.05497  -0.05427  -0.04143
 Alpha virt. eigenvalues --   -0.01879  -0.00106   0.00298   0.01530   0.02430
 Alpha virt. eigenvalues --    0.02615   0.03146   0.03189   0.03895   0.05007
 Alpha virt. eigenvalues --    0.05041   0.05364   0.05620   0.06122   0.06404
 Alpha virt. eigenvalues --    0.06451   0.06978   0.07287   0.08151   0.08395
 Alpha virt. eigenvalues --    0.08666   0.08817   0.08988   0.09374   0.09538
 Alpha virt. eigenvalues --    0.09681   0.10039   0.10356   0.10538   0.10655
 Alpha virt. eigenvalues --    0.10875   0.10995   0.11539   0.11935   0.12105
 Alpha virt. eigenvalues --    0.12179   0.12368   0.12484   0.12682   0.12808
 Alpha virt. eigenvalues --    0.13015   0.13204   0.13326   0.13701   0.13906
 Alpha virt. eigenvalues --    0.14278   0.14497   0.14729   0.14882   0.15052
 Alpha virt. eigenvalues --    0.15473   0.15592   0.16058   0.16170   0.16394
 Alpha virt. eigenvalues --    0.16561   0.16919   0.17202   0.17550   0.17802
 Alpha virt. eigenvalues --    0.17983   0.18242   0.18406   0.18560   0.18868
 Alpha virt. eigenvalues --    0.19017   0.19272   0.19419   0.19714   0.19851
 Alpha virt. eigenvalues --    0.20013   0.20037   0.20494   0.20752   0.20993
 Alpha virt. eigenvalues --    0.21063   0.21103   0.21457   0.21673   0.21956
 Alpha virt. eigenvalues --    0.22264   0.22432   0.22490   0.22780   0.23067
 Alpha virt. eigenvalues --    0.23347   0.23686   0.24089   0.24105   0.24385
 Alpha virt. eigenvalues --    0.24639   0.24944   0.25039   0.25324   0.25829
 Alpha virt. eigenvalues --    0.25955   0.26273   0.26535   0.26779   0.26920
 Alpha virt. eigenvalues --    0.27101   0.27234   0.27414   0.27643   0.27689
 Alpha virt. eigenvalues --    0.27873   0.28258   0.28296   0.28376   0.28713
 Alpha virt. eigenvalues --    0.28894   0.29223   0.29378   0.29823   0.30023
 Alpha virt. eigenvalues --    0.30165   0.30338   0.30700   0.30804   0.30908
 Alpha virt. eigenvalues --    0.31365   0.31545   0.31795   0.31851   0.32080
 Alpha virt. eigenvalues --    0.32315   0.32722   0.33051   0.33139   0.33464
 Alpha virt. eigenvalues --    0.33563   0.33796   0.34012   0.34039   0.34351
 Alpha virt. eigenvalues --    0.34519   0.34950   0.35349   0.35557   0.35866
 Alpha virt. eigenvalues --    0.36050   0.36314   0.36584   0.36797   0.36860
 Alpha virt. eigenvalues --    0.36988   0.37248   0.37409   0.37714   0.38020
 Alpha virt. eigenvalues --    0.38525   0.38658   0.38763   0.39006   0.39306
 Alpha virt. eigenvalues --    0.39601   0.39735   0.39991   0.40043   0.40457
 Alpha virt. eigenvalues --    0.40600   0.40841   0.40971   0.41149   0.41432
 Alpha virt. eigenvalues --    0.41517   0.41767   0.42020   0.42353   0.42573
 Alpha virt. eigenvalues --    0.42641   0.43076   0.43279   0.43498   0.43752
 Alpha virt. eigenvalues --    0.43917   0.44108   0.44267   0.44624   0.44653
 Alpha virt. eigenvalues --    0.44969   0.45087   0.45268   0.45334   0.45690
 Alpha virt. eigenvalues --    0.45833   0.46017   0.46230   0.46352   0.46663
 Alpha virt. eigenvalues --    0.46783   0.46885   0.47031   0.47274   0.47463
 Alpha virt. eigenvalues --    0.47761   0.47840   0.48150   0.48471   0.48623
 Alpha virt. eigenvalues --    0.48854   0.48988   0.49258   0.49361   0.49664
 Alpha virt. eigenvalues --    0.49716   0.49985   0.50108   0.50219   0.50529
 Alpha virt. eigenvalues --    0.50606   0.50715   0.50839   0.51211   0.51380
 Alpha virt. eigenvalues --    0.51558   0.51945   0.52113   0.52213   0.52533
 Alpha virt. eigenvalues --    0.52654   0.53051   0.53253   0.53489   0.53495
 Alpha virt. eigenvalues --    0.53778   0.53895   0.54041   0.54533   0.54608
 Alpha virt. eigenvalues --    0.54871   0.54967   0.55324   0.55490   0.55680
 Alpha virt. eigenvalues --    0.55925   0.56248   0.56590   0.56659   0.56775
 Alpha virt. eigenvalues --    0.57152   0.57367   0.57670   0.57857   0.57956
 Alpha virt. eigenvalues --    0.58447   0.58652   0.59031   0.59179   0.59492
 Alpha virt. eigenvalues --    0.59715   0.59966   0.60069   0.60331   0.60652
 Alpha virt. eigenvalues --    0.60989   0.61093   0.61229   0.61576   0.61897
 Alpha virt. eigenvalues --    0.62126   0.62350   0.62608   0.62640   0.63305
 Alpha virt. eigenvalues --    0.63627   0.63703   0.63984   0.64270   0.64642
 Alpha virt. eigenvalues --    0.64920   0.65188   0.65342   0.65945   0.66237
 Alpha virt. eigenvalues --    0.66476   0.66673   0.66826   0.67347   0.67541
 Alpha virt. eigenvalues --    0.67849   0.68008   0.68442   0.68598   0.68766
 Alpha virt. eigenvalues --    0.69360   0.69562   0.69756   0.69914   0.70094
 Alpha virt. eigenvalues --    0.70474   0.70702   0.71306   0.71543   0.71753
 Alpha virt. eigenvalues --    0.72008   0.72388   0.72426   0.72580   0.73016
 Alpha virt. eigenvalues --    0.73386   0.73772   0.73850   0.74157   0.74469
 Alpha virt. eigenvalues --    0.74811   0.74925   0.75200   0.75632   0.75913
 Alpha virt. eigenvalues --    0.76234   0.76648   0.76923   0.77369   0.77671
 Alpha virt. eigenvalues --    0.77772   0.78086   0.78447   0.78590   0.79106
 Alpha virt. eigenvalues --    0.79153   0.79374   0.79496   0.79958   0.80086
 Alpha virt. eigenvalues --    0.80442   0.81263   0.81471   0.81958   0.82079
 Alpha virt. eigenvalues --    0.82244   0.82749   0.83059   0.83391   0.83780
 Alpha virt. eigenvalues --    0.84194   0.84285   0.84538   0.84698   0.85085
 Alpha virt. eigenvalues --    0.85787   0.85928   0.86145   0.86528   0.87061
 Alpha virt. eigenvalues --    0.87166   0.87611   0.87876   0.88100   0.88291
 Alpha virt. eigenvalues --    0.88538   0.89026   0.89306   0.89735   0.90085
 Alpha virt. eigenvalues --    0.90488   0.90695   0.91093   0.91246   0.91472
 Alpha virt. eigenvalues --    0.91630   0.91932   0.92086   0.92377   0.92457
 Alpha virt. eigenvalues --    0.92909   0.93200   0.93401   0.93416   0.93956
 Alpha virt. eigenvalues --    0.94224   0.94543   0.94888   0.95266   0.95444
 Alpha virt. eigenvalues --    0.95769   0.96014   0.96363   0.96727   0.97140
 Alpha virt. eigenvalues --    0.97423   0.97906   0.98145   0.98443   0.98732
 Alpha virt. eigenvalues --    0.99058   0.99302   0.99469   0.99837   1.00137
 Alpha virt. eigenvalues --    1.00286   1.00652   1.01058   1.01191   1.01724
 Alpha virt. eigenvalues --    1.01908   1.02206   1.02319   1.02461   1.02821
 Alpha virt. eigenvalues --    1.03350   1.03642   1.04008   1.04583   1.04688
 Alpha virt. eigenvalues --    1.05193   1.05252   1.05835   1.06118   1.06186
 Alpha virt. eigenvalues --    1.06643   1.06962   1.07301   1.08030   1.08090
 Alpha virt. eigenvalues --    1.08168   1.08691   1.08843   1.09209   1.09679
 Alpha virt. eigenvalues --    1.10059   1.10352   1.10744   1.11302   1.11594
 Alpha virt. eigenvalues --    1.11843   1.12327   1.12596   1.13013   1.13250
 Alpha virt. eigenvalues --    1.13534   1.14119   1.14561   1.14772   1.15212
 Alpha virt. eigenvalues --    1.15743   1.16441   1.16806   1.16978   1.17506
 Alpha virt. eigenvalues --    1.17678   1.17832   1.18304   1.18559   1.18706
 Alpha virt. eigenvalues --    1.18968   1.20005   1.20080   1.20585   1.21089
 Alpha virt. eigenvalues --    1.21149   1.21886   1.21934   1.22191   1.22776
 Alpha virt. eigenvalues --    1.23152   1.23299   1.23937   1.24057   1.24361
 Alpha virt. eigenvalues --    1.24717   1.25112   1.25178   1.25571   1.26138
 Alpha virt. eigenvalues --    1.26628   1.27270   1.27414   1.27992   1.28556
 Alpha virt. eigenvalues --    1.28894   1.29108   1.29522   1.29928   1.30479
 Alpha virt. eigenvalues --    1.30625   1.30786   1.31211   1.31951   1.32072
 Alpha virt. eigenvalues --    1.32276   1.32758   1.33020   1.33401   1.34273
 Alpha virt. eigenvalues --    1.34766   1.34862   1.35300   1.35349   1.35808
 Alpha virt. eigenvalues --    1.36194   1.36641   1.37201   1.37540   1.37667
 Alpha virt. eigenvalues --    1.38361   1.38801   1.39446   1.40107   1.40438
 Alpha virt. eigenvalues --    1.41243   1.41386   1.41818   1.42238   1.42451
 Alpha virt. eigenvalues --    1.42788   1.42890   1.43372   1.43694   1.44105
 Alpha virt. eigenvalues --    1.44683   1.44953   1.45082   1.45376   1.46052
 Alpha virt. eigenvalues --    1.46188   1.46655   1.46959   1.47317   1.48097
 Alpha virt. eigenvalues --    1.48358   1.48709   1.48993   1.49313   1.49668
 Alpha virt. eigenvalues --    1.50059   1.50233   1.50405   1.50430   1.50961
 Alpha virt. eigenvalues --    1.51325   1.51367   1.51682   1.52533   1.52679
 Alpha virt. eigenvalues --    1.52945   1.53084   1.53425   1.53664   1.53991
 Alpha virt. eigenvalues --    1.54042   1.54415   1.54989   1.55377   1.55593
 Alpha virt. eigenvalues --    1.55838   1.56002   1.56475   1.56816   1.56979
 Alpha virt. eigenvalues --    1.57557   1.57686   1.58006   1.58366   1.58557
 Alpha virt. eigenvalues --    1.59032   1.59329   1.59561   1.59774   1.59917
 Alpha virt. eigenvalues --    1.59985   1.60463   1.60738   1.60981   1.61338
 Alpha virt. eigenvalues --    1.61658   1.62033   1.62089   1.62395   1.62472
 Alpha virt. eigenvalues --    1.62924   1.63186   1.63254   1.63795   1.64133
 Alpha virt. eigenvalues --    1.64930   1.65098   1.65303   1.65532   1.65542
 Alpha virt. eigenvalues --    1.65814   1.66160   1.66665   1.67080   1.67662
 Alpha virt. eigenvalues --    1.67819   1.68007   1.68194   1.68639   1.68825
 Alpha virt. eigenvalues --    1.69344   1.69642   1.70098   1.70233   1.70553
 Alpha virt. eigenvalues --    1.70566   1.71254   1.71754   1.71837   1.72301
 Alpha virt. eigenvalues --    1.72782   1.73161   1.73183   1.73657   1.74084
 Alpha virt. eigenvalues --    1.74209   1.74718   1.75230   1.75480   1.75652
 Alpha virt. eigenvalues --    1.76109   1.76284   1.76386   1.77306   1.77918
 Alpha virt. eigenvalues --    1.78177   1.79095   1.79262   1.79526   1.80123
 Alpha virt. eigenvalues --    1.80556   1.80990   1.81415   1.81791   1.82056
 Alpha virt. eigenvalues --    1.82430   1.82727   1.83224   1.83833   1.84004
 Alpha virt. eigenvalues --    1.84757   1.84805   1.85145   1.85339   1.85815
 Alpha virt. eigenvalues --    1.86275   1.86516   1.86730   1.87273   1.87548
 Alpha virt. eigenvalues --    1.87971   1.88253   1.88605   1.88925   1.89416
 Alpha virt. eigenvalues --    1.90062   1.90447   1.90673   1.91087   1.91257
 Alpha virt. eigenvalues --    1.92074   1.92307   1.92662   1.93082   1.93127
 Alpha virt. eigenvalues --    1.93592   1.93756   1.94142   1.94564   1.95008
 Alpha virt. eigenvalues --    1.95605   1.95754   1.95940   1.96437   1.96780
 Alpha virt. eigenvalues --    1.97219   1.97789   1.97869   1.98538   1.98826
 Alpha virt. eigenvalues --    1.99039   1.99566   1.99882   2.00601   2.00873
 Alpha virt. eigenvalues --    2.01155   2.01416   2.01730   2.02164   2.02901
 Alpha virt. eigenvalues --    2.03034   2.03505   2.04013   2.04365   2.04554
 Alpha virt. eigenvalues --    2.05325   2.05850   2.05916   2.06111   2.06590
 Alpha virt. eigenvalues --    2.06916   2.07700   2.07864   2.07986   2.08559
 Alpha virt. eigenvalues --    2.08682   2.09226   2.09636   2.09936   2.10665
 Alpha virt. eigenvalues --    2.11061   2.11462   2.11701   2.11936   2.12153
 Alpha virt. eigenvalues --    2.12526   2.12602   2.13403   2.13619   2.13816
 Alpha virt. eigenvalues --    2.14393   2.14891   2.14965   2.15430   2.15875
 Alpha virt. eigenvalues --    2.16557   2.16740   2.17046   2.17737   2.17850
 Alpha virt. eigenvalues --    2.18267   2.18638   2.19179   2.19555   2.19740
 Alpha virt. eigenvalues --    2.19902   2.20933   2.21131   2.21379   2.21572
 Alpha virt. eigenvalues --    2.22014   2.22546   2.22931   2.23808   2.23938
 Alpha virt. eigenvalues --    2.24344   2.24613   2.24975   2.25206   2.25701
 Alpha virt. eigenvalues --    2.26404   2.26813   2.27189   2.28006   2.28381
 Alpha virt. eigenvalues --    2.28761   2.29173   2.29350   2.30151   2.30801
 Alpha virt. eigenvalues --    2.30908   2.31414   2.31522   2.31579   2.32300
 Alpha virt. eigenvalues --    2.32965   2.33191   2.33896   2.34017   2.34794
 Alpha virt. eigenvalues --    2.35379   2.35470   2.36010   2.36488   2.36858
 Alpha virt. eigenvalues --    2.37144   2.37542   2.37940   2.38102   2.38443
 Alpha virt. eigenvalues --    2.38814   2.39103   2.39523   2.39797   2.40595
 Alpha virt. eigenvalues --    2.40897   2.41362   2.41615   2.42127   2.42379
 Alpha virt. eigenvalues --    2.42765   2.42931   2.43617   2.43829   2.44315
 Alpha virt. eigenvalues --    2.44463   2.45259   2.45641   2.45797   2.45991
 Alpha virt. eigenvalues --    2.46601   2.46845   2.47114   2.47312   2.47952
 Alpha virt. eigenvalues --    2.48271   2.48436   2.49037   2.49330   2.49459
 Alpha virt. eigenvalues --    2.49852   2.50445   2.50977   2.51234   2.51711
 Alpha virt. eigenvalues --    2.52205   2.52467   2.53467   2.53788   2.54307
 Alpha virt. eigenvalues --    2.54381   2.54925   2.55211   2.55380   2.55433
 Alpha virt. eigenvalues --    2.55911   2.56218   2.56960   2.57158   2.57521
 Alpha virt. eigenvalues --    2.57710   2.57871   2.58410   2.58844   2.59070
 Alpha virt. eigenvalues --    2.59222   2.60021   2.60393   2.60752   2.60860
 Alpha virt. eigenvalues --    2.61376   2.61644   2.61995   2.62248   2.63174
 Alpha virt. eigenvalues --    2.63642   2.64249   2.64384   2.64665   2.64811
 Alpha virt. eigenvalues --    2.65596   2.65735   2.65890   2.66150   2.66207
 Alpha virt. eigenvalues --    2.66435   2.67423   2.67505   2.67856   2.68369
 Alpha virt. eigenvalues --    2.68799   2.68890   2.69072   2.69230   2.69419
 Alpha virt. eigenvalues --    2.69814   2.70031   2.70401   2.70890   2.71097
 Alpha virt. eigenvalues --    2.71746   2.72219   2.72785   2.73092   2.73521
 Alpha virt. eigenvalues --    2.73656   2.74070   2.74243   2.74514   2.74949
 Alpha virt. eigenvalues --    2.75232   2.75757   2.76493   2.76845   2.77121
 Alpha virt. eigenvalues --    2.77533   2.77681   2.78347   2.78606   2.79037
 Alpha virt. eigenvalues --    2.79864   2.79973   2.80254   2.80655   2.81207
 Alpha virt. eigenvalues --    2.81606   2.81901   2.82481   2.82727   2.82824
 Alpha virt. eigenvalues --    2.83299   2.83627   2.83815   2.84488   2.84797
 Alpha virt. eigenvalues --    2.84848   2.85818   2.86217   2.86258   2.86491
 Alpha virt. eigenvalues --    2.87023   2.87441   2.87843   2.88268   2.88630
 Alpha virt. eigenvalues --    2.88914   2.89216   2.89564   2.89787   2.90188
 Alpha virt. eigenvalues --    2.90321   2.90895   2.90991   2.91451   2.92037
 Alpha virt. eigenvalues --    2.92337   2.92639   2.93131   2.93567   2.93713
 Alpha virt. eigenvalues --    2.94084   2.94190   2.94584   2.94601   2.95029
 Alpha virt. eigenvalues --    2.95702   2.95856   2.96075   2.96129   2.96657
 Alpha virt. eigenvalues --    2.96786   2.97838   2.97920   2.98109   2.98620
 Alpha virt. eigenvalues --    2.98799   2.99449   2.99590   2.99899   2.99962
 Alpha virt. eigenvalues --    3.00627   3.00727   3.01105   3.01374   3.01652
 Alpha virt. eigenvalues --    3.01914   3.02379   3.02527   3.02822   3.03160
 Alpha virt. eigenvalues --    3.03423   3.04351   3.04479   3.04868   3.05213
 Alpha virt. eigenvalues --    3.05428   3.05613   3.05985   3.06149   3.06458
 Alpha virt. eigenvalues --    3.06823   3.07070   3.07177   3.07466   3.07779
 Alpha virt. eigenvalues --    3.08225   3.08519   3.08704   3.08849   3.08988
 Alpha virt. eigenvalues --    3.09502   3.09708   3.10043   3.10405   3.10585
 Alpha virt. eigenvalues --    3.10896   3.11048   3.11570   3.11963   3.12404
 Alpha virt. eigenvalues --    3.12712   3.12729   3.13489   3.13576   3.13902
 Alpha virt. eigenvalues --    3.14029   3.14229   3.14650   3.14846   3.14945
 Alpha virt. eigenvalues --    3.15172   3.15335   3.15846   3.16024   3.16025
 Alpha virt. eigenvalues --    3.16514   3.16548   3.17172   3.17331   3.17889
 Alpha virt. eigenvalues --    3.17988   3.18425   3.18737   3.18971   3.19243
 Alpha virt. eigenvalues --    3.19467   3.19908   3.20085   3.20376   3.20682
 Alpha virt. eigenvalues --    3.21012   3.21078   3.21605   3.21663   3.22391
 Alpha virt. eigenvalues --    3.22453   3.22966   3.23272   3.23393   3.23439
 Alpha virt. eigenvalues --    3.23745   3.23806   3.23922   3.24296   3.24390
 Alpha virt. eigenvalues --    3.24608   3.25011   3.25439   3.25764   3.26445
 Alpha virt. eigenvalues --    3.26559   3.26762   3.26931   3.27108   3.27378
 Alpha virt. eigenvalues --    3.27678   3.28049   3.28492   3.28590   3.28892
 Alpha virt. eigenvalues --    3.29188   3.29242   3.29802   3.30003   3.30127
 Alpha virt. eigenvalues --    3.30660   3.30846   3.31053   3.31418   3.31602
 Alpha virt. eigenvalues --    3.32094   3.32381   3.32511   3.32633   3.32965
 Alpha virt. eigenvalues --    3.33309   3.33767   3.34271   3.34321   3.34600
 Alpha virt. eigenvalues --    3.34793   3.34949   3.35389   3.35742   3.36048
 Alpha virt. eigenvalues --    3.36288   3.36713   3.36969   3.37306   3.37388
 Alpha virt. eigenvalues --    3.37655   3.37917   3.38285   3.38490   3.38801
 Alpha virt. eigenvalues --    3.39052   3.39288   3.39570   3.40025   3.40073
 Alpha virt. eigenvalues --    3.40415   3.40606   3.40951   3.41393   3.41745
 Alpha virt. eigenvalues --    3.41988   3.42394   3.42611   3.42886   3.43042
 Alpha virt. eigenvalues --    3.43431   3.43649   3.43736   3.44458   3.44499
 Alpha virt. eigenvalues --    3.44923   3.45414   3.45693   3.46038   3.46603
 Alpha virt. eigenvalues --    3.47182   3.47420   3.47603   3.47986   3.48319
 Alpha virt. eigenvalues --    3.48932   3.49341   3.49443   3.49957   3.50132
 Alpha virt. eigenvalues --    3.50366   3.50970   3.51086   3.51485   3.52109
 Alpha virt. eigenvalues --    3.52586   3.52779   3.53287   3.53630   3.54082
 Alpha virt. eigenvalues --    3.54228   3.54619   3.55257   3.55458   3.55840
 Alpha virt. eigenvalues --    3.56188   3.56414   3.56749   3.57274   3.57409
 Alpha virt. eigenvalues --    3.57690   3.58164   3.58940   3.59098   3.59730
 Alpha virt. eigenvalues --    3.59913   3.60036   3.60507   3.61233   3.61439
 Alpha virt. eigenvalues --    3.61832   3.61938   3.62193   3.62923   3.63275
 Alpha virt. eigenvalues --    3.63493   3.64002   3.64371   3.64711   3.65019
 Alpha virt. eigenvalues --    3.65226   3.65873   3.66307   3.66866   3.67482
 Alpha virt. eigenvalues --    3.67793   3.67927   3.68348   3.68537   3.69001
 Alpha virt. eigenvalues --    3.69422   3.70151   3.70489   3.70967   3.71336
 Alpha virt. eigenvalues --    3.71721   3.71928   3.72022   3.72589   3.72787
 Alpha virt. eigenvalues --    3.73468   3.73567   3.73911   3.74208   3.74656
 Alpha virt. eigenvalues --    3.75159   3.75610   3.75877   3.76928   3.77362
 Alpha virt. eigenvalues --    3.78006   3.78304   3.78666   3.79321   3.79694
 Alpha virt. eigenvalues --    3.79959   3.80380   3.81101   3.81412   3.81937
 Alpha virt. eigenvalues --    3.82545   3.82726   3.83027   3.83379   3.83615
 Alpha virt. eigenvalues --    3.84341   3.84461   3.85251   3.85498   3.85819
 Alpha virt. eigenvalues --    3.86109   3.86419   3.87526   3.88157   3.88422
 Alpha virt. eigenvalues --    3.88989   3.89775   3.90106   3.90411   3.90592
 Alpha virt. eigenvalues --    3.90922   3.91895   3.92420   3.93006   3.93603
 Alpha virt. eigenvalues --    3.93762   3.94097   3.95005   3.95758   3.96029
 Alpha virt. eigenvalues --    3.96769   3.97773   3.98888   3.99436   3.99505
 Alpha virt. eigenvalues --    4.00125   4.00789   4.01114   4.01218   4.02266
 Alpha virt. eigenvalues --    4.03279   4.03414   4.03995   4.04186   4.04786
 Alpha virt. eigenvalues --    4.05381   4.05687   4.06094   4.06394   4.07233
 Alpha virt. eigenvalues --    4.08172   4.08501   4.08619   4.09869   4.10187
 Alpha virt. eigenvalues --    4.10782   4.11400   4.11717   4.12368   4.12926
 Alpha virt. eigenvalues --    4.13272   4.14264   4.15052   4.15277   4.15962
 Alpha virt. eigenvalues --    4.16563   4.17426   4.17827   4.18026   4.18396
 Alpha virt. eigenvalues --    4.19174   4.19521   4.19919   4.20194   4.20430
 Alpha virt. eigenvalues --    4.21495   4.21657   4.22468   4.23030   4.23155
 Alpha virt. eigenvalues --    4.23703   4.23832   4.24820   4.25574   4.26245
 Alpha virt. eigenvalues --    4.27257   4.27413   4.28431   4.29100   4.29671
 Alpha virt. eigenvalues --    4.30289   4.30725   4.31559   4.31677   4.32472
 Alpha virt. eigenvalues --    4.33631   4.33668   4.34044   4.34396   4.34768
 Alpha virt. eigenvalues --    4.35022   4.35726   4.36234   4.36568   4.36814
 Alpha virt. eigenvalues --    4.37761   4.38150   4.38222   4.39028   4.40786
 Alpha virt. eigenvalues --    4.41048   4.41249   4.41391   4.41569   4.42982
 Alpha virt. eigenvalues --    4.43178   4.43522   4.43797   4.45013   4.45306
 Alpha virt. eigenvalues --    4.45924   4.46498   4.47243   4.47711   4.48543
 Alpha virt. eigenvalues --    4.49193   4.50271   4.51309   4.52094   4.53067
 Alpha virt. eigenvalues --    4.53188   4.54681   4.55190   4.55825   4.55967
 Alpha virt. eigenvalues --    4.56416   4.57475   4.58002   4.58548   4.59041
 Alpha virt. eigenvalues --    4.59454   4.60895   4.61448   4.61816   4.62302
 Alpha virt. eigenvalues --    4.62497   4.62594   4.63399   4.64458   4.64759
 Alpha virt. eigenvalues --    4.64995   4.66346   4.66813   4.67455   4.67588
 Alpha virt. eigenvalues --    4.67917   4.68452   4.68934   4.69966   4.70705
 Alpha virt. eigenvalues --    4.71768   4.71821   4.72148   4.72909   4.73646
 Alpha virt. eigenvalues --    4.74015   4.75225   4.76332   4.76751   4.77162
 Alpha virt. eigenvalues --    4.77871   4.78735   4.79152   4.79776   4.80325
 Alpha virt. eigenvalues --    4.80651   4.81478   4.81969   4.82528   4.82881
 Alpha virt. eigenvalues --    4.83789   4.84208   4.84893   4.85256   4.86388
 Alpha virt. eigenvalues --    4.86583   4.87216   4.88250   4.89269   4.89900
 Alpha virt. eigenvalues --    4.90322   4.91192   4.92323   4.93113   4.94032
 Alpha virt. eigenvalues --    4.95022   4.95624   4.96137   4.97408   4.97566
 Alpha virt. eigenvalues --    4.98692   4.99293   5.00636   5.01125   5.02190
 Alpha virt. eigenvalues --    5.02559   5.03653   5.05098   5.05379   5.06362
 Alpha virt. eigenvalues --    5.07093   5.07422   5.07878   5.08493   5.12202
 Alpha virt. eigenvalues --    5.13183   5.13992   5.14835   5.15626   5.16184
 Alpha virt. eigenvalues --    5.17077   5.18323   5.18682   5.19145   5.19865
 Alpha virt. eigenvalues --    5.20407   5.20601   5.21012   5.21481   5.22149
 Alpha virt. eigenvalues --    5.22588   5.23095   5.24067   5.24660   5.26170
 Alpha virt. eigenvalues --    5.26776   5.27279   5.27667   5.28841   5.29369
 Alpha virt. eigenvalues --    5.30160   5.32510   5.32959   5.33916   5.34977
 Alpha virt. eigenvalues --    5.35480   5.36889   5.38139   5.38479   5.40301
 Alpha virt. eigenvalues --    5.40794   5.42572   5.44193   5.44894   5.45544
 Alpha virt. eigenvalues --    5.47009   5.47934   5.49752   5.49969   5.50645
 Alpha virt. eigenvalues --    5.51314   5.52888   5.53503   5.54899   5.55346
 Alpha virt. eigenvalues --    5.56572   5.57996   5.58308   5.58678   5.59066
 Alpha virt. eigenvalues --    5.60562   5.62153   5.64418   5.65105   5.66418
 Alpha virt. eigenvalues --    5.67104   5.70712   5.73723   5.75495   5.77938
 Alpha virt. eigenvalues --    5.79153   5.82162   5.84335   5.85634   5.86847
 Alpha virt. eigenvalues --    5.89130   5.89570   5.90471   5.91026   5.94943
 Alpha virt. eigenvalues --    5.97995   5.98815   6.01142   6.03673   6.04604
 Alpha virt. eigenvalues --    6.05243   6.06313   6.06891   6.08831   6.09519
 Alpha virt. eigenvalues --    6.10256   6.12940   6.18233   6.19164   6.24979
 Alpha virt. eigenvalues --    6.26829   6.28805   6.31987   6.36754   6.37033
 Alpha virt. eigenvalues --    6.41949   6.41998   6.44073   6.44963   6.47517
 Alpha virt. eigenvalues --    6.49616   6.57344   6.64552   6.66901   6.68104
 Alpha virt. eigenvalues --    6.71935   6.85228   6.92111   6.93022   6.98353
 Alpha virt. eigenvalues --    7.01179   7.05773   7.08449   7.12785   7.17753
 Alpha virt. eigenvalues --    7.20007   7.24805   7.26332  22.16654  22.19186
 Alpha virt. eigenvalues --   22.37118  22.41084  22.48803  22.52879  22.53237
 Alpha virt. eigenvalues --   22.55492  22.58379  22.59854  22.60725  22.63360
 Alpha virt. eigenvalues --   22.67587  22.70970  22.72266  22.77100  22.79416
 Alpha virt. eigenvalues --   22.84383  23.02191  23.02567  23.04560  23.05489
 Alpha virt. eigenvalues --   23.17577  23.18829  23.22923  23.25547  23.30409
 Alpha virt. eigenvalues --   23.31661  23.36094  23.42675  23.50386  23.53764
 Alpha virt. eigenvalues --   23.54453  23.60386  23.68677  23.74862  23.76169
 Alpha virt. eigenvalues --   23.86358  32.41693  32.58493  32.76098  32.86423
 Alpha virt. eigenvalues --   32.88818  33.08251  43.92876  43.97247  43.99997
 Alpha virt. eigenvalues --   44.02429
  Beta  occ. eigenvalues -- -256.40337 -30.15075 -25.98395 -25.98292 -25.97361
  Beta  occ. eigenvalues --  -19.25661 -19.24818 -19.18878 -19.18797 -14.46636
  Beta  occ. eigenvalues --  -14.41133 -14.40050 -14.39911 -14.38946 -14.38816
  Beta  occ. eigenvalues --  -10.35613 -10.35429 -10.30338 -10.28359 -10.27268
  Beta  occ. eigenvalues --  -10.26465 -10.25973 -10.25921 -10.25808 -10.25676
  Beta  occ. eigenvalues --  -10.25550 -10.25151 -10.25062 -10.24933 -10.24863
  Beta  occ. eigenvalues --  -10.24729 -10.24420 -10.24207 -10.23968 -10.23920
  Beta  occ. eigenvalues --  -10.23501 -10.23032 -10.22865 -10.22817 -10.22563
  Beta  occ. eigenvalues --  -10.22465 -10.22363 -10.21909 -10.21713 -10.21642
  Beta  occ. eigenvalues --  -10.21465 -10.21442 -10.21195 -10.21064 -10.21007
  Beta  occ. eigenvalues --  -10.20799 -10.20536 -10.20336  -3.45795  -2.21833
  Beta  occ. eigenvalues --   -2.21809  -2.18102  -1.18334  -1.15196  -1.07074
  Beta  occ. eigenvalues --   -1.04362  -1.01668  -0.98416  -0.96314  -0.95214
  Beta  occ. eigenvalues --   -0.94085  -0.92163  -0.86178  -0.84821  -0.83990
  Beta  occ. eigenvalues --   -0.82768  -0.82740  -0.81793  -0.81053  -0.80642
  Beta  occ. eigenvalues --   -0.79425  -0.78674  -0.76625  -0.75346  -0.74450
  Beta  occ. eigenvalues --   -0.74360  -0.72928  -0.72260  -0.72029  -0.71051
  Beta  occ. eigenvalues --   -0.69865  -0.69450  -0.68972  -0.67494  -0.66805
  Beta  occ. eigenvalues --   -0.66082  -0.65284  -0.64314  -0.63595  -0.62677
  Beta  occ. eigenvalues --   -0.59783  -0.59201  -0.58181  -0.57248  -0.56416
  Beta  occ. eigenvalues --   -0.55610  -0.54822  -0.54416  -0.53369  -0.53071
  Beta  occ. eigenvalues --   -0.52762  -0.52307  -0.52032  -0.50942  -0.50375
  Beta  occ. eigenvalues --   -0.49320  -0.49221  -0.49055  -0.48889  -0.48675
  Beta  occ. eigenvalues --   -0.48481  -0.47916  -0.47533  -0.47124  -0.46355
  Beta  occ. eigenvalues --   -0.45846  -0.45720  -0.45383  -0.44973  -0.44804
  Beta  occ. eigenvalues --   -0.44668  -0.44276  -0.44217  -0.43930  -0.43823
  Beta  occ. eigenvalues --   -0.43361  -0.42996  -0.42570  -0.42299  -0.42123
  Beta  occ. eigenvalues --   -0.41954  -0.41494  -0.41232  -0.40875  -0.40756
  Beta  occ. eigenvalues --   -0.40258  -0.40036  -0.39759  -0.39567  -0.39141
  Beta  occ. eigenvalues --   -0.38971  -0.38413  -0.38370  -0.38083  -0.37730
  Beta  occ. eigenvalues --   -0.37526  -0.37391  -0.36926  -0.36273  -0.36193
  Beta  occ. eigenvalues --   -0.35890  -0.35642  -0.35100  -0.34632  -0.33879
  Beta  occ. eigenvalues --   -0.33630  -0.33316  -0.33110  -0.32941  -0.32888
  Beta  occ. eigenvalues --   -0.32240  -0.31467  -0.30284  -0.29362  -0.28255
  Beta  occ. eigenvalues --   -0.27445  -0.27143  -0.27064  -0.26608  -0.25490
  Beta  occ. eigenvalues --   -0.25211  -0.24090  -0.22873  -0.21408  -0.18579
  Beta  occ. eigenvalues --   -0.15039
  Beta virt. eigenvalues --   -0.10940  -0.08922  -0.06134  -0.05448  -0.04751
  Beta virt. eigenvalues --   -0.03906  -0.03675  -0.01877  -0.00844   0.00269
  Beta virt. eigenvalues --    0.00735   0.01618   0.02082   0.02615   0.02719
  Beta virt. eigenvalues --    0.03206   0.03415   0.03931   0.05081   0.05262
  Beta virt. eigenvalues --    0.05476   0.05772   0.06369   0.06495   0.06592
  Beta virt. eigenvalues --    0.07332   0.07723   0.08288   0.08530   0.08831
  Beta virt. eigenvalues --    0.09022   0.09071   0.09456   0.09709   0.09919
  Beta virt. eigenvalues --    0.10141   0.10403   0.10709   0.10813   0.11156
  Beta virt. eigenvalues --    0.11285   0.11663   0.11993   0.12160   0.12229
  Beta virt. eigenvalues --    0.12504   0.12615   0.12835   0.12947   0.13101
  Beta virt. eigenvalues --    0.13270   0.13487   0.13748   0.13954   0.14456
  Beta virt. eigenvalues --    0.14553   0.14798   0.14945   0.15147   0.15515
  Beta virt. eigenvalues --    0.15663   0.16159   0.16231   0.16428   0.16676
  Beta virt. eigenvalues --    0.17017   0.17317   0.17705   0.18033   0.18136
  Beta virt. eigenvalues --    0.18430   0.18574   0.18610   0.18950   0.19087
  Beta virt. eigenvalues --    0.19534   0.19578   0.19816   0.19933   0.20112
  Beta virt. eigenvalues --    0.20301   0.20777   0.20936   0.21153   0.21193
  Beta virt. eigenvalues --    0.21437   0.21631   0.21872   0.22075   0.22440
  Beta virt. eigenvalues --    0.22511   0.22641   0.22999   0.23165   0.23500
  Beta virt. eigenvalues --    0.23967   0.24147   0.24366   0.24492   0.24784
  Beta virt. eigenvalues --    0.25081   0.25108   0.25432   0.25998   0.26043
  Beta virt. eigenvalues --    0.26363   0.26721   0.26970   0.27088   0.27278
  Beta virt. eigenvalues --    0.27402   0.27592   0.27886   0.27994   0.28200
  Beta virt. eigenvalues --    0.28466   0.28492   0.28843   0.28947   0.29164
  Beta virt. eigenvalues --    0.29482   0.29742   0.30084   0.30420   0.30618
  Beta virt. eigenvalues --    0.30717   0.30859   0.31033   0.31214   0.31635
  Beta virt. eigenvalues --    0.31829   0.31899   0.32054   0.32403   0.32766
  Beta virt. eigenvalues --    0.32884   0.33188   0.33294   0.33583   0.33689
  Beta virt. eigenvalues --    0.33976   0.34126   0.34405   0.34629   0.34776
  Beta virt. eigenvalues --    0.35265   0.35529   0.35876   0.36111   0.36319
  Beta virt. eigenvalues --    0.36461   0.36716   0.36922   0.36981   0.37143
  Beta virt. eigenvalues --    0.37486   0.37548   0.37945   0.38244   0.38715
  Beta virt. eigenvalues --    0.38860   0.38982   0.39140   0.39420   0.39718
  Beta virt. eigenvalues --    0.39827   0.40122   0.40188   0.40666   0.40759
  Beta virt. eigenvalues --    0.41043   0.41136   0.41348   0.41566   0.41614
  Beta virt. eigenvalues --    0.41946   0.42227   0.42506   0.42742   0.42759
  Beta virt. eigenvalues --    0.43215   0.43567   0.43628   0.43892   0.44025
  Beta virt. eigenvalues --    0.44185   0.44594   0.44705   0.44757   0.45151
  Beta virt. eigenvalues --    0.45256   0.45334   0.45490   0.45837   0.45962
  Beta virt. eigenvalues --    0.46165   0.46349   0.46504   0.46742   0.46880
  Beta virt. eigenvalues --    0.47049   0.47138   0.47411   0.47573   0.47859
  Beta virt. eigenvalues --    0.47946   0.48392   0.48684   0.48890   0.49014
  Beta virt. eigenvalues --    0.49106   0.49436   0.49496   0.49794   0.49847
  Beta virt. eigenvalues --    0.50152   0.50208   0.50538   0.50708   0.50759
  Beta virt. eigenvalues --    0.50911   0.50967   0.51318   0.51503   0.51765
  Beta virt. eigenvalues --    0.52078   0.52253   0.52479   0.52695   0.52803
  Beta virt. eigenvalues --    0.53267   0.53398   0.53559   0.53704   0.53888
  Beta virt. eigenvalues --    0.53953   0.54388   0.54618   0.54799   0.55024
  Beta virt. eigenvalues --    0.55098   0.55430   0.55650   0.55813   0.56052
  Beta virt. eigenvalues --    0.56360   0.56680   0.56717   0.56897   0.57237
  Beta virt. eigenvalues --    0.57502   0.57835   0.57959   0.58054   0.58769
  Beta virt. eigenvalues --    0.58794   0.59109   0.59342   0.59682   0.59802
  Beta virt. eigenvalues --    0.60145   0.60166   0.60450   0.60787   0.61131
  Beta virt. eigenvalues --    0.61257   0.61391   0.61705   0.61979   0.62332
  Beta virt. eigenvalues --    0.62468   0.62705   0.62772   0.63399   0.63752
  Beta virt. eigenvalues --    0.63829   0.64089   0.64376   0.64707   0.65087
  Beta virt. eigenvalues --    0.65269   0.65445   0.66031   0.66405   0.66571
  Beta virt. eigenvalues --    0.66844   0.67002   0.67449   0.67684   0.67917
  Beta virt. eigenvalues --    0.68114   0.68577   0.68693   0.68942   0.69449
  Beta virt. eigenvalues --    0.69687   0.69873   0.70130   0.70293   0.70572
  Beta virt. eigenvalues --    0.70851   0.71378   0.71643   0.71873   0.72167
  Beta virt. eigenvalues --    0.72477   0.72675   0.72688   0.73284   0.73460
  Beta virt. eigenvalues --    0.73819   0.74023   0.74276   0.74607   0.74982
  Beta virt. eigenvalues --    0.75047   0.75285   0.75716   0.76048   0.76399
  Beta virt. eigenvalues --    0.76820   0.76981   0.77513   0.77725   0.77877
  Beta virt. eigenvalues --    0.78179   0.78624   0.78681   0.79258   0.79343
  Beta virt. eigenvalues --    0.79603   0.79646   0.80059   0.80266   0.80616
  Beta virt. eigenvalues --    0.81364   0.81606   0.82088   0.82338   0.82563
  Beta virt. eigenvalues --    0.82856   0.83222   0.83590   0.83869   0.84320
  Beta virt. eigenvalues --    0.84468   0.84702   0.84813   0.85290   0.85994
  Beta virt. eigenvalues --    0.86031   0.86256   0.86648   0.87268   0.87302
  Beta virt. eigenvalues --    0.87800   0.87983   0.88249   0.88362   0.88653
  Beta virt. eigenvalues --    0.89301   0.89494   0.89972   0.90222   0.90643
  Beta virt. eigenvalues --    0.90841   0.91370   0.91582   0.91746   0.91795
  Beta virt. eigenvalues --    0.91984   0.92253   0.92509   0.92531   0.93047
  Beta virt. eigenvalues --    0.93436   0.93630   0.93659   0.94157   0.94311
  Beta virt. eigenvalues --    0.94991   0.95237   0.95530   0.95903   0.96000
  Beta virt. eigenvalues --    0.96187   0.96493   0.96937   0.97273   0.97664
  Beta virt. eigenvalues --    0.98095   0.98286   0.98826   0.98925   0.99226
  Beta virt. eigenvalues --    0.99422   0.99789   1.00155   1.00321   1.00702
  Beta virt. eigenvalues --    1.00899   1.01283   1.01469   1.02130   1.02216
  Beta virt. eigenvalues --    1.02378   1.02552   1.02730   1.03147   1.03569
  Beta virt. eigenvalues --    1.03780   1.04084   1.04783   1.05290   1.05312
  Beta virt. eigenvalues --    1.05519   1.06039   1.06409   1.06833   1.07002
  Beta virt. eigenvalues --    1.07281   1.07728   1.08181   1.08381   1.08587
  Beta virt. eigenvalues --    1.09175   1.09328   1.09450   1.09998   1.10359
  Beta virt. eigenvalues --    1.10609   1.11048   1.11386   1.11703   1.12133
  Beta virt. eigenvalues --    1.12569   1.12746   1.13281   1.13422   1.13783
  Beta virt. eigenvalues --    1.14377   1.14856   1.14921   1.15471   1.15892
  Beta virt. eigenvalues --    1.16562   1.17077   1.17211   1.17688   1.17885
  Beta virt. eigenvalues --    1.18059   1.18376   1.18762   1.18950   1.19237
  Beta virt. eigenvalues --    1.20126   1.20254   1.20757   1.21222   1.21561
  Beta virt. eigenvalues --    1.22041   1.22102   1.22555   1.23110   1.23291
  Beta virt. eigenvalues --    1.23505   1.24150   1.24254   1.24581   1.24885
  Beta virt. eigenvalues --    1.25317   1.25379   1.25736   1.26404   1.26773
  Beta virt. eigenvalues --    1.27501   1.27555   1.28086   1.28822   1.29030
  Beta virt. eigenvalues --    1.29429   1.29731   1.30156   1.30564   1.30829
  Beta virt. eigenvalues --    1.31073   1.31580   1.32042   1.32241   1.32410
  Beta virt. eigenvalues --    1.32830   1.33147   1.33694   1.34512   1.34887
  Beta virt. eigenvalues --    1.35023   1.35516   1.35569   1.35993   1.36320
  Beta virt. eigenvalues --    1.36910   1.37357   1.37631   1.37790   1.38556
  Beta virt. eigenvalues --    1.38889   1.39586   1.40345   1.40553   1.41366
  Beta virt. eigenvalues --    1.41596   1.41941   1.42361   1.42625   1.42960
  Beta virt. eigenvalues --    1.43051   1.43697   1.43843   1.44215   1.44828
  Beta virt. eigenvalues --    1.45056   1.45585   1.45644   1.46184   1.46684
  Beta virt. eigenvalues --    1.46991   1.47319   1.47893   1.48268   1.48591
  Beta virt. eigenvalues --    1.48957   1.49090   1.49632   1.49810   1.50245
  Beta virt. eigenvalues --    1.50350   1.50536   1.50657   1.51090   1.51543
  Beta virt. eigenvalues --    1.51791   1.51936   1.52594   1.52893   1.53074
  Beta virt. eigenvalues --    1.53226   1.53562   1.54037   1.54080   1.54157
  Beta virt. eigenvalues --    1.54523   1.55092   1.55515   1.55788   1.56052
  Beta virt. eigenvalues --    1.56137   1.56562   1.56983   1.57447   1.57660
  Beta virt. eigenvalues --    1.57867   1.58118   1.58475   1.59017   1.59434
  Beta virt. eigenvalues --    1.59626   1.59769   1.59895   1.60055   1.60492
  Beta virt. eigenvalues --    1.60716   1.60856   1.61066   1.61668   1.61784
  Beta virt. eigenvalues --    1.62199   1.62267   1.62457   1.62655   1.63037
  Beta virt. eigenvalues --    1.63300   1.63374   1.63850   1.64189   1.65009
  Beta virt. eigenvalues --    1.65194   1.65484   1.65619   1.65869   1.65901
  Beta virt. eigenvalues --    1.66316   1.66782   1.67207   1.67816   1.67922
  Beta virt. eigenvalues --    1.68198   1.68318   1.68759   1.68963   1.69401
  Beta virt. eigenvalues --    1.69714   1.70185   1.70322   1.70633   1.70711
  Beta virt. eigenvalues --    1.71428   1.71820   1.71926   1.72446   1.72912
  Beta virt. eigenvalues --    1.73264   1.73318   1.73828   1.74184   1.74374
  Beta virt. eigenvalues --    1.74858   1.75329   1.75589   1.75734   1.76236
  Beta virt. eigenvalues --    1.76440   1.76576   1.77403   1.78029   1.78258
  Beta virt. eigenvalues --    1.79256   1.79371   1.79661   1.80277   1.80626
  Beta virt. eigenvalues --    1.81164   1.81510   1.81868   1.82092   1.82662
  Beta virt. eigenvalues --    1.82876   1.83344   1.84027   1.84204   1.84886
  Beta virt. eigenvalues --    1.85034   1.85506   1.85861   1.86034   1.86539
  Beta virt. eigenvalues --    1.86574   1.87060   1.87656   1.87927   1.88158
  Beta virt. eigenvalues --    1.88638   1.88816   1.89166   1.89677   1.90256
  Beta virt. eigenvalues --    1.90546   1.90827   1.91177   1.91522   1.92217
  Beta virt. eigenvalues --    1.92563   1.92882   1.93197   1.93322   1.93772
  Beta virt. eigenvalues --    1.93953   1.94399   1.94839   1.95181   1.95873
  Beta virt. eigenvalues --    1.95896   1.95995   1.96588   1.96928   1.97405
  Beta virt. eigenvalues --    1.97857   1.97991   1.98686   1.98952   1.99275
  Beta virt. eigenvalues --    1.99678   2.00084   2.00764   2.01036   2.01482
  Beta virt. eigenvalues --    2.01651   2.02005   2.02447   2.03126   2.03391
  Beta virt. eigenvalues --    2.03681   2.04128   2.04453   2.04697   2.05459
  Beta virt. eigenvalues --    2.05935   2.06114   2.06276   2.06678   2.07005
  Beta virt. eigenvalues --    2.07863   2.08022   2.08249   2.08662   2.08806
  Beta virt. eigenvalues --    2.09352   2.09771   2.10256   2.10924   2.11131
  Beta virt. eigenvalues --    2.11683   2.11777   2.12052   2.12242   2.12643
  Beta virt. eigenvalues --    2.12758   2.13472   2.13682   2.13990   2.14574
  Beta virt. eigenvalues --    2.14973   2.15143   2.15513   2.16052   2.16723
  Beta virt. eigenvalues --    2.16874   2.17142   2.17814   2.17986   2.18511
  Beta virt. eigenvalues --    2.18805   2.19372   2.19640   2.20010   2.20465
  Beta virt. eigenvalues --    2.21193   2.21242   2.21511   2.21930   2.22577
  Beta virt. eigenvalues --    2.22643   2.23258   2.24046   2.24399   2.24467
  Beta virt. eigenvalues --    2.24768   2.25290   2.25529   2.26091   2.26457
  Beta virt. eigenvalues --    2.26997   2.27239   2.28320   2.28728   2.29109
  Beta virt. eigenvalues --    2.29420   2.29670   2.30486   2.30957   2.31106
  Beta virt. eigenvalues --    2.31573   2.31806   2.31831   2.32500   2.33177
[...]
  1496. RY*(   2) H  56                  0.00006     2.55198   
  1497. RY*(   3) H  56                  0.00007     2.51404   
  1498. RY*(   4) H  56                  0.00003     1.52002   
  1499. RY*(   5) H  56                  0.00001     2.88863   
  1500. RY*(   1) H  57                  0.00055     0.78599   
  1501. RY*(   2) H  57                  0.00011     2.41202   
  1502. RY*(   3) H  57                  0.00005     2.63185   
  1503. RY*(   4) H  57                  0.00004     2.42924   
  1504. RY*(   5) H  57                  0.00001     3.23625   
  1505. RY*(   1) H  58                  0.00038     1.63448   
  1506. RY*(   2) H  58                  0.00011     1.49385   
  1507. RY*(   3) H  58                  0.00006     2.23532   
  1508. RY*(   4) H  58                  0.00004     2.58818   
  1509. RY*(   5) H  58                  0.00001     3.25703   
  1510. RY*(   1) H  59                  0.00034     1.91240   
  1511. RY*(   2) H  59                  0.00005     2.50642   
  1512. RY*(   3) H  59                  0.00006     2.00574   
  1513. RY*(   4) H  59                  0.00004     1.76295   
  1514. RY*(   5) H  59                  0.00001     2.89821   
  1515. RY*(   1) H  60                  0.00042     2.02373   
  1516. RY*(   2) H  60                  0.00023     1.04658   
  1517. RY*(   3) H  60                  0.00021     2.05245   
  1518. RY*(   4) H  60                  0.00013     1.89365   
  1519. RY*(   5) H  60                  0.00000     3.35374   
  1520. RY*(   1) H  61                  0.00036     1.01378   
  1521. RY*(   2) H  61                  0.00010     1.85238   
  1522. RY*(   3) H  61                  0.00003     2.15987   
  1523. RY*(   4) H  61                  0.00001     2.23727   
  1524. RY*(   5) H  61                  0.00002     2.66285   
  1525. RY*(   1) H  62                  0.00029     0.97007   
  1526. RY*(   2) H  62                  0.00011     2.13794   
  1527. RY*(   3) H  62                  0.00003     1.94999   
  1528. RY*(   4) H  62                  0.00004     2.07560   
  1529. RY*(   5) H  62                  0.00000     3.02524   
  1530. RY*(   1) H  63                  0.00041     0.97907   
  1531. RY*(   2) H  63                  0.00009     1.77966   
  1532. RY*(   3) H  63                  0.00004     2.14760   
  1533. RY*(   4) H  63                  0.00002     2.07950   
  1534. RY*(   5) H  63                  0.00000     2.93003   
  1535. RY*(   1) H  64                  0.00092     0.66541   
  1536. RY*(   2) H  64                  0.00015     2.18724   
  1537. RY*(   3) H  64                  0.00013     2.23334   
  1538. RY*(   4) H  64                  0.00008     2.96005   
  1539. RY*(   5) H  64                  0.00001     3.21988   
  1540. RY*(   1) H  65                  0.00037     0.80513   
  1541. RY*(   2) H  65                  0.00009     1.84539   
  1542. RY*(   3) H  65                  0.00004     2.12995   
  1543. RY*(   4) H  65                  0.00004     2.08863   
  1544. RY*(   5) H  65                  0.00001     2.98070   
  1545. RY*(   1) H  66                  0.00026     1.13752   
  1546. RY*(   2) H  66                  0.00010     1.93896   
  1547. RY*(   3) H  66                  0.00003     1.87988   
  1548. RY*(   4) H  66                  0.00003     2.10672   
  1549. RY*(   5) H  66                  0.00000     2.94468   
  1550. RY*(   1) H  67                  0.00039     0.92890   
  1551. RY*(   2) H  67                  0.00009     1.76603   
  1552. RY*(   3) H  67                  0.00004     2.13724   
  1553. RY*(   4) H  67                  0.00002     2.00427   
  1554. RY*(   5) H  67                  0.00001     2.97604   
  1555. RY*(   1) H  68                  0.00022     1.07875   
  1556. RY*(   2) H  68                  0.00010     2.00914   
  1557. RY*(   3) H  68                  0.00004     2.17474   
  1558. RY*(   4) H  68                  0.00002     1.85090   
  1559. RY*(   5) H  68                  0.00000     2.93673   
  1560. RY*(   1) H  69                  0.00048     0.78704   
  1561. RY*(   2) H  69                  0.00008     1.85407   
  1562. RY*(   3) H  69                  0.00005     2.13258   
  1563. RY*(   4) H  69                  0.00003     2.18516   
  1564. RY*(   5) H  69                  0.00001     3.00852   
  1565. RY*(   1) H  70                  0.00039     0.89099   
  1566. RY*(   2) H  70                  0.00008     1.82278   
  1567. RY*(   3) H  70                  0.00004     2.16565   
  1568. RY*(   4) H  70                  0.00002     2.02722   
  1569. RY*(   5) H  70                  0.00001     2.95705   
  1570. RY*(   1) H  71                  0.00091     0.99147   
  1571. RY*(   2) H  71                  0.00018     2.22528   
  1572. RY*(   3) H  71                  0.00013     2.26640   
  1573. RY*(   4) H  71                  0.00008     3.03403   
  1574. RY*(   5) H  71                  0.00001     3.36394   
  1575. RY*(   1) H  72                  0.00101     0.73003   
  1576. RY*(   2) H  72                  0.00015     2.13653   
  1577. RY*(   3) H  72                  0.00011     2.25290   
  1578. RY*(   4) H  72                  0.00008     2.88843   
  1579. RY*(   5) H  72                  0.00000     3.19064   
  1580. RY*(   1) H  73                  0.00022     1.38259   
  1581. RY*(   2) H  73                  0.00007     1.54719   
  1582. RY*(   3) H  73                  0.00005     2.17174   
  1583. RY*(   4) H  73                  0.00003     2.44091   
  1584. RY*(   5) H  73                  0.00001     3.04623   
  1585. RY*(   1) H  74                  0.00041     0.95586   
  1586. RY*(   2) H  74                  0.00010     1.70044   
  1587. RY*(   3) H  74                  0.00005     2.31039   
  1588. RY*(   4) H  74                  0.00003     2.44222   
  1589. RY*(   5) H  74                  0.00001     3.00786   
  1590. RY*(   1) H  75                  0.00051     0.91859   
  1591. RY*(   2) H  75                  0.00011     1.70127   
  1592. RY*(   3) H  75                  0.00005     2.24248   
  1593. RY*(   4) H  75                  0.00002     2.60662   
  1594. RY*(   5) H  75                  0.00001     2.88826   
  1625. RY*(   1) H  82                  0.00030     1.36224   
  1626. RY*(   2) H  82                  0.00014     1.18562   
  1627. RY*(   3) H  82                  0.00009     2.00666   
  1628. RY*(   4) H  82                  0.00006     2.35526   
  1629. RY*(   5) H  82                  0.00001     3.01918   
  1630. RY*(   1) H  83                  0.00019     1.56884   
  1631. RY*(   2) H  83                  0.00008     1.66490   
  1632. RY*(   3) H  83                  0.00006     1.45744   
  1633. RY*(   4) H  83                  0.00000     1.97652   
  1634. RY*(   5) H  83                  0.00001     2.72311   
  1635. RY*(   1) H  84                  0.00031     1.56191   
  1636. RY*(   2) H  84                  0.00009     1.84953   
  1637. RY*(   3) H  84                  0.00007     2.11117   
  1638. RY*(   4) H  84                  0.00002     2.65167   
  1639. RY*(   5) H  84                  0.00001     1.84505   
  1640. RY*(   1) H  85                  0.00039     1.56251   
  1641. RY*(   2) H  85                  0.00012     1.20211   
  1642. RY*(   3) H  85                  0.00007     2.03473   
  1643. RY*(   4) H  85                  0.00003     2.43764   
  1644. RY*(   5) H  85                  0.00003     2.70935   
  1645. RY*(   1) H  86                  0.00056     0.92853   
  1646. RY*(   2) H  86                  0.00007     1.76583   
  1647. RY*(   3) H  86                  0.00004     2.35367   
  1648. RY*(   4) H  86                  0.00002     2.49478   
  1649. RY*(   5) H  86                  0.00002     2.05825   
  1650. RY*(   1) H  87                  0.00029     1.12374   
  1651. RY*(   2) H  87                  0.00008     1.63095   
  1652. RY*(   3) H  87                  0.00003     2.75704   
  1653. RY*(   4) H  87                  0.00001     2.05685   
  1654. RY*(   5) H  87                  0.00001     1.91047   
  1669. BD*(   1)Fe   7 - N  23          0.12402    -0.02930  169(g),1670(g),1742(r)
                                                    173(g),1665(r),1680(v)
                                                    1677(v),170(g),1180(r)
                                                    348(g),323(r),320(r),321(r)
  1670. BD*(   1)Fe   7 - N  31          0.09924    -0.00414   
  1671. BD*(   1) C   8 - C  13          0.00782     0.50327   
  1672. BD*(   2) C   8 - C  13          0.21561     0.02883  1692(v),1742(v),1689(v)
                                                    374(g),505(g)
  1673. BD*(   1) C   8 - C  43          0.01027     0.41856   
  1674. BD*(   1) C   8 - H  55          0.00500     0.45555   
  1675. BD*(   1) C   9 - C  16          0.01347     0.49165   
  1676. BD*(   1) C   9 - C  24          0.00908     0.70219   
  1677. BD*(   2) C   9 - C  24          0.14899     0.06710  1713(v),1680(r),1689(v)
                                                    1669(v),399(g),793(g)
  1678. BD*(   1) C   9 - H  64          0.00798     0.44340   
  1679. BD*(   1) C  10 - C  27          0.00966     0.67602   
  1680. BD*(   2) C  10 - C  27          0.15673     0.06742  1713(v),1677(r),1669(v)
                                                    425(g),871(g)
  1681. BD*(   1) C  10 - C  32          0.01129     0.57563   
  1682. BD*(   1) C  10 - H  71          0.00931     0.46458   
  1683. BD*(   1) C  11 - C  35          0.01272     0.47927   
  1684. BD*(   1) C  11 - C  40          0.00934     0.73529   
  1685. BD*(   2) C  11 - C  40          0.15025     0.07277  1745(v),182(v),1742(v)
                                                    452(g),1209(g)
  1686. BD*(   1) C  11 - H  72          0.00875     0.44702   
  1687. BD*(   1) N  12 - C  13          0.01771     0.34791   
  1688. BD*(   1) N  12 - C  16          0.01160     0.51496   
  1689. BD*(   2) N  12 - C  16          0.30325     0.00874  1692(v),1677(v),1672(v)
                                                    1670(r),173(r),583(g),479(g)
                                                    1669(r),399(v)
  1690. BD*(   1) C  13 - C  14          0.01178     0.51642   
  1691. BD*(   1) C  14 - C  15          0.01033     0.55602   
  1692. BD*(   2) C  14 - C  15          0.17102     0.05632  1672(v),1689(v),1700(v)
                                                    1698(v),1696(v),556(g)
                                                    1699(v)
  1693. BD*(   1) C  14 - C  18          0.01393     0.36826   
  1694. BD*(   1) C  15 - C  16          0.01316     0.54819   
  1695. BD*(   1) C  15 - C  17          0.00950     0.32814   
  1696. BD*(   1) C  17 - H  61          0.00386     0.41644   
  1697. BD*(   1) C  17 - H  62          0.00265     0.42418   
  1698. BD*(   1) C  17 - H  63          0.00432     0.40712   
  1699. BD*(   1) C  18 - C  19          0.00637     0.53604   
  1700. BD*(   1) C  18 - H  56          0.01142     0.42296   
  1701. BD*(   1) C  18 - H  57          0.00852     0.41438   
  1702. BD*(   1) C  19 - C  20          0.03661     0.39431   
  1703. BD*(   1) C  19 - H  58          0.01226     0.40747   
  1704. BD*(   1) C  19 - H  59          0.01002     0.39646   
  1705. BD*(   1) C  20 - O  21          0.03769     0.44447   
  1706. BD*(   1) C  20 - O  22          0.02933     0.45043   
  1707. BD*(   2) C  20 - O  22          0.08559     0.01848   
  1708. BD*(   1) O  21 - H  60          0.00637     0.37667   
  1709. BD*(   1) N  23 - C  24          0.02014     0.34304   
  1710. BD*(   1) N  23 - C  27          0.01262     0.44621   
  1711. BD*(   1) C  24 - C  25          0.01648     0.54387   
  1712. BD*(   1) C  25 - C  26          0.00858     0.65980   
  1713. BD*(   2) C  25 - C  26          0.11855     0.07248  1677(v),1680(v),1721(v)
                                                    1719(v),843(g),1717(v)
  1714. BD*(   1) C  25 - C  28          0.01034     0.36358   
  1715. BD*(   1) C  26 - C  27          0.02027     0.40094   
  1716. BD*(   1) C  26 - C  29          0.01114     0.39318   
  1717. BD*(   1) C  28 - H  65          0.00319     0.40173   
  1718. BD*(   1) C  28 - H  66          0.00304     0.40702   
  1719. BD*(   1) C  28 - H  67          0.00411     0.39721   
  1720. BD*(   1) C  29 - C  30          0.00232     0.36410   
  1721. BD*(   2) C  29 - C  30          0.04231    -0.00898   
  1722. BD*(   1) C  29 - H  82          0.00445     0.44848   
  1723. BD*(   1) C  30 - H  83          0.00207     0.44636   
  1724. BD*(   1) C  30 - H  84          0.00354     0.45760   
  1725. BD*(   1) N  31 - C  32          0.01390     0.47420   
  1726. BD*(   1) N  31 - C  35          0.01591     0.42881   
  1727. BD*(   1) C  32 - C  33          0.01615     0.47910   
  1728. BD*(   1) C  33 - C  34          0.00974     0.72487   
  1729. BD*(   2) C  33 - C  34          0.16763     0.09997  182(v),183(v),1735(v)
                                                    1736(v),1737(v),1051(g)
  1730. BD*(   1) C  33 - C  36          0.01070     0.31592   
  1731. BD*(   1) C  34 - C  35          0.01355     0.56013   
  1732. BD*(   1) C  34 - C  37          0.01479     0.35210   
  1733. BD*(   1) C  36 - H  68          0.00169     0.42289   
  1734. BD*(   1) C  36 - H  69          0.00269     0.42947   
  1735. BD*(   1) C  36 - H  70          0.00338     0.42392   
  1736. BD*(   1) C  37 - C  38          0.00258     0.39981   
  1737. BD*(   1) C  37 - H  85          0.00459     0.47305   
  1738. BD*(   1) C  38 - H  86          0.00379     0.46432   
  1739. BD*(   1) C  38 - H  87          0.00312     0.46314   
  1740. BD*(   1) N  39 - C  40          0.01825     0.35084   
  1741. BD*(   1) N  39 - C  43          0.01505     0.33140   
  1742. BD*(   2) N  39 - C  43          0.38226    -0.03901  1672(v),1745(v),1669(r)
                                                    1685(v),1670(r),169(r)
                                                    173(r),1284(g),1665(r)
                                                    1181(g)
  1743. BD*(   1) C  40 - C  41          0.02154     0.43204   
  1744. BD*(   1) C  41 - C  42          0.01019     0.65955   
  1745. BD*(   2) C  41 - C  42          0.12135     0.06794  1685(v),1742(v),1752(v)
                                                    1751(v),1750(v),1233(g)
  1746. BD*(   1) C  41 - C  44          0.00950     0.43513   
  1747. BD*(   1) C  42 - C  43          0.01322     0.45613   
  1748. BD*(   1) C  42 - C  45          0.01289     0.29670   
  1749. BD*(   1) C  44 - H  73          0.00349     0.40234   
  1750. BD*(   1) C  44 - H  74          0.00408     0.39770   
  1751. BD*(   1) C  44 - H  75          0.00602     0.39648   
  1752. BD*(   1) C  45 - C  46          0.01207     0.30948   
  1753. BD*(   1) C  45 - H  53          0.00645     0.41381   
  1754. BD*(   1) C  45 - H  54          0.00461     0.41277   
  1755. BD*(   1) C  46 - C  47          0.04093     0.37328   
  1756. BD*(   1) C  46 - H  51          0.00582     0.37315   
  1757. BD*(   1) C  46 - H  52          0.00708     0.37331   
  1758. BD*(   1) C  47 - O  48          0.03308     0.54622   
  1759. BD*(   1) C  47 - O  49          0.02408     0.59304   
  1760. BD*(   2) C  47 - O  49          0.08419    -0.01586   
  1761. BD*(   1) O  48 - H  50          0.00680     0.37346   
       -------------------------------
              Total Lewis  154.15266  ( 96.8429%)
        Valence non-Lewis    4.72917  (  2.9710%)
        Rydberg non-Lewis    0.29618  (  0.1861%)
       -------------------------------
            Total unit  2  159.17801  (100.0000%)
           Charge unit  2    1.82199
 1\1\GINC-NODE612\SP\UPBE1PBE\def2TZVP\C38H38Fe1N6O4(5)\ZHARTOVSKA\28-A
 ug-2022\0\\# PBE1PBE/def2TZVP empiricaldispersion=GD3BJ int=(grid=ultr
 afine) geom=check pop=nbo\\1drm_II_Q\\0,5\C,0,48.068001,60.623001,29.9
 73\C,0,48.181,59.849998,31.268\N,0,47.933998,60.384998,32.516998\C,0,4
 8.473,58.541,31.49\C,0,48.068001,59.411999,33.443001\N,0,48.400002,58.
 257,32.889999\Fe,0,48.765999,56.499001,34.030998\C,0,45.678001,55.0079
 99,33.291\C,0,50.331001,55.000999,31.341999\C,0,51.877998,57.230999,35
 .203999\C,0,47.299,57.897999,36.900002\N,0,48.188,55.292999,32.580002\
 C,0,46.804001,54.751999,32.449001\C,0,46.826,53.873001,31.332001\C,0,4
 8.123001,53.901001,30.809999\C,0,48.922001,54.757999,31.573\C,0,48.710
 999,53.084,29.59\C,0,45.639999,52.916,31.042\C,0,45.424,52.798,29.694\
 C,0,44.573002,51.631001,29.422001\O,0,43.542,51.953999,28.733\O,0,44.9
 16,50.459,29.83\N,0,50.624001,56.294998,33.435001\C,0,51.097,55.622002
 ,32.187\C,0,52.467999,55.814999,31.962999\C,0,52.971001,56.416,33.0169
 98\C,0,51.838001,56.742001,33.980999\C,0,53.264999,55.367001,30.736\C,
 0,54.458,56.728001,33.074001\C,0,55.09693339,57.19376978,34.3955242\N,
 0,49.436001,57.335999,35.605\C,0,50.751999,57.528,35.959\C,0,50.819,58
 .118,37.297001\C,0,49.610001,58.249001,37.731998\C,0,48.743,57.799,36.
 740002\C,0,52.186001,58.487999,38.056999\C,0,48.980999,58.606998,39.14
 7999\C,0,49.32857166,59.94369725,39.82919527\N,0,47.058998,56.563999,3
 4.905998\C,0,46.537998,57.237,36.117001\C,0,45.07,57.032001,36.300999\
 C,0,44.625,56.328999,35.282001\C,0,45.769001,55.956001,34.452999\C,0,4
 4.231998,57.564999,37.375999\C,0,43.164001,55.853001,34.801998\C,0,42.
 825001,54.415001,35.34\C,0,42.188999,53.115002,35.033001\O,0,42.549,52
 .308998,35.884998\O,0,42.134998,52.839001,33.841\H,0,43.4846353,52.161
 30555,36.04111822\H,0,43.80326767,54.08387538,35.61973226\H,0,42.30710
 607,54.66908985,36.24117906\H,0,43.13313015,55.84277089,33.73249235\H,
 0,42.43333071,56.5443519,35.16676487\H,0,44.75046246,54.51403329,33.08
 957971\H,0,45.85972007,51.95091072,31.4484792\H,0,44.75640512,53.30046
 253,31.50713484\H,0,46.36202809,52.67753947,29.19350768\H,0,44.9402878
 5,53.68168899,29.33342224\H,0,43.64950944,52.35892198,27.86924129\H,0,
 49.65462918,52.66138077,29.865418\H,0,48.03255864,52.299936,29.3256851
 8\H,0,48.84359391,53.73797639,28.75355904\H,0,50.76309554,54.65077001,
 30.42792353\H,0,54.19655882,54.9448365,31.05044146\H,0,52.70498256,54.
 63270141,30.19555047\H,0,53.45077069,56.21019528,30.10400927\H,0,52.94
 883066,58.69836102,37.3367638\H,0,52.02988441,59.34887937,38.67296376\
 H,0,52.48935753,57.66308038,38.66723181\H,0,52.83769674,57.41011033,35
 .64194586\H,0,46.88066238,58.5178466,37.66530102\H,0,44.74403567,58.36
 900803,37.86209251\H,0,43.31151685,57.9245862,36.96574117\H,0,44.02777
 626,56.79107885,38.08609835\H,0,48.91256188,60.40564405,29.35302188\H,
 0,47.17014309,60.33873095,29.46512037\H,0,48.04135249,61.67151902,30.1
 8465967\H,0,48.72058404,57.82910785,30.73051879\H,0,47.92368984,59.556
 86386,34.49328118\H,0,47.6949062,61.33766942,32.7047539\H,0,55.0605268
 5,56.6239501,32.19591512\H,0,56.16202967,57.22778249,34.49202827\H,0,5
 4.47577134,57.48337564,35.21722132\H,0,48.31627702,57.91913223,39.6274
 6263\H,0,50.35205681,60.22173043,39.97088396\H,0,48.54658178,60.594409
 66,40.16080529\\Version=ES64L-G16RevA.03\State=5-A\HF=-3361.9424116\S2
 =6.145928\S2-1=0.\S2A=6.004735\RMSD=2.841e-09\Dipole=0.0807783,3.40520
 37,-2.1382765\Quadrupole=-5.0829151,-10.6095152,15.6924302,-23.691159,
 -14.5429178,-20.3439202\PG=C01 [X(C38H38Fe1N6O4)]\\@


 TERRY FORSTER, PORTLY ATLANTA BRAVES RELIEVER,
 ANNOUNCING THAT HE WAS GOING TO A FAT FARM:
 "A WAIST IS A TERRIBLE THING TO MIND."
 Job cpu time:       3 days  5 hours 46 minutes 33.0 seconds.
 Elapsed time:       0 days 19 hours 29 minutes 22.6 seconds.
 File lengths (MBytes):  RWF=   2849 Int=      0 D2E=      0 Chk=    238 Scr=      1
 Normal termination of Gaussian 16 at Sun Aug 28 08:03:13 2022.
