 Entering Gaussian System, Link 0=g16
 Input=/net/work/kleich/bench/splitthejobs/1ccc/gfcfail/1ccc/1ccc12/1ccc12.com
 Output=/net/work/kleich/bench/splitthejobs/1ccc/gfcfail/1ccc/1ccc12/1ccc12.log
 Initial command:
 /afs/math/software/gaussian/g16.A03/g16/l1.exe "/scratch/kleich_gaussian.LfSUdnS/Gau-21824.inp" -scrdir="/scratch/kleich_gaussian.LfSUdnS/"
 Entering Link 1 = /afs/math/software/gaussian/g16.A03/g16/l1.exe PID=     21826.
  
 Copyright (c) 1988,1990,1992,1993,1995,1998,2003,2009,2016,
            Gaussian, Inc.  All Rights Reserved.
  
 This is part of the Gaussian(R) 16 program.  It is based on
 the Gaussian(R) 09 system (copyright 2009, Gaussian, Inc.),
 the Gaussian(R) 03 system (copyright 2003, Gaussian, Inc.),
 the Gaussian(R) 98 system (copyright 1998, Gaussian, Inc.),
 the Gaussian(R) 94 system (copyright 1995, Gaussian, Inc.),
 the Gaussian 92(TM) system (copyright 1992, Gaussian, Inc.),
 the Gaussian 90(TM) system (copyright 1990, Gaussian, Inc.),
 the Gaussian 88(TM) system (copyright 1988, Gaussian, Inc.),
 the Gaussian 86(TM) system (copyright 1986, Carnegie Mellon
 University), and the Gaussian 82(TM) system (copyright 1983,
 Carnegie Mellon University). Gaussian is a federally registered
 trademark of Gaussian, Inc.
  
 This software contains proprietary and confidential information,
 including trade secrets, belonging to Gaussian, Inc.
  
 This software is provided under written license and may be
 used, copied, transmitted, or stored only in accord with that
 written license.
  
 The following legend is applicable only to US Government
 contracts under FAR:
  
                    RESTRICTED RIGHTS LEGEND
  
 Use, reproduction and disclosure by the US Government is
 subject to restrictions as set forth in subparagraphs (a)
 and (c) of the Commercial Computer Software - Restricted
 Rights clause in FAR 52.227-19.
  
 Gaussian, Inc.
 340 Quinnipiac St., Bldg. 40, Wallingford CT 06492
  
  
 ---------------------------------------------------------------
 Warning -- This program may not be used in any manner that
 competes with the business of Gaussian, Inc. or will provide
 assistance to any competitor of Gaussian, Inc.  The licensee
 of this program is prohibited from giving any competitor of
 Gaussian, Inc. access to this program.  By using this program,
 the user acknowledges that Gaussian, Inc. is engaged in the
 business of creating and licensing software in the field of
 computational chemistry and represents and warrants to the
 licensee that it is not a competitor of Gaussian, Inc. and that
 it will not use this program in any manner prohibited above.
 ---------------------------------------------------------------
  

 Cite this work as:
 Gaussian 16, Revision A.03,
 M. J. Frisch, G. W. Trucks, H. B. Schlegel, G. E. Scuseria, 
 M. A. Robb, J. R. Cheeseman, G. Scalmani, V. Barone, 
 G. A. Petersson, H. Nakatsuji, X. Li, M. Caricato, A. V. Marenich, 
 J. Bloino, B. G. Janesko, R. Gomperts, B. Mennucci, H. P. Hratchian, 
 J. V. Ortiz, A. F. Izmaylov, J. L. Sonnenberg, D. Williams-Young, 
 F. Ding, F. Lipparini, F. Egidi, J. Goings, B. Peng, A. Petrone, 
 T. Henderson, D. Ranasinghe, V. G. Zakrzewski, J. Gao, N. Rega, 
 G. Zheng, W. Liang, M. Hada, M. Ehara, K. Toyota, R. Fukuda, 
 J. Hasegawa, M. Ishida, T. Nakajima, Y. Honda, O. Kitao, H. Nakai, 
 T. Vreven, K. Throssell, J. A. Montgomery, Jr., J. E. Peralta, 
 F. Ogliaro, M. J. Bearpark, J. J. Heyd, E. N. Brothers, K. N. Kudin, 
 V. N. Staroverov, T. A. Keith, R. Kobayashi, J. Normand, 
 K. Raghavachari, A. P. Rendell, J. C. Burant, S. S. Iyengar, 
 J. Tomasi, M. Cossi, J. M. Millam, M. Klene, C. Adamo, R. Cammi, 
 J. W. Ochterski, R. L. Martin, K. Morokuma, O. Farkas, 
 J. B. Foresman, and D. J. Fox, Gaussian, Inc., Wallingford CT, 2016.
 
 ******************************************
 Gaussian 16:  ES64L-G16RevA.03 25-Dec-2016
                19-Sep-2022 
 ******************************************
 %nprocs=12
 Will use up to   12 processors via shared memory.
 %mem=16GB
 %oldchk=1ccc_II_S.chk
 %chk=1ccc_III_D.chk
 Copying data from "1ccc_II_S.chk" to current chk file "1ccc_III_D.chk"
 IOpt=  2 FromEx=T IUOpen= 4 IOptOp= 5 NList=   0 IFRang= 0 IUIn= 4 IUOut= 2.
 ----------------------------------------------------------------------
 # PBE1PBE/def2TZVP empiricaldispersion=GD3BJ int=(grid=ultrafine) geom
 =check pop=nbo
 ----------------------------------------------------------------------
 1/29=2,38=1,172=1/1;
 2/12=2,40=1/2;
 3/5=44,7=101,11=2,14=-4,25=1,30=1,74=-13,75=-5,124=41/1,2,3;
 4//1;
 5/5=2,38=5/2;
 6/7=2,8=2,9=2,10=2,28=1,40=1/1,7;
 99/5=1,9=1/99;
 ----------
 1ccc_III_D
 ----------
 Structure from the checkpoint file:  "1ccc_III_D.chk"
 Charge =  1 Multiplicity = 2
 Z-Matrix found in chk file.
 C,0,-9.179,55.032,107.752
 C,0,-8.656,55.674,109.047
 N,0,-9.337,56.251,110.028
 C,0,-7.346,55.781,109.43
 C,0,-8.517,56.656,110.967
 N,0,-7.296,56.371,110.601
 H,0,-10.269,56.52,109.992
 C,0,-5.551,53.892,112.957
 C,0,-7.582,57.995,114.479
 C,0,-6.051,60.051,110.455
 C,0,-3.606,56.143,109.236
 C,0,-6.256,54.818,113.741
 C,0,-6.747,54.522,114.978
 C,0,-7.371,55.7,115.428
 C,0,-7.164,56.651,114.442
 C,0,-8.086,55.956,116.762
 C,0,-6.553,53.157,115.632
 C,0,-5.476,53.072,116.681
 C,0,-5.338,51.676,117.3
 O,0,-6.184,51.244,118.071
 O,0,-4.374,50.963,117.069
 C,0,-7.439,58.947,113.445
 C,0,-8.009,60.231,113.431
 C,0,-7.608,60.79,112.216
 C,0,-6.791,59.833,111.615
 C,0,-8.955,60.766,114.492
 C,0,-7.873,62.019,111.592
 C,0,-8.696,63.097,112.034
 C,0,-5.174,59.214,109.761
 C,0,-4.391,59.621,108.681
 C,0,-3.586,58.503,108.416
 C,0,-4.037,57.471,109.254
 C,0,-4.411,61.018,108.022
 C,0,-2.583,58.321,107.461
 C,0,-2.38,59.068,106.226
 C,0,-3.969,55.112,110.1
 C,0,-3.707,53.769,109.892
 C,0,-4.284,53.11,110.969
 C,0,-4.859,54.103,111.761
 C,0,-2.951,53.119,108.756
 C,0,-4.239,51.602,111.251
 C,0,-3.022,51.189,112.088
 C,0,-3.017,49.736,112.53
 O,0,-2.521,49.411,113.591
 O,0,-3.525,48.903,111.799
 N,0,-6.505,56.102,113.416
 N,0,-6.791,58.703,112.305
 N,0,-4.982,57.915,110.076
 N,0,-4.679,55.3,111.215
 Fe,0,-5.764,57.006,111.726
 O,0,-4.379,57.565,112.833
 H,0,-8.35221418,54.70205231,107.15831681
 H,0,-9.74843124,55.75169565,107.20183071
 H,0,-9.80042008,54.19534946,107.99439011
 H,0,-6.50222091,55.43985069,108.86736868
 H,0,-8.80002549,57.13850381,111.87913302
 H,0,-6.46626491,56.56837267,111.1230955
 H,0,-5.54191748,52.88729231,113.32494017
 H,0,-8.0546801,58.32828693,115.3792185
 H,0,-6.17518396,61.02216626,110.02335843
 H,0,-2.91158813,55.88546597,108.46375109
 H,0,-8.06544698,57.00282325,116.98254174
 H,0,-9.10146998,55.62624303,116.69142337
 H,0,-7.58947722,55.41737975,117.54190599
 H,0,-6.23223956,52.50842686,114.84373252
 H,0,-7.46833274,52.95825756,116.14926919
 H,0,-5.78874862,53.71625337,117.47600056
 H,0,-4.55408588,53.25983125,116.17139842
 H,0,-8.59840514,61.71152394,114.84374506
 H,0,-9.93123472,60.88714947,114.07106227
 H,0,-9.00180482,60.07622713,115.30865335
 H,0,-7.38829785,62.16872181,110.64990276
 H,0,-9.21573368,63.02576938,112.96657874
 H,0,-8.79360744,63.97684997,111.4329702
 H,0,-4.24617281,61.32907016,107.01157071
 H,0,-3.36917314,60.79140974,107.93170244
 H,0,-5.2741464,60.58800982,107.55833337
 H,0,-1.87950984,57.53968958,107.65988598
 H,0,-1.39199029,59.47865043,106.21584894
 H,0,-3.09632064,59.86063763,106.16675208
 H,0,-2.27070695,52.39293861,109.14961938
 H,0,-3.64273715,52.63865513,108.0959481
 H,0,-2.40436718,53.86525723,108.2182336
 H,0,-4.11918378,51.12654952,110.29995273
 H,0,-5.09797137,51.3875604,111.85190253
 H,0,-3.08266803,51.76404687,112.98830022
 H,0,-2.17690898,51.296339,111.44054381
 H,0,-3.70734244,58.00580102,112.30748066
 H,0,-5.91534555,50.79349188,118.87503185
 H,0,-2.9692385,48.31464982,111.2826927
 Recover connectivity data from disk.
 Center=     -5.85324016     56.16773611    111.77333763
 Residue   0                        charge    0.00000000 layers R        AvRTP=      7.52713996    282.04284757     63.95049946
 Residue   4                        charge    0.00000000 layers R        AvRTP=      0.00000000      0.00000000      0.00000000
 Residue   2 PDB Number   295_A HEM charge    0.00000000 layers R        AvRTP=      0.52842070     26.93410448     53.75405076
 Residue   3 PDB Number   313_A HOH charge    0.00000000 layers R        AvRTP=      2.55504239     41.78726127     71.82658372
 Residue   1 PDB Number   175_A HIS charge    0.00000000 layers R        AvRTP=      3.56400997    186.84021222    132.01665650
 Stoichiometry    C38H40FeN6O5(1+,2)
 Framework group  C1[X(C38H40FeN6O5)]
 Deg. of freedom   264
 Full point group                 C1      NOp   1
 Largest Abelian subgroup         C1      NOp   1
 Largest concise Abelian subgroup C1      NOp   1
                         Standard orientation:                         
 ---------------------------------------------------------------------
 Center     Atomic      Atomic             Coordinates (Angstroms)
 Number     Number       Type             X           Y           Z
 ---------------------------------------------------------------------
      1          6           0       -1.547530   -1.837054    4.949256
      2          6           0       -1.462943   -0.893093    3.739090
      3          7           0       -1.679353    0.414183    3.682111
      4          6           0       -1.149798   -1.245063    2.453674
      5          6           0       -1.482546    0.849800    2.461598
      6          7           0       -1.160336   -0.166263    1.706734
      7          1           0       -2.105947    0.950743    4.369426
      8          6           0        2.365700    0.117175    0.214107
      9          6           0       -0.987526    3.552141   -0.268529
     10          6           0       -4.245136    0.086681   -0.645663
     11          6           0       -0.857484   -3.268428   -0.704938
     12          6           0        1.751825    1.376080    0.127651
     13          6           0        2.452341    2.545737    0.134488
     14          6           0        1.487584    3.563920    0.024458
     15          6           0        0.262684    2.927896   -0.096125
     16          6           0        1.699946    5.083216   -0.029930
     17          6           0        3.975586    2.588636    0.214874
     18          6           0        4.700572    2.840813   -1.080640
     19          6           0        6.225813    2.876431   -0.927693
     20          8           0        6.780855    3.820675   -0.382614
     21          8           0        6.936509    1.984812   -1.364673
     22          6           0       -2.245782    2.911520   -0.316536
     23          6           0       -3.493064    3.558074   -0.319238
     24          6           0       -4.433426    2.526747   -0.359110
     25          6           0       -3.692890    1.347268   -0.429632
     26          6           0       -3.687338    5.057385   -0.173680
     27          6           0       -5.836771    2.507417   -0.342000
     28          6           0       -6.753546    3.596043   -0.246116
     29          6           0       -3.639398   -1.165648   -0.772504
     30          6           0       -4.316472   -2.331932   -1.128158
     31          6           0       -3.291824   -3.280040   -1.267304
     32          6           0       -2.104107   -2.657063   -0.852700
     33          6           0       -5.837794   -2.461509   -1.362844
     34          6           0       -3.353638   -4.625829   -1.636344
     35          6           0       -4.505618   -5.516625   -1.574151
     36          6           0        0.356856   -2.670600   -0.374476
     37          6           0        1.503889   -3.349832   -0.002299
     38          6           0        2.440799   -2.364601    0.278161
     39          6           0        1.795289   -1.149020    0.055414
     40          6           0        1.732368   -4.841441    0.083919
     41          6           0        3.903353   -2.581971    0.689622
     42          6           0        4.853533   -2.665186   -0.511402
     43          6           0        6.328586   -2.717643   -0.153539
     44          8           0        7.162869   -2.216921   -0.881969
     45          8           0        6.657365   -3.269643    0.882567
     46          7           0        0.430962    1.603852   -0.012781
     47          7           0       -2.398077    1.586678   -0.291281
     48          7           0       -2.320157   -1.375634   -0.575019
     49          7           0        0.536421   -1.348815   -0.316954
     50         26           0       -0.954770    0.108135   -0.267683
     51          8           0       -0.717058    0.424262   -2.084194
     52          1           0       -1.356462   -2.841069    4.632480
     53          1           0       -2.525535   -1.778773    5.379383
     54          1           0       -0.819474   -1.548419    5.678313
     55          1           0       -0.932359   -2.236198    2.114157
     56          1           0       -1.570908    1.865962    2.138325
     57          1           0       -0.956802   -0.128542    0.728393
     58          1           0        3.413405    0.127998    0.431125
     59          1           0       -0.984329    4.616968   -0.373570
     60          1           0       -5.311889    0.075917   -0.728263
     61          1           0       -0.831584   -4.326042   -0.865192
     62          1           0        0.872706    5.541280   -0.530680
     63          1           0        1.772419    5.469079    0.965438
     64          1           0        2.602743    5.298323   -0.562459
     65          1           0        4.270881    1.605841    0.517883
     66          1           0        4.202759    3.430541    0.834946
     67          1           0        4.413472    3.823597   -1.391460
     68          1           0        4.487556    1.998563   -1.705251
     69          1           0       -4.306292    5.415759   -0.969521
     70          1           0       -4.156395    5.266792    0.764955
     71          1           0       -2.736189    5.545849   -0.213928
     72          1           0       -6.282743    1.537217   -0.410717
     73          1           0       -6.387568    4.598906   -0.173827
     74          1           0       -7.807208    3.409769   -0.246482
     75          1           0       -6.515196   -3.273287   -1.198397
     76          1           0       -5.482399   -3.145513   -2.104957
     77          1           0       -5.816828   -2.499529   -0.293725
     78          1           0       -2.446765   -5.054033   -2.009334
     79          1           0       -4.689316   -5.930344   -2.543683
     80          1           0       -5.365052   -4.966335   -1.252507
     81          1           0        2.669530   -5.085604   -0.371066
     82          1           0        1.745573   -5.141471    1.110909
     83          1           0        0.943745   -5.353189   -0.427049
     84          1           0        3.938450   -3.541531    1.161759
     85          1           0        4.190727   -1.706918    1.234231
     86          1           0        4.719628   -1.749769   -1.048972
     87          1           0        4.638323   -3.600177   -0.985087
     88          1           0       -1.207105   -0.228570   -2.589433
     89          1           0        7.573708    4.199646   -0.769092
     90          1           0        7.059662   -4.140864    0.855550
 ---------------------------------------------------------------------
 Rotational constants (GHZ):           0.0767057           0.0458410           0.0337690
 Standard basis: def2TZVP (5D, 7F)
 There are  2056 symmetry adapted cartesian basis functions of A   symmetry.
 There are  1804 symmetry adapted basis functions of A   symmetry.
  1804 basis functions,  2921 primitive gaussians,  2056 cartesian basis functions
   188 alpha electrons      187 beta electrons
       nuclear repulsion energy      7641.5492129217 Hartrees.
 NAtoms=   90 NActive=   90 NUniq=   90 SFac= 1.00D+00 NAtFMM=   60 NAOKFM=T Big=T
 Integral buffers will be    131072 words long.
 Raffenetti 2 integral format.
 Two-electron integral symmetry is turned on.
 Nuclear repulsion after empirical dispersion term =     7641.4223718964 Hartrees.
 One-electron integrals computed using PRISM.
   1 Symmetry operations used in ECPInt.
 ECPInt:  NShTT=  255255 NPrTT=  790653 LenC2=  185510 LenP2D=  373270.
 LDataN:  DoStor=T MaxTD1= 6 Len=  172
 NBasis=  1804 RedAO= T EigKep=  3.00D-06  NBF=  1804
 NBsUse=  1804 1.00D-06 EigRej= -1.00D+00 NBFU=  1804
 ExpMin= 4.20D-02 ExpMax= 3.01D+05 ExpMxC= 2.91D+03 IAcc=3 IRadAn=         5 AccDes= 0.00D+00
 Harris functional with IExCor= 1009 and IRadAn=       5 diagonalized for initial guess.
 HarFok:  IExCor= 1009 AccDes= 0.00D+00 IRadAn=         5 IDoV= 1 UseB2=F ITyADJ=14
 ICtDFT=  3500011 ScaDFX=  1.000000  1.000000  1.000000  1.000000
 FoFCou: FMM=F IPFlag=           0 FMFlag=      100000 FMFlg1=        2001
         NFxFlg=           0 DoJE=T BraDBF=F KetDBF=T FulRan=T
         wScrn=  0.000000 ICntrl=       500 IOpCl=  0 I1Cent=   200000004 NGrid=           0
         NMat0=    1 NMatS0=      1 NMatT0=    0 NMatD0=    1 NMtDS0=    0 NMtDT0=    0
 Petite list used in FoFCou.
 Initial guess <Sx>= 0.0000 <Sy>= 0.0000 <Sz>= 0.5000 <S**2>= 0.7500 S= 0.5000
 Requested convergence on RMS density matrix=1.00D-08 within 128 cycles.
 Requested convergence on MAX density matrix=1.00D-06.
 Requested convergence on             energy=1.00D-06.
 No special actions if energy rises.
 EnCoef did   100 forward-backward iterations
 EnCoef did   100 forward-backward iterations
 Restarting incremental Fock formation.
 Restarting incremental Fock formation.
 Restarting incremental Fock formation.
 SCF Done:  E(UPBE1PBE) =  -3437.90109523     A.U. after   75 cycles
            NFock= 75  Conv=0.15D-08     -V/T= 2.0024
 <Sx>= 0.0000 <Sy>= 0.0000 <Sz>= 0.5000 <S**2>= 0.8907 S= 0.5680
 <L.S>= 0.000000000000E+00
 Annihilation of the first spin contaminant:
 S**2 before annihilation     0.8907,   after     0.7558

 **********************************************************************

            Population analysis using the SCF density.

 **********************************************************************

 Orbital symmetries:
 Alpha Orbitals:
       Occupied  (A) (A) (A) (A) (A) (A) (A) (A) (A) (A) (A) (A)
                 (A) (A) (A) (A) (A) (A) (A) (A) (A) (A) (A) (A)
                 (A) (A) (A) (A) (A) (A) (A) (A) (A) (A) (A) (A)
                 (A) (A) (A) (A) (A) (A) (A) (A) (A) (A) (A) (A)
                 (A) (A) (A) (A) (A) (A) (A) (A) (A) (A) (A) (A)
                 (A) (A) (A) (A) (A) (A) (A) (A) (A) (A) (A) (A)
                 (A) (A) (A) (A) (A) (A) (A) (A) (A) (A) (A) (A)
                 (A) (A) (A) (A) (A) (A) (A) (A) (A) (A) (A) (A)
                 (A) (A) (A) (A) (A) (A) (A) (A) (A) (A) (A) (A)
                 (A) (A) (A) (A) (A) (A) (A) (A) (A) (A) (A) (A)
                 (A) (A) (A) (A) (A) (A) (A) (A) (A) (A) (A) (A)
                 (A) (A) (A) (A) (A) (A) (A) (A) (A) (A) (A) (A)
                 (A) (A) (A) (A) (A) (A) (A) (A) (A) (A) (A) (A)
                 (A) (A) (A) (A) (A) (A) (A) (A) (A) (A) (A) (A)
                 (A) (A) (A) (A) (A) (A) (A) (A) (A) (A) (A) (A)
                 (A) (A) (A) (A) (A) (A) (A) (A)
       Virtual   (A) (A) (A) (A) (A) (A) (A) (A) (A) (A) (A) (A)
                 (A) (A) (A) (A) (A) (A) (A) (A) (A) (A) (A) (A)
                 (A) (A) (A) (A) (A) (A) (A) (A) (A) (A) (A) (A)
                 (A) (A) (A) (A) (A) (A) (A) (A) (A) (A) (A) (A)
                 (A) (A) (A) (A) (A) (A) (A) (A) (A) (A) (A) (A)
                 (A) (A) (A) (A) (A) (A) (A) (A) (A) (A) (A) (A)
                 (A) (A) (A) (A) (A) (A) (A) (A) (A) (A) (A) (A)
                 (A) (A) (A) (A) (A) (A) (A) (A) (A) (A) (A) (A)
                 (A) (A) (A) (A) (A) (A) (A) (A) (A) (A) (A) (A)
                 (A) (A) (A) (A) (A) (A) (A) (A) (A) (A) (A) (A)
                 (A) (A) (A) (A) (A) (A) (A) (A) (A) (A) (A) (A)
                 (A) (A) (A) (A) (A) (A) (A) (A) (A) (A) (A) (A)
                 (A) (A) (A) (A) (A) (A) (A) (A) (A) (A) (A) (A)
                 (A) (A) (A) (A) (A) (A) (A) (A) (A) (A) (A) (A)
                 (A) (A) (A) (A) (A) (A) (A) (A) (A) (A) (A) (A)
                 (A) (A) (A) (A) (A) (A) (A) (A) (A) (A) (A) (A)
                 (A) (A) (A) (A) (A) (A) (A) (A) (A) (A) (A) (A)
                 (A) (A) (A) (A) (A) (A) (A) (A) (A) (A) (A) (A)
                 (A) (A) (A) (A) (A) (A) (A) (A) (A) (A) (A) (A)
                 (A) (A) (A) (A) (A) (A) (A) (A) (A) (A) (A) (A)
                 (A) (A) (A) (A) (A) (A) (A) (A) (A) (A) (A) (A)
                 (A) (A) (A) (A) (A) (A) (A) (A) (A) (A) (A) (A)
                 (A) (A) (A) (A) (A) (A) (A) (A) (A) (A) (A) (A)
                 (A) (A) (A) (A) (A) (A) (A) (A) (A) (A) (A) (A)
                 (A) (A) (A) (A) (A) (A) (A) (A) (A) (A) (A) (A)
                 (A) (A) (A) (A) (A) (A) (A) (A) (A) (A) (A) (A)
                 (A) (A) (A) (A) (A) (A) (A) (A) (A) (A) (A) (A)
                 (A) (A) (A) (A) (A) (A) (A) (A) (A) (A) (A) (A)
                 (A) (A) (A) (A) (A) (A) (A) (A) (A) (A) (A) (A)
                 (A) (A) (A) (A) (A) (A) (A) (A) (A) (A) (A) (A)
                 (A) (A) (A) (A) (A) (A) (A) (A) (A) (A) (A) (A)
                 (A) (A) (A) (A) (A) (A) (A) (A) (A) (A) (A) (A)
                 (A) (A) (A) (A) (A) (A) (A) (A) (A) (A) (A) (A)
                 (A) (A) (A) (A) (A) (A) (A) (A) (A) (A) (A) (A)
                 (A) (A) (A) (A) (A) (A) (A) (A) (A) (A) (A) (A)
                 (A) (A) (A) (A) (A) (A) (A) (A) (A) (A) (A) (A)
                 (A) (A) (A) (A) (A) (A) (A) (A) (A) (A) (A) (A)
                 (A) (A) (A) (A) (A) (A) (A) (A) (A) (A) (A) (A)
                 (A) (A) (A) (A) (A) (A) (A) (A) (A) (A) (A) (A)
                 (A) (A) (A) (A) (A) (A) (A) (A) (A) (A) (A) (A)
                 (A) (A) (A) (A) (A) (A) (A) (A) (A) (A) (A) (A)
                 (A) (A) (A) (A) (A) (A) (A) (A) (A) (A) (A) (A)
                 (A) (A) (A) (A) (A) (A) (A) (A) (A) (A) (A) (A)
                 (A) (A) (A) (A) (A) (A) (A) (A) (A) (A) (A) (A)
                 (A) (A) (A) (A) (A) (A) (A) (A) (A) (A) (A) (A)
                 (A) (A) (A) (A) (A) (A) (A) (A) (A) (A) (A) (A)
                 (A) (A) (A) (A) (A) (A) (A) (A) (A) (A) (A) (A)
                 (A) (A) (A) (A) (A) (A) (A) (A) (A) (A) (A) (A)
                 (A) (A) (A) (A) (A) (A) (A) (A) (A) (A) (A) (A)
                 (A) (A) (A) (A) (A) (A) (A) (A) (A) (A) (A) (A)
                 (A) (A) (A) (A) (A) (A) (A) (A) (A) (A) (A) (A)
                 (A) (A) (A) (A) (A) (A) (A) (A) (A) (A) (A) (A)
                 (A) (A) (A) (A) (A) (A) (A) (A) (A) (A) (A) (A)
                 (A) (A) (A) (A) (A) (A) (A) (A) (A) (A) (A) (A)
                 (A) (A) (A) (A) (A) (A) (A) (A) (A) (A) (A) (A)
                 (A) (A) (A) (A) (A) (A) (A) (A) (A) (A) (A) (A)
                 (A) (A) (A) (A) (A) (A) (A) (A) (A) (A) (A) (A)
                 (A) (A) (A) (A) (A) (A) (A) (A) (A) (A) (A) (A)
                 (A) (A) (A) (A) (A) (A) (A) (A) (A) (A) (A) (A)
                 (A) (A) (A) (A) (A) (A) (A) (A) (A) (A) (A) (A)
                 (A) (A) (A) (A) (A) (A) (A) (A) (A) (A) (A) (A)
                 (A) (A) (A) (A) (A) (A) (A) (A) (A) (A) (A) (A)
                 (A) (A) (A) (A) (A) (A) (A) (A) (A) (A) (A) (A)
                 (A) (A) (A) (A) (A) (A) (A) (A) (A) (A) (A) (A)
                 (A) (A) (A) (A) (A) (A) (A) (A) (A) (A) (A) (A)
                 (A) (A) (A) (A) (A) (A) (A) (A) (A) (A) (A) (A)
                 (A) (A) (A) (A) (A) (A) (A) (A) (A) (A) (A) (A)
                 (A) (A) (A) (A) (A) (A) (A) (A) (A) (A) (A) (A)
                 (A) (A) (A) (A) (A) (A) (A) (A) (A) (A) (A) (A)
                 (A) (A) (A) (A) (A) (A) (A) (A) (A) (A) (A) (A)
                 (A) (A) (A) (A) (A) (A) (A) (A) (A) (A) (A) (A)
                 (A) (A) (A) (A) (A) (A) (A) (A) (A) (A) (A) (A)
                 (A) (A) (A) (A) (A) (A) (A) (A) (A) (A) (A) (A)
                 (A) (A) (A) (A) (A) (A) (A) (A) (A) (A) (A) (A)
                 (A) (A) (A) (A) (A) (A) (A) (A) (A) (A) (A) (A)
                 (A) (A) (A) (A) (A) (A) (A) (A) (A) (A) (A) (A)
                 (A) (A) (A) (A) (A) (A) (A) (A) (A) (A) (A) (A)
                 (A) (A) (A) (A) (A) (A) (A) (A) (A) (A) (A) (A)
                 (A) (A) (A) (A) (A) (A) (A) (A) (A) (A) (A) (A)
                 (A) (A) (A) (A) (A) (A) (A) (A) (A) (A) (A) (A)
                 (A) (A) (A) (A) (A) (A) (A) (A) (A) (A) (A) (A)
                 (A) (A) (A) (A) (A) (A) (A) (A) (A) (A) (A) (A)
                 (A) (A) (A) (A) (A) (A) (A) (A) (A) (A) (A) (A)
                 (A) (A) (A) (A) (A) (A) (A) (A) (A) (A) (A) (A)
                 (A) (A) (A) (A) (A) (A) (A) (A) (A) (A) (A) (A)
                 (A) (A) (A) (A) (A) (A) (A) (A) (A) (A) (A) (A)
                 (A) (A) (A) (A) (A) (A) (A) (A) (A) (A) (A) (A)
                 (A) (A) (A) (A) (A) (A) (A) (A) (A) (A) (A) (A)
                 (A) (A) (A) (A) (A) (A) (A) (A) (A) (A) (A) (A)
                 (A) (A) (A) (A) (A) (A) (A) (A) (A) (A) (A) (A)
                 (A) (A) (A) (A) (A) (A) (A) (A) (A) (A) (A) (A)
                 (A) (A) (A) (A) (A) (A) (A) (A) (A) (A) (A) (A)
                 (A) (A) (A) (A) (A) (A) (A) (A) (A) (A) (A) (A)
                 (A) (A) (A) (A) (A) (A) (A) (A) (A) (A) (A) (A)
                 (A) (A) (A) (A) (A) (A) (A) (A) (A) (A) (A) (A)
                 (A) (A) (A) (A) (A) (A) (A) (A) (A) (A) (A) (A)
                 (A) (A) (A) (A) (A) (A) (A) (A) (A) (A) (A) (A)
                 (A) (A) (A) (A) (A) (A) (A) (A) (A) (A) (A) (A)
                 (A) (A) (A) (A) (A) (A) (A) (A) (A) (A) (A) (A)
                 (A) (A) (A) (A) (A) (A) (A) (A) (A) (A) (A) (A)
                 (A) (A) (A) (A) (A) (A) (A) (A) (A) (A) (A) (A)
                 (A) (A) (A) (A) (A) (A) (A) (A) (A) (A) (A) (A)
                 (A) (A) (A) (A) (A) (A) (A) (A) (A) (A) (A) (A)
                 (A) (A) (A) (A) (A) (A) (A) (A) (A) (A) (A) (A)
                 (A) (A) (A) (A) (A) (A) (A) (A) (A) (A) (A) (A)
                 (A) (A) (A) (A) (A) (A) (A) (A) (A) (A) (A) (A)
                 (A) (A) (A) (A) (A) (A) (A) (A) (A) (A) (A) (A)
                 (A) (A) (A) (A) (A) (A) (A) (A) (A) (A) (A) (A)
                 (A) (A) (A) (A) (A) (A) (A) (A) (A) (A) (A) (A)
                 (A) (A) (A) (A) (A) (A) (A) (A) (A) (A) (A) (A)
                 (A) (A) (A) (A) (A) (A) (A) (A) (A) (A) (A) (A)
                 (A) (A) (A) (A) (A) (A) (A) (A) (A) (A) (A) (A)
                 (A) (A) (A) (A) (A) (A) (A) (A) (A) (A) (A) (A)
                 (A) (A) (A) (A) (A) (A) (A) (A) (A) (A) (A) (A)
                 (A) (A) (A) (A) (A) (A) (A) (A) (A) (A) (A) (A)
                 (A) (A) (A) (A) (A) (A) (A) (A) (A) (A) (A) (A)
                 (A) (A) (A) (A) (A) (A) (A) (A) (A) (A) (A) (A)
                 (A) (A) (A) (A) (A) (A) (A) (A) (A) (A) (A) (A)
                 (A) (A) (A) (A) (A) (A) (A) (A) (A) (A) (A) (A)
                 (A) (A) (A) (A) (A) (A) (A) (A) (A) (A) (A) (A)
                 (A) (A) (A) (A) (A) (A) (A) (A) (A) (A) (A) (A)
                 (A) (A) (A) (A) (A) (A) (A) (A) (A) (A) (A) (A)
                 (A) (A) (A) (A) (A) (A) (A) (A) (A) (A) (A) (A)
                 (A) (A) (A) (A) (A) (A) (A) (A) (A) (A) (A) (A)
                 (A) (A) (A) (A) (A) (A) (A) (A) (A) (A) (A) (A)
                 (A) (A) (A) (A) (A) (A) (A) (A) (A) (A) (A) (A)
                 (A) (A) (A) (A) (A) (A) (A) (A) (A) (A) (A) (A)
                 (A) (A) (A) (A) (A) (A) (A) (A) (A) (A) (A) (A)
                 (A) (A) (A) (A) (A) (A) (A) (A) (A) (A) (A) (A)
                 (A) (A) (A) (A) (A) (A) (A) (A) (A) (A) (A) (A)
                 (A) (A) (A) (A) (A) (A) (A) (A) (A) (A) (A) (A)
                 (A) (A) (A) (A) (A) (A) (A) (A) (A) (A) (A) (A)
                 (A) (A) (A) (A) (A) (A) (A) (A) (A) (A) (A) (A)
                 (A) (A) (A) (A) (A) (A) (A) (A) (A) (A) (A) (A)
                 (A) (A) (A) (A) (A) (A) (A) (A)
 Beta  Orbitals:
       Occupied  (A) (A) (A) (A) (A) (A) (A) (A) (A) (A) (A) (A)
                 (A) (A) (A) (A) (A) (A) (A) (A) (A) (A) (A) (A)
                 (A) (A) (A) (A) (A) (A) (A) (A) (A) (A) (A) (A)
                 (A) (A) (A) (A) (A) (A) (A) (A) (A) (A) (A) (A)
                 (A) (A) (A) (A) (A) (A) (A) (A) (A) (A) (A) (A)
                 (A) (A) (A) (A) (A) (A) (A) (A) (A) (A) (A) (A)
                 (A) (A) (A) (A) (A) (A) (A) (A) (A) (A) (A) (A)
                 (A) (A) (A) (A) (A) (A) (A) (A) (A) (A) (A) (A)
                 (A) (A) (A) (A) (A) (A) (A) (A) (A) (A) (A) (A)
                 (A) (A) (A) (A) (A) (A) (A) (A) (A) (A) (A) (A)
                 (A) (A) (A) (A) (A) (A) (A) (A) (A) (A) (A) (A)
                 (A) (A) (A) (A) (A) (A) (A) (A) (A) (A) (A) (A)
                 (A) (A) (A) (A) (A) (A) (A) (A) (A) (A) (A) (A)
                 (A) (A) (A) (A) (A) (A) (A) (A) (A) (A) (A) (A)
                 (A) (A) (A) (A) (A) (A) (A) (A) (A) (A) (A) (A)
                 (A) (A) (A) (A) (A) (A) (A)
       Virtual   (A) (A) (A) (A) (A) (A) (A) (A) (A) (A) (A) (A)
                 (A) (A) (A) (A) (A) (A) (A) (A) (A) (A) (A) (A)
                 (A) (A) (A) (A) (A) (A) (A) (A) (A) (A) (A) (A)
                 (A) (A) (A) (A) (A) (A) (A) (A) (A) (A) (A) (A)
                 (A) (A) (A) (A) (A) (A) (A) (A) (A) (A) (A) (A)
                 (A) (A) (A) (A) (A) (A) (A) (A) (A) (A) (A) (A)
                 (A) (A) (A) (A) (A) (A) (A) (A) (A) (A) (A) (A)
                 (A) (A) (A) (A) (A) (A) (A) (A) (A) (A) (A) (A)
                 (A) (A) (A) (A) (A) (A) (A) (A) (A) (A) (A) (A)
                 (A) (A) (A) (A) (A) (A) (A) (A) (A) (A) (A) (A)
                 (A) (A) (A) (A) (A) (A) (A) (A) (A) (A) (A) (A)
                 (A) (A) (A) (A) (A) (A) (A) (A) (A) (A) (A) (A)
                 (A) (A) (A) (A) (A) (A) (A) (A) (A) (A) (A) (A)
                 (A) (A) (A) (A) (A) (A) (A) (A) (A) (A) (A) (A)
                 (A) (A) (A) (A) (A) (A) (A) (A) (A) (A) (A) (A)
                 (A) (A) (A) (A) (A) (A) (A) (A) (A) (A) (A) (A)
                 (A) (A) (A) (A) (A) (A) (A) (A) (A) (A) (A) (A)
                 (A) (A) (A) (A) (A) (A) (A) (A) (A) (A) (A) (A)
                 (A) (A) (A) (A) (A) (A) (A) (A) (A) (A) (A) (A)
                 (A) (A) (A) (A) (A) (A) (A) (A) (A) (A) (A) (A)
                 (A) (A) (A) (A) (A) (A) (A) (A) (A) (A) (A) (A)
                 (A) (A) (A) (A) (A) (A) (A) (A) (A) (A) (A) (A)
                 (A) (A) (A) (A) (A) (A) (A) (A) (A) (A) (A) (A)
                 (A) (A) (A) (A) (A) (A) (A) (A) (A) (A) (A) (A)
                 (A) (A) (A) (A) (A) (A) (A) (A) (A) (A) (A) (A)
                 (A) (A) (A) (A) (A) (A) (A) (A) (A) (A) (A) (A)
                 (A) (A) (A) (A) (A) (A) (A) (A) (A) (A) (A) (A)
                 (A) (A) (A) (A) (A) (A) (A) (A) (A) (A) (A) (A)
                 (A) (A) (A) (A) (A) (A) (A) (A) (A) (A) (A) (A)
                 (A) (A) (A) (A) (A) (A) (A) (A) (A) (A) (A) (A)
                 (A) (A) (A) (A) (A) (A) (A) (A) (A) (A) (A) (A)
                 (A) (A) (A) (A) (A) (A) (A) (A) (A) (A) (A) (A)
                 (A) (A) (A) (A) (A) (A) (A) (A) (A) (A) (A) (A)
                 (A) (A) (A) (A) (A) (A) (A) (A) (A) (A) (A) (A)
                 (A) (A) (A) (A) (A) (A) (A) (A) (A) (A) (A) (A)
                 (A) (A) (A) (A) (A) (A) (A) (A) (A) (A) (A) (A)
                 (A) (A) (A) (A) (A) (A) (A) (A) (A) (A) (A) (A)
                 (A) (A) (A) (A) (A) (A) (A) (A) (A) (A) (A) (A)
                 (A) (A) (A) (A) (A) (A) (A) (A) (A) (A) (A) (A)
                 (A) (A) (A) (A) (A) (A) (A) (A) (A) (A) (A) (A)
                 (A) (A) (A) (A) (A) (A) (A) (A) (A) (A) (A) (A)
                 (A) (A) (A) (A) (A) (A) (A) (A) (A) (A) (A) (A)
                 (A) (A) (A) (A) (A) (A) (A) (A) (A) (A) (A) (A)
                 (A) (A) (A) (A) (A) (A) (A) (A) (A) (A) (A) (A)
                 (A) (A) (A) (A) (A) (A) (A) (A) (A) (A) (A) (A)
                 (A) (A) (A) (A) (A) (A) (A) (A) (A) (A) (A) (A)
                 (A) (A) (A) (A) (A) (A) (A) (A) (A) (A) (A) (A)
                 (A) (A) (A) (A) (A) (A) (A) (A) (A) (A) (A) (A)
                 (A) (A) (A) (A) (A) (A) (A) (A) (A) (A) (A) (A)
                 (A) (A) (A) (A) (A) (A) (A) (A) (A) (A) (A) (A)
                 (A) (A) (A) (A) (A) (A) (A) (A) (A) (A) (A) (A)
                 (A) (A) (A) (A) (A) (A) (A) (A) (A) (A) (A) (A)
                 (A) (A) (A) (A) (A) (A) (A) (A) (A) (A) (A) (A)
                 (A) (A) (A) (A) (A) (A) (A) (A) (A) (A) (A) (A)
                 (A) (A) (A) (A) (A) (A) (A) (A) (A) (A) (A) (A)
                 (A) (A) (A) (A) (A) (A) (A) (A) (A) (A) (A) (A)
                 (A) (A) (A) (A) (A) (A) (A) (A) (A) (A) (A) (A)
                 (A) (A) (A) (A) (A) (A) (A) (A) (A) (A) (A) (A)
                 (A) (A) (A) (A) (A) (A) (A) (A) (A) (A) (A) (A)
                 (A) (A) (A) (A) (A) (A) (A) (A) (A) (A) (A) (A)
                 (A) (A) (A) (A) (A) (A) (A) (A) (A) (A) (A) (A)
                 (A) (A) (A) (A) (A) (A) (A) (A) (A) (A) (A) (A)
                 (A) (A) (A) (A) (A) (A) (A) (A) (A) (A) (A) (A)
                 (A) (A) (A) (A) (A) (A) (A) (A) (A) (A) (A) (A)
                 (A) (A) (A) (A) (A) (A) (A) (A) (A) (A) (A) (A)
                 (A) (A) (A) (A) (A) (A) (A) (A) (A) (A) (A) (A)
                 (A) (A) (A) (A) (A) (A) (A) (A) (A) (A) (A) (A)
                 (A) (A) (A) (A) (A) (A) (A) (A) (A) (A) (A) (A)
                 (A) (A) (A) (A) (A) (A) (A) (A) (A) (A) (A) (A)
                 (A) (A) (A) (A) (A) (A) (A) (A) (A) (A) (A) (A)
                 (A) (A) (A) (A) (A) (A) (A) (A) (A) (A) (A) (A)
                 (A) (A) (A) (A) (A) (A) (A) (A) (A) (A) (A) (A)
                 (A) (A) (A) (A) (A) (A) (A) (A) (A) (A) (A) (A)
                 (A) (A) (A) (A) (A) (A) (A) (A) (A) (A) (A) (A)
                 (A) (A) (A) (A) (A) (A) (A) (A) (A) (A) (A) (A)
                 (A) (A) (A) (A) (A) (A) (A) (A) (A) (A) (A) (A)
                 (A) (A) (A) (A) (A) (A) (A) (A) (A) (A) (A) (A)
                 (A) (A) (A) (A) (A) (A) (A) (A) (A) (A) (A) (A)
                 (A) (A) (A) (A) (A) (A) (A) (A) (A) (A) (A) (A)
                 (A) (A) (A) (A) (A) (A) (A) (A) (A) (A) (A) (A)
                 (A) (A) (A) (A) (A) (A) (A) (A) (A) (A) (A) (A)
                 (A) (A) (A) (A) (A) (A) (A) (A) (A) (A) (A) (A)
                 (A) (A) (A) (A) (A) (A) (A) (A) (A) (A) (A) (A)
                 (A) (A) (A) (A) (A) (A) (A) (A) (A) (A) (A) (A)
                 (A) (A) (A) (A) (A) (A) (A) (A) (A) (A) (A) (A)
                 (A) (A) (A) (A) (A) (A) (A) (A) (A) (A) (A) (A)
                 (A) (A) (A) (A) (A) (A) (A) (A) (A) (A) (A) (A)
                 (A) (A) (A) (A) (A) (A) (A) (A) (A) (A) (A) (A)
                 (A) (A) (A) (A) (A) (A) (A) (A) (A) (A) (A) (A)
                 (A) (A) (A) (A) (A) (A) (A) (A) (A) (A) (A) (A)
                 (A) (A) (A) (A) (A) (A) (A) (A) (A) (A) (A) (A)
                 (A) (A) (A) (A) (A) (A) (A) (A) (A) (A) (A) (A)
                 (A) (A) (A) (A) (A) (A) (A) (A) (A) (A) (A) (A)
                 (A) (A) (A) (A) (A) (A) (A) (A) (A) (A) (A) (A)
                 (A) (A) (A) (A) (A) (A) (A) (A) (A) (A) (A) (A)
                 (A) (A) (A) (A) (A) (A) (A) (A) (A) (A) (A) (A)
                 (A) (A) (A) (A) (A) (A) (A) (A) (A) (A) (A) (A)
                 (A) (A) (A) (A) (A) (A) (A) (A) (A) (A) (A) (A)
                 (A) (A) (A) (A) (A) (A) (A) (A) (A) (A) (A) (A)
                 (A) (A) (A) (A) (A) (A) (A) (A) (A) (A) (A) (A)
                 (A) (A) (A) (A) (A) (A) (A) (A) (A) (A) (A) (A)
                 (A) (A) (A) (A) (A) (A) (A) (A) (A) (A) (A) (A)
                 (A) (A) (A) (A) (A) (A) (A) (A) (A) (A) (A) (A)
                 (A) (A) (A) (A) (A) (A) (A) (A) (A) (A) (A) (A)
                 (A) (A) (A) (A) (A) (A) (A) (A) (A) (A) (A) (A)
                 (A) (A) (A) (A) (A) (A) (A) (A) (A) (A) (A) (A)
                 (A) (A) (A) (A) (A) (A) (A) (A) (A) (A) (A) (A)
                 (A) (A) (A) (A) (A) (A) (A) (A) (A) (A) (A) (A)
                 (A) (A) (A) (A) (A) (A) (A) (A) (A) (A) (A) (A)
                 (A) (A) (A) (A) (A) (A) (A) (A) (A) (A) (A) (A)
                 (A) (A) (A) (A) (A) (A) (A) (A) (A) (A) (A) (A)
                 (A) (A) (A) (A) (A) (A) (A) (A) (A) (A) (A) (A)
                 (A) (A) (A) (A) (A) (A) (A) (A) (A) (A) (A) (A)
                 (A) (A) (A) (A) (A) (A) (A) (A) (A) (A) (A) (A)
                 (A) (A) (A) (A) (A) (A) (A) (A) (A) (A) (A) (A)
                 (A) (A) (A) (A) (A) (A) (A) (A) (A) (A) (A) (A)
                 (A) (A) (A) (A) (A) (A) (A) (A) (A) (A) (A) (A)
                 (A) (A) (A) (A) (A) (A) (A) (A) (A) (A) (A) (A)
                 (A) (A) (A) (A) (A) (A) (A) (A) (A) (A) (A) (A)
                 (A) (A) (A) (A) (A) (A) (A) (A) (A) (A) (A) (A)
                 (A) (A) (A) (A) (A) (A) (A) (A) (A) (A) (A) (A)
                 (A) (A) (A) (A) (A) (A) (A) (A) (A) (A) (A) (A)
                 (A) (A) (A) (A) (A) (A) (A) (A) (A) (A) (A) (A)
                 (A) (A) (A) (A) (A) (A) (A) (A) (A) (A) (A) (A)
                 (A) (A) (A) (A) (A) (A) (A) (A) (A) (A) (A) (A)
                 (A) (A) (A) (A) (A) (A) (A) (A) (A) (A) (A) (A)
                 (A) (A) (A) (A) (A) (A) (A) (A) (A) (A) (A) (A)
                 (A) (A) (A) (A) (A) (A) (A) (A) (A) (A) (A) (A)
                 (A) (A) (A) (A) (A) (A) (A) (A) (A) (A) (A) (A)
                 (A) (A) (A) (A) (A) (A) (A) (A) (A) (A) (A) (A)
                 (A) (A) (A) (A) (A) (A) (A) (A) (A) (A) (A) (A)
                 (A) (A) (A) (A) (A) (A) (A) (A) (A) (A) (A) (A)
                 (A) (A) (A) (A) (A) (A) (A) (A) (A) (A) (A) (A)
                 (A) (A) (A) (A) (A) (A) (A) (A) (A) (A) (A) (A)
                 (A) (A) (A) (A) (A) (A) (A) (A) (A)
 The electronic state is 2-A.
 Alpha  occ. eigenvalues -- -256.51868 -30.30240 -26.13495 -26.13401 -26.10732
 Alpha  occ. eigenvalues --  -19.31530 -19.31380 -19.26541 -19.23674 -19.22863
 Alpha  occ. eigenvalues --  -14.62979 -14.61823 -14.50439 -14.49341 -14.49005
 Alpha  occ. eigenvalues --  -14.48949 -10.46017 -10.42564 -10.40639 -10.40580
 Alpha  occ. eigenvalues --  -10.40475 -10.38371 -10.36497 -10.36389 -10.36357
 Alpha  occ. eigenvalues --  -10.35948 -10.35621 -10.35486 -10.35471 -10.35418
 Alpha  occ. eigenvalues --  -10.35153 -10.33786 -10.33778 -10.33299 -10.33219
 Alpha  occ. eigenvalues --  -10.33211 -10.32865 -10.32816 -10.32764 -10.32600
 Alpha  occ. eigenvalues --  -10.32451 -10.32260 -10.32148 -10.32113 -10.31576
 Alpha  occ. eigenvalues --  -10.31346 -10.31329 -10.30942 -10.30675 -10.30613
 Alpha  occ. eigenvalues --  -10.30505 -10.30418 -10.30244 -10.29229  -3.68658
 Alpha  occ. eigenvalues --   -2.45481  -2.44980  -2.43347  -1.28155  -1.24538
 Alpha  occ. eigenvalues --   -1.24350  -1.14912  -1.12470  -1.11557  -1.11323
 Alpha  occ. eigenvalues --   -1.10315  -1.09801  -1.08716  -1.04202  -0.97767
 Alpha  occ. eigenvalues --   -0.96359  -0.95403  -0.93717  -0.93419  -0.93334
 Alpha  occ. eigenvalues --   -0.92628  -0.92392  -0.90864  -0.89767  -0.88493
 Alpha  occ. eigenvalues --   -0.88283  -0.88114  -0.86605  -0.86500  -0.84396
 Alpha  occ. eigenvalues --   -0.84159  -0.82442  -0.81951  -0.81473  -0.80843
 Alpha  occ. eigenvalues --   -0.78188  -0.78098  -0.77304  -0.77028  -0.75814
 Alpha  occ. eigenvalues --   -0.74103  -0.73537  -0.73232  -0.73074  -0.72279
 Alpha  occ. eigenvalues --   -0.70383  -0.70281  -0.67571  -0.67047  -0.66735
 Alpha  occ. eigenvalues --   -0.65721  -0.65218  -0.64615  -0.64015  -0.63770
 Alpha  occ. eigenvalues --   -0.63244  -0.61109  -0.61022  -0.60651  -0.60156
 Alpha  occ. eigenvalues --   -0.60025  -0.59407  -0.58695  -0.58284  -0.58181
 Alpha  occ. eigenvalues --   -0.57743  -0.57400  -0.57142  -0.56975  -0.56516
 Alpha  occ. eigenvalues --   -0.56313  -0.56025  -0.55849  -0.55599  -0.55100
 Alpha  occ. eigenvalues --   -0.54736  -0.54290  -0.54056  -0.53902  -0.53629
 Alpha  occ. eigenvalues --   -0.53438  -0.53238  -0.53132  -0.52728  -0.52362
 Alpha  occ. eigenvalues --   -0.51839  -0.51642  -0.51512  -0.51446  -0.50967
 Alpha  occ. eigenvalues --   -0.50712  -0.50529  -0.50291  -0.49543  -0.49283
 Alpha  occ. eigenvalues --   -0.49077  -0.48625  -0.48269  -0.47801  -0.47684
 Alpha  occ. eigenvalues --   -0.47578  -0.46806  -0.46484  -0.46320  -0.46087
 Alpha  occ. eigenvalues --   -0.45771  -0.45451  -0.45239  -0.44628  -0.44256
 Alpha  occ. eigenvalues --   -0.43834  -0.43635  -0.43063  -0.42466  -0.41515
 Alpha  occ. eigenvalues --   -0.41319  -0.40808  -0.40301  -0.40064  -0.39474
 Alpha  occ. eigenvalues --   -0.39044  -0.38518  -0.38302  -0.35509  -0.34885
 Alpha  occ. eigenvalues --   -0.34766  -0.33958  -0.33410  -0.33079  -0.32049
 Alpha  occ. eigenvalues --   -0.30870  -0.30256  -0.29238
 Alpha virt. eigenvalues --   -0.21148  -0.19736  -0.18902  -0.18616  -0.15385
 Alpha virt. eigenvalues --   -0.15108  -0.11818  -0.10983  -0.10616  -0.09269
 Alpha virt. eigenvalues --   -0.09011  -0.07361  -0.06268  -0.05904  -0.05141
 Alpha virt. eigenvalues --   -0.04885  -0.04698  -0.04078  -0.03817  -0.03369
 Alpha virt. eigenvalues --   -0.03112  -0.02390  -0.02028  -0.01704  -0.01466
 Alpha virt. eigenvalues --   -0.01328  -0.01302  -0.00731  -0.00418  -0.00087
 Alpha virt. eigenvalues --    0.00086   0.00274   0.00600   0.00674   0.01023
 Alpha virt. eigenvalues --    0.01309   0.01833   0.01898   0.02271   0.02470
 Alpha virt. eigenvalues --    0.02971   0.03078   0.03461   0.03791   0.03995
 Alpha virt. eigenvalues --    0.04390   0.04499   0.04776   0.05099   0.05289
 Alpha virt. eigenvalues --    0.05561   0.05915   0.06254   0.06431   0.06544
 Alpha virt. eigenvalues --    0.06666   0.06847   0.07131   0.07455   0.07579
 Alpha virt. eigenvalues --    0.07868   0.07966   0.08226   0.08310   0.08727
 Alpha virt. eigenvalues --    0.08942   0.09126   0.09232   0.09411   0.09614
 Alpha virt. eigenvalues --    0.09798   0.10011   0.10058   0.10407   0.10604
 Alpha virt. eigenvalues --    0.11354   0.11533   0.11669   0.11962   0.12063
 Alpha virt. eigenvalues --    0.12400   0.12547   0.12636   0.13022   0.13215
 Alpha virt. eigenvalues --    0.13513   0.13679   0.13782   0.13924   0.14166
 Alpha virt. eigenvalues --    0.14233   0.14496   0.14561   0.14932   0.15137
 Alpha virt. eigenvalues --    0.15443   0.15534   0.15807   0.15959   0.16094
 Alpha virt. eigenvalues --    0.16304   0.16831   0.16934   0.17487   0.17610
 Alpha virt. eigenvalues --    0.17824   0.17895   0.18028   0.18327   0.18367
 Alpha virt. eigenvalues --    0.18592   0.18715   0.19096   0.19395   0.19516
 Alpha virt. eigenvalues --    0.19653   0.19857   0.20379   0.20594   0.20727
 Alpha virt. eigenvalues --    0.21026   0.21093   0.21622   0.21708   0.22045
 Alpha virt. eigenvalues --    0.22244   0.22320   0.22409   0.22935   0.23022
 Alpha virt. eigenvalues --    0.23282   0.23485   0.23746   0.24155   0.24284
 Alpha virt. eigenvalues --    0.24519   0.24820   0.25114   0.25302   0.25449
 Alpha virt. eigenvalues --    0.25889   0.26300   0.26390   0.26686   0.26887
 Alpha virt. eigenvalues --    0.27263   0.27408   0.27642   0.27903   0.28067
 Alpha virt. eigenvalues --    0.28262   0.28415   0.28769   0.29153   0.29414
 Alpha virt. eigenvalues --    0.29598   0.29692   0.29877   0.30072   0.30337
 Alpha virt. eigenvalues --    0.30472   0.30591   0.30721   0.30897   0.31063
 Alpha virt. eigenvalues --    0.31160   0.31354   0.31702   0.31991   0.32206
 Alpha virt. eigenvalues --    0.32374   0.32751   0.32992   0.33024   0.33222
 Alpha virt. eigenvalues --    0.33487   0.33840   0.33886   0.33934   0.34247
 Alpha virt. eigenvalues --    0.34584   0.34746   0.34964   0.35321   0.35444
 Alpha virt. eigenvalues --    0.35612   0.35750   0.35991   0.36536   0.36613
 Alpha virt. eigenvalues --    0.36813   0.36975   0.37206   0.37416   0.37654
 Alpha virt. eigenvalues --    0.37816   0.38080   0.38270   0.38499   0.38624
 Alpha virt. eigenvalues --    0.38915   0.39074   0.39302   0.39508   0.39540
 Alpha virt. eigenvalues --    0.39741   0.39944   0.40099   0.40183   0.40540
 Alpha virt. eigenvalues --    0.40751   0.40841   0.40903   0.41082   0.41278
 Alpha virt. eigenvalues --    0.41616   0.41760   0.41962   0.42012   0.42355
 Alpha virt. eigenvalues --    0.42684   0.42804   0.42995   0.43118   0.43477
 Alpha virt. eigenvalues --    0.43771   0.43993   0.44245   0.44480   0.44603
 Alpha virt. eigenvalues --    0.44696   0.44836   0.44913   0.45311   0.45336
 Alpha virt. eigenvalues --    0.45628   0.45982   0.46043   0.46185   0.46761
 Alpha virt. eigenvalues --    0.46889   0.47137   0.47421   0.47740   0.47917
 Alpha virt. eigenvalues --    0.48098   0.48182   0.48477   0.48904   0.48996
 Alpha virt. eigenvalues --    0.49284   0.49384   0.49590   0.49828   0.50153
 Alpha virt. eigenvalues --    0.50276   0.50459   0.50785   0.51210   0.51515
 Alpha virt. eigenvalues --    0.51769   0.51884   0.52277   0.52335   0.52761
 Alpha virt. eigenvalues --    0.52794   0.53003   0.53428   0.53562   0.53799
 Alpha virt. eigenvalues --    0.53941   0.54219   0.54408   0.54670   0.54796
 Alpha virt. eigenvalues --    0.55069   0.55340   0.55535   0.55654   0.55874
 Alpha virt. eigenvalues --    0.56449   0.56892   0.57118   0.57356   0.57554
 Alpha virt. eigenvalues --    0.57785   0.58056   0.58517   0.58785   0.58854
 Alpha virt. eigenvalues --    0.59186   0.59403   0.59615   0.59678   0.59804
 Alpha virt. eigenvalues --    0.59997   0.60265   0.60410   0.60422   0.60890
 Alpha virt. eigenvalues --    0.61119   0.61463   0.61803   0.61894   0.62208
 Alpha virt. eigenvalues --    0.62518   0.62778   0.63131   0.63245   0.63588
 Alpha virt. eigenvalues --    0.63689   0.64232   0.64307   0.64819   0.65379
 Alpha virt. eigenvalues --    0.65536   0.65612   0.65907   0.66439   0.66524
 Alpha virt. eigenvalues --    0.67004   0.67284   0.67629   0.67810   0.67871
 Alpha virt. eigenvalues --    0.68146   0.68288   0.69022   0.69305   0.69682
 Alpha virt. eigenvalues --    0.70048   0.70542   0.70616   0.70940   0.71457
 Alpha virt. eigenvalues --    0.71808   0.72040   0.72254   0.72451   0.72521
 Alpha virt. eigenvalues --    0.73294   0.73661   0.73915   0.74092   0.74565
 Alpha virt. eigenvalues --    0.74766   0.75333   0.75622   0.75671   0.75867
 Alpha virt. eigenvalues --    0.76165   0.76560   0.76942   0.77027   0.77354
 Alpha virt. eigenvalues --    0.77511   0.77937   0.78176   0.78872   0.79240
 Alpha virt. eigenvalues --    0.79576   0.79888   0.80073   0.80577   0.80704
 Alpha virt. eigenvalues --    0.80920   0.81045   0.81459   0.81831   0.82077
 Alpha virt. eigenvalues --    0.82299   0.82768   0.83061   0.83620   0.83826
 Alpha virt. eigenvalues --    0.83989   0.84189   0.84739   0.84892   0.85138
 Alpha virt. eigenvalues --    0.85473   0.85770   0.86010   0.86681   0.86872
 Alpha virt. eigenvalues --    0.87043   0.87450   0.87744   0.88368   0.88892
 Alpha virt. eigenvalues --    0.88999   0.89480   0.89742   0.89782   0.89915
 Alpha virt. eigenvalues --    0.90371   0.90686   0.90877   0.91073   0.91087
 Alpha virt. eigenvalues --    0.91512   0.92000   0.92259   0.92433   0.92600
 Alpha virt. eigenvalues --    0.93042   0.93392   0.93455   0.94071   0.94092
 Alpha virt. eigenvalues --    0.94432   0.94840   0.95070   0.95340   0.95580
 Alpha virt. eigenvalues --    0.96133   0.96232   0.96688   0.97012   0.97415
 Alpha virt. eigenvalues --    0.97630   0.98079   0.98496   0.98773   0.98831
 Alpha virt. eigenvalues --    0.99356   0.99724   1.00095   1.00314   1.00807
 Alpha virt. eigenvalues --    1.01185   1.01328   1.01541   1.01873   1.02043
 Alpha virt. eigenvalues --    1.02397   1.02522   1.03208   1.03553   1.04162
 Alpha virt. eigenvalues --    1.04353   1.04837   1.04964   1.05213   1.05468
 Alpha virt. eigenvalues --    1.05655   1.06113   1.06421   1.07106   1.07351
 Alpha virt. eigenvalues --    1.07722   1.07780   1.08167   1.08454   1.09259
 Alpha virt. eigenvalues --    1.09487   1.09692   1.09899   1.10189   1.10641
 Alpha virt. eigenvalues --    1.11094   1.11480   1.11709   1.12641   1.12871
 Alpha virt. eigenvalues --    1.13121   1.13325   1.13473   1.13990   1.14586
 Alpha virt. eigenvalues --    1.14865   1.15385   1.15612   1.16363   1.17264
 Alpha virt. eigenvalues --    1.17339   1.17691   1.18007   1.18196   1.18262
 Alpha virt. eigenvalues --    1.19180   1.19792   1.20051   1.21033   1.21409
 Alpha virt. eigenvalues --    1.21970   1.22147   1.22214   1.22476   1.22991
 Alpha virt. eigenvalues --    1.23126   1.24099   1.24252   1.24630   1.25313
 Alpha virt. eigenvalues --    1.25396   1.25833   1.26120   1.26643   1.26956
 Alpha virt. eigenvalues --    1.27326   1.27638   1.28078   1.28375   1.28926
 Alpha virt. eigenvalues --    1.28951   1.29682   1.29747   1.29873   1.30842
 Alpha virt. eigenvalues --    1.31263   1.31495   1.32071   1.32321   1.32456
 Alpha virt. eigenvalues --    1.32846   1.33127   1.33997   1.34160   1.34376
 Alpha virt. eigenvalues --    1.34818   1.35018   1.35262   1.35662   1.36081
 Alpha virt. eigenvalues --    1.36548   1.36976   1.37020   1.37821   1.38041
 Alpha virt. eigenvalues --    1.38647   1.38805   1.38839   1.39216   1.39343
 Alpha virt. eigenvalues --    1.39622   1.39981   1.40236   1.40508   1.40733
 Alpha virt. eigenvalues --    1.41101   1.41374   1.41694   1.41945   1.42145
 Alpha virt. eigenvalues --    1.42420   1.42565   1.43200   1.43310   1.43944
 Alpha virt. eigenvalues --    1.44066   1.44667   1.44754   1.45166   1.45369
 Alpha virt. eigenvalues --    1.45609   1.45922   1.46569   1.46662   1.47320
 Alpha virt. eigenvalues --    1.47639   1.47914   1.48324   1.48602   1.48971
 Alpha virt. eigenvalues --    1.49124   1.49389   1.49627   1.49824   1.49913
 Alpha virt. eigenvalues --    1.50087   1.50679   1.50714   1.51100   1.51184
 Alpha virt. eigenvalues --    1.51756   1.52175   1.52336   1.52360   1.52646
 Alpha virt. eigenvalues --    1.52828   1.52894   1.53358   1.53663   1.54028
 Alpha virt. eigenvalues --    1.54511   1.54986   1.55000   1.55455   1.55864
 Alpha virt. eigenvalues --    1.56055   1.56268   1.56584   1.57085   1.57380
 Alpha virt. eigenvalues --    1.57690   1.57906   1.58047   1.58349   1.58597
 Alpha virt. eigenvalues --    1.59085   1.59756   1.59965   1.60313   1.60720
 Alpha virt. eigenvalues --    1.60833   1.61228   1.61486   1.62064   1.62317
 Alpha virt. eigenvalues --    1.62772   1.62837   1.63762   1.63888   1.64472
 Alpha virt. eigenvalues --    1.64626   1.64799   1.65095   1.65430   1.65813
 Alpha virt. eigenvalues --    1.66033   1.66178   1.66190   1.66959   1.67215
 Alpha virt. eigenvalues --    1.67585   1.67707   1.68109   1.68908   1.69323
 Alpha virt. eigenvalues --    1.69532   1.69874   1.70109   1.70460   1.70768
 Alpha virt. eigenvalues --    1.70903   1.71114   1.72011   1.72551   1.73221
 Alpha virt. eigenvalues --    1.73440   1.73709   1.74058   1.74114   1.74758
 Alpha virt. eigenvalues --    1.74788   1.75377   1.75467   1.75887   1.76410
 Alpha virt. eigenvalues --    1.76628   1.76837   1.77619   1.77858   1.77951
 Alpha virt. eigenvalues --    1.78831   1.78865   1.79637   1.80012   1.80353
 Alpha virt. eigenvalues --    1.80945   1.81247   1.81413   1.81982   1.82400
 Alpha virt. eigenvalues --    1.82792   1.83114   1.83310   1.83641   1.84159
 Alpha virt. eigenvalues --    1.84595   1.85330   1.85774   1.85825   1.85905
 Alpha virt. eigenvalues --    1.86138   1.86438   1.86873   1.87234   1.87430
 Alpha virt. eigenvalues --    1.88033   1.88775   1.88784   1.88980   1.89210
 Alpha virt. eigenvalues --    1.89473   1.90091   1.90229   1.90885   1.91027
 Alpha virt. eigenvalues --    1.91727   1.92084   1.92238   1.92823   1.92984
 Alpha virt. eigenvalues --    1.93450   1.93884   1.94064   1.94419   1.95339
 Alpha virt. eigenvalues --    1.95543   1.96040   1.96499   1.96718   1.97496
 Alpha virt. eigenvalues --    1.97821   1.98043   1.98705   1.99090   1.99233
 Alpha virt. eigenvalues --    1.99549   2.00019   2.00434   2.00722   2.01075
 Alpha virt. eigenvalues --    2.01645   2.01958   2.02245   2.02762   2.03185
 Alpha virt. eigenvalues --    2.03268   2.03533   2.03703   2.04152   2.04628
 Alpha virt. eigenvalues --    2.04932   2.05152   2.05681   2.06178   2.06471
 Alpha virt. eigenvalues --    2.06816   2.07011   2.07749   2.07841   2.08600
 Alpha virt. eigenvalues --    2.08808   2.09180   2.09630   2.09905   2.10201
 Alpha virt. eigenvalues --    2.10317   2.10588   2.11300   2.11892   2.12134
 Alpha virt. eigenvalues --    2.12404   2.13170   2.13405   2.13924   2.13980
 Alpha virt. eigenvalues --    2.14680   2.15112   2.15586   2.16277   2.16764
 Alpha virt. eigenvalues --    2.17249   2.17472   2.17607   2.18011   2.18844
 Alpha virt. eigenvalues --    2.19192   2.19737   2.19980   2.20205   2.20516
 Alpha virt. eigenvalues --    2.20978   2.21604   2.21770   2.21971   2.22834
 Alpha virt. eigenvalues --    2.23061   2.23357   2.23950   2.24109   2.24252
 Alpha virt. eigenvalues --    2.24613   2.25241   2.25978   2.26258   2.26715
 Alpha virt. eigenvalues --    2.26812   2.27150   2.27914   2.27995   2.28519
 Alpha virt. eigenvalues --    2.28885   2.29649   2.30070   2.30243   2.30573
 Alpha virt. eigenvalues --    2.30969   2.31142   2.31328   2.31669   2.31992
 Alpha virt. eigenvalues --    2.32582   2.33096   2.33501   2.34063   2.34388
 Alpha virt. eigenvalues --    2.34569   2.34769   2.35581   2.35812   2.36095
 Alpha virt. eigenvalues --    2.36471   2.36663   2.37318   2.37967   2.38168
 Alpha virt. eigenvalues --    2.38849   2.39085   2.39802   2.40125   2.40281
 Alpha virt. eigenvalues --    2.40794   2.41103   2.41424   2.42047   2.42670
 Alpha virt. eigenvalues --    2.43526   2.43818   2.43952   2.44448   2.44600
 Alpha virt. eigenvalues --    2.44866   2.45228   2.45628   2.45928   2.46173
 Alpha virt. eigenvalues --    2.46740   2.46850   2.47401   2.47828   2.47953
 Alpha virt. eigenvalues --    2.48355   2.48411   2.48589   2.49175   2.49603
 Alpha virt. eigenvalues --    2.49844   2.49952   2.50237   2.50522   2.51367
 Alpha virt. eigenvalues --    2.51467   2.51572   2.52090   2.52137   2.52505
 Alpha virt. eigenvalues --    2.52722   2.53176   2.53591   2.53839   2.54016
 Alpha virt. eigenvalues --    2.54363   2.55050   2.55134   2.55609   2.56063
 Alpha virt. eigenvalues --    2.56501   2.56809   2.57046   2.57290   2.58112
 Alpha virt. eigenvalues --    2.58171   2.58515   2.58853   2.59034   2.59533
 Alpha virt. eigenvalues --    2.59656   2.60589   2.61022   2.61255   2.61664
 Alpha virt. eigenvalues --    2.61763   2.62082   2.62186   2.62724   2.63175
 Alpha virt. eigenvalues --    2.63740   2.63926   2.64333   2.64443   2.64677
 Alpha virt. eigenvalues --    2.65311   2.65518   2.65558   2.66175   2.66253
 Alpha virt. eigenvalues --    2.67130   2.67363   2.67518   2.67783   2.68152
 Alpha virt. eigenvalues --    2.68353   2.69194   2.69519   2.69540   2.69817
 Alpha virt. eigenvalues --    2.70493   2.70977   2.71082   2.71544   2.72205
 Alpha virt. eigenvalues --    2.72533   2.73056   2.73199   2.73815   2.74237
 Alpha virt. eigenvalues --    2.74564   2.74661   2.75018   2.75425   2.75769
 Alpha virt. eigenvalues --    2.76174   2.76800   2.77062   2.77186   2.77713
 Alpha virt. eigenvalues --    2.77864   2.78308   2.78492   2.78786   2.79024
 Alpha virt. eigenvalues --    2.79769   2.80104   2.80308   2.80655   2.81315
 Alpha virt. eigenvalues --    2.81443   2.81972   2.82062   2.82681   2.82761
 Alpha virt. eigenvalues --    2.83108   2.83591   2.83789   2.84308   2.84642
 Alpha virt. eigenvalues --    2.84853   2.85185   2.85835   2.85954   2.86089
 Alpha virt. eigenvalues --    2.86488   2.86578   2.86941   2.87674   2.87903
 Alpha virt. eigenvalues --    2.88302   2.88406   2.88708   2.89245   2.89434
 Alpha virt. eigenvalues --    2.89774   2.90000   2.90361   2.90661   2.90902
 Alpha virt. eigenvalues --    2.91160   2.91567   2.91808   2.92101   2.92316
 Alpha virt. eigenvalues --    2.92593   2.92754   2.93167   2.93268   2.93504
 Alpha virt. eigenvalues --    2.93616   2.94016   2.94418   2.94865   2.95390
 Alpha virt. eigenvalues --    2.95877   2.96228   2.96580   2.96922   2.97042
 Alpha virt. eigenvalues --    2.97382   2.97467   2.97716   2.98225   2.98451
 Alpha virt. eigenvalues --    2.98738   2.99038   2.99247   2.99601   2.99873
 Alpha virt. eigenvalues --    3.00021   3.00292   3.00392   3.00938   3.00965
 Alpha virt. eigenvalues --    3.01376   3.01680   3.02173   3.02375   3.02756
 Alpha virt. eigenvalues --    3.02846   3.03297   3.03631   3.03809   3.04076
 Alpha virt. eigenvalues --    3.04442   3.04754   3.04914   3.05173   3.05565
 Alpha virt. eigenvalues --    3.05684   3.06100   3.06290   3.06850   3.07058
 Alpha virt. eigenvalues --    3.07189   3.07286   3.07621   3.07852   3.08409
 Alpha virt. eigenvalues --    3.08762   3.09040   3.09587   3.09876   3.10072
 Alpha virt. eigenvalues --    3.10222   3.11121   3.11368   3.11761   3.11935
 Alpha virt. eigenvalues --    3.12269   3.12542   3.12746   3.13253   3.13531
 Alpha virt. eigenvalues --    3.13877   3.14113   3.14354   3.14892   3.15026
 Alpha virt. eigenvalues --    3.15541   3.15829   3.15945   3.16048   3.16416
 Alpha virt. eigenvalues --    3.16671   3.17248   3.17355   3.17667   3.18014
 Alpha virt. eigenvalues --    3.18208   3.18529   3.18762   3.19173   3.19362
 Alpha virt. eigenvalues --    3.19891   3.20069   3.20236   3.20550   3.20778
 Alpha virt. eigenvalues --    3.20856   3.20921   3.21828   3.21881   3.21965
 Alpha virt. eigenvalues --    3.22183   3.22388   3.22779   3.22910   3.23141
 Alpha virt. eigenvalues --    3.23395   3.23675   3.24044   3.24209   3.24664
 Alpha virt. eigenvalues --    3.24952   3.25101   3.25572   3.25650   3.25855
 Alpha virt. eigenvalues --    3.26216   3.26402   3.26676   3.26869   3.26889
 Alpha virt. eigenvalues --    3.27506   3.27622   3.27846   3.28010   3.28567
 Alpha virt. eigenvalues --    3.28648   3.29082   3.29201   3.29345   3.29531
 Alpha virt. eigenvalues --    3.29697   3.30140   3.30525   3.30644   3.31192
 Alpha virt. eigenvalues --    3.31432   3.31917   3.32064   3.32491   3.32588
 Alpha virt. eigenvalues --    3.32927   3.33295   3.34061   3.34296   3.34641
 Alpha virt. eigenvalues --    3.34914   3.35565   3.35767   3.35924   3.36330
 Alpha virt. eigenvalues --    3.36899   3.36953   3.37109   3.37688   3.38022
 Alpha virt. eigenvalues --    3.38202   3.39278   3.39485   3.39605   3.39910
 Alpha virt. eigenvalues --    3.40266   3.40581   3.40759   3.41212   3.41307
 Alpha virt. eigenvalues --    3.41852   3.42041   3.42529   3.42550   3.42981
 Alpha virt. eigenvalues --    3.43250   3.43933   3.44233   3.44549   3.44991
 Alpha virt. eigenvalues --    3.45569   3.45825   3.46020   3.46169   3.47057
 Alpha virt. eigenvalues --    3.47078   3.47375   3.47739   3.48035   3.48175
 Alpha virt. eigenvalues --    3.48861   3.49648   3.50008   3.50190   3.50431
 Alpha virt. eigenvalues --    3.50844   3.51028   3.51689   3.51906   3.52100
 Alpha virt. eigenvalues --    3.52486   3.53026   3.53505   3.53990   3.54263
 Alpha virt. eigenvalues --    3.54765   3.55165   3.55787   3.55974   3.56048
 Alpha virt. eigenvalues --    3.56179   3.56698   3.56824   3.57290   3.57543
 Alpha virt. eigenvalues --    3.57924   3.58455   3.58771   3.59197   3.59256
 Alpha virt. eigenvalues --    3.59561   3.59640   3.60021   3.60255   3.60834
 Alpha virt. eigenvalues --    3.61126   3.61380   3.61756   3.62198   3.62808
 Alpha virt. eigenvalues --    3.63116   3.63298   3.63757   3.64101   3.64633
 Alpha virt. eigenvalues --    3.64945   3.65249   3.65387   3.66330   3.66729
 Alpha virt. eigenvalues --    3.66932   3.66999   3.67305   3.67851   3.68242
 Alpha virt. eigenvalues --    3.69051   3.69263   3.69717   3.70093   3.70656
 Alpha virt. eigenvalues --    3.70883   3.71146   3.71342   3.72157   3.72582
 Alpha virt. eigenvalues --    3.73234   3.73709   3.74109   3.75241   3.75675
 Alpha virt. eigenvalues --    3.75751   3.75979   3.76408   3.77048   3.77280
 Alpha virt. eigenvalues --    3.77988   3.78520   3.79015   3.79595   3.80961
 Alpha virt. eigenvalues --    3.81288   3.81925   3.82352   3.83025   3.83455
 Alpha virt. eigenvalues --    3.84161   3.84585   3.85028   3.85387   3.85686
 Alpha virt. eigenvalues --    3.86650   3.86977   3.87634   3.87987   3.88390
 Alpha virt. eigenvalues --    3.89553   3.89993   3.90493   3.90949   3.91203
 Alpha virt. eigenvalues --    3.91499   3.92053   3.92577   3.92813   3.93339
 Alpha virt. eigenvalues --    3.93527   3.94241   3.94754   3.95066   3.95384
 Alpha virt. eigenvalues --    3.96213   3.96949   3.97231   3.97358   3.97800
 Alpha virt. eigenvalues --    3.98149   3.98846   4.00135   4.00291   4.00523
 Alpha virt. eigenvalues --    4.01057   4.01586   4.02258   4.02363   4.03321
 Alpha virt. eigenvalues --    4.03605   4.04049   4.04892   4.05357   4.06015
 Alpha virt. eigenvalues --    4.06291   4.06731   4.07125   4.07700   4.08250
 Alpha virt. eigenvalues --    4.08775   4.09505   4.10072   4.10189   4.10683
 Alpha virt. eigenvalues --    4.11622   4.11790   4.12375   4.12970   4.13295
 Alpha virt. eigenvalues --    4.13954   4.14342   4.14879   4.15144   4.15942
 Alpha virt. eigenvalues --    4.16160   4.16422   4.16966   4.17138   4.17837
 Alpha virt. eigenvalues --    4.18249   4.19070   4.19706   4.20293   4.21032
 Alpha virt. eigenvalues --    4.21178   4.21636   4.22295   4.23129   4.23710
 Alpha virt. eigenvalues --    4.23834   4.25226   4.25598   4.26179   4.26715
 Alpha virt. eigenvalues --    4.27176   4.27414   4.28137   4.28475   4.29742
 Alpha virt. eigenvalues --    4.29833   4.30149   4.30935   4.31425   4.32295
 Alpha virt. eigenvalues --    4.32624   4.33735   4.34001   4.34684   4.35736
 Alpha virt. eigenvalues --    4.36015   4.36866   4.37453   4.38110   4.38427
 Alpha virt. eigenvalues --    4.38864   4.39602   4.41288   4.42051   4.42445
 Alpha virt. eigenvalues --    4.43112   4.43375   4.44260   4.44826   4.45540
 Alpha virt. eigenvalues --    4.45949   4.46881   4.47569   4.48638   4.48998
 Alpha virt. eigenvalues --    4.49510   4.50637   4.51220   4.51469   4.52671
 Alpha virt. eigenvalues --    4.53718   4.54534   4.55654   4.55799   4.56831
 Alpha virt. eigenvalues --    4.57230   4.57396   4.58108   4.58798   4.60094
 Alpha virt. eigenvalues --    4.60717   4.61133   4.61720   4.62409   4.62896
 Alpha virt. eigenvalues --    4.63703   4.64594   4.65311   4.66608   4.67127
 Alpha virt. eigenvalues --    4.67941   4.68815   4.69906   4.70158   4.70858
 Alpha virt. eigenvalues --    4.71209   4.71358   4.72064   4.72403   4.73277
 Alpha virt. eigenvalues --    4.73723   4.74678   4.75375   4.75772   4.75930
 Alpha virt. eigenvalues --    4.77564   4.78124   4.78911   4.79522   4.80347
 Alpha virt. eigenvalues --    4.80628   4.81484   4.82256   4.82620   4.83508
 Alpha virt. eigenvalues --    4.85271   4.85855   4.86559   4.87098   4.87539
 Alpha virt. eigenvalues --    4.87729   4.88106   4.88737   4.89704   4.90314
 Alpha virt. eigenvalues --    4.91651   4.92192   4.92378   4.93358   4.95046
 Alpha virt. eigenvalues --    4.95461   4.97072   4.97548   4.98310   4.98911
 Alpha virt. eigenvalues --    4.99210   4.99508   5.00851   5.01419   5.01784
 Alpha virt. eigenvalues --    5.02854   5.03325   5.04482   5.05362   5.07157
 Alpha virt. eigenvalues --    5.08029   5.08659   5.09556   5.10594   5.10759
 Alpha virt. eigenvalues --    5.10887   5.11454   5.11817   5.12815   5.13880
 Alpha virt. eigenvalues --    5.14124   5.14522   5.15101   5.15548   5.17052
 Alpha virt. eigenvalues --    5.18170   5.18609   5.18803   5.19209   5.20295
 Alpha virt. eigenvalues --    5.21053   5.21371   5.22458   5.23780   5.25749
 Alpha virt. eigenvalues --    5.27623   5.27897   5.28393   5.29086   5.29446
 Alpha virt. eigenvalues --    5.30071   5.30990   5.31799   5.32399   5.33244
 Alpha virt. eigenvalues --    5.34073   5.34905   5.35138   5.37733   5.38749
 Alpha virt. eigenvalues --    5.40252   5.40722   5.41141   5.42603   5.42903
 Alpha virt. eigenvalues --    5.43879   5.45073   5.45723   5.48071   5.49147
 Alpha virt. eigenvalues --    5.50431   5.51490   5.51563   5.53592   5.54590
 Alpha virt. eigenvalues --    5.55041   5.55838   5.56348   5.57321   5.58110
 Alpha virt. eigenvalues --    5.58416   5.60105   5.61142   5.62149   5.62842
 Alpha virt. eigenvalues --    5.65369   5.66064   5.66184   5.68501   5.71227
 Alpha virt. eigenvalues --    5.72382   5.73799   5.73883   5.77718   5.79727
 Alpha virt. eigenvalues --    5.81289   5.82434   5.87157   5.89500   5.92464
 Alpha virt. eigenvalues --    5.93102   5.93878   5.93959   5.96360   6.00853
 Alpha virt. eigenvalues --    6.02756   6.03734   6.06441   6.06978   6.07687
 Alpha virt. eigenvalues --    6.13528   6.14344   6.14744   6.20833   6.22051
 Alpha virt. eigenvalues --    6.25245   6.28000   6.29483   6.30099   6.32162
 Alpha virt. eigenvalues --    6.33310   6.34713   6.36639   6.39159   6.39751
 Alpha virt. eigenvalues --    6.40235   6.41999   6.47500   6.48120   6.48270
 Alpha virt. eigenvalues --    6.50010   6.56178   6.59316   6.59534   6.62426
 Alpha virt. eigenvalues --    6.72940   6.77322   6.79607   6.80030   6.81170
 Alpha virt. eigenvalues --    6.92238   6.92884   6.93797   6.98240   7.02631
 Alpha virt. eigenvalues --    7.07097   7.07449   7.12115   7.15390   7.15802
 Alpha virt. eigenvalues --    7.22756   7.28655  22.19867  22.28775  22.32702
 Alpha virt. eigenvalues --   22.33625  22.42156  22.46715  22.47257  22.52439
 Alpha virt. eigenvalues --   22.53793  22.60967  22.62420  22.67418  22.74581
 Alpha virt. eigenvalues --   22.76414  22.84354  22.84797  22.87098  22.90645
 Alpha virt. eigenvalues --   22.94858  22.97666  23.02470  23.07055  23.08384
 Alpha virt. eigenvalues --   23.19276  23.23700  23.28916  23.34727  23.38984
 Alpha virt. eigenvalues --   23.41231  23.44892  23.48580  23.51782  23.66971
 Alpha virt. eigenvalues --   23.70489  23.73268  23.83230  23.86537  23.95584
 Alpha virt. eigenvalues --   32.35340  32.85263  32.90821  32.95194  32.98066
 Alpha virt. eigenvalues --   33.09022  43.88126  43.91442  43.93380  43.94318
 Alpha virt. eigenvalues --   44.11038
  Beta  occ. eigenvalues -- -256.51831 -30.27453 -26.10689 -26.10616 -26.09321
  Beta  occ. eigenvalues --  -19.31531 -19.31380 -19.27255 -19.23674 -19.22863
  Beta  occ. eigenvalues --  -14.62825 -14.61823 -14.50527 -14.49455 -14.49087
  Beta  occ. eigenvalues --  -14.49016 -10.46027 -10.42557 -10.40640 -10.40580
  Beta  occ. eigenvalues --  -10.40476 -10.38368 -10.36493 -10.36376 -10.36356
  Beta  occ. eigenvalues --  -10.35944 -10.35614 -10.35485 -10.35466 -10.35410
  Beta  occ. eigenvalues --  -10.35143 -10.33783 -10.33777 -10.33310 -10.33228
  Beta  occ. eigenvalues --  -10.33217 -10.32868 -10.32812 -10.32771 -10.32601
  Beta  occ. eigenvalues --  -10.32452 -10.32262 -10.32149 -10.32116 -10.31577
  Beta  occ. eigenvalues --  -10.31346 -10.31329 -10.30943 -10.30675 -10.30629
  Beta  occ. eigenvalues --  -10.30506 -10.30418 -10.30244 -10.29228  -3.61804
  Beta  occ. eigenvalues --   -2.39502  -2.36172  -2.35975  -1.28055  -1.24538
  Beta  occ. eigenvalues --   -1.24350  -1.14730  -1.12525  -1.11638  -1.11377
  Beta  occ. eigenvalues --   -1.10365  -1.09801  -1.08716  -1.06115  -0.97729
  Beta  occ. eigenvalues --   -0.96373  -0.95405  -0.93728  -0.93440  -0.93364
  Beta  occ. eigenvalues --   -0.92640  -0.92408  -0.90437  -0.89770  -0.88494
  Beta  occ. eigenvalues --   -0.88280  -0.88069  -0.86621  -0.86513  -0.84410
  Beta  occ. eigenvalues --   -0.84176  -0.82452  -0.81975  -0.81407  -0.80855
  Beta  occ. eigenvalues --   -0.78200  -0.78110  -0.77307  -0.77031  -0.75533
  Beta  occ. eigenvalues --   -0.74104  -0.73515  -0.73089  -0.73052  -0.72295
  Beta  occ. eigenvalues --   -0.70388  -0.70207  -0.67555  -0.66961  -0.66727
  Beta  occ. eigenvalues --   -0.65719  -0.65159  -0.64575  -0.64029  -0.63787
  Beta  occ. eigenvalues --   -0.63259  -0.61065  -0.61023  -0.60663  -0.60151
  Beta  occ. eigenvalues --   -0.60020  -0.59413  -0.58672  -0.58289  -0.58149
  Beta  occ. eigenvalues --   -0.57671  -0.57378  -0.57129  -0.56976  -0.56544
  Beta  occ. eigenvalues --   -0.56268  -0.56011  -0.55810  -0.55483  -0.55050
  Beta  occ. eigenvalues --   -0.54753  -0.54300  -0.54047  -0.53932  -0.53638
  Beta  occ. eigenvalues --   -0.53411  -0.53317  -0.53044  -0.52616  -0.52335
  Beta  occ. eigenvalues --   -0.51765  -0.51628  -0.51520  -0.51393  -0.50889
  Beta  occ. eigenvalues --   -0.50617  -0.50448  -0.50249  -0.49405  -0.48887
  Beta  occ. eigenvalues --   -0.48523  -0.48355  -0.48016  -0.47758  -0.47549
  Beta  occ. eigenvalues --   -0.47181  -0.46383  -0.46246  -0.45855  -0.45534
  Beta  occ. eigenvalues --   -0.45433  -0.44927  -0.44571  -0.44349  -0.43841
  Beta  occ. eigenvalues --   -0.43272  -0.42873  -0.42455  -0.41496  -0.41341
  Beta  occ. eigenvalues --   -0.40861  -0.40542  -0.39757  -0.39476  -0.38962
  Beta  occ. eigenvalues --   -0.38504  -0.38123  -0.35425  -0.34854  -0.34773
  Beta  occ. eigenvalues --   -0.33937  -0.33411  -0.33070  -0.32088  -0.30857
  Beta  occ. eigenvalues --   -0.30277  -0.29257
  Beta virt. eigenvalues --   -0.19985  -0.19471  -0.18795  -0.17484  -0.15677
  Beta virt. eigenvalues --   -0.15125  -0.15102  -0.11813  -0.10930  -0.10585
  Beta virt. eigenvalues --   -0.09198  -0.09005  -0.07361  -0.06269  -0.05888
  Beta virt. eigenvalues --   -0.05150  -0.04901  -0.04689  -0.04068  -0.03811
  Beta virt. eigenvalues --   -0.03374  -0.03095  -0.02382  -0.02023  -0.01717
  Beta virt. eigenvalues --   -0.01471  -0.01326  -0.01300  -0.00723  -0.00408
  Beta virt. eigenvalues --   -0.00081   0.00103   0.00281   0.00598   0.00684
  Beta virt. eigenvalues --    0.01028   0.01313   0.01837   0.01910   0.02274
  Beta virt. eigenvalues --    0.02476   0.02976   0.03103   0.03474   0.03802
  Beta virt. eigenvalues --    0.03988   0.04396   0.04507   0.04793   0.05098
  Beta virt. eigenvalues --    0.05279   0.05562   0.05920   0.06257   0.06443
  Beta virt. eigenvalues --    0.06550   0.06682   0.06847   0.07130   0.07459
  Beta virt. eigenvalues --    0.07619   0.07876   0.07969   0.08233   0.08307
  Beta virt. eigenvalues --    0.08740   0.09008   0.09137   0.09235   0.09415
  Beta virt. eigenvalues --    0.09680   0.09844   0.10027   0.10112   0.10418
  Beta virt. eigenvalues --    0.10620   0.11394   0.11567   0.11708   0.12054
  Beta virt. eigenvalues --    0.12102   0.12413   0.12568   0.12899   0.13102
  Beta virt. eigenvalues --    0.13250   0.13568   0.13755   0.13842   0.13942
  Beta virt. eigenvalues --    0.14202   0.14271   0.14513   0.14560   0.14983
  Beta virt. eigenvalues --    0.15143   0.15459   0.15550   0.15858   0.15998
  Beta virt. eigenvalues --    0.16105   0.16302   0.16891   0.16982   0.17501
  Beta virt. eigenvalues --    0.17611   0.17910   0.17921   0.18047   0.18361
  Beta virt. eigenvalues --    0.18541   0.18575   0.18806   0.19104   0.19416
  Beta virt. eigenvalues --    0.19583   0.19661   0.19856   0.20493   0.20694
  Beta virt. eigenvalues --    0.20739   0.21055   0.21093   0.21625   0.21715
  Beta virt. eigenvalues --    0.22060   0.22297   0.22352   0.22541   0.22952
  Beta virt. eigenvalues --    0.23044   0.23331   0.23499   0.23790   0.24209
  Beta virt. eigenvalues --    0.24356   0.24535   0.24855   0.25130   0.25341
  Beta virt. eigenvalues --    0.25476   0.25896   0.26313   0.26414   0.26711
  Beta virt. eigenvalues --    0.26910   0.27325   0.27487   0.27645   0.27946
  Beta virt. eigenvalues --    0.28077   0.28275   0.28443   0.28779   0.29163
  Beta virt. eigenvalues --    0.29432   0.29617   0.29697   0.29905   0.30066
  Beta virt. eigenvalues --    0.30354   0.30501   0.30601   0.30743   0.30914
  Beta virt. eigenvalues --    0.31066   0.31177   0.31391   0.31712   0.32000
  Beta virt. eigenvalues --    0.32231   0.32402   0.32746   0.33018   0.33035
  Beta virt. eigenvalues --    0.33231   0.33503   0.33871   0.33959   0.33972
  Beta virt. eigenvalues --    0.34287   0.34597   0.34763   0.34998   0.35343
  Beta virt. eigenvalues --    0.35477   0.35624   0.35760   0.36031   0.36580
  Beta virt. eigenvalues --    0.36641   0.36814   0.37025   0.37210   0.37454
  Beta virt. eigenvalues --    0.37681   0.37826   0.38106   0.38298   0.38543
  Beta virt. eigenvalues --    0.38633   0.38928   0.39087   0.39297   0.39510
  Beta virt. eigenvalues --    0.39579   0.39755   0.40010   0.40102   0.40201
  Beta virt. eigenvalues --    0.40548   0.40777   0.40848   0.40917   0.41121
  Beta virt. eigenvalues --    0.41281   0.41614   0.41776   0.41960   0.42021
  Beta virt. eigenvalues --    0.42349   0.42674   0.42814   0.42953   0.43184
  Beta virt. eigenvalues --    0.43493   0.43790   0.43990   0.44250   0.44499
  Beta virt. eigenvalues --    0.44615   0.44711   0.44823   0.44940   0.45315
  Beta virt. eigenvalues --    0.45339   0.45642   0.45989   0.46082   0.46187
  Beta virt. eigenvalues --    0.46763   0.46876   0.47176   0.47427   0.47705
  Beta virt. eigenvalues --    0.47942   0.48120   0.48209   0.48469   0.48932
  Beta virt. eigenvalues --    0.49013   0.49274   0.49374   0.49593   0.49824
  Beta virt. eigenvalues --    0.50187   0.50320   0.50482   0.50790   0.51208
  Beta virt. eigenvalues --    0.51531   0.51768   0.51893   0.52264   0.52376
  Beta virt. eigenvalues --    0.52758   0.52795   0.52993   0.53427   0.53580
  Beta virt. eigenvalues --    0.53815   0.53959   0.54231   0.54412   0.54682
  Beta virt. eigenvalues --    0.54813   0.55078   0.55357   0.55549   0.55671
  Beta virt. eigenvalues --    0.55855   0.56463   0.56929   0.57107   0.57390
  Beta virt. eigenvalues --    0.57541   0.57800   0.58064   0.58514   0.58782
  Beta virt. eigenvalues --    0.58871   0.59179   0.59414   0.59625   0.59703
  Beta virt. eigenvalues --    0.59816   0.60011   0.60322   0.60418   0.60485
  Beta virt. eigenvalues --    0.60888   0.61138   0.61474   0.61824   0.61895
  Beta virt. eigenvalues --    0.62212   0.62531   0.62805   0.63140   0.63247
  Beta virt. eigenvalues --    0.63603   0.63725   0.64240   0.64334   0.64848
  Beta virt. eigenvalues --    0.65400   0.65531   0.65632   0.65925   0.66453
  Beta virt. eigenvalues --    0.66546   0.67002   0.67296   0.67606   0.67823
  Beta virt. eigenvalues --    0.67896   0.68156   0.68291   0.69050   0.69336
  Beta virt. eigenvalues --    0.69696   0.70044   0.70556   0.70610   0.70968
  Beta virt. eigenvalues --    0.71474   0.71801   0.72066   0.72260   0.72474
  Beta virt. eigenvalues --    0.72562   0.73307   0.73679   0.73929   0.74138
  Beta virt. eigenvalues --    0.74638   0.74772   0.75387   0.75634   0.75702
  Beta virt. eigenvalues --    0.75932   0.76176   0.76604   0.76948   0.77052
  Beta virt. eigenvalues --    0.77368   0.77567   0.77947   0.78191   0.78914
  Beta virt. eigenvalues --    0.79272   0.79582   0.79932   0.80104   0.80574
  Beta virt. eigenvalues --    0.80713   0.80928   0.81080   0.81472   0.81856
  Beta virt. eigenvalues --    0.82090   0.82310   0.82796   0.83077   0.83661
  Beta virt. eigenvalues --    0.83835   0.83995   0.84208   0.84733   0.84911
  Beta virt. eigenvalues --    0.85187   0.85487   0.85783   0.86019   0.86690
  Beta virt. eigenvalues --    0.86887   0.87066   0.87465   0.87761   0.88413
  Beta virt. eigenvalues --    0.88933   0.89073   0.89492   0.89755   0.89851
  Beta virt. eigenvalues --    0.89954   0.90378   0.90750   0.90941   0.91110
  Beta virt. eigenvalues --    0.91123   0.91540   0.92006   0.92373   0.92465
  Beta virt. eigenvalues --    0.92617   0.93061   0.93430   0.93487   0.94102
  Beta virt. eigenvalues --    0.94147   0.94453   0.94861   0.95121   0.95349
  Beta virt. eigenvalues --    0.95611   0.96212   0.96340   0.96745   0.97041
  Beta virt. eigenvalues --    0.97489   0.97637   0.98201   0.98516   0.98824
  Beta virt. eigenvalues --    0.98879   0.99370   0.99835   1.00155   1.00390
  Beta virt. eigenvalues --    1.00862   1.01246   1.01337   1.01571   1.01956
  Beta virt. eigenvalues --    1.02096   1.02407   1.02537   1.03217   1.03613
  Beta virt. eigenvalues --    1.04174   1.04386   1.04856   1.04971   1.05234
  Beta virt. eigenvalues --    1.05483   1.05778   1.06144   1.06447   1.07156
  Beta virt. eigenvalues --    1.07391   1.07736   1.07820   1.08213   1.08471
  Beta virt. eigenvalues --    1.09302   1.09486   1.09746   1.09942   1.10258
  Beta virt. eigenvalues --    1.10689   1.11153   1.11513   1.11767   1.12663
  Beta virt. eigenvalues --    1.12930   1.13247   1.13473   1.13499   1.14044
  Beta virt. eigenvalues --    1.14653   1.15087   1.15451   1.15634   1.16383
  Beta virt. eigenvalues --    1.17319   1.17387   1.17684   1.18037   1.18239
  Beta virt. eigenvalues --    1.18319   1.19193   1.19821   1.20110   1.21035
  Beta virt. eigenvalues --    1.21436   1.21991   1.22153   1.22247   1.22581
  Beta virt. eigenvalues --    1.23035   1.23150   1.24119   1.24277   1.24707
  Beta virt. eigenvalues --    1.25331   1.25496   1.25851   1.26132   1.26658
  Beta virt. eigenvalues --    1.26972   1.27350   1.27668   1.28100   1.28442
  Beta virt. eigenvalues --    1.28964   1.29029   1.29679   1.29746   1.29891
  Beta virt. eigenvalues --    1.30896   1.31262   1.31480   1.32096   1.32366
  Beta virt. eigenvalues --    1.32499   1.32905   1.33150   1.33985   1.34202
  Beta virt. eigenvalues --    1.34380   1.34839   1.35025   1.35263   1.35684
  Beta virt. eigenvalues --    1.36110   1.36562   1.37003   1.37025   1.37855
  Beta virt. eigenvalues --    1.38043   1.38665   1.38824   1.38870   1.39198
  Beta virt. eigenvalues --    1.39377   1.39629   1.40023   1.40240   1.40512
  Beta virt. eigenvalues --    1.40809   1.41100   1.41366   1.41806   1.41985
  Beta virt. eigenvalues --    1.42174   1.42438   1.42621   1.43207   1.43327
  Beta virt. eigenvalues --    1.43952   1.44126   1.44660   1.44778   1.45179
  Beta virt. eigenvalues --    1.45367   1.45702   1.45947   1.46671   1.46719
  Beta virt. eigenvalues --    1.47328   1.47647   1.47998   1.48327   1.48607
  Beta virt. eigenvalues --    1.48975   1.49142   1.49376   1.49627   1.49818
  Beta virt. eigenvalues --    1.49897   1.50103   1.50665   1.50719   1.51110
  Beta virt. eigenvalues --    1.51187   1.51766   1.52189   1.52304   1.52360
  Beta virt. eigenvalues --    1.52657   1.52822   1.52895   1.53366   1.53671
  Beta virt. eigenvalues --    1.54051   1.54515   1.54976   1.55007   1.55443
  Beta virt. eigenvalues --    1.55860   1.56056   1.56282   1.56589   1.57090
  Beta virt. eigenvalues --    1.57370   1.57688   1.57900   1.58049   1.58362
  Beta virt. eigenvalues --    1.58601   1.59077   1.59769   1.59962   1.60306
  Beta virt. eigenvalues --    1.60722   1.60838   1.61234   1.61485   1.62067
  Beta virt. eigenvalues --    1.62325   1.62765   1.62834   1.63764   1.63913
  Beta virt. eigenvalues --    1.64465   1.64614   1.64795   1.65108   1.65469
  Beta virt. eigenvalues --    1.65826   1.66049   1.66173   1.66191   1.66944
  Beta virt. eigenvalues --    1.67213   1.67590   1.67703   1.68114   1.68911
  Beta virt. eigenvalues --    1.69337   1.69537   1.69875   1.70117   1.70451
  Beta virt. eigenvalues --    1.70750   1.70906   1.71124   1.72013   1.72521
  Beta virt. eigenvalues --    1.73235   1.73448   1.73714   1.74066   1.74108
  Beta virt. eigenvalues --    1.74768   1.74778   1.75369   1.75493   1.75902
  Beta virt. eigenvalues --    1.76416   1.76628   1.76837   1.77610   1.77863
  Beta virt. eigenvalues --    1.77955   1.78849   1.78876   1.79647   1.80014
  Beta virt. eigenvalues --    1.80349   1.80969   1.81279   1.81428   1.81993
[...]
    29 C(13)  Bbb    -0.0061    -0.825    -0.294    -0.275 -0.3457  0.9208 -0.1803
              Bcc     0.0134     1.796     0.641     0.599  0.8796  0.3850  0.2795
 
              Baa    -0.0042    -0.562    -0.201    -0.188 -0.4861  0.8703  0.0790
    30 C(13)  Bbb     0.0011     0.144     0.051     0.048  0.8562  0.4924 -0.1566
              Bcc     0.0031     0.418     0.149     0.139  0.1752  0.0084  0.9845
 
              Baa    -0.0032    -0.423    -0.151    -0.141  0.4265 -0.1997  0.8822
    31 C(13)  Bbb    -0.0005    -0.069    -0.025    -0.023  0.7583 -0.4528 -0.4691
              Bcc     0.0037     0.492     0.175     0.164  0.4931  0.8690 -0.0417
 
              Baa    -0.0092    -1.238    -0.442    -0.413  0.9360 -0.3403 -0.0898
    32 C(13)  Bbb    -0.0043    -0.573    -0.205    -0.191  0.1230  0.0772  0.9894
              Bcc     0.0135     1.811     0.646     0.604  0.3297  0.9372 -0.1141
 
              Baa    -0.0015    -0.202    -0.072    -0.067 -0.4142  0.6357  0.6514
    33 C(13)  Bbb    -0.0002    -0.026    -0.009    -0.009  0.2362  0.7663 -0.5976
              Bcc     0.0017     0.228     0.081     0.076  0.8790  0.0936  0.4675
 
              Baa    -0.0025    -0.339    -0.121    -0.113  0.8878 -0.2927 -0.3551
    34 C(13)  Bbb    -0.0007    -0.092    -0.033    -0.031  0.3140  0.9494  0.0024
              Bcc     0.0032     0.431     0.154     0.144  0.3365 -0.1137  0.9348
 
              Baa    -0.0058    -0.779    -0.278    -0.260 -0.1788  0.7373 -0.6515
    35 C(13)  Bbb     0.0022     0.298     0.106     0.099  0.7626 -0.3145 -0.5653
              Bcc     0.0036     0.481     0.171     0.160  0.6217  0.5979  0.5060
 
              Baa    -0.0080    -1.079    -0.385    -0.360  0.8837  0.4680 -0.0067
    36 C(13)  Bbb    -0.0036    -0.480    -0.171    -0.160  0.1676 -0.3030  0.9381
              Bcc     0.0116     1.559     0.556     0.520 -0.4371  0.8301  0.3462
 
              Baa    -0.0021    -0.283    -0.101    -0.094  0.8925  0.4118  0.1839
    37 C(13)  Bbb    -0.0003    -0.045    -0.016    -0.015 -0.1224 -0.1712  0.9776
              Bcc     0.0024     0.328     0.117     0.109 -0.4341  0.8950  0.1024
 
              Baa    -0.0030    -0.397    -0.142    -0.132  0.3920  0.8949  0.2133
    38 C(13)  Bbb     0.0011     0.153     0.055     0.051  0.5625 -0.4166  0.7142
              Bcc     0.0018     0.244     0.087     0.081  0.7280 -0.1600 -0.6667
 
              Baa    -0.0078    -1.043    -0.372    -0.348  0.3780  0.8850  0.2719
    39 C(13)  Bbb    -0.0034    -0.454    -0.162    -0.152 -0.0265 -0.2832  0.9587
              Bcc     0.0112     1.498     0.534     0.500  0.9254 -0.3696 -0.0836
 
              Baa    -0.0007    -0.099    -0.035    -0.033  0.5689  0.3070  0.7630
    40 C(13)  Bbb    -0.0007    -0.089    -0.032    -0.030  0.6715  0.3621 -0.6465
              Bcc     0.0014     0.188     0.067     0.063 -0.4747  0.8801 -0.0001
 
              Baa    -0.0007    -0.096    -0.034    -0.032  0.4740  0.8616 -0.1816
    41 C(13)  Bbb    -0.0006    -0.078    -0.028    -0.026 -0.0109  0.2120  0.9772
              Bcc     0.0013     0.174     0.062     0.058  0.8804 -0.4613  0.1099
 
              Baa    -0.0007    -0.088    -0.031    -0.029  0.4206  0.8923  0.1642
    42 C(13)  Bbb    -0.0006    -0.077    -0.028    -0.026  0.0702 -0.2125  0.9746
              Bcc     0.0012     0.165     0.059     0.055  0.9045 -0.3984 -0.1520
 
              Baa    -0.0003    -0.043    -0.015    -0.014 -0.0850 -0.2767  0.9572
    43 C(13)  Bbb    -0.0003    -0.041    -0.015    -0.014  0.3429  0.8939  0.2888
              Bcc     0.0006     0.084     0.030     0.028  0.9355 -0.3527 -0.0189
 
              Baa    -0.0003     0.020     0.007     0.007 -0.0266 -0.5211  0.8531
    44 O(17)  Bbb    -0.0002     0.014     0.005     0.005  0.2497  0.8228  0.5105
              Bcc     0.0005    -0.034    -0.012    -0.011  0.9680 -0.2266 -0.1083
 
              Baa    -0.0003     0.020     0.007     0.007 -0.2269 -0.2504  0.9412
    45 O(17)  Bbb    -0.0002     0.018     0.006     0.006  0.3356  0.8871  0.3169
              Bcc     0.0005    -0.038    -0.014    -0.013  0.9143 -0.3878  0.1172
 
              Baa    -0.0427    -1.648    -0.588    -0.550  0.6036  0.5076  0.6148
    46 N(14)  Bbb     0.0103     0.397     0.142     0.132 -0.3994  0.8599 -0.3179
              Bcc     0.0325     1.252     0.447     0.417 -0.6901 -0.0537  0.7218
 
              Baa    -0.0425    -1.640    -0.585    -0.547  0.7093 -0.5718 -0.4123
    47 N(14)  Bbb     0.0143     0.550     0.196     0.183  0.2691 -0.3209  0.9081
              Bcc     0.0283     1.090     0.389     0.364  0.6515  0.7550  0.0737
 
              Baa    -0.0408    -1.573    -0.561    -0.525  0.6040  0.6649 -0.4394
    48 N(14)  Bbb     0.0140     0.541     0.193     0.180  0.7937 -0.4522  0.4068
              Bcc     0.0268     1.032     0.368     0.344 -0.0718  0.5945  0.8009
 
              Baa    -0.0346    -1.336    -0.477    -0.445 -0.5156  0.6083 -0.6034
    49 N(14)  Bbb     0.0144     0.554     0.198     0.185 -0.2426  0.5718  0.7837
              Bcc     0.0203     0.781     0.279     0.261  0.8217  0.5505 -0.1473
 
              Baa    -2.3248   -40.249   -14.362   -13.426  0.2004 -0.2918  0.9352
    50 Fe(57) Bbb     0.8347    14.452     5.157     4.821 -0.1370  0.9369  0.3217
              Bcc     1.4901    25.797     9.205     8.605  0.9701  0.1926 -0.1477
 
              Baa    -0.7291    52.761    18.826    17.599 -0.2452 -0.4175  0.8750
    51 O(17)  Bbb     0.3484   -25.211    -8.996    -8.409 -0.1716  0.9070  0.3846
              Bcc     0.3807   -27.550    -9.831    -9.190  0.9542  0.0558  0.2941
 
              Baa    -0.0009    -0.501    -0.179    -0.167  0.9829  0.1127  0.1457
    52 H(1)   Bbb    -0.0009    -0.469    -0.167    -0.157 -0.1738  0.8296  0.5307
              Bcc     0.0018     0.970     0.346     0.324 -0.0611 -0.5469  0.8350
 
              Baa    -0.0008    -0.411    -0.147    -0.137  0.1894  0.9090  0.3712
    53 H(1)   Bbb    -0.0007    -0.387    -0.138    -0.129  0.9437 -0.2729  0.1868
              Bcc     0.0015     0.799     0.285     0.266 -0.2711 -0.3149  0.9096
 
              Baa    -0.0008    -0.409    -0.146    -0.136 -0.5636  0.7881  0.2473
    54 H(1)   Bbb    -0.0007    -0.380    -0.135    -0.127  0.8250  0.5523  0.1202
              Bcc     0.0015     0.789     0.281     0.263  0.0418 -0.2717  0.9615
 
              Baa    -0.0047    -2.520    -0.899    -0.840  0.9981 -0.0264 -0.0558
    55 H(1)   Bbb    -0.0045    -2.404    -0.858    -0.802  0.0587  0.6860  0.7252
              Bcc     0.0092     4.924     1.757     1.642 -0.0192  0.7271 -0.6862
 
              Baa    -0.0062    -3.332    -1.189    -1.111  0.9720  0.0374  0.2321
    56 H(1)   Bbb    -0.0061    -3.273    -1.168    -1.092  0.1115  0.7958 -0.5953
              Bcc     0.0124     6.605     2.357     2.203 -0.2069  0.6045  0.7693
 
              Baa    -0.1366   -72.882   -26.006   -24.311 -0.0050  0.9670  0.2547
    57 H(1)   Bbb    -0.1303   -69.521   -24.807   -23.190  0.9991  0.0157 -0.0397
              Bcc     0.2669   142.402    50.813    47.500  0.0424 -0.2543  0.9662
 
              Baa    -0.0019    -1.020    -0.364    -0.340 -0.0971 -0.1030  0.9899
    58 H(1)   Bbb    -0.0014    -0.762    -0.272    -0.254 -0.0084  0.9947  0.1026
              Bcc     0.0033     1.782     0.636     0.594  0.9952 -0.0016  0.0975
 
              Baa    -0.0017    -0.899    -0.321    -0.300 -0.2629  0.0867  0.9609
    59 H(1)   Bbb    -0.0015    -0.820    -0.293    -0.273  0.9648  0.0276  0.2615
              Bcc     0.0032     1.719     0.613     0.573 -0.0038  0.9959 -0.0909
 
              Baa    -0.0019    -1.025    -0.366    -0.342  0.0934  0.8818 -0.4623
    60 H(1)   Bbb    -0.0019    -1.008    -0.360    -0.336 -0.1488  0.4715  0.8692
              Bcc     0.0038     2.034     0.726     0.678  0.9844 -0.0124  0.1753
 
              Baa    -0.0018    -0.973    -0.347    -0.325 -0.1236 -0.1769  0.9764
    61 H(1)   Bbb    -0.0014    -0.754    -0.269    -0.251  0.9910  0.0291  0.1307
              Bcc     0.0032     1.727     0.616     0.576 -0.0515  0.9838  0.1717
 
              Baa    -0.0008    -0.442    -0.158    -0.147  0.1909  0.0477  0.9804
    62 H(1)   Bbb    -0.0007    -0.397    -0.141    -0.132  0.9320 -0.3225 -0.1658
              Bcc     0.0016     0.838     0.299     0.280  0.3082  0.9454 -0.1060
 
              Baa    -0.0007    -0.377    -0.134    -0.126 -0.0577 -0.1580  0.9857
    63 H(1)   Bbb    -0.0007    -0.353    -0.126    -0.118  0.9011 -0.4332 -0.0167
              Bcc     0.0014     0.730     0.260     0.244  0.4297  0.8873  0.1674
 
              Baa    -0.0007    -0.354    -0.126    -0.118 -0.3247  0.3259  0.8879
    64 H(1)   Bbb    -0.0006    -0.316    -0.113    -0.105  0.7678 -0.4574  0.4487
              Bcc     0.0013     0.671     0.239     0.224  0.5523  0.8274 -0.1017
 
              Baa    -0.0010    -0.513    -0.183    -0.171 -0.0623 -0.1296  0.9896
    65 H(1)   Bbb    -0.0009    -0.477    -0.170    -0.159 -0.2888  0.9514  0.1065
              Bcc     0.0019     0.990     0.353     0.330  0.9554  0.2792  0.0967
 
              Baa    -0.0007    -0.361    -0.129    -0.121 -0.0700 -0.1403  0.9876
    66 H(1)   Bbb    -0.0006    -0.317    -0.113    -0.106 -0.5438  0.8354  0.0801
              Bcc     0.0013     0.679     0.242     0.226  0.8363  0.5315  0.1348
 
              Baa    -0.0005    -0.282    -0.101    -0.094  0.3679 -0.1559  0.9167
    67 H(1)   Bbb    -0.0005    -0.266    -0.095    -0.089 -0.4692  0.8201  0.3277
              Bcc     0.0010     0.548     0.196     0.183  0.8028  0.5506 -0.2286
 
              Baa    -0.0007    -0.393    -0.140    -0.131  0.3358 -0.0491  0.9406
    68 H(1)   Bbb    -0.0007    -0.359    -0.128    -0.120 -0.2797  0.9484  0.1494
              Bcc     0.0014     0.753     0.269     0.251  0.8994  0.3132 -0.3048
 
              Baa    -0.0006    -0.322    -0.115    -0.108  0.0983  0.2372  0.9665
    69 H(1)   Bbb    -0.0005    -0.285    -0.102    -0.095  0.8470  0.4899 -0.2064
              Bcc     0.0011     0.608     0.217     0.203 -0.5225  0.8389 -0.1527
 
              Baa    -0.0007    -0.356    -0.127    -0.119 -0.0001 -0.1229  0.9924
    70 H(1)   Bbb    -0.0006    -0.320    -0.114    -0.107  0.8523  0.5191  0.0644
              Bcc     0.0013     0.675     0.241     0.225 -0.5231  0.8458  0.1046
 
              Baa    -0.0008    -0.426    -0.152    -0.142  0.9341  0.3410  0.1055
    71 H(1)   Bbb    -0.0008    -0.413    -0.148    -0.138 -0.1151  0.0081  0.9933
              Bcc     0.0016     0.839     0.299     0.280 -0.3378  0.9400 -0.0468
 
              Baa    -0.0009    -0.495    -0.177    -0.165  0.3051  0.9364 -0.1735
    72 H(1)   Bbb    -0.0009    -0.483    -0.173    -0.161 -0.0175  0.1877  0.9821
              Bcc     0.0018     0.979     0.349     0.326  0.9522 -0.2966  0.0737
 
              Baa    -0.0004    -0.227    -0.081    -0.076  0.6402  0.7414 -0.2012
    73 H(1)   Bbb    -0.0004    -0.219    -0.078    -0.073  0.0993  0.1798  0.9787
              Bcc     0.0008     0.446     0.159     0.149  0.7618 -0.6465  0.0415
 
              Baa    -0.0003    -0.183    -0.065    -0.061  0.3762  0.7671  0.5196
    74 H(1)   Bbb    -0.0003    -0.175    -0.063    -0.058 -0.2704 -0.4455  0.8535
              Bcc     0.0007     0.359     0.128     0.120  0.8862 -0.4615  0.0398
 
              Baa    -0.0006    -0.345    -0.123    -0.115 -0.5346  0.6979  0.4766
    75 H(1)   Bbb    -0.0005    -0.273    -0.098    -0.091  0.1148 -0.4987  0.8591
              Bcc     0.0012     0.619     0.221     0.206  0.8372  0.5140  0.1865
 
              Baa    -0.0009    -0.463    -0.165    -0.155  0.0001 -0.5873  0.8093
    76 H(1)   Bbb    -0.0007    -0.373    -0.133    -0.124  0.6351 -0.6251 -0.4537
              Bcc     0.0016     0.836     0.298     0.279  0.7724  0.5141  0.3730
 
              Baa    -0.0011    -0.568    -0.203    -0.190 -0.3988  0.8156 -0.4193
    77 H(1)   Bbb    -0.0008    -0.443    -0.158    -0.148 -0.2362  0.3504  0.9063
              Bcc     0.0019     1.012     0.361     0.337  0.8861  0.4605  0.0529
 
              Baa    -0.0009    -0.462    -0.165    -0.154 -0.3718 -0.3003  0.8784
    78 H(1)   Bbb    -0.0007    -0.357    -0.127    -0.119  0.9094 -0.3076  0.2798
              Bcc     0.0015     0.819     0.292     0.273  0.1862  0.9029  0.3875
 
              Baa    -0.0006    -0.319    -0.114    -0.106  0.0241 -0.2272  0.9736
    79 H(1)   Bbb    -0.0002    -0.095    -0.034    -0.032  0.7580 -0.6308 -0.1660
              Bcc     0.0008     0.414     0.148     0.138  0.6519  0.7419  0.1570
 
              Baa    -0.0009    -0.458    -0.164    -0.153  0.7566 -0.5677 -0.3245
    80 H(1)   Bbb    -0.0005    -0.245    -0.087    -0.082  0.1030 -0.3866  0.9165
              Bcc     0.0013     0.703     0.251     0.234  0.6458  0.7268  0.2341
 
              Baa    -0.0006    -0.336    -0.120    -0.112 -0.5009 -0.4015  0.7667
    81 H(1)   Bbb    -0.0006    -0.312    -0.111    -0.104  0.6471  0.4145  0.6399
              Bcc     0.0012     0.648     0.231     0.216 -0.5748  0.8167  0.0522
 
              Baa    -0.0007    -0.385    -0.137    -0.128 -0.4658 -0.0523  0.8833
    82 H(1)   Bbb    -0.0007    -0.365    -0.130    -0.122  0.7589  0.4896  0.4293
              Bcc     0.0014     0.750     0.268     0.250 -0.4550  0.8704 -0.1884
 
              Baa    -0.0008    -0.425    -0.152    -0.142  0.8075  0.2624  0.5284
    83 H(1)   Bbb    -0.0008    -0.420    -0.150    -0.140 -0.4790 -0.2312  0.8468
              Bcc     0.0016     0.845     0.302     0.282 -0.3443  0.9369  0.0610
 
              Baa    -0.0007    -0.355    -0.127    -0.119  0.5811  0.6215 -0.5255
    84 H(1)   Bbb    -0.0006    -0.329    -0.117    -0.110  0.1883  0.5255  0.8297
              Bcc     0.0013     0.684     0.244     0.228  0.7918 -0.5811  0.1883
 
              Baa    -0.0009    -0.469    -0.167    -0.156  0.0159  0.6029  0.7976
    85 H(1)   Bbb    -0.0008    -0.451    -0.161    -0.151  0.3911  0.7304 -0.5599
              Bcc     0.0017     0.920     0.328     0.307  0.9202 -0.3209  0.2242
 
              Baa    -0.0007    -0.376    -0.134    -0.125  0.2211  0.1213  0.9677
    86 H(1)   Bbb    -0.0007    -0.359    -0.128    -0.120  0.2601  0.9490 -0.1784
              Bcc     0.0014     0.735     0.262     0.245  0.9399 -0.2911 -0.1783
 
              Baa    -0.0005    -0.273    -0.097    -0.091 -0.0991 -0.4051  0.9089
    87 H(1)   Bbb    -0.0005    -0.255    -0.091    -0.085  0.5563  0.7347  0.3882
              Bcc     0.0010     0.528     0.188     0.176  0.8250 -0.5441 -0.1526
 
              Baa    -0.0357   -19.031    -6.791    -6.348  0.5913  0.7896  0.1640
    88 H(1)   Bbb     0.0121     6.438     2.297     2.148  0.7962 -0.6039  0.0372
              Bcc     0.0236    12.593     4.493     4.201 -0.1284 -0.1085  0.9858
 
              Baa    -0.0002    -0.094    -0.034    -0.031  0.1667 -0.1348  0.9768
    89 H(1)   Bbb    -0.0002    -0.092    -0.033    -0.031 -0.4087  0.8921  0.1928
              Bcc     0.0003     0.186     0.066     0.062  0.8973  0.4314 -0.0936
 
              Baa    -0.0002    -0.107    -0.038    -0.036 -0.2139 -0.2193  0.9519
    90 H(1)   Bbb    -0.0002    -0.106    -0.038    -0.035  0.4192  0.8596  0.2922
              Bcc     0.0004     0.213     0.076     0.071  0.8823 -0.4616  0.0920
 

 ---------------------------------------------------------------------------------

 1\1\GINC-NODE383\SP\UPBE1PBE\def2TZVP\C38H40Fe1N6O5(1+,2)\KLEICH\23-Se
 p-2022\0\\# PBE1PBE/def2TZVP empiricaldispersion=GD3BJ int=(grid=ultra
 fine) geom=check guess=read scrf=(smd,solvent=Chloroform)\\1ccc_III_D_
 solv\\1,2\C,0,-9.179,55.032,107.752\C,0,-8.656,55.674,109.047\N,0,-9.3
 37,56.251,110.028\C,0,-7.346,55.781,109.43\C,0,-8.517,56.656,110.967\N
 ,0,-7.296,56.371,110.601\H,0,-10.269,56.52,109.992\C,0,-5.551,53.892,1
 12.957\C,0,-7.582,57.995,114.479\C,0,-6.051,60.051,110.455\C,0,-3.606,
 56.143,109.236\C,0,-6.256,54.818,113.741\C,0,-6.747,54.522,114.978\C,0
 ,-7.371,55.7,115.428\C,0,-7.164,56.651,114.442\C,0,-8.086,55.956,116.7
 62\C,0,-6.553,53.157,115.632\C,0,-5.476,53.072,116.681\C,0,-5.338,51.6
 76,117.3\O,0,-6.184,51.244,118.071\O,0,-4.374,50.963,117.069\C,0,-7.43
 9,58.947,113.445\C,0,-8.009,60.231,113.431\C,0,-7.608,60.79,112.216\C,
 0,-6.791,59.833,111.615\C,0,-8.955,60.766,114.492\C,0,-7.873,62.019,11
 1.592\C,0,-8.696,63.097,112.034\C,0,-5.174,59.214,109.761\C,0,-4.391,5
 9.621,108.681\C,0,-3.586,58.503,108.416\C,0,-4.037,57.471,109.254\C,0,
 -4.411,61.018,108.022\C,0,-2.583,58.321,107.461\C,0,-2.38,59.068,106.2
 26\C,0,-3.969,55.112,110.1\C,0,-3.707,53.769,109.892\C,0,-4.284,53.11,
 110.969\C,0,-4.859,54.103,111.761\C,0,-2.951,53.119,108.756\C,0,-4.239
 ,51.602,111.251\C,0,-3.022,51.189,112.088\C,0,-3.017,49.736,112.53\O,0
 ,-2.521,49.411,113.591\O,0,-3.525,48.903,111.799\N,0,-6.505,56.102,113
 .416\N,0,-6.791,58.703,112.305\N,0,-4.982,57.915,110.076\N,0,-4.679,55
 .3,111.215\Fe,0,-5.764,57.006,111.726\O,0,-4.379,57.565,112.833\H,0,-8
 .35221418,54.70205231,107.15831681\H,0,-9.74843124,55.75169565,107.201
 83071\H,0,-9.80042008,54.19534946,107.99439011\H,0,-6.50222091,55.4398
 5069,108.86736868\H,0,-8.80002549,57.13850381,111.87913302\H,0,-6.4662
 6491,56.56837267,111.1230955\H,0,-5.54191748,52.88729231,113.32494017\
 H,0,-8.0546801,58.32828693,115.3792185\H,0,-6.17518396,61.02216626,110
 .02335843\H,0,-2.91158813,55.88546597,108.46375109\H,0,-8.06544698,57.
 00282325,116.98254174\H,0,-9.10146998,55.62624303,116.69142337\H,0,-7.
 58947722,55.41737975,117.54190599\H,0,-6.23223956,52.50842686,114.8437
 3252\H,0,-7.46833274,52.95825756,116.14926919\H,0,-5.78874862,53.71625
 337,117.47600056\H,0,-4.55408588,53.25983125,116.17139842\H,0,-8.59840
 514,61.71152394,114.84374506\H,0,-9.93123472,60.88714947,114.07106227\
 H,0,-9.00180482,60.07622713,115.30865335\H,0,-7.38829785,62.16872181,1
 10.64990276\H,0,-9.21573368,63.02576938,112.96657874\H,0,-8.79360744,6
 3.97684997,111.4329702\H,0,-4.24617281,61.32907016,107.01157071\H,0,-3
 .36917314,60.79140974,107.93170244\H,0,-5.2741464,60.58800982,107.5583
 3337\H,0,-1.87950984,57.53968958,107.65988598\H,0,-1.39199029,59.47865
 043,106.21584894\H,0,-3.09632064,59.86063763,106.16675208\H,0,-2.27070
 695,52.39293861,109.14961938\H,0,-3.64273715,52.63865513,108.0959481\H
 ,0,-2.40436718,53.86525723,108.2182336\H,0,-4.11918378,51.12654952,110
 .29995273\H,0,-5.09797137,51.3875604,111.85190253\H,0,-3.08266803,51.7
 6404687,112.98830022\H,0,-2.17690898,51.296339,111.44054381\H,0,-3.707
 34244,58.00580102,112.30748066\H,0,-5.91534555,50.79349188,118.8750318
 5\H,0,-2.9692385,48.31464982,111.2826927\\Version=ES64L-G16RevA.03\Sta
 te=2-A\HF=-3438.0270776\S2=0.828249\S2-1=0.\S2A=0.752693\RMSD=1.653e-0
 9\Dipole=-5.8582503,0.425134,-4.2824489\Quadrupole=5.245727,-25.013574
 9,19.7678479,-4.5139241,-15.1117378,16.1105831\PG=C01 [X(C38H40Fe1N6O5
 )]\\@


 LORD, MAN... WERE YE BUT WHYLES WHERE I AM, 
 THE GENTILES YE WAD NE'ER ENVY 'EM.        
 IT'S TRUE, THEY NEEDNA STARVE OR SWEAT,     
 THRO' WINTER'S CAULD OR SIMMER'S HEAT...  
 THEY'VE NAE SAIR WARK TO CRAZE THEIR BANES, 
 AND FILL AULD AGE WITH GRIPS AN' GRANES...  
                                             
 BUT HUMAN BODIES ARE SIC FOOLS              
 FOR A' THEIR COLLEGES AND SCHOOLS,           
 THAT WHEN NAE REAL ILLS PERPLEX THEM,       
 THEY MAK ENOW THEMSELVES TO VEX THEM,       
 AN' AYE THE LESS THEY HAE TO STURT THEM,    
 IN LIKE PROPORTION LESS WILL HURT THEM....  
                                             
                (ROBERT BURNS 'THE TWA DOGS')
 Job cpu time:       6 days  3 hours 33 minutes 58.8 seconds.
 Elapsed time:       1 days 13 hours  3 minutes 51.2 seconds.
 File lengths (MBytes):  RWF=   3695 Int=      0 D2E=      0 Chk=    262 Scr=      1
 Normal termination of Gaussian 16 at Fri Sep 23 08:44:53 2022.
