 Entering Gaussian System, Link 0=g16
 Input=/net/work/kleich/bench/splitthejobs/7abb/7abb01/7abb01.com
 Output=/net/work/kleich/bench/splitthejobs/7abb/7abb01/7abb01.log
 Initial command:
 /afs/math/software/gaussian/g16.A03/g16/l1.exe "/scratch/kleich_gaussian.SpPQBXn/Gau-15392.inp" -scrdir="/scratch/kleich_gaussian.SpPQBXn/"
 Entering Link 1 = /afs/math/software/gaussian/g16.A03/g16/l1.exe PID=     15393.
  
 Copyright (c) 1988,1990,1992,1993,1995,1998,2003,2009,2016,
            Gaussian, Inc.  All Rights Reserved.
  
 This is part of the Gaussian(R) 16 program.  It is based on
 the Gaussian(R) 09 system (copyright 2009, Gaussian, Inc.),
 the Gaussian(R) 03 system (copyright 2003, Gaussian, Inc.),
 the Gaussian(R) 98 system (copyright 1998, Gaussian, Inc.),
 the Gaussian(R) 94 system (copyright 1995, Gaussian, Inc.),
 the Gaussian 92(TM) system (copyright 1992, Gaussian, Inc.),
 the Gaussian 90(TM) system (copyright 1990, Gaussian, Inc.),
 the Gaussian 88(TM) system (copyright 1988, Gaussian, Inc.),
 the Gaussian 86(TM) system (copyright 1986, Carnegie Mellon
 University), and the Gaussian 82(TM) system (copyright 1983,
 Carnegie Mellon University). Gaussian is a federally registered
 trademark of Gaussian, Inc.
  
 This software contains proprietary and confidential information,
 including trade secrets, belonging to Gaussian, Inc.
  
 This software is provided under written license and may be
 used, copied, transmitted, or stored only in accord with that
 written license.
  
 The following legend is applicable only to US Government
 contracts under FAR:
  
                    RESTRICTED RIGHTS LEGEND
  
 Use, reproduction and disclosure by the US Government is
 subject to restrictions as set forth in subparagraphs (a)
 and (c) of the Commercial Computer Software - Restricted
 Rights clause in FAR 52.227-19.
  
 Gaussian, Inc.
 340 Quinnipiac St., Bldg. 40, Wallingford CT 06492
  
  
 ---------------------------------------------------------------
 Warning -- This program may not be used in any manner that
 competes with the business of Gaussian, Inc. or will provide
 assistance to any competitor of Gaussian, Inc.  The licensee
 of this program is prohibited from giving any competitor of
 Gaussian, Inc. access to this program.  By using this program,
 the user acknowledges that Gaussian, Inc. is engaged in the
 business of creating and licensing software in the field of
 computational chemistry and represents and warrants to the
 licensee that it is not a competitor of Gaussian, Inc. and that
 it will not use this program in any manner prohibited above.
 ---------------------------------------------------------------
  

 Cite this work as:
 Gaussian 16, Revision A.03,
 M. J. Frisch, G. W. Trucks, H. B. Schlegel, G. E. Scuseria, 
 M. A. Robb, J. R. Cheeseman, G. Scalmani, V. Barone, 
 G. A. Petersson, H. Nakatsuji, X. Li, M. Caricato, A. V. Marenich, 
 J. Bloino, B. G. Janesko, R. Gomperts, B. Mennucci, H. P. Hratchian, 
 J. V. Ortiz, A. F. Izmaylov, J. L. Sonnenberg, D. Williams-Young, 
 F. Ding, F. Lipparini, F. Egidi, J. Goings, B. Peng, A. Petrone, 
 T. Henderson, D. Ranasinghe, V. G. Zakrzewski, J. Gao, N. Rega, 
 G. Zheng, W. Liang, M. Hada, M. Ehara, K. Toyota, R. Fukuda, 
 J. Hasegawa, M. Ishida, T. Nakajima, Y. Honda, O. Kitao, H. Nakai, 
 T. Vreven, K. Throssell, J. A. Montgomery, Jr., J. E. Peralta, 
 F. Ogliaro, M. J. Bearpark, J. J. Heyd, E. N. Brothers, K. N. Kudin, 
 V. N. Staroverov, T. A. Keith, R. Kobayashi, J. Normand, 
 K. Raghavachari, A. P. Rendell, J. C. Burant, S. S. Iyengar, 
 J. Tomasi, M. Cossi, J. M. Millam, M. Klene, C. Adamo, R. Cammi, 
 J. W. Ochterski, R. L. Martin, K. Morokuma, O. Farkas, 
 J. B. Foresman, and D. J. Fox, Gaussian, Inc., Wallingford CT, 2016.
 
 ******************************************
 Gaussian 16:  ES64L-G16RevA.03 25-Dec-2016
                11-Sep-2022 
 ******************************************
 %nprocs=12
 Will use up to   12 processors via shared memory.
 %mem=16GB
 %chk=7abb_II_S.chk
 ----------------------------------------------------------------------
 # PBE1PBE/def2TZVP empiricaldispersion=GD3BJ int=(grid=ultrafine) geom
 =check guess=read pop=nbo
 ----------------------------------------------------------------------
 1/29=2,38=1,172=1/1;
 2/12=2,40=1/2;
 3/5=44,7=101,11=2,14=-4,25=1,30=1,74=-13,75=-5,116=-2,124=41/1,2,3;
 4/5=1/1;
 5/5=2,38=6/2;
 6/7=2,8=2,9=2,10=2,28=1,40=1/1,7;
 99/5=1,9=1/99;
 -------------
 7abb_II_S_nbo
 -------------
 Structure from the checkpoint file:  "7abb_II_S.chk"
 Charge =  0 Multiplicity = 1
 Z-Matrix found in chk file.
 C,0,19.013,33.007,0.
 S,0,17.62,31.94,-0.421
 H,0,19.81865645,32.82697525,-0.68074134
 H,0,19.33539499,32.7954738,0.99810728
 Fe,0,17.27331395,31.37270864,-2.48664501
 C,0,18.753,34.761,-3.605
 C,0,20.928,30.569,-2.703
 C,0,16.619,28.513,-1.706
 C,0,14.422,32.593,-3.008
 N,0,19.451,32.483,-3.087
 C,0,19.714,33.814,-3.411
 C,0,21.136,34.059,-3.537
 C,0,21.722,32.878,-3.27
 C,0,20.699,31.899,-2.995
 C,0,23.225,32.546,-3.277
 C,0,21.834,35.427,-3.866
 C,0,22.008,35.691,-5.356
 C,0,22.739,37.007,-5.561
 O,0,22.829,37.384,-6.752
 O,0,23.192,37.61,-4.553
 N,0,18.581,29.871,-2.336
 C,0,19.945,29.644,-2.353
 C,0,20.162,28.294,-1.927
 C,0,18.973,27.739,-1.629
 C,0,17.963,28.702,-1.902
 C,0,21.586,27.712,-1.824
 C,0,18.56,26.368,-1.159
 C,0,19.643,25.496,-0.611
 N,0,15.858,30.73,-2.443
 C,0,15.657,29.463,-1.945
 C,0,14.248,29.26,-1.738
 C,0,13.604,30.396,-2.089
 C,0,14.618,31.315,-2.552
 C,0,13.652,27.967,-1.178
 C,0,12.107,30.747,-2.11
 C,0,11.13,29.935,-1.26
 N,0,16.783,33.33,-3.227
 C,0,15.399,33.495,-3.284
 C,0,15.133,34.842,-3.68
 C,0,16.438,35.53,-3.875
 C,0,17.419,34.518,-3.549
 C,0,13.737,35.445,-3.881
 C,0,16.692,36.984,-4.309
 C,0,16.819,37.819,-3.058
 C,0,17.174,39.248,-3.421
 O,0,17.04,40.138,-2.554
 O,0,17.585,39.463,-4.579
 H,0,19.045,35.677,-3.797
 H,0,21.854,30.25,-2.744
 H,0,16.324,27.639,-1.373
 H,0,13.495,32.881,-3.147
 H,0,23.496,32.239,-2.387
 H,0,23.735,33.348,-3.515
 H,0,23.4,31.841,-3.935
 H,0,22.709,35.435,-3.447
 H,0,21.303,36.144,-3.486
 H,0,21.136,35.736,-5.78
 H,0,22.522,34.971,-5.754
 H,0,21.665,26.946,-2.414
 H,0,21.757,27.436,-0.91
 H,0,22.231,28.388,-2.083
 H,0,18.11075906,25.85713126,-1.98489086
 H,0,20.317,25.351,-1.294
 H,0,19.267,24.644,-0.341
 H,0,20.049,25.929,0.157
 H,0,13.04,27.586,-1.827
 H,0,13.174,28.16,-0.357
 H,0,14.365,27.335,-0.997
 H,0,12.01595685,31.76985339,-1.80936387
 H,0,10.686,30.522,-0.628
 H,0,11.615,29.248,-0.777
 H,0,10.468,29.52,-1.835
 H,0,13.617,36.201,-3.27
 H,0,13.057,34.764,-3.696
 H,0,13.646,35.755,-4.806
 H,0,15.948,37.303,-4.843
 H,0,17.513,37.036,-4.824
 H,0,17.515,37.448,-2.494
 H,0,15.976,37.809,-2.578
 H,0,23.69272672,37.51045236,-7.15148211
 H,0,18.52811134,39.49572655,-4.75526675
 H,0,11.77832945,30.67761529,-3.12590424
 H,0,17.81714643,26.48941115,-0.39852126
 H,0,18.71094992,34.03124546,-0.06772734
 H,0,16.81801705,31.50785892,0.52036998
 Recover connectivity data from disk.
 Stoichiometry    C35H40FeN4O4S
 Framework group  C1[X(C35H40FeN4O4S)]
 Deg. of freedom   249
 Full point group                 C1      NOp   1
 Largest Abelian subgroup         C1      NOp   1
 Largest concise Abelian subgroup C1      NOp   1
                         Standard orientation:                         
 ---------------------------------------------------------------------
 Center     Atomic      Atomic             Coordinates (Angstroms)
 Number     Number       Type             X           Y           Z
 ---------------------------------------------------------------------
      1          6           0       -0.046732   -0.771680    2.872277
      2         16           0       -1.374019    0.097309    2.012425
      3          1           0        0.289432   -1.591873    2.272962
      4          1           0       -0.409708   -1.139714    3.809134
      5         26           0       -1.393013    0.175637   -0.156078
      6          6           0        2.469015    0.105011   -0.134809
      7          6           0       -0.702768   -3.508412   -0.127255
      8          6           0       -4.387103   -0.315051   -0.256680
      9          6           0       -1.204393    3.271073   -0.679160
     10          7           0        0.560297   -1.411816   -0.163794
     11          6           0        1.927066   -1.144679   -0.084506
     12          6           0        2.700368   -2.363466    0.036107
     13          6           0        1.793213   -3.356639    0.047244
     14          6           0        0.473821   -2.787405   -0.078344
     15          6           0        2.051625   -4.871381    0.137036
     16          6           0        4.260308   -2.483431    0.174182
     17          6           0        4.996020   -2.558529   -1.157418
     18          6           0        6.485577   -2.727630   -0.910710
     19          8           0        7.202252   -2.678361   -1.936702
     20          8           0        6.886589   -2.901902    0.269841
     21          7           0       -2.285205   -1.608310   -0.252991
     22          6           0       -1.981957   -2.954429   -0.161782
     23          6           0       -3.220073   -3.670605   -0.089486
     24          6           0       -4.232574   -2.784444   -0.100024
     25          6           0       -3.671135   -1.484246   -0.227574
     26          6           0       -3.243681   -5.207673    0.028720
     27          6           0       -5.732514   -2.927017   -0.069017
     28          6           0       -6.267946   -4.256441    0.354683
     29          7           0       -2.490748    1.233963   -0.461067
     30          6           0       -3.829611    0.936224   -0.349303
     31          6           0       -4.584944    2.160107   -0.379665
     32          6           0       -3.713975    3.188509   -0.490274
     33          6           0       -2.395456    2.602370   -0.561507
     34          6           0       -6.109437    2.217437   -0.264343
     35          6           0       -3.945168    4.704736   -0.600992
     36          6           0       -5.269714    5.302264   -0.126744
     37          7           0        0.373989    1.374724   -0.399832
     38          6           0        0.030492    2.714569   -0.580823
     39          6           0        1.239206    3.475123   -0.631299
     40          6           0        2.381195    2.534373   -0.472415
     41          6           0        1.750275    1.242614   -0.310919
     42          6           0        1.320466    4.993381   -0.834072
     43          6           0        3.885682    2.856041   -0.466407
     44          6           0        4.300751    3.074676    0.968261
     45          6           0        5.799170    3.294304    1.047876
     46          8           0        6.280523    3.770718    2.098150
     47          8           0        6.480444    2.985312    0.049627
     48          1           0        3.441085    0.186790   -0.036949
     49          1           0       -0.633804   -4.486192   -0.137642
     50          1           0       -5.364731   -0.376313   -0.208931
     51          1           0       -1.248058    4.235840   -0.849197
     52          1           0        1.617417   -5.230010    0.938683
     53          1           0        3.016294   -5.035195    0.187300
     54          1           0        1.687021   -5.311970   -0.658928
     55          1           0        4.463806   -3.282984    0.684627
     56          1           0        4.587267   -1.712837    0.663807
     57          1           0        4.841886   -1.741358   -1.658077
     58          1           0        4.665500   -3.314794   -1.667143
     59          1           0       -3.717274   -5.582474   -0.730444
     60          1           0       -3.694149   -5.461825    0.849268
     61          1           0       -2.334717   -5.544860    0.041827
     62          1           0       -6.104464   -2.718677   -1.050417
     63          1           0       -5.948325   -4.941688   -0.253650
     64          1           0       -7.237200   -4.235182    0.338135
     65          1           0       -5.963499   -4.455558    1.254580
     66          1           0       -6.478346    2.627966   -1.062013
     67          1           0       -6.355683    2.741891    0.512886
     68          1           0       -6.460104    1.317888   -0.172694
     69          1           0       -3.163941    5.186527   -0.051028
     70          1           0       -5.099976    5.945229    0.579595
     71          1           0       -5.841275    4.595172    0.210628
     72          1           0       -5.708724    5.746624   -0.868977
     73          1           0        1.764054    5.402382   -0.062576
     74          1           0        0.416096    5.360116   -0.923545
     75          1           0        1.833441    5.186720   -1.646157
     76          1           0        4.052672    3.659589   -0.983009
     77          1           0        4.383479    2.113003   -0.843319
     78          1           0        4.061463    2.295686    1.493684
     79          1           0        3.842306    3.853824    1.320263
     80          1           0        7.747368   -3.430832   -2.178023
     81          1           0        6.906062    2.125910    0.006291
     82          1           0       -3.827262    4.970022   -1.630857
     83          1           0       -6.120962   -2.186493    0.598541
     84          1           0        0.767117   -0.098735    3.044599
     85          1           0       -2.326119    0.680880    2.697296
 ---------------------------------------------------------------------
 Rotational constants (GHZ):           0.0850304           0.0492264           0.0333862
 Standard basis: def2TZVP (5D, 7F)
 There are  1882 symmetry adapted cartesian basis functions of A   symmetry.
 There are  1655 symmetry adapted basis functions of A   symmetry.
  1655 basis functions,  2684 primitive gaussians,  1882 cartesian basis functions
   176 alpha electrons      176 beta electrons
       nuclear repulsion energy      6677.6833482244 Hartrees.
 NAtoms=   85 NActive=   85 NUniq=   85 SFac= 1.00D+00 NAtFMM=   60 NAOKFM=T Big=T
 Integral buffers will be    131072 words long.
 Raffenetti 2 integral format.
 Two-electron integral symmetry is turned on.
 Nuclear repulsion after empirical dispersion term =     6677.5623959797 Hartrees.
 One-electron integrals computed using PRISM.
   1 Symmetry operations used in ECPInt.
 ECPInt:  NShTT=  218791 NPrTT=  678027 LenC2=  156768 LenP2D=  317269.
 LDataN:  DoStor=T MaxTD1= 6 Len=  172
 NBasis=  1655 RedAO= T EigKep=  3.02D-06  NBF=  1655
 NBsUse=  1655 1.00D-06 EigRej= -1.00D+00 NBFU=  1655
 Initial guess from the checkpoint file:  "7abb_II_S.chk"
 B after Tr=     0.000000   -0.000000    0.000000
         Rot=    1.000000    0.000000    0.000000   -0.000000 Ang=   0.00 deg.
 Requested convergence on RMS density matrix=1.00D-08 within 128 cycles.
 Requested convergence on MAX density matrix=1.00D-06.
 Requested convergence on             energy=1.00D-06.
 No special actions if energy rises.
 SCF Done:  E(RPBE1PBE) =  -3537.49373483     A.U. after    1 cycles
            NFock=  1  Conv=0.80D-09     -V/T= 2.0013

 **********************************************************************

            Population analysis using the SCF density.

 **********************************************************************

 Orbital symmetries:
       Occupied  (A) (A) (A) (A) (A) (A) (A) (A) (A) (A) (A) (A)
                 (A) (A) (A) (A) (A) (A) (A) (A) (A) (A) (A) (A)
                 (A) (A) (A) (A) (A) (A) (A) (A) (A) (A) (A) (A)
                 (A) (A) (A) (A) (A) (A) (A) (A) (A) (A) (A) (A)
                 (A) (A) (A) (A) (A) (A) (A) (A) (A) (A) (A) (A)
                 (A) (A) (A) (A) (A) (A) (A) (A) (A) (A) (A) (A)
                 (A) (A) (A) (A) (A) (A) (A) (A) (A) (A) (A) (A)
                 (A) (A) (A) (A) (A) (A) (A) (A) (A) (A) (A) (A)
                 (A) (A) (A) (A) (A) (A) (A) (A) (A) (A) (A) (A)
                 (A) (A) (A) (A) (A) (A) (A) (A) (A) (A) (A) (A)
                 (A) (A) (A) (A) (A) (A) (A) (A) (A) (A) (A) (A)
                 (A) (A) (A) (A) (A) (A) (A) (A) (A) (A) (A) (A)
                 (A) (A) (A) (A) (A) (A) (A) (A) (A) (A) (A) (A)
                 (A) (A) (A) (A) (A) (A) (A) (A) (A) (A) (A) (A)
                 (A) (A) (A) (A) (A) (A) (A) (A)
       Virtual   (A) (A) (A) (A) (A) (A) (A) (A) (A) (A) (A) (A)
                 (A) (A) (A) (A) (A) (A) (A) (A) (A) (A) (A) (A)
                 (A) (A) (A) (A) (A) (A) (A) (A) (A) (A) (A) (A)
                 (A) (A) (A) (A) (A) (A) (A) (A) (A) (A) (A) (A)
                 (A) (A) (A) (A) (A) (A) (A) (A) (A) (A) (A) (A)
                 (A) (A) (A) (A) (A) (A) (A) (A) (A) (A) (A) (A)
                 (A) (A) (A) (A) (A) (A) (A) (A) (A) (A) (A) (A)
                 (A) (A) (A) (A) (A) (A) (A) (A) (A) (A) (A) (A)
                 (A) (A) (A) (A) (A) (A) (A) (A) (A) (A) (A) (A)
                 (A) (A) (A) (A) (A) (A) (A) (A) (A) (A) (A) (A)
                 (A) (A) (A) (A) (A) (A) (A) (A) (A) (A) (A) (A)
                 (A) (A) (A) (A) (A) (A) (A) (A) (A) (A) (A) (A)
                 (A) (A) (A) (A) (A) (A) (A) (A) (A) (A) (A) (A)
                 (A) (A) (A) (A) (A) (A) (A) (A) (A) (A) (A) (A)
                 (A) (A) (A) (A) (A) (A) (A) (A) (A) (A) (A) (A)
                 (A) (A) (A) (A) (A) (A) (A) (A) (A) (A) (A) (A)
                 (A) (A) (A) (A) (A) (A) (A) (A) (A) (A) (A) (A)
                 (A) (A) (A) (A) (A) (A) (A) (A) (A) (A) (A) (A)
                 (A) (A) (A) (A) (A) (A) (A) (A) (A) (A) (A) (A)
                 (A) (A) (A) (A) (A) (A) (A) (A) (A) (A) (A) (A)
                 (A) (A) (A) (A) (A) (A) (A) (A) (A) (A) (A) (A)
                 (A) (A) (A) (A) (A) (A) (A) (A) (A) (A) (A) (A)
                 (A) (A) (A) (A) (A) (A) (A) (A) (A) (A) (A) (A)
                 (A) (A) (A) (A) (A) (A) (A) (A) (A) (A) (A) (A)
                 (A) (A) (A) (A) (A) (A) (A) (A) (A) (A) (A) (A)
                 (A) (A) (A) (A) (A) (A) (A) (A) (A) (A) (A) (A)
                 (A) (A) (A) (A) (A) (A) (A) (A) (A) (A) (A) (A)
                 (A) (A) (A) (A) (A) (A) (A) (A) (A) (A) (A) (A)
                 (A) (A) (A) (A) (A) (A) (A) (A) (A) (A) (A) (A)
                 (A) (A) (A) (A) (A) (A) (A) (A) (A) (A) (A) (A)
                 (A) (A) (A) (A) (A) (A) (A) (A) (A) (A) (A) (A)
                 (A) (A) (A) (A) (A) (A) (A) (A) (A) (A) (A) (A)
                 (A) (A) (A) (A) (A) (A) (A) (A) (A) (A) (A) (A)
                 (A) (A) (A) (A) (A) (A) (A) (A) (A) (A) (A) (A)
                 (A) (A) (A) (A) (A) (A) (A) (A) (A) (A) (A) (A)
                 (A) (A) (A) (A) (A) (A) (A) (A) (A) (A) (A) (A)
                 (A) (A) (A) (A) (A) (A) (A) (A) (A) (A) (A) (A)
                 (A) (A) (A) (A) (A) (A) (A) (A) (A) (A) (A) (A)
                 (A) (A) (A) (A) (A) (A) (A) (A) (A) (A) (A) (A)
                 (A) (A) (A) (A) (A) (A) (A) (A) (A) (A) (A) (A)
                 (A) (A) (A) (A) (A) (A) (A) (A) (A) (A) (A) (A)
                 (A) (A) (A) (A) (A) (A) (A) (A) (A) (A) (A) (A)
                 (A) (A) (A) (A) (A) (A) (A) (A) (A) (A) (A) (A)
                 (A) (A) (A) (A) (A) (A) (A) (A) (A) (A) (A) (A)
                 (A) (A) (A) (A) (A) (A) (A) (A) (A) (A) (A) (A)
                 (A) (A) (A) (A) (A) (A) (A) (A) (A) (A) (A) (A)
                 (A) (A) (A) (A) (A) (A) (A) (A) (A) (A) (A) (A)
                 (A) (A) (A) (A) (A) (A) (A) (A) (A) (A) (A) (A)
                 (A) (A) (A) (A) (A) (A) (A) (A) (A) (A) (A) (A)
                 (A) (A) (A) (A) (A) (A) (A) (A) (A) (A) (A) (A)
                 (A) (A) (A) (A) (A) (A) (A) (A) (A) (A) (A) (A)
                 (A) (A) (A) (A) (A) (A) (A) (A) (A) (A) (A) (A)
                 (A) (A) (A) (A) (A) (A) (A) (A) (A) (A) (A) (A)
                 (A) (A) (A) (A) (A) (A) (A) (A) (A) (A) (A) (A)
                 (A) (A) (A) (A) (A) (A) (A) (A) (A) (A) (A) (A)
                 (A) (A) (A) (A) (A) (A) (A) (A) (A) (A) (A) (A)
                 (A) (A) (A) (A) (A) (A) (A) (A) (A) (A) (A) (A)
                 (A) (A) (A) (A) (A) (A) (A) (A) (A) (A) (A) (A)
                 (A) (A) (A) (A) (A) (A) (A) (A) (A) (A) (A) (A)
                 (A) (A) (A) (A) (A) (A) (A) (A) (A) (A) (A) (A)
                 (A) (A) (A) (A) (A) (A) (A) (A) (A) (A) (A) (A)
                 (A) (A) (A) (A) (A) (A) (A) (A) (A) (A) (A) (A)
                 (A) (A) (A) (A) (A) (A) (A) (A) (A) (A) (A) (A)
                 (A) (A) (A) (A) (A) (A) (A) (A) (A) (A) (A) (A)
                 (A) (A) (A) (A) (A) (A) (A) (A) (A) (A) (A) (A)
                 (A) (A) (A) (A) (A) (A) (A) (A) (A) (A) (A) (A)
                 (A) (A) (A) (A) (A) (A) (A) (A) (A) (A) (A) (A)
                 (A) (A) (A) (A) (A) (A) (A) (A) (A) (A) (A) (A)
                 (A) (A) (A) (A) (A) (A) (A) (A) (A) (A) (A) (A)
                 (A) (A) (A) (A) (A) (A) (A) (A) (A) (A) (A) (A)
                 (A) (A) (A) (A) (A) (A) (A) (A) (A) (A) (A) (A)
                 (A) (A) (A) (A) (A) (A) (A) (A) (A) (A) (A) (A)
                 (A) (A) (A) (A) (A) (A) (A) (A) (A) (A) (A) (A)
                 (A) (A) (A) (A) (A) (A) (A) (A) (A) (A) (A) (A)
                 (A) (A) (A) (A) (A) (A) (A) (A) (A) (A) (A) (A)
                 (A) (A) (A) (A) (A) (A) (A) (A) (A) (A) (A) (A)
                 (A) (A) (A) (A) (A) (A) (A) (A) (A) (A) (A) (A)
                 (A) (A) (A) (A) (A) (A) (A) (A) (A) (A) (A) (A)
                 (A) (A) (A) (A) (A) (A) (A) (A) (A) (A) (A) (A)
                 (A) (A) (A) (A) (A) (A) (A) (A) (A) (A) (A) (A)
                 (A) (A) (A) (A) (A) (A) (A) (A) (A) (A) (A) (A)
                 (A) (A) (A) (A) (A) (A) (A) (A) (A) (A) (A) (A)
                 (A) (A) (A) (A) (A) (A) (A) (A) (A) (A) (A) (A)
                 (A) (A) (A) (A) (A) (A) (A) (A) (A) (A) (A) (A)
                 (A) (A) (A) (A) (A) (A) (A) (A) (A) (A) (A) (A)
                 (A) (A) (A) (A) (A) (A) (A) (A) (A) (A) (A) (A)
                 (A) (A) (A) (A) (A) (A) (A) (A) (A) (A) (A) (A)
                 (A) (A) (A) (A) (A) (A) (A) (A) (A) (A) (A) (A)
                 (A) (A) (A) (A) (A) (A) (A) (A) (A) (A) (A) (A)
                 (A) (A) (A) (A) (A) (A) (A) (A) (A) (A) (A) (A)
                 (A) (A) (A) (A) (A) (A) (A) (A) (A) (A) (A) (A)
                 (A) (A) (A) (A) (A) (A) (A) (A) (A) (A) (A) (A)
                 (A) (A) (A) (A) (A) (A) (A) (A) (A) (A) (A) (A)
                 (A) (A) (A) (A) (A) (A) (A) (A) (A) (A) (A) (A)
                 (A) (A) (A) (A) (A) (A) (A) (A) (A) (A) (A) (A)
                 (A) (A) (A) (A) (A) (A) (A) (A) (A) (A) (A) (A)
                 (A) (A) (A) (A) (A) (A) (A) (A) (A) (A) (A) (A)
                 (A) (A) (A) (A) (A) (A) (A) (A) (A) (A) (A) (A)
                 (A) (A) (A) (A) (A) (A) (A) (A) (A) (A) (A) (A)
                 (A) (A) (A) (A) (A) (A) (A) (A) (A) (A) (A) (A)
                 (A) (A) (A) (A) (A) (A) (A) (A) (A) (A) (A) (A)
                 (A) (A) (A) (A) (A) (A) (A) (A) (A) (A) (A) (A)
                 (A) (A) (A) (A) (A) (A) (A) (A) (A) (A) (A) (A)
                 (A) (A) (A) (A) (A) (A) (A) (A) (A) (A) (A) (A)
                 (A) (A) (A) (A) (A) (A) (A) (A) (A) (A) (A) (A)
                 (A) (A) (A) (A) (A) (A) (A) (A) (A) (A) (A) (A)
                 (A) (A) (A) (A) (A) (A) (A) (A) (A) (A) (A) (A)
                 (A) (A) (A) (A) (A) (A) (A) (A) (A) (A) (A) (A)
                 (A) (A) (A) (A) (A) (A) (A) (A) (A) (A) (A) (A)
                 (A) (A) (A) (A) (A) (A) (A) (A) (A) (A) (A) (A)
                 (A) (A) (A) (A) (A) (A) (A) (A) (A) (A) (A) (A)
                 (A) (A) (A) (A) (A) (A) (A) (A) (A) (A) (A) (A)
                 (A) (A) (A) (A) (A) (A) (A) (A) (A) (A) (A) (A)
                 (A) (A) (A) (A) (A) (A) (A) (A) (A) (A) (A) (A)
                 (A) (A) (A) (A) (A) (A) (A) (A) (A) (A) (A) (A)
                 (A) (A) (A) (A) (A) (A) (A) (A) (A) (A) (A) (A)
                 (A) (A) (A) (A) (A) (A) (A) (A) (A) (A) (A) (A)
                 (A) (A) (A) (A) (A) (A) (A) (A) (A) (A) (A) (A)
                 (A) (A) (A) (A) (A) (A) (A) (A) (A) (A) (A) (A)
                 (A) (A) (A) (A) (A) (A) (A) (A) (A) (A) (A) (A)
                 (A) (A) (A) (A) (A) (A) (A) (A) (A) (A) (A) (A)
                 (A) (A) (A) (A) (A) (A) (A) (A) (A) (A) (A) (A)
                 (A) (A) (A) (A) (A) (A) (A) (A) (A) (A) (A) (A)
                 (A) (A) (A)
 The electronic state is 1-A.
 Alpha  occ. eigenvalues -- -256.31948 -89.03691 -30.08802 -25.91956 -25.91303
 Alpha  occ. eigenvalues --  -25.90799 -19.27223 -19.25389 -19.19443 -19.17872
 Alpha  occ. eigenvalues --  -14.39344 -14.37014 -14.36238 -14.35771 -10.36469
 Alpha  occ. eigenvalues --  -10.34805 -10.25612 -10.24746 -10.24498 -10.24395
 Alpha  occ. eigenvalues --  -10.24285 -10.23933 -10.23931 -10.23622 -10.23526
 Alpha  occ. eigenvalues --  -10.22651 -10.22531 -10.22468 -10.22386 -10.22162
 Alpha  occ. eigenvalues --  -10.21940 -10.21848 -10.21661 -10.21287 -10.21247
 Alpha  occ. eigenvalues --  -10.21146 -10.21005 -10.21003 -10.20854 -10.20552
 Alpha  occ. eigenvalues --  -10.20340 -10.20163 -10.19959 -10.18326 -10.18273
 Alpha  occ. eigenvalues --  -10.17898 -10.17685 -10.17129 -10.16559  -8.01801
 Alpha  occ. eigenvalues --   -5.95485  -5.95169  -5.94620  -3.44628  -2.21902
 Alpha  occ. eigenvalues --   -2.20133  -2.19100  -1.17840  -1.16705  -1.03703
 Alpha  occ. eigenvalues --   -1.02395  -0.99289  -0.96640  -0.95748  -0.94466
 Alpha  occ. eigenvalues --   -0.84936  -0.84388  -0.84063  -0.83796  -0.83245
 Alpha  occ. eigenvalues --   -0.82133  -0.82071  -0.81504  -0.80078  -0.79369
 Alpha  occ. eigenvalues --   -0.78760  -0.78381  -0.76659  -0.75385  -0.74584
 Alpha  occ. eigenvalues --   -0.73804  -0.73207  -0.71444  -0.70620  -0.69216
 Alpha  occ. eigenvalues --   -0.69048  -0.67581  -0.67120  -0.66831  -0.66450
 Alpha  occ. eigenvalues --   -0.65292  -0.64837  -0.59768  -0.59462  -0.56954
 Alpha  occ. eigenvalues --   -0.56209  -0.55765  -0.54439  -0.54169  -0.53893
 Alpha  occ. eigenvalues --   -0.53686  -0.52534  -0.52276  -0.51841  -0.50987
 Alpha  occ. eigenvalues --   -0.50234  -0.49964  -0.49339  -0.48905  -0.48765
 Alpha  occ. eigenvalues --   -0.48634  -0.48557  -0.48026  -0.47498  -0.46970
 Alpha  occ. eigenvalues --   -0.46565  -0.46313  -0.46055  -0.45730  -0.45475
 Alpha  occ. eigenvalues --   -0.45159  -0.45071  -0.44940  -0.44814  -0.44547
 Alpha  occ. eigenvalues --   -0.44066  -0.44034  -0.43584  -0.43463  -0.43267
 Alpha  occ. eigenvalues --   -0.41944  -0.41547  -0.41479  -0.41252  -0.41095
 Alpha  occ. eigenvalues --   -0.40873  -0.40452  -0.40227  -0.39757  -0.39704
 Alpha  occ. eigenvalues --   -0.39079  -0.38566  -0.38439  -0.38271  -0.37992
 Alpha  occ. eigenvalues --   -0.37780  -0.37355  -0.37016  -0.36675  -0.36247
 Alpha  occ. eigenvalues --   -0.35690  -0.35418  -0.34858  -0.34533  -0.34423
 Alpha  occ. eigenvalues --   -0.34236  -0.33679  -0.33560  -0.33252  -0.32457
 Alpha  occ. eigenvalues --   -0.30711  -0.29665  -0.29239  -0.28856  -0.28079
 Alpha  occ. eigenvalues --   -0.27900  -0.27286  -0.27124  -0.24140  -0.23299
 Alpha  occ. eigenvalues --   -0.22181  -0.20533  -0.19990  -0.19215  -0.18855
 Alpha  occ. eigenvalues --   -0.18447
 Alpha virt. eigenvalues --   -0.07507  -0.07000  -0.03503  -0.01983  -0.01390
 Alpha virt. eigenvalues --   -0.01027   0.00507   0.01218   0.01550   0.02856
 Alpha virt. eigenvalues --    0.03274   0.04663   0.04803   0.05331   0.05846
 Alpha virt. eigenvalues --    0.05950   0.06630   0.06868   0.07258   0.07441
 Alpha virt. eigenvalues --    0.07660   0.07855   0.08281   0.08800   0.09570
 Alpha virt. eigenvalues --    0.09902   0.10208   0.10339   0.10560   0.10719
 Alpha virt. eigenvalues --    0.11039   0.11268   0.11721   0.11770   0.12191
 Alpha virt. eigenvalues --    0.12252   0.12707   0.12882   0.13016   0.13424
 Alpha virt. eigenvalues --    0.13761   0.13994   0.14157   0.14185   0.14490
 Alpha virt. eigenvalues --    0.14780   0.14835   0.15180   0.15401   0.15518
 Alpha virt. eigenvalues --    0.15561   0.15838   0.15918   0.16404   0.16642
 Alpha virt. eigenvalues --    0.16858   0.17187   0.17311   0.17732   0.17965
 Alpha virt. eigenvalues --    0.18262   0.18576   0.18750   0.18982   0.19233
 Alpha virt. eigenvalues --    0.19463   0.19714   0.19874   0.20210   0.20548
 Alpha virt. eigenvalues --    0.20708   0.20853   0.20927   0.21127   0.21437
 Alpha virt. eigenvalues --    0.21460   0.21727   0.21955   0.22025   0.22273
 Alpha virt. eigenvalues --    0.22874   0.23143   0.23274   0.23316   0.23545
 Alpha virt. eigenvalues --    0.23605   0.23878   0.24084   0.24385   0.24497
 Alpha virt. eigenvalues --    0.24641   0.25018   0.25030   0.25365   0.25587
 Alpha virt. eigenvalues --    0.25857   0.26090   0.26288   0.26573   0.26727
 Alpha virt. eigenvalues --    0.26839   0.27026   0.27452   0.27648   0.27699
 Alpha virt. eigenvalues --    0.27811   0.28236   0.28515   0.28987   0.29103
 Alpha virt. eigenvalues --    0.29278   0.29702   0.29874   0.30151   0.30500
 Alpha virt. eigenvalues --    0.30872   0.31341   0.31499   0.31701   0.31922
 Alpha virt. eigenvalues --    0.32205   0.32472   0.33137   0.33300   0.33443
 Alpha virt. eigenvalues --    0.33718   0.33879   0.34354   0.34585   0.34812
 Alpha virt. eigenvalues --    0.34982   0.35480   0.35728   0.36015   0.36350
 Alpha virt. eigenvalues --    0.36560   0.36770   0.37070   0.37325   0.37629
 Alpha virt. eigenvalues --    0.37693   0.38338   0.38591   0.38632   0.38800
 Alpha virt. eigenvalues --    0.38986   0.39397   0.39839   0.40074   0.40216
 Alpha virt. eigenvalues --    0.40369   0.40651   0.40759   0.40832   0.41152
 Alpha virt. eigenvalues --    0.41491   0.41659   0.41859   0.42016   0.42293
 Alpha virt. eigenvalues --    0.42493   0.42866   0.43038   0.43161   0.43307
 Alpha virt. eigenvalues --    0.43594   0.43731   0.44027   0.44433   0.44500
 Alpha virt. eigenvalues --    0.44581   0.45049   0.45182   0.45314   0.45694
 Alpha virt. eigenvalues --    0.45784   0.45890   0.46047   0.46251   0.46393
 Alpha virt. eigenvalues --    0.46917   0.47115   0.47326   0.47395   0.47692
 Alpha virt. eigenvalues --    0.47786   0.48186   0.48317   0.48532   0.48730
 Alpha virt. eigenvalues --    0.48762   0.48912   0.49230   0.49416   0.49518
 Alpha virt. eigenvalues --    0.50023   0.50259   0.50609   0.50938   0.51027
 Alpha virt. eigenvalues --    0.51233   0.51368   0.51503   0.51918   0.52208
 Alpha virt. eigenvalues --    0.52491   0.52558   0.52654   0.52913   0.53090
 Alpha virt. eigenvalues --    0.53344   0.53575   0.53859   0.53916   0.53984
 Alpha virt. eigenvalues --    0.54428   0.54473   0.55012   0.55217   0.55325
 Alpha virt. eigenvalues --    0.55564   0.55792   0.56057   0.56177   0.56290
 Alpha virt. eigenvalues --    0.56386   0.56584   0.56709   0.56959   0.57336
 Alpha virt. eigenvalues --    0.57788   0.57866   0.58073   0.58107   0.58297
 Alpha virt. eigenvalues --    0.58790   0.58934   0.59477   0.59633   0.59673
 Alpha virt. eigenvalues --    0.60150   0.60336   0.60563   0.60965   0.61389
 Alpha virt. eigenvalues --    0.61703   0.62182   0.62476   0.62672   0.63035
 Alpha virt. eigenvalues --    0.63194   0.63382   0.63621   0.64024   0.64159
 Alpha virt. eigenvalues --    0.64438   0.64587   0.65206   0.65439   0.65607
 Alpha virt. eigenvalues --    0.65656   0.66003   0.66224   0.66946   0.67165
 Alpha virt. eigenvalues --    0.67397   0.67495   0.67917   0.68262   0.68505
 Alpha virt. eigenvalues --    0.68695   0.68985   0.69068   0.69458   0.69802
 Alpha virt. eigenvalues --    0.70056   0.70488   0.70826   0.71043   0.71208
 Alpha virt. eigenvalues --    0.71569   0.71959   0.72224   0.72530   0.72646
 Alpha virt. eigenvalues --    0.72863   0.73335   0.73559   0.74121   0.74168
 Alpha virt. eigenvalues --    0.74629   0.74869   0.74934   0.75438   0.75570
 Alpha virt. eigenvalues --    0.75704   0.76043   0.76276   0.76597   0.76966
 Alpha virt. eigenvalues --    0.77130   0.77320   0.77681   0.78201   0.78396
 Alpha virt. eigenvalues --    0.78733   0.79057   0.79264   0.79547   0.79863
 Alpha virt. eigenvalues --    0.80074   0.80753   0.80919   0.81008   0.81296
 Alpha virt. eigenvalues --    0.81742   0.82018   0.82112   0.82659   0.83085
 Alpha virt. eigenvalues --    0.83144   0.83451   0.83976   0.84333   0.84419
 Alpha virt. eigenvalues --    0.84858   0.85270   0.85432   0.85674   0.85902
 Alpha virt. eigenvalues --    0.86560   0.86841   0.87239   0.87660   0.88066
 Alpha virt. eigenvalues --    0.88362   0.88512   0.89023   0.89387   0.89628
 Alpha virt. eigenvalues --    0.90257   0.90691   0.90818   0.90939   0.91481
 Alpha virt. eigenvalues --    0.91888   0.92081   0.92240   0.92838   0.92927
 Alpha virt. eigenvalues --    0.93348   0.93748   0.94051   0.94358   0.94765
 Alpha virt. eigenvalues --    0.95224   0.95555   0.96173   0.96377   0.96443
 Alpha virt. eigenvalues --    0.96582   0.96938   0.97182   0.97545   0.97871
 Alpha virt. eigenvalues --    0.98186   0.98314   0.98630   0.98988   0.99546
 Alpha virt. eigenvalues --    0.99670   1.00033   1.00507   1.01130   1.01167
 Alpha virt. eigenvalues --    1.01876   1.02078   1.02463   1.02797   1.02909
 Alpha virt. eigenvalues --    1.03378   1.03652   1.03671   1.03993   1.04404
 Alpha virt. eigenvalues --    1.04782   1.05132   1.05645   1.05714   1.05826
 Alpha virt. eigenvalues --    1.06016   1.06441   1.06523   1.07222   1.07268
 Alpha virt. eigenvalues --    1.07752   1.08001   1.08121   1.08692   1.08911
 Alpha virt. eigenvalues --    1.09188   1.09598   1.10000   1.10590   1.10821
 Alpha virt. eigenvalues --    1.11071   1.11415   1.11846   1.12005   1.12435
 Alpha virt. eigenvalues --    1.12596   1.13022   1.13128   1.13293   1.13972
 Alpha virt. eigenvalues --    1.14316   1.14941   1.15802   1.15994   1.16428
 Alpha virt. eigenvalues --    1.16932   1.17658   1.18025   1.18180   1.18484
 Alpha virt. eigenvalues --    1.18917   1.19794   1.20440   1.20590   1.21950
 Alpha virt. eigenvalues --    1.22097   1.22452   1.22507   1.22992   1.23327
 Alpha virt. eigenvalues --    1.23772   1.23897   1.24680   1.25436   1.25727
 Alpha virt. eigenvalues --    1.26240   1.26581   1.26874   1.27421   1.27839
 Alpha virt. eigenvalues --    1.28449   1.28914   1.29318   1.29668   1.29707
 Alpha virt. eigenvalues --    1.30667   1.30947   1.30995   1.31642   1.32087
 Alpha virt. eigenvalues --    1.32465   1.33282   1.33613   1.33789   1.34170
 Alpha virt. eigenvalues --    1.34412   1.34899   1.35408   1.36098   1.36298
 Alpha virt. eigenvalues --    1.36862   1.37349   1.37496   1.38275   1.38640
 Alpha virt. eigenvalues --    1.38985   1.39321   1.39779   1.39990   1.40494
 Alpha virt. eigenvalues --    1.41031   1.41244   1.41711   1.42205   1.43105
 Alpha virt. eigenvalues --    1.43290   1.43954   1.44704   1.44933   1.45398
 Alpha virt. eigenvalues --    1.45948   1.46355   1.47010   1.47528   1.47721
 Alpha virt. eigenvalues --    1.48138   1.48534   1.48699   1.49069   1.49692
 Alpha virt. eigenvalues --    1.50075   1.50225   1.50744   1.51046   1.51866
 Alpha virt. eigenvalues --    1.52077   1.52086   1.52320   1.52510   1.52753
 Alpha virt. eigenvalues --    1.53065   1.53637   1.53883   1.54032   1.54262
 Alpha virt. eigenvalues --    1.54553   1.55000   1.55201   1.55538   1.55995
 Alpha virt. eigenvalues --    1.56456   1.56714   1.57027   1.57193   1.57610
 Alpha virt. eigenvalues --    1.58245   1.58300   1.58993   1.59211   1.59450
 Alpha virt. eigenvalues --    1.59540   1.59835   1.60135   1.60565   1.61021
 Alpha virt. eigenvalues --    1.61195   1.61585   1.62111   1.62200   1.62580
 Alpha virt. eigenvalues --    1.62725   1.62863   1.63119   1.63514   1.63652
 Alpha virt. eigenvalues --    1.64092   1.64308   1.64610   1.64904   1.65225
 Alpha virt. eigenvalues --    1.65538   1.65734   1.65978   1.66029   1.66460
 Alpha virt. eigenvalues --    1.66635   1.66905   1.67091   1.67272   1.67731
 Alpha virt. eigenvalues --    1.68073   1.68115   1.68288   1.68763   1.68847
 Alpha virt. eigenvalues --    1.69314   1.69406   1.69800   1.70030   1.70246
 Alpha virt. eigenvalues --    1.70943   1.71253   1.71486   1.71568   1.72022
 Alpha virt. eigenvalues --    1.72398   1.72876   1.73145   1.73562   1.73762
 Alpha virt. eigenvalues --    1.74136   1.74465   1.74885   1.75193   1.75697
 Alpha virt. eigenvalues --    1.76493   1.76733   1.77104   1.77223   1.77701
 Alpha virt. eigenvalues --    1.77983   1.78107   1.78864   1.79648   1.79859
 Alpha virt. eigenvalues --    1.80332   1.80853   1.81367   1.81781   1.82262
 Alpha virt. eigenvalues --    1.82472   1.82921   1.83181   1.83808   1.84112
 Alpha virt. eigenvalues --    1.84200   1.84532   1.85274   1.85481   1.86253
 Alpha virt. eigenvalues --    1.86818   1.87115   1.87417   1.87896   1.88491
 Alpha virt. eigenvalues --    1.88738   1.88942   1.89363   1.89794   1.90151
 Alpha virt. eigenvalues --    1.90401   1.90783   1.91225   1.91641   1.91831
 Alpha virt. eigenvalues --    1.92275   1.92789   1.93069   1.93819   1.94198
 Alpha virt. eigenvalues --    1.94738   1.95326   1.95662   1.95986   1.96183
 Alpha virt. eigenvalues --    1.96570   1.97399   1.97599   1.97960   1.98294
 Alpha virt. eigenvalues --    1.99324   1.99484   2.00056   2.00133   2.00702
 Alpha virt. eigenvalues --    2.01297   2.01371   2.01573   2.01987   2.02068
 Alpha virt. eigenvalues --    2.02285   2.02392   2.03133   2.03427   2.04089
 Alpha virt. eigenvalues --    2.04254   2.04666   2.04953   2.05205   2.05423
 Alpha virt. eigenvalues --    2.06211   2.06314   2.07053   2.07283   2.07721
 Alpha virt. eigenvalues --    2.08198   2.08762   2.09405   2.10266   2.10592
 Alpha virt. eigenvalues --    2.11237   2.11613   2.11894   2.12330   2.13271
 Alpha virt. eigenvalues --    2.13450   2.13658   2.14047   2.14319   2.14538
 Alpha virt. eigenvalues --    2.15192   2.15659   2.15904   2.16247   2.16465
 Alpha virt. eigenvalues --    2.16673   2.16827   2.17103   2.17633   2.17813
 Alpha virt. eigenvalues --    2.18411   2.18975   2.19104   2.19573   2.19828
 Alpha virt. eigenvalues --    2.20469   2.20960   2.21888   2.21992   2.22496
 Alpha virt. eigenvalues --    2.23046   2.23183   2.23807   2.24263   2.24516
 Alpha virt. eigenvalues --    2.24931   2.25645   2.25994   2.26430   2.26760
 Alpha virt. eigenvalues --    2.27082   2.27327   2.28260   2.28416   2.28616
 Alpha virt. eigenvalues --    2.29263   2.29568   2.30121   2.30351   2.30578
 Alpha virt. eigenvalues --    2.30804   2.31535   2.31706   2.32252   2.32551
 Alpha virt. eigenvalues --    2.33356   2.33598   2.34616   2.35119   2.35391
 Alpha virt. eigenvalues --    2.35727   2.36277   2.36907   2.37121   2.37718
 Alpha virt. eigenvalues --    2.38205   2.38670   2.39006   2.39292   2.40236
 Alpha virt. eigenvalues --    2.40376   2.41057   2.41701   2.42138   2.42309
 Alpha virt. eigenvalues --    2.42772   2.42925   2.43793   2.44039   2.44426
 Alpha virt. eigenvalues --    2.44506   2.45530   2.45603   2.46483   2.46618
 Alpha virt. eigenvalues --    2.47055   2.47337   2.47537   2.48332   2.48620
 Alpha virt. eigenvalues --    2.49508   2.49654   2.50312   2.50615   2.51059
 Alpha virt. eigenvalues --    2.51684   2.52894   2.52998   2.53343   2.53621
 Alpha virt. eigenvalues --    2.54167   2.54762   2.55004   2.55371   2.55818
 Alpha virt. eigenvalues --    2.56053   2.56481   2.57005   2.57147   2.57499
 Alpha virt. eigenvalues --    2.57862   2.58228   2.58881   2.59635   2.59798
 Alpha virt. eigenvalues --    2.60168   2.60313   2.60547   2.61112   2.61370
 Alpha virt. eigenvalues --    2.61805   2.62019   2.62504   2.62906   2.63418
 Alpha virt. eigenvalues --    2.63562   2.64167   2.64669   2.64863   2.65998
 Alpha virt. eigenvalues --    2.66054   2.66864   2.66943   2.67211   2.67920
 Alpha virt. eigenvalues --    2.68507   2.68853   2.69147   2.69298   2.69926
 Alpha virt. eigenvalues --    2.70074   2.70201   2.70741   2.71397   2.71564
 Alpha virt. eigenvalues --    2.71698   2.72185   2.72448   2.72748   2.73079
 Alpha virt. eigenvalues --    2.73690   2.74065   2.74334   2.74735   2.75496
 Alpha virt. eigenvalues --    2.75803   2.76005   2.76470   2.76762   2.77185
 Alpha virt. eigenvalues --    2.77673   2.78000   2.78249   2.78491   2.78832
 Alpha virt. eigenvalues --    2.79409   2.79934   2.80039   2.80356   2.80674
 Alpha virt. eigenvalues --    2.80778   2.80992   2.81527   2.82205   2.82324
 Alpha virt. eigenvalues --    2.82569   2.83176   2.83552   2.83755   2.84132
 Alpha virt. eigenvalues --    2.84567   2.84831   2.84994   2.85606   2.85636
 Alpha virt. eigenvalues --    2.86346   2.86664   2.86989   2.87373   2.87729
 Alpha virt. eigenvalues --    2.87920   2.88293   2.88691   2.89000   2.89133
 Alpha virt. eigenvalues --    2.89449   2.90212   2.90533   2.91131   2.91341
 Alpha virt. eigenvalues --    2.91953   2.92107   2.92872   2.93053   2.93298
 Alpha virt. eigenvalues --    2.93487   2.94040   2.94345   2.94578   2.95154
 Alpha virt. eigenvalues --    2.95526   2.96087   2.96502   2.96616   2.96876
 Alpha virt. eigenvalues --    2.97113   2.97384   2.97887   2.97973   2.98340
 Alpha virt. eigenvalues --    2.98461   2.99064   2.99395   2.99839   3.00150
 Alpha virt. eigenvalues --    3.00373   3.00930   3.01162   3.01581   3.01678
 Alpha virt. eigenvalues --    3.02045   3.02522   3.02757   3.03436   3.03627
 Alpha virt. eigenvalues --    3.03637   3.04067   3.04157   3.04492   3.04673
 Alpha virt. eigenvalues --    3.05048   3.05469   3.05603   3.05918   3.06002
 Alpha virt. eigenvalues --    3.06404   3.06688   3.06931   3.07469   3.08092
 Alpha virt. eigenvalues --    3.08498   3.08798   3.09162   3.09283   3.09363
 Alpha virt. eigenvalues --    3.09907   3.10243   3.10833   3.11012   3.11467
 Alpha virt. eigenvalues --    3.11927   3.12100   3.12410   3.12627   3.12798
 Alpha virt. eigenvalues --    3.13420   3.13694   3.14295   3.14440   3.14683
 Alpha virt. eigenvalues --    3.14756   3.15246   3.15426   3.15610   3.16166
 Alpha virt. eigenvalues --    3.16720   3.16907   3.17551   3.17743   3.17964
 Alpha virt. eigenvalues --    3.18439   3.18761   3.18996   3.19545   3.20016
 Alpha virt. eigenvalues --    3.20586   3.20738   3.20995   3.21225   3.21747
 Alpha virt. eigenvalues --    3.22160   3.22655   3.22777   3.22956   3.23155
 Alpha virt. eigenvalues --    3.23489   3.23594   3.24272   3.24634   3.24762
 Alpha virt. eigenvalues --    3.24874   3.25582   3.26302   3.26491   3.26712
 Alpha virt. eigenvalues --    3.27281   3.27492   3.27940   3.28176   3.28374
 Alpha virt. eigenvalues --    3.28650   3.29211   3.29367   3.29623   3.29701
 Alpha virt. eigenvalues --    3.30263   3.30569   3.30952   3.30998   3.31509
 Alpha virt. eigenvalues --    3.31746   3.32167   3.32477   3.32526   3.33103
 Alpha virt. eigenvalues --    3.33155   3.33525   3.34155   3.34351   3.34439
 Alpha virt. eigenvalues --    3.34663   3.34961   3.35175   3.35730   3.35918
 Alpha virt. eigenvalues --    3.36331   3.36571   3.36628   3.37130   3.37601
 Alpha virt. eigenvalues --    3.37653   3.38057   3.38115   3.38354   3.38579
 Alpha virt. eigenvalues --    3.38979   3.39193   3.39360   3.39588   3.39785
 Alpha virt. eigenvalues --    3.40143   3.40260   3.40792   3.41006   3.41294
 Alpha virt. eigenvalues --    3.41472   3.41991   3.42007   3.42187   3.42708
 Alpha virt. eigenvalues --    3.43351   3.43743   3.43954   3.44144   3.44457
 Alpha virt. eigenvalues --    3.44615   3.44866   3.45056   3.45485   3.45908
 Alpha virt. eigenvalues --    3.46396   3.46443   3.46570   3.47299   3.47536
 Alpha virt. eigenvalues --    3.47775   3.47904   3.48117   3.48602   3.49049
 Alpha virt. eigenvalues --    3.49253   3.49448   3.50053   3.50201   3.51029
 Alpha virt. eigenvalues --    3.51422   3.51555   3.51951   3.52424   3.52789
 Alpha virt. eigenvalues --    3.53288   3.53493   3.54050   3.54282   3.54442
 Alpha virt. eigenvalues --    3.55324   3.55580   3.55789   3.56662   3.56775
 Alpha virt. eigenvalues --    3.57329   3.57756   3.58144   3.58510   3.58868
 Alpha virt. eigenvalues --    3.59465   3.59710   3.60321   3.61019   3.61305
 Alpha virt. eigenvalues --    3.61494   3.61640   3.61986   3.62225   3.62863
 Alpha virt. eigenvalues --    3.63450   3.63615   3.64176   3.64532   3.64947
 Alpha virt. eigenvalues --    3.65805   3.65996   3.66180   3.66878   3.67246
 Alpha virt. eigenvalues --    3.67518   3.68048   3.68198   3.68880   3.69062
 Alpha virt. eigenvalues --    3.69550   3.69758   3.70455   3.70637   3.71011
 Alpha virt. eigenvalues --    3.71581   3.72218   3.72601   3.73236   3.73566
 Alpha virt. eigenvalues --    3.74152   3.74412   3.74904   3.75224   3.75673
 Alpha virt. eigenvalues --    3.75951   3.76169   3.76450   3.77544   3.77658
 Alpha virt. eigenvalues --    3.78220   3.78494   3.79009   3.79105   3.80136
 Alpha virt. eigenvalues --    3.80412   3.81316   3.81919   3.82343   3.82579
 Alpha virt. eigenvalues --    3.82824   3.83237   3.83403   3.84043   3.84283
 Alpha virt. eigenvalues --    3.84708   3.85240   3.86159   3.86347   3.86891
 Alpha virt. eigenvalues --    3.87354   3.87593   3.87981   3.88880   3.89176
 Alpha virt. eigenvalues --    3.89574   3.90135   3.90254   3.91214   3.92603
 Alpha virt. eigenvalues --    3.93162   3.93568   3.93657   3.94404   3.95128
 Alpha virt. eigenvalues --    3.95286   3.95901   3.96423   3.96844   3.97295
 Alpha virt. eigenvalues --    3.98196   3.99653   4.00136   4.00549   4.00839
 Alpha virt. eigenvalues --    4.01300   4.01410   4.02071   4.02341   4.02882
 Alpha virt. eigenvalues --    4.03401   4.04069   4.04766   4.05177   4.05407
 Alpha virt. eigenvalues --    4.06533   4.07286   4.07477   4.08329   4.08968
 Alpha virt. eigenvalues --    4.09287   4.09675   4.11207   4.11996   4.12611
 Alpha virt. eigenvalues --    4.13283   4.13344   4.14355   4.14462   4.15601
 Alpha virt. eigenvalues --    4.16117   4.16456   4.17025   4.17943   4.18521
 Alpha virt. eigenvalues --    4.18821   4.19448   4.20114   4.20688   4.21391
 Alpha virt. eigenvalues --    4.21844   4.22742   4.22989   4.23520   4.23734
 Alpha virt. eigenvalues --    4.24919   4.25387   4.25954   4.26417   4.27412
 Alpha virt. eigenvalues --    4.28325   4.28734   4.29133   4.29996   4.30678
 Alpha virt. eigenvalues --    4.30981   4.31466   4.32259   4.33306   4.33954
 Alpha virt. eigenvalues --    4.34428   4.34991   4.35764   4.36283   4.36825
 Alpha virt. eigenvalues --    4.37453   4.38018   4.38668   4.39126   4.39496
 Alpha virt. eigenvalues --    4.40084   4.41262   4.41820   4.41990   4.42902
 Alpha virt. eigenvalues --    4.43439   4.44174   4.44957   4.45527   4.46439
 Alpha virt. eigenvalues --    4.47189   4.47902   4.48200   4.49142   4.49846
 Alpha virt. eigenvalues --    4.50550   4.51195   4.52266   4.52896   4.53482
 Alpha virt. eigenvalues --    4.54218   4.54564   4.54746   4.55393   4.56696
 Alpha virt. eigenvalues --    4.56903   4.57730   4.58064   4.58799   4.62019
 Alpha virt. eigenvalues --    4.63180   4.64080   4.64339   4.66365   4.67270
 Alpha virt. eigenvalues --    4.67608   4.67786   4.68707   4.69665   4.70062
 Alpha virt. eigenvalues --    4.70548   4.71620   4.72526   4.73112   4.74027
 Alpha virt. eigenvalues --    4.75056   4.75700   4.75999   4.76509   4.77038
 Alpha virt. eigenvalues --    4.77897   4.78407   4.78932   4.79150   4.79785
 Alpha virt. eigenvalues --    4.81119   4.81428   4.82158   4.82639   4.82992
 Alpha virt. eigenvalues --    4.83672   4.84607   4.84972   4.85331   4.85993
 Alpha virt. eigenvalues --    4.86970   4.88086   4.88237   4.88559   4.89245
 Alpha virt. eigenvalues --    4.89872   4.90831   4.91430   4.92745   4.93050
 Alpha virt. eigenvalues --    4.93670   4.94034   4.94763   4.95655   4.95988
 Alpha virt. eigenvalues --    4.96970   4.97396   4.98072   4.98869   4.99677
 Alpha virt. eigenvalues --    4.99838   5.00214   5.01099   5.01540   5.02372
 Alpha virt. eigenvalues --    5.02887   5.03395   5.05500   5.06397   5.07087
 Alpha virt. eigenvalues --    5.07349   5.07678   5.09321   5.10375   5.13671
 Alpha virt. eigenvalues --    5.13831   5.15347   5.16352   5.17038   5.18260
 Alpha virt. eigenvalues --    5.18881   5.20075   5.20473   5.21738   5.21774
 Alpha virt. eigenvalues --    5.22883   5.23350   5.24007   5.24257   5.24527
 Alpha virt. eigenvalues --    5.26249   5.27876   5.28036   5.28363   5.30047
 Alpha virt. eigenvalues --    5.30817   5.34165   5.35239   5.35916   5.38038
 Alpha virt. eigenvalues --    5.38284   5.38953   5.41375   5.43052   5.43405
 Alpha virt. eigenvalues --    5.45104   5.45810   5.47222   5.48065   5.48806
 Alpha virt. eigenvalues --    5.51284   5.52107   5.53135   5.55863   5.56819
 Alpha virt. eigenvalues --    5.57906   5.59137   5.60401   5.61100   5.61263
 Alpha virt. eigenvalues --    5.61301   5.61805   5.63941   5.64240   5.65063
 Alpha virt. eigenvalues --    5.66387   5.70541   5.73950   5.74739   5.76761
 Alpha virt. eigenvalues --    5.79166   5.79813   5.80538   5.81126   5.86065
 Alpha virt. eigenvalues --    5.87556   5.88740   5.92379   5.95029   5.96442
 Alpha virt. eigenvalues --    6.00989   6.02389   6.03084   6.06602   6.06904
 Alpha virt. eigenvalues --    6.08587   6.09202   6.10423   6.14658   6.17917
 Alpha virt. eigenvalues --    6.18122   6.20762   6.31435   6.32162   6.33659
 Alpha virt. eigenvalues --    6.33936   6.34515   6.36043   6.39519   6.40667
 Alpha virt. eigenvalues --    6.41454   6.44860   6.47373   6.50801   6.54163
 Alpha virt. eigenvalues --    6.60564   6.62692   6.67721   6.73520   6.78170
 Alpha virt. eigenvalues --    6.81686   6.85283   6.92163   6.95254   7.02266
 Alpha virt. eigenvalues --    7.08090   7.11007   7.15902   7.18175   7.18678
 Alpha virt. eigenvalues --    7.25097   7.27174   9.04950   9.27583   9.49523
 Alpha virt. eigenvalues --   19.67455  22.35555  22.66046  22.73992  22.82322
 Alpha virt. eigenvalues --   22.88425  22.88473  22.92093  22.93520  22.94022
 Alpha virt. eigenvalues --   22.95585  22.99365  23.02599  23.03929  23.05175
 Alpha virt. eigenvalues --   23.08782  23.10275  23.11193  23.16337  23.22493
 Alpha virt. eigenvalues --   23.23724  23.25652  23.27819  23.34340  23.37632
 Alpha virt. eigenvalues --   23.40249  23.46032  23.47455  23.51837  23.53535
 Alpha virt. eigenvalues --   23.56545  23.60733  23.68152  23.78263  23.81884
 Alpha virt. eigenvalues --   23.88286  32.86622  32.90249  32.92186  33.12630
 Alpha virt. eigenvalues --   43.93594  43.95003  43.95813  43.99459
          Condensed to atoms (all electrons):
 Mulliken charges:
               1
     1  C   -0.298951
     2  S   -0.138912
     3  H    0.174216
     4  H    0.155045
     5  Fe   0.290555
     6  C   -0.530011
     7  C   -0.518785
     8  C   -0.523628
     9  C   -0.564894
    10  N   -0.274044
    11  C    0.350201
    12  C    0.000832
    13  C   -0.048499
    14  C    0.212417
    15  C   -0.372427
    16  C   -0.408251
    17  C   -0.203239
    18  C    0.277617
    19  O   -0.341043
    20  O   -0.353021
    21  N   -0.080313
    22  C    0.263401
    23  C   -0.095023
    24  C   -0.113550
    25  C    0.347951
    26  C   -0.357639
    27  C   -0.202329
    28  C   -0.355621
    29  N   -0.146656
    30  C    0.308132
    31  C   -0.091977
    32  C   -0.129007
    33  C    0.235655
    34  C   -0.374870
    35  C   -0.183663
    36  C   -0.332765
    37  N   -0.158153
    38  C    0.412937
    39  C   -0.127643
    40  C   -0.032553
    41  C    0.264988
    42  C   -0.366589
    43  C   -0.271200
    44  C   -0.219060
    45  C    0.277953
    46  O   -0.335240
    47  O   -0.353898
    48  H    0.114063
    49  H    0.124722
    50  H    0.117983
    51  H    0.122014
    52  H    0.140470
    53  H    0.128154
    54  H    0.137901
    55  H    0.147341
    56  H    0.127778
    57  H    0.134369
    58  H    0.131599
    59  H    0.142283
    60  H    0.138688
    61  H    0.120011
    62  H    0.109639
    63  H    0.121726
    64  H    0.131414
    65  H    0.120023
    66  H    0.150995
    67  H    0.137128
    68  H    0.124867
    69  H    0.113938
    70  H    0.124467
    71  H    0.112238
    72  H    0.122485
    73  H    0.135325
    74  H    0.113556
    75  H    0.138996
    76  H    0.133086
    77  H    0.101417
    78  H    0.135928
    79  H    0.128479
    80  H    0.355263
    81  H    0.358450
    82  H    0.115428
    83  H    0.100145
    84  H    0.149732
    85  H    0.169456
 Sum of Mulliken charges =  -0.00000
 Mulliken charges with hydrogens summed into heavy atoms:
               1
     1  C    0.180041
     2  S    0.030543
     5  Fe   0.290555
     6  C   -0.415948
     7  C   -0.394063
     8  C   -0.405645
     9  C   -0.442880
    10  N   -0.274044
    11  C    0.350201
    12  C    0.000832
    13  C   -0.048499
    14  C    0.212417
    15  C    0.034098
    16  C   -0.133132
    17  C    0.062729
    18  C    0.277617
    19  O    0.014220
    20  O   -0.353021
    21  N   -0.080313
    22  C    0.263401
    23  C   -0.095023
    24  C   -0.113550
    25  C    0.347951
    26  C    0.043343
    27  C    0.007455
    28  C    0.017542
    29  N   -0.146656
    30  C    0.308132
    31  C   -0.091977
    32  C   -0.129007
    33  C    0.235655
    34  C    0.038120
    35  C    0.045703
    36  C    0.026424
    37  N   -0.158153
    38  C    0.412937
    39  C   -0.127643
    40  C   -0.032553
    41  C    0.264988
    42  C    0.021288
    43  C   -0.036697
    44  C    0.045346
    45  C    0.277953
    46  O   -0.335240
    47  O    0.004552
 Electronic spatial extent (au):  <R**2>=          31201.4222
 Charge=              0.0000 electrons
 Dipole moment (field-independent basis, Debye):
    X=             -3.6619    Y=             -3.3763    Z=             -1.7822  Tot=              5.2901
 Quadrupole moment (field-independent basis, Debye-Ang):
   XX=           -264.7379   YY=           -258.5284   ZZ=           -276.0841
   XY=            -33.9311   XZ=            -39.0048   YZ=             -2.2686
 Traceless Quadrupole moment (field-independent basis, Debye-Ang):
   XX=              1.7122   YY=              7.9218   ZZ=             -9.6340
   XY=            -33.9311   XZ=            -39.0048   YZ=             -2.2686
 Octapole moment (field-independent basis, Debye-Ang**2):
  XXX=           -140.9139  YYY=            -85.4616  ZZZ=             18.3655  XYY=            -71.1504
  XXY=           -202.4762  XXZ=           -268.8752  XZZ=            -10.5733  YZZ=            -44.3337
  YYZ=            -97.2133  XYZ=             13.8465
 Hexadecapole moment (field-independent basis, Debye-Ang**3):
 XXXX=         -24130.9337 YYYY=         -14021.7653 ZZZZ=          -1600.7205 XXXY=          -1691.7035
 XXXZ=          -1995.0936 YYYX=           -857.6016 YYYZ=             -8.9658 ZZZX=           -237.3463
 ZZZY=             -7.8523 XXYY=          -6620.6906 XXZZ=          -4487.7489 YYZZ=          -2778.0795
 XXYZ=            174.4769 YYXZ=           -595.3951 ZZXY=           -346.7499
 N-N= 6.677562395980D+03 E-N=-2.168743411705D+04  KE= 3.532785847536D+03
 ******************************Gaussian NBO Version 3.1******************************
             N A T U R A L   A T O M I C   O R B I T A L   A N D
          N A T U R A L   B O N D   O R B I T A L   A N A L Y S I S
 ******************************Gaussian NBO Version 3.1******************************
       /RESON  / : Allow strongly delocalized NBO set

 Analyzing the SCF density

 Job title: 7abb_II_S_nbo                                                   

 Storage needed:   8240490 in NPA,  10968335 in NBO (2147446673 available)
 GSVD:  LWork=     1100983 too small for GESVD, short by     2166974 words or     2166974 for optimal perf.


 NATURAL POPULATIONS:  Natural atomic orbital occupancies 
                                                          
   NAO  Atom  No  lang   Type(AO)    Occupancy      Energy
 ----------------------------------------------------------
     1    C    1  S      Cor( 1S)     1.99922     -10.12034
     2    C    1  S      Val( 2S)     1.17370      -0.37504
     3    C    1  S      Ryd( 3S)     0.00067       1.31948
     4    C    1  S      Ryd( 4S)     0.00022       2.14669
     5    C    1  S      Ryd( 5S)     0.00000      21.34529
     6    C    1  px     Val( 2p)     1.10864      -0.15638
     7    C    1  px     Ryd( 3p)     0.00062       0.66528
     8    C    1  px     Ryd( 4p)     0.00047       1.57623
     9    C    1  py     Val( 2p)     1.20058      -0.14956
    10    C    1  py     Ryd( 3p)     0.00042       0.62758
    11    C    1  py     Ryd( 4p)     0.00047       1.60232
    12    C    1  pz     Val( 2p)     1.20083      -0.14929
    13    C    1  pz     Ryd( 3p)     0.00096       0.77176
    14    C    1  pz     Ryd( 4p)     0.00050       1.82510
    15    C    1  dxy    Ryd( 3d)     0.00365       1.31499
    16    C    1  dxy    Ryd( 4d)     0.00012       3.10908
    17    C    1  dxz    Ryd( 3d)     0.00222       1.17247
    18    C    1  dxz    Ryd( 4d)     0.00007       3.09050
    19    C    1  dyz    Ryd( 3d)     0.00202       1.28654
    20    C    1  dyz    Ryd( 4d)     0.00013       3.09035
    21    C    1  dx2y2  Ryd( 3d)     0.00205       0.95227
    22    C    1  dx2y2  Ryd( 4d)     0.00008       2.94438
    23    C    1  dz2    Ryd( 3d)     0.00201       1.16465
    24    C    1  dz2    Ryd( 4d)     0.00031       3.11146
    25    C    1  f(0)   Ryd( 4f)     0.00014       3.32860
    26    C    1  f(C1)  Ryd( 4f)     0.00011       3.39623
    27    C    1  f(S1)  Ryd( 4f)     0.00012       3.40452
    28    C    1  f(C2)  Ryd( 4f)     0.00005       3.30568
    29    C    1  f(S2)  Ryd( 4f)     0.00029       3.37208
    30    C    1  f(C3)  Ryd( 4f)     0.00005       3.27698
    31    C    1  f(S3)  Ryd( 4f)     0.00017       3.39673

    32    S    2  S      Cor( 1S)     2.00000     -87.72078
    33    S    2  S      Cor( 2S)     1.99855      -9.11157
    34    S    2  S      Val( 3S)     1.46801      -0.67695
    35    S    2  S      Ryd( 4S)     0.00359       1.11166
    36    S    2  S      Ryd( 5S)     0.00001      18.71874
    37    S    2  px     Cor( 2p)     1.99988      -5.94124
    38    S    2  px     Val( 3p)     1.28683      -0.20457
    39    S    2  px     Ryd( 4p)     0.00574       0.83590
    40    S    2  px     Ryd( 5p)     0.00016       2.38551
    41    S    2  px     Ryd( 6p)     0.00001       8.92100
    42    S    2  py     Cor( 2p)     1.99993      -5.93900
    43    S    2  py     Val( 3p)     1.68447      -0.24289
    44    S    2  py     Ryd( 4p)     0.00772       0.60583
    45    S    2  py     Ryd( 5p)     0.00011       2.18576
    46    S    2  py     Ryd( 6p)     0.00001       8.91478
    47    S    2  pz     Cor( 2p)     1.99966      -5.93991
    48    S    2  pz     Val( 3p)     1.27374      -0.22624
    49    S    2  pz     Ryd( 4p)     0.00230       0.68500
    50    S    2  pz     Ryd( 5p)     0.00012       2.42167
    51    S    2  pz     Ryd( 6p)     0.00001       8.95920
    52    S    2  dxy    Ryd( 3d)     0.00293       1.45861
    53    S    2  dxy    Ryd( 4d)     0.00012       2.09296
    54    S    2  dxz    Ryd( 3d)     0.00798       1.53044
    55    S    2  dxz    Ryd( 4d)     0.00030       2.24960
    56    S    2  dyz    Ryd( 3d)     0.00558       1.23700
    57    S    2  dyz    Ryd( 4d)     0.00034       2.07230
    58    S    2  dx2y2  Ryd( 3d)     0.00215       1.10340
    59    S    2  dx2y2  Ryd( 4d)     0.00018       1.94601
    60    S    2  dz2    Ryd( 3d)     0.00212       1.35791
    61    S    2  dz2    Ryd( 4d)     0.00020       2.13648
    62    S    2  f(0)   Ryd( 4f)     0.00046       2.01419
    63    S    2  f(C1)  Ryd( 4f)     0.00016       2.17333
    64    S    2  f(S1)  Ryd( 4f)     0.00020       2.06842
    65    S    2  f(C2)  Ryd( 4f)     0.00016       2.07753
    66    S    2  f(S2)  Ryd( 4f)     0.00034       2.21760
    67    S    2  f(C3)  Ryd( 4f)     0.00037       2.00452
    68    S    2  f(S3)  Ryd( 4f)     0.00022       2.08180

    69    H    3  S      Val( 1S)     0.73502       0.04342
    70    H    3  S      Ryd( 3S)     0.00088       1.57416
    71    H    3  S      Ryd( 2S)     0.00011       1.52118
    72    H    3  px     Ryd( 2p)     0.00011       2.36522
    73    H    3  py     Ryd( 2p)     0.00015       2.85402
    74    H    3  pz     Ryd( 2p)     0.00019       2.52053

    75    H    4  S      Val( 1S)     0.77010       0.01434
    76    H    4  S      Ryd( 3S)     0.00049       1.24120
    77    H    4  S      Ryd( 2S)     0.00010       1.12889
    78    H    4  px     Ryd( 2p)     0.00015       2.27599
    79    H    4  py     Ryd( 2p)     0.00011       2.29226
    80    H    4  pz     Ryd( 2p)     0.00015       2.86260

    81   Fe    5  S      Cor( 1S)     2.00000    -250.12669
    82   Fe    5  S      Cor( 2S)     1.99999     -34.94377
    83   Fe    5  S      Cor( 3S)     1.98948      -4.64373
    84   Fe    5  S      Val( 4S)     0.25680       0.30842
    85   Fe    5  S      Ryd( 5S)     0.00161       0.70788
    86   Fe    5  S      Ryd( 6S)     0.00020       1.65040
    87   Fe    5  px     Cor( 2p)     2.00000     -25.83827
    88   Fe    5  px     Cor( 3p)     1.99403      -2.23893
    89   Fe    5  px     Val( 4p)     0.16965       0.48306
    90   Fe    5  px     Ryd( 5p)     0.00035       2.14546
    91   Fe    5  py     Cor( 2p)     2.00000     -25.84310
    92   Fe    5  py     Cor( 3p)     1.99401      -2.24554
    93   Fe    5  py     Val( 4p)     0.18257       0.49498
    94   Fe    5  py     Ryd( 5p)     0.00031       2.20131
    95   Fe    5  pz     Cor( 2p)     2.00000     -25.84566
    96   Fe    5  pz     Cor( 3p)     1.99734      -2.26517
    97   Fe    5  pz     Val( 4p)     0.19021       0.28665
    98   Fe    5  pz     Ryd( 5p)     0.00047       2.01328
    99   Fe    5  dxy    Val( 3d)     0.66830      -0.10093
   100   Fe    5  dxy    Ryd( 4d)     0.00322       1.22709
   101   Fe    5  dxy    Ryd( 5d)     0.00071       1.52593
   102   Fe    5  dxy    Ryd( 6d)     0.00036       3.48092
   103   Fe    5  dxz    Val( 3d)     1.86253      -0.21838
   104   Fe    5  dxz    Ryd( 4d)     0.00390       0.59912
   105   Fe    5  dxz    Ryd( 5d)     0.00049       1.21861
   106   Fe    5  dxz    Ryd( 6d)     0.00007       3.54039
   107   Fe    5  dyz    Val( 3d)     1.87994      -0.22659
   108   Fe    5  dyz    Ryd( 4d)     0.00326       0.60651
   109   Fe    5  dyz    Ryd( 5d)     0.00064       1.21024
   110   Fe    5  dyz    Ryd( 6d)     0.00010       3.51897
   111   Fe    5  dx2y2  Val( 3d)     1.92008      -0.21234
   112   Fe    5  dx2y2  Ryd( 4d)     0.00511       1.04802
   113   Fe    5  dx2y2  Ryd( 5d)     0.00107       1.37094
   114   Fe    5  dx2y2  Ryd( 6d)     0.00023       3.45330
   115   Fe    5  dz2    Val( 3d)     0.54846      -0.11232
   116   Fe    5  dz2    Ryd( 4d)     0.00278       0.97658
   117   Fe    5  dz2    Ryd( 5d)     0.00087       1.29457
   118   Fe    5  dz2    Ryd( 6d)     0.00015       3.54931
   119   Fe    5  f(0)   Ryd( 4f)     0.00011       4.32852
   120   Fe    5  f(C1)  Ryd( 4f)     0.00006       4.30003
   121   Fe    5  f(S1)  Ryd( 4f)     0.00007       4.31768
   122   Fe    5  f(C2)  Ryd( 4f)     0.00002       4.21711
   123   Fe    5  f(S2)  Ryd( 4f)     0.00010       4.34095
   124   Fe    5  f(C3)  Ryd( 4f)     0.00013       4.50685
   125   Fe    5  f(S3)  Ryd( 4f)     0.00013       4.47537

   126    C    6  S      Cor( 1S)     1.99893     -10.01961
   127    C    6  S      Val( 2S)     0.92170      -0.14967
   128    C    6  S      Ryd( 3S)     0.00060       1.50603
   129    C    6  S      Ryd( 4S)     0.00001       1.73587
   130    C    6  S      Ryd( 5S)     0.00001      20.75721
   131    C    6  px     Val( 2p)     1.17832      -0.02295
   132    C    6  px     Ryd( 3p)     0.00338       0.92868
   133    C    6  px     Ryd( 4p)     0.00031       2.05158
   134    C    6  py     Val( 2p)     1.07733      -0.04355
   135    C    6  py     Ryd( 3p)     0.00134       1.12668
   136    C    6  py     Ryd( 4p)     0.00040       2.24864
   137    C    6  pz     Val( 2p)     1.03082      -0.10542
   138    C    6  pz     Ryd( 3p)     0.00419       0.51423
   139    C    6  pz     Ryd( 4p)     0.00021       1.55559
   140    C    6  dxy    Ryd( 3d)     0.00247       2.20960
   141    C    6  dxy    Ryd( 4d)     0.00014       3.71562
   142    C    6  dxz    Ryd( 3d)     0.00042       1.39670
   143    C    6  dxz    Ryd( 4d)     0.00010       2.92331
   144    C    6  dyz    Ryd( 3d)     0.00076       1.60877
   145    C    6  dyz    Ryd( 4d)     0.00011       3.10119
   146    C    6  dx2y2  Ryd( 3d)     0.00125       2.46313
   147    C    6  dx2y2  Ryd( 4d)     0.00032       4.07476
   148    C    6  dz2    Ryd( 3d)     0.00119       1.82490
   149    C    6  dz2    Ryd( 4d)     0.00004       3.46036
   150    C    6  f(0)   Ryd( 4f)     0.00027       3.50303
   151    C    6  f(C1)  Ryd( 4f)     0.00010       3.81660
   152    C    6  f(S1)  Ryd( 4f)     0.00013       4.15506
   153    C    6  f(C2)  Ryd( 4f)     0.00002       3.58578
   154    C    6  f(S2)  Ryd( 4f)     0.00002       3.58238
   155    C    6  f(C3)  Ryd( 4f)     0.00013       4.59557
   156    C    6  f(S3)  Ryd( 4f)     0.00002       4.31154

   157    C    7  S      Cor( 1S)     1.99902     -10.03529
   158    C    7  S      Val( 2S)     0.93758      -0.16862
   159    C    7  S      Ryd( 3S)     0.00066       1.41335
   160    C    7  S      Ryd( 4S)     0.00001       1.58684
   161    C    7  S      Ryd( 5S)     0.00000      21.14667
   162    C    7  px     Val( 2p)     1.06071      -0.04274
   163    C    7  px     Ryd( 3p)     0.00138       1.03212
   164    C    7  px     Ryd( 4p)     0.00044       1.84604
   165    C    7  py     Val( 2p)     1.17462      -0.02094
   166    C    7  py     Ryd( 3p)     0.00299       0.94509
   167    C    7  py     Ryd( 4p)     0.00026       1.89779
   168    C    7  pz     Val( 2p)     1.03445      -0.10759
   169    C    7  pz     Ryd( 3p)     0.00392       0.51209
   170    C    7  pz     Ryd( 4p)     0.00013       1.45077
   171    C    7  dxy    Ryd( 4d)     0.00050       3.98235
   172    C    7  dxy    Ryd( 3d)     0.00003       3.46283
   173    C    7  dxz    Ryd( 4d)     0.00052       3.15195
   174    C    7  dxz    Ryd( 3d)     0.00011       2.40544
   175    C    7  dyz    Ryd( 4d)     0.00008       2.95732
   176    C    7  dyz    Ryd( 3d)     0.00004       2.25962
   177    C    7  dx2y2  Ryd( 4d)     0.00068       3.82780
   178    C    7  dx2y2  Ryd( 3d)     0.00005       3.74300
   179    C    7  dz2    Ryd( 4d)     0.00034       3.77735
   180    C    7  dz2    Ryd( 3d)     0.00003       3.15440
   181    C    7  f(0)   Ryd( 4f)     0.00029       3.33789
   182    C    7  f(C1)  Ryd( 4f)     0.00007       3.92114
   183    C    7  f(S1)  Ryd( 4f)     0.00008       3.69282
   184    C    7  f(C2)  Ryd( 4f)     0.00001       3.49550
   185    C    7  f(S2)  Ryd( 4f)     0.00001       3.34264
   186    C    7  f(C3)  Ryd( 4f)     0.00002       4.28053
   187    C    7  f(S3)  Ryd( 4f)     0.00008       4.64995

   188    C    8  S      Cor( 1S)     1.99899     -10.02847
   189    C    8  S      Val( 2S)     0.92551      -0.15582
   190    C    8  S      Ryd( 3S)     0.00101       1.53915
   191    C    8  S      Ryd( 4S)     0.00001       1.63601
   192    C    8  S      Ryd( 5S)     0.00001      20.96068
   193    C    8  px     Val( 2p)     1.18620      -0.02472
   194    C    8  px     Ryd( 3p)     0.00205       0.98596
   195    C    8  px     Ryd( 4p)     0.00038       1.95500
   196    C    8  py     Val( 2p)     1.06434      -0.04312
   197    C    8  py     Ryd( 3p)     0.00169       1.08452
   198    C    8  py     Ryd( 4p)     0.00040       2.04279
   199    C    8  pz     Val( 2p)     1.04716      -0.11023
   200    C    8  pz     Ryd( 3p)     0.00345       0.53421
   201    C    8  pz     Ryd( 4p)     0.00024       1.47524
   202    C    8  dxy    Ryd( 3d)     0.00235       2.17624
   203    C    8  dxy    Ryd( 4d)     0.00015       3.62855
   204    C    8  dxz    Ryd( 3d)     0.00032       1.38874
   205    C    8  dxz    Ryd( 4d)     0.00007       2.85555
   206    C    8  dyz    Ryd( 3d)     0.00078       1.60477
   207    C    8  dyz    Ryd( 4d)     0.00007       3.05144
   208    C    8  dx2y2  Ryd( 3d)     0.00104       2.47390
   209    C    8  dx2y2  Ryd( 4d)     0.00036       4.10886
   210    C    8  dz2    Ryd( 3d)     0.00130       1.84692
   211    C    8  dz2    Ryd( 4d)     0.00004       3.48355
   212    C    8  f(0)   Ryd( 4f)     0.00028       3.43978
   213    C    8  f(C1)  Ryd( 4f)     0.00010       3.81609
   214    C    8  f(S1)  Ryd( 4f)     0.00012       4.11499
   215    C    8  f(C2)  Ryd( 4f)     0.00001       3.52054
   216    C    8  f(S2)  Ryd( 4f)     0.00002       3.53211
   217    C    8  f(C3)  Ryd( 4f)     0.00014       4.63865
   218    C    8  f(S3)  Ryd( 4f)     0.00002       4.28433

   219    C    9  S      Cor( 1S)     1.99896     -10.02455
   220    C    9  S      Val( 2S)     0.92146      -0.15098
   221    C    9  S      Ryd( 3S)     0.00085       1.51036
   222    C    9  S      Ryd( 4S)     0.00001       1.59114
   223    C    9  S      Ryd( 5S)     0.00001      20.83892
   224    C    9  px     Val( 2p)     1.06808      -0.04050
   225    C    9  px     Ryd( 3p)     0.00168       1.05651
   226    C    9  px     Ryd( 4p)     0.00044       2.02157
   227    C    9  py     Val( 2p)     1.18318      -0.02666
   228    C    9  py     Ryd( 3p)     0.00236       0.96788
   229    C    9  py     Ryd( 4p)     0.00035       1.94216
   230    C    9  pz     Val( 2p)     1.03346      -0.10481
   231    C    9  pz     Ryd( 3p)     0.00337       0.54087
   232    C    9  pz     Ryd( 4p)     0.00021       1.48513
   233    C    9  dxy    Ryd( 3d)     0.00237       2.14716
   234    C    9  dxy    Ryd( 4d)     0.00017       3.59380
   235    C    9  dxz    Ryd( 3d)     0.00090       1.59057
   236    C    9  dxz    Ryd( 4d)     0.00007       3.08284
   237    C    9  dyz    Ryd( 3d)     0.00046       1.39826
   238    C    9  dyz    Ryd( 4d)     0.00010       2.94123
   239    C    9  dx2y2  Ryd( 3d)     0.00110       2.44468
   240    C    9  dx2y2  Ryd( 4d)     0.00033       4.08514
   241    C    9  dz2    Ryd( 3d)     0.00123       1.78973
   242    C    9  dz2    Ryd( 4d)     0.00005       3.43653
   243    C    9  f(0)   Ryd( 4f)     0.00026       3.51175
   244    C    9  f(C1)  Ryd( 4f)     0.00011       4.13022
   245    C    9  f(S1)  Ryd( 4f)     0.00011       3.70097
   246    C    9  f(C2)  Ryd( 4f)     0.00003       3.59867
   247    C    9  f(S2)  Ryd( 4f)     0.00003       3.57083
   248    C    9  f(C3)  Ryd( 4f)     0.00002       4.25476
   249    C    9  f(S3)  Ryd( 4f)     0.00014       4.58231

   250    N   10  S      Cor( 1S)     1.99937     -14.17019
   251    N   10  S      Val( 2S)     1.38558      -0.52358
   252    N   10  S      Ryd( 3S)     0.00294       2.02881
   253    N   10  S      Ryd( 4S)     0.00007       2.81836
   254    N   10  S      Ryd( 5S)     0.00000      31.18083
   255    N   10  px     Val( 2p)     1.35584      -0.15724
   256    N   10  px     Ryd( 3p)     0.00547       1.30704
   257    N   10  px     Ryd( 4p)     0.00018       4.01342
   258    N   10  py     Val( 2p)     1.31440      -0.15045
   259    N   10  py     Ryd( 3p)     0.00589       1.22916
   260    N   10  py     Ryd( 4p)     0.00017       3.99318
   261    N   10  pz     Val( 2p)     1.37097      -0.17189
   262    N   10  pz     Ryd( 3p)     0.00458       0.72523
   263    N   10  pz     Ryd( 4p)     0.00028       2.66126
   264    N   10  dxy    Ryd( 3d)     0.00219       1.92809
   265    N   10  dxy    Ryd( 4d)     0.00034       4.95810
   266    N   10  dxz    Ryd( 3d)     0.00218       1.45676
   267    N   10  dxz    Ryd( 4d)     0.00009       4.76269
   268    N   10  dyz    Ryd( 3d)     0.00190       1.44632
   269    N   10  dyz    Ryd( 4d)     0.00010       4.76171
   270    N   10  dx2y2  Ryd( 3d)     0.00739       1.89615
   271    N   10  dx2y2  Ryd( 4d)     0.00015       5.13325
   272    N   10  dz2    Ryd( 3d)     0.00479       1.54621
   273    N   10  dz2    Ryd( 4d)     0.00003       5.01829
   274    N   10  f(0)   Ryd( 4f)     0.00020       4.50036
   275    N   10  f(C1)  Ryd( 4f)     0.00007       4.61618
   276    N   10  f(S1)  Ryd( 4f)     0.00008       4.60167
   277    N   10  f(C2)  Ryd( 4f)     0.00002       4.70031
   278    N   10  f(S2)  Ryd( 4f)     0.00001       4.33596
   279    N   10  f(C3)  Ryd( 4f)     0.00006       5.22288
   280    N   10  f(S3)  Ryd( 4f)     0.00010       5.23622

   281    C   11  S      Cor( 1S)     1.99907     -10.08362
   282    C   11  S      Val( 2S)     0.87151      -0.14582
   283    C   11  S      Ryd( 3S)     0.00196       1.36188
   284    C   11  S      Ryd( 4S)     0.00066       1.99351
   285    C   11  S      Ryd( 5S)     0.00002      20.58310
   286    C   11  px     Val( 2p)     0.93566      -0.02797
   287    C   11  px     Ryd( 3p)     0.00507       1.45755
   288    C   11  px     Ryd( 4p)     0.00084       1.97327
   289    C   11  py     Val( 2p)     1.05227      -0.03089
   290    C   11  py     Ryd( 3p)     0.00381       1.33827
   291    C   11  py     Ryd( 4p)     0.00030       1.90796
   292    C   11  pz     Val( 2p)     0.98009      -0.09153
   293    C   11  pz     Ryd( 3p)     0.00188       0.77232
   294    C   11  pz     Ryd( 4p)     0.00035       1.39385
   295    C   11  dxy    Ryd( 3d)     0.00073       3.05893
   296    C   11  dxy    Ryd( 4d)     0.00053       3.93908
   297    C   11  dxz    Ryd( 3d)     0.00085       1.64882
   298    C   11  dxz    Ryd( 4d)     0.00013       3.07829
   299    C   11  dyz    Ryd( 3d)     0.00086       1.62401
   300    C   11  dyz    Ryd( 4d)     0.00010       3.15073
   301    C   11  dx2y2  Ryd( 3d)     0.00051       2.99760
   302    C   11  dx2y2  Ryd( 4d)     0.00080       4.12144
   303    C   11  dz2    Ryd( 3d)     0.00048       2.31355
   304    C   11  dz2    Ryd( 4d)     0.00006       3.69473
   305    C   11  f(0)   Ryd( 4f)     0.00014       3.55824
   306    C   11  f(C1)  Ryd( 4f)     0.00004       3.76354
   307    C   11  f(S1)  Ryd( 4f)     0.00005       4.05680
   308    C   11  f(C2)  Ryd( 4f)     0.00002       3.69158
   309    C   11  f(S2)  Ryd( 4f)     0.00002       3.62224
   310    C   11  f(C3)  Ryd( 4f)     0.00009       4.56422
   311    C   11  f(S3)  Ryd( 4f)     0.00004       4.58161

   312    C   12  S      Cor( 1S)     1.99867     -10.05935
   313    C   12  S      Val( 2S)     0.93043      -0.17922
   314    C   12  S      Ryd( 3S)     0.00109       1.52829
   315    C   12  S      Ryd( 4S)     0.00055       1.82645
   316    C   12  S      Ryd( 5S)     0.00000      20.63393
   317    C   12  px     Val( 2p)     1.02436      -0.02774
   318    C   12  px     Ryd( 3p)     0.00294       1.40152
   319    C   12  px     Ryd( 4p)     0.00051       1.92606
   320    C   12  py     Val( 2p)     1.04181      -0.04124
   321    C   12  py     Ryd( 3p)     0.00363       1.13841
   322    C   12  py     Ryd( 4p)     0.00058       1.83326
   323    C   12  pz     Val( 2p)     1.03004      -0.09297
   324    C   12  pz     Ryd( 3p)     0.00220       0.76824
   325    C   12  pz     Ryd( 4p)     0.00029       1.42333
   326    C   12  dxy    Ryd( 3d)     0.00144       2.42882
   327    C   12  dxy    Ryd( 4d)     0.00036       3.93551
   328    C   12  dxz    Ryd( 3d)     0.00115       1.55654
   329    C   12  dxz    Ryd( 4d)     0.00020       3.26986
   330    C   12  dyz    Ryd( 3d)     0.00063       1.47175
   331    C   12  dyz    Ryd( 4d)     0.00013       3.16359
   332    C   12  dx2y2  Ryd( 3d)     0.00062       2.60827
   333    C   12  dx2y2  Ryd( 4d)     0.00052       3.95966
   334    C   12  dz2    Ryd( 3d)     0.00122       2.27290
   335    C   12  dz2    Ryd( 4d)     0.00005       3.68559
   336    C   12  f(0)   Ryd( 4f)     0.00017       3.56376
   337    C   12  f(C1)  Ryd( 4f)     0.00011       3.89574
   338    C   12  f(S1)  Ryd( 4f)     0.00005       3.86433
   339    C   12  f(C2)  Ryd( 4f)     0.00002       3.57191
   340    C   12  f(S2)  Ryd( 4f)     0.00004       3.63253
   341    C   12  f(C3)  Ryd( 4f)     0.00014       4.56261
   342    C   12  f(S3)  Ryd( 4f)     0.00003       4.33458

   343    C   13  S      Cor( 1S)     1.99876     -10.05657
   344    C   13  S      Val( 2S)     0.92496      -0.17560
   345    C   13  S      Ryd( 4S)     0.00077       1.95930
   346    C   13  S      Ryd( 3S)     0.00001       1.81835
   347    C   13  S      Ryd( 5S)     0.00000      21.05018
   348    C   13  px     Val( 2p)     1.04366      -0.03978
   349    C   13  px     Ryd( 3p)     0.00295       1.17229
   350    C   13  px     Ryd( 4p)     0.00029       1.81577
   351    C   13  py     Val( 2p)     1.02461      -0.03124
   352    C   13  py     Ryd( 3p)     0.00264       1.35600
   353    C   13  py     Ryd( 4p)     0.00049       1.77983
   354    C   13  pz     Val( 2p)     1.01521      -0.09170
   355    C   13  pz     Ryd( 3p)     0.00187       0.77206
   356    C   13  pz     Ryd( 4p)     0.00041       1.28202
   357    C   13  dxy    Ryd( 3d)     0.00120       2.01689
   358    C   13  dxy    Ryd( 4d)     0.00068       3.81083
   359    C   13  dxz    Ryd( 3d)     0.00057       1.38176
   360    C   13  dxz    Ryd( 4d)     0.00015       3.15291
   361    C   13  dyz    Ryd( 3d)     0.00076       1.32786
   362    C   13  dyz    Ryd( 4d)     0.00049       3.12295
   363    C   13  dx2y2  Ryd( 3d)     0.00057       2.22645
   364    C   13  dx2y2  Ryd( 4d)     0.00054       3.98828
   365    C   13  dz2    Ryd( 3d)     0.00122       1.81486
   366    C   13  dz2    Ryd( 4d)     0.00005       3.65600
   367    C   13  f(0)   Ryd( 4f)     0.00021       3.50514
   368    C   13  f(C1)  Ryd( 4f)     0.00006       3.84732
   369    C   13  f(S1)  Ryd( 4f)     0.00012       3.83789
   370    C   13  f(C2)  Ryd( 4f)     0.00001       3.53331
   371    C   13  f(S2)  Ryd( 4f)     0.00003       3.58649
   372    C   13  f(C3)  Ryd( 4f)     0.00007       4.40420
   373    C   13  f(S3)  Ryd( 4f)     0.00013       4.39232

   374    C   14  S      Cor( 1S)     1.99911     -10.08404
   375    C   14  S      Val( 2S)     0.87304      -0.15010
   376    C   14  S      Ryd( 3S)     0.00223       1.23319
   377    C   14  S      Ryd( 4S)     0.00081       1.65312
   378    C   14  S      Ryd( 5S)     0.00001      21.64022
   379    C   14  px     Val( 2p)     1.05269      -0.03548
   380    C   14  px     Ryd( 3p)     0.00382       1.30758
   381    C   14  px     Ryd( 4p)     0.00028       1.79792
   382    C   14  py     Val( 2p)     0.93951      -0.02959
   383    C   14  py     Ryd( 3p)     0.00516       1.46312
   384    C   14  py     Ryd( 4p)     0.00082       1.89097
   385    C   14  pz     Val( 2p)     0.98687      -0.09272
   386    C   14  pz     Ryd( 3p)     0.00179       0.81142
   387    C   14  pz     Ryd( 4p)     0.00033       1.40683
   388    C   14  dxy    Ryd( 3d)     0.00113       2.67260
   389    C   14  dxy    Ryd( 4d)     0.00055       3.99082
   390    C   14  dxz    Ryd( 3d)     0.00087       1.61048
   391    C   14  dxz    Ryd( 4d)     0.00010       2.89395
   392    C   14  dyz    Ryd( 3d)     0.00098       1.67640
   393    C   14  dyz    Ryd( 4d)     0.00018       2.89778
   394    C   14  dx2y2  Ryd( 3d)     0.00069       2.47956
   395    C   14  dx2y2  Ryd( 4d)     0.00090       4.07194
   396    C   14  dz2    Ryd( 3d)     0.00059       2.10361
[...]
 Alpha virt. eigenvalues --    2.27598   2.27747   2.28622   2.28861   2.28980
 Alpha virt. eigenvalues --    2.29611   2.30182   2.30596   2.30810   2.30894
 Alpha virt. eigenvalues --    2.31162   2.31853   2.32075   2.32638   2.32889
 Alpha virt. eigenvalues --    2.33869   2.34041   2.34975   2.35517   2.35751
 Alpha virt. eigenvalues --    2.36394   2.37146   2.37423   2.37575   2.38147
 Alpha virt. eigenvalues --    2.38725   2.39131   2.39485   2.39796   2.40719
 Alpha virt. eigenvalues --    2.41313   2.41664   2.42151   2.42618   2.42810
 Alpha virt. eigenvalues --    2.43375   2.43433   2.44370   2.44595   2.44929
 Alpha virt. eigenvalues --    2.45157   2.45981   2.46054   2.47023   2.47147
 Alpha virt. eigenvalues --    2.47616   2.47942   2.48137   2.48692   2.49097
 Alpha virt. eigenvalues --    2.50005   2.50117   2.50786   2.51128   2.51594
 Alpha virt. eigenvalues --    2.52212   2.53292   2.53327   2.53824   2.54035
 Alpha virt. eigenvalues --    2.54660   2.55253   2.55564   2.55955   2.56255
 Alpha virt. eigenvalues --    2.56636   2.57043   2.57435   2.57615   2.57914
 Alpha virt. eigenvalues --    2.58309   2.58717   2.59279   2.60069   2.60170
 Alpha virt. eigenvalues --    2.60620   2.60844   2.60967   2.61534   2.61816
 Alpha virt. eigenvalues --    2.62297   2.62483   2.63171   2.63316   2.63890
 Alpha virt. eigenvalues --    2.64019   2.64705   2.65172   2.65398   2.66499
 Alpha virt. eigenvalues --    2.66562   2.67273   2.67381   2.67936   2.68422
 Alpha virt. eigenvalues --    2.69071   2.69351   2.69672   2.69839   2.70418
 Alpha virt. eigenvalues --    2.70607   2.70761   2.71318   2.71845   2.72131
 Alpha virt. eigenvalues --    2.72237   2.72847   2.72952   2.73208   2.73630
 Alpha virt. eigenvalues --    2.74187   2.74631   2.74855   2.75223   2.76028
 Alpha virt. eigenvalues --    2.76313   2.76662   2.76916   2.77235   2.77847
 Alpha virt. eigenvalues --    2.78159   2.78634   2.78734   2.78903   2.79349
 Alpha virt. eigenvalues --    2.79995   2.80388   2.80484   2.80941   2.81162
 Alpha virt. eigenvalues --    2.81348   2.81633   2.81952   2.82767   2.82976
 Alpha virt. eigenvalues --    2.83035   2.83591   2.84141   2.84215   2.84629
 Alpha virt. eigenvalues --    2.85055   2.85293   2.85467   2.85937   2.86085
 Alpha virt. eigenvalues --    2.86931   2.87065   2.87563   2.87882   2.88276
 Alpha virt. eigenvalues --    2.88475   2.88895   2.89285   2.89549   2.89703
 Alpha virt. eigenvalues --    2.89858   2.90677   2.91066   2.91722   2.91798
 Alpha virt. eigenvalues --    2.92375   2.92521   2.93260   2.93425   2.93601
 Alpha virt. eigenvalues --    2.93894   2.94455   2.94645   2.94996   2.95558
 Alpha virt. eigenvalues --    2.96033   2.96647   2.96894   2.97128   2.97222
 Alpha virt. eigenvalues --    2.97577   2.97814   2.98377   2.98428   2.98827
 Alpha virt. eigenvalues --    2.98971   2.99609   2.99917   3.00359   3.00668
 Alpha virt. eigenvalues --    3.00795   3.01407   3.01595   3.01999   3.02183
 Alpha virt. eigenvalues --    3.02498   3.02904   3.03134   3.03846   3.04019
 Alpha virt. eigenvalues --    3.04157   3.04516   3.04578   3.04903   3.05048
 Alpha virt. eigenvalues --    3.05527   3.05870   3.06069   3.06227   3.06471
 Alpha virt. eigenvalues --    3.06883   3.07113   3.07354   3.07763   3.08472
 Alpha virt. eigenvalues --    3.08895   3.09097   3.09539   3.09680   3.09783
 Alpha virt. eigenvalues --    3.10322   3.10540   3.11053   3.11271   3.11918
 Alpha virt. eigenvalues --    3.12257   3.12282   3.12811   3.12929   3.13258
 Alpha virt. eigenvalues --    3.13785   3.14119   3.14583   3.14801   3.14896
 Alpha virt. eigenvalues --    3.15173   3.15530   3.15719   3.15946   3.16519
 Alpha virt. eigenvalues --    3.17056   3.17379   3.17901   3.18122   3.18336
 Alpha virt. eigenvalues --    3.18805   3.19051   3.19275   3.19917   3.20410
 Alpha virt. eigenvalues --    3.20915   3.21141   3.21491   3.21541   3.22068
 Alpha virt. eigenvalues --    3.22503   3.23046   3.23215   3.23339   3.23453
 Alpha virt. eigenvalues --    3.23834   3.23859   3.24632   3.24925   3.25067
 Alpha virt. eigenvalues --    3.25187   3.25996   3.26611   3.26898   3.27054
 Alpha virt. eigenvalues --    3.27601   3.27852   3.28140   3.28525   3.28651
 Alpha virt. eigenvalues --    3.29040   3.29596   3.29725   3.29947   3.30108
 Alpha virt. eigenvalues --    3.30676   3.30864   3.31334   3.31373   3.31803
 Alpha virt. eigenvalues --    3.32160   3.32409   3.32772   3.32882   3.33539
 Alpha virt. eigenvalues --    3.33664   3.33912   3.34537   3.34870   3.34904
 Alpha virt. eigenvalues --    3.35034   3.35345   3.35550   3.36101   3.36272
 Alpha virt. eigenvalues --    3.36736   3.36959   3.37045   3.37538   3.37856
 Alpha virt. eigenvalues --    3.38056   3.38297   3.38461   3.38734   3.39065
 Alpha virt. eigenvalues --    3.39410   3.39552   3.39778   3.40098   3.40257
 Alpha virt. eigenvalues --    3.40404   3.40781   3.41232   3.41542   3.41666
 Alpha virt. eigenvalues --    3.42020   3.42318   3.42440   3.42584   3.43203
 Alpha virt. eigenvalues --    3.43863   3.44161   3.44433   3.44571   3.44896
 Alpha virt. eigenvalues --    3.45095   3.45265   3.45508   3.45959   3.46418
 Alpha virt. eigenvalues --    3.46776   3.47026   3.47131   3.47812   3.47939
 Alpha virt. eigenvalues --    3.48207   3.48343   3.48677   3.49027   3.49559
 Alpha virt. eigenvalues --    3.49755   3.49886   3.50619   3.50643   3.51499
 Alpha virt. eigenvalues --    3.51873   3.51979   3.52363   3.52821   3.53146
 Alpha virt. eigenvalues --    3.53649   3.53830   3.54435   3.54700   3.54908
 Alpha virt. eigenvalues --    3.55671   3.56043   3.56133   3.57077   3.57161
 Alpha virt. eigenvalues --    3.57759   3.58264   3.58530   3.58954   3.59275
 Alpha virt. eigenvalues --    3.59949   3.60103   3.60683   3.61350   3.61651
 Alpha virt. eigenvalues --    3.61918   3.62084   3.62380   3.62728   3.63232
 Alpha virt. eigenvalues --    3.63784   3.64015   3.64514   3.64956   3.65329
 Alpha virt. eigenvalues --    3.66137   3.66423   3.66806   3.67330   3.67634
 Alpha virt. eigenvalues --    3.67938   3.68308   3.68588   3.69103   3.69375
 Alpha virt. eigenvalues --    3.69975   3.70308   3.70759   3.71030   3.71390
 Alpha virt. eigenvalues --    3.72105   3.72689   3.72956   3.73586   3.73911
 Alpha virt. eigenvalues --    3.74576   3.74782   3.75481   3.75727   3.76129
 Alpha virt. eigenvalues --    3.76346   3.76512   3.76872   3.77946   3.78024
 Alpha virt. eigenvalues --    3.78701   3.78922   3.79406   3.79576   3.80539
 Alpha virt. eigenvalues --    3.80807   3.81754   3.82265   3.82745   3.83039
 Alpha virt. eigenvalues --    3.83206   3.83666   3.83771   3.84459   3.84713
 Alpha virt. eigenvalues --    3.85113   3.85844   3.86559   3.86730   3.87381
 Alpha virt. eigenvalues --    3.87805   3.88035   3.88428   3.89335   3.89573
 Alpha virt. eigenvalues --    3.90024   3.90533   3.90648   3.91500   3.93004
 Alpha virt. eigenvalues --    3.93540   3.93981   3.94092   3.94871   3.95813
 Alpha virt. eigenvalues --    3.95910   3.96607   3.96890   3.97431   3.97774
 Alpha virt. eigenvalues --    3.98469   4.00158   4.00730   4.01011   4.01210
 Alpha virt. eigenvalues --    4.01879   4.01946   4.02507   4.02917   4.03344
 Alpha virt. eigenvalues --    4.03653   4.04374   4.05123   4.05502   4.05719
 Alpha virt. eigenvalues --    4.06981   4.07635   4.07758   4.08614   4.09208
 Alpha virt. eigenvalues --    4.09615   4.09972   4.11554   4.12159   4.12842
 Alpha virt. eigenvalues --    4.13529   4.13593   4.14645   4.14692   4.15739
 Alpha virt. eigenvalues --    4.16403   4.16655   4.17326   4.18193   4.18790
 Alpha virt. eigenvalues --    4.19133   4.19782   4.20410   4.21041   4.21573
 Alpha virt. eigenvalues --    4.22242   4.22969   4.23406   4.23704   4.23972
 Alpha virt. eigenvalues --    4.25207   4.25604   4.26218   4.26539   4.27710
 Alpha virt. eigenvalues --    4.28662   4.28919   4.29360   4.30159   4.30870
 Alpha virt. eigenvalues --    4.31223   4.32121   4.32559   4.33681   4.34296
 Alpha virt. eigenvalues --    4.34795   4.35409   4.35900   4.36555   4.37129
 Alpha virt. eigenvalues --    4.37721   4.38197   4.38966   4.39528   4.39926
 Alpha virt. eigenvalues --    4.40346   4.41500   4.41939   4.42163   4.43135
 Alpha virt. eigenvalues --    4.43708   4.44394   4.45187   4.45848   4.46791
 Alpha virt. eigenvalues --    4.47510   4.48269   4.48490   4.49436   4.50251
 Alpha virt. eigenvalues --    4.50925   4.51484   4.52639   4.53420   4.53817
 Alpha virt. eigenvalues --    4.54641   4.54934   4.55165   4.55712   4.56970
 Alpha virt. eigenvalues --    4.57343   4.58015   4.58459   4.59105   4.62426
 Alpha virt. eigenvalues --    4.63392   4.64434   4.64740   4.66758   4.67688
 Alpha virt. eigenvalues --    4.68107   4.68179   4.69070   4.70049   4.70518
 Alpha virt. eigenvalues --    4.70845   4.72003   4.72940   4.73615   4.74469
 Alpha virt. eigenvalues --    4.75529   4.76054   4.76468   4.77181   4.77633
 Alpha virt. eigenvalues --    4.78499   4.78981   4.79468   4.79845   4.80192
 Alpha virt. eigenvalues --    4.81519   4.81910   4.82579   4.83148   4.83429
 Alpha virt. eigenvalues --    4.84144   4.85007   4.85253   4.85685   4.86322
 Alpha virt. eigenvalues --    4.87370   4.88530   4.88627   4.89039   4.89671
 Alpha virt. eigenvalues --    4.90300   4.91314   4.91875   4.92957   4.93358
 Alpha virt. eigenvalues --    4.93897   4.94324   4.95035   4.95995   4.96263
 Alpha virt. eigenvalues --    4.97354   4.97870   4.98405   4.99234   4.99961
 Alpha virt. eigenvalues --    5.00072   5.00494   5.01268   5.02053   5.02555
 Alpha virt. eigenvalues --    5.03230   5.03616   5.05722   5.06649   5.07194
 Alpha virt. eigenvalues --    5.07559   5.07919   5.09536   5.10614   5.13864
 Alpha virt. eigenvalues --    5.13970   5.15610   5.16703   5.17373   5.18075
 Alpha virt. eigenvalues --    5.18954   5.19992   5.20557   5.21028   5.22078
 Alpha virt. eigenvalues --    5.23181   5.23592   5.24193   5.24255   5.24413
 Alpha virt. eigenvalues --    5.26288   5.28003   5.28167   5.29335   5.30180
 Alpha virt. eigenvalues --    5.30923   5.34338   5.35216   5.35935   5.37981
 Alpha virt. eigenvalues --    5.38190   5.39024   5.41506   5.43139   5.43362
 Alpha virt. eigenvalues --    5.45173   5.45836   5.47322   5.48474   5.48971
 Alpha virt. eigenvalues --    5.51381   5.52154   5.53217   5.55924   5.56832
 Alpha virt. eigenvalues --    5.58434   5.59468   5.60450   5.61010   5.61302
 Alpha virt. eigenvalues --    5.61485   5.61984   5.63880   5.64098   5.65122
 Alpha virt. eigenvalues --    5.66512   5.70624   5.73941   5.74768   5.76815
 Alpha virt. eigenvalues --    5.79503   5.79825   5.80837   5.81138   5.86049
 Alpha virt. eigenvalues --    5.88436   5.88658   5.92314   5.95053   5.96483
 Alpha virt. eigenvalues --    6.01042   6.02389   6.03061   6.06764   6.07509
 Alpha virt. eigenvalues --    6.08469   6.09165   6.10418   6.15403   6.17889
 Alpha virt. eigenvalues --    6.18084   6.20735   6.32009   6.32322   6.33649
 Alpha virt. eigenvalues --    6.34217   6.34690   6.35791   6.39614   6.41666
 Alpha virt. eigenvalues --    6.41856   6.45659   6.47326   6.50230   6.54668
 Alpha virt. eigenvalues --    6.60640   6.63874   6.68094   6.74345   6.78054
 Alpha virt. eigenvalues --    6.81939   6.84529   6.93101   6.95195   7.02907
 Alpha virt. eigenvalues --    7.08001   7.11755   7.15868   7.17855   7.19420
 Alpha virt. eigenvalues --    7.25263   7.28107   9.05396   9.28097   9.50025
 Alpha virt. eigenvalues --   19.67960  22.36518  22.66916  22.74688  22.82470
 Alpha virt. eigenvalues --   22.88686  22.88900  22.92546  22.94465  22.95033
 Alpha virt. eigenvalues --   22.96068  22.99987  23.03196  23.04333  23.06030
 Alpha virt. eigenvalues --   23.09370  23.10899  23.11905  23.16731  23.22666
 Alpha virt. eigenvalues --   23.23900  23.25775  23.27990  23.34553  23.37795
 Alpha virt. eigenvalues --   23.40373  23.46137  23.47579  23.52248  23.53774
 Alpha virt. eigenvalues --   23.56811  23.60448  23.68152  23.78382  23.82014
 Alpha virt. eigenvalues --   23.88376  32.86573  32.90195  32.92084  33.12657
 Alpha virt. eigenvalues --   43.93997  43.94465  43.97115  43.99940
          Condensed to atoms (all electrons):
 Mulliken charges:
               1
     1  C   -0.320553
     2  S   -0.165571
     3  H    0.178022
     4  H    0.178961
     5  Fe   0.348160
     6  C   -0.534416
     7  C   -0.538564
     8  C   -0.550421
     9  C   -0.581389
    10  N   -0.292003
    11  C    0.335002
    12  C   -0.039195
    13  C   -0.052188
    14  C    0.205249
    15  C   -0.388473
    16  C   -0.389319
    17  C   -0.212583
    18  C    0.307062
    19  O   -0.358497
    20  O   -0.406441
    21  N   -0.102503
    22  C    0.238827
    23  C   -0.107485
    24  C   -0.135733
    25  C    0.333883
    26  C   -0.375371
    27  C   -0.201969
    28  C   -0.381777
    29  N   -0.163008
    30  C    0.309148
    31  C   -0.103759
    32  C   -0.150015
    33  C    0.221267
    34  C   -0.391831
    35  C   -0.181371
    36  C   -0.365260
    37  N   -0.181115
    38  C    0.389326
    39  C   -0.138089
    40  C   -0.083186
    41  C    0.248339
    42  C   -0.385276
    43  C   -0.254789
    44  C   -0.232920
    45  C    0.301832
    46  O   -0.393140
    47  O   -0.370182
    48  H    0.154558
    49  H    0.161147
    50  H    0.156288
    51  H    0.157962
    52  H    0.149957
    53  H    0.143991
    54  H    0.148386
    55  H    0.145994
    56  H    0.132490
    57  H    0.145550
    58  H    0.148484
    59  H    0.152682
    60  H    0.149198
    61  H    0.136994
    62  H    0.119246
    63  H    0.130998
    64  H    0.141759
    65  H    0.128031
    66  H    0.159569
    67  H    0.151118
    68  H    0.140018
    69  H    0.127289
    70  H    0.134721
    71  H    0.124608
    72  H    0.132456
    73  H    0.145884
    74  H    0.130547
    75  H    0.148651
    76  H    0.142753
    77  H    0.118800
    78  H    0.150070
    79  H    0.138994
    80  H    0.390141
    81  H    0.395377
    82  H    0.125323
    83  H    0.115531
    84  H    0.161706
    85  H    0.196044
 Sum of Mulliken charges =  -0.00000
 Mulliken charges with hydrogens summed into heavy atoms:
               1
     1  C    0.198136
     2  S    0.030473
     5  Fe   0.348160
     6  C   -0.379858
     7  C   -0.377418
     8  C   -0.394133
     9  C   -0.423427
    10  N   -0.292003
    11  C    0.335002
    12  C   -0.039195
    13  C   -0.052188
    14  C    0.205249
    15  C    0.053861
    16  C   -0.110835
    17  C    0.081451
    18  C    0.307062
    19  O    0.031644
    20  O   -0.406441
    21  N   -0.102503
    22  C    0.238827
    23  C   -0.107485
    24  C   -0.135733
    25  C    0.333883
    26  C    0.063503
    27  C    0.032807
    28  C    0.019011
    29  N   -0.163008
    30  C    0.309148
    31  C   -0.103759
    32  C   -0.150015
    33  C    0.221267
    34  C    0.058874
    35  C    0.071242
    36  C    0.026525
    37  N   -0.181115
    38  C    0.389326
    39  C   -0.138089
    40  C   -0.083186
    41  C    0.248339
    42  C    0.039806
    43  C    0.006765
    44  C    0.056143
    45  C    0.301832
    46  O   -0.393140
    47  O    0.025195
 Electronic spatial extent (au):  <R**2>=          31191.9153
 Charge=             -0.0000 electrons
 Dipole moment (field-independent basis, Debye):
    X=             -4.1362    Y=             -3.9213    Z=             -1.9861  Tot=              6.0357
 Quadrupole moment (field-independent basis, Debye-Ang):
   XX=           -257.7109   YY=           -253.3276   ZZ=           -275.5247
   XY=            -39.0306   XZ=            -45.7966   YZ=             -3.1277
 Traceless Quadrupole moment (field-independent basis, Debye-Ang):
   XX=              4.4768   YY=              8.8601   ZZ=            -13.3370
   XY=            -39.0306   XZ=            -45.7966   YZ=             -3.1277
 Octapole moment (field-independent basis, Debye-Ang**2):
  XXX=           -187.4961  YYY=           -102.9039  ZZZ=             20.7190  XYY=            -92.4798
  XXY=           -227.3793  XXZ=           -311.1615  XZZ=            -14.6040  YZZ=            -51.8417
  YYZ=           -111.8162  XYZ=             14.7054
 Hexadecapole moment (field-independent basis, Debye-Ang**3):
 XXXX=         -23866.6054 YYYY=         -13783.8587 ZZZZ=          -1580.8637 XXXY=          -1898.8605
 XXXZ=          -2305.2587 YYYX=           -984.3338 YYYZ=            -39.0138 ZZZX=           -278.4773
 ZZZY=            -19.1217 XXYY=          -6596.3796 XXZZ=          -4493.5095 YYZZ=          -2780.2480
 XXYZ=            177.1130 YYXZ=           -683.8260 ZZXY=           -396.4307
 N-N= 6.677545684805D+03 E-N=-2.168886731396D+04  KE= 3.532795832352D+03
 1\1\GINC-NODE487\SP\RPBE1PBE\def2TZVP\C35H40Fe1N4O4S1\KLEICH\12-Sep-20
 22\0\\# PBE1PBE/def2TZVP empiricaldispersion=GD3BJ int=(grid=ultrafine
 ) geom=check guess=read scrf=(smd,solvent=Chloroform)\\7abb_II_S_solv\
 \0,1\C,0,19.013,33.007,0.\S,0,17.62,31.94,-0.421\H,0,19.81865645,32.82
 697525,-0.68074134\H,0,19.33539499,32.7954738,0.99810728\Fe,0,17.27331
 395,31.37270864,-2.48664501\C,0,18.753,34.761,-3.605\C,0,20.928,30.569
 ,-2.703\C,0,16.619,28.513,-1.706\C,0,14.422,32.593,-3.008\N,0,19.451,3
 2.483,-3.087\C,0,19.714,33.814,-3.411\C,0,21.136,34.059,-3.537\C,0,21.
 722,32.878,-3.27\C,0,20.699,31.899,-2.995\C,0,23.225,32.546,-3.277\C,0
 ,21.834,35.427,-3.866\C,0,22.008,35.691,-5.356\C,0,22.739,37.007,-5.56
 1\O,0,22.829,37.384,-6.752\O,0,23.192,37.61,-4.553\N,0,18.581,29.871,-
 2.336\C,0,19.945,29.644,-2.353\C,0,20.162,28.294,-1.927\C,0,18.973,27.
 739,-1.629\C,0,17.963,28.702,-1.902\C,0,21.586,27.712,-1.824\C,0,18.56
 ,26.368,-1.159\C,0,19.643,25.496,-0.611\N,0,15.858,30.73,-2.443\C,0,15
 .657,29.463,-1.945\C,0,14.248,29.26,-1.738\C,0,13.604,30.396,-2.089\C,
 0,14.618,31.315,-2.552\C,0,13.652,27.967,-1.178\C,0,12.107,30.747,-2.1
 1\C,0,11.13,29.935,-1.26\N,0,16.783,33.33,-3.227\C,0,15.399,33.495,-3.
 284\C,0,15.133,34.842,-3.68\C,0,16.438,35.53,-3.875\C,0,17.419,34.518,
 -3.549\C,0,13.737,35.445,-3.881\C,0,16.692,36.984,-4.309\C,0,16.819,37
 .819,-3.058\C,0,17.174,39.248,-3.421\O,0,17.04,40.138,-2.554\O,0,17.58
 5,39.463,-4.579\H,0,19.045,35.677,-3.797\H,0,21.854,30.25,-2.744\H,0,1
 6.324,27.639,-1.373\H,0,13.495,32.881,-3.147\H,0,23.496,32.239,-2.387\
 H,0,23.735,33.348,-3.515\H,0,23.4,31.841,-3.935\H,0,22.709,35.435,-3.4
 47\H,0,21.303,36.144,-3.486\H,0,21.136,35.736,-5.78\H,0,22.522,34.971,
 -5.754\H,0,21.665,26.946,-2.414\H,0,21.757,27.436,-0.91\H,0,22.231,28.
 388,-2.083\H,0,18.11075906,25.85713126,-1.98489086\H,0,20.317,25.351,-
 1.294\H,0,19.267,24.644,-0.341\H,0,20.049,25.929,0.157\H,0,13.04,27.58
 6,-1.827\H,0,13.174,28.16,-0.357\H,0,14.365,27.335,-0.997\H,0,12.01595
 685,31.76985339,-1.80936387\H,0,10.686,30.522,-0.628\H,0,11.615,29.248
 ,-0.777\H,0,10.468,29.52,-1.835\H,0,13.617,36.201,-3.27\H,0,13.057,34.
 764,-3.696\H,0,13.646,35.755,-4.806\H,0,15.948,37.303,-4.843\H,0,17.51
 3,37.036,-4.824\H,0,17.515,37.448,-2.494\H,0,15.976,37.809,-2.578\H,0,
 23.69272672,37.51045236,-7.15148211\H,0,18.52811134,39.49572655,-4.755
 26675\H,0,11.77832945,30.67761529,-3.12590424\H,0,17.81714643,26.48941
 115,-0.39852126\H,0,18.71094992,34.03124546,-0.06772734\H,0,16.8180170
 5,31.50785892,0.52036998\\Version=ES64L-G16RevA.03\State=1-A\HF=-3537.
 5502614\RMSD=2.818e-09\Dipole=0.7319866,-2.2410562,-0.2841712\Quadrupo
 le=22.93358,-33.4809417,10.5473617,11.3705101,-18.2087904,-27.262434\P
 G=C01 [X(C35H40Fe1N4O4S1)]\\@


 THE MORE POWERFUL THE METHOD, THE MORE CATASTROPHIC THE ERRORS.
     -- M.D. KAMEN
 Job cpu time:       0 days 22 hours  8 minutes 45.0 seconds.
 Elapsed time:       0 days  5 hours 33 minutes 24.4 seconds.
 File lengths (MBytes):  RWF=   2018 Int=      0 D2E=      0 Chk=    181 Scr=      1
 Normal termination of Gaussian 16 at Mon Sep 12 02:23:22 2022.
