 Entering Gaussian System, Link 0=g16
 Input=/net/work/kleich/bench/splitthejobs/7abb/7abb05/7abb05.com
 Output=/net/work/kleich/bench/splitthejobs/7abb/7abb05/7abb05.log
 Initial command:
 /afs/math/software/gaussian/g16.A03/g16/l1.exe "/scratch/kleich_gaussian.RjawBKb/Gau-30625.inp" -scrdir="/scratch/kleich_gaussian.RjawBKb/"
 Entering Link 1 = /afs/math/software/gaussian/g16.A03/g16/l1.exe PID=     30626.
  
 Copyright (c) 1988,1990,1992,1993,1995,1998,2003,2009,2016,
            Gaussian, Inc.  All Rights Reserved.
  
 This is part of the Gaussian(R) 16 program.  It is based on
 the Gaussian(R) 09 system (copyright 2009, Gaussian, Inc.),
 the Gaussian(R) 03 system (copyright 2003, Gaussian, Inc.),
 the Gaussian(R) 98 system (copyright 1998, Gaussian, Inc.),
 the Gaussian(R) 94 system (copyright 1995, Gaussian, Inc.),
 the Gaussian 92(TM) system (copyright 1992, Gaussian, Inc.),
 the Gaussian 90(TM) system (copyright 1990, Gaussian, Inc.),
 the Gaussian 88(TM) system (copyright 1988, Gaussian, Inc.),
 the Gaussian 86(TM) system (copyright 1986, Carnegie Mellon
 University), and the Gaussian 82(TM) system (copyright 1983,
 Carnegie Mellon University). Gaussian is a federally registered
 trademark of Gaussian, Inc.
  
 This software contains proprietary and confidential information,
 including trade secrets, belonging to Gaussian, Inc.
  
 This software is provided under written license and may be
 used, copied, transmitted, or stored only in accord with that
 written license.
  
 The following legend is applicable only to US Government
 contracts under FAR:
  
                    RESTRICTED RIGHTS LEGEND
  
 Use, reproduction and disclosure by the US Government is
 subject to restrictions as set forth in subparagraphs (a)
 and (c) of the Commercial Computer Software - Restricted
 Rights clause in FAR 52.227-19.
  
 Gaussian, Inc.
 340 Quinnipiac St., Bldg. 40, Wallingford CT 06492
  
  
 ---------------------------------------------------------------
 Warning -- This program may not be used in any manner that
 competes with the business of Gaussian, Inc. or will provide
 assistance to any competitor of Gaussian, Inc.  The licensee
 of this program is prohibited from giving any competitor of
 Gaussian, Inc. access to this program.  By using this program,
 the user acknowledges that Gaussian, Inc. is engaged in the
 business of creating and licensing software in the field of
 computational chemistry and represents and warrants to the
 licensee that it is not a competitor of Gaussian, Inc. and that
 it will not use this program in any manner prohibited above.
 ---------------------------------------------------------------
  

 Cite this work as:
 Gaussian 16, Revision A.03,
 M. J. Frisch, G. W. Trucks, H. B. Schlegel, G. E. Scuseria, 
 M. A. Robb, J. R. Cheeseman, G. Scalmani, V. Barone, 
 G. A. Petersson, H. Nakatsuji, X. Li, M. Caricato, A. V. Marenich, 
 J. Bloino, B. G. Janesko, R. Gomperts, B. Mennucci, H. P. Hratchian, 
 J. V. Ortiz, A. F. Izmaylov, J. L. Sonnenberg, D. Williams-Young, 
 F. Ding, F. Lipparini, F. Egidi, J. Goings, B. Peng, A. Petrone, 
 T. Henderson, D. Ranasinghe, V. G. Zakrzewski, J. Gao, N. Rega, 
 G. Zheng, W. Liang, M. Hada, M. Ehara, K. Toyota, R. Fukuda, 
 J. Hasegawa, M. Ishida, T. Nakajima, Y. Honda, O. Kitao, H. Nakai, 
 T. Vreven, K. Throssell, J. A. Montgomery, Jr., J. E. Peralta, 
 F. Ogliaro, M. J. Bearpark, J. J. Heyd, E. N. Brothers, K. N. Kudin, 
 V. N. Staroverov, T. A. Keith, R. Kobayashi, J. Normand, 
 K. Raghavachari, A. P. Rendell, J. C. Burant, S. S. Iyengar, 
 J. Tomasi, M. Cossi, J. M. Millam, M. Klene, C. Adamo, R. Cammi, 
 J. W. Ochterski, R. L. Martin, K. Morokuma, O. Farkas, 
 J. B. Foresman, and D. J. Fox, Gaussian, Inc., Wallingford CT, 2016.
 
 ******************************************
 Gaussian 16:  ES64L-G16RevA.03 25-Dec-2016
                11-Sep-2022 
 ******************************************
 %nprocs=12
 Will use up to   12 processors via shared memory.
 %mem=16GB
 %oldchk=7abb_II_S.chk
 %chk=7abb_II_Q.chk
 Copying data from "7abb_II_S.chk" to current chk file "7abb_II_Q.chk"
 IOpt=  2 FromEx=T IUOpen= 4 IOptOp= 5 NList=   0 IFRang= 0 IUIn= 4 IUOut= 2.
 ----------------------------------------------------------------------
 # PBE1PBE/def2TZVP empiricaldispersion=GD3BJ int=(grid=ultrafine) geom
 =check pop=nbo
 ----------------------------------------------------------------------
 1/29=2,38=1,172=1/1;
 2/12=2,40=1/2;
 3/5=44,7=101,11=2,14=-4,25=1,30=1,74=-13,75=-5,124=41/1,2,3;
 4//1;
 5/5=2,38=5/2;
 6/7=2,8=2,9=2,10=2,28=1,40=1/1,7;
 99/5=1,9=1/99;
 ---------
 7abb_II_Q
 ---------
 Structure from the checkpoint file:  "7abb_II_Q.chk"
 Charge =  0 Multiplicity = 5
 Z-Matrix found in chk file.
 C,0,19.013,33.007,0.
 S,0,17.62,31.94,-0.421
 H,0,19.81865645,32.82697525,-0.68074134
 H,0,19.33539499,32.7954738,0.99810728
 Fe,0,17.27331395,31.37270864,-2.48664501
 C,0,18.753,34.761,-3.605
 C,0,20.928,30.569,-2.703
 C,0,16.619,28.513,-1.706
 C,0,14.422,32.593,-3.008
 N,0,19.451,32.483,-3.087
 C,0,19.714,33.814,-3.411
 C,0,21.136,34.059,-3.537
 C,0,21.722,32.878,-3.27
 C,0,20.699,31.899,-2.995
 C,0,23.225,32.546,-3.277
 C,0,21.834,35.427,-3.866
 C,0,22.008,35.691,-5.356
 C,0,22.739,37.007,-5.561
 O,0,22.829,37.384,-6.752
 O,0,23.192,37.61,-4.553
 N,0,18.581,29.871,-2.336
 C,0,19.945,29.644,-2.353
 C,0,20.162,28.294,-1.927
 C,0,18.973,27.739,-1.629
 C,0,17.963,28.702,-1.902
 C,0,21.586,27.712,-1.824
 C,0,18.56,26.368,-1.159
 C,0,19.643,25.496,-0.611
 N,0,15.858,30.73,-2.443
 C,0,15.657,29.463,-1.945
 C,0,14.248,29.26,-1.738
 C,0,13.604,30.396,-2.089
 C,0,14.618,31.315,-2.552
 C,0,13.652,27.967,-1.178
 C,0,12.107,30.747,-2.11
 C,0,11.13,29.935,-1.26
 N,0,16.783,33.33,-3.227
 C,0,15.399,33.495,-3.284
 C,0,15.133,34.842,-3.68
 C,0,16.438,35.53,-3.875
 C,0,17.419,34.518,-3.549
 C,0,13.737,35.445,-3.881
 C,0,16.692,36.984,-4.309
 C,0,16.819,37.819,-3.058
 C,0,17.174,39.248,-3.421
 O,0,17.04,40.138,-2.554
 O,0,17.585,39.463,-4.579
 H,0,19.045,35.677,-3.797
 H,0,21.854,30.25,-2.744
 H,0,16.324,27.639,-1.373
 H,0,13.495,32.881,-3.147
 H,0,23.496,32.239,-2.387
 H,0,23.735,33.348,-3.515
 H,0,23.4,31.841,-3.935
 H,0,22.709,35.435,-3.447
 H,0,21.303,36.144,-3.486
 H,0,21.136,35.736,-5.78
 H,0,22.522,34.971,-5.754
 H,0,21.665,26.946,-2.414
 H,0,21.757,27.436,-0.91
 H,0,22.231,28.388,-2.083
 H,0,18.11075906,25.85713126,-1.98489086
 H,0,20.317,25.351,-1.294
 H,0,19.267,24.644,-0.341
 H,0,20.049,25.929,0.157
 H,0,13.04,27.586,-1.827
 H,0,13.174,28.16,-0.357
 H,0,14.365,27.335,-0.997
 H,0,12.01595685,31.76985339,-1.80936387
 H,0,10.686,30.522,-0.628
 H,0,11.615,29.248,-0.777
 H,0,10.468,29.52,-1.835
 H,0,13.617,36.201,-3.27
 H,0,13.057,34.764,-3.696
 H,0,13.646,35.755,-4.806
 H,0,15.948,37.303,-4.843
 H,0,17.513,37.036,-4.824
 H,0,17.515,37.448,-2.494
 H,0,15.976,37.809,-2.578
 H,0,23.69272672,37.51045236,-7.15148211
 H,0,18.52811134,39.49572655,-4.75526675
 H,0,11.77832945,30.67761529,-3.12590424
 H,0,17.81714643,26.48941115,-0.39852126
 H,0,18.71094992,34.03124546,-0.06772734
 H,0,16.81801705,31.50785892,0.52036998
 Recover connectivity data from disk.
 Stoichiometry    C35H40FeN4O4S(5)
 Framework group  C1[X(C35H40FeN4O4S)]
 Deg. of freedom   249
 Full point group                 C1      NOp   1
 Largest Abelian subgroup         C1      NOp   1
 Largest concise Abelian subgroup C1      NOp   1
                         Standard orientation:                         
 ---------------------------------------------------------------------
 Center     Atomic      Atomic             Coordinates (Angstroms)
 Number     Number       Type             X           Y           Z
 ---------------------------------------------------------------------
      1          6           0       -0.046732   -0.771680    2.872277
      2         16           0       -1.374019    0.097309    2.012425
      3          1           0        0.289432   -1.591873    2.272962
      4          1           0       -0.409708   -1.139714    3.809134
      5         26           0       -1.393013    0.175637   -0.156078
      6          6           0        2.469015    0.105011   -0.134809
      7          6           0       -0.702768   -3.508412   -0.127255
      8          6           0       -4.387103   -0.315051   -0.256680
      9          6           0       -1.204393    3.271073   -0.679160
     10          7           0        0.560297   -1.411816   -0.163794
     11          6           0        1.927066   -1.144679   -0.084506
     12          6           0        2.700368   -2.363466    0.036107
     13          6           0        1.793213   -3.356639    0.047244
     14          6           0        0.473821   -2.787405   -0.078344
     15          6           0        2.051625   -4.871381    0.137036
     16          6           0        4.260308   -2.483431    0.174182
     17          6           0        4.996020   -2.558529   -1.157418
     18          6           0        6.485577   -2.727630   -0.910710
     19          8           0        7.202252   -2.678361   -1.936702
     20          8           0        6.886589   -2.901902    0.269841
     21          7           0       -2.285205   -1.608310   -0.252991
     22          6           0       -1.981957   -2.954429   -0.161782
     23          6           0       -3.220073   -3.670605   -0.089486
     24          6           0       -4.232574   -2.784444   -0.100024
     25          6           0       -3.671135   -1.484246   -0.227574
     26          6           0       -3.243681   -5.207673    0.028720
     27          6           0       -5.732514   -2.927017   -0.069017
     28          6           0       -6.267946   -4.256441    0.354683
     29          7           0       -2.490748    1.233963   -0.461067
     30          6           0       -3.829611    0.936224   -0.349303
     31          6           0       -4.584944    2.160107   -0.379665
     32          6           0       -3.713975    3.188509   -0.490274
     33          6           0       -2.395456    2.602370   -0.561507
     34          6           0       -6.109437    2.217437   -0.264343
     35          6           0       -3.945168    4.704736   -0.600992
     36          6           0       -5.269714    5.302264   -0.126744
     37          7           0        0.373989    1.374724   -0.399832
     38          6           0        0.030492    2.714569   -0.580823
     39          6           0        1.239206    3.475123   -0.631299
     40          6           0        2.381195    2.534373   -0.472415
     41          6           0        1.750275    1.242614   -0.310919
     42          6           0        1.320466    4.993381   -0.834072
     43          6           0        3.885682    2.856041   -0.466407
     44          6           0        4.300751    3.074676    0.968261
     45          6           0        5.799170    3.294304    1.047876
     46          8           0        6.280523    3.770718    2.098150
     47          8           0        6.480444    2.985312    0.049627
     48          1           0        3.441085    0.186790   -0.036949
     49          1           0       -0.633804   -4.486192   -0.137642
     50          1           0       -5.364731   -0.376313   -0.208931
     51          1           0       -1.248058    4.235840   -0.849197
     52          1           0        1.617417   -5.230010    0.938683
     53          1           0        3.016294   -5.035195    0.187300
     54          1           0        1.687021   -5.311970   -0.658928
     55          1           0        4.463806   -3.282984    0.684627
     56          1           0        4.587267   -1.712837    0.663807
     57          1           0        4.841886   -1.741358   -1.658077
     58          1           0        4.665500   -3.314794   -1.667143
     59          1           0       -3.717274   -5.582474   -0.730444
     60          1           0       -3.694149   -5.461825    0.849268
     61          1           0       -2.334717   -5.544860    0.041827
     62          1           0       -6.104464   -2.718677   -1.050417
     63          1           0       -5.948325   -4.941688   -0.253650
     64          1           0       -7.237200   -4.235182    0.338135
     65          1           0       -5.963499   -4.455558    1.254580
     66          1           0       -6.478346    2.627966   -1.062013
     67          1           0       -6.355683    2.741891    0.512886
     68          1           0       -6.460104    1.317888   -0.172694
     69          1           0       -3.163941    5.186527   -0.051028
     70          1           0       -5.099976    5.945229    0.579595
     71          1           0       -5.841275    4.595172    0.210628
     72          1           0       -5.708724    5.746624   -0.868977
     73          1           0        1.764054    5.402382   -0.062576
     74          1           0        0.416096    5.360116   -0.923545
     75          1           0        1.833441    5.186720   -1.646157
     76          1           0        4.052672    3.659589   -0.983009
     77          1           0        4.383479    2.113003   -0.843319
     78          1           0        4.061463    2.295686    1.493684
     79          1           0        3.842306    3.853824    1.320263
     80          1           0        7.747368   -3.430832   -2.178023
     81          1           0        6.906062    2.125910    0.006291
     82          1           0       -3.827262    4.970022   -1.630857
     83          1           0       -6.120962   -2.186493    0.598541
     84          1           0        0.767117   -0.098735    3.044599
     85          1           0       -2.326119    0.680880    2.697296
 ---------------------------------------------------------------------
 Rotational constants (GHZ):           0.0850304           0.0492264           0.0333862
 Standard basis: def2TZVP (5D, 7F)
 There are  1882 symmetry adapted cartesian basis functions of A   symmetry.
 There are  1655 symmetry adapted basis functions of A   symmetry.
  1655 basis functions,  2684 primitive gaussians,  1882 cartesian basis functions
   178 alpha electrons      174 beta electrons
       nuclear repulsion energy      6677.6833482244 Hartrees.
 NAtoms=   85 NActive=   85 NUniq=   85 SFac= 1.00D+00 NAtFMM=   60 NAOKFM=T Big=T
 Integral buffers will be    131072 words long.
 Raffenetti 2 integral format.
 Two-electron integral symmetry is turned on.
 Nuclear repulsion after empirical dispersion term =     6677.5623959797 Hartrees.
 One-electron integrals computed using PRISM.
   1 Symmetry operations used in ECPInt.
 ECPInt:  NShTT=  218791 NPrTT=  678027 LenC2=  156768 LenP2D=  317269.
 LDataN:  DoStor=T MaxTD1= 6 Len=  172
 NBasis=  1655 RedAO= T EigKep=  3.02D-06  NBF=  1655
 NBsUse=  1655 1.00D-06 EigRej= -1.00D+00 NBFU=  1655
 ExpMin= 4.20D-02 ExpMax= 3.01D+05 ExpMxC= 2.91D+03 IAcc=3 IRadAn=         5 AccDes= 0.00D+00
 Harris functional with IExCor= 1009 and IRadAn=       5 diagonalized for initial guess.
 HarFok:  IExCor= 1009 AccDes= 0.00D+00 IRadAn=         5 IDoV= 1 UseB2=F ITyADJ=14
 ICtDFT=  3500011 ScaDFX=  1.000000  1.000000  1.000000  1.000000
 FoFCou: FMM=F IPFlag=           0 FMFlag=      100000 FMFlg1=        2001
         NFxFlg=           0 DoJE=T BraDBF=F KetDBF=T FulRan=T
         wScrn=  0.000000 ICntrl=       500 IOpCl=  0 I1Cent=   200000004 NGrid=           0
         NMat0=    1 NMatS0=      1 NMatT0=    0 NMatD0=    1 NMtDS0=    0 NMtDT0=    0
 Petite list used in FoFCou.
 Initial guess <Sx>= 0.0000 <Sy>= 0.0000 <Sz>= 2.0000 <S**2>= 6.0000 S= 2.0000
 Requested convergence on RMS density matrix=1.00D-08 within 128 cycles.
 Requested convergence on MAX density matrix=1.00D-06.
 Requested convergence on             energy=1.00D-06.
 No special actions if energy rises.
 EnCoef did   100 forward-backward iterations
 EnCoef did     6 forward-backward iterations
 EnCoef did     9 forward-backward iterations
 EnCoef did   100 forward-backward iterations
 EnCoef did     2 forward-backward iterations
 Restarting incremental Fock formation.
 Restarting incremental Fock formation.
 SCF Done:  E(UPBE1PBE) =  -3537.51568244     A.U. after   46 cycles
            NFock= 46  Conv=0.29D-08     -V/T= 2.0011
 <Sx>= 0.0000 <Sy>= 0.0000 <Sz>= 2.0000 <S**2>= 6.0737 S= 2.0147
 <L.S>= 0.000000000000E+00
 Annihilation of the first spin contaminant:
 S**2 before annihilation     6.0737,   after     6.0007

 **********************************************************************

            Population analysis using the SCF density.

 **********************************************************************

 Orbital symmetries:
 Alpha Orbitals:
       Occupied  (A) (A) (A) (A) (A) (A) (A) (A) (A) (A) (A) (A)
                 (A) (A) (A) (A) (A) (A) (A) (A) (A) (A) (A) (A)
                 (A) (A) (A) (A) (A) (A) (A) (A) (A) (A) (A) (A)
                 (A) (A) (A) (A) (A) (A) (A) (A) (A) (A) (A) (A)
                 (A) (A) (A) (A) (A) (A) (A) (A) (A) (A) (A) (A)
                 (A) (A) (A) (A) (A) (A) (A) (A) (A) (A) (A) (A)
                 (A) (A) (A) (A) (A) (A) (A) (A) (A) (A) (A) (A)
                 (A) (A) (A) (A) (A) (A) (A) (A) (A) (A) (A) (A)
                 (A) (A) (A) (A) (A) (A) (A) (A) (A) (A) (A) (A)
                 (A) (A) (A) (A) (A) (A) (A) (A) (A) (A) (A) (A)
                 (A) (A) (A) (A) (A) (A) (A) (A) (A) (A) (A) (A)
                 (A) (A) (A) (A) (A) (A) (A) (A) (A) (A) (A) (A)
                 (A) (A) (A) (A) (A) (A) (A) (A) (A) (A) (A) (A)
                 (A) (A) (A) (A) (A) (A) (A) (A) (A) (A) (A) (A)
                 (A) (A) (A) (A) (A) (A) (A) (A) (A) (A)
       Virtual   (A) (A) (A) (A) (A) (A) (A) (A) (A) (A) (A) (A)
                 (A) (A) (A) (A) (A) (A) (A) (A) (A) (A) (A) (A)
                 (A) (A) (A) (A) (A) (A) (A) (A) (A) (A) (A) (A)
                 (A) (A) (A) (A) (A) (A) (A) (A) (A) (A) (A) (A)
                 (A) (A) (A) (A) (A) (A) (A) (A) (A) (A) (A) (A)
                 (A) (A) (A) (A) (A) (A) (A) (A) (A) (A) (A) (A)
                 (A) (A) (A) (A) (A) (A) (A) (A) (A) (A) (A) (A)
                 (A) (A) (A) (A) (A) (A) (A) (A) (A) (A) (A) (A)
                 (A) (A) (A) (A) (A) (A) (A) (A) (A) (A) (A) (A)
                 (A) (A) (A) (A) (A) (A) (A) (A) (A) (A) (A) (A)
                 (A) (A) (A) (A) (A) (A) (A) (A) (A) (A) (A) (A)
                 (A) (A) (A) (A) (A) (A) (A) (A) (A) (A) (A) (A)
                 (A) (A) (A) (A) (A) (A) (A) (A) (A) (A) (A) (A)
                 (A) (A) (A) (A) (A) (A) (A) (A) (A) (A) (A) (A)
                 (A) (A) (A) (A) (A) (A) (A) (A) (A) (A) (A) (A)
                 (A) (A) (A) (A) (A) (A) (A) (A) (A) (A) (A) (A)
                 (A) (A) (A) (A) (A) (A) (A) (A) (A) (A) (A) (A)
                 (A) (A) (A) (A) (A) (A) (A) (A) (A) (A) (A) (A)
                 (A) (A) (A) (A) (A) (A) (A) (A) (A) (A) (A) (A)
                 (A) (A) (A) (A) (A) (A) (A) (A) (A) (A) (A) (A)
                 (A) (A) (A) (A) (A) (A) (A) (A) (A) (A) (A) (A)
                 (A) (A) (A) (A) (A) (A) (A) (A) (A) (A) (A) (A)
                 (A) (A) (A) (A) (A) (A) (A) (A) (A) (A) (A) (A)
                 (A) (A) (A) (A) (A) (A) (A) (A) (A) (A) (A) (A)
                 (A) (A) (A) (A) (A) (A) (A) (A) (A) (A) (A) (A)
                 (A) (A) (A) (A) (A) (A) (A) (A) (A) (A) (A) (A)
                 (A) (A) (A) (A) (A) (A) (A) (A) (A) (A) (A) (A)
                 (A) (A) (A) (A) (A) (A) (A) (A) (A) (A) (A) (A)
                 (A) (A) (A) (A) (A) (A) (A) (A) (A) (A) (A) (A)
                 (A) (A) (A) (A) (A) (A) (A) (A) (A) (A) (A) (A)
                 (A) (A) (A) (A) (A) (A) (A) (A) (A) (A) (A) (A)
                 (A) (A) (A) (A) (A) (A) (A) (A) (A) (A) (A) (A)
                 (A) (A) (A) (A) (A) (A) (A) (A) (A) (A) (A) (A)
                 (A) (A) (A) (A) (A) (A) (A) (A) (A) (A) (A) (A)
                 (A) (A) (A) (A) (A) (A) (A) (A) (A) (A) (A) (A)
                 (A) (A) (A) (A) (A) (A) (A) (A) (A) (A) (A) (A)
                 (A) (A) (A) (A) (A) (A) (A) (A) (A) (A) (A) (A)
                 (A) (A) (A) (A) (A) (A) (A) (A) (A) (A) (A) (A)
                 (A) (A) (A) (A) (A) (A) (A) (A) (A) (A) (A) (A)
                 (A) (A) (A) (A) (A) (A) (A) (A) (A) (A) (A) (A)
                 (A) (A) (A) (A) (A) (A) (A) (A) (A) (A) (A) (A)
                 (A) (A) (A) (A) (A) (A) (A) (A) (A) (A) (A) (A)
                 (A) (A) (A) (A) (A) (A) (A) (A) (A) (A) (A) (A)
                 (A) (A) (A) (A) (A) (A) (A) (A) (A) (A) (A) (A)
                 (A) (A) (A) (A) (A) (A) (A) (A) (A) (A) (A) (A)
                 (A) (A) (A) (A) (A) (A) (A) (A) (A) (A) (A) (A)
                 (A) (A) (A) (A) (A) (A) (A) (A) (A) (A) (A) (A)
                 (A) (A) (A) (A) (A) (A) (A) (A) (A) (A) (A) (A)
                 (A) (A) (A) (A) (A) (A) (A) (A) (A) (A) (A) (A)
                 (A) (A) (A) (A) (A) (A) (A) (A) (A) (A) (A) (A)
                 (A) (A) (A) (A) (A) (A) (A) (A) (A) (A) (A) (A)
                 (A) (A) (A) (A) (A) (A) (A) (A) (A) (A) (A) (A)
                 (A) (A) (A) (A) (A) (A) (A) (A) (A) (A) (A) (A)
                 (A) (A) (A) (A) (A) (A) (A) (A) (A) (A) (A) (A)
                 (A) (A) (A) (A) (A) (A) (A) (A) (A) (A) (A) (A)
                 (A) (A) (A) (A) (A) (A) (A) (A) (A) (A) (A) (A)
                 (A) (A) (A) (A) (A) (A) (A) (A) (A) (A) (A) (A)
                 (A) (A) (A) (A) (A) (A) (A) (A) (A) (A) (A) (A)
                 (A) (A) (A) (A) (A) (A) (A) (A) (A) (A) (A) (A)
                 (A) (A) (A) (A) (A) (A) (A) (A) (A) (A) (A) (A)
                 (A) (A) (A) (A) (A) (A) (A) (A) (A) (A) (A) (A)
                 (A) (A) (A) (A) (A) (A) (A) (A) (A) (A) (A) (A)
                 (A) (A) (A) (A) (A) (A) (A) (A) (A) (A) (A) (A)
                 (A) (A) (A) (A) (A) (A) (A) (A) (A) (A) (A) (A)
                 (A) (A) (A) (A) (A) (A) (A) (A) (A) (A) (A) (A)
                 (A) (A) (A) (A) (A) (A) (A) (A) (A) (A) (A) (A)
                 (A) (A) (A) (A) (A) (A) (A) (A) (A) (A) (A) (A)
                 (A) (A) (A) (A) (A) (A) (A) (A) (A) (A) (A) (A)
                 (A) (A) (A) (A) (A) (A) (A) (A) (A) (A) (A) (A)
                 (A) (A) (A) (A) (A) (A) (A) (A) (A) (A) (A) (A)
                 (A) (A) (A) (A) (A) (A) (A) (A) (A) (A) (A) (A)
                 (A) (A) (A) (A) (A) (A) (A) (A) (A) (A) (A) (A)
                 (A) (A) (A) (A) (A) (A) (A) (A) (A) (A) (A) (A)
                 (A) (A) (A) (A) (A) (A) (A) (A) (A) (A) (A) (A)
                 (A) (A) (A) (A) (A) (A) (A) (A) (A) (A) (A) (A)
                 (A) (A) (A) (A) (A) (A) (A) (A) (A) (A) (A) (A)
                 (A) (A) (A) (A) (A) (A) (A) (A) (A) (A) (A) (A)
                 (A) (A) (A) (A) (A) (A) (A) (A) (A) (A) (A) (A)
                 (A) (A) (A) (A) (A) (A) (A) (A) (A) (A) (A) (A)
                 (A) (A) (A) (A) (A) (A) (A) (A) (A) (A) (A) (A)
                 (A) (A) (A) (A) (A) (A) (A) (A) (A) (A) (A) (A)
                 (A) (A) (A) (A) (A) (A) (A) (A) (A) (A) (A) (A)
                 (A) (A) (A) (A) (A) (A) (A) (A) (A) (A) (A) (A)
                 (A) (A) (A) (A) (A) (A) (A) (A) (A) (A) (A) (A)
                 (A) (A) (A) (A) (A) (A) (A) (A) (A) (A) (A) (A)
                 (A) (A) (A) (A) (A) (A) (A) (A) (A) (A) (A) (A)
                 (A) (A) (A) (A) (A) (A) (A) (A) (A) (A) (A) (A)
                 (A) (A) (A) (A) (A) (A) (A) (A) (A) (A) (A) (A)
                 (A) (A) (A) (A) (A) (A) (A) (A) (A) (A) (A) (A)
                 (A) (A) (A) (A) (A) (A) (A) (A) (A) (A) (A) (A)
                 (A) (A) (A) (A) (A) (A) (A) (A) (A) (A) (A) (A)
                 (A) (A) (A) (A) (A) (A) (A) (A) (A) (A) (A) (A)
                 (A) (A) (A) (A) (A) (A) (A) (A) (A) (A) (A) (A)
                 (A) (A) (A) (A) (A) (A) (A) (A) (A) (A) (A) (A)
                 (A) (A) (A) (A) (A) (A) (A) (A) (A) (A) (A) (A)
                 (A) (A) (A) (A) (A) (A) (A) (A) (A) (A) (A) (A)
                 (A) (A) (A) (A) (A) (A) (A) (A) (A) (A) (A) (A)
                 (A) (A) (A) (A) (A) (A) (A) (A) (A) (A) (A) (A)
                 (A) (A) (A) (A) (A) (A) (A) (A) (A) (A) (A) (A)
                 (A) (A) (A) (A) (A) (A) (A) (A) (A) (A) (A) (A)
                 (A) (A) (A) (A) (A) (A) (A) (A) (A) (A) (A) (A)
                 (A) (A) (A) (A) (A) (A) (A) (A) (A) (A) (A) (A)
                 (A) (A) (A) (A) (A) (A) (A) (A) (A) (A) (A) (A)
                 (A) (A) (A) (A) (A) (A) (A) (A) (A) (A) (A) (A)
                 (A) (A) (A) (A) (A) (A) (A) (A) (A) (A) (A) (A)
                 (A) (A) (A) (A) (A) (A) (A) (A) (A) (A) (A) (A)
                 (A) (A) (A) (A) (A) (A) (A) (A) (A) (A) (A) (A)
                 (A) (A) (A) (A) (A) (A) (A) (A) (A) (A) (A) (A)
                 (A) (A) (A) (A) (A) (A) (A) (A) (A) (A) (A) (A)
                 (A) (A) (A) (A) (A) (A) (A) (A) (A) (A) (A) (A)
                 (A) (A) (A) (A) (A) (A) (A) (A) (A) (A) (A) (A)
                 (A) (A) (A) (A) (A) (A) (A) (A) (A) (A) (A) (A)
                 (A) (A) (A) (A) (A) (A) (A) (A) (A) (A) (A) (A)
                 (A) (A) (A) (A) (A) (A) (A) (A) (A) (A) (A) (A)
                 (A) (A) (A) (A) (A) (A) (A) (A) (A) (A) (A) (A)
                 (A) (A) (A) (A) (A) (A) (A) (A) (A) (A) (A) (A)
                 (A) (A) (A) (A) (A) (A) (A) (A) (A) (A) (A) (A)
                 (A) (A) (A) (A) (A) (A) (A) (A) (A) (A) (A) (A)
                 (A) (A) (A) (A) (A) (A) (A) (A) (A) (A) (A) (A)
                 (A) (A) (A) (A) (A) (A) (A) (A) (A) (A) (A) (A)
                 (A) (A) (A) (A) (A) (A) (A) (A) (A) (A) (A) (A)
                 (A) (A) (A) (A) (A) (A) (A) (A) (A) (A) (A) (A)
                 (A) (A) (A) (A) (A) (A) (A) (A) (A) (A) (A) (A)
                 (A)
 Beta  Orbitals:
       Occupied  (A) (A) (A) (A) (A) (A) (A) (A) (A) (A) (A) (A)
                 (A) (A) (A) (A) (A) (A) (A) (A) (A) (A) (A) (A)
                 (A) (A) (A) (A) (A) (A) (A) (A) (A) (A) (A) (A)
                 (A) (A) (A) (A) (A) (A) (A) (A) (A) (A) (A) (A)
                 (A) (A) (A) (A) (A) (A) (A) (A) (A) (A) (A) (A)
                 (A) (A) (A) (A) (A) (A) (A) (A) (A) (A) (A) (A)
                 (A) (A) (A) (A) (A) (A) (A) (A) (A) (A) (A) (A)
                 (A) (A) (A) (A) (A) (A) (A) (A) (A) (A) (A) (A)
                 (A) (A) (A) (A) (A) (A) (A) (A) (A) (A) (A) (A)
                 (A) (A) (A) (A) (A) (A) (A) (A) (A) (A) (A) (A)
                 (A) (A) (A) (A) (A) (A) (A) (A) (A) (A) (A) (A)
                 (A) (A) (A) (A) (A) (A) (A) (A) (A) (A) (A) (A)
                 (A) (A) (A) (A) (A) (A) (A) (A) (A) (A) (A) (A)
                 (A) (A) (A) (A) (A) (A) (A) (A) (A) (A) (A) (A)
                 (A) (A) (A) (A) (A) (A)
       Virtual   (A) (A) (A) (A) (A) (A) (A) (A) (A) (A) (A) (A)
                 (A) (A) (A) (A) (A) (A) (A) (A) (A) (A) (A) (A)
                 (A) (A) (A) (A) (A) (A) (A) (A) (A) (A) (A) (A)
                 (A) (A) (A) (A) (A) (A) (A) (A) (A) (A) (A) (A)
                 (A) (A) (A) (A) (A) (A) (A) (A) (A) (A) (A) (A)
                 (A) (A) (A) (A) (A) (A) (A) (A) (A) (A) (A) (A)
                 (A) (A) (A) (A) (A) (A) (A) (A) (A) (A) (A) (A)
                 (A) (A) (A) (A) (A) (A) (A) (A) (A) (A) (A) (A)
                 (A) (A) (A) (A) (A) (A) (A) (A) (A) (A) (A) (A)
                 (A) (A) (A) (A) (A) (A) (A) (A) (A) (A) (A) (A)
                 (A) (A) (A) (A) (A) (A) (A) (A) (A) (A) (A) (A)
                 (A) (A) (A) (A) (A) (A) (A) (A) (A) (A) (A) (A)
                 (A) (A) (A) (A) (A) (A) (A) (A) (A) (A) (A) (A)
                 (A) (A) (A) (A) (A) (A) (A) (A) (A) (A) (A) (A)
                 (A) (A) (A) (A) (A) (A) (A) (A) (A) (A) (A) (A)
                 (A) (A) (A) (A) (A) (A) (A) (A) (A) (A) (A) (A)
                 (A) (A) (A) (A) (A) (A) (A) (A) (A) (A) (A) (A)
                 (A) (A) (A) (A) (A) (A) (A) (A) (A) (A) (A) (A)
                 (A) (A) (A) (A) (A) (A) (A) (A) (A) (A) (A) (A)
                 (A) (A) (A) (A) (A) (A) (A) (A) (A) (A) (A) (A)
                 (A) (A) (A) (A) (A) (A) (A) (A) (A) (A) (A) (A)
                 (A) (A) (A) (A) (A) (A) (A) (A) (A) (A) (A) (A)
                 (A) (A) (A) (A) (A) (A) (A) (A) (A) (A) (A) (A)
                 (A) (A) (A) (A) (A) (A) (A) (A) (A) (A) (A) (A)
                 (A) (A) (A) (A) (A) (A) (A) (A) (A) (A) (A) (A)
                 (A) (A) (A) (A) (A) (A) (A) (A) (A) (A) (A) (A)
                 (A) (A) (A) (A) (A) (A) (A) (A) (A) (A) (A) (A)
                 (A) (A) (A) (A) (A) (A) (A) (A) (A) (A) (A) (A)
                 (A) (A) (A) (A) (A) (A) (A) (A) (A) (A) (A) (A)
                 (A) (A) (A) (A) (A) (A) (A) (A) (A) (A) (A) (A)
                 (A) (A) (A) (A) (A) (A) (A) (A) (A) (A) (A) (A)
                 (A) (A) (A) (A) (A) (A) (A) (A) (A) (A) (A) (A)
                 (A) (A) (A) (A) (A) (A) (A) (A) (A) (A) (A) (A)
                 (A) (A) (A) (A) (A) (A) (A) (A) (A) (A) (A) (A)
                 (A) (A) (A) (A) (A) (A) (A) (A) (A) (A) (A) (A)
                 (A) (A) (A) (A) (A) (A) (A) (A) (A) (A) (A) (A)
                 (A) (A) (A) (A) (A) (A) (A) (A) (A) (A) (A) (A)
                 (A) (A) (A) (A) (A) (A) (A) (A) (A) (A) (A) (A)
                 (A) (A) (A) (A) (A) (A) (A) (A) (A) (A) (A) (A)
                 (A) (A) (A) (A) (A) (A) (A) (A) (A) (A) (A) (A)
                 (A) (A) (A) (A) (A) (A) (A) (A) (A) (A) (A) (A)
                 (A) (A) (A) (A) (A) (A) (A) (A) (A) (A) (A) (A)
                 (A) (A) (A) (A) (A) (A) (A) (A) (A) (A) (A) (A)
                 (A) (A) (A) (A) (A) (A) (A) (A) (A) (A) (A) (A)
                 (A) (A) (A) (A) (A) (A) (A) (A) (A) (A) (A) (A)
                 (A) (A) (A) (A) (A) (A) (A) (A) (A) (A) (A) (A)
                 (A) (A) (A) (A) (A) (A) (A) (A) (A) (A) (A) (A)
                 (A) (A) (A) (A) (A) (A) (A) (A) (A) (A) (A) (A)
                 (A) (A) (A) (A) (A) (A) (A) (A) (A) (A) (A) (A)
                 (A) (A) (A) (A) (A) (A) (A) (A) (A) (A) (A) (A)
                 (A) (A) (A) (A) (A) (A) (A) (A) (A) (A) (A) (A)
                 (A) (A) (A) (A) (A) (A) (A) (A) (A) (A) (A) (A)
                 (A) (A) (A) (A) (A) (A) (A) (A) (A) (A) (A) (A)
                 (A) (A) (A) (A) (A) (A) (A) (A) (A) (A) (A) (A)
                 (A) (A) (A) (A) (A) (A) (A) (A) (A) (A) (A) (A)
                 (A) (A) (A) (A) (A) (A) (A) (A) (A) (A) (A) (A)
                 (A) (A) (A) (A) (A) (A) (A) (A) (A) (A) (A) (A)
                 (A) (A) (A) (A) (A) (A) (A) (A) (A) (A) (A) (A)
                 (A) (A) (A) (A) (A) (A) (A) (A) (A) (A) (A) (A)
                 (A) (A) (A) (A) (A) (A) (A) (A) (A) (A) (A) (A)
                 (A) (A) (A) (A) (A) (A) (A) (A) (A) (A) (A) (A)
                 (A) (A) (A) (A) (A) (A) (A) (A) (A) (A) (A) (A)
                 (A) (A) (A) (A) (A) (A) (A) (A) (A) (A) (A) (A)
                 (A) (A) (A) (A) (A) (A) (A) (A) (A) (A) (A) (A)
                 (A) (A) (A) (A) (A) (A) (A) (A) (A) (A) (A) (A)
                 (A) (A) (A) (A) (A) (A) (A) (A) (A) (A) (A) (A)
                 (A) (A) (A) (A) (A) (A) (A) (A) (A) (A) (A) (A)
                 (A) (A) (A) (A) (A) (A) (A) (A) (A) (A) (A) (A)
                 (A) (A) (A) (A) (A) (A) (A) (A) (A) (A) (A) (A)
                 (A) (A) (A) (A) (A) (A) (A) (A) (A) (A) (A) (A)
                 (A) (A) (A) (A) (A) (A) (A) (A) (A) (A) (A) (A)
                 (A) (A) (A) (A) (A) (A) (A) (A) (A) (A) (A) (A)
                 (A) (A) (A) (A) (A) (A) (A) (A) (A) (A) (A) (A)
                 (A) (A) (A) (A) (A) (A) (A) (A) (A) (A) (A) (A)
                 (A) (A) (A) (A) (A) (A) (A) (A) (A) (A) (A) (A)
                 (A) (A) (A) (A) (A) (A) (A) (A) (A) (A) (A) (A)
                 (A) (A) (A) (A) (A) (A) (A) (A) (A) (A) (A) (A)
                 (A) (A) (A) (A) (A) (A) (A) (A) (A) (A) (A) (A)
                 (A) (A) (A) (A) (A) (A) (A) (A) (A) (A) (A) (A)
                 (A) (A) (A) (A) (A) (A) (A) (A) (A) (A) (A) (A)
                 (A) (A) (A) (A) (A) (A) (A) (A) (A) (A) (A) (A)
                 (A) (A) (A) (A) (A) (A) (A) (A) (A) (A) (A) (A)
                 (A) (A) (A) (A) (A) (A) (A) (A) (A) (A) (A) (A)
                 (A) (A) (A) (A) (A) (A) (A) (A) (A) (A) (A) (A)
                 (A) (A) (A) (A) (A) (A) (A) (A) (A) (A) (A) (A)
                 (A) (A) (A) (A) (A) (A) (A) (A) (A) (A) (A) (A)
                 (A) (A) (A) (A) (A) (A) (A) (A) (A) (A) (A) (A)
                 (A) (A) (A) (A) (A) (A) (A) (A) (A) (A) (A) (A)
                 (A) (A) (A) (A) (A) (A) (A) (A) (A) (A) (A) (A)
                 (A) (A) (A) (A) (A) (A) (A) (A) (A) (A) (A) (A)
                 (A) (A) (A) (A) (A) (A) (A) (A) (A) (A) (A) (A)
                 (A) (A) (A) (A) (A) (A) (A) (A) (A) (A) (A) (A)
                 (A) (A) (A) (A) (A) (A) (A) (A) (A) (A) (A) (A)
                 (A) (A) (A) (A) (A) (A) (A) (A) (A) (A) (A) (A)
                 (A) (A) (A) (A) (A) (A) (A) (A) (A) (A) (A) (A)
                 (A) (A) (A) (A) (A) (A) (A) (A) (A) (A) (A) (A)
                 (A) (A) (A) (A) (A) (A) (A) (A) (A) (A) (A) (A)
                 (A) (A) (A) (A) (A) (A) (A) (A) (A) (A) (A) (A)
                 (A) (A) (A) (A) (A) (A) (A) (A) (A) (A) (A) (A)
                 (A) (A) (A) (A) (A) (A) (A) (A) (A) (A) (A) (A)
                 (A) (A) (A) (A) (A) (A) (A) (A) (A) (A) (A) (A)
                 (A) (A) (A) (A) (A) (A) (A) (A) (A) (A) (A) (A)
                 (A) (A) (A) (A) (A) (A) (A) (A) (A) (A) (A) (A)
                 (A) (A) (A) (A) (A) (A) (A) (A) (A) (A) (A) (A)
                 (A) (A) (A) (A) (A) (A) (A) (A) (A) (A) (A) (A)
                 (A) (A) (A) (A) (A) (A) (A) (A) (A) (A) (A) (A)
                 (A) (A) (A) (A) (A) (A) (A) (A) (A) (A) (A) (A)
                 (A) (A) (A) (A) (A) (A) (A) (A) (A) (A) (A) (A)
                 (A) (A) (A) (A) (A) (A) (A) (A) (A) (A) (A) (A)
                 (A) (A) (A) (A) (A) (A) (A) (A) (A) (A) (A) (A)
                 (A) (A) (A) (A) (A) (A) (A) (A) (A) (A) (A) (A)
                 (A) (A) (A) (A) (A) (A) (A) (A) (A) (A) (A) (A)
                 (A) (A) (A) (A) (A) (A) (A) (A) (A) (A) (A) (A)
                 (A) (A) (A) (A) (A) (A) (A) (A) (A) (A) (A) (A)
                 (A) (A) (A) (A) (A) (A) (A) (A) (A) (A) (A) (A)
                 (A) (A) (A) (A) (A) (A) (A) (A) (A) (A) (A) (A)
                 (A) (A) (A) (A) (A) (A) (A) (A) (A) (A) (A) (A)
                 (A) (A) (A) (A) (A) (A) (A) (A) (A) (A) (A) (A)
                 (A) (A) (A) (A) (A) (A) (A) (A) (A) (A) (A) (A)
                 (A) (A) (A) (A) (A) (A) (A) (A) (A) (A) (A) (A)
                 (A) (A) (A) (A) (A) (A) (A) (A) (A) (A) (A) (A)
                 (A) (A) (A) (A) (A) (A) (A) (A) (A) (A) (A) (A)
                 (A) (A) (A) (A) (A) (A) (A) (A) (A) (A) (A) (A)
                 (A) (A) (A) (A) (A)
 The electronic state is 5-A.
 Alpha  occ. eigenvalues -- -256.34092 -89.02925 -30.15292 -25.98532 -25.96682
 Alpha  occ. eigenvalues --  -25.96231 -19.27166 -19.25361 -19.19379 -19.17844
 Alpha  occ. eigenvalues --  -14.38572 -14.36471 -14.35684 -14.35044 -10.36403
 Alpha  occ. eigenvalues --  -10.34777 -10.25417 -10.24933 -10.24893 -10.24603
 Alpha  occ. eigenvalues --  -10.24190 -10.24083 -10.23817 -10.23756 -10.23685
 Alpha  occ. eigenvalues --  -10.22846 -10.22543 -10.22506 -10.22458 -10.22237
 Alpha  occ. eigenvalues --  -10.21997 -10.21832 -10.21741 -10.21496 -10.21340
 Alpha  occ. eigenvalues --  -10.21286 -10.21167 -10.20969 -10.20963 -10.20316
 Alpha  occ. eigenvalues --  -10.20232 -10.20131 -10.19932 -10.18389 -10.18240
 Alpha  occ. eigenvalues --  -10.17987 -10.17825 -10.17173 -10.16725  -8.01199
 Alpha  occ. eigenvalues --   -5.94817  -5.94524  -5.94032  -3.57979  -2.37071
 Alpha  occ. eigenvalues --   -2.33515  -2.32390  -1.17782  -1.16676  -1.03639
 Alpha  occ. eigenvalues --   -1.02366  -0.99932  -0.96852  -0.95677  -0.94471
 Alpha  occ. eigenvalues --   -0.85030  -0.84319  -0.84151  -0.84030  -0.83484
 Alpha  occ. eigenvalues --   -0.82171  -0.82015  -0.81587  -0.80035  -0.79438
 Alpha  occ. eigenvalues --   -0.78943  -0.78529  -0.76736  -0.75527  -0.74676
 Alpha  occ. eigenvalues --   -0.73999  -0.73234  -0.71381  -0.70776  -0.69234
 Alpha  occ. eigenvalues --   -0.68977  -0.67627  -0.67214  -0.66977  -0.66457
 Alpha  occ. eigenvalues --   -0.65448  -0.65006  -0.60102  -0.59638  -0.57155
 Alpha  occ. eigenvalues --   -0.56363  -0.55904  -0.55125  -0.54226  -0.54103
 Alpha  occ. eigenvalues --   -0.53836  -0.52682  -0.52306  -0.52006  -0.51040
 Alpha  occ. eigenvalues --   -0.50623  -0.50144  -0.49416  -0.49068  -0.48985
 Alpha  occ. eigenvalues --   -0.48798  -0.48554  -0.48327  -0.47571  -0.47146
 Alpha  occ. eigenvalues --   -0.46931  -0.46630  -0.46356  -0.45849  -0.45410
 Alpha  occ. eigenvalues --   -0.45301  -0.45107  -0.45037  -0.44939  -0.44686
 Alpha  occ. eigenvalues --   -0.44376  -0.44136  -0.43954  -0.43797  -0.43493
 Alpha  occ. eigenvalues --   -0.42367  -0.41973  -0.41688  -0.41567  -0.41176
 Alpha  occ. eigenvalues --   -0.41038  -0.40736  -0.40682  -0.40358  -0.40268
 Alpha  occ. eigenvalues --   -0.39989  -0.39687  -0.39137  -0.38667  -0.38419
 Alpha  occ. eigenvalues --   -0.38323  -0.38053  -0.37465  -0.37154  -0.36931
 Alpha  occ. eigenvalues --   -0.36432  -0.35904  -0.35674  -0.35543  -0.34972
 Alpha  occ. eigenvalues --   -0.34581  -0.34363  -0.34175  -0.33787  -0.33633
 Alpha  occ. eigenvalues --   -0.33400  -0.33034  -0.32568  -0.29216  -0.29048
 Alpha  occ. eigenvalues --   -0.28381  -0.28314  -0.28147  -0.27284  -0.26173
 Alpha  occ. eigenvalues --   -0.25037  -0.23568  -0.23012  -0.22045  -0.21211
 Alpha  occ. eigenvalues --   -0.19325  -0.19146  -0.17756
 Alpha virt. eigenvalues --   -0.07517  -0.07226  -0.01926  -0.01351  -0.01066
 Alpha virt. eigenvalues --    0.00948   0.01531   0.02901   0.03140   0.04390
 Alpha virt. eigenvalues --    0.04675   0.05248   0.05378   0.05783   0.06495
 Alpha virt. eigenvalues --    0.06583   0.06875   0.07313   0.07604   0.07728
 Alpha virt. eigenvalues --    0.08224   0.08713   0.09542   0.09831   0.10032
 Alpha virt. eigenvalues --    0.10260   0.10530   0.10629   0.10925   0.11258
 Alpha virt. eigenvalues --    0.11598   0.11693   0.12125   0.12226   0.12628
 Alpha virt. eigenvalues --    0.12863   0.12919   0.13376   0.13596   0.13904
 Alpha virt. eigenvalues --    0.14085   0.14125   0.14417   0.14659   0.14684
 Alpha virt. eigenvalues --    0.15121   0.15308   0.15415   0.15517   0.15768
 Alpha virt. eigenvalues --    0.15867   0.16381   0.16535   0.16615   0.17096
 Alpha virt. eigenvalues --    0.17243   0.17648   0.17958   0.18182   0.18435
 Alpha virt. eigenvalues --    0.18735   0.18908   0.19136   0.19272   0.19605
 Alpha virt. eigenvalues --    0.19856   0.20117   0.20349   0.20603   0.20743
 Alpha virt. eigenvalues --    0.20787   0.20851   0.21302   0.21362   0.21674
 Alpha virt. eigenvalues --    0.21897   0.21910   0.22091   0.22780   0.23022
 Alpha virt. eigenvalues --    0.23108   0.23184   0.23406   0.23490   0.23832
 Alpha virt. eigenvalues --    0.23846   0.24160   0.24404   0.24503   0.24853
 Alpha virt. eigenvalues --    0.24891   0.25239   0.25558   0.25654   0.25828
 Alpha virt. eigenvalues --    0.26028   0.26266   0.26621   0.26714   0.26895
 Alpha virt. eigenvalues --    0.27337   0.27471   0.27648   0.27753   0.28050
 Alpha virt. eigenvalues --    0.28392   0.28832   0.28941   0.29160   0.29469
 Alpha virt. eigenvalues --    0.29767   0.30012   0.30371   0.30639   0.31106
 Alpha virt. eigenvalues --    0.31414   0.31505   0.31730   0.31905   0.32360
 Alpha virt. eigenvalues --    0.33074   0.33229   0.33383   0.33424   0.33777
 Alpha virt. eigenvalues --    0.34140   0.34451   0.34652   0.34796   0.35329
 Alpha virt. eigenvalues --    0.35713   0.35959   0.36239   0.36419   0.36613
 Alpha virt. eigenvalues --    0.37046   0.37102   0.37526   0.37609   0.38309
 Alpha virt. eigenvalues --    0.38457   0.38576   0.38731   0.38879   0.39242
 Alpha virt. eigenvalues --    0.39743   0.40024   0.40106   0.40301   0.40410
 Alpha virt. eigenvalues --    0.40534   0.40747   0.41098   0.41384   0.41627
 Alpha virt. eigenvalues --    0.41786   0.41988   0.42254   0.42379   0.42783
 Alpha virt. eigenvalues --    0.42901   0.43090   0.43240   0.43528   0.43673
 Alpha virt. eigenvalues --    0.43968   0.44357   0.44401   0.44511   0.44830
 Alpha virt. eigenvalues --    0.44957   0.45274   0.45646   0.45674   0.45825
 Alpha virt. eigenvalues --    0.45969   0.46221   0.46267   0.46834   0.47007
 Alpha virt. eigenvalues --    0.47249   0.47328   0.47588   0.47764   0.48108
 Alpha virt. eigenvalues --    0.48208   0.48455   0.48660   0.48687   0.48883
 Alpha virt. eigenvalues --    0.49174   0.49374   0.49489   0.49862   0.50198
 Alpha virt. eigenvalues --    0.50525   0.50841   0.50939   0.51121   0.51224
 Alpha virt. eigenvalues --    0.51450   0.51796   0.52052   0.52375   0.52509
 Alpha virt. eigenvalues --    0.52583   0.52855   0.53017   0.53148   0.53539
 Alpha virt. eigenvalues --    0.53761   0.53874   0.53936   0.54298   0.54348
 Alpha virt. eigenvalues --    0.54874   0.55077   0.55216   0.55463   0.55740
 Alpha virt. eigenvalues --    0.55975   0.56039   0.56180   0.56299   0.56480
 Alpha virt. eigenvalues --    0.56603   0.56927   0.57236   0.57696   0.57747
 Alpha virt. eigenvalues --    0.57879   0.58010   0.58197   0.58689   0.58823
 Alpha virt. eigenvalues --    0.59333   0.59556   0.59586   0.60124   0.60303
 Alpha virt. eigenvalues --    0.60378   0.60844   0.61295   0.61560   0.62030
 Alpha virt. eigenvalues --    0.62350   0.62550   0.62846   0.63033   0.63278
 Alpha virt. eigenvalues --    0.63569   0.63930   0.63989   0.64262   0.64389
 Alpha virt. eigenvalues --    0.65117   0.65310   0.65438   0.65528   0.65751
 Alpha virt. eigenvalues --    0.66074   0.66840   0.67089   0.67257   0.67452
 Alpha virt. eigenvalues --    0.67825   0.68097   0.68366   0.68498   0.68778
 Alpha virt. eigenvalues --    0.68973   0.69373   0.69601   0.69834   0.70326
 Alpha virt. eigenvalues --    0.70661   0.70954   0.71107   0.71443   0.71867
 Alpha virt. eigenvalues --    0.72156   0.72409   0.72577   0.72739   0.73089
 Alpha virt. eigenvalues --    0.73352   0.73927   0.74021   0.74422   0.74678
 Alpha virt. eigenvalues --    0.74889   0.75322   0.75429   0.75529   0.75897
 Alpha virt. eigenvalues --    0.76171   0.76401   0.76871   0.77009   0.77236
 Alpha virt. eigenvalues --    0.77487   0.78032   0.78245   0.78444   0.78986
 Alpha virt. eigenvalues --    0.79168   0.79391   0.79790   0.79977   0.80579
 Alpha virt. eigenvalues --    0.80819   0.80945   0.81185   0.81590   0.81979
 Alpha virt. eigenvalues --    0.82052   0.82566   0.82911   0.83105   0.83316
 Alpha virt. eigenvalues --    0.83876   0.84189   0.84324   0.84705   0.85163
 Alpha virt. eigenvalues --    0.85256   0.85572   0.85757   0.86429   0.86725
 Alpha virt. eigenvalues --    0.87071   0.87566   0.87853   0.88328   0.88383
 Alpha virt. eigenvalues --    0.88917   0.89311   0.89548   0.89959   0.90538
 Alpha virt. eigenvalues --    0.90621   0.90812   0.91391   0.91788   0.91987
 Alpha virt. eigenvalues --    0.92177   0.92712   0.92871   0.93268   0.93622
 Alpha virt. eigenvalues --    0.93959   0.94281   0.94644   0.95109   0.95342
 Alpha virt. eigenvalues --    0.96066   0.96195   0.96326   0.96449   0.96701
 Alpha virt. eigenvalues --    0.96886   0.97390   0.97747   0.98006   0.98215
 Alpha virt. eigenvalues --    0.98407   0.98834   0.99358   0.99551   0.99823
 Alpha virt. eigenvalues --    1.00390   1.00966   1.01107   1.01776   1.02035
 Alpha virt. eigenvalues --    1.02434   1.02518   1.02648   1.03292   1.03473
 Alpha virt. eigenvalues --    1.03585   1.03894   1.04227   1.04683   1.04913
 Alpha virt. eigenvalues --    1.05488   1.05517   1.05661   1.05818   1.06275
 Alpha virt. eigenvalues --    1.06354   1.07037   1.07116   1.07597   1.07838
 Alpha virt. eigenvalues --    1.08034   1.08389   1.08757   1.08907   1.09314
 Alpha virt. eigenvalues --    1.09802   1.10298   1.10618   1.10925   1.11183
 Alpha virt. eigenvalues --    1.11732   1.11997   1.12258   1.12492   1.12878
 Alpha virt. eigenvalues --    1.12992   1.13181   1.13785   1.14160   1.14748
 Alpha virt. eigenvalues --    1.15636   1.15784   1.16209   1.16703   1.17198
 Alpha virt. eigenvalues --    1.17736   1.18125   1.18247   1.18808   1.19644
 Alpha virt. eigenvalues --    1.20211   1.20365   1.21715   1.21904   1.22082
 Alpha virt. eigenvalues --    1.22331   1.22731   1.23188   1.23534   1.23735
 Alpha virt. eigenvalues --    1.24478   1.25145   1.25656   1.25921   1.26373
 Alpha virt. eigenvalues --    1.26648   1.27201   1.27649   1.28114   1.28619
 Alpha virt. eigenvalues --    1.29124   1.29421   1.29563   1.30423   1.30779
 Alpha virt. eigenvalues --    1.30849   1.31525   1.32012   1.32268   1.33150
 Alpha virt. eigenvalues --    1.33474   1.33572   1.33927   1.34304   1.34379
 Alpha virt. eigenvalues --    1.35122   1.35612   1.36120   1.36575   1.37027
 Alpha virt. eigenvalues --    1.37318   1.37930   1.38573   1.38825   1.39123
 Alpha virt. eigenvalues --    1.39582   1.39848   1.40200   1.40949   1.40963
 Alpha virt. eigenvalues --    1.41525   1.42154   1.42832   1.43205   1.43781
 Alpha virt. eigenvalues --    1.44517   1.44624   1.45203   1.45855   1.46224
 Alpha virt. eigenvalues --    1.46858   1.47324   1.47501   1.47937   1.48437
 Alpha virt. eigenvalues --    1.48561   1.49025   1.49492   1.49724   1.50122
 Alpha virt. eigenvalues --    1.50737   1.50982   1.51767   1.51847   1.52029
 Alpha virt. eigenvalues --    1.52214   1.52497   1.52620   1.52960   1.53490
 Alpha virt. eigenvalues --    1.53777   1.53934   1.54141   1.54392   1.54930
 Alpha virt. eigenvalues --    1.55037   1.55358   1.55865   1.56331   1.56551
 Alpha virt. eigenvalues --    1.56956   1.57029   1.57467   1.58124   1.58269
 Alpha virt. eigenvalues --    1.58818   1.59118   1.59327   1.59409   1.59662
 Alpha virt. eigenvalues --    1.59914   1.60420   1.60992   1.61205   1.61277
 Alpha virt. eigenvalues --    1.61840   1.62080   1.62403   1.62482   1.62692
 Alpha virt. eigenvalues --    1.63036   1.63404   1.63627   1.63919   1.64253
 Alpha virt. eigenvalues --    1.64466   1.64764   1.65093   1.65478   1.65712
 Alpha virt. eigenvalues --    1.65900   1.65931   1.66337   1.66510   1.66824
 Alpha virt. eigenvalues --    1.67024   1.67193   1.67626   1.67901   1.68006
 Alpha virt. eigenvalues --    1.68151   1.68507   1.68723   1.69141   1.69293
 Alpha virt. eigenvalues --    1.69505   1.69925   1.70129   1.70856   1.71165
 Alpha virt. eigenvalues --    1.71351   1.71572   1.71801   1.72327   1.72846
 Alpha virt. eigenvalues --    1.73048   1.73419   1.73624   1.74090   1.74344
 Alpha virt. eigenvalues --    1.74785   1.75030   1.75500   1.76424   1.76544
 Alpha virt. eigenvalues --    1.77011   1.77111   1.77477   1.77629   1.77771
 Alpha virt. eigenvalues --    1.78744   1.79539   1.79836   1.80283   1.80605
 Alpha virt. eigenvalues --    1.80977   1.81704   1.82125   1.82385   1.82704
 Alpha virt. eigenvalues --    1.83013   1.83758   1.84062   1.84142   1.84407
 Alpha virt. eigenvalues --    1.85049   1.85144   1.86056   1.86670   1.86907
 Alpha virt. eigenvalues --    1.87241   1.87710   1.88411   1.88669   1.88852
 Alpha virt. eigenvalues --    1.89257   1.89642   1.89975   1.90294   1.90572
 Alpha virt. eigenvalues --    1.91130   1.91520   1.91708   1.92202   1.92676
 Alpha virt. eigenvalues --    1.92955   1.93709   1.94070   1.94611   1.95267
 Alpha virt. eigenvalues --    1.95552   1.95796   1.96028   1.96486   1.97197
 Alpha virt. eigenvalues --    1.97507   1.97693   1.98153   1.99140   1.99254
 Alpha virt. eigenvalues --    1.99867   2.00037   2.00588   2.01119   2.01308
 Alpha virt. eigenvalues --    2.01398   2.01829   2.01996   2.02196   2.02294
 Alpha virt. eigenvalues --    2.03063   2.03278   2.03927   2.04181   2.04535
 Alpha virt. eigenvalues --    2.04860   2.05059   2.05294   2.06089   2.06127
 Alpha virt. eigenvalues --    2.06989   2.07229   2.07606   2.08029   2.08564
 Alpha virt. eigenvalues --    2.09229   2.10133   2.10483   2.11183   2.11488
 Alpha virt. eigenvalues --    2.11773   2.12275   2.13039   2.13406   2.13513
 Alpha virt. eigenvalues --    2.13923   2.14227   2.14432   2.15049   2.15611
 Alpha virt. eigenvalues --    2.15810   2.16103   2.16376   2.16578   2.16620
 Alpha virt. eigenvalues --    2.16995   2.17473   2.17784   2.18334   2.18831
 Alpha virt. eigenvalues --    2.18968   2.19504   2.19691   2.20384   2.20894
 Alpha virt. eigenvalues --    2.21647   2.21928   2.22495   2.22991   2.23123
 Alpha virt. eigenvalues --    2.23742   2.24155   2.24457   2.24806   2.25475
 Alpha virt. eigenvalues --    2.25997   2.26355   2.26603   2.26991   2.27251
 Alpha virt. eigenvalues --    2.28079   2.28210   2.28403   2.29070   2.29575
 Alpha virt. eigenvalues --    2.29974   2.30283   2.30460   2.30659   2.31255
 Alpha virt. eigenvalues --    2.31579   2.32005   2.32384   2.33189   2.33465
 Alpha virt. eigenvalues --    2.34485   2.34899   2.35204   2.35641   2.36183
 Alpha virt. eigenvalues --    2.36826   2.36996   2.37637   2.38044   2.38531
 Alpha virt. eigenvalues --    2.38806   2.39199   2.40127   2.40356   2.40873
 Alpha virt. eigenvalues --    2.41357   2.41752   2.42226   2.42686   2.42824
 Alpha virt. eigenvalues --    2.43719   2.43874   2.44230   2.44415   2.45169
 Alpha virt. eigenvalues --    2.45361   2.46371   2.46476   2.46979   2.47267
 Alpha virt. eigenvalues --    2.47506   2.48215   2.48510   2.49352   2.49497
 Alpha virt. eigenvalues --    2.50152   2.50247   2.50858   2.51530   2.52747
 Alpha virt. eigenvalues --    2.52910   2.53207   2.53496   2.53888   2.54578
 Alpha virt. eigenvalues --    2.54890   2.55232   2.55722   2.55869   2.56409
 Alpha virt. eigenvalues --    2.56792   2.56975   2.57255   2.57698   2.58123
 Alpha virt. eigenvalues --    2.58464   2.59193   2.59744   2.59998   2.60212
 Alpha virt. eigenvalues --    2.60393   2.60984   2.61405   2.61599   2.61927
 Alpha virt. eigenvalues --    2.62120   2.62897   2.63268   2.63305   2.64034
 Alpha virt. eigenvalues --    2.64398   2.64673   2.65417   2.65970   2.66698
 Alpha virt. eigenvalues --    2.66725   2.67150   2.67825   2.68415   2.68724
 Alpha virt. eigenvalues --    2.69041   2.69173   2.69797   2.69998   2.70081
 Alpha virt. eigenvalues --    2.70660   2.71255   2.71518   2.71644   2.72029
 Alpha virt. eigenvalues --    2.72279   2.72583   2.72900   2.73453   2.73932
 Alpha virt. eigenvalues --    2.74274   2.74403   2.75207   2.75790   2.75828
 Alpha virt. eigenvalues --    2.76385   2.76731   2.77205   2.77525   2.77808
 Alpha virt. eigenvalues --    2.78159   2.78194   2.78670   2.79376   2.79794
 Alpha virt. eigenvalues --    2.79936   2.80270   2.80538   2.80677   2.81017
 Alpha virt. eigenvalues --    2.81436   2.81999   2.82190   2.82482   2.83054
 Alpha virt. eigenvalues --    2.83344   2.83560   2.84006   2.84455   2.84705
 Alpha virt. eigenvalues --    2.84902   2.85392   2.85586   2.86251   2.86573
 Alpha virt. eigenvalues --    2.86856   2.87315   2.87545   2.87819   2.88207
 Alpha virt. eigenvalues --    2.88618   2.88970   2.89072   2.89369   2.90129
 Alpha virt. eigenvalues --    2.90513   2.91033   2.91182   2.91795   2.92057
 Alpha virt. eigenvalues --    2.92641   2.92898   2.93123   2.93301   2.93771
 Alpha virt. eigenvalues --    2.94280   2.94402   2.95033   2.95373   2.96014
 Alpha virt. eigenvalues --    2.96407   2.96509   2.96730   2.96928   2.97283
 Alpha virt. eigenvalues --    2.97809   2.97865   2.98250   2.98291   2.99023
 Alpha virt. eigenvalues --    2.99219   2.99778   3.00009   3.00296   3.00913
 Alpha virt. eigenvalues --    3.01096   3.01230   3.01553   3.01868   3.02423
 Alpha virt. eigenvalues --    3.02577   3.03333   3.03528   3.03563   3.03991
 Alpha virt. eigenvalues --    3.04039   3.04461   3.04574   3.04975   3.05350
 Alpha virt. eigenvalues --    3.05487   3.05832   3.05915   3.06383   3.06548
 Alpha virt. eigenvalues --    3.06805   3.07318   3.07917   3.08447   3.08662
 Alpha virt. eigenvalues --    3.09079   3.09133   3.09320   3.09866   3.10080
 Alpha virt. eigenvalues --    3.10755   3.10956   3.11398   3.11836   3.12062
 Alpha virt. eigenvalues --    3.12294   3.12514   3.12753   3.13277   3.13652
 Alpha virt. eigenvalues --    3.14232   3.14281   3.14644   3.14705   3.15149
 Alpha virt. eigenvalues --    3.15398   3.15530   3.16066   3.16547   3.16925
 Alpha virt. eigenvalues --    3.17334   3.17576   3.17831   3.18325   3.18578
 Alpha virt. eigenvalues --    3.18889   3.19404   3.19961   3.20376   3.20582
 Alpha virt. eigenvalues --    3.20971   3.21144   3.21577   3.22116   3.22532
 Alpha virt. eigenvalues --    3.22588   3.22855   3.23070   3.23294   3.23447
 Alpha virt. eigenvalues --    3.24076   3.24353   3.24631   3.24668   3.25387
 Alpha virt. eigenvalues --    3.26148   3.26344   3.26577   3.27097   3.27419
 Alpha virt. eigenvalues --    3.27834   3.28081   3.28153   3.28576   3.29050
 Alpha virt. eigenvalues --    3.29267   3.29378   3.29597   3.30137   3.30483
 Alpha virt. eigenvalues --    3.30810   3.30883   3.31428   3.31582   3.32060
 Alpha virt. eigenvalues --    3.32331   3.32339   3.32831   3.33078   3.33312
 Alpha virt. eigenvalues --    3.34017   3.34294   3.34337   3.34492   3.34886
 Alpha virt. eigenvalues --    3.35097   3.35452   3.35785   3.36273   3.36422
 Alpha virt. eigenvalues --    3.36569   3.36992   3.37389   3.37519   3.37976
 Alpha virt. eigenvalues --    3.38027   3.38261   3.38536   3.38911   3.39063
 Alpha virt. eigenvalues --    3.39199   3.39503   3.39622   3.40035   3.40229
 Alpha virt. eigenvalues --    3.40676   3.40971   3.41133   3.41419   3.41860
 Alpha virt. eigenvalues --    3.41943   3.42137   3.42603   3.43344   3.43654
 Alpha virt. eigenvalues --    3.43844   3.44002   3.44294   3.44479   3.44738
 Alpha virt. eigenvalues --    3.44931   3.45398   3.45782   3.46221   3.46349
 Alpha virt. eigenvalues --    3.46439   3.47148   3.47408   3.47669   3.47740
 Alpha virt. eigenvalues --    3.48005   3.48408   3.49029   3.49180   3.49420
 Alpha virt. eigenvalues --    3.49966   3.50008   3.50741   3.51205   3.51472
 Alpha virt. eigenvalues --    3.51801   3.52024   3.52704   3.53003   3.53407
 Alpha virt. eigenvalues --    3.53818   3.54035   3.54204   3.55136   3.55319
 Alpha virt. eigenvalues --    3.55526   3.56519   3.56638   3.57224   3.57642
 Alpha virt. eigenvalues --    3.57988   3.58250   3.58530   3.59012   3.59551
 Alpha virt. eigenvalues --    3.59957   3.60579   3.60849   3.61252   3.61358
 Alpha virt. eigenvalues --    3.61831   3.61956   3.62457   3.63029   3.63431
 Alpha virt. eigenvalues --    3.63742   3.64350   3.64767   3.65594   3.65710
 Alpha virt. eigenvalues --    3.66091   3.66761   3.67076   3.67404   3.67783
 Alpha virt. eigenvalues --    3.67960   3.68471   3.68659   3.69450   3.69665
 Alpha virt. eigenvalues --    3.70064   3.70433   3.70779   3.71228   3.71781
 Alpha virt. eigenvalues --    3.72271   3.72988   3.73267   3.73495   3.74127
 Alpha virt. eigenvalues --    3.74624   3.74888   3.75440   3.75675   3.75810
 Alpha virt. eigenvalues --    3.76089   3.77118   3.77446   3.78102   3.78358
 Alpha virt. eigenvalues --    3.78630   3.79049   3.79383   3.80213   3.80366
 Alpha virt. eigenvalues --    3.81284   3.81977   3.82306   3.82526   3.83057
 Alpha virt. eigenvalues --    3.83157   3.83423   3.83729   3.84399   3.85102
 Alpha virt. eigenvalues --    3.85703   3.86067   3.86240   3.86924   3.87341
 Alpha virt. eigenvalues --    3.87751   3.88438   3.88584   3.89041   3.89689
 Alpha virt. eigenvalues --    3.89841   3.90689   3.92112   3.92882   3.93146
 Alpha virt. eigenvalues --    3.93430   3.94189   3.94719   3.95144   3.95623
 Alpha virt. eigenvalues --    3.96232   3.96513   3.97111   3.97997   3.98917
 Alpha virt. eigenvalues --    3.99285   4.00008   4.00520   4.00853   4.01103
 Alpha virt. eigenvalues --    4.01345   4.01647   4.02339   4.02798   4.03393
 Alpha virt. eigenvalues --    4.03898   4.04887   4.05194   4.05764   4.06935
 Alpha virt. eigenvalues --    4.07071   4.07387   4.08153   4.08922   4.09391
 Alpha virt. eigenvalues --    4.10232   4.10779   4.11985   4.12327   4.12786
 Alpha virt. eigenvalues --    4.13234   4.13575   4.14450   4.15196   4.15460
 Alpha virt. eigenvalues --    4.16517   4.16629   4.17121   4.18086   4.18309
 Alpha virt. eigenvalues --    4.19389   4.20286   4.20598   4.21370   4.21916
 Alpha virt. eigenvalues --    4.22680   4.23262   4.23408   4.24530   4.25105
 Alpha virt. eigenvalues --    4.25487   4.25907   4.26526   4.27262   4.27599
 Alpha virt. eigenvalues --    4.28000   4.28420   4.29299   4.29816   4.30420
 Alpha virt. eigenvalues --    4.31377   4.32297   4.32784   4.32864   4.33678
 Alpha virt. eigenvalues --    4.34349   4.35143   4.35657   4.36187   4.37001
 Alpha virt. eigenvalues --    4.37874   4.37994   4.38497   4.38851   4.39390
 Alpha virt. eigenvalues --    4.40792   4.41153   4.41361   4.42187   4.42864
 Alpha virt. eigenvalues --    4.44118   4.44955   4.45987   4.46684   4.47551
 Alpha virt. eigenvalues --    4.47747   4.48497   4.49167   4.50075   4.50888
 Alpha virt. eigenvalues --    4.51646   4.52877   4.53235   4.54073   4.54215
 Alpha virt. eigenvalues --    4.54533   4.55133   4.55863   4.56535   4.56923
 Alpha virt. eigenvalues --    4.57918   4.58553   4.61623   4.62869   4.63637
 Alpha virt. eigenvalues --    4.63916   4.66194   4.66822   4.67341   4.67680
 Alpha virt. eigenvalues --    4.68409   4.69336   4.69798   4.70401   4.71194
 Alpha virt. eigenvalues --    4.72458   4.72874   4.73675   4.74935   4.75490
 Alpha virt. eigenvalues --    4.75828   4.76351   4.76837   4.77784   4.78214
 Alpha virt. eigenvalues --    4.78807   4.79073   4.79664   4.80895   4.81348
 Alpha virt. eigenvalues --    4.82070   4.82513   4.82857   4.83553   4.84502
 Alpha virt. eigenvalues --    4.84906   4.85164   4.85886   4.86824   4.87802
 Alpha virt. eigenvalues --    4.87890   4.88270   4.89065   4.89587   4.90674
 Alpha virt. eigenvalues --    4.91287   4.92629   4.92989   4.93493   4.93955
 Alpha virt. eigenvalues --    4.94569   4.95148   4.95767   4.96658   4.97195
 Alpha virt. eigenvalues --    4.97747   4.98451   4.99489   4.99645   5.00107
 Alpha virt. eigenvalues --    5.00768   5.01489   5.02107   5.02748   5.03260
 Alpha virt. eigenvalues --    5.05180   5.06163   5.06754   5.06941   5.07446
 Alpha virt. eigenvalues --    5.09030   5.10155   5.13193   5.13583   5.15165
 Alpha virt. eigenvalues --    5.16195   5.16955   5.18246   5.18853   5.19879
 Alpha virt. eigenvalues --    5.20214   5.21740   5.21778   5.22894   5.23170
 Alpha virt. eigenvalues --    5.23859   5.24015   5.24553   5.26083   5.27488
 Alpha virt. eigenvalues --    5.27893   5.28393   5.29292   5.30303   5.34175
 Alpha virt. eigenvalues --    5.35053   5.35436   5.37702   5.38142   5.38884
 Alpha virt. eigenvalues --    5.41122   5.42741   5.43426   5.44850   5.45538
 Alpha virt. eigenvalues --    5.46967   5.48036   5.48495   5.50988   5.51948
 Alpha virt. eigenvalues --    5.52989   5.55474   5.56656   5.57929   5.59101
 Alpha virt. eigenvalues --    5.60210   5.60941   5.61087   5.61160   5.61674
 Alpha virt. eigenvalues --    5.63823   5.64249   5.64885   5.66385   5.70137
 Alpha virt. eigenvalues --    5.73783   5.74585   5.76029   5.79023   5.79505
 Alpha virt. eigenvalues --    5.80573   5.81152   5.86051   5.87616   5.88416
 Alpha virt. eigenvalues --    5.92240   5.94959   5.96433   6.00558   6.02006
 Alpha virt. eigenvalues --    6.03025   6.06356   6.06762   6.08591   6.08790
 Alpha virt. eigenvalues --    6.10160   6.14718   6.17747   6.18120   6.20461
 Alpha virt. eigenvalues --    6.31422   6.31760   6.33689   6.33959   6.34436
 Alpha virt. eigenvalues --    6.36068   6.38787   6.40723   6.41478   6.44920
 Alpha virt. eigenvalues --    6.47401   6.50829   6.54226   6.57745   6.62750
 Alpha virt. eigenvalues --    6.67750   6.73581   6.78198   6.81749   6.85311
 Alpha virt. eigenvalues --    6.92221   6.95282   7.02327   7.08118   7.11067
 Alpha virt. eigenvalues --    7.15930   7.18203   7.18739   7.25125   7.27234
 Alpha virt. eigenvalues --    9.05303   9.28044   9.49934  19.67919  22.36199
 Alpha virt. eigenvalues --   22.65962  22.73781  22.82307  22.88293  22.88457
 Alpha virt. eigenvalues --   22.92033  22.93548  22.93962  22.95427  22.99414
 Alpha virt. eigenvalues --   23.02652  23.03876  23.05035  23.08756  23.10226
 Alpha virt. eigenvalues --   23.11048  23.16321  23.22441  23.23684  23.25652
 Alpha virt. eigenvalues --   23.27834  23.34200  23.37537  23.40147  23.45870
 Alpha virt. eigenvalues --   23.47215  23.51876  23.53297  23.56605  23.60754
 Alpha virt. eigenvalues --   23.68119  23.78100  23.81722  23.87987  32.87239
 Alpha virt. eigenvalues --   32.90768  32.92707  33.13190  43.93658  43.95031
 Alpha virt. eigenvalues --   43.95869  43.99489
  Beta  occ. eigenvalues -- -256.33931 -89.02845 -30.07571 -25.91069 -25.90530
  Beta  occ. eigenvalues --  -25.90341 -19.27166 -19.25361 -19.19379 -19.17844
  Beta  occ. eigenvalues --  -14.38461 -14.36241 -14.35437 -14.34881 -10.36403
  Beta  occ. eigenvalues --  -10.34778 -10.25348 -10.24890 -10.24863 -10.24589
  Beta  occ. eigenvalues --  -10.24161 -10.24089 -10.23812 -10.23772 -10.23740
  Beta  occ. eigenvalues --  -10.22795 -10.22557 -10.22521 -10.22439 -10.22234
  Beta  occ. eigenvalues --  -10.21980 -10.21829 -10.21743 -10.21495 -10.21331
  Beta  occ. eigenvalues --  -10.21278 -10.21168 -10.20950 -10.20949 -10.20319
  Beta  occ. eigenvalues --  -10.20231 -10.20126 -10.19937 -10.18384 -10.18240
  Beta  occ. eigenvalues --  -10.17987 -10.17822 -10.17171 -10.16725  -8.01096
  Beta  occ. eigenvalues --   -5.94760  -5.94431  -5.93887  -3.39318  -2.15278
  Beta  occ. eigenvalues --   -2.14308  -2.13462  -1.17782  -1.16676  -1.03639
  Beta  occ. eigenvalues --   -1.02368  -0.99326  -0.96605  -0.95528  -0.94279
  Beta  occ. eigenvalues --   -0.85001  -0.84313  -0.84096  -0.83877  -0.83404
  Beta  occ. eigenvalues --   -0.82132  -0.81696  -0.81508  -0.79989  -0.79376
  Beta  occ. eigenvalues --   -0.78860  -0.78468  -0.76671  -0.75438  -0.74584
  Beta  occ. eigenvalues --   -0.73911  -0.73224  -0.71344  -0.70687  -0.69177
  Beta  occ. eigenvalues --   -0.68690  -0.67588  -0.67137  -0.66906  -0.66413
  Beta  occ. eigenvalues --   -0.65320  -0.64953  -0.59731  -0.59523  -0.57009
  Beta  occ. eigenvalues --   -0.56192  -0.55790  -0.54457  -0.54117  -0.53923
  Beta  occ. eigenvalues --   -0.53666  -0.52525  -0.52253  -0.51849  -0.50960
  Beta  occ. eigenvalues --   -0.50213  -0.50006  -0.49371  -0.48985  -0.48771
  Beta  occ. eigenvalues --   -0.48564  -0.48471  -0.47989  -0.47376  -0.46968
  Beta  occ. eigenvalues --   -0.46607  -0.46278  -0.45995  -0.45712  -0.45315
  Beta  occ. eigenvalues --   -0.45173  -0.45013  -0.44981  -0.44762  -0.44463
  Beta  occ. eigenvalues --   -0.44108  -0.43971  -0.43538  -0.43449  -0.43278
  Beta  occ. eigenvalues --   -0.41925  -0.41542  -0.41431  -0.41293  -0.41072
  Beta  occ. eigenvalues --   -0.40853  -0.40397  -0.40226  -0.39767  -0.39628
  Beta  occ. eigenvalues --   -0.38971  -0.38574  -0.38317  -0.38229  -0.37965
  Beta  occ. eigenvalues --   -0.37699  -0.37269  -0.36991  -0.36606  -0.36341
  Beta  occ. eigenvalues --   -0.35638  -0.35419  -0.34855  -0.34533  -0.34443
  Beta  occ. eigenvalues --   -0.34221  -0.33638  -0.33525  -0.33291  -0.32407
  Beta  occ. eigenvalues --   -0.30086  -0.29256  -0.29145  -0.28284  -0.27727
  Beta  occ. eigenvalues --   -0.27387  -0.27048  -0.26527  -0.23946  -0.22951
  Beta  occ. eigenvalues --   -0.21511  -0.19902  -0.19302  -0.16876
  Beta virt. eigenvalues --   -0.07826  -0.07125  -0.02176  -0.01925  -0.01397
  Beta virt. eigenvalues --   -0.01227  -0.01040  -0.00081   0.01478   0.01680
  Beta virt. eigenvalues --    0.02367   0.02908   0.03397   0.04669   0.04966
  Beta virt. eigenvalues --    0.05446   0.05844   0.06358   0.06757   0.06865
  Beta virt. eigenvalues --    0.07473   0.07581   0.07806   0.08224   0.08289
  Beta virt. eigenvalues --    0.08906   0.09569   0.09922   0.10223   0.10357
  Beta virt. eigenvalues --    0.10602   0.10751   0.11058   0.11350   0.11681
  Beta virt. eigenvalues --    0.11872   0.12219   0.12396   0.12663   0.12895
  Beta virt. eigenvalues --    0.13127   0.13485   0.13745   0.13975   0.14129
  Beta virt. eigenvalues --    0.14210   0.14510   0.14775   0.14827   0.15194
  Beta virt. eigenvalues --    0.15382   0.15490   0.15639   0.15815   0.16026
  Beta virt. eigenvalues --    0.16459   0.16739   0.16979   0.17177   0.17362
  Beta virt. eigenvalues --    0.17729   0.18022   0.18304   0.18679   0.18815
  Beta virt. eigenvalues --    0.19047   0.19252   0.19505   0.19746   0.19927
  Beta virt. eigenvalues --    0.20199   0.20505   0.20681   0.20826   0.20978
  Beta virt. eigenvalues --    0.21161   0.21449   0.21509   0.21723   0.21976
  Beta virt. eigenvalues --    0.22037   0.22300   0.22846   0.23162   0.23295
  Beta virt. eigenvalues --    0.23334   0.23535   0.23626   0.23905   0.24216
  Beta virt. eigenvalues --    0.24361   0.24519   0.24647   0.25028   0.25112
  Beta virt. eigenvalues --    0.25399   0.25616   0.25894   0.26194   0.26329
  Beta virt. eigenvalues --    0.26651   0.26815   0.27022   0.27209   0.27446
  Beta virt. eigenvalues --    0.27627   0.27710   0.27840   0.28350   0.28469
  Beta virt. eigenvalues --    0.28993   0.29120   0.29270   0.29767   0.29981
  Beta virt. eigenvalues --    0.30193   0.30545   0.30981   0.31427   0.31525
  Beta virt. eigenvalues --    0.31669   0.31956   0.32266   0.32495   0.33164
  Beta virt. eigenvalues --    0.33286   0.33474   0.33791   0.33902   0.34436
  Beta virt. eigenvalues --    0.34667   0.34802   0.34988   0.35469   0.35778
  Beta virt. eigenvalues --    0.36026   0.36322   0.36544   0.36794   0.37124
  Beta virt. eigenvalues --    0.37345   0.37654   0.37693   0.38369   0.38581
  Beta virt. eigenvalues --    0.38621   0.38811   0.39032   0.39433   0.39823
  Beta virt. eigenvalues --    0.40115   0.40205   0.40432   0.40647   0.40732
  Beta virt. eigenvalues --    0.40862   0.41171   0.41500   0.41701   0.41854
  Beta virt. eigenvalues --    0.42035   0.42311   0.42464   0.42866   0.43039
  Beta virt. eigenvalues --    0.43146   0.43299   0.43608   0.43730   0.44065
  Beta virt. eigenvalues --    0.44494   0.44509   0.44594   0.45045   0.45181
  Beta virt. eigenvalues --    0.45332   0.45691   0.45774   0.45880   0.46030
  Beta virt. eigenvalues --    0.46279   0.46387   0.46909   0.47156   0.47344
  Beta virt. eigenvalues --    0.47421   0.47753   0.47823   0.48204   0.48326
  Beta virt. eigenvalues --    0.48499   0.48740   0.48772   0.48963   0.49255
  Beta virt. eigenvalues --    0.49412   0.49559   0.50049   0.50253   0.50605
  Beta virt. eigenvalues --    0.50959   0.51024   0.51220   0.51378   0.51518
  Beta virt. eigenvalues --    0.51867   0.52154   0.52479   0.52611   0.52677
  Beta virt. eigenvalues --    0.52928   0.53074   0.53329   0.53597   0.53888
  Beta virt. eigenvalues --    0.53957   0.53985   0.54440   0.54463   0.54978
  Beta virt. eigenvalues --    0.55168   0.55312   0.55553   0.55782   0.56047
  Beta virt. eigenvalues --    0.56211   0.56272   0.56386   0.56613   0.56702
  Beta virt. eigenvalues --    0.56973   0.57355   0.57780   0.57888   0.58061
  Beta virt. eigenvalues --    0.58145   0.58336   0.58750   0.58973   0.59469
  Beta virt. eigenvalues --    0.59658   0.59708   0.60167   0.60366   0.60549
  Beta virt. eigenvalues --    0.60947   0.61394   0.61689   0.62178   0.62473
  Beta virt. eigenvalues --    0.62684   0.63044   0.63196   0.63361   0.63631
  Beta virt. eigenvalues --    0.64042   0.64153   0.64407   0.64657   0.65237
  Beta virt. eigenvalues --    0.65444   0.65598   0.65609   0.65975   0.66182
  Beta virt. eigenvalues --    0.66950   0.67205   0.67394   0.67517   0.67896
  Beta virt. eigenvalues --    0.68275   0.68482   0.68700   0.68984   0.69088
  Beta virt. eigenvalues --    0.69441   0.69805   0.70073   0.70559   0.70830
  Beta virt. eigenvalues --    0.71044   0.71198   0.71638   0.71991   0.72247
  Beta virt. eigenvalues --    0.72523   0.72699   0.72821   0.73341   0.73550
  Beta virt. eigenvalues --    0.74090   0.74208   0.74584   0.74848   0.74955
  Beta virt. eigenvalues --    0.75443   0.75549   0.75735   0.76019   0.76290
  Beta virt. eigenvalues --    0.76633   0.76961   0.77112   0.77339   0.77664
  Beta virt. eigenvalues --    0.78194   0.78450   0.78768   0.79107   0.79259
  Beta virt. eigenvalues --    0.79507   0.79914   0.80071   0.80768   0.80932
  Beta virt. eigenvalues --    0.81002   0.81320   0.81746   0.82046   0.82112
  Beta virt. eigenvalues --    0.82667   0.83075   0.83166   0.83463   0.83978
  Beta virt. eigenvalues --    0.84307   0.84406   0.84843   0.85249   0.85425
  Beta virt. eigenvalues --    0.85750   0.85898   0.86552   0.86851   0.87249
  Beta virt. eigenvalues --    0.87682   0.88097   0.88426   0.88532   0.89007
  Beta virt. eigenvalues --    0.89428   0.89658   0.90256   0.90618   0.90824
  Beta virt. eigenvalues --    0.90959   0.91540   0.91886   0.92067   0.92207
  Beta virt. eigenvalues --    0.92814   0.92962   0.93346   0.93764   0.94033
  Beta virt. eigenvalues --    0.94349   0.94741   0.95203   0.95529   0.96156
  Beta virt. eigenvalues --    0.96334   0.96471   0.96562   0.96916   0.97246
  Beta virt. eigenvalues --    0.97527   0.97863   0.98188   0.98310   0.98628
  Beta virt. eigenvalues --    0.98979   0.99479   0.99737   0.99993   1.00534
  Beta virt. eigenvalues --    1.01101   1.01220   1.01872   1.02077   1.02492
  Beta virt. eigenvalues --    1.02716   1.02869   1.03407   1.03616   1.03671
  Beta virt. eigenvalues --    1.03938   1.04423   1.04801   1.05111   1.05677
  Beta virt. eigenvalues --    1.05727   1.05857   1.06092   1.06459   1.06515
  Beta virt. eigenvalues --    1.07187   1.07270   1.07758   1.08001   1.08117
  Beta virt. eigenvalues --    1.08710   1.08925   1.09206   1.09609   1.10022
  Beta virt. eigenvalues --    1.10618   1.10868   1.11077   1.11507   1.11824
  Beta virt. eigenvalues --    1.12055   1.12451   1.12553   1.13027   1.13086
  Beta virt. eigenvalues --    1.13304   1.13953   1.14250   1.14917   1.15744
  Beta virt. eigenvalues --    1.15955   1.16399   1.16911   1.17592   1.18076
  Beta virt. eigenvalues --    1.18212   1.18434   1.18893   1.19766   1.20454
  Beta virt. eigenvalues --    1.20525   1.21944   1.22095   1.22396   1.22528
  Beta virt. eigenvalues --    1.22963   1.23287   1.23743   1.23848   1.24683
  Beta virt. eigenvalues --    1.25354   1.25720   1.26228   1.26592   1.26843
  Beta virt. eigenvalues --    1.27391   1.27817   1.28415   1.28908   1.29314
  Beta virt. eigenvalues --    1.29651   1.29763   1.30636   1.30959   1.30986
  Beta virt. eigenvalues --    1.31664   1.32078   1.32400   1.33295   1.33573
  Beta virt. eigenvalues --    1.33823   1.34198   1.34417   1.34916   1.35345
  Beta virt. eigenvalues --    1.36117   1.36235   1.36928   1.37349   1.37484
  Beta virt. eigenvalues --    1.38337   1.38656   1.38983   1.39340   1.39752
  Beta virt. eigenvalues --    1.39969   1.40470   1.41061   1.41251   1.41659
  Beta virt. eigenvalues --    1.42256   1.43072   1.43296   1.44001   1.44814
  Beta virt. eigenvalues --    1.44976   1.45411   1.45955   1.46319   1.47008
  Beta virt. eigenvalues --    1.47529   1.47783   1.48167   1.48548   1.48679
  Beta virt. eigenvalues --    1.49087   1.49718   1.50024   1.50213   1.50794
  Beta virt. eigenvalues --    1.51080   1.51921   1.52061   1.52143   1.52275
  Beta virt. eigenvalues --    1.52562   1.52732   1.53040   1.53668   1.53865
  Beta virt. eigenvalues --    1.54057   1.54217   1.54533   1.55000   1.55159
  Beta virt. eigenvalues --    1.55546   1.55998   1.56483   1.56672   1.57034
  Beta virt. eigenvalues --    1.57129   1.57550   1.58216   1.58394   1.59042
  Beta virt. eigenvalues --    1.59203   1.59422   1.59493   1.59779   1.60099
  Beta virt. eigenvalues --    1.60535   1.61084   1.61224   1.61523   1.62035
  Beta virt. eigenvalues --    1.62187   1.62513   1.62628   1.62871   1.63125
  Beta virt. eigenvalues --    1.63531   1.63657   1.64053   1.64335   1.64561
  Beta virt. eigenvalues --    1.64891   1.65188   1.65540   1.65770   1.65992
  Beta virt. eigenvalues --    1.66040   1.66458   1.66590   1.66871   1.67060
  Beta virt. eigenvalues --    1.67304   1.67671   1.68034   1.68132   1.68250
  Beta virt. eigenvalues --    1.68749   1.68836   1.69233   1.69364   1.69756
  Beta virt. eigenvalues --    1.70052   1.70320   1.70961   1.71268   1.71502
  Beta virt. eigenvalues --    1.71612   1.72061   1.72434   1.72945   1.73200
  Beta virt. eigenvalues --    1.73545   1.73752   1.74157   1.74443   1.74921
  Beta virt. eigenvalues --    1.75209   1.75678   1.76508   1.76733   1.77210
  Beta virt. eigenvalues --    1.77243   1.77772   1.77905   1.78206   1.78926
  Beta virt. eigenvalues --    1.79659   1.79913   1.80373   1.80808   1.81446
  Beta virt. eigenvalues --    1.81832   1.82280   1.82482   1.82891   1.83255
  Beta virt. eigenvalues --    1.83849   1.84123   1.84213   1.84556   1.85271
  Beta virt. eigenvalues --    1.85466   1.86191   1.86840   1.87170   1.87464
  Beta virt. eigenvalues --    1.87804   1.88501   1.88739   1.88997   1.89333
  Beta virt. eigenvalues --    1.89781   1.90124   1.90435   1.90810   1.91183
  Beta virt. eigenvalues --    1.91638   1.91829   1.92296   1.92793   1.93091
  Beta virt. eigenvalues --    1.93858   1.94174   1.94751   1.95366   1.95667
  Beta virt. eigenvalues --    1.95946   1.96224   1.96618   1.97414   1.97597
  Beta virt. eigenvalues --    1.97927   1.98291   1.99349   1.99416   2.00054
  Beta virt. eigenvalues --    2.00161   2.00692   2.01285   2.01410   2.01539
  Beta virt. eigenvalues --    2.01932   2.02101   2.02275   2.02457   2.03099
  Beta virt. eigenvalues --    2.03392   2.04086   2.04271   2.04663   2.04966
  Beta virt. eigenvalues --    2.05203   2.05416   2.06218   2.06300   2.07120
  Beta virt. eigenvalues --    2.07336   2.07780   2.08203   2.08754   2.09446
  Beta virt. eigenvalues --    2.10276   2.10628   2.11278   2.11693   2.11889
  Beta virt. eigenvalues --    2.12358   2.13229   2.13467   2.13642   2.14013
  Beta virt. eigenvalues --    2.14339   2.14582   2.15148   2.15663   2.15927
  Beta virt. eigenvalues --    2.16266   2.16439   2.16624   2.16806   2.17062
  Beta virt. eigenvalues --    2.17587   2.17826   2.18404   2.18996   2.19079
  Beta virt. eigenvalues --    2.19601   2.19810   2.20442   2.21000   2.21875
  Beta virt. eigenvalues --    2.22029   2.22555   2.23062   2.23286   2.23836
  Beta virt. eigenvalues --    2.24226   2.24543   2.24995   2.25645   2.26039
  Beta virt. eigenvalues --    2.26433   2.26772   2.27025   2.27327   2.28297
  Beta virt. eigenvalues --    2.28436   2.28733   2.29268   2.29649   2.30056
  Beta virt. eigenvalues --    2.30393   2.30566   2.30741   2.31505   2.31703
  Beta virt. eigenvalues --    2.32224   2.32534   2.33438   2.33616   2.34653
  Beta virt. eigenvalues --    2.35109   2.35420   2.35771   2.36338   2.36920
  Beta virt. eigenvalues --    2.37079   2.37714   2.38150   2.38634   2.39041
  Beta virt. eigenvalues --    2.39299   2.40260   2.40401   2.41043   2.41680
  Beta virt. eigenvalues --    2.42113   2.42364   2.42864   2.42919   2.43847
  Beta virt. eigenvalues --    2.44038   2.44463   2.44483   2.45538   2.45678
  Beta virt. eigenvalues --    2.46532   2.46635   2.47055   2.47356   2.47579
  Beta virt. eigenvalues --    2.48365   2.48591   2.49543   2.49652   2.50330
  Beta virt. eigenvalues --    2.50526   2.51043   2.51674   2.52866   2.53051
  Beta virt. eigenvalues --    2.53344   2.53657   2.54132   2.54798   2.54971
  Beta virt. eigenvalues --    2.55310   2.55862   2.56011   2.56500   2.57020
  Beta virt. eigenvalues --    2.57138   2.57504   2.57835   2.58228   2.58877
  Beta virt. eigenvalues --    2.59672   2.59902   2.60191   2.60284   2.60512
  Beta virt. eigenvalues --    2.61104   2.61464   2.61919   2.61992   2.62542
  Beta virt. eigenvalues --    2.62976   2.63354   2.63607   2.64243   2.64628
  Beta virt. eigenvalues --    2.64843   2.66084   2.66263   2.66844   2.66979
  Beta virt. eigenvalues --    2.67262   2.67963   2.68521   2.68881   2.69111
  Beta virt. eigenvalues --    2.69308   2.69922   2.70126   2.70258   2.70738
  Beta virt. eigenvalues --    2.71382   2.71610   2.71748   2.72241   2.72383
  Beta virt. eigenvalues --    2.72698   2.73015   2.73668   2.74064   2.74341
  Beta virt. eigenvalues --    2.74716   2.75465   2.75832   2.76002   2.76482
  Beta virt. eigenvalues --    2.76796   2.77253   2.77705   2.78049   2.78265
  Beta virt. eigenvalues --    2.78549   2.78818   2.79435   2.79965   2.80104
  Beta virt. eigenvalues --    2.80387   2.80641   2.80764   2.81034   2.81521
  Beta virt. eigenvalues --    2.82151   2.82269   2.82560   2.83140   2.83575
  Beta virt. eigenvalues --    2.83712   2.84161   2.84555   2.84836   2.84974
  Beta virt. eigenvalues --    2.85611   2.85655   2.86373   2.86666   2.86980
  Beta virt. eigenvalues --    2.87400   2.87676   2.87878   2.88278   2.88684
  Beta virt. eigenvalues --    2.89029   2.89159   2.89464   2.90240   2.90572
  Beta virt. eigenvalues --    2.91123   2.91266   2.91963   2.92131   2.92774
  Beta virt. eigenvalues --    2.92999   2.93292   2.93419   2.93995   2.94336
  Beta virt. eigenvalues --    2.94501   2.95125   2.95492   2.96073   2.96454
  Beta virt. eigenvalues --    2.96590   2.96815   2.97041   2.97396   2.97880
  Beta virt. eigenvalues --    2.97930   2.98327   2.98387   2.99074   2.99364
  Beta virt. eigenvalues --    2.99836   3.00097   3.00425   3.00980   3.01191
  Beta virt. eigenvalues --    3.01561   3.01627   3.02064   3.02499   3.02784
  Beta virt. eigenvalues --    3.03382   3.03596   3.03628   3.04046   3.04152
  Beta virt. eigenvalues --    3.04488   3.04674   3.05017   3.05433   3.05601
  Beta virt. eigenvalues --    3.05897   3.05982   3.06416   3.06649   3.06894
  Beta virt. eigenvalues --    3.07427   3.08082   3.08493   3.08783   3.09123
  Beta virt. eigenvalues --    3.09230   3.09402   3.09970   3.10241   3.10813
  Beta virt. eigenvalues --    3.11023   3.11475   3.11952   3.12106   3.12455
  Beta virt. eigenvalues --    3.12624   3.12833   3.13371   3.13733   3.14312
  Beta virt. eigenvalues --    3.14414   3.14722   3.14805   3.15239   3.15439
  Beta virt. eigenvalues --    3.15606   3.16151   3.16697   3.16962   3.17484
  Beta virt. eigenvalues --    3.17691   3.17978   3.18473   3.18722   3.19004
  Beta virt. eigenvalues --    3.19482   3.20105   3.20534   3.20734   3.21007
  Beta virt. eigenvalues --    3.21233   3.21782   3.22184   3.22626   3.22732
  Beta virt. eigenvalues --    3.22923   3.23126   3.23454   3.23576   3.24226
  Beta virt. eigenvalues --    3.24628   3.24749   3.24829   3.25551   3.26284
  Beta virt. eigenvalues --    3.26489   3.26696   3.27214   3.27519   3.27897
  Beta virt. eigenvalues --    3.28143   3.28281   3.28616   3.29170   3.29340
  Beta virt. eigenvalues --    3.29597   3.29685   3.30221   3.30546   3.30908
  Beta virt. eigenvalues --    3.30964   3.31524   3.31729   3.32151   3.32431
  Beta virt. eigenvalues --    3.32469   3.33081   3.33134   3.33477   3.34110
  Beta virt. eigenvalues --    3.34348   3.34430   3.34644   3.34957   3.35160
  Beta virt. eigenvalues --    3.35718   3.35927   3.36324   3.36545   3.36629
  Beta virt. eigenvalues --    3.37057   3.37620   3.37666   3.38056   3.38107
  Beta virt. eigenvalues --    3.38342   3.38650   3.39046   3.39163   3.39347
  Beta virt. eigenvalues --    3.39602   3.39792   3.40149   3.40300   3.40777
  Beta virt. eigenvalues --    3.41104   3.41329   3.41564   3.41956   3.42007
  Beta virt. eigenvalues --    3.42235   3.42771   3.43406   3.43725   3.43975
[...]
    20 O(17)  Bbb    -0.0008     0.056     0.020     0.019  0.2812  0.8122 -0.5111
              Bcc     0.0017    -0.121    -0.043    -0.040  0.9524 -0.3017  0.0445
 
              Baa    -0.1366    -5.268    -1.880    -1.757  0.8229 -0.5640 -0.0683
    21 N(14)  Bbb    -0.0834    -3.217    -1.148    -1.073 -0.0038 -0.1256  0.9921
              Bcc     0.2200     8.485     3.028     2.830  0.5682  0.8161  0.1055
 
              Baa    -0.0378    -5.078    -1.812    -1.694 -0.0037  0.0576  0.9983
    22 C(13)  Bbb    -0.0190    -2.554    -0.911    -0.852  0.9975 -0.0709  0.0078
              Bcc     0.0569     7.632     2.723     2.546  0.0713  0.9958 -0.0572
 
              Baa    -0.0103    -1.385    -0.494    -0.462  0.8424 -0.5290  0.1023
    23 C(13)  Bbb    -0.0052    -0.697    -0.249    -0.232 -0.0737  0.0749  0.9945
              Bcc     0.0155     2.081     0.743     0.694  0.5338  0.8453 -0.0241
 
              Baa    -0.0104    -1.402    -0.500    -0.468  0.7355 -0.6758 -0.0479
    24 C(13)  Bbb    -0.0079    -1.054    -0.376    -0.352  0.0635 -0.0017  0.9980
              Bcc     0.0183     2.457     0.877     0.819  0.6745  0.7371 -0.0416
 
              Baa    -0.0407    -5.463    -1.949    -1.822 -0.0267 -0.0009  0.9996
    25 C(13)  Bbb    -0.0181    -2.432    -0.868    -0.811 -0.5077  0.8615 -0.0128
              Bcc     0.0588     7.894     2.817     2.633  0.8611  0.5078  0.0235
 
              Baa    -0.0041    -0.545    -0.195    -0.182  0.8906 -0.2769 -0.3607
    26 C(13)  Bbb    -0.0039    -0.525    -0.187    -0.175  0.3574 -0.0638  0.9317
              Bcc     0.0080     1.071     0.382     0.357  0.2810  0.9588 -0.0421
 
              Baa    -0.0045    -0.598    -0.213    -0.199  0.0908 -0.0665  0.9936
    27 C(13)  Bbb    -0.0037    -0.499    -0.178    -0.167 -0.5194  0.8482  0.1042
              Bcc     0.0082     1.097     0.392     0.366  0.8497  0.5256 -0.0425
 
              Baa    -0.0022    -0.298    -0.106    -0.099  0.1306 -0.0165  0.9913
    28 C(13)  Bbb    -0.0022    -0.294    -0.105    -0.098 -0.6585  0.7460  0.0992
              Bcc     0.0044     0.592     0.211     0.198  0.7411  0.6658 -0.0866
 
              Baa    -0.1852    -7.141    -2.548    -2.382  0.6500  0.7465 -0.1424
    29 N(14)  Bbb    -0.0795    -3.066    -1.094    -1.023  0.0660  0.1312  0.9892
              Bcc     0.2647    10.207     3.642     3.405  0.7571 -0.6523  0.0360
 
              Baa    -0.0627    -8.420    -3.004    -2.808  0.0418  0.2086  0.9771
    30 C(13)  Bbb    -0.0436    -5.845    -2.086    -1.950  0.1295  0.9686 -0.2123
              Bcc     0.1063    14.264     5.090     4.758  0.9907 -0.1354 -0.0134
 
              Baa    -0.0273    -3.668    -1.309    -1.223  0.0479 -0.0902  0.9948
    31 C(13)  Bbb    -0.0076    -1.020    -0.364    -0.340  0.6751  0.7369  0.0343
              Bcc     0.0349     4.688     1.673     1.564  0.7362 -0.6699 -0.0962
 
              Baa    -0.0178    -2.393    -0.854    -0.798  0.7106  0.6605  0.2424
    32 C(13)  Bbb    -0.0057    -0.759    -0.271    -0.253 -0.0057 -0.3391  0.9407
              Bcc     0.0235     3.151     1.124     1.051  0.7035 -0.6699 -0.2372
 
              Baa    -0.0861   -11.552    -4.122    -3.853  0.0440  0.0094  0.9990
    33 C(13)  Bbb    -0.0277    -3.722    -1.328    -1.241  0.9778  0.2046 -0.0450
              Bcc     0.1138    15.273     5.450     5.095 -0.2048  0.9788 -0.0002
 
              Baa    -0.0064    -0.857    -0.306    -0.286  0.1303  0.2300  0.9644
    34 C(13)  Bbb    -0.0056    -0.747    -0.267    -0.249  0.3313  0.9067 -0.2610
              Bcc     0.0120     1.604     0.572     0.535  0.9345 -0.3535 -0.0420
 
              Baa    -0.0056    -0.747    -0.266    -0.249  0.8619  0.3721 -0.3446
    35 C(13)  Bbb    -0.0047    -0.634    -0.226    -0.211  0.2823  0.2126  0.9355
              Bcc     0.0103     1.380     0.492     0.460 -0.4213  0.9035 -0.0782
 
              Baa    -0.0031    -0.411    -0.147    -0.137  0.4738  0.3285  0.8171
    36 C(13)  Bbb    -0.0027    -0.365    -0.130    -0.122  0.5940  0.5658 -0.5719
              Bcc     0.0058     0.776     0.277     0.259 -0.6501  0.7563  0.0729
 
              Baa    -0.1313    -5.062    -1.806    -1.689 -0.6803  0.7261 -0.1000
    37 N(14)  Bbb    -0.0505    -1.949    -0.695    -0.650  0.0332  0.1668  0.9854
              Bcc     0.1818     7.011     2.502     2.339  0.7322  0.6670 -0.1376
 
              Baa    -0.0660    -8.861    -3.162    -2.956 -0.0511  0.1565  0.9864
    38 C(13)  Bbb     0.0002     0.024     0.009     0.008  0.9053 -0.4098  0.1119
              Bcc     0.0659     8.837     3.153     2.948  0.4217  0.8987 -0.1207
 
              Baa    -0.0245    -3.283    -1.171    -1.095  0.7813 -0.6128  0.1183
    39 C(13)  Bbb     0.0007     0.098     0.035     0.033  0.6194  0.7847 -0.0258
              Bcc     0.0237     3.185     1.136     1.062 -0.0770  0.0934  0.9926
 
              Baa    -0.0538    -7.226    -2.578    -2.410 -0.0115  0.1279  0.9917
    40 C(13)  Bbb     0.0158     2.120     0.757     0.707 -0.6249  0.7734 -0.1070
              Bcc     0.0380     5.105     1.822     1.703  0.7807  0.6209 -0.0710
 
              Baa    -0.0225    -3.025    -1.079    -1.009 -0.1974  0.9714 -0.1319
    41 C(13)  Bbb    -0.0182    -2.438    -0.870    -0.813  0.0104  0.1366  0.9906
              Bcc     0.0407     5.463     1.949     1.822  0.9803  0.1942 -0.0371
 
              Baa    -0.0040    -0.542    -0.193    -0.181  0.8951 -0.4301  0.1177
    42 C(13)  Bbb    -0.0028    -0.378    -0.135    -0.126 -0.0502  0.1651  0.9850
              Bcc     0.0069     0.920     0.328     0.307  0.4431  0.8876 -0.1262
 
              Baa    -0.0046    -0.615    -0.220    -0.205 -0.0082  0.0890  0.9960
    43 C(13)  Bbb    -0.0032    -0.434    -0.155    -0.145 -0.4145  0.9061 -0.0844
              Bcc     0.0078     1.049     0.374     0.350  0.9100  0.4136 -0.0295
 
              Baa    -0.0035    -0.468    -0.167    -0.156  0.1098 -0.0386  0.9932
    44 C(13)  Bbb    -0.0009    -0.116    -0.042    -0.039 -0.4618  0.8829  0.0854
              Bcc     0.0044     0.585     0.209     0.195  0.8802  0.4680 -0.0791
 
              Baa    -0.0010    -0.129    -0.046    -0.043 -0.4516  0.7394  0.4993
    45 C(13)  Bbb    -0.0009    -0.121    -0.043    -0.040  0.0761 -0.5256  0.8473
              Bcc     0.0019     0.250     0.089     0.083  0.8890  0.4206  0.1811
 
              Baa    -0.0004     0.032     0.011     0.011 -0.5242  0.1372  0.8405
    46 O(17)  Bbb    -0.0002     0.017     0.006     0.006 -0.3352  0.8740 -0.3517
              Bcc     0.0007    -0.049    -0.017    -0.016  0.7829  0.4661  0.4122
 
              Baa    -0.0010     0.070     0.025     0.023 -0.2899  0.7978  0.5287
    47 O(17)  Bbb    -0.0008     0.057     0.020     0.019  0.1467 -0.5089  0.8483
              Bcc     0.0018    -0.127    -0.045    -0.042  0.9457  0.3235  0.0305
 
              Baa    -0.0051    -2.739    -0.977    -0.914 -0.0262 -0.1792  0.9835
    48 H(1)   Bbb    -0.0050    -2.692    -0.961    -0.898  0.0040  0.9838  0.1794
              Bcc     0.0102     5.432     1.938     1.812  0.9996 -0.0087  0.0250
 
              Baa    -0.0061    -3.229    -1.152    -1.077  0.9825  0.1793  0.0513
    49 H(1)   Bbb    -0.0055    -2.926    -1.044    -0.976 -0.0497 -0.0134  0.9987
              Bcc     0.0115     6.154     2.196     2.053 -0.1797  0.9837  0.0042
 
              Baa    -0.0093    -4.955    -1.768    -1.653 -0.0398  0.2024  0.9785
    50 H(1)   Bbb    -0.0087    -4.656    -1.662    -1.553 -0.1233  0.9708 -0.2059
              Bcc     0.0180     9.612     3.430     3.206  0.9916  0.1288  0.0137
 
              Baa    -0.0085    -4.558    -1.627    -1.520  0.9893 -0.0600 -0.1331
    51 H(1)   Bbb    -0.0084    -4.496    -1.604    -1.500  0.1410  0.1564  0.9776
              Bcc     0.0170     9.054     3.231     3.020  0.0378  0.9859 -0.1632
 
              Baa    -0.0024    -1.295    -0.462    -0.432  0.5721  0.4558  0.6819
    52 H(1)   Bbb    -0.0023    -1.238    -0.442    -0.413 -0.6658 -0.2274  0.7106
              Bcc     0.0047     2.533     0.904     0.845 -0.4790  0.8605 -0.1734
 
              Baa    -0.0019    -1.000    -0.357    -0.334 -0.1215 -0.0467  0.9915
    53 H(1)   Bbb    -0.0018    -0.982    -0.350    -0.328  0.7442  0.6567  0.1221
              Bcc     0.0037     1.982     0.707     0.661 -0.6568  0.7527 -0.0450
 
              Baa    -0.0024    -1.280    -0.457    -0.427 -0.5401 -0.3809  0.7505
    54 H(1)   Bbb    -0.0023    -1.217    -0.434    -0.406  0.6870  0.3156  0.6546
              Bcc     0.0047     2.496     0.891     0.833 -0.4862  0.8691  0.0912
 
              Baa    -0.0018    -0.978    -0.349    -0.326  0.1743  0.4944  0.8516
    55 H(1)   Bbb    -0.0017    -0.925    -0.330    -0.309  0.4875  0.7081 -0.5108
              Bcc     0.0036     1.903     0.679     0.635  0.8555 -0.5042  0.1176
 
              Baa    -0.0024    -1.258    -0.449    -0.420  0.3204  0.8255 -0.4646
    56 H(1)   Bbb    -0.0023    -1.208    -0.431    -0.403  0.0349  0.4798  0.8767
              Bcc     0.0046     2.466     0.880     0.823  0.9466 -0.2971  0.1249
 
              Baa    -0.0020    -1.059    -0.378    -0.353  0.1581  0.8783 -0.4513
    57 H(1)   Bbb    -0.0019    -1.024    -0.365    -0.341  0.3265  0.3848  0.8633
              Bcc     0.0039     2.082     0.743     0.695  0.9319 -0.2838 -0.2260
 
              Baa    -0.0016    -0.870    -0.310    -0.290  0.4437  0.4477  0.7763
    58 H(1)   Bbb    -0.0016    -0.827    -0.295    -0.276  0.2837  0.7516 -0.5955
              Bcc     0.0032     1.697     0.606     0.566  0.8501 -0.4845 -0.2065
 
              Baa    -0.0027    -1.417    -0.506    -0.473  0.8363 -0.2668 -0.4791
    59 H(1)   Bbb    -0.0025    -1.315    -0.469    -0.439  0.4135 -0.2670  0.8705
              Bcc     0.0051     2.732     0.975     0.911  0.3601  0.9260  0.1130
 
              Baa    -0.0027    -1.450    -0.517    -0.484  0.8740 -0.2639  0.4081
    60 H(1)   Bbb    -0.0025    -1.347    -0.481    -0.449 -0.3267  0.3026  0.8954
              Bcc     0.0052     2.797     0.998     0.933  0.3598  0.9158 -0.1783
 
              Baa    -0.0032    -1.728    -0.617    -0.577 -0.0614  0.0402  0.9973
    61 H(1)   Bbb    -0.0029    -1.548    -0.553    -0.517  0.9889 -0.1328  0.0663
              Bcc     0.0061     3.277     1.169     1.093  0.1351  0.9903 -0.0316
 
              Baa    -0.0035    -1.850    -0.660    -0.617 -0.3015  0.1937  0.9336
    62 H(1)   Bbb    -0.0032    -1.731    -0.618    -0.577 -0.4377  0.8417 -0.3161
              Bcc     0.0067     3.581     1.278     1.195  0.8470  0.5039  0.1690
 
              Baa    -0.0019    -1.032    -0.368    -0.344  0.0857 -0.1044  0.9908
    63 H(1)   Bbb    -0.0019    -1.004    -0.358    -0.335  0.7365 -0.6631 -0.1336
              Bcc     0.0038     2.035     0.726     0.679  0.6710  0.7412  0.0201
 
              Baa    -0.0015    -0.826    -0.295    -0.276 -0.0503  0.1771  0.9829
    64 H(1)   Bbb    -0.0015    -0.797    -0.284    -0.266 -0.5935  0.7863 -0.1721
              Bcc     0.0030     1.623     0.579     0.541  0.8033  0.5920 -0.0656
 
              Baa    -0.0021    -1.098    -0.392    -0.366 -0.5894  0.7154  0.3753
    65 H(1)   Bbb    -0.0020    -1.093    -0.390    -0.364  0.4147 -0.1308  0.9005
              Bcc     0.0041     2.191     0.782     0.731  0.6933  0.6864 -0.2196
 
              Baa    -0.0034    -1.828    -0.652    -0.610  0.4137  0.9073  0.0750
    66 H(1)   Bbb    -0.0032    -1.686    -0.601    -0.562 -0.1880  0.0045  0.9822
              Bcc     0.0066     3.513     1.254     1.172  0.8908 -0.4204  0.1725
 
              Baa    -0.0035    -1.884    -0.672    -0.628  0.3346  0.8106 -0.4806
    67 H(1)   Bbb    -0.0031    -1.671    -0.596    -0.557  0.3257  0.3791  0.8662
              Bcc     0.0067     3.554     1.268     1.186  0.8843 -0.4464 -0.1371
 
              Baa    -0.0046    -2.439    -0.870    -0.814  0.0391  0.1557  0.9870
    68 H(1)   Bbb    -0.0040    -2.118    -0.756    -0.706  0.1871  0.9692 -0.1603
              Bcc     0.0085     4.557     1.626     1.520  0.9816 -0.1910 -0.0088
 
              Baa    -0.0042    -2.258    -0.806    -0.753 -0.2913 -0.1288  0.9479
    69 H(1)   Bbb    -0.0037    -1.954    -0.697    -0.652  0.9068  0.2783  0.3165
              Bcc     0.0079     4.212     1.503     1.405 -0.3046  0.9518  0.0358
 
              Baa    -0.0019    -1.031    -0.368    -0.344  0.6177  0.4899 -0.6152
    70 H(1)   Bbb    -0.0018    -0.948    -0.338    -0.316  0.5778  0.2480  0.7776
              Bcc     0.0037     1.979     0.706     0.660 -0.5335  0.8357  0.1299
 
              Baa    -0.0026    -1.386    -0.495    -0.462  0.2998  0.2073  0.9312
    71 H(1)   Bbb    -0.0022    -1.198    -0.428    -0.400  0.6306  0.6894 -0.3565
              Bcc     0.0048     2.585     0.922     0.862  0.7159 -0.6941 -0.0760
 
              Baa    -0.0018    -0.966    -0.345    -0.322  0.7872  0.6160 -0.0275
    72 H(1)   Bbb    -0.0017    -0.900    -0.321    -0.300 -0.0471  0.1046  0.9934
              Bcc     0.0035     1.865     0.666     0.622 -0.6149  0.7807 -0.1113
 
              Baa    -0.0028    -1.520    -0.542    -0.507  0.8267 -0.4832 -0.2882
    73 H(1)   Bbb    -0.0026    -1.398    -0.499    -0.466  0.2275 -0.1813  0.9567
              Bcc     0.0055     2.919     1.041     0.974  0.5146  0.8565  0.0400
 
              Baa    -0.0036    -1.903    -0.679    -0.635 -0.0426  0.1608  0.9861
    74 H(1)   Bbb    -0.0033    -1.737    -0.620    -0.579  0.9491 -0.3018  0.0903
              Bcc     0.0068     3.640     1.299     1.214  0.3122  0.9397 -0.1397
 
              Baa    -0.0028    -1.493    -0.533    -0.498  0.8006 -0.3630  0.4767
    75 H(1)   Bbb    -0.0026    -1.392    -0.497    -0.464 -0.2880  0.4644  0.8375
              Bcc     0.0054     2.885     1.030     0.962  0.5254  0.8078 -0.2673
 
              Baa    -0.0021    -1.139    -0.406    -0.380 -0.1840  0.5137  0.8380
    76 H(1)   Bbb    -0.0017    -0.930    -0.332    -0.310 -0.4934  0.6891 -0.5308
              Bcc     0.0039     2.068     0.738     0.690  0.8501  0.5111 -0.1267
 
              Baa    -0.0025    -1.349    -0.481    -0.450  0.2877 -0.5175  0.8059
    77 H(1)   Bbb    -0.0023    -1.250    -0.446    -0.417 -0.2122  0.7861  0.5805
              Bcc     0.0049     2.599     0.927     0.867  0.9339  0.3380 -0.1163
 
              Baa    -0.0029    -1.543    -0.551    -0.515 -0.0086 -0.5428  0.8398
    78 H(1)   Bbb    -0.0023    -1.238    -0.442    -0.413 -0.4404  0.7561  0.4841
              Bcc     0.0052     2.781     0.992     0.928  0.8977  0.3657  0.2456
 
              Baa    -0.0023    -1.215    -0.433    -0.405 -0.4905  0.5019  0.7124
    79 H(1)   Bbb    -0.0018    -0.941    -0.336    -0.314  0.2909 -0.6763  0.6767
              Bcc     0.0040     2.156     0.769     0.719  0.8215  0.5392  0.1857
 
              Baa    -0.0006    -0.309    -0.110    -0.103  0.4032  0.8703  0.2828
    80 H(1)   Bbb    -0.0006    -0.307    -0.110    -0.102  0.0772 -0.3403  0.9371
              Bcc     0.0012     0.616     0.220     0.206  0.9118 -0.3561 -0.2044
 
              Baa    -0.0009    -0.499    -0.178    -0.166 -0.2044  0.7947  0.5716
    81 H(1)   Bbb    -0.0009    -0.489    -0.174    -0.163  0.1239 -0.5582  0.8204
              Bcc     0.0019     0.988     0.352     0.330  0.9710  0.2385  0.0156
 
              Baa    -0.0037    -1.997    -0.713    -0.666  0.7157  0.5039  0.4836
    82 H(1)   Bbb    -0.0033    -1.773    -0.633    -0.591 -0.5650  0.0107  0.8251
              Bcc     0.0071     3.770     1.345     1.258 -0.4106  0.8637 -0.2923
 
              Baa    -0.0039    -2.102    -0.750    -0.701  0.1958 -0.0790  0.9775
    83 H(1)   Bbb    -0.0038    -2.001    -0.714    -0.668 -0.4165  0.8957  0.1558
              Bcc     0.0077     4.103     1.464     1.369  0.8878  0.4376 -0.1424
 
              Baa    -0.0110    -5.854    -2.089    -1.953 -0.5360  0.6982  0.4746
    84 H(1)   Bbb    -0.0088    -4.670    -1.666    -1.558  0.5757  0.7134 -0.3995
              Bcc     0.0197    10.524     3.755     3.510  0.6175 -0.0591  0.7843
 
              Baa    -0.0196   -10.434    -3.723    -3.480  0.3344  0.9398 -0.0706
    85 H(1)   Bbb    -0.0170    -9.081    -3.240    -3.029  0.8809 -0.2850  0.3778
              Bcc     0.0366    19.515     6.963     6.510 -0.3349  0.1885  0.9232
 

 ---------------------------------------------------------------------------------

 1\1\GINC-NODE468\SP\UPBE1PBE\def2TZVP\C35H40Fe1N4O4S1(5)\KLEICH\13-Sep
 -2022\0\\# PBE1PBE/def2TZVP empiricaldispersion=GD3BJ int=(grid=ultraf
 ine) geom=check guess=read scrf=(smd,solvent=Chloroform)\\7abb_II_Q_so
 lv\\0,5\C,0,19.013,33.007,0.\S,0,17.62,31.94,-0.421\H,0,19.81865645,32
 .82697525,-0.68074134\H,0,19.33539499,32.7954738,0.99810728\Fe,0,17.27
 331395,31.37270864,-2.48664501\C,0,18.753,34.761,-3.605\C,0,20.928,30.
 569,-2.703\C,0,16.619,28.513,-1.706\C,0,14.422,32.593,-3.008\N,0,19.45
 1,32.483,-3.087\C,0,19.714,33.814,-3.411\C,0,21.136,34.059,-3.537\C,0,
 21.722,32.878,-3.27\C,0,20.699,31.899,-2.995\C,0,23.225,32.546,-3.277\
 C,0,21.834,35.427,-3.866\C,0,22.008,35.691,-5.356\C,0,22.739,37.007,-5
 .561\O,0,22.829,37.384,-6.752\O,0,23.192,37.61,-4.553\N,0,18.581,29.87
 1,-2.336\C,0,19.945,29.644,-2.353\C,0,20.162,28.294,-1.927\C,0,18.973,
 27.739,-1.629\C,0,17.963,28.702,-1.902\C,0,21.586,27.712,-1.824\C,0,18
 .56,26.368,-1.159\C,0,19.643,25.496,-0.611\N,0,15.858,30.73,-2.443\C,0
 ,15.657,29.463,-1.945\C,0,14.248,29.26,-1.738\C,0,13.604,30.396,-2.089
 \C,0,14.618,31.315,-2.552\C,0,13.652,27.967,-1.178\C,0,12.107,30.747,-
 2.11\C,0,11.13,29.935,-1.26\N,0,16.783,33.33,-3.227\C,0,15.399,33.495,
 -3.284\C,0,15.133,34.842,-3.68\C,0,16.438,35.53,-3.875\C,0,17.419,34.5
 18,-3.549\C,0,13.737,35.445,-3.881\C,0,16.692,36.984,-4.309\C,0,16.819
 ,37.819,-3.058\C,0,17.174,39.248,-3.421\O,0,17.04,40.138,-2.554\O,0,17
 .585,39.463,-4.579\H,0,19.045,35.677,-3.797\H,0,21.854,30.25,-2.744\H,
 0,16.324,27.639,-1.373\H,0,13.495,32.881,-3.147\H,0,23.496,32.239,-2.3
 87\H,0,23.735,33.348,-3.515\H,0,23.4,31.841,-3.935\H,0,22.709,35.435,-
 3.447\H,0,21.303,36.144,-3.486\H,0,21.136,35.736,-5.78\H,0,22.522,34.9
 71,-5.754\H,0,21.665,26.946,-2.414\H,0,21.757,27.436,-0.91\H,0,22.231,
 28.388,-2.083\H,0,18.11075906,25.85713126,-1.98489086\H,0,20.317,25.35
 1,-1.294\H,0,19.267,24.644,-0.341\H,0,20.049,25.929,0.157\H,0,13.04,27
 .586,-1.827\H,0,13.174,28.16,-0.357\H,0,14.365,27.335,-0.997\H,0,12.01
 595685,31.76985339,-1.80936387\H,0,10.686,30.522,-0.628\H,0,11.615,29.
 248,-0.777\H,0,10.468,29.52,-1.835\H,0,13.617,36.201,-3.27\H,0,13.057,
 34.764,-3.696\H,0,13.646,35.755,-4.806\H,0,15.948,37.303,-4.843\H,0,17
 .513,37.036,-4.824\H,0,17.515,37.448,-2.494\H,0,15.976,37.809,-2.578\H
 ,0,23.69272672,37.51045236,-7.15148211\H,0,18.52811134,39.49572655,-4.
 75526675\H,0,11.77832945,30.67761529,-3.12590424\H,0,17.81714643,26.48
 941115,-0.39852126\H,0,18.71094992,34.03124546,-0.06772734\H,0,16.8180
 1705,31.50785892,0.52036998\\Version=ES64L-G16RevA.03\State=5-A\HF=-35
 37.5713089\S2=6.081554\S2-1=0.\S2A=6.000771\RMSD=1.785e-09\Dipole=0.59
 99348,-2.4595506,-0.288064\Quadrupole=22.752459,-32.0788083,9.3263492,
 10.8975274,-18.2801247,-27.9236078\PG=C01 [X(C35H40Fe1N4O4S1)]\\@


 "WOULD YOU TELL ME PLEASE, WHICH WAY I OUGHT TO WALK FROM HERE?"
 "THAT DEPENDS A GREAT DEAL ON WHERE YOU WANT TO GO," SAID THE CAT.
 "I DON'T MUCH CARE WHERE -- ", SAID ALICE.
 "THEN IT DOESN'T MATTER WHICH WAY YOU WALK," SAID THE CAT.

                                      -- LEWIS CARROLL
 Job cpu time:       1 days 21 hours 53 minutes 12.0 seconds.
 Elapsed time:       0 days 11 hours 30 minutes 50.3 seconds.
 File lengths (MBytes):  RWF=   3148 Int=      0 D2E=      0 Chk=    221 Scr=      1
 Normal termination of Gaussian 16 at Tue Sep 13 01:02:06 2022.
