 Entering Gaussian System, Link 0=g16
 Input=/net/homes/chemie/zhartovska/work/BioModel/Konrad/1aw3/1aw305/1aw305.com
 Output=/net/homes/chemie/zhartovska/work/BioModel/Konrad/1aw3/1aw305/1aw305.log
 Initial command:
 /afs/math/software/gaussian/g16.A03/g16/l1.exe "/scratch/zhartovska_gaussian.t5hRGyJ/Gau-16128.inp" -scrdir="/scratch/zhartovska_gaussian.t5hRGyJ/"
 Entering Link 1 = /afs/math/software/gaussian/g16.A03/g16/l1.exe PID=     16129.
  
 Copyright (c) 1988,1990,1992,1993,1995,1998,2003,2009,2016,
            Gaussian, Inc.  All Rights Reserved.
  
 This is part of the Gaussian(R) 16 program.  It is based on
 the Gaussian(R) 09 system (copyright 2009, Gaussian, Inc.),
 the Gaussian(R) 03 system (copyright 2003, Gaussian, Inc.),
 the Gaussian(R) 98 system (copyright 1998, Gaussian, Inc.),
 the Gaussian(R) 94 system (copyright 1995, Gaussian, Inc.),
 the Gaussian 92(TM) system (copyright 1992, Gaussian, Inc.),
 the Gaussian 90(TM) system (copyright 1990, Gaussian, Inc.),
 the Gaussian 88(TM) system (copyright 1988, Gaussian, Inc.),
 the Gaussian 86(TM) system (copyright 1986, Carnegie Mellon
 University), and the Gaussian 82(TM) system (copyright 1983,
 Carnegie Mellon University). Gaussian is a federally registered
 trademark of Gaussian, Inc.
  
 This software contains proprietary and confidential information,
 including trade secrets, belonging to Gaussian, Inc.
  
 This software is provided under written license and may be
 used, copied, transmitted, or stored only in accord with that
 written license.
  
 The following legend is applicable only to US Government
 contracts under FAR:
  
                    RESTRICTED RIGHTS LEGEND
  
 Use, reproduction and disclosure by the US Government is
 subject to restrictions as set forth in subparagraphs (a)
 and (c) of the Commercial Computer Software - Restricted
 Rights clause in FAR 52.227-19.
  
 Gaussian, Inc.
 340 Quinnipiac St., Bldg. 40, Wallingford CT 06492
  
  
 ---------------------------------------------------------------
 Warning -- This program may not be used in any manner that
 competes with the business of Gaussian, Inc. or will provide
 assistance to any competitor of Gaussian, Inc.  The licensee
 of this program is prohibited from giving any competitor of
 Gaussian, Inc. access to this program.  By using this program,
 the user acknowledges that Gaussian, Inc. is engaged in the
 business of creating and licensing software in the field of
 computational chemistry and represents and warrants to the
 licensee that it is not a competitor of Gaussian, Inc. and that
 it will not use this program in any manner prohibited above.
 ---------------------------------------------------------------
  

 Cite this work as:
 Gaussian 16, Revision A.03,
 M. J. Frisch, G. W. Trucks, H. B. Schlegel, G. E. Scuseria, 
 M. A. Robb, J. R. Cheeseman, G. Scalmani, V. Barone, 
 G. A. Petersson, H. Nakatsuji, X. Li, M. Caricato, A. V. Marenich, 
 J. Bloino, B. G. Janesko, R. Gomperts, B. Mennucci, H. P. Hratchian, 
 J. V. Ortiz, A. F. Izmaylov, J. L. Sonnenberg, D. Williams-Young, 
 F. Ding, F. Lipparini, F. Egidi, J. Goings, B. Peng, A. Petrone, 
 T. Henderson, D. Ranasinghe, V. G. Zakrzewski, J. Gao, N. Rega, 
 G. Zheng, W. Liang, M. Hada, M. Ehara, K. Toyota, R. Fukuda, 
 J. Hasegawa, M. Ishida, T. Nakajima, Y. Honda, O. Kitao, H. Nakai, 
 T. Vreven, K. Throssell, J. A. Montgomery, Jr., J. E. Peralta, 
 F. Ogliaro, M. J. Bearpark, J. J. Heyd, E. N. Brothers, K. N. Kudin, 
 V. N. Staroverov, T. A. Keith, R. Kobayashi, J. Normand, 
 K. Raghavachari, A. P. Rendell, J. C. Burant, S. S. Iyengar, 
 J. Tomasi, M. Cossi, J. M. Millam, M. Klene, C. Adamo, R. Cammi, 
 J. W. Ochterski, R. L. Martin, K. Morokuma, O. Farkas, 
 J. B. Foresman, and D. J. Fox, Gaussian, Inc., Wallingford CT, 2016.
 
 ******************************************
 Gaussian 16:  ES64L-G16RevA.03 25-Dec-2016
                 5-Feb-2023 
 ******************************************
 %nprocs=12
 Will use up to   12 processors via shared memory.
 %mem=16GB
 %oldchk=1aw3_II_S.chk
 %chk=1aw3_II_Q.chk
 Copying data from "1aw3_II_S.chk" to current chk file "1aw3_II_Q.chk"
 IOpt=  2 FromEx=T IUOpen= 4 IOptOp= 5 NList=   0 IFRang= 0 IUIn= 4 IUOut= 2.
 ----------------------------------------------------------------------
 # PBE1PBE/def2TZVP empiricaldispersion=GD3BJ scf=maxcycle=999 geom=che
 ck pop=nbo
 ----------------------------------------------------------------------
 1/29=2,38=1,172=1/1;
 2/12=2,40=1/2;
 3/5=44,7=101,11=2,14=-4,25=1,30=1,74=-13,124=41/1,2,3;
 4//1;
 5/5=2,7=999,38=5/2;
 6/7=2,8=2,9=2,10=2,28=1,40=1/1,7;
 99/5=1,9=1/99;
 ---------
 1aw3_II_Q
 ---------
 Structure from the checkpoint file:  "1aw3_II_Q.chk"
 Charge =  0 Multiplicity = 5
 Z-Matrix found in chk file.
 C,0,4.428,9.754,1.996
 C,0,3.012,9.72,2.522
 N,0,2.674,9.452,3.824
 C,0,1.843,9.805,1.81
 C,0,1.338,9.387,3.894
 N,0,0.779,9.575,2.689
 H,0,4.58961716,8.91469111,1.35230716
 H,0,5.11416854,9.71198695,2.81594368
 H,0,3.321,9.286,4.585
 H,0,1.751,9.989,0.755
 H,0,0.806,9.184,4.805
 C,0,-6.248,10.013,0.126
 C,0,-5.16,9.694,1.112
 N,0,-5.297,8.979,2.278
 C,0,-3.834,9.989,0.948
 C,0,-4.062,8.858,2.802
 N,0,-3.129,9.446,2.021
 H,0,-6.88794025,9.16286096,0.01357186
 H,0,-5.81161942,10.25847869,-0.81962794
 H,0,-6.156,8.576,2.649
 H,0,-3.408,10.531,0.12
 H,0,-3.877,8.333,3.724
 C,0,-1.333,12.913,2.873
 C,0,-0.466,10.195,-1.128
 C,0,-1.143,6.149,1.56
 C,0,-1.72,8.874,5.632
 C,0,-1.123,12.495,1.558
 C,0,-1.063,13.397,0.434
 C,0,-0.748,12.656,-0.682
 C,0,-0.715,11.269,-0.274
 C,0,-0.515,13.218,-2.067
 C,0,-1.36,14.878,0.473
 C,0,-2.786,15.185,0.941
 C,0,-3.153,16.658001,0.83
 O,0,-2.5,17.358999,0.027
 O,0,-4.098,17.055,1.544
 C,0,-0.534,8.873,-0.708
 C,0,-0.314,7.74,-1.577
 C,0,-0.563,6.629,-0.812
 C,0,-0.863,7.033,0.532
 C,0,0.108,7.775,-3.026
 C,0,-0.44,5.191,-1.257
 C,0,-0.981,4.782,-2.415
 C,0,-1.347,6.551,2.877
 C,0,-1.673,5.652,3.954
 C,0,-1.699,6.409,5.097
 C,0,-1.571,7.799,4.746
 C,0,-1.997,4.189,3.838
 C,0,-2.042,5.893,6.476
 C,0,-1.558,4.719,6.939
 C,0,-1.672,10.215,5.225
 C,0,-1.869,11.355,6.093
 C,0,-1.72,12.494,5.327
 C,0,-1.482,12.058,3.967
 C,0,-2.221,11.305,7.561
 C,0,-1.929,13.933,5.773
 C,0,-1.24,14.359,7.076
 C,0,-1.561,15.812,7.393
 O,0,-0.742,16.674,7.011
 O,0,-2.63,16.031,8.002
 N,0,-0.975,11.234,1.077
 N,0,-0.821,8.393,0.554
 N,0,-1.332,7.823,3.394
 N,0,-1.461,10.7,3.968
 Fe,0,-1.148,9.534,2.257
 H,0,-0.257,10.379,-2.168
 H,0,-1.196,5.104,1.306
 H,0,-1.899,8.65,6.671
 H,0,-0.18,4.44,-0.536
 H,0,-2.635,6.508,7.131
 H,0,-1.347,13.973,3.044
 H,0,0.244,13.998,-2.019
 H,0,-0.176,12.464,-2.774
 H,0,-1.442,13.654,-2.439
 H,0,-0.665,15.381,1.137
 H,0,-1.23,15.299,-0.524
 H,0,-3.456,14.608,0.324
 H,0,-2.954,14.883,1.971
 H,0,0.921,8.486,-3.162
 H,0,0.467,6.797,-3.34
 H,0,-0.741,8.059,-3.645
 H,0,-1.84,5.341,-2.723
 H,0,-0.882,3.752,-2.724
 H,0,-1.096,3.595,3.995
 H,0,-2.746,3.95,4.592
 H,0,-2.42,3.965,2.862
 H,0,-0.823,4.169,6.371
 H,0,-1.719,4.449,7.972
 H,0,-1.321,11.466,8.155
 H,0,-2.959,12.076,7.784
 H,0,-2.658,10.349,7.838
 H,0,-1.535,14.623,5.031
 H,0,-3.002,14.12,5.836
 H,0,-1.564,13.767,7.925
 H,0,-0.163,14.253,6.971
 H,0,-6.81922222,10.84482526,0.48190999
 H,0,4.58299214,10.65939995,1.44724835
 H,0,0.20042932,16.50684755,7.08507452
 H,0,-3.91740197,17.5131862,2.36804476
 Recover connectivity data from disk.
 Stoichiometry    C42H44FeN8O4(5)
 Framework group  C1[X(C42H44FeN8O4)]
 Deg. of freedom   291
 Full point group                 C1      NOp   1
 Largest Abelian subgroup         C1      NOp   1
 Largest concise Abelian subgroup C1      NOp   1
                         Standard orientation:                         
 ---------------------------------------------------------------------
 Center     Atomic      Atomic             Coordinates (Angstroms)
 Number     Number       Type             X           Y           Z
 ---------------------------------------------------------------------
      1          6           0       -1.448881   -0.351831    5.649911
      2          6           0       -1.144827    0.175470    4.267019
      3          7           0       -0.957151    1.500292    3.965529
      4          6           0       -1.138233   -0.513932    3.081518
      5          6           0       -0.831937    1.602772    2.635928
      6          7           0       -0.954543    0.405563    2.043046
      7          1           0       -2.458239   -0.705400    5.682857
      8          1           0       -1.322159    0.432559    6.366552
      9          1           0       -0.960672    2.267558    4.626269
     10          1           0       -1.276381   -1.572822    2.958989
     11          1           0       -0.678712    2.538031    2.129997
     12          6           0       -0.457788   -2.083737   -5.006504
     13          6           0       -0.591298   -1.060343   -3.914468
     14          7           0       -0.892034    0.271427   -4.074143
     15          6           0       -0.526984   -1.323384   -2.573249
     16          6           0       -0.998357    0.792493   -2.836554
     17          7           0       -0.797932   -0.143303   -1.882453
     18          1           0       -1.215552   -1.919440   -5.743864
     19          1           0       -0.569708   -3.063957   -4.592329
     20          1           0       -1.052591    0.759223   -4.954034
     21          1           0       -0.321712   -2.283608   -2.129788
     22          1           0       -1.234304    1.829589   -2.667156
     23          6           0        2.513473   -0.429642    0.336605
     24          6           0       -1.384778   -3.400560    0.689444
     25          6           0       -4.296533    0.417350   -0.310072
     26          6           0       -0.405767    3.450168   -0.370845
     27          6           0        1.690144   -1.552592    0.432324
     28          6           0        2.189766   -2.901512    0.538967
     29          6           0        1.109553   -3.736367    0.711937
     30          6           0       -0.078678   -2.918809    0.606922
     31          6           0        1.186924   -5.230017    0.938612
     32          6           0        3.636283   -3.320166    0.414843
     33          6           0        4.245663   -2.953623   -0.942011
     34          6           0        5.647330   -3.511565   -1.143925
     35          8           0        5.982278   -4.500007   -0.455878
     36          8           0        6.357568   -2.944754   -2.001081
     37          6           0       -2.495499   -2.590557    0.492207
     38          6           0       -3.858298   -3.067930    0.538492
     39          6           0       -4.641805   -1.993248    0.202751
     40          6           0       -3.811682   -0.837326    0.017569
     41          6           0       -4.321308   -4.461238    0.889527
     42          6           0       -6.150605   -1.971830    0.139032
     43          6           0       -6.824525   -2.939451   -0.501647
     44          6           0       -3.488434    1.547092   -0.401560
     45          6           0       -3.966747    2.853544   -0.774129
     46          6           0       -2.898880    3.705692   -0.657177
     47          6           0       -1.710255    2.939488   -0.389247
     48          6           0       -5.343111    3.200752   -1.267960
     49          6           0       -2.921076    5.180673   -0.988059
     50          6           0       -3.947155    5.979141   -0.618587
     51          6           0        0.729342    2.646868   -0.190646
     52          6           0        2.095599    3.120848   -0.213362
     53          6           0        2.917587    2.037714    0.026292
     54          6           0        2.060022    0.877236    0.145518
     55          6           0        2.541620    4.536042   -0.495706
     56          6           0        4.438267    2.017952    0.004840
     57          6           0        5.154360    3.116395    0.801482
     58          6           0        6.662578    2.970983    0.664109
     59          8           0        7.257943    2.330874    1.556033
     60          8           0        7.187969    3.494637   -0.341552
     61          7           0        0.334289   -1.620577    0.411786
     62          7           0       -2.526479   -1.238624    0.215202
     63          7           0       -2.131315    1.643964   -0.216250
     64          7           0        0.775966    1.299035    0.011763
     65         26           0       -0.887415    0.030362    0.104915
     66          1           0       -1.555534   -4.448745    0.866328
     67          1           0       -5.354131    0.500555   -0.494227
     68          1           0       -0.276780    4.509451   -0.522566
     69          1           0       -6.670709   -1.056618    0.347170
     70          1           0       -2.066654    5.619640   -1.474034
     71          1           0        3.568084   -0.595609    0.451880
     72          1           0        1.844035   -5.435218    1.782936
     73          1           0        0.216769   -5.672316    1.154150
     74          1           0        1.599062   -5.707902    0.050030
     75          1           0        4.228560   -2.853126    1.194594
     76          1           0        3.712160   -4.400031    0.542454
     77          1           0        3.594848   -3.353332   -1.703057
     78          1           0        4.296911   -1.878838   -1.092144
     79          1           0       -3.792366   -4.820598    1.770473
     80          1           0       -5.384969   -4.460714    1.118845
     81          1           0       -4.137945   -5.127718    0.048812
     82          1           0       -6.285091   -3.395439   -1.305582
     83          1           0       -7.903600   -2.914978   -0.535991
     84          1           0       -5.967029    3.523551   -0.433805
     85          1           0       -5.245141    4.000488   -2.001078
     86          1           0       -5.801245    2.347387   -1.761480
     87          1           0       -4.731124    5.601047    0.019994
     88          1           0       -3.865649    7.046772   -0.757982
     89          1           0        2.764315    5.040166    0.445051
     90          1           0        3.428866    4.517674   -1.129166
     91          1           0        1.778154    5.100972   -1.024485
     92          1           0        4.813532    1.093968    0.437656
     93          1           0        4.766686    2.032529   -1.035447
     94          1           0        4.895721    4.110882    0.454578
     95          1           0        4.889033    3.036727    1.852884
     96          1           0        0.506972   -1.996587   -5.460975
     97          1           0       -0.781568   -1.156076    5.879658
     98          1           0        7.006387    2.441992    2.475801
     99          1           0        7.020152   -2.305598   -1.728937
 ---------------------------------------------------------------------
 Rotational constants (GHZ):           0.0609941           0.0416827           0.0332069
 Standard basis: def2TZVP (5D, 7F)
 There are  2260 symmetry adapted cartesian basis functions of A   symmetry.
 There are  1983 symmetry adapted basis functions of A   symmetry.
  1983 basis functions,  3208 primitive gaussians,  2260 cartesian basis functions
   207 alpha electrons      203 beta electrons
       nuclear repulsion energy      8826.6401000867 Hartrees.
 NAtoms=   99 NActive=   99 NUniq=   99 SFac= 1.00D+00 NAtFMM=   60 NAOKFM=T Big=T
 Integral buffers will be    131072 words long.
 Raffenetti 2 integral format.
 Two-electron integral symmetry is turned on.
 Nuclear repulsion after empirical dispersion term =     8826.4972895608 Hartrees.
 One-electron integrals computed using PRISM.
   1 Symmetry operations used in ECPInt.
 ECPInt:  NShTT=  308505 NPrTT=  954269 LenC2=  223316 LenP2D=  444497.
 LDataN:  DoStor=T MaxTD1= 6 Len=  172
 NBasis=  1983 RedAO= T EigKep=  3.25D-06  NBF=  1983
 NBsUse=  1983 1.00D-06 EigRej= -1.00D+00 NBFU=  1983
 ExpMin= 4.20D-02 ExpMax= 3.01D+05 ExpMxC= 2.91D+03 IAcc=3 IRadAn=         5 AccDes= 0.00D+00
 Harris functional with IExCor= 1009 and IRadAn=       5 diagonalized for initial guess.
 HarFok:  IExCor= 1009 AccDes= 0.00D+00 IRadAn=         5 IDoV= 1 UseB2=F ITyADJ=14
 ICtDFT=  3500011 ScaDFX=  1.000000  1.000000  1.000000  1.000000
 FoFCou: FMM=F IPFlag=           0 FMFlag=      100000 FMFlg1=        2001
         NFxFlg=           0 DoJE=T BraDBF=F KetDBF=T FulRan=T
         wScrn=  0.000000 ICntrl=       500 IOpCl=  0 I1Cent=   200000004 NGrid=           0
         NMat0=    1 NMatS0=      1 NMatT0=    0 NMatD0=    1 NMtDS0=    0 NMtDT0=    0
 Petite list used in FoFCou.
 Initial guess <Sx>= 0.0000 <Sy>= 0.0000 <Sz>= 2.0000 <S**2>= 6.0000 S= 2.0000
 Requested convergence on RMS density matrix=1.00D-08 within 999 cycles.
 Requested convergence on MAX density matrix=1.00D-06.
 Requested convergence on             energy=1.00D-06.
 No special actions if energy rises.
 EnCoef did   100 forward-backward iterations
 EnCoef did   100 forward-backward iterations
 EnCoef did     7 forward-backward iterations
 EnCoef did   100 forward-backward iterations
 EnCoef did    10 forward-backward iterations
 EnCoef did     4 forward-backward iterations
 EnCoef did     3 forward-backward iterations
 EnCoef did     5 forward-backward iterations
 Restarting incremental Fock formation.
 Rare condition: small coef for last iteration:  0.000D+00
 Rare condition: small coef for last iteration:  0.000D+00
 EnCoef did   100 forward-backward iterations
 Rare condition: small coef for last iteration:  0.000D+00
 EnCoef did   100 forward-backward iterations
 Rare condition: small coef for last iteration:  0.000D+00
 Rare condition: small coef for last iteration:  0.000D+00
 EnCoef did   100 forward-backward iterations
 Rare condition: small coef for last iteration:  0.000D+00
 EnCoef did   100 forward-backward iterations
 Rare condition: small coef for last iteration:  0.000D+00
 EnCoef did   100 forward-backward iterations
 EnCoef did   100 forward-backward iterations
 Rare condition: small coef for last iteration: -0.115D-15
 EnCoef did   100 forward-backward iterations
 Rare condition: small coef for last iteration:  0.000D+00
 EnCoef did   100 forward-backward iterations
 Rare condition: small coef for last iteration:  0.000D+00
 EnCoef did   100 forward-backward iterations
 EnCoef did   100 forward-backward iterations
 Rare condition: small coef for last iteration: -0.450D-15
 Restarting incremental Fock formation.
 Restarting incremental Fock formation.
 Restarting incremental Fock formation.
 Restarting incremental Fock formation.
 Restarting incremental Fock formation.
 SCF Done:  E(UPBE1PBE) =  -3627.66347049     A.U. after  130 cycles
            NFock=130  Conv=0.13D-08     -V/T= 2.0035
 <Sx>= 0.0000 <Sy>= 0.0000 <Sz>= 2.0000 <S**2>= 6.2919 S= 2.0577
 <L.S>= 0.000000000000E+00
 Annihilation of the first spin contaminant:
 S**2 before annihilation     6.2919,   after     6.0028

 **********************************************************************

            Population analysis using the SCF density.

 **********************************************************************

 Orbital symmetries:
 Alpha Orbitals:
       Occupied  (A) (A) (A) (A) (A) (A) (A) (A) (A) (A) (A) (A)
                 (A) (A) (A) (A) (A) (A) (A) (A) (A) (A) (A) (A)
                 (A) (A) (A) (A) (A) (A) (A) (A) (A) (A) (A) (A)
                 (A) (A) (A) (A) (A) (A) (A) (A) (A) (A) (A) (A)
                 (A) (A) (A) (A) (A) (A) (A) (A) (A) (A) (A) (A)
                 (A) (A) (A) (A) (A) (A) (A) (A) (A) (A) (A) (A)
                 (A) (A) (A) (A) (A) (A) (A) (A) (A) (A) (A) (A)
                 (A) (A) (A) (A) (A) (A) (A) (A) (A) (A) (A) (A)
                 (A) (A) (A) (A) (A) (A) (A) (A) (A) (A) (A) (A)
                 (A) (A) (A) (A) (A) (A) (A) (A) (A) (A) (A) (A)
                 (A) (A) (A) (A) (A) (A) (A) (A) (A) (A) (A) (A)
                 (A) (A) (A) (A) (A) (A) (A) (A) (A) (A) (A) (A)
                 (A) (A) (A) (A) (A) (A) (A) (A) (A) (A) (A) (A)
                 (A) (A) (A) (A) (A) (A) (A) (A) (A) (A) (A) (A)
                 (A) (A) (A) (A) (A) (A) (A) (A) (A) (A) (A) (A)
                 (A) (A) (A) (A) (A) (A) (A) (A) (A) (A) (A) (A)
                 (A) (A) (A) (A) (A) (A) (A) (A) (A) (A) (A) (A)
                 (A) (A) (A)
       Virtual   (A) (A) (A) (A) (A) (A) (A) (A) (A) (A) (A) (A)
                 (A) (A) (A) (A) (A) (A) (A) (A) (A) (A) (A) (A)
                 (A) (A) (A) (A) (A) (A) (A) (A) (A) (A) (A) (A)
                 (A) (A) (A) (A) (A) (A) (A) (A) (A) (A) (A) (A)
                 (A) (A) (A) (A) (A) (A) (A) (A) (A) (A) (A) (A)
                 (A) (A) (A) (A) (A) (A) (A) (A) (A) (A) (A) (A)
                 (A) (A) (A) (A) (A) (A) (A) (A) (A) (A) (A) (A)
                 (A) (A) (A) (A) (A) (A) (A) (A) (A) (A) (A) (A)
                 (A) (A) (A) (A) (A) (A) (A) (A) (A) (A) (A) (A)
                 (A) (A) (A) (A) (A) (A) (A) (A) (A) (A) (A) (A)
                 (A) (A) (A) (A) (A) (A) (A) (A) (A) (A) (A) (A)
                 (A) (A) (A) (A) (A) (A) (A) (A) (A) (A) (A) (A)
                 (A) (A) (A) (A) (A) (A) (A) (A) (A) (A) (A) (A)
                 (A) (A) (A) (A) (A) (A) (A) (A) (A) (A) (A) (A)
                 (A) (A) (A) (A) (A) (A) (A) (A) (A) (A) (A) (A)
                 (A) (A) (A) (A) (A) (A) (A) (A) (A) (A) (A) (A)
                 (A) (A) (A) (A) (A) (A) (A) (A) (A) (A) (A) (A)
                 (A) (A) (A) (A) (A) (A) (A) (A) (A) (A) (A) (A)
                 (A) (A) (A) (A) (A) (A) (A) (A) (A) (A) (A) (A)
                 (A) (A) (A) (A) (A) (A) (A) (A) (A) (A) (A) (A)
                 (A) (A) (A) (A) (A) (A) (A) (A) (A) (A) (A) (A)
                 (A) (A) (A) (A) (A) (A) (A) (A) (A) (A) (A) (A)
                 (A) (A) (A) (A) (A) (A) (A) (A) (A) (A) (A) (A)
                 (A) (A) (A) (A) (A) (A) (A) (A) (A) (A) (A) (A)
                 (A) (A) (A) (A) (A) (A) (A) (A) (A) (A) (A) (A)
                 (A) (A) (A) (A) (A) (A) (A) (A) (A) (A) (A) (A)
                 (A) (A) (A) (A) (A) (A) (A) (A) (A) (A) (A) (A)
                 (A) (A) (A) (A) (A) (A) (A) (A) (A) (A) (A) (A)
                 (A) (A) (A) (A) (A) (A) (A) (A) (A) (A) (A) (A)
                 (A) (A) (A) (A) (A) (A) (A) (A) (A) (A) (A) (A)
                 (A) (A) (A) (A) (A) (A) (A) (A) (A) (A) (A) (A)
                 (A) (A) (A) (A) (A) (A) (A) (A) (A) (A) (A) (A)
                 (A) (A) (A) (A) (A) (A) (A) (A) (A) (A) (A) (A)
                 (A) (A) (A) (A) (A) (A) (A) (A) (A) (A) (A) (A)
                 (A) (A) (A) (A) (A) (A) (A) (A) (A) (A) (A) (A)
                 (A) (A) (A) (A) (A) (A) (A) (A) (A) (A) (A) (A)
                 (A) (A) (A) (A) (A) (A) (A) (A) (A) (A) (A) (A)
                 (A) (A) (A) (A) (A) (A) (A) (A) (A) (A) (A) (A)
                 (A) (A) (A) (A) (A) (A) (A) (A) (A) (A) (A) (A)
                 (A) (A) (A) (A) (A) (A) (A) (A) (A) (A) (A) (A)
                 (A) (A) (A) (A) (A) (A) (A) (A) (A) (A) (A) (A)
                 (A) (A) (A) (A) (A) (A) (A) (A) (A) (A) (A) (A)
                 (A) (A) (A) (A) (A) (A) (A) (A) (A) (A) (A) (A)
                 (A) (A) (A) (A) (A) (A) (A) (A) (A) (A) (A) (A)
                 (A) (A) (A) (A) (A) (A) (A) (A) (A) (A) (A) (A)
                 (A) (A) (A) (A) (A) (A) (A) (A) (A) (A) (A) (A)
                 (A) (A) (A) (A) (A) (A) (A) (A) (A) (A) (A) (A)
                 (A) (A) (A) (A) (A) (A) (A) (A) (A) (A) (A) (A)
                 (A) (A) (A) (A) (A) (A) (A) (A) (A) (A) (A) (A)
                 (A) (A) (A) (A) (A) (A) (A) (A) (A) (A) (A) (A)
                 (A) (A) (A) (A) (A) (A) (A) (A) (A) (A) (A) (A)
                 (A) (A) (A) (A) (A) (A) (A) (A) (A) (A) (A) (A)
                 (A) (A) (A) (A) (A) (A) (A) (A) (A) (A) (A) (A)
                 (A) (A) (A) (A) (A) (A) (A) (A) (A) (A) (A) (A)
                 (A) (A) (A) (A) (A) (A) (A) (A) (A) (A) (A) (A)
                 (A) (A) (A) (A) (A) (A) (A) (A) (A) (A) (A) (A)
                 (A) (A) (A) (A) (A) (A) (A) (A) (A) (A) (A) (A)
                 (A) (A) (A) (A) (A) (A) (A) (A) (A) (A) (A) (A)
                 (A) (A) (A) (A) (A) (A) (A) (A) (A) (A) (A) (A)
                 (A) (A) (A) (A) (A) (A) (A) (A) (A) (A) (A) (A)
                 (A) (A) (A) (A) (A) (A) (A) (A) (A) (A) (A) (A)
                 (A) (A) (A) (A) (A) (A) (A) (A) (A) (A) (A) (A)
                 (A) (A) (A) (A) (A) (A) (A) (A) (A) (A) (A) (A)
                 (A) (A) (A) (A) (A) (A) (A) (A) (A) (A) (A) (A)
                 (A) (A) (A) (A) (A) (A) (A) (A) (A) (A) (A) (A)
                 (A) (A) (A) (A) (A) (A) (A) (A) (A) (A) (A) (A)
                 (A) (A) (A) (A) (A) (A) (A) (A) (A) (A) (A) (A)
                 (A) (A) (A) (A) (A) (A) (A) (A) (A) (A) (A) (A)
                 (A) (A) (A) (A) (A) (A) (A) (A) (A) (A) (A) (A)
                 (A) (A) (A) (A) (A) (A) (A) (A) (A) (A) (A) (A)
                 (A) (A) (A) (A) (A) (A) (A) (A) (A) (A) (A) (A)
                 (A) (A) (A) (A) (A) (A) (A) (A) (A) (A) (A) (A)
                 (A) (A) (A) (A) (A) (A) (A) (A) (A) (A) (A) (A)
                 (A) (A) (A) (A) (A) (A) (A) (A) (A) (A) (A) (A)
                 (A) (A) (A) (A) (A) (A) (A) (A) (A) (A) (A) (A)
                 (A) (A) (A) (A) (A) (A) (A) (A) (A) (A) (A) (A)
                 (A) (A) (A) (A) (A) (A) (A) (A) (A) (A) (A) (A)
                 (A) (A) (A) (A) (A) (A) (A) (A) (A) (A) (A) (A)
                 (A) (A) (A) (A) (A) (A) (A) (A) (A) (A) (A) (A)
                 (A) (A) (A) (A) (A) (A) (A) (A) (A) (A) (A) (A)
                 (A) (A) (A) (A) (A) (A) (A) (A) (A) (A) (A) (A)
                 (A) (A) (A) (A) (A) (A) (A) (A) (A) (A) (A) (A)
                 (A) (A) (A) (A) (A) (A) (A) (A) (A) (A) (A) (A)
                 (A) (A) (A) (A) (A) (A) (A) (A) (A) (A) (A) (A)
                 (A) (A) (A) (A) (A) (A) (A) (A) (A) (A) (A) (A)
                 (A) (A) (A) (A) (A) (A) (A) (A) (A) (A) (A) (A)
                 (A) (A) (A) (A) (A) (A) (A) (A) (A) (A) (A) (A)
                 (A) (A) (A) (A) (A) (A) (A) (A) (A) (A) (A) (A)
                 (A) (A) (A) (A) (A) (A) (A) (A) (A) (A) (A) (A)
                 (A) (A) (A) (A) (A) (A) (A) (A) (A) (A) (A) (A)
                 (A) (A) (A) (A) (A) (A) (A) (A) (A) (A) (A) (A)
                 (A) (A) (A) (A) (A) (A) (A) (A) (A) (A) (A) (A)
                 (A) (A) (A) (A) (A) (A) (A) (A) (A) (A) (A) (A)
                 (A) (A) (A) (A) (A) (A) (A) (A) (A) (A) (A) (A)
                 (A) (A) (A) (A) (A) (A) (A) (A) (A) (A) (A) (A)
                 (A) (A) (A) (A) (A) (A) (A) (A) (A) (A) (A) (A)
                 (A) (A) (A) (A) (A) (A) (A) (A) (A) (A) (A) (A)
                 (A) (A) (A) (A) (A) (A) (A) (A) (A) (A) (A) (A)
                 (A) (A) (A) (A) (A) (A) (A) (A) (A) (A) (A) (A)
                 (A) (A) (A) (A) (A) (A) (A) (A) (A) (A) (A) (A)
                 (A) (A) (A) (A) (A) (A) (A) (A) (A) (A) (A) (A)
                 (A) (A) (A) (A) (A) (A) (A) (A) (A) (A) (A) (A)
                 (A) (A) (A) (A) (A) (A) (A) (A) (A) (A) (A) (A)
                 (A) (A) (A) (A) (A) (A) (A) (A) (A) (A) (A) (A)
                 (A) (A) (A) (A) (A) (A) (A) (A) (A) (A) (A) (A)
                 (A) (A) (A) (A) (A) (A) (A) (A) (A) (A) (A) (A)
                 (A) (A) (A) (A) (A) (A) (A) (A) (A) (A) (A) (A)
                 (A) (A) (A) (A) (A) (A) (A) (A) (A) (A) (A) (A)
                 (A) (A) (A) (A) (A) (A) (A) (A) (A) (A) (A) (A)
                 (A) (A) (A) (A) (A) (A) (A) (A) (A) (A) (A) (A)
                 (A) (A) (A) (A) (A) (A) (A) (A) (A) (A) (A) (A)
                 (A) (A) (A) (A) (A) (A) (A) (A) (A) (A) (A) (A)
                 (A) (A) (A) (A) (A) (A) (A) (A) (A) (A) (A) (A)
                 (A) (A) (A) (A) (A) (A) (A) (A) (A) (A) (A) (A)
                 (A) (A) (A) (A) (A) (A) (A) (A) (A) (A) (A) (A)
                 (A) (A) (A) (A) (A) (A) (A) (A) (A) (A) (A) (A)
                 (A) (A) (A) (A) (A) (A) (A) (A) (A) (A) (A) (A)
                 (A) (A) (A) (A) (A) (A) (A) (A) (A) (A) (A) (A)
                 (A) (A) (A) (A) (A) (A) (A) (A) (A) (A) (A) (A)
                 (A) (A) (A) (A) (A) (A) (A) (A) (A) (A) (A) (A)
                 (A) (A) (A) (A) (A) (A) (A) (A) (A) (A) (A) (A)
                 (A) (A) (A) (A) (A) (A) (A) (A) (A) (A) (A) (A)
                 (A) (A) (A) (A) (A) (A) (A) (A) (A) (A) (A) (A)
                 (A) (A) (A) (A) (A) (A) (A) (A) (A) (A) (A) (A)
                 (A) (A) (A) (A) (A) (A) (A) (A) (A) (A) (A) (A)
                 (A) (A) (A) (A) (A) (A) (A) (A) (A) (A) (A) (A)
                 (A) (A) (A) (A) (A) (A) (A) (A) (A) (A) (A) (A)
                 (A) (A) (A) (A) (A) (A) (A) (A) (A) (A) (A) (A)
                 (A) (A) (A) (A) (A) (A) (A) (A) (A) (A) (A) (A)
                 (A) (A) (A) (A) (A) (A) (A) (A) (A) (A) (A) (A)
                 (A) (A) (A) (A) (A) (A) (A) (A) (A) (A) (A) (A)
                 (A) (A) (A) (A) (A) (A) (A) (A) (A) (A) (A) (A)
                 (A) (A) (A) (A) (A) (A) (A) (A) (A) (A) (A) (A)
                 (A) (A) (A) (A) (A) (A) (A) (A) (A) (A) (A) (A)
                 (A) (A) (A) (A) (A) (A) (A) (A) (A) (A) (A) (A)
                 (A) (A) (A) (A) (A) (A) (A) (A) (A) (A) (A) (A)
                 (A) (A) (A) (A) (A) (A) (A) (A) (A) (A) (A) (A)
                 (A) (A) (A) (A) (A) (A) (A) (A) (A) (A) (A) (A)
                 (A) (A) (A) (A) (A) (A) (A) (A) (A) (A) (A) (A)
                 (A) (A) (A) (A) (A) (A) (A) (A) (A) (A) (A) (A)
                 (A) (A) (A) (A) (A) (A) (A) (A) (A) (A) (A) (A)
                 (A) (A) (A) (A) (A) (A) (A) (A) (A) (A) (A) (A)
                 (A) (A) (A) (A) (A) (A) (A) (A) (A) (A) (A) (A)
                 (A) (A) (A) (A) (A) (A) (A) (A) (A) (A) (A) (A)
                 (A) (A) (A) (A) (A) (A) (A) (A) (A) (A) (A) (A)
                 (A) (A) (A) (A) (A) (A) (A) (A) (A) (A) (A) (A)
                 (A) (A) (A) (A) (A) (A) (A) (A) (A) (A) (A) (A)
                 (A) (A) (A) (A) (A) (A) (A) (A) (A) (A) (A) (A)
 Beta  Orbitals:
       Occupied  (A) (A) (A) (A) (A) (A) (A) (A) (A) (A) (A) (A)
                 (A) (A) (A) (A) (A) (A) (A) (A) (A) (A) (A) (A)
                 (A) (A) (A) (A) (A) (A) (A) (A) (A) (A) (A) (A)
                 (A) (A) (A) (A) (A) (A) (A) (A) (A) (A) (A) (A)
                 (A) (A) (A) (A) (A) (A) (A) (A) (A) (A) (A) (A)
                 (A) (A) (A) (A) (A) (A) (A) (A) (A) (A) (A) (A)
                 (A) (A) (A) (A) (A) (A) (A) (A) (A) (A) (A) (A)
                 (A) (A) (A) (A) (A) (A) (A) (A) (A) (A) (A) (A)
                 (A) (A) (A) (A) (A) (A) (A) (A) (A) (A) (A) (A)
                 (A) (A) (A) (A) (A) (A) (A) (A) (A) (A) (A) (A)
                 (A) (A) (A) (A) (A) (A) (A) (A) (A) (A) (A) (A)
                 (A) (A) (A) (A) (A) (A) (A) (A) (A) (A) (A) (A)
                 (A) (A) (A) (A) (A) (A) (A) (A) (A) (A) (A) (A)
                 (A) (A) (A) (A) (A) (A) (A) (A) (A) (A) (A) (A)
                 (A) (A) (A) (A) (A) (A) (A) (A) (A) (A) (A) (A)
                 (A) (A) (A) (A) (A) (A) (A) (A) (A) (A) (A) (A)
                 (A) (A) (A) (A) (A) (A) (A) (A) (A) (A) (A)
       Virtual   (A) (A) (A) (A) (A) (A) (A) (A) (A) (A) (A) (A)
                 (A) (A) (A) (A) (A) (A) (A) (A) (A) (A) (A) (A)
                 (A) (A) (A) (A) (A) (A) (A) (A) (A) (A) (A) (A)
                 (A) (A) (A) (A) (A) (A) (A) (A) (A) (A) (A) (A)
                 (A) (A) (A) (A) (A) (A) (A) (A) (A) (A) (A) (A)
                 (A) (A) (A) (A) (A) (A) (A) (A) (A) (A) (A) (A)
                 (A) (A) (A) (A) (A) (A) (A) (A) (A) (A) (A) (A)
                 (A) (A) (A) (A) (A) (A) (A) (A) (A) (A) (A) (A)
                 (A) (A) (A) (A) (A) (A) (A) (A) (A) (A) (A) (A)
                 (A) (A) (A) (A) (A) (A) (A) (A) (A) (A) (A) (A)
                 (A) (A) (A) (A) (A) (A) (A) (A) (A) (A) (A) (A)
                 (A) (A) (A) (A) (A) (A) (A) (A) (A) (A) (A) (A)
                 (A) (A) (A) (A) (A) (A) (A) (A) (A) (A) (A) (A)
                 (A) (A) (A) (A) (A) (A) (A) (A) (A) (A) (A) (A)
                 (A) (A) (A) (A) (A) (A) (A) (A) (A) (A) (A) (A)
                 (A) (A) (A) (A) (A) (A) (A) (A) (A) (A) (A) (A)
                 (A) (A) (A) (A) (A) (A) (A) (A) (A) (A) (A) (A)
                 (A) (A) (A) (A) (A) (A) (A) (A) (A) (A) (A) (A)
                 (A) (A) (A) (A) (A) (A) (A) (A) (A) (A) (A) (A)
                 (A) (A) (A) (A) (A) (A) (A) (A) (A) (A) (A) (A)
                 (A) (A) (A) (A) (A) (A) (A) (A) (A) (A) (A) (A)
                 (A) (A) (A) (A) (A) (A) (A) (A) (A) (A) (A) (A)
                 (A) (A) (A) (A) (A) (A) (A) (A) (A) (A) (A) (A)
                 (A) (A) (A) (A) (A) (A) (A) (A) (A) (A) (A) (A)
                 (A) (A) (A) (A) (A) (A) (A) (A) (A) (A) (A) (A)
                 (A) (A) (A) (A) (A) (A) (A) (A) (A) (A) (A) (A)
                 (A) (A) (A) (A) (A) (A) (A) (A) (A) (A) (A) (A)
                 (A) (A) (A) (A) (A) (A) (A) (A) (A) (A) (A) (A)
                 (A) (A) (A) (A) (A) (A) (A) (A) (A) (A) (A) (A)
                 (A) (A) (A) (A) (A) (A) (A) (A) (A) (A) (A) (A)
                 (A) (A) (A) (A) (A) (A) (A) (A) (A) (A) (A) (A)
                 (A) (A) (A) (A) (A) (A) (A) (A) (A) (A) (A) (A)
                 (A) (A) (A) (A) (A) (A) (A) (A) (A) (A) (A) (A)
                 (A) (A) (A) (A) (A) (A) (A) (A) (A) (A) (A) (A)
                 (A) (A) (A) (A) (A) (A) (A) (A) (A) (A) (A) (A)
                 (A) (A) (A) (A) (A) (A) (A) (A) (A) (A) (A) (A)
                 (A) (A) (A) (A) (A) (A) (A) (A) (A) (A) (A) (A)
                 (A) (A) (A) (A) (A) (A) (A) (A) (A) (A) (A) (A)
                 (A) (A) (A) (A) (A) (A) (A) (A) (A) (A) (A) (A)
                 (A) (A) (A) (A) (A) (A) (A) (A) (A) (A) (A) (A)
                 (A) (A) (A) (A) (A) (A) (A) (A) (A) (A) (A) (A)
                 (A) (A) (A) (A) (A) (A) (A) (A) (A) (A) (A) (A)
                 (A) (A) (A) (A) (A) (A) (A) (A) (A) (A) (A) (A)
                 (A) (A) (A) (A) (A) (A) (A) (A) (A) (A) (A) (A)
                 (A) (A) (A) (A) (A) (A) (A) (A) (A) (A) (A) (A)
                 (A) (A) (A) (A) (A) (A) (A) (A) (A) (A) (A) (A)
                 (A) (A) (A) (A) (A) (A) (A) (A) (A) (A) (A) (A)
                 (A) (A) (A) (A) (A) (A) (A) (A) (A) (A) (A) (A)
                 (A) (A) (A) (A) (A) (A) (A) (A) (A) (A) (A) (A)
                 (A) (A) (A) (A) (A) (A) (A) (A) (A) (A) (A) (A)
                 (A) (A) (A) (A) (A) (A) (A) (A) (A) (A) (A) (A)
                 (A) (A) (A) (A) (A) (A) (A) (A) (A) (A) (A) (A)
                 (A) (A) (A) (A) (A) (A) (A) (A) (A) (A) (A) (A)
                 (A) (A) (A) (A) (A) (A) (A) (A) (A) (A) (A) (A)
                 (A) (A) (A) (A) (A) (A) (A) (A) (A) (A) (A) (A)
                 (A) (A) (A) (A) (A) (A) (A) (A) (A) (A) (A) (A)
                 (A) (A) (A) (A) (A) (A) (A) (A) (A) (A) (A) (A)
                 (A) (A) (A) (A) (A) (A) (A) (A) (A) (A) (A) (A)
                 (A) (A) (A) (A) (A) (A) (A) (A) (A) (A) (A) (A)
                 (A) (A) (A) (A) (A) (A) (A) (A) (A) (A) (A) (A)
                 (A) (A) (A) (A) (A) (A) (A) (A) (A) (A) (A) (A)
                 (A) (A) (A) (A) (A) (A) (A) (A) (A) (A) (A) (A)
                 (A) (A) (A) (A) (A) (A) (A) (A) (A) (A) (A) (A)
                 (A) (A) (A) (A) (A) (A) (A) (A) (A) (A) (A) (A)
                 (A) (A) (A) (A) (A) (A) (A) (A) (A) (A) (A) (A)
                 (A) (A) (A) (A) (A) (A) (A) (A) (A) (A) (A) (A)
                 (A) (A) (A) (A) (A) (A) (A) (A) (A) (A) (A) (A)
                 (A) (A) (A) (A) (A) (A) (A) (A) (A) (A) (A) (A)
                 (A) (A) (A) (A) (A) (A) (A) (A) (A) (A) (A) (A)
                 (A) (A) (A) (A) (A) (A) (A) (A) (A) (A) (A) (A)
                 (A) (A) (A) (A) (A) (A) (A) (A) (A) (A) (A) (A)
                 (A) (A) (A) (A) (A) (A) (A) (A) (A) (A) (A) (A)
                 (A) (A) (A) (A) (A) (A) (A) (A) (A) (A) (A) (A)
                 (A) (A) (A) (A) (A) (A) (A) (A) (A) (A) (A) (A)
                 (A) (A) (A) (A) (A) (A) (A) (A) (A) (A) (A) (A)
                 (A) (A) (A) (A) (A) (A) (A) (A) (A) (A) (A) (A)
                 (A) (A) (A) (A) (A) (A) (A) (A) (A) (A) (A) (A)
                 (A) (A) (A) (A) (A) (A) (A) (A) (A) (A) (A) (A)
                 (A) (A) (A) (A) (A) (A) (A) (A) (A) (A) (A) (A)
                 (A) (A) (A) (A) (A) (A) (A) (A) (A) (A) (A) (A)
                 (A) (A) (A) (A) (A) (A) (A) (A) (A) (A) (A) (A)
                 (A) (A) (A) (A) (A) (A) (A) (A) (A) (A) (A) (A)
                 (A) (A) (A) (A) (A) (A) (A) (A) (A) (A) (A) (A)
                 (A) (A) (A) (A) (A) (A) (A) (A) (A) (A) (A) (A)
                 (A) (A) (A) (A) (A) (A) (A) (A) (A) (A) (A) (A)
                 (A) (A) (A) (A) (A) (A) (A) (A) (A) (A) (A) (A)
                 (A) (A) (A) (A) (A) (A) (A) (A) (A) (A) (A) (A)
                 (A) (A) (A) (A) (A) (A) (A) (A) (A) (A) (A) (A)
                 (A) (A) (A) (A) (A) (A) (A) (A) (A) (A) (A) (A)
                 (A) (A) (A) (A) (A) (A) (A) (A) (A) (A) (A) (A)
                 (A) (A) (A) (A) (A) (A) (A) (A) (A) (A) (A) (A)
                 (A) (A) (A) (A) (A) (A) (A) (A) (A) (A) (A) (A)
                 (A) (A) (A) (A) (A) (A) (A) (A) (A) (A) (A) (A)
                 (A) (A) (A) (A) (A) (A) (A) (A) (A) (A) (A) (A)
                 (A) (A) (A) (A) (A) (A) (A) (A) (A) (A) (A) (A)
                 (A) (A) (A) (A) (A) (A) (A) (A) (A) (A) (A) (A)
                 (A) (A) (A) (A) (A) (A) (A) (A) (A) (A) (A) (A)
                 (A) (A) (A) (A) (A) (A) (A) (A) (A) (A) (A) (A)
                 (A) (A) (A) (A) (A) (A) (A) (A) (A) (A) (A) (A)
                 (A) (A) (A) (A) (A) (A) (A) (A) (A) (A) (A) (A)
                 (A) (A) (A) (A) (A) (A) (A) (A) (A) (A) (A) (A)
                 (A) (A) (A) (A) (A) (A) (A) (A) (A) (A) (A) (A)
                 (A) (A) (A) (A) (A) (A) (A) (A) (A) (A) (A) (A)
                 (A) (A) (A) (A) (A) (A) (A) (A) (A) (A) (A) (A)
                 (A) (A) (A) (A) (A) (A) (A) (A) (A) (A) (A) (A)
                 (A) (A) (A) (A) (A) (A) (A) (A) (A) (A) (A) (A)
                 (A) (A) (A) (A) (A) (A) (A) (A) (A) (A) (A) (A)
                 (A) (A) (A) (A) (A) (A) (A) (A) (A) (A) (A) (A)
                 (A) (A) (A) (A) (A) (A) (A) (A) (A) (A) (A) (A)
                 (A) (A) (A) (A) (A) (A) (A) (A) (A) (A) (A) (A)
                 (A) (A) (A) (A) (A) (A) (A) (A) (A) (A) (A) (A)
                 (A) (A) (A) (A) (A) (A) (A) (A) (A) (A) (A) (A)
                 (A) (A) (A) (A) (A) (A) (A) (A) (A) (A) (A) (A)
                 (A) (A) (A) (A) (A) (A) (A) (A) (A) (A) (A) (A)
                 (A) (A) (A) (A) (A) (A) (A) (A) (A) (A) (A) (A)
                 (A) (A) (A) (A) (A) (A) (A) (A) (A) (A) (A) (A)
                 (A) (A) (A) (A) (A) (A) (A) (A) (A) (A) (A) (A)
                 (A) (A) (A) (A) (A) (A) (A) (A) (A) (A) (A) (A)
                 (A) (A) (A) (A) (A) (A) (A) (A) (A) (A) (A) (A)
                 (A) (A) (A) (A) (A) (A) (A) (A) (A) (A) (A) (A)
                 (A) (A) (A) (A) (A) (A) (A) (A) (A) (A) (A) (A)
                 (A) (A) (A) (A) (A) (A) (A) (A) (A) (A) (A) (A)
                 (A) (A) (A) (A) (A) (A) (A) (A) (A) (A) (A) (A)
                 (A) (A) (A) (A) (A) (A) (A) (A) (A) (A) (A) (A)
                 (A) (A) (A) (A) (A) (A) (A) (A) (A) (A) (A) (A)
                 (A) (A) (A) (A) (A) (A) (A) (A) (A) (A) (A) (A)
                 (A) (A) (A) (A) (A) (A) (A) (A) (A) (A) (A) (A)
                 (A) (A) (A) (A) (A) (A) (A) (A) (A) (A) (A) (A)
                 (A) (A) (A) (A) (A) (A) (A) (A) (A) (A) (A) (A)
                 (A) (A) (A) (A) (A) (A) (A) (A) (A) (A) (A) (A)
                 (A) (A) (A) (A) (A) (A) (A) (A) (A) (A) (A) (A)
                 (A) (A) (A) (A) (A) (A) (A) (A) (A) (A) (A) (A)
                 (A) (A) (A) (A) (A) (A) (A) (A) (A) (A) (A) (A)
                 (A) (A) (A) (A) (A) (A) (A) (A) (A) (A) (A) (A)
                 (A) (A) (A) (A) (A) (A) (A) (A) (A) (A) (A) (A)
                 (A) (A) (A) (A) (A) (A) (A) (A) (A) (A) (A) (A)
                 (A) (A) (A) (A) (A) (A) (A) (A) (A) (A) (A) (A)
                 (A) (A) (A) (A) (A) (A) (A) (A) (A) (A) (A) (A)
                 (A) (A) (A) (A) (A) (A) (A) (A) (A) (A) (A) (A)
                 (A) (A) (A) (A) (A) (A) (A) (A) (A) (A) (A) (A)
                 (A) (A) (A) (A) (A) (A) (A) (A) (A) (A) (A) (A)
                 (A) (A) (A) (A) (A) (A) (A) (A) (A) (A) (A) (A)
                 (A) (A) (A) (A) (A) (A) (A) (A) (A) (A) (A) (A)
                 (A) (A) (A) (A) (A) (A) (A) (A) (A) (A) (A) (A)
                 (A) (A) (A) (A) (A) (A) (A) (A) (A) (A) (A) (A)
                 (A) (A) (A) (A) (A) (A) (A) (A) (A) (A) (A) (A)
                 (A) (A) (A) (A) (A) (A) (A) (A) (A) (A) (A) (A)
                 (A) (A) (A) (A) (A) (A) (A) (A) (A) (A) (A) (A)
                 (A) (A) (A) (A)
 The electronic state is 5-A.
 Alpha  occ. eigenvalues -- -256.32671 -30.14064 -25.97141 -25.95291 -25.95166
 Alpha  occ. eigenvalues --  -19.27339 -19.25407 -19.18134 -19.18083 -14.45550
 Alpha  occ. eigenvalues --  -14.45281 -14.38776 -14.38542 -14.35322 -14.35251
 Alpha  occ. eigenvalues --  -14.35194 -14.34973 -10.35408 -10.35070 -10.28680
 Alpha  occ. eigenvalues --  -10.28212 -10.26237 -10.26202 -10.24486 -10.24182
 Alpha  occ. eigenvalues --  -10.24174 -10.24018 -10.23576 -10.23567 -10.23547
 Alpha  occ. eigenvalues --  -10.23526 -10.23423 -10.23269 -10.23243 -10.23139
 Alpha  occ. eigenvalues --  -10.23078 -10.22914 -10.22883 -10.22470 -10.22413
 Alpha  occ. eigenvalues --  -10.21844 -10.21812 -10.21676 -10.21641 -10.21614
 Alpha  occ. eigenvalues --  -10.21608 -10.21459 -10.21376 -10.21331 -10.21271
 Alpha  occ. eigenvalues --  -10.21217 -10.21103 -10.21092 -10.21024 -10.20936
 Alpha  occ. eigenvalues --  -10.20914 -10.20832 -10.20547 -10.20540  -3.57020
 Alpha  occ. eigenvalues --   -2.35860  -2.32086  -2.31827  -1.17663  -1.16458
 Alpha  occ. eigenvalues --   -1.05648  -1.05454  -1.03162  -1.02743  -0.97059
 Alpha  occ. eigenvalues --   -0.96172  -0.96150  -0.95259  -0.90790  -0.90658
 Alpha  occ. eigenvalues --   -0.83220  -0.82781  -0.82147  -0.81667  -0.81475
 Alpha  occ. eigenvalues --   -0.81005  -0.80886  -0.80303  -0.80091  -0.78226
 Alpha  occ. eigenvalues --   -0.77665  -0.76623  -0.75996  -0.74903  -0.73339
 Alpha  occ. eigenvalues --   -0.72250  -0.72015  -0.71975  -0.71054  -0.70169
 Alpha  occ. eigenvalues --   -0.69836  -0.69201  -0.68464  -0.66336  -0.65512
 Alpha  occ. eigenvalues --   -0.65181  -0.64869  -0.64749  -0.63851  -0.62108
 Alpha  occ. eigenvalues --   -0.62056  -0.60293  -0.59543  -0.58269  -0.57980
 Alpha  occ. eigenvalues --   -0.56228  -0.56055  -0.55006  -0.54263  -0.53725
 Alpha  occ. eigenvalues --   -0.53493  -0.52639  -0.52622  -0.51791  -0.51399
 Alpha  occ. eigenvalues --   -0.51122  -0.50187  -0.49863  -0.49591  -0.49056
 Alpha  occ. eigenvalues --   -0.48482  -0.48260  -0.48091  -0.47864  -0.47813
 Alpha  occ. eigenvalues --   -0.47749  -0.47511  -0.45975  -0.45636  -0.45182
 Alpha  occ. eigenvalues --   -0.44873  -0.44771  -0.44601  -0.44136  -0.43918
 Alpha  occ. eigenvalues --   -0.43820  -0.43475  -0.43308  -0.43218  -0.43142
 Alpha  occ. eigenvalues --   -0.43066  -0.42925  -0.42881  -0.42723  -0.42443
 Alpha  occ. eigenvalues --   -0.42342  -0.42317  -0.42195  -0.41624  -0.41059
 Alpha  occ. eigenvalues --   -0.40682  -0.40557  -0.40191  -0.39957  -0.39786
 Alpha  occ. eigenvalues --   -0.39614  -0.39501  -0.39364  -0.39203  -0.38956
 Alpha  occ. eigenvalues --   -0.38647  -0.38357  -0.38267  -0.37879  -0.37464
 Alpha  occ. eigenvalues --   -0.37004  -0.36684  -0.36571  -0.36295  -0.35868
 Alpha  occ. eigenvalues --   -0.35155  -0.34727  -0.34508  -0.34447  -0.34180
 Alpha  occ. eigenvalues --   -0.34053  -0.33701  -0.32908  -0.32862  -0.32543
 Alpha  occ. eigenvalues --   -0.32118  -0.31926  -0.30193  -0.29937  -0.29270
 Alpha  occ. eigenvalues --   -0.28980  -0.28476  -0.28031  -0.27725  -0.27647
 Alpha  occ. eigenvalues --   -0.26878  -0.26444  -0.24084  -0.24038  -0.22626
 Alpha  occ. eigenvalues --   -0.22037  -0.21693  -0.21547  -0.18715  -0.18373
 Alpha  occ. eigenvalues --   -0.18274  -0.17755
 Alpha virt. eigenvalues --   -0.07264  -0.06653  -0.02119  -0.01152  -0.00622
 Alpha virt. eigenvalues --   -0.00125   0.01266   0.01318   0.01742   0.02065
 Alpha virt. eigenvalues --    0.02167   0.02339   0.02586   0.04131   0.04668
 Alpha virt. eigenvalues --    0.04712   0.04870   0.05637   0.06070   0.06185
 Alpha virt. eigenvalues --    0.06378   0.06535   0.06811   0.07293   0.07630
 Alpha virt. eigenvalues --    0.07837   0.08037   0.08242   0.08738   0.09219
 Alpha virt. eigenvalues --    0.09535   0.09829   0.09910   0.10156   0.10530
 Alpha virt. eigenvalues --    0.10778   0.10909   0.11204   0.11580   0.11734
 Alpha virt. eigenvalues --    0.11836   0.11934   0.12066   0.12480   0.12541
 Alpha virt. eigenvalues --    0.12939   0.13083   0.13323   0.13562   0.13585
 Alpha virt. eigenvalues --    0.13963   0.14072   0.14344   0.14503   0.14548
 Alpha virt. eigenvalues --    0.14801   0.14917   0.15187   0.15430   0.15629
 Alpha virt. eigenvalues --    0.15784   0.15824   0.15974   0.16110   0.16419
 Alpha virt. eigenvalues --    0.16614   0.17123   0.17223   0.17358   0.17415
 Alpha virt. eigenvalues --    0.17586   0.17931   0.18179   0.18327   0.18702
 Alpha virt. eigenvalues --    0.18947   0.19196   0.19604   0.19882   0.20228
 Alpha virt. eigenvalues --    0.20417   0.20630   0.20885   0.20975   0.21099
 Alpha virt. eigenvalues --    0.21192   0.21344   0.21517   0.21645   0.22249
 Alpha virt. eigenvalues --    0.22385   0.22495   0.22788   0.22865   0.22988
 Alpha virt. eigenvalues --    0.23109   0.23539   0.23802   0.24108   0.24164
 Alpha virt. eigenvalues --    0.24475   0.24715   0.24918   0.25072   0.25215
 Alpha virt. eigenvalues --    0.25478   0.25718   0.25841   0.25897   0.26140
 Alpha virt. eigenvalues --    0.26208   0.26305   0.26564   0.26780   0.27326
 Alpha virt. eigenvalues --    0.27405   0.27922   0.27950   0.27993   0.28160
 Alpha virt. eigenvalues --    0.28343   0.28599   0.28798   0.28886   0.29244
 Alpha virt. eigenvalues --    0.29445   0.29450   0.29611   0.30044   0.30357
 Alpha virt. eigenvalues --    0.30485   0.30891   0.31071   0.31258   0.31536
 Alpha virt. eigenvalues --    0.31590   0.31919   0.32276   0.32424   0.32582
 Alpha virt. eigenvalues --    0.32970   0.33022   0.33117   0.33497   0.33723
 Alpha virt. eigenvalues --    0.34092   0.34149   0.34587   0.34700   0.34782
 Alpha virt. eigenvalues --    0.34897   0.35066   0.35304   0.35545   0.35888
 Alpha virt. eigenvalues --    0.36056   0.36287   0.36604   0.36720   0.37154
 Alpha virt. eigenvalues --    0.37303   0.37392   0.37561   0.37749   0.37857
 Alpha virt. eigenvalues --    0.38198   0.38372   0.38437   0.38731   0.38813
 Alpha virt. eigenvalues --    0.39015   0.39200   0.39409   0.39569   0.39694
 Alpha virt. eigenvalues --    0.39869   0.40031   0.40267   0.40353   0.40438
 Alpha virt. eigenvalues --    0.40738   0.40802   0.40829   0.41215   0.41422
 Alpha virt. eigenvalues --    0.41513   0.41768   0.41904   0.42146   0.42366
 Alpha virt. eigenvalues --    0.42463   0.42707   0.42822   0.43107   0.43296
 Alpha virt. eigenvalues --    0.43521   0.43698   0.43780   0.43842   0.44038
 Alpha virt. eigenvalues --    0.44356   0.44569   0.44677   0.44730   0.44972
 Alpha virt. eigenvalues --    0.45221   0.45317   0.45473   0.45722   0.45914
 Alpha virt. eigenvalues --    0.46044   0.46386   0.46429   0.46572   0.46644
 Alpha virt. eigenvalues --    0.46700   0.47076   0.47104   0.47192   0.47444
 Alpha virt. eigenvalues --    0.47658   0.47847   0.48129   0.48251   0.48410
 Alpha virt. eigenvalues --    0.48477   0.48553   0.48835   0.48985   0.49031
 Alpha virt. eigenvalues --    0.49341   0.49512   0.49609   0.49706   0.49806
 Alpha virt. eigenvalues --    0.50032   0.50249   0.50410   0.50495   0.50693
 Alpha virt. eigenvalues --    0.50880   0.51103   0.51165   0.51434   0.51596
 Alpha virt. eigenvalues --    0.51755   0.51979   0.52164   0.52533   0.52739
 Alpha virt. eigenvalues --    0.52803   0.52822   0.53243   0.53519   0.53866
 Alpha virt. eigenvalues --    0.53931   0.54025   0.54256   0.54647   0.54848
 Alpha virt. eigenvalues --    0.54906   0.55237   0.55310   0.55485   0.55808
 Alpha virt. eigenvalues --    0.56136   0.56283   0.56525   0.56766   0.56875
 Alpha virt. eigenvalues --    0.57329   0.57420   0.57541   0.57662   0.57876
 Alpha virt. eigenvalues --    0.58154   0.58441   0.58627   0.58723   0.58881
 Alpha virt. eigenvalues --    0.59004   0.59340   0.59796   0.59864   0.60090
 Alpha virt. eigenvalues --    0.60342   0.60500   0.60993   0.61028   0.61375
 Alpha virt. eigenvalues --    0.61575   0.61750   0.62151   0.62377   0.62564
 Alpha virt. eigenvalues --    0.62781   0.62917   0.63197   0.63394   0.63512
 Alpha virt. eigenvalues --    0.63924   0.63982   0.64063   0.64382   0.64650
 Alpha virt. eigenvalues --    0.65139   0.65346   0.65542   0.65765   0.65962
 Alpha virt. eigenvalues --    0.66174   0.66508   0.66798   0.66938   0.67349
 Alpha virt. eigenvalues --    0.67625   0.68018   0.68177   0.68437   0.68605
 Alpha virt. eigenvalues --    0.68919   0.68996   0.69117   0.69720   0.70098
 Alpha virt. eigenvalues --    0.70493   0.70783   0.70923   0.71141   0.71573
 Alpha virt. eigenvalues --    0.71626   0.71753   0.72058   0.72368   0.72785
 Alpha virt. eigenvalues --    0.72860   0.73262   0.73612   0.73785   0.74027
 Alpha virt. eigenvalues --    0.74580   0.74640   0.75008   0.75610   0.75675
 Alpha virt. eigenvalues --    0.75952   0.76024   0.76467   0.76584   0.76926
 Alpha virt. eigenvalues --    0.77152   0.77269   0.77817   0.78121   0.78241
 Alpha virt. eigenvalues --    0.78530   0.78868   0.78928   0.79163   0.79449
 Alpha virt. eigenvalues --    0.79776   0.80045   0.80375   0.80706   0.80963
 Alpha virt. eigenvalues --    0.81158   0.81599   0.81918   0.82047   0.82214
 Alpha virt. eigenvalues --    0.82848   0.83189   0.83624   0.83748   0.83997
 Alpha virt. eigenvalues --    0.84255   0.84547   0.84987   0.85260   0.85680
 Alpha virt. eigenvalues --    0.85763   0.86070   0.86102   0.86360   0.86699
 Alpha virt. eigenvalues --    0.86747   0.87594   0.87600   0.87932   0.88166
 Alpha virt. eigenvalues --    0.88270   0.89206   0.89272   0.89540   0.89692
 Alpha virt. eigenvalues --    0.90062   0.90373   0.90909   0.91271   0.91350
 Alpha virt. eigenvalues --    0.91693   0.91881   0.92040   0.92180   0.92871
 Alpha virt. eigenvalues --    0.93045   0.93280   0.93411   0.93650   0.93810
 Alpha virt. eigenvalues --    0.94137   0.94524   0.94711   0.94897   0.95042
 Alpha virt. eigenvalues --    0.95325   0.95528   0.95746   0.95864   0.96204
 Alpha virt. eigenvalues --    0.96306   0.96661   0.97067   0.97171   0.97459
 Alpha virt. eigenvalues --    0.97722   0.98051   0.98479   0.98589   0.98887
 Alpha virt. eigenvalues --    0.98997   0.99469   0.99871   1.00028   1.00369
 Alpha virt. eigenvalues --    1.00739   1.01129   1.01280   1.01455   1.01618
 Alpha virt. eigenvalues --    1.01854   1.02203   1.02238   1.02566   1.02967
 Alpha virt. eigenvalues --    1.03130   1.03474   1.03754   1.03931   1.04262
 Alpha virt. eigenvalues --    1.04454   1.04712   1.04836   1.05228   1.05388
 Alpha virt. eigenvalues --    1.05673   1.05919   1.06240   1.06495   1.07373
 Alpha virt. eigenvalues --    1.07433   1.07578   1.07979   1.08252   1.08513
 Alpha virt. eigenvalues --    1.08632   1.09376   1.09626   1.09691   1.10165
 Alpha virt. eigenvalues --    1.10390   1.10994   1.11345   1.11908   1.11937
 Alpha virt. eigenvalues --    1.12112   1.12808   1.13027   1.13617   1.14024
 Alpha virt. eigenvalues --    1.14186   1.14469   1.15069   1.15256   1.15660
 Alpha virt. eigenvalues --    1.15864   1.16320   1.16614   1.16866   1.17500
 Alpha virt. eigenvalues --    1.17633   1.17717   1.18157   1.18756   1.19018
 Alpha virt. eigenvalues --    1.19262   1.19480   1.19851   1.20349   1.20639
 Alpha virt. eigenvalues --    1.20917   1.20962   1.21371   1.21596   1.22174
 Alpha virt. eigenvalues --    1.22356   1.22500   1.22986   1.23433   1.23731
 Alpha virt. eigenvalues --    1.23784   1.24411   1.24739   1.24916   1.25571
 Alpha virt. eigenvalues --    1.25621   1.25796   1.25913   1.26387   1.26554
 Alpha virt. eigenvalues --    1.27018   1.27181   1.27511   1.27915   1.28190
 Alpha virt. eigenvalues --    1.28547   1.28837   1.28943   1.29521   1.29789
 Alpha virt. eigenvalues --    1.30025   1.30499   1.30797   1.31133   1.31634
 Alpha virt. eigenvalues --    1.31908   1.32281   1.32554   1.32766   1.33480
 Alpha virt. eigenvalues --    1.33613   1.33702   1.34223   1.35025   1.35094
 Alpha virt. eigenvalues --    1.35388   1.35651   1.36046   1.36404   1.36472
 Alpha virt. eigenvalues --    1.36994   1.37607   1.37881   1.38097   1.38334
 Alpha virt. eigenvalues --    1.38647   1.39032   1.39049   1.39419   1.39896
 Alpha virt. eigenvalues --    1.40229   1.40233   1.40875   1.41292   1.41499
 Alpha virt. eigenvalues --    1.41919   1.42465   1.42639   1.42976   1.43498
 Alpha virt. eigenvalues --    1.43709   1.44573   1.44903   1.44942   1.45371
 Alpha virt. eigenvalues --    1.45990   1.46366   1.46509   1.46907   1.47090
 Alpha virt. eigenvalues --    1.47586   1.47743   1.48060   1.48100   1.48766
 Alpha virt. eigenvalues --    1.48889   1.48976   1.49284   1.49526   1.49944
 Alpha virt. eigenvalues --    1.50145   1.50174   1.50564   1.51052   1.51431
 Alpha virt. eigenvalues --    1.51791   1.51956   1.52244   1.52676   1.53022
 Alpha virt. eigenvalues --    1.53176   1.53535   1.53637   1.53656   1.53888
 Alpha virt. eigenvalues --    1.53977   1.54469   1.54889   1.55003   1.55147
 Alpha virt. eigenvalues --    1.55469   1.55828   1.56048   1.56230   1.56342
 Alpha virt. eigenvalues --    1.56663   1.57046   1.57178   1.57505   1.57663
 Alpha virt. eigenvalues --    1.57830   1.58432   1.58686   1.58895   1.58992
 Alpha virt. eigenvalues --    1.59401   1.59462   1.59805   1.59884   1.60267
 Alpha virt. eigenvalues --    1.60314   1.60667   1.61131   1.61185   1.61298
 Alpha virt. eigenvalues --    1.61755   1.62014   1.62150   1.62463   1.62618
 Alpha virt. eigenvalues --    1.62922   1.63269   1.63410   1.63800   1.63918
 Alpha virt. eigenvalues --    1.64279   1.64537   1.64837   1.64961   1.65189
 Alpha virt. eigenvalues --    1.65417   1.65863   1.66271   1.66611   1.66770
 Alpha virt. eigenvalues --    1.66866   1.67150   1.67502   1.67691   1.67932
 Alpha virt. eigenvalues --    1.68205   1.68412   1.68839   1.69000   1.69294
 Alpha virt. eigenvalues --    1.69752   1.70118   1.70321   1.70800   1.71062
 Alpha virt. eigenvalues --    1.71496   1.71529   1.72214   1.72318   1.72492
 Alpha virt. eigenvalues --    1.72818   1.72957   1.73087   1.73349   1.73645
 Alpha virt. eigenvalues --    1.74245   1.74549   1.74829   1.75407   1.75548
 Alpha virt. eigenvalues --    1.75775   1.76508   1.76757   1.76970   1.77223
 Alpha virt. eigenvalues --    1.77481   1.78470   1.78584   1.78762   1.79689
 Alpha virt. eigenvalues --    1.79946   1.80053   1.80381   1.80562   1.80882
 Alpha virt. eigenvalues --    1.81320   1.81839   1.82094   1.82503   1.83067
 Alpha virt. eigenvalues --    1.83279   1.83445   1.83888   1.83989   1.84300
 Alpha virt. eigenvalues --    1.84819   1.84969   1.85213   1.85612   1.85840
 Alpha virt. eigenvalues --    1.86040   1.86541   1.86946   1.87072   1.87483
 Alpha virt. eigenvalues --    1.87941   1.88315   1.88502   1.89062   1.89429
 Alpha virt. eigenvalues --    1.89492   1.89595   1.90659   1.90764   1.91217
 Alpha virt. eigenvalues --    1.91410   1.91777   1.92094   1.92382   1.92881
 Alpha virt. eigenvalues --    1.93311   1.93672   1.94082   1.94537   1.94745
 Alpha virt. eigenvalues --    1.95138   1.95625   1.95943   1.96139   1.96636
 Alpha virt. eigenvalues --    1.96934   1.97100   1.97466   1.97564   1.97920
 Alpha virt. eigenvalues --    1.98536   1.98743   1.98829   1.99617   1.99673
 Alpha virt. eigenvalues --    2.00087   2.00437   2.00666   2.01154   2.01613
 Alpha virt. eigenvalues --    2.01972   2.02004   2.02553   2.02953   2.03428
 Alpha virt. eigenvalues --    2.03657   2.03899   2.04305   2.04412   2.04558
 Alpha virt. eigenvalues --    2.04763   2.05656   2.05909   2.06420   2.06643
 Alpha virt. eigenvalues --    2.06990   2.07146   2.07580   2.08183   2.08574
 Alpha virt. eigenvalues --    2.08613   2.09152   2.09328   2.09621   2.10162
 Alpha virt. eigenvalues --    2.10645   2.11079   2.11430   2.11763   2.12125
 Alpha virt. eigenvalues --    2.12547   2.13019   2.13144   2.13384   2.13823
 Alpha virt. eigenvalues --    2.14018   2.14528   2.15046   2.15285   2.15734
 Alpha virt. eigenvalues --    2.15890   2.16363   2.16510   2.16605   2.17148
 Alpha virt. eigenvalues --    2.17317   2.17850   2.18271   2.18328   2.18740
 Alpha virt. eigenvalues --    2.19306   2.19478   2.19850   2.20210   2.20331
 Alpha virt. eigenvalues --    2.20890   2.21073   2.21146   2.21800   2.21946
 Alpha virt. eigenvalues --    2.22315   2.22811   2.23167   2.23357   2.24147
 Alpha virt. eigenvalues --    2.24437   2.25010   2.25244   2.25531   2.26088
 Alpha virt. eigenvalues --    2.26156   2.26577   2.26981   2.27071   2.27631
 Alpha virt. eigenvalues --    2.27778   2.28679   2.28829   2.29273   2.29972
 Alpha virt. eigenvalues --    2.30288   2.30529   2.30705   2.30843   2.31020
 Alpha virt. eigenvalues --    2.31540   2.31683   2.32064   2.32572   2.32904
 Alpha virt. eigenvalues --    2.33346   2.33710   2.34152   2.34276   2.34719
 Alpha virt. eigenvalues --    2.35357   2.35738   2.35955   2.36206   2.36407
 Alpha virt. eigenvalues --    2.36851   2.37178   2.37528   2.37792   2.38373
 Alpha virt. eigenvalues --    2.38556   2.38700   2.39201   2.39438   2.39849
 Alpha virt. eigenvalues --    2.40184   2.40501   2.40518   2.40851   2.41477
 Alpha virt. eigenvalues --    2.41535   2.41613   2.41835   2.42538   2.42613
 Alpha virt. eigenvalues --    2.43339   2.43399   2.43629   2.43705   2.44844
 Alpha virt. eigenvalues --    2.45381   2.45653   2.45984   2.46348   2.46577
 Alpha virt. eigenvalues --    2.46900   2.47843   2.48201   2.48327   2.48570
 Alpha virt. eigenvalues --    2.49096   2.49507   2.49853   2.50375   2.50491
 Alpha virt. eigenvalues --    2.50890   2.51340   2.51836   2.52581   2.52780
 Alpha virt. eigenvalues --    2.53045   2.53229   2.53532   2.53708   2.54016
 Alpha virt. eigenvalues --    2.54454   2.54969   2.55267   2.55540   2.55922
 Alpha virt. eigenvalues --    2.56137   2.56296   2.56530   2.56951   2.57122
 Alpha virt. eigenvalues --    2.57584   2.57755   2.57859   2.58144   2.58231
 Alpha virt. eigenvalues --    2.58461   2.58651   2.58804   2.59468   2.59759
 Alpha virt. eigenvalues --    2.59782   2.60226   2.60500   2.60653   2.61151
 Alpha virt. eigenvalues --    2.61377   2.61681   2.62104   2.62217   2.62667
 Alpha virt. eigenvalues --    2.63295   2.63600   2.63769   2.63978   2.64076
 Alpha virt. eigenvalues --    2.64309   2.64783   2.64931   2.65415   2.65650
 Alpha virt. eigenvalues --    2.66101   2.66388   2.66640   2.67012   2.67623
 Alpha virt. eigenvalues --    2.67775   2.67869   2.68609   2.68757   2.69133
 Alpha virt. eigenvalues --    2.69343   2.69963   2.70069   2.70345   2.70428
 Alpha virt. eigenvalues --    2.70688   2.70856   2.71174   2.71414   2.71580
 Alpha virt. eigenvalues --    2.72138   2.72310   2.72633   2.73121   2.73435
 Alpha virt. eigenvalues --    2.74042   2.74220   2.74386   2.74747   2.75015
 Alpha virt. eigenvalues --    2.75451   2.75764   2.76593   2.76871   2.77143
 Alpha virt. eigenvalues --    2.77406   2.78104   2.78216   2.78694   2.78851
 Alpha virt. eigenvalues --    2.79249   2.79418   2.79590   2.80136   2.80223
 Alpha virt. eigenvalues --    2.80769   2.81128   2.81575   2.81822   2.82854
 Alpha virt. eigenvalues --    2.83144   2.83422   2.83888   2.84037   2.84554
 Alpha virt. eigenvalues --    2.84762   2.85368   2.85475   2.85763   2.85915
 Alpha virt. eigenvalues --    2.86594   2.86995   2.87305   2.87443   2.87873
 Alpha virt. eigenvalues --    2.88306   2.88523   2.88844   2.89034   2.89461
 Alpha virt. eigenvalues --    2.89925   2.90154   2.90313   2.90491   2.90614
 Alpha virt. eigenvalues --    2.91079   2.91216   2.91673   2.91921   2.92481
 Alpha virt. eigenvalues --    2.92731   2.92815   2.92983   2.93417   2.93837
 Alpha virt. eigenvalues --    2.94022   2.94396   2.94524   2.95029   2.95159
 Alpha virt. eigenvalues --    2.95803   2.95890   2.96156   2.96320   2.96612
 Alpha virt. eigenvalues --    2.97182   2.97362   2.97824   2.97894   2.98265
 Alpha virt. eigenvalues --    2.98429   2.98901   2.99070   2.99611   2.99832
 Alpha virt. eigenvalues --    2.99962   3.00253   3.00491   3.01001   3.01383
 Alpha virt. eigenvalues --    3.01587   3.01722   3.02043   3.02389   3.02726
 Alpha virt. eigenvalues --    3.02906   3.03186   3.03521   3.03604   3.04263
 Alpha virt. eigenvalues --    3.04545   3.04800   3.05025   3.05174   3.05450
 Alpha virt. eigenvalues --    3.05730   3.05805   3.05965   3.06510   3.06620
 Alpha virt. eigenvalues --    3.06865   3.07105   3.07463   3.07934   3.08386
 Alpha virt. eigenvalues --    3.08592   3.08806   3.08974   3.09048   3.09706
 Alpha virt. eigenvalues --    3.10088   3.10356   3.10595   3.10717   3.10822
 Alpha virt. eigenvalues --    3.11176   3.11560   3.11948   3.12123   3.12436
 Alpha virt. eigenvalues --    3.12732   3.12758   3.13273   3.13315   3.13683
 Alpha virt. eigenvalues --    3.13934   3.14170   3.14497   3.15063   3.15281
 Alpha virt. eigenvalues --    3.15403   3.15632   3.15807   3.15916   3.16242
 Alpha virt. eigenvalues --    3.16561   3.17047   3.17339   3.17582   3.17800
 Alpha virt. eigenvalues --    3.18001   3.18085   3.18465   3.18580   3.18853
 Alpha virt. eigenvalues --    3.18974   3.19175   3.19580   3.19636   3.19952
 Alpha virt. eigenvalues --    3.20263   3.20513   3.20555   3.20719   3.21196
 Alpha virt. eigenvalues --    3.21406   3.21765   3.21870   3.22331   3.22641
 Alpha virt. eigenvalues --    3.22963   3.23047   3.23343   3.23517   3.23714
 Alpha virt. eigenvalues --    3.23991   3.24308   3.24595   3.24707   3.24926
 Alpha virt. eigenvalues --    3.25275   3.25428   3.25727   3.25894   3.26415
 Alpha virt. eigenvalues --    3.26526   3.26621   3.26736   3.26994   3.27108
 Alpha virt. eigenvalues --    3.27502   3.27565   3.28075   3.28193   3.28401
 Alpha virt. eigenvalues --    3.28822   3.28957   3.29288   3.29582   3.29738
 Alpha virt. eigenvalues --    3.29966   3.30269   3.30520   3.30671   3.30811
 Alpha virt. eigenvalues --    3.31117   3.31432   3.31490   3.31987   3.32115
 Alpha virt. eigenvalues --    3.32575   3.32779   3.33076   3.33249   3.33356
 Alpha virt. eigenvalues --    3.33456   3.33641   3.34407   3.34548   3.34780
 Alpha virt. eigenvalues --    3.35047   3.35262   3.35612   3.35748   3.35970
 Alpha virt. eigenvalues --    3.36013   3.36395   3.36581   3.37002   3.37016
 Alpha virt. eigenvalues --    3.37303   3.37575   3.37892   3.38097   3.38318
 Alpha virt. eigenvalues --    3.38468   3.38750   3.39036   3.39291   3.39452
 Alpha virt. eigenvalues --    3.39709   3.39982   3.40369   3.40868   3.40897
 Alpha virt. eigenvalues --    3.41316   3.41555   3.41716   3.42087   3.42438
 Alpha virt. eigenvalues --    3.42556   3.42690   3.43208   3.43464   3.43555
 Alpha virt. eigenvalues --    3.43671   3.44267   3.44475   3.44759   3.44890
 Alpha virt. eigenvalues --    3.45071   3.45546   3.45643   3.45888   3.46416
 Alpha virt. eigenvalues --    3.46692   3.46796   3.47195   3.47355   3.47591
 Alpha virt. eigenvalues --    3.47833   3.48311   3.48498   3.48864   3.49017
 Alpha virt. eigenvalues --    3.49308   3.49511   3.49963   3.50061   3.50630
 Alpha virt. eigenvalues --    3.50674   3.51241   3.51713   3.52012   3.52307
 Alpha virt. eigenvalues --    3.52536   3.52604   3.52830   3.53245   3.53787
 Alpha virt. eigenvalues --    3.54064   3.54288   3.54605   3.54877   3.55118
 Alpha virt. eigenvalues --    3.55623   3.56037   3.56358   3.56905   3.57069
 Alpha virt. eigenvalues --    3.57383   3.57527   3.57757   3.58091   3.58452
 Alpha virt. eigenvalues --    3.59081   3.59281   3.59506   3.60402   3.60499
 Alpha virt. eigenvalues --    3.60857   3.61216   3.61630   3.61941   3.62205
 Alpha virt. eigenvalues --    3.62257   3.62835   3.63196   3.63214   3.63777
 Alpha virt. eigenvalues --    3.64192   3.64427   3.64783   3.65247   3.65803
 Alpha virt. eigenvalues --    3.66069   3.66392   3.66762   3.66924   3.67090
 Alpha virt. eigenvalues --    3.67785   3.67999   3.68393   3.69284   3.69531
 Alpha virt. eigenvalues --    3.69755   3.70103   3.70463   3.70547   3.71034
 Alpha virt. eigenvalues --    3.71248   3.71517   3.71895   3.72282   3.72641
 Alpha virt. eigenvalues --    3.73159   3.73595   3.73864   3.74135   3.74435
 Alpha virt. eigenvalues --    3.74784   3.74867   3.75037   3.75106   3.75365
 Alpha virt. eigenvalues --    3.75904   3.76141   3.76733   3.77122   3.77386
 Alpha virt. eigenvalues --    3.77489   3.77951   3.78227   3.79263   3.79856
 Alpha virt. eigenvalues --    3.80255   3.81199   3.81541   3.82213   3.82660
 Alpha virt. eigenvalues --    3.83980   3.84414   3.84480   3.84809   3.85512
 Alpha virt. eigenvalues --    3.85802   3.86046   3.86375   3.86951   3.87058
 Alpha virt. eigenvalues --    3.87874   3.88445   3.88646   3.89001   3.89222
 Alpha virt. eigenvalues --    3.89932   3.90145   3.90292   3.90743   3.91279
 Alpha virt. eigenvalues --    3.91512   3.92089   3.92360   3.92913   3.93289
 Alpha virt. eigenvalues --    3.93544   3.93916   3.94163   3.94934   3.95711
 Alpha virt. eigenvalues --    3.96112   3.96228   3.96473   3.96998   3.97296
 Alpha virt. eigenvalues --    3.97389   3.97718   3.98408   3.98760   3.99630
 Alpha virt. eigenvalues --    4.00537   4.01018   4.01401   4.02036   4.02523
 Alpha virt. eigenvalues --    4.02896   4.03043   4.03670   4.04482   4.04752
 Alpha virt. eigenvalues --    4.05248   4.05867   4.06222   4.06611   4.07016
 Alpha virt. eigenvalues --    4.07761   4.08075   4.09095   4.09539   4.10244
 Alpha virt. eigenvalues --    4.10615   4.11044   4.11177   4.11636   4.12149
 Alpha virt. eigenvalues --    4.12518   4.12807   4.13226   4.13674   4.14260
 Alpha virt. eigenvalues --    4.14732   4.15031   4.15627   4.16171   4.16851
 Alpha virt. eigenvalues --    4.17206   4.17482   4.18020   4.19023   4.19767
 Alpha virt. eigenvalues --    4.19800   4.20368   4.20810   4.21452   4.21790
 Alpha virt. eigenvalues --    4.22092   4.23086   4.23362   4.24240   4.24257
 Alpha virt. eigenvalues --    4.25224   4.25582   4.25965   4.26318   4.26694
 Alpha virt. eigenvalues --    4.27130   4.27233   4.27992   4.28260   4.28813
 Alpha virt. eigenvalues --    4.29279   4.30061   4.30208   4.30751   4.30839
 Alpha virt. eigenvalues --    4.31341   4.32062   4.32203   4.32446   4.33481
 Alpha virt. eigenvalues --    4.33809   4.34189   4.34527   4.34713   4.35128
 Alpha virt. eigenvalues --    4.35795   4.36158   4.36495   4.37556   4.37995
 Alpha virt. eigenvalues --    4.38315   4.38506   4.39338   4.39999   4.40038
 Alpha virt. eigenvalues --    4.40728   4.40842   4.41347   4.42070   4.42710
 Alpha virt. eigenvalues --    4.43419   4.43857   4.44165   4.45168   4.45341
 Alpha virt. eigenvalues --    4.45723   4.46004   4.47137   4.47427   4.47840
 Alpha virt. eigenvalues --    4.48257   4.48726   4.49567   4.50710   4.50801
 Alpha virt. eigenvalues --    4.51607   4.52063   4.53511   4.54233   4.55475
 Alpha virt. eigenvalues --    4.55601   4.55760   4.56402   4.56969   4.57203
 Alpha virt. eigenvalues --    4.57951   4.58861   4.59324   4.59789   4.60690
 Alpha virt. eigenvalues --    4.60975   4.61145   4.61411   4.62236   4.63235
 Alpha virt. eigenvalues --    4.63710   4.64175   4.64575   4.65940   4.66345
 Alpha virt. eigenvalues --    4.66877   4.67559   4.67710   4.68219   4.68942
 Alpha virt. eigenvalues --    4.70132   4.70290   4.70872   4.71497   4.71854
 Alpha virt. eigenvalues --    4.72207   4.72571   4.73124   4.73408   4.73677
 Alpha virt. eigenvalues --    4.75167   4.75579   4.76411   4.76825   4.77404
 Alpha virt. eigenvalues --    4.77849   4.78868   4.79381   4.79804   4.80194
 Alpha virt. eigenvalues --    4.80289   4.81257   4.81506   4.82195   4.83200
 Alpha virt. eigenvalues --    4.83911   4.84581   4.85638   4.85808   4.86128
 Alpha virt. eigenvalues --    4.87084   4.87246   4.87719   4.88501   4.89791
 Alpha virt. eigenvalues --    4.90381   4.90748   4.91395   4.92881   4.93048
 Alpha virt. eigenvalues --    4.94012   4.94289   4.94790   4.95080   4.95667
 Alpha virt. eigenvalues --    4.95827   4.96872   4.97892   4.98282   4.99348
 Alpha virt. eigenvalues --    4.99496   4.99964   5.00782   5.01781   5.02083
 Alpha virt. eigenvalues --    5.02564   5.03274   5.04338   5.04595   5.05560
 Alpha virt. eigenvalues --    5.06557   5.06888   5.06931   5.08076   5.08983
 Alpha virt. eigenvalues --    5.09640   5.10349   5.11863   5.12542   5.12931
 Alpha virt. eigenvalues --    5.13773   5.15407   5.16263   5.18235   5.18707
 Alpha virt. eigenvalues --    5.18740   5.19443   5.19896   5.20316   5.21452
 Alpha virt. eigenvalues --    5.21533   5.21925   5.22430   5.22976   5.23683
 Alpha virt. eigenvalues --    5.23909   5.24670   5.25070   5.25528   5.26141
 Alpha virt. eigenvalues --    5.26986   5.27713   5.29213   5.29814   5.31010
 Alpha virt. eigenvalues --    5.31913   5.32801   5.33190   5.33755   5.34291
 Alpha virt. eigenvalues --    5.37030   5.37342   5.38349   5.38550   5.39507
 Alpha virt. eigenvalues --    5.39843   5.41036   5.41547   5.42228   5.42755
 Alpha virt. eigenvalues --    5.43112   5.43962   5.44421   5.45128   5.45704
 Alpha virt. eigenvalues --    5.46237   5.46886   5.48223   5.49016   5.50434
 Alpha virt. eigenvalues --    5.51430   5.51894   5.54565   5.55384   5.56733
 Alpha virt. eigenvalues --    5.57034   5.57541   5.58718   5.58879   5.59387
 Alpha virt. eigenvalues --    5.60030   5.60914   5.61796   5.63131   5.63983
 Alpha virt. eigenvalues --    5.64987   5.66368   5.67013   5.68232   5.68694
 Alpha virt. eigenvalues --    5.70774   5.71021   5.71690   5.71963   5.74060
 Alpha virt. eigenvalues --    5.75645   5.76696   5.80869   5.81127   5.81738
 Alpha virt. eigenvalues --    5.82036   5.84105   5.90425   5.92688   5.93242
 Alpha virt. eigenvalues --    5.95750   5.96814   5.97794   6.00717   6.02104
 Alpha virt. eigenvalues --    6.02918   6.03150   6.04323   6.05340   6.05707
 Alpha virt. eigenvalues --    6.06924   6.08119   6.09460   6.10237   6.10878
 Alpha virt. eigenvalues --    6.12482   6.14393   6.16248   6.18209   6.18914
 Alpha virt. eigenvalues --    6.21744   6.23280   6.27086   6.27496   6.32063
 Alpha virt. eigenvalues --    6.32843   6.33445   6.35863   6.39285   6.40211
 Alpha virt. eigenvalues --    6.41265   6.44383   6.47237   6.48607   6.50825
 Alpha virt. eigenvalues --    6.52638   6.65840   6.67074   6.74640   6.76818
 Alpha virt. eigenvalues --    6.85114   6.86591   6.93077   6.94525   6.97588
 Alpha virt. eigenvalues --    7.08043   7.12576   7.13862   7.18838   7.19374
 Alpha virt. eigenvalues --    7.27008   7.27296  22.29936  22.31344  22.50587
 Alpha virt. eigenvalues --   22.50850  22.51981  22.52269  22.52842  22.55881
 Alpha virt. eigenvalues --   22.59418  22.62046  22.66242  22.69651  22.71424
 Alpha virt. eigenvalues --   22.77962  22.78450  22.82572  22.90412  22.91969
 Alpha virt. eigenvalues --   22.94675  22.96247  22.98850  23.00753  23.02496
 Alpha virt. eigenvalues --   23.07111  23.07892  23.10371  23.25870  23.28092
 Alpha virt. eigenvalues --   23.30084  23.32459  23.35351  23.37124  23.46665
 Alpha virt. eigenvalues --   23.48613  23.51522  23.53149  23.57509  23.59984
 Alpha virt. eigenvalues --   23.66137  23.71200  23.72794  23.80287  32.43593
 Alpha virt. eigenvalues --   32.46749  32.74660  32.85671  32.99852  33.13027
 Alpha virt. eigenvalues --   33.18388  33.41081  43.94053  43.95950  43.97690
 Alpha virt. eigenvalues --   43.98019
  Beta  occ. eigenvalues -- -256.32542 -30.05278 -25.89041 -25.88228 -25.88182
  Beta  occ. eigenvalues --  -19.27339 -19.25407 -19.18134 -19.18083 -14.45536
  Beta  occ. eigenvalues --  -14.45268 -14.38603 -14.38358 -14.35094 -14.35017
  Beta  occ. eigenvalues --  -14.34955 -14.34743 -10.35407 -10.35070 -10.28658
  Beta  occ. eigenvalues --  -10.28196 -10.26232 -10.26200 -10.24446 -10.24162
  Beta  occ. eigenvalues --  -10.24137 -10.23989 -10.23673 -10.23619 -10.23570
  Beta  occ. eigenvalues --  -10.23549 -10.23423 -10.23364 -10.23242 -10.23237
  Beta  occ. eigenvalues --  -10.23077 -10.22891 -10.22882 -10.22482 -10.22410
  Beta  occ. eigenvalues --  -10.21910 -10.21802 -10.21615 -10.21605 -10.21599
  Beta  occ. eigenvalues --  -10.21561 -10.21538 -10.21410 -10.21359 -10.21342
  Beta  occ. eigenvalues --  -10.21290 -10.21134 -10.21092 -10.21042 -10.20937
  Beta  occ. eigenvalues --  -10.20908 -10.20773 -10.20540 -10.20522  -3.35910
  Beta  occ. eigenvalues --   -2.10752  -2.10581  -2.10450  -1.17663  -1.16458
  Beta  occ. eigenvalues --   -1.05561  -1.05367  -1.03161  -1.02743  -0.96883
  Beta  occ. eigenvalues --   -0.96008  -0.95964  -0.95067  -0.90599  -0.90479
  Beta  occ. eigenvalues --   -0.83211  -0.82791  -0.82133  -0.81622  -0.81418
  Beta  occ. eigenvalues --   -0.80984  -0.80865  -0.80345  -0.80164  -0.78234
  Beta  occ. eigenvalues --   -0.77637  -0.76625  -0.75969  -0.74941  -0.73331
  Beta  occ. eigenvalues --   -0.72205  -0.71973  -0.71945  -0.71039  -0.70099
  Beta  occ. eigenvalues --   -0.69819  -0.69154  -0.68432  -0.66287  -0.65474
  Beta  occ. eigenvalues --   -0.64974  -0.64857  -0.64735  -0.63813  -0.62065
  Beta  occ. eigenvalues --   -0.62013  -0.60261  -0.59500  -0.58288  -0.57883
  Beta  occ. eigenvalues --   -0.56149  -0.55983  -0.54975  -0.54209  -0.53684
  Beta  occ. eigenvalues --   -0.53449  -0.52611  -0.52517  -0.51722  -0.51341
  Beta  occ. eigenvalues --   -0.51035  -0.50135  -0.49828  -0.49546  -0.48890
  Beta  occ. eigenvalues --   -0.48468  -0.48152  -0.48007  -0.47692  -0.47671
  Beta  occ. eigenvalues --   -0.47577  -0.47325  -0.45847  -0.45559  -0.45150
  Beta  occ. eigenvalues --   -0.44815  -0.44516  -0.44105  -0.43934  -0.43724
  Beta  occ. eigenvalues --   -0.43485  -0.43391  -0.43219  -0.43113  -0.43034
  Beta  occ. eigenvalues --   -0.42943  -0.42870  -0.42840  -0.42634  -0.42404
  Beta  occ. eigenvalues --   -0.42288  -0.42258  -0.42072  -0.41554  -0.41018
  Beta  occ. eigenvalues --   -0.40540  -0.40381  -0.40018  -0.39759  -0.39692
  Beta  occ. eigenvalues --   -0.39431  -0.39333  -0.39018  -0.38656  -0.38477
  Beta  occ. eigenvalues --   -0.38216  -0.37747  -0.37446  -0.37068  -0.36684
  Beta  occ. eigenvalues --   -0.36634  -0.36367  -0.36127  -0.34840  -0.34571
  Beta  occ. eigenvalues --   -0.34391  -0.34148  -0.34009  -0.33643  -0.32941
  Beta  occ. eigenvalues --   -0.32683  -0.32347  -0.31846  -0.31767  -0.31429
  Beta  occ. eigenvalues --   -0.30104  -0.29152  -0.28764  -0.28168  -0.27789
  Beta  occ. eigenvalues --   -0.27654  -0.27575  -0.27043  -0.26701  -0.24286
  Beta  occ. eigenvalues --   -0.23922  -0.22903  -0.22639  -0.21904  -0.21770
  Beta  occ. eigenvalues --   -0.18803  -0.18771  -0.13241
  Beta virt. eigenvalues --   -0.07443  -0.06103  -0.02370  -0.01342  -0.01146
  Beta virt. eigenvalues --   -0.00624  -0.00077   0.00568   0.01272   0.01505
  Beta virt. eigenvalues --    0.01823   0.02095   0.02325   0.02534   0.03466
  Beta virt. eigenvalues --    0.04347   0.04701   0.04741   0.05623   0.05933
  Beta virt. eigenvalues --    0.06140   0.06204   0.06331   0.06499   0.06784
  Beta virt. eigenvalues --    0.07246   0.07626   0.07754   0.07843   0.08008
  Beta virt. eigenvalues --    0.08292   0.08746   0.09202   0.09486   0.09789
  Beta virt. eigenvalues --    0.09920   0.10158   0.10517   0.10612   0.10822
  Beta virt. eigenvalues --    0.11015   0.11209   0.11630   0.11752   0.11831
  Beta virt. eigenvalues --    0.11966   0.12075   0.12487   0.12544   0.12925
  Beta virt. eigenvalues --    0.13101   0.13340   0.13566   0.13599   0.13978
  Beta virt. eigenvalues --    0.14109   0.14332   0.14501   0.14603   0.14800
  Beta virt. eigenvalues --    0.14919   0.15126   0.15413   0.15614   0.15756
  Beta virt. eigenvalues --    0.15831   0.15970   0.16124   0.16423   0.16589
  Beta virt. eigenvalues --    0.17153   0.17231   0.17365   0.17421   0.17617
  Beta virt. eigenvalues --    0.17976   0.18219   0.18339   0.18724   0.18968
  Beta virt. eigenvalues --    0.19208   0.19629   0.19912   0.20230   0.20428
  Beta virt. eigenvalues --    0.20661   0.20891   0.21028   0.21109   0.21202
  Beta virt. eigenvalues --    0.21361   0.21539   0.21650   0.22267   0.22402
  Beta virt. eigenvalues --    0.22510   0.22831   0.22923   0.23022   0.23121
  Beta virt. eigenvalues --    0.23567   0.23883   0.24172   0.24275   0.24672
  Beta virt. eigenvalues --    0.24802   0.25022   0.25152   0.25262   0.25580
  Beta virt. eigenvalues --    0.25805   0.25901   0.25919   0.26236   0.26310
  Beta virt. eigenvalues --    0.26500   0.26606   0.26843   0.27356   0.27413
  Beta virt. eigenvalues --    0.27950   0.28004   0.28065   0.28183   0.28432
  Beta virt. eigenvalues --    0.28590   0.28836   0.28934   0.29277   0.29463
  Beta virt. eigenvalues --    0.29598   0.29770   0.30212   0.30460   0.30505
  Beta virt. eigenvalues --    0.30997   0.31083   0.31491   0.31624   0.31661
  Beta virt. eigenvalues --    0.32057   0.32397   0.32523   0.32614   0.32994
  Beta virt. eigenvalues --    0.33117   0.33165   0.33658   0.33743   0.34218
  Beta virt. eigenvalues --    0.34285   0.34693   0.34753   0.34908   0.35047
  Beta virt. eigenvalues --    0.35221   0.35414   0.35663   0.35989   0.36287
  Beta virt. eigenvalues --    0.36610   0.36650   0.36996   0.37195   0.37348
  Beta virt. eigenvalues --    0.37472   0.37720   0.37832   0.37900   0.38246
  Beta virt. eigenvalues --    0.38396   0.38463   0.38724   0.39034   0.39113
  Beta virt. eigenvalues --    0.39289   0.39500   0.39684   0.39798   0.39979
  Beta virt. eigenvalues --    0.40241   0.40385   0.40509   0.40527   0.40738
  Beta virt. eigenvalues --    0.40798   0.40875   0.41407   0.41477   0.41573
  Beta virt. eigenvalues --    0.41799   0.41921   0.42250   0.42452   0.42505
  Beta virt. eigenvalues --    0.42799   0.42887   0.43138   0.43357   0.43590
  Beta virt. eigenvalues --    0.43753   0.43843   0.43957   0.44146   0.44429
  Beta virt. eigenvalues --    0.44624   0.44741   0.44852   0.45035   0.45301
  Beta virt. eigenvalues --    0.45368   0.45631   0.45776   0.45962   0.46089
  Beta virt. eigenvalues --    0.46466   0.46485   0.46614   0.46746   0.46825
  Beta virt. eigenvalues --    0.47118   0.47211   0.47238   0.47530   0.47680
  Beta virt. eigenvalues --    0.47915   0.48204   0.48283   0.48421   0.48554
  Beta virt. eigenvalues --    0.48637   0.48894   0.49013   0.49067   0.49450
  Beta virt. eigenvalues --    0.49543   0.49636   0.49799   0.49827   0.50055
  Beta virt. eigenvalues --    0.50269   0.50449   0.50547   0.50765   0.50898
  Beta virt. eigenvalues --    0.51190   0.51212   0.51455   0.51682   0.51861
  Beta virt. eigenvalues --    0.52120   0.52216   0.52618   0.52834   0.52842
  Beta virt. eigenvalues --    0.52914   0.53364   0.53599   0.53919   0.53989
  Beta virt. eigenvalues --    0.54107   0.54284   0.54828   0.54873   0.54970
  Beta virt. eigenvalues --    0.55273   0.55412   0.55574   0.55845   0.56212
  Beta virt. eigenvalues --    0.56356   0.56581   0.56804   0.56932   0.57393
  Beta virt. eigenvalues --    0.57473   0.57573   0.57727   0.57930   0.58197
  Beta virt. eigenvalues --    0.58462   0.58673   0.58834   0.58978   0.59128
[...]
  1715. RY*(   3) H  70                  0.00006     2.71301   
  1716. RY*(   4) H  70                  0.00006     2.22871   
  1717. RY*(   5) H  70                  0.00000     3.09284   
  1718. RY*(   1) H  71                  0.00059     0.83653   
  1719. RY*(   2) H  71                  0.00014     2.25904   
  1720. RY*(   3) H  71                  0.00011     2.15757   
  1721. RY*(   4) H  71                  0.00006     3.05470   
  1722. RY*(   5) H  71                  0.00001     3.27321   
  1723. RY*(   1) H  72                  0.00042     1.03889   
  1724. RY*(   2) H  72                  0.00009     1.79879   
  1725. RY*(   3) H  72                  0.00002     2.02968   
  1726. RY*(   4) H  72                  0.00003     2.12997   
  1727. RY*(   5) H  72                  0.00000     2.93283   
  1728. RY*(   1) H  73                  0.00019     1.31598   
  1729. RY*(   2) H  73                  0.00008     1.86066   
  1730. RY*(   3) H  73                  0.00004     2.10341   
  1731. RY*(   4) H  73                  0.00001     2.17064   
  1732. RY*(   5) H  73                  0.00000     2.64432   
  1733. RY*(   1) H  74                  0.00045     1.01262   
  1734. RY*(   2) H  74                  0.00008     1.80359   
  1735. RY*(   3) H  74                  0.00003     2.13597   
  1736. RY*(   4) H  74                  0.00002     2.02320   
  1737. RY*(   5) H  74                  0.00000     2.94708   
  1738. RY*(   1) H  75                  0.00070     0.60772   
  1739. RY*(   2) H  75                  0.00007     2.28150   
  1740. RY*(   3) H  75                  0.00007     2.69612   
  1741. RY*(   4) H  75                  0.00006     2.46863   
  1742. RY*(   5) H  75                  0.00000     3.01970   
  1743. RY*(   1) H  76                  0.00038     1.78737   
  1744. RY*(   2) H  76                  0.00007     2.71608   
  1745. RY*(   3) H  76                  0.00007     2.41576   
  1746. RY*(   4) H  76                  0.00003     1.18811   
  1747. RY*(   5) H  76                  0.00001     3.19045   
  1748. RY*(   1) H  77                  0.00036     1.34811   
  1749. RY*(   2) H  77                  0.00007     2.14750   
  1750. RY*(   3) H  77                  0.00004     2.45605   
  1751. RY*(   4) H  77                  0.00005     1.63170   
  1752. RY*(   5) H  77                  0.00000     3.00329   
  1753. RY*(   1) H  78                  0.00035     1.40045   
  1754. RY*(   2) H  78                  0.00007     2.05225   
  1755. RY*(   3) H  78                  0.00005     2.31403   
  1756. RY*(   4) H  78                  0.00005     2.23782   
  1757. RY*(   5) H  78                  0.00001     3.08481   
  1758. RY*(   1) H  79                  0.00045     0.91072   
  1759. RY*(   2) H  79                  0.00009     1.86223   
  1760. RY*(   3) H  79                  0.00003     2.18076   
  1761. RY*(   4) H  79                  0.00003     2.10078   
  1762. RY*(   5) H  79                  0.00000     2.89663   
  1763. RY*(   1) H  80                  0.00041     1.19931   
  1764. RY*(   2) H  80                  0.00009     1.69696   
  1765. RY*(   3) H  80                  0.00003     1.97463   
  1766. RY*(   4) H  80                  0.00003     2.12182   
  1767. RY*(   5) H  80                  0.00000     3.01349   
  1768. RY*(   1) H  81                  0.00051     0.95244   
  1769. RY*(   2) H  81                  0.00009     1.75485   
  1770. RY*(   3) H  81                  0.00003     2.07669   
  1771. RY*(   4) H  81                  0.00003     2.15948   
  1772. RY*(   5) H  81                  0.00000     2.99440   
  1773. RY*(   1) H  82                  0.00068     1.19776   
  1774. RY*(   2) H  82                  0.00012     1.53661   
  1775. RY*(   3) H  82                  0.00006     2.13803   
  1776. RY*(   4) H  82                  0.00003     2.45665   
  1777. RY*(   5) H  82                  0.00001     2.97151   
  1778. RY*(   1) H  83                  0.00029     1.02382   
  1779. RY*(   2) H  83                  0.00014     1.49235   
  1780. RY*(   3) H  83                  0.00007     2.15221   
  1781. RY*(   4) H  83                  0.00002     2.48320   
  1782. RY*(   5) H  83                  0.00000     3.07062   
  1783. RY*(   1) H  84                  0.00045     0.94292   
  1784. RY*(   2) H  84                  0.00010     1.65575   
  1785. RY*(   3) H  84                  0.00006     2.25604   
  1786. RY*(   4) H  84                  0.00002     2.73911   
  1787. RY*(   5) H  84                  0.00002     2.74508   
  1788. RY*(   1) H  85                  0.00044     1.06229   
  1789. RY*(   2) H  85                  0.00010     1.62210   
  1790. RY*(   3) H  85                  0.00005     2.35067   
  1791. RY*(   4) H  85                  0.00003     2.42973   
  1792. RY*(   5) H  85                  0.00000     3.01943   
  1793. RY*(   1) H  86                  0.00031     1.08645   
  1794. RY*(   2) H  86                  0.00009     1.70571   
  1795. RY*(   3) H  86                  0.00003     2.46201   
  1796. RY*(   4) H  86                  0.00004     2.26987   
  1797. RY*(   5) H  86                  0.00000     3.00869   
  1798. RY*(   1) H  87                  0.00036     1.09474   
  1799. RY*(   2) H  87                  0.00014     1.57969   
  1800. RY*(   3) H  87                  0.00009     2.17074   
  1801. RY*(   4) H  87                  0.00003     2.45544   
  1802. RY*(   5) H  87                  0.00000     3.06917   
  1803. RY*(   1) H  88                  0.00028     1.14424   
  1804. RY*(   2) H  88                  0.00016     1.38323   
  1805. RY*(   3) H  88                  0.00008     2.13215   
  1806. RY*(   4) H  88                  0.00003     2.50482   
  1807. RY*(   5) H  88                  0.00000     3.06292   
  1808. RY*(   1) H  89                  0.00058     0.93706   
  1809. RY*(   2) H  89                  0.00008     1.78561   
  1810. RY*(   3) H  89                  0.00004     2.16616   
  1811. RY*(   4) H  89                  0.00002     2.33911   
  1812. RY*(   5) H  89                  0.00001     2.71148   
  1813. RY*(   1) H  90                  0.00042     1.00948   
  1814. RY*(   2) H  90                  0.00009     1.83265   
  1815. RY*(   3) H  90                  0.00003     2.17908   
  1816. RY*(   4) H  90                  0.00002     1.97391   
  1817. RY*(   5) H  90                  0.00001     2.97692   
  1818. RY*(   1) H  91                  0.00029     1.10387   
  1819. RY*(   2) H  91                  0.00009     1.86154   
  1820. RY*(   3) H  91                  0.00003     2.18917   
  1821. RY*(   4) H  91                  0.00003     2.19695   
  1822. RY*(   5) H  91                  0.00001     2.68722   
  1823. RY*(   1) H  92                  0.00051     0.83178   
  1824. RY*(   2) H  92                  0.00012     2.32803   
  1825. RY*(   3) H  92                  0.00006     2.43628   
  1826. RY*(   4) H  92                  0.00005     2.44716   
  1827. RY*(   5) H  92                  0.00000     3.11305   
  1828. RY*(   1) H  93                  0.00085     0.61385   
  1829. RY*(   2) H  93                  0.00007     2.58364   
  1830. RY*(   3) H  93                  0.00008     2.30087   
  1831. RY*(   4) H  93                  0.00005     2.36267   
  1832. RY*(   5) H  93                  0.00000     3.01124   
  1833. RY*(   1) H  94                  0.00038     1.03179   
  1834. RY*(   2) H  94                  0.00008     1.78120   
  1835. RY*(   3) H  94                  0.00006     2.35930   
  1836. RY*(   4) H  94                  0.00004     2.42929   
  1837. RY*(   5) H  94                  0.00001     3.10586   
  1838. RY*(   1) H  95                  0.00054     0.92048   
  1839. RY*(   2) H  95                  0.00006     1.79895   
  1840. RY*(   3) H  95                  0.00007     2.39972   
  1841. RY*(   4) H  95                  0.00003     2.40305   
  1842. RY*(   5) H  95                  0.00001     2.91742   
  1853. RY*(   1) H  98                  0.00042     1.00050   
  1854. RY*(   2) H  98                  0.00037     2.07596   
  1855. RY*(   3) H  98                  0.00019     2.00000   
  1856. RY*(   4) H  98                  0.00011     1.91059   
  1857. RY*(   5) H  98                  0.00000     3.29239   
  1858. RY*(   1) H  99                  0.00048     1.30223   
  1859. RY*(   2) H  99                  0.00035     1.46020   
  1860. RY*(   3) H  99                  0.00021     2.02508   
  1861. RY*(   4) H  99                  0.00013     2.17001   
  1862. RY*(   5) H  99                  0.00001     3.29031   
  1891. BD*(   1) C  23 - C  27          0.01022     0.56418   
  1892. BD*(   2) C  23 - C  27          0.20988     0.05054  1910(v),123(v),574(g),679(g)
  1893. BD*(   1) C  23 - C  54          0.01032     0.56385   
  1894. BD*(   1) C  23 - H  71          0.00608     0.44622   
  1895. BD*(   1) C  24 - C  30          0.00987     0.56463   
  1896. BD*(   2) C  24 - C  30          0.20959     0.04680  1930(v),1910(v),123(v)
                                                    600(g),210(r)
  1897. BD*(   1) C  24 - C  37          0.00965     0.57111   
  1898. BD*(   1) C  24 - H  66          0.00611     0.44513   
  1899. BD*(   1) C  25 - C  40          0.00982     0.58034   
  1900. BD*(   2) C  25 - C  40          0.22736     0.05301  1932(v),1947(v),1930(v)
                                                    626(g),1941(r),1020(g)
                                                    1018(g)
  1901. BD*(   1) C  25 - C  44          0.01003     0.57031   
  1902. BD*(   1) C  25 - H  67          0.00576     0.44362   
  1903. BD*(   1) C  26 - C  47          0.00986     0.55105   
  1904. BD*(   2) C  26 - C  47          0.21930     0.04000  1964(v),1947(v),1949(v)
                                                    652(g),1201(g),1958(r)
                                                    1890(r)
  1905. BD*(   1) C  26 - C  51          0.00996     0.55071   
  1906. BD*(   1) C  26 - H  68          0.00587     0.44305   
  1907. BD*(   1) C  27 - C  28          0.01746     0.50934   
  1908. BD*(   1) C  27 - N  61          0.01261     0.53355   
  1909. BD*(   1) C  28 - C  29          0.01010     0.59604   
  1910. BD*(   2) C  28 - C  29          0.12590     0.07404  1892(v),1896(v),1918(v)
                                                    1917(v),1919(v),1915(v)
  1911. BD*(   1) C  28 - C  32          0.01135     0.42066   
  1912. BD*(   1) C  29 - C  30          0.01720     0.50474   
  1913. BD*(   1) C  29 - C  31          0.00844     0.40343   
  1914. BD*(   1) C  30 - N  61          0.01274     0.50611   
  1915. BD*(   1) C  31 - H  72          0.00454     0.39476   
  1916. BD*(   1) C  31 - H  73          0.00274     0.40289   
  1917. BD*(   1) C  31 - H  74          0.00504     0.39167   
  1918. BD*(   1) C  32 - C  33          0.00715     0.36397   
  1919. BD*(   1) C  32 - H  75          0.00893     0.39616   
  1920. BD*(   1) C  32 - H  76          0.00628     0.40776   
  1921. BD*(   1) C  33 - C  34          0.04053     0.34715   
  1922. BD*(   1) C  33 - H  77          0.00638     0.38504   
  1923. BD*(   1) C  33 - H  78          0.00710     0.38224   
  1924. BD*(   1) C  34 - O  35          0.02181     0.54227   
  1925. BD*(   2) C  34 - O  35          0.08648     0.01060   
  1926. BD*(   1) C  34 - O  36          0.03458     0.50100   
  1927. BD*(   1) O  36 - H  99          0.00679     0.37303   
  1928. BD*(   1) C  37 - C  38          0.01718     0.50448   
  1929. BD*(   1) C  37 - N  62          0.01296     0.50058   
  1930. BD*(   2) C  37 - N  62          0.30795     0.01878  1896(v),1900(v),1932(v)
                                                    210(r),940(g),1589(g),600(v)
                                                    1964(r),941(g),1887(r)
                                                    1873(r)
  1931. BD*(   1) C  38 - C  39          0.01060     0.59945   
  1932. BD*(   2) C  38 - C  39          0.15431     0.07237  1941(v),1900(v),1930(v)
                                                    1939(v),1937(v)
  1933. BD*(   1) C  38 - C  41          0.00802     0.40773   
  1934. BD*(   1) C  39 - C  40          0.01676     0.52017   
  1935. BD*(   1) C  39 - C  42          0.01418     0.43155   
  1936. BD*(   1) C  40 - N  62          0.01276     0.52882   
  1937. BD*(   1) C  41 - H  79          0.00557     0.39696   
  1938. BD*(   1) C  41 - H  80          0.00389     0.41025   
  1939. BD*(   1) C  41 - H  81          0.00585     0.39426   
  1940. BD*(   1) C  42 - C  43          0.00275     0.60203   
  1941. BD*(   2) C  42 - C  43          0.03277     0.06750   
  1942. BD*(   1) C  42 - H  69          0.00942     0.44533   
  1943. BD*(   1) C  43 - H  82          0.00438     0.44289   
  1944. BD*(   1) C  43 - H  83          0.00507     0.44133   
  1945. BD*(   1) C  44 - C  45          0.01732     0.50863   
  1946. BD*(   1) C  44 - N  63          0.01280     0.50982   
  1947. BD*(   2) C  44 - N  63          0.35053     0.01314  1900(v),1904(v),1949(v)
                                                    123(r),210(r),1120(g)
                                                    1121(g),1615(g),1123(g)
                                                    207(r),626(v),1873(r)
                                                    1886(r),1887(r)
  1948. BD*(   1) C  45 - C  46          0.01096     0.59468   
  1949. BD*(   2) C  45 - C  46          0.14189     0.07032  1958(v),1904(v),1947(v)
                                                    1954(v),1955(v)
  1950. BD*(   1) C  45 - C  48          0.00805     0.41245   
  1951. BD*(   1) C  46 - C  47          0.01620     0.50971   
  1952. BD*(   1) C  46 - C  49          0.01424     0.42723   
  1953. BD*(   1) C  47 - N  63          0.01306     0.50729   
  1954. BD*(   1) C  48 - H  84          0.00560     0.38751   
  1955. BD*(   1) C  48 - H  85          0.00396     0.39816   
  1956. BD*(   1) C  48 - H  86          0.00436     0.40035   
  1957. BD*(   1) C  49 - C  50          0.00277     0.59336   
  1958. BD*(   2) C  49 - C  50          0.03663     0.05731   
  1959. BD*(   1) C  49 - H  70          0.00966     0.44418   
  1960. BD*(   1) C  50 - H  87          0.00509     0.43705   
  1961. BD*(   1) C  50 - H  88          0.00424     0.43910   
  1962. BD*(   1) C  51 - C  52          0.01731     0.50271   
  1963. BD*(   1) C  51 - N  64          0.01230     0.52300   
  1964. BD*(   2) C  51 - N  64          0.30229     0.02196  1904(v),1966(v),210(r)
                                                    1304(g),1641(g),652(v)
                                                    207(r),1930(r),1887(r)
                                                    1873(r),1876(r)
  1965. BD*(   1) C  52 - C  53          0.01028     0.58339   
  1966. BD*(   2) C  52 - C  53          0.15204     0.06608  1964(v),1976(v),1971(v)
                                                    1974(v),1972(v)
  1967. BD*(   1) C  52 - C  55          0.00851     0.40159   
  1968. BD*(   1) C  53 - C  54          0.01639     0.50017   
  1969. BD*(   1) C  53 - C  56          0.01160     0.39795   
  1970. BD*(   1) C  54 - N  64          0.01208     0.53221   
  1971. BD*(   1) C  55 - H  89          0.00611     0.38297   
  1972. BD*(   1) C  55 - H  90          0.00399     0.39077   
  1973. BD*(   1) C  55 - H  91          0.00387     0.40003   
  1974. BD*(   1) C  56 - C  57          0.00688     0.34681   
  1975. BD*(   1) C  56 - H  92          0.00643     0.38172   
  1976. BD*(   1) C  56 - H  93          0.01013     0.38446   
  1977. BD*(   1) C  57 - C  58          0.03811     0.33923   
  1978. BD*(   1) C  57 - H  94          0.00717     0.38578   
  1979. BD*(   1) C  57 - H  95          0.00789     0.36135   
  1980. BD*(   1) C  58 - O  59          0.03704     0.49231   
  1981. BD*(   1) C  58 - O  60          0.03667     0.46917   
  1982. BD*(   2) C  58 - O  60          0.08751     0.07752   
  1983. BD*(   1) O  59 - H  98          0.00679     0.36180   
       -------------------------------
              Total Lewis  154.14843  ( 96.7408%)
        Valence non-Lewis    4.88327  (  3.0647%)
        Rydberg non-Lewis    0.31004  (  0.1946%)
       -------------------------------
            Total unit  3  159.34174  (100.0000%)
           Charge unit  3    1.65826
 1\1\GINC-NODE549\SP\UPBE1PBE\def2TZVP\C42H44Fe1N8O4(5)\ZHARTOVSKA\08-F
 eb-2023\0\\# PBE1PBE/def2TZVP empiricaldispersion=GD3BJ scf=maxcycle=9
 99 geom=check pop=nbo\\1aw3_II_Q\\0,5\C,0,4.428,9.754,1.996\C,0,3.012,
 9.72,2.522\N,0,2.674,9.452,3.824\C,0,1.843,9.805,1.81\C,0,1.338,9.387,
 3.894\N,0,0.779,9.575,2.689\H,0,4.58961716,8.91469111,1.35230716\H,0,5
 .11416854,9.71198695,2.81594368\H,0,3.321,9.286,4.585\H,0,1.751,9.989,
 0.755\H,0,0.806,9.184,4.805\C,0,-6.248,10.013,0.126\C,0,-5.16,9.694,1.
 112\N,0,-5.297,8.979,2.278\C,0,-3.834,9.989,0.948\C,0,-4.062,8.858,2.8
 02\N,0,-3.129,9.446,2.021\H,0,-6.88794025,9.16286096,0.01357186\H,0,-5
 .81161942,10.25847869,-0.81962794\H,0,-6.156,8.576,2.649\H,0,-3.408,10
 .531,0.12\H,0,-3.877,8.333,3.724\C,0,-1.333,12.913,2.873\C,0,-0.466,10
 .195,-1.128\C,0,-1.143,6.149,1.56\C,0,-1.72,8.874,5.632\C,0,-1.123,12.
 495,1.558\C,0,-1.063,13.397,0.434\C,0,-0.748,12.656,-0.682\C,0,-0.715,
 11.269,-0.274\C,0,-0.515,13.218,-2.067\C,0,-1.36,14.878,0.473\C,0,-2.7
 86,15.185,0.941\C,0,-3.153,16.658001,0.83\O,0,-2.5,17.358999,0.027\O,0
 ,-4.098,17.055,1.544\C,0,-0.534,8.873,-0.708\C,0,-0.314,7.74,-1.577\C,
 0,-0.563,6.629,-0.812\C,0,-0.863,7.033,0.532\C,0,0.108,7.775,-3.026\C,
 0,-0.44,5.191,-1.257\C,0,-0.981,4.782,-2.415\C,0,-1.347,6.551,2.877\C,
 0,-1.673,5.652,3.954\C,0,-1.699,6.409,5.097\C,0,-1.571,7.799,4.746\C,0
 ,-1.997,4.189,3.838\C,0,-2.042,5.893,6.476\C,0,-1.558,4.719,6.939\C,0,
 -1.672,10.215,5.225\C,0,-1.869,11.355,6.093\C,0,-1.72,12.494,5.327\C,0
 ,-1.482,12.058,3.967\C,0,-2.221,11.305,7.561\C,0,-1.929,13.933,5.773\C
 ,0,-1.24,14.359,7.076\C,0,-1.561,15.812,7.393\O,0,-0.742,16.674,7.011\
 O,0,-2.63,16.031,8.002\N,0,-0.975,11.234,1.077\N,0,-0.821,8.393,0.554\
 N,0,-1.332,7.823,3.394\N,0,-1.461,10.7,3.968\Fe,0,-1.148,9.534,2.257\H
 ,0,-0.257,10.379,-2.168\H,0,-1.196,5.104,1.306\H,0,-1.899,8.65,6.671\H
 ,0,-0.18,4.44,-0.536\H,0,-2.635,6.508,7.131\H,0,-1.347,13.973,3.044\H,
 0,0.244,13.998,-2.019\H,0,-0.176,12.464,-2.774\H,0,-1.442,13.654,-2.43
 9\H,0,-0.665,15.381,1.137\H,0,-1.23,15.299,-0.524\H,0,-3.456,14.608,0.
 324\H,0,-2.954,14.883,1.971\H,0,0.921,8.486,-3.162\H,0,0.467,6.797,-3.
 34\H,0,-0.741,8.059,-3.645\H,0,-1.84,5.341,-2.723\H,0,-0.882,3.752,-2.
 724\H,0,-1.096,3.595,3.995\H,0,-2.746,3.95,4.592\H,0,-2.42,3.965,2.862
 \H,0,-0.823,4.169,6.371\H,0,-1.719,4.449,7.972\H,0,-1.321,11.466,8.155
 \H,0,-2.959,12.076,7.784\H,0,-2.658,10.349,7.838\H,0,-1.535,14.623,5.0
 31\H,0,-3.002,14.12,5.836\H,0,-1.564,13.767,7.925\H,0,-0.163,14.253,6.
 971\H,0,-6.81922222,10.84482526,0.48190999\H,0,4.58299214,10.65939995,
 1.44724835\H,0,0.20042932,16.50684755,7.08507452\H,0,-3.91740197,17.51
 31862,2.36804476\\Version=ES64L-G16RevA.03\State=5-A\HF=-3627.6634705\
 S2=6.291946\S2-1=0.\S2A=6.002756\RMSD=1.305e-09\Dipole=0.9494431,-1.43
 61296,0.8947296\Quadrupole=38.5181764,-27.605913,-10.9122634,17.737164
 4,19.6316846,1.5854841\PG=C01 [X(C42H44Fe1N8O4)]\\@


 COMMON SENSE IS NOT SO COMMON.   -- VOLTAIRE
 Job cpu time:      10 days 13 hours 22 minutes 21.9 seconds.
 Elapsed time:       2 days 15 hours 30 minutes 42.0 seconds.
 File lengths (MBytes):  RWF=   3611 Int=      0 D2E=      0 Chk=    302 Scr=      1
 Normal termination of Gaussian 16 at Wed Feb  8 03:18:05 2023.
