 Entering Gaussian System, Link 0=g16
 Input=/net/homes/chemie/zhartovska/work/BioModel/Konrad/1aw3/1aw312/1aw312.com
 Output=/net/homes/chemie/zhartovska/work/BioModel/Konrad/1aw3/1aw312/1aw312.log
 Initial command:
 /afs/math/software/gaussian/g16.A03/g16/l1.exe "/scratch/zhartovska_gaussian.BhGVzIw/Gau-16074.inp" -scrdir="/scratch/zhartovska_gaussian.BhGVzIw/"
 Entering Link 1 = /afs/math/software/gaussian/g16.A03/g16/l1.exe PID=     16075.
  
 Copyright (c) 1988,1990,1992,1993,1995,1998,2003,2009,2016,
            Gaussian, Inc.  All Rights Reserved.
  
 This is part of the Gaussian(R) 16 program.  It is based on
 the Gaussian(R) 09 system (copyright 2009, Gaussian, Inc.),
 the Gaussian(R) 03 system (copyright 2003, Gaussian, Inc.),
 the Gaussian(R) 98 system (copyright 1998, Gaussian, Inc.),
 the Gaussian(R) 94 system (copyright 1995, Gaussian, Inc.),
 the Gaussian 92(TM) system (copyright 1992, Gaussian, Inc.),
 the Gaussian 90(TM) system (copyright 1990, Gaussian, Inc.),
 the Gaussian 88(TM) system (copyright 1988, Gaussian, Inc.),
 the Gaussian 86(TM) system (copyright 1986, Carnegie Mellon
 University), and the Gaussian 82(TM) system (copyright 1983,
 Carnegie Mellon University). Gaussian is a federally registered
 trademark of Gaussian, Inc.
  
 This software contains proprietary and confidential information,
 including trade secrets, belonging to Gaussian, Inc.
  
 This software is provided under written license and may be
 used, copied, transmitted, or stored only in accord with that
 written license.
  
 The following legend is applicable only to US Government
 contracts under FAR:
  
                    RESTRICTED RIGHTS LEGEND
  
 Use, reproduction and disclosure by the US Government is
 subject to restrictions as set forth in subparagraphs (a)
 and (c) of the Commercial Computer Software - Restricted
 Rights clause in FAR 52.227-19.
  
 Gaussian, Inc.
 340 Quinnipiac St., Bldg. 40, Wallingford CT 06492
  
  
 ---------------------------------------------------------------
 Warning -- This program may not be used in any manner that
 competes with the business of Gaussian, Inc. or will provide
 assistance to any competitor of Gaussian, Inc.  The licensee
 of this program is prohibited from giving any competitor of
 Gaussian, Inc. access to this program.  By using this program,
 the user acknowledges that Gaussian, Inc. is engaged in the
 business of creating and licensing software in the field of
 computational chemistry and represents and warrants to the
 licensee that it is not a competitor of Gaussian, Inc. and that
 it will not use this program in any manner prohibited above.
 ---------------------------------------------------------------
  

 Cite this work as:
 Gaussian 16, Revision A.03,
 M. J. Frisch, G. W. Trucks, H. B. Schlegel, G. E. Scuseria, 
 M. A. Robb, J. R. Cheeseman, G. Scalmani, V. Barone, 
 G. A. Petersson, H. Nakatsuji, X. Li, M. Caricato, A. V. Marenich, 
 J. Bloino, B. G. Janesko, R. Gomperts, B. Mennucci, H. P. Hratchian, 
 J. V. Ortiz, A. F. Izmaylov, J. L. Sonnenberg, D. Williams-Young, 
 F. Ding, F. Lipparini, F. Egidi, J. Goings, B. Peng, A. Petrone, 
 T. Henderson, D. Ranasinghe, V. G. Zakrzewski, J. Gao, N. Rega, 
 G. Zheng, W. Liang, M. Hada, M. Ehara, K. Toyota, R. Fukuda, 
 J. Hasegawa, M. Ishida, T. Nakajima, Y. Honda, O. Kitao, H. Nakai, 
 T. Vreven, K. Throssell, J. A. Montgomery, Jr., J. E. Peralta, 
 F. Ogliaro, M. J. Bearpark, J. J. Heyd, E. N. Brothers, K. N. Kudin, 
 V. N. Staroverov, T. A. Keith, R. Kobayashi, J. Normand, 
 K. Raghavachari, A. P. Rendell, J. C. Burant, S. S. Iyengar, 
 J. Tomasi, M. Cossi, J. M. Millam, M. Klene, C. Adamo, R. Cammi, 
 J. W. Ochterski, R. L. Martin, K. Morokuma, O. Farkas, 
 J. B. Foresman, and D. J. Fox, Gaussian, Inc., Wallingford CT, 2016.
 
 ******************************************
 Gaussian 16:  ES64L-G16RevA.03 25-Dec-2016
                 5-Feb-2023 
 ******************************************
 %nprocs=12
 Will use up to   12 processors via shared memory.
 %mem=16GB
 %oldchk=1aw3_II_S.chk
 %chk=1aw3_III_D.chk
 Copying data from "1aw3_II_S.chk" to current chk file "1aw3_III_D.chk"
 IOpt=  2 FromEx=T IUOpen= 4 IOptOp= 5 NList=   0 IFRang= 0 IUIn= 4 IUOut= 2.
 ----------------------------------------------------------------------
 # PBE1PBE/def2TZVP empiricaldispersion=GD3BJ scf=maxcycle=999 geom=che
 ck pop=nbo
 ----------------------------------------------------------------------
 1/29=2,38=1,172=1/1;
 2/12=2,40=1/2;
 3/5=44,7=101,11=2,14=-4,25=1,30=1,74=-13,124=41/1,2,3;
 4//1;
 5/5=2,7=999,38=5/2;
 6/7=2,8=2,9=2,10=2,28=1,40=1/1,7;
 99/5=1,9=1/99;
 ----------
 1aw3_III_D
 ----------
 Structure from the checkpoint file:  "1aw3_III_D.chk"
 Charge =  1 Multiplicity = 2
 Z-Matrix found in chk file.
 C,0,4.428,9.754,1.996
 C,0,3.012,9.72,2.522
 N,0,2.674,9.452,3.824
 C,0,1.843,9.805,1.81
 C,0,1.338,9.387,3.894
 N,0,0.779,9.575,2.689
 H,0,4.58961716,8.91469111,1.35230716
 H,0,5.11416854,9.71198695,2.81594368
 H,0,3.321,9.286,4.585
 H,0,1.751,9.989,0.755
 H,0,0.806,9.184,4.805
 C,0,-6.248,10.013,0.126
 C,0,-5.16,9.694,1.112
 N,0,-5.297,8.979,2.278
 C,0,-3.834,9.989,0.948
 C,0,-4.062,8.858,2.802
 N,0,-3.129,9.446,2.021
 H,0,-6.88794025,9.16286096,0.01357186
 H,0,-5.81161942,10.25847869,-0.81962794
 H,0,-6.156,8.576,2.649
 H,0,-3.408,10.531,0.12
 H,0,-3.877,8.333,3.724
 C,0,-1.333,12.913,2.873
 C,0,-0.466,10.195,-1.128
 C,0,-1.143,6.149,1.56
 C,0,-1.72,8.874,5.632
 C,0,-1.123,12.495,1.558
 C,0,-1.063,13.397,0.434
 C,0,-0.748,12.656,-0.682
 C,0,-0.715,11.269,-0.274
 C,0,-0.515,13.218,-2.067
 C,0,-1.36,14.878,0.473
 C,0,-2.786,15.185,0.941
 C,0,-3.153,16.658001,0.83
 O,0,-2.5,17.358999,0.027
 O,0,-4.098,17.055,1.544
 C,0,-0.534,8.873,-0.708
 C,0,-0.314,7.74,-1.577
 C,0,-0.563,6.629,-0.812
 C,0,-0.863,7.033,0.532
 C,0,0.108,7.775,-3.026
 C,0,-0.44,5.191,-1.257
 C,0,-0.981,4.782,-2.415
 C,0,-1.347,6.551,2.877
 C,0,-1.673,5.652,3.954
 C,0,-1.699,6.409,5.097
 C,0,-1.571,7.799,4.746
 C,0,-1.997,4.189,3.838
 C,0,-2.042,5.893,6.476
 C,0,-1.558,4.719,6.939
 C,0,-1.672,10.215,5.225
 C,0,-1.869,11.355,6.093
 C,0,-1.72,12.494,5.327
 C,0,-1.482,12.058,3.967
 C,0,-2.221,11.305,7.561
 C,0,-1.929,13.933,5.773
 C,0,-1.24,14.359,7.076
 C,0,-1.561,15.812,7.393
 O,0,-0.742,16.674,7.011
 O,0,-2.63,16.031,8.002
 N,0,-0.975,11.234,1.077
 N,0,-0.821,8.393,0.554
 N,0,-1.332,7.823,3.394
 N,0,-1.461,10.7,3.968
 Fe,0,-1.148,9.534,2.257
 H,0,-0.257,10.379,-2.168
 H,0,-1.196,5.104,1.306
 H,0,-1.899,8.65,6.671
 H,0,-0.18,4.44,-0.536
 H,0,-2.635,6.508,7.131
 H,0,-1.347,13.973,3.044
 H,0,0.244,13.998,-2.019
 H,0,-0.176,12.464,-2.774
 H,0,-1.442,13.654,-2.439
 H,0,-0.665,15.381,1.137
 H,0,-1.23,15.299,-0.524
 H,0,-3.456,14.608,0.324
 H,0,-2.954,14.883,1.971
 H,0,0.921,8.486,-3.162
 H,0,0.467,6.797,-3.34
 H,0,-0.741,8.059,-3.645
 H,0,-1.84,5.341,-2.723
 H,0,-0.882,3.752,-2.724
 H,0,-1.096,3.595,3.995
 H,0,-2.746,3.95,4.592
 H,0,-2.42,3.965,2.862
 H,0,-0.823,4.169,6.371
 H,0,-1.719,4.449,7.972
 H,0,-1.321,11.466,8.155
 H,0,-2.959,12.076,7.784
 H,0,-2.658,10.349,7.838
 H,0,-1.535,14.623,5.031
 H,0,-3.002,14.12,5.836
 H,0,-1.564,13.767,7.925
 H,0,-0.163,14.253,6.971
 H,0,-6.81922222,10.84482526,0.48190999
 H,0,4.58299214,10.65939995,1.44724835
 H,0,0.20042932,16.50684755,7.08507452
 H,0,-3.91740197,17.5131862,2.36804476
 Recover connectivity data from disk.
 Stoichiometry    C42H44FeN8O4(1+,2)
 Framework group  C1[X(C42H44FeN8O4)]
 Deg. of freedom   291
 Full point group                 C1      NOp   1
 Largest Abelian subgroup         C1      NOp   1
 Largest concise Abelian subgroup C1      NOp   1
                         Standard orientation:                         
 ---------------------------------------------------------------------
 Center     Atomic      Atomic             Coordinates (Angstroms)
 Number     Number       Type             X           Y           Z
 ---------------------------------------------------------------------
      1          6           0       -1.448881   -0.351831    5.649911
      2          6           0       -1.144827    0.175470    4.267019
      3          7           0       -0.957151    1.500292    3.965529
      4          6           0       -1.138233   -0.513932    3.081518
      5          6           0       -0.831937    1.602772    2.635928
      6          7           0       -0.954543    0.405563    2.043046
      7          1           0       -2.458239   -0.705400    5.682857
      8          1           0       -1.322159    0.432559    6.366552
      9          1           0       -0.960672    2.267558    4.626269
     10          1           0       -1.276381   -1.572822    2.958989
     11          1           0       -0.678712    2.538031    2.129997
     12          6           0       -0.457788   -2.083737   -5.006504
     13          6           0       -0.591298   -1.060343   -3.914468
     14          7           0       -0.892034    0.271427   -4.074143
     15          6           0       -0.526984   -1.323384   -2.573249
     16          6           0       -0.998357    0.792493   -2.836554
     17          7           0       -0.797932   -0.143303   -1.882453
     18          1           0       -1.215552   -1.919440   -5.743864
     19          1           0       -0.569708   -3.063957   -4.592329
     20          1           0       -1.052591    0.759223   -4.954034
     21          1           0       -0.321712   -2.283608   -2.129788
     22          1           0       -1.234304    1.829589   -2.667156
     23          6           0        2.513473   -0.429642    0.336605
     24          6           0       -1.384778   -3.400560    0.689444
     25          6           0       -4.296533    0.417350   -0.310072
     26          6           0       -0.405767    3.450168   -0.370845
     27          6           0        1.690144   -1.552592    0.432324
     28          6           0        2.189766   -2.901512    0.538967
     29          6           0        1.109553   -3.736367    0.711937
     30          6           0       -0.078678   -2.918809    0.606922
     31          6           0        1.186924   -5.230017    0.938612
     32          6           0        3.636283   -3.320166    0.414843
     33          6           0        4.245663   -2.953623   -0.942011
     34          6           0        5.647330   -3.511565   -1.143925
     35          8           0        5.982278   -4.500007   -0.455878
     36          8           0        6.357568   -2.944754   -2.001081
     37          6           0       -2.495499   -2.590557    0.492207
     38          6           0       -3.858298   -3.067930    0.538492
     39          6           0       -4.641805   -1.993248    0.202751
     40          6           0       -3.811682   -0.837326    0.017569
     41          6           0       -4.321308   -4.461238    0.889527
     42          6           0       -6.150605   -1.971830    0.139032
     43          6           0       -6.824525   -2.939451   -0.501647
     44          6           0       -3.488434    1.547092   -0.401560
     45          6           0       -3.966747    2.853544   -0.774129
     46          6           0       -2.898880    3.705692   -0.657177
     47          6           0       -1.710255    2.939488   -0.389247
     48          6           0       -5.343111    3.200752   -1.267960
     49          6           0       -2.921076    5.180673   -0.988059
     50          6           0       -3.947155    5.979141   -0.618587
     51          6           0        0.729342    2.646868   -0.190646
     52          6           0        2.095599    3.120848   -0.213362
     53          6           0        2.917587    2.037714    0.026292
     54          6           0        2.060022    0.877236    0.145518
     55          6           0        2.541620    4.536042   -0.495706
     56          6           0        4.438267    2.017952    0.004840
     57          6           0        5.154360    3.116395    0.801482
     58          6           0        6.662578    2.970983    0.664109
     59          8           0        7.257943    2.330874    1.556033
     60          8           0        7.187969    3.494637   -0.341552
     61          7           0        0.334289   -1.620577    0.411786
     62          7           0       -2.526479   -1.238624    0.215202
     63          7           0       -2.131315    1.643964   -0.216250
     64          7           0        0.775966    1.299035    0.011763
     65         26           0       -0.887415    0.030362    0.104915
     66          1           0       -1.555534   -4.448745    0.866328
     67          1           0       -5.354131    0.500555   -0.494227
     68          1           0       -0.276780    4.509451   -0.522566
     69          1           0       -6.670709   -1.056618    0.347170
     70          1           0       -2.066654    5.619640   -1.474034
     71          1           0        3.568084   -0.595609    0.451880
     72          1           0        1.844035   -5.435218    1.782936
     73          1           0        0.216769   -5.672316    1.154150
     74          1           0        1.599062   -5.707902    0.050030
     75          1           0        4.228560   -2.853126    1.194594
     76          1           0        3.712160   -4.400031    0.542454
     77          1           0        3.594848   -3.353332   -1.703057
     78          1           0        4.296911   -1.878838   -1.092144
     79          1           0       -3.792366   -4.820598    1.770473
     80          1           0       -5.384969   -4.460714    1.118845
     81          1           0       -4.137945   -5.127718    0.048812
     82          1           0       -6.285091   -3.395439   -1.305582
     83          1           0       -7.903600   -2.914978   -0.535991
     84          1           0       -5.967029    3.523551   -0.433805
     85          1           0       -5.245141    4.000488   -2.001078
     86          1           0       -5.801245    2.347387   -1.761480
     87          1           0       -4.731124    5.601047    0.019994
     88          1           0       -3.865649    7.046772   -0.757982
     89          1           0        2.764315    5.040166    0.445051
     90          1           0        3.428866    4.517674   -1.129166
     91          1           0        1.778154    5.100972   -1.024485
     92          1           0        4.813532    1.093968    0.437656
     93          1           0        4.766686    2.032529   -1.035447
     94          1           0        4.895721    4.110882    0.454578
     95          1           0        4.889033    3.036727    1.852884
     96          1           0        0.506972   -1.996587   -5.460975
     97          1           0       -0.781568   -1.156076    5.879658
     98          1           0        7.006387    2.441992    2.475801
     99          1           0        7.020152   -2.305598   -1.728937
 ---------------------------------------------------------------------
 Rotational constants (GHZ):           0.0609941           0.0416827           0.0332069
 Standard basis: def2TZVP (5D, 7F)
 There are  2260 symmetry adapted cartesian basis functions of A   symmetry.
 There are  1983 symmetry adapted basis functions of A   symmetry.
  1983 basis functions,  3208 primitive gaussians,  2260 cartesian basis functions
   205 alpha electrons      204 beta electrons
       nuclear repulsion energy      8826.6401000867 Hartrees.
 NAtoms=   99 NActive=   99 NUniq=   99 SFac= 1.00D+00 NAtFMM=   60 NAOKFM=T Big=T
 Integral buffers will be    131072 words long.
 Raffenetti 2 integral format.
 Two-electron integral symmetry is turned on.
 Nuclear repulsion after empirical dispersion term =     8826.4972895608 Hartrees.
 One-electron integrals computed using PRISM.
   1 Symmetry operations used in ECPInt.
 ECPInt:  NShTT=  308505 NPrTT=  954269 LenC2=  223316 LenP2D=  444497.
 LDataN:  DoStor=T MaxTD1= 6 Len=  172
 NBasis=  1983 RedAO= T EigKep=  3.25D-06  NBF=  1983
 NBsUse=  1983 1.00D-06 EigRej= -1.00D+00 NBFU=  1983
 ExpMin= 4.20D-02 ExpMax= 3.01D+05 ExpMxC= 2.91D+03 IAcc=3 IRadAn=         5 AccDes= 0.00D+00
 Harris functional with IExCor= 1009 and IRadAn=       5 diagonalized for initial guess.
 HarFok:  IExCor= 1009 AccDes= 0.00D+00 IRadAn=         5 IDoV= 1 UseB2=F ITyADJ=14
 ICtDFT=  3500011 ScaDFX=  1.000000  1.000000  1.000000  1.000000
 FoFCou: FMM=F IPFlag=           0 FMFlag=      100000 FMFlg1=        2001
         NFxFlg=           0 DoJE=T BraDBF=F KetDBF=T FulRan=T
         wScrn=  0.000000 ICntrl=       500 IOpCl=  0 I1Cent=   200000004 NGrid=           0
         NMat0=    1 NMatS0=      1 NMatT0=    0 NMatD0=    1 NMtDS0=    0 NMtDT0=    0
 Petite list used in FoFCou.
 Initial guess <Sx>= 0.0000 <Sy>= 0.0000 <Sz>= 0.5000 <S**2>= 0.7500 S= 0.5000
 Requested convergence on RMS density matrix=1.00D-08 within 999 cycles.
 Requested convergence on MAX density matrix=1.00D-06.
 Requested convergence on             energy=1.00D-06.
 No special actions if energy rises.
 EnCoef did     9 forward-backward iterations
 Restarting incremental Fock formation.
 Restarting incremental Fock formation.
 SCF Done:  E(UPBE1PBE) =  -3627.50525310     A.U. after   59 cycles
            NFock= 59  Conv=0.17D-08     -V/T= 2.0038
 <Sx>= 0.0000 <Sy>= 0.0000 <Sz>= 0.5000 <S**2>= 0.8133 S= 0.5312
 <L.S>= 0.000000000000E+00
 Annihilation of the first spin contaminant:
 S**2 before annihilation     0.8133,   after     0.7513

 **********************************************************************

            Population analysis using the SCF density.

 **********************************************************************

 Orbital symmetries:
 Alpha Orbitals:
       Occupied  (A) (A) (A) (A) (A) (A) (A) (A) (A) (A) (A) (A)
                 (A) (A) (A) (A) (A) (A) (A) (A) (A) (A) (A) (A)
                 (A) (A) (A) (A) (A) (A) (A) (A) (A) (A) (A) (A)
                 (A) (A) (A) (A) (A) (A) (A) (A) (A) (A) (A) (A)
                 (A) (A) (A) (A) (A) (A) (A) (A) (A) (A) (A) (A)
                 (A) (A) (A) (A) (A) (A) (A) (A) (A) (A) (A) (A)
                 (A) (A) (A) (A) (A) (A) (A) (A) (A) (A) (A) (A)
                 (A) (A) (A) (A) (A) (A) (A) (A) (A) (A) (A) (A)
                 (A) (A) (A) (A) (A) (A) (A) (A) (A) (A) (A) (A)
                 (A) (A) (A) (A) (A) (A) (A) (A) (A) (A) (A) (A)
                 (A) (A) (A) (A) (A) (A) (A) (A) (A) (A) (A) (A)
                 (A) (A) (A) (A) (A) (A) (A) (A) (A) (A) (A) (A)
                 (A) (A) (A) (A) (A) (A) (A) (A) (A) (A) (A) (A)
                 (A) (A) (A) (A) (A) (A) (A) (A) (A) (A) (A) (A)
                 (A) (A) (A) (A) (A) (A) (A) (A) (A) (A) (A) (A)
                 (A) (A) (A) (A) (A) (A) (A) (A) (A) (A) (A) (A)
                 (A) (A) (A) (A) (A) (A) (A) (A) (A) (A) (A) (A)
                 (A)
       Virtual   (A) (A) (A) (A) (A) (A) (A) (A) (A) (A) (A) (A)
                 (A) (A) (A) (A) (A) (A) (A) (A) (A) (A) (A) (A)
                 (A) (A) (A) (A) (A) (A) (A) (A) (A) (A) (A) (A)
                 (A) (A) (A) (A) (A) (A) (A) (A) (A) (A) (A) (A)
                 (A) (A) (A) (A) (A) (A) (A) (A) (A) (A) (A) (A)
                 (A) (A) (A) (A) (A) (A) (A) (A) (A) (A) (A) (A)
                 (A) (A) (A) (A) (A) (A) (A) (A) (A) (A) (A) (A)
                 (A) (A) (A) (A) (A) (A) (A) (A) (A) (A) (A) (A)
                 (A) (A) (A) (A) (A) (A) (A) (A) (A) (A) (A) (A)
                 (A) (A) (A) (A) (A) (A) (A) (A) (A) (A) (A) (A)
                 (A) (A) (A) (A) (A) (A) (A) (A) (A) (A) (A) (A)
                 (A) (A) (A) (A) (A) (A) (A) (A) (A) (A) (A) (A)
                 (A) (A) (A) (A) (A) (A) (A) (A) (A) (A) (A) (A)
                 (A) (A) (A) (A) (A) (A) (A) (A) (A) (A) (A) (A)
                 (A) (A) (A) (A) (A) (A) (A) (A) (A) (A) (A) (A)
                 (A) (A) (A) (A) (A) (A) (A) (A) (A) (A) (A) (A)
                 (A) (A) (A) (A) (A) (A) (A) (A) (A) (A) (A) (A)
                 (A) (A) (A) (A) (A) (A) (A) (A) (A) (A) (A) (A)
                 (A) (A) (A) (A) (A) (A) (A) (A) (A) (A) (A) (A)
                 (A) (A) (A) (A) (A) (A) (A) (A) (A) (A) (A) (A)
                 (A) (A) (A) (A) (A) (A) (A) (A) (A) (A) (A) (A)
                 (A) (A) (A) (A) (A) (A) (A) (A) (A) (A) (A) (A)
                 (A) (A) (A) (A) (A) (A) (A) (A) (A) (A) (A) (A)
                 (A) (A) (A) (A) (A) (A) (A) (A) (A) (A) (A) (A)
                 (A) (A) (A) (A) (A) (A) (A) (A) (A) (A) (A) (A)
                 (A) (A) (A) (A) (A) (A) (A) (A) (A) (A) (A) (A)
                 (A) (A) (A) (A) (A) (A) (A) (A) (A) (A) (A) (A)
                 (A) (A) (A) (A) (A) (A) (A) (A) (A) (A) (A) (A)
                 (A) (A) (A) (A) (A) (A) (A) (A) (A) (A) (A) (A)
                 (A) (A) (A) (A) (A) (A) (A) (A) (A) (A) (A) (A)
                 (A) (A) (A) (A) (A) (A) (A) (A) (A) (A) (A) (A)
                 (A) (A) (A) (A) (A) (A) (A) (A) (A) (A) (A) (A)
                 (A) (A) (A) (A) (A) (A) (A) (A) (A) (A) (A) (A)
                 (A) (A) (A) (A) (A) (A) (A) (A) (A) (A) (A) (A)
                 (A) (A) (A) (A) (A) (A) (A) (A) (A) (A) (A) (A)
                 (A) (A) (A) (A) (A) (A) (A) (A) (A) (A) (A) (A)
                 (A) (A) (A) (A) (A) (A) (A) (A) (A) (A) (A) (A)
                 (A) (A) (A) (A) (A) (A) (A) (A) (A) (A) (A) (A)
                 (A) (A) (A) (A) (A) (A) (A) (A) (A) (A) (A) (A)
                 (A) (A) (A) (A) (A) (A) (A) (A) (A) (A) (A) (A)
                 (A) (A) (A) (A) (A) (A) (A) (A) (A) (A) (A) (A)
                 (A) (A) (A) (A) (A) (A) (A) (A) (A) (A) (A) (A)
                 (A) (A) (A) (A) (A) (A) (A) (A) (A) (A) (A) (A)
                 (A) (A) (A) (A) (A) (A) (A) (A) (A) (A) (A) (A)
                 (A) (A) (A) (A) (A) (A) (A) (A) (A) (A) (A) (A)
                 (A) (A) (A) (A) (A) (A) (A) (A) (A) (A) (A) (A)
                 (A) (A) (A) (A) (A) (A) (A) (A) (A) (A) (A) (A)
                 (A) (A) (A) (A) (A) (A) (A) (A) (A) (A) (A) (A)
                 (A) (A) (A) (A) (A) (A) (A) (A) (A) (A) (A) (A)
                 (A) (A) (A) (A) (A) (A) (A) (A) (A) (A) (A) (A)
                 (A) (A) (A) (A) (A) (A) (A) (A) (A) (A) (A) (A)
                 (A) (A) (A) (A) (A) (A) (A) (A) (A) (A) (A) (A)
                 (A) (A) (A) (A) (A) (A) (A) (A) (A) (A) (A) (A)
                 (A) (A) (A) (A) (A) (A) (A) (A) (A) (A) (A) (A)
                 (A) (A) (A) (A) (A) (A) (A) (A) (A) (A) (A) (A)
                 (A) (A) (A) (A) (A) (A) (A) (A) (A) (A) (A) (A)
                 (A) (A) (A) (A) (A) (A) (A) (A) (A) (A) (A) (A)
                 (A) (A) (A) (A) (A) (A) (A) (A) (A) (A) (A) (A)
                 (A) (A) (A) (A) (A) (A) (A) (A) (A) (A) (A) (A)
                 (A) (A) (A) (A) (A) (A) (A) (A) (A) (A) (A) (A)
                 (A) (A) (A) (A) (A) (A) (A) (A) (A) (A) (A) (A)
                 (A) (A) (A) (A) (A) (A) (A) (A) (A) (A) (A) (A)
                 (A) (A) (A) (A) (A) (A) (A) (A) (A) (A) (A) (A)
                 (A) (A) (A) (A) (A) (A) (A) (A) (A) (A) (A) (A)
                 (A) (A) (A) (A) (A) (A) (A) (A) (A) (A) (A) (A)
                 (A) (A) (A) (A) (A) (A) (A) (A) (A) (A) (A) (A)
                 (A) (A) (A) (A) (A) (A) (A) (A) (A) (A) (A) (A)
                 (A) (A) (A) (A) (A) (A) (A) (A) (A) (A) (A) (A)
                 (A) (A) (A) (A) (A) (A) (A) (A) (A) (A) (A) (A)
                 (A) (A) (A) (A) (A) (A) (A) (A) (A) (A) (A) (A)
                 (A) (A) (A) (A) (A) (A) (A) (A) (A) (A) (A) (A)
                 (A) (A) (A) (A) (A) (A) (A) (A) (A) (A) (A) (A)
                 (A) (A) (A) (A) (A) (A) (A) (A) (A) (A) (A) (A)
                 (A) (A) (A) (A) (A) (A) (A) (A) (A) (A) (A) (A)
                 (A) (A) (A) (A) (A) (A) (A) (A) (A) (A) (A) (A)
                 (A) (A) (A) (A) (A) (A) (A) (A) (A) (A) (A) (A)
                 (A) (A) (A) (A) (A) (A) (A) (A) (A) (A) (A) (A)
                 (A) (A) (A) (A) (A) (A) (A) (A) (A) (A) (A) (A)
                 (A) (A) (A) (A) (A) (A) (A) (A) (A) (A) (A) (A)
                 (A) (A) (A) (A) (A) (A) (A) (A) (A) (A) (A) (A)
                 (A) (A) (A) (A) (A) (A) (A) (A) (A) (A) (A) (A)
                 (A) (A) (A) (A) (A) (A) (A) (A) (A) (A) (A) (A)
                 (A) (A) (A) (A) (A) (A) (A) (A) (A) (A) (A) (A)
                 (A) (A) (A) (A) (A) (A) (A) (A) (A) (A) (A) (A)
                 (A) (A) (A) (A) (A) (A) (A) (A) (A) (A) (A) (A)
                 (A) (A) (A) (A) (A) (A) (A) (A) (A) (A) (A) (A)
                 (A) (A) (A) (A) (A) (A) (A) (A) (A) (A) (A) (A)
                 (A) (A) (A) (A) (A) (A) (A) (A) (A) (A) (A) (A)
                 (A) (A) (A) (A) (A) (A) (A) (A) (A) (A) (A) (A)
                 (A) (A) (A) (A) (A) (A) (A) (A) (A) (A) (A) (A)
                 (A) (A) (A) (A) (A) (A) (A) (A) (A) (A) (A) (A)
                 (A) (A) (A) (A) (A) (A) (A) (A) (A) (A) (A) (A)
                 (A) (A) (A) (A) (A) (A) (A) (A) (A) (A) (A) (A)
                 (A) (A) (A) (A) (A) (A) (A) (A) (A) (A) (A) (A)
                 (A) (A) (A) (A) (A) (A) (A) (A) (A) (A) (A) (A)
                 (A) (A) (A) (A) (A) (A) (A) (A) (A) (A) (A) (A)
                 (A) (A) (A) (A) (A) (A) (A) (A) (A) (A) (A) (A)
                 (A) (A) (A) (A) (A) (A) (A) (A) (A) (A) (A) (A)
                 (A) (A) (A) (A) (A) (A) (A) (A) (A) (A) (A) (A)
                 (A) (A) (A) (A) (A) (A) (A) (A) (A) (A) (A) (A)
                 (A) (A) (A) (A) (A) (A) (A) (A) (A) (A) (A) (A)
                 (A) (A) (A) (A) (A) (A) (A) (A) (A) (A) (A) (A)
                 (A) (A) (A) (A) (A) (A) (A) (A) (A) (A) (A) (A)
                 (A) (A) (A) (A) (A) (A) (A) (A) (A) (A) (A) (A)
                 (A) (A) (A) (A) (A) (A) (A) (A) (A) (A) (A) (A)
                 (A) (A) (A) (A) (A) (A) (A) (A) (A) (A) (A) (A)
                 (A) (A) (A) (A) (A) (A) (A) (A) (A) (A) (A) (A)
                 (A) (A) (A) (A) (A) (A) (A) (A) (A) (A) (A) (A)
                 (A) (A) (A) (A) (A) (A) (A) (A) (A) (A) (A) (A)
                 (A) (A) (A) (A) (A) (A) (A) (A) (A) (A) (A) (A)
                 (A) (A) (A) (A) (A) (A) (A) (A) (A) (A) (A) (A)
                 (A) (A) (A) (A) (A) (A) (A) (A) (A) (A) (A) (A)
                 (A) (A) (A) (A) (A) (A) (A) (A) (A) (A) (A) (A)
                 (A) (A) (A) (A) (A) (A) (A) (A) (A) (A) (A) (A)
                 (A) (A) (A) (A) (A) (A) (A) (A) (A) (A) (A) (A)
                 (A) (A) (A) (A) (A) (A) (A) (A) (A) (A) (A) (A)
                 (A) (A) (A) (A) (A) (A) (A) (A) (A) (A) (A) (A)
                 (A) (A) (A) (A) (A) (A) (A) (A) (A) (A) (A) (A)
                 (A) (A) (A) (A) (A) (A) (A) (A) (A) (A) (A) (A)
                 (A) (A) (A) (A) (A) (A) (A) (A) (A) (A) (A) (A)
                 (A) (A) (A) (A) (A) (A) (A) (A) (A) (A) (A) (A)
                 (A) (A) (A) (A) (A) (A) (A) (A) (A) (A) (A) (A)
                 (A) (A) (A) (A) (A) (A) (A) (A) (A) (A) (A) (A)
                 (A) (A) (A) (A) (A) (A) (A) (A) (A) (A) (A) (A)
                 (A) (A) (A) (A) (A) (A) (A) (A) (A) (A) (A) (A)
                 (A) (A) (A) (A) (A) (A) (A) (A) (A) (A) (A) (A)
                 (A) (A) (A) (A) (A) (A) (A) (A) (A) (A) (A) (A)
                 (A) (A) (A) (A) (A) (A) (A) (A) (A) (A) (A) (A)
                 (A) (A) (A) (A) (A) (A) (A) (A) (A) (A) (A) (A)
                 (A) (A) (A) (A) (A) (A) (A) (A) (A) (A) (A) (A)
                 (A) (A) (A) (A) (A) (A) (A) (A) (A) (A) (A) (A)
                 (A) (A) (A) (A) (A) (A) (A) (A) (A) (A) (A) (A)
                 (A) (A) (A) (A) (A) (A) (A) (A) (A) (A) (A) (A)
                 (A) (A) (A) (A) (A) (A) (A) (A) (A) (A) (A) (A)
                 (A) (A) (A) (A) (A) (A) (A) (A) (A) (A) (A) (A)
                 (A) (A) (A) (A) (A) (A) (A) (A) (A) (A) (A) (A)
                 (A) (A) (A) (A) (A) (A) (A) (A) (A) (A) (A) (A)
                 (A) (A) (A) (A) (A) (A) (A) (A) (A) (A) (A) (A)
                 (A) (A) (A) (A) (A) (A) (A) (A) (A) (A) (A) (A)
                 (A) (A) (A) (A) (A) (A) (A) (A) (A) (A) (A) (A)
                 (A) (A) (A) (A) (A) (A) (A) (A) (A) (A) (A) (A)
                 (A) (A) (A) (A) (A) (A) (A) (A) (A) (A) (A) (A)
                 (A) (A) (A) (A) (A) (A) (A) (A) (A) (A) (A) (A)
                 (A) (A) (A) (A) (A) (A) (A) (A) (A) (A) (A) (A)
                 (A) (A) (A) (A) (A) (A) (A) (A) (A) (A) (A) (A)
                 (A) (A) (A) (A) (A) (A) (A) (A) (A) (A) (A) (A)
                 (A) (A) (A) (A) (A) (A) (A) (A) (A) (A) (A) (A)
                 (A) (A) (A) (A) (A) (A) (A) (A) (A) (A) (A) (A)
                 (A) (A)
 Beta  Orbitals:
       Occupied  (A) (A) (A) (A) (A) (A) (A) (A) (A) (A) (A) (A)
                 (A) (A) (A) (A) (A) (A) (A) (A) (A) (A) (A) (A)
                 (A) (A) (A) (A) (A) (A) (A) (A) (A) (A) (A) (A)
                 (A) (A) (A) (A) (A) (A) (A) (A) (A) (A) (A) (A)
                 (A) (A) (A) (A) (A) (A) (A) (A) (A) (A) (A) (A)
                 (A) (A) (A) (A) (A) (A) (A) (A) (A) (A) (A) (A)
                 (A) (A) (A) (A) (A) (A) (A) (A) (A) (A) (A) (A)
                 (A) (A) (A) (A) (A) (A) (A) (A) (A) (A) (A) (A)
                 (A) (A) (A) (A) (A) (A) (A) (A) (A) (A) (A) (A)
                 (A) (A) (A) (A) (A) (A) (A) (A) (A) (A) (A) (A)
                 (A) (A) (A) (A) (A) (A) (A) (A) (A) (A) (A) (A)
                 (A) (A) (A) (A) (A) (A) (A) (A) (A) (A) (A) (A)
                 (A) (A) (A) (A) (A) (A) (A) (A) (A) (A) (A) (A)
                 (A) (A) (A) (A) (A) (A) (A) (A) (A) (A) (A) (A)
                 (A) (A) (A) (A) (A) (A) (A) (A) (A) (A) (A) (A)
                 (A) (A) (A) (A) (A) (A) (A) (A) (A) (A) (A) (A)
                 (A) (A) (A) (A) (A) (A) (A) (A) (A) (A) (A) (A)
       Virtual   (A) (A) (A) (A) (A) (A) (A) (A) (A) (A) (A) (A)
                 (A) (A) (A) (A) (A) (A) (A) (A) (A) (A) (A) (A)
                 (A) (A) (A) (A) (A) (A) (A) (A) (A) (A) (A) (A)
                 (A) (A) (A) (A) (A) (A) (A) (A) (A) (A) (A) (A)
                 (A) (A) (A) (A) (A) (A) (A) (A) (A) (A) (A) (A)
                 (A) (A) (A) (A) (A) (A) (A) (A) (A) (A) (A) (A)
                 (A) (A) (A) (A) (A) (A) (A) (A) (A) (A) (A) (A)
                 (A) (A) (A) (A) (A) (A) (A) (A) (A) (A) (A) (A)
                 (A) (A) (A) (A) (A) (A) (A) (A) (A) (A) (A) (A)
                 (A) (A) (A) (A) (A) (A) (A) (A) (A) (A) (A) (A)
                 (A) (A) (A) (A) (A) (A) (A) (A) (A) (A) (A) (A)
                 (A) (A) (A) (A) (A) (A) (A) (A) (A) (A) (A) (A)
                 (A) (A) (A) (A) (A) (A) (A) (A) (A) (A) (A) (A)
                 (A) (A) (A) (A) (A) (A) (A) (A) (A) (A) (A) (A)
                 (A) (A) (A) (A) (A) (A) (A) (A) (A) (A) (A) (A)
                 (A) (A) (A) (A) (A) (A) (A) (A) (A) (A) (A) (A)
                 (A) (A) (A) (A) (A) (A) (A) (A) (A) (A) (A) (A)
                 (A) (A) (A) (A) (A) (A) (A) (A) (A) (A) (A) (A)
                 (A) (A) (A) (A) (A) (A) (A) (A) (A) (A) (A) (A)
                 (A) (A) (A) (A) (A) (A) (A) (A) (A) (A) (A) (A)
                 (A) (A) (A) (A) (A) (A) (A) (A) (A) (A) (A) (A)
                 (A) (A) (A) (A) (A) (A) (A) (A) (A) (A) (A) (A)
                 (A) (A) (A) (A) (A) (A) (A) (A) (A) (A) (A) (A)
                 (A) (A) (A) (A) (A) (A) (A) (A) (A) (A) (A) (A)
                 (A) (A) (A) (A) (A) (A) (A) (A) (A) (A) (A) (A)
                 (A) (A) (A) (A) (A) (A) (A) (A) (A) (A) (A) (A)
                 (A) (A) (A) (A) (A) (A) (A) (A) (A) (A) (A) (A)
                 (A) (A) (A) (A) (A) (A) (A) (A) (A) (A) (A) (A)
                 (A) (A) (A) (A) (A) (A) (A) (A) (A) (A) (A) (A)
                 (A) (A) (A) (A) (A) (A) (A) (A) (A) (A) (A) (A)
                 (A) (A) (A) (A) (A) (A) (A) (A) (A) (A) (A) (A)
                 (A) (A) (A) (A) (A) (A) (A) (A) (A) (A) (A) (A)
                 (A) (A) (A) (A) (A) (A) (A) (A) (A) (A) (A) (A)
                 (A) (A) (A) (A) (A) (A) (A) (A) (A) (A) (A) (A)
                 (A) (A) (A) (A) (A) (A) (A) (A) (A) (A) (A) (A)
                 (A) (A) (A) (A) (A) (A) (A) (A) (A) (A) (A) (A)
                 (A) (A) (A) (A) (A) (A) (A) (A) (A) (A) (A) (A)
                 (A) (A) (A) (A) (A) (A) (A) (A) (A) (A) (A) (A)
                 (A) (A) (A) (A) (A) (A) (A) (A) (A) (A) (A) (A)
                 (A) (A) (A) (A) (A) (A) (A) (A) (A) (A) (A) (A)
                 (A) (A) (A) (A) (A) (A) (A) (A) (A) (A) (A) (A)
                 (A) (A) (A) (A) (A) (A) (A) (A) (A) (A) (A) (A)
                 (A) (A) (A) (A) (A) (A) (A) (A) (A) (A) (A) (A)
                 (A) (A) (A) (A) (A) (A) (A) (A) (A) (A) (A) (A)
                 (A) (A) (A) (A) (A) (A) (A) (A) (A) (A) (A) (A)
                 (A) (A) (A) (A) (A) (A) (A) (A) (A) (A) (A) (A)
                 (A) (A) (A) (A) (A) (A) (A) (A) (A) (A) (A) (A)
                 (A) (A) (A) (A) (A) (A) (A) (A) (A) (A) (A) (A)
                 (A) (A) (A) (A) (A) (A) (A) (A) (A) (A) (A) (A)
                 (A) (A) (A) (A) (A) (A) (A) (A) (A) (A) (A) (A)
                 (A) (A) (A) (A) (A) (A) (A) (A) (A) (A) (A) (A)
                 (A) (A) (A) (A) (A) (A) (A) (A) (A) (A) (A) (A)
                 (A) (A) (A) (A) (A) (A) (A) (A) (A) (A) (A) (A)
                 (A) (A) (A) (A) (A) (A) (A) (A) (A) (A) (A) (A)
                 (A) (A) (A) (A) (A) (A) (A) (A) (A) (A) (A) (A)
                 (A) (A) (A) (A) (A) (A) (A) (A) (A) (A) (A) (A)
                 (A) (A) (A) (A) (A) (A) (A) (A) (A) (A) (A) (A)
                 (A) (A) (A) (A) (A) (A) (A) (A) (A) (A) (A) (A)
                 (A) (A) (A) (A) (A) (A) (A) (A) (A) (A) (A) (A)
                 (A) (A) (A) (A) (A) (A) (A) (A) (A) (A) (A) (A)
                 (A) (A) (A) (A) (A) (A) (A) (A) (A) (A) (A) (A)
                 (A) (A) (A) (A) (A) (A) (A) (A) (A) (A) (A) (A)
                 (A) (A) (A) (A) (A) (A) (A) (A) (A) (A) (A) (A)
                 (A) (A) (A) (A) (A) (A) (A) (A) (A) (A) (A) (A)
                 (A) (A) (A) (A) (A) (A) (A) (A) (A) (A) (A) (A)
                 (A) (A) (A) (A) (A) (A) (A) (A) (A) (A) (A) (A)
                 (A) (A) (A) (A) (A) (A) (A) (A) (A) (A) (A) (A)
                 (A) (A) (A) (A) (A) (A) (A) (A) (A) (A) (A) (A)
                 (A) (A) (A) (A) (A) (A) (A) (A) (A) (A) (A) (A)
                 (A) (A) (A) (A) (A) (A) (A) (A) (A) (A) (A) (A)
                 (A) (A) (A) (A) (A) (A) (A) (A) (A) (A) (A) (A)
                 (A) (A) (A) (A) (A) (A) (A) (A) (A) (A) (A) (A)
                 (A) (A) (A) (A) (A) (A) (A) (A) (A) (A) (A) (A)
                 (A) (A) (A) (A) (A) (A) (A) (A) (A) (A) (A) (A)
                 (A) (A) (A) (A) (A) (A) (A) (A) (A) (A) (A) (A)
                 (A) (A) (A) (A) (A) (A) (A) (A) (A) (A) (A) (A)
                 (A) (A) (A) (A) (A) (A) (A) (A) (A) (A) (A) (A)
                 (A) (A) (A) (A) (A) (A) (A) (A) (A) (A) (A) (A)
                 (A) (A) (A) (A) (A) (A) (A) (A) (A) (A) (A) (A)
                 (A) (A) (A) (A) (A) (A) (A) (A) (A) (A) (A) (A)
                 (A) (A) (A) (A) (A) (A) (A) (A) (A) (A) (A) (A)
                 (A) (A) (A) (A) (A) (A) (A) (A) (A) (A) (A) (A)
                 (A) (A) (A) (A) (A) (A) (A) (A) (A) (A) (A) (A)
                 (A) (A) (A) (A) (A) (A) (A) (A) (A) (A) (A) (A)
                 (A) (A) (A) (A) (A) (A) (A) (A) (A) (A) (A) (A)
                 (A) (A) (A) (A) (A) (A) (A) (A) (A) (A) (A) (A)
                 (A) (A) (A) (A) (A) (A) (A) (A) (A) (A) (A) (A)
                 (A) (A) (A) (A) (A) (A) (A) (A) (A) (A) (A) (A)
                 (A) (A) (A) (A) (A) (A) (A) (A) (A) (A) (A) (A)
                 (A) (A) (A) (A) (A) (A) (A) (A) (A) (A) (A) (A)
                 (A) (A) (A) (A) (A) (A) (A) (A) (A) (A) (A) (A)
                 (A) (A) (A) (A) (A) (A) (A) (A) (A) (A) (A) (A)
                 (A) (A) (A) (A) (A) (A) (A) (A) (A) (A) (A) (A)
                 (A) (A) (A) (A) (A) (A) (A) (A) (A) (A) (A) (A)
                 (A) (A) (A) (A) (A) (A) (A) (A) (A) (A) (A) (A)
                 (A) (A) (A) (A) (A) (A) (A) (A) (A) (A) (A) (A)
                 (A) (A) (A) (A) (A) (A) (A) (A) (A) (A) (A) (A)
                 (A) (A) (A) (A) (A) (A) (A) (A) (A) (A) (A) (A)
                 (A) (A) (A) (A) (A) (A) (A) (A) (A) (A) (A) (A)
                 (A) (A) (A) (A) (A) (A) (A) (A) (A) (A) (A) (A)
                 (A) (A) (A) (A) (A) (A) (A) (A) (A) (A) (A) (A)
                 (A) (A) (A) (A) (A) (A) (A) (A) (A) (A) (A) (A)
                 (A) (A) (A) (A) (A) (A) (A) (A) (A) (A) (A) (A)
                 (A) (A) (A) (A) (A) (A) (A) (A) (A) (A) (A) (A)
                 (A) (A) (A) (A) (A) (A) (A) (A) (A) (A) (A) (A)
                 (A) (A) (A) (A) (A) (A) (A) (A) (A) (A) (A) (A)
                 (A) (A) (A) (A) (A) (A) (A) (A) (A) (A) (A) (A)
                 (A) (A) (A) (A) (A) (A) (A) (A) (A) (A) (A) (A)
                 (A) (A) (A) (A) (A) (A) (A) (A) (A) (A) (A) (A)
                 (A) (A) (A) (A) (A) (A) (A) (A) (A) (A) (A) (A)
                 (A) (A) (A) (A) (A) (A) (A) (A) (A) (A) (A) (A)
                 (A) (A) (A) (A) (A) (A) (A) (A) (A) (A) (A) (A)
                 (A) (A) (A) (A) (A) (A) (A) (A) (A) (A) (A) (A)
                 (A) (A) (A) (A) (A) (A) (A) (A) (A) (A) (A) (A)
                 (A) (A) (A) (A) (A) (A) (A) (A) (A) (A) (A) (A)
                 (A) (A) (A) (A) (A) (A) (A) (A) (A) (A) (A) (A)
                 (A) (A) (A) (A) (A) (A) (A) (A) (A) (A) (A) (A)
                 (A) (A) (A) (A) (A) (A) (A) (A) (A) (A) (A) (A)
                 (A) (A) (A) (A) (A) (A) (A) (A) (A) (A) (A) (A)
                 (A) (A) (A) (A) (A) (A) (A) (A) (A) (A) (A) (A)
                 (A) (A) (A) (A) (A) (A) (A) (A) (A) (A) (A) (A)
                 (A) (A) (A) (A) (A) (A) (A) (A) (A) (A) (A) (A)
                 (A) (A) (A) (A) (A) (A) (A) (A) (A) (A) (A) (A)
                 (A) (A) (A) (A) (A) (A) (A) (A) (A) (A) (A) (A)
                 (A) (A) (A) (A) (A) (A) (A) (A) (A) (A) (A) (A)
                 (A) (A) (A) (A) (A) (A) (A) (A) (A) (A) (A) (A)
                 (A) (A) (A) (A) (A) (A) (A) (A) (A) (A) (A) (A)
                 (A) (A) (A) (A) (A) (A) (A) (A) (A) (A) (A) (A)
                 (A) (A) (A) (A) (A) (A) (A) (A) (A) (A) (A) (A)
                 (A) (A) (A) (A) (A) (A) (A) (A) (A) (A) (A) (A)
                 (A) (A) (A) (A) (A) (A) (A) (A) (A) (A) (A) (A)
                 (A) (A) (A) (A) (A) (A) (A) (A) (A) (A) (A) (A)
                 (A) (A) (A) (A) (A) (A) (A) (A) (A) (A) (A) (A)
                 (A) (A) (A) (A) (A) (A) (A) (A) (A) (A) (A) (A)
                 (A) (A) (A) (A) (A) (A) (A) (A) (A) (A) (A) (A)
                 (A) (A) (A) (A) (A) (A) (A) (A) (A) (A) (A) (A)
                 (A) (A) (A) (A) (A) (A) (A) (A) (A) (A) (A) (A)
                 (A) (A) (A) (A) (A) (A) (A) (A) (A) (A) (A) (A)
                 (A) (A) (A) (A) (A) (A) (A) (A) (A) (A) (A) (A)
                 (A) (A) (A) (A) (A) (A) (A) (A) (A) (A) (A) (A)
                 (A) (A) (A) (A) (A) (A) (A) (A) (A) (A) (A) (A)
                 (A) (A) (A) (A) (A) (A) (A) (A) (A) (A) (A) (A)
                 (A) (A) (A) (A) (A) (A) (A) (A) (A) (A) (A) (A)
                 (A) (A) (A) (A) (A) (A) (A) (A) (A) (A) (A) (A)
                 (A) (A) (A) (A) (A) (A) (A) (A) (A) (A) (A) (A)
                 (A) (A) (A) (A) (A) (A) (A) (A) (A) (A) (A) (A)
                 (A) (A) (A) (A) (A) (A) (A) (A) (A) (A) (A) (A)
                 (A) (A) (A) (A) (A) (A) (A) (A) (A) (A) (A) (A)
                 (A) (A) (A)
 The electronic state is 2-A.
 Alpha  occ. eigenvalues -- -256.50584 -30.29213 -26.12402 -26.11852 -26.10328
 Alpha  occ. eigenvalues --  -19.34025 -19.32270 -19.25245 -19.24952 -14.55980
 Alpha  occ. eigenvalues --  -14.55848 -14.51644 -14.51610 -14.48455 -14.48320
 Alpha  occ. eigenvalues --  -14.48163 -14.48108 -10.42412 -10.42328 -10.39850
 Alpha  occ. eigenvalues --  -10.39557 -10.36688 -10.36536 -10.35762 -10.35538
 Alpha  occ. eigenvalues --  -10.35385 -10.35330 -10.35307 -10.35280 -10.34949
 Alpha  occ. eigenvalues --  -10.34900 -10.34383 -10.34276 -10.33236 -10.32721
 Alpha  occ. eigenvalues --  -10.32708 -10.32497 -10.32226 -10.32199 -10.32140
 Alpha  occ. eigenvalues --  -10.32131 -10.32056 -10.31975 -10.31974 -10.31813
 Alpha  occ. eigenvalues --  -10.31757 -10.31602 -10.31587 -10.31408 -10.31308
 Alpha  occ. eigenvalues --  -10.31102 -10.30627 -10.30463 -10.30446 -10.30223
 Alpha  occ. eigenvalues --  -10.30048 -10.29939 -10.29649 -10.29471  -3.64749
 Alpha  occ. eigenvalues --   -2.42111  -2.40882  -2.37685  -1.24395  -1.23372
 Alpha  occ. eigenvalues --   -1.16548  -1.16209  -1.09992  -1.09815  -1.08595
 Alpha  occ. eigenvalues --   -1.07702  -1.07641  -1.06747  -1.01959  -1.01791
 Alpha  occ. eigenvalues --   -0.93907  -0.92354  -0.91914  -0.91729  -0.91388
 Alpha  occ. eigenvalues --   -0.91167  -0.91025  -0.90843  -0.90807  -0.87787
 Alpha  occ. eigenvalues --   -0.87045  -0.86247  -0.85976  -0.85590  -0.83267
 Alpha  occ. eigenvalues --   -0.82114  -0.81827  -0.81101  -0.80767  -0.80063
 Alpha  occ. eigenvalues --   -0.78702  -0.77628  -0.77151  -0.76095  -0.75886
 Alpha  occ. eigenvalues --   -0.75746  -0.75465  -0.74573  -0.72712  -0.72628
 Alpha  occ. eigenvalues --   -0.72472  -0.70031  -0.69192  -0.69154  -0.69025
 Alpha  occ. eigenvalues --   -0.66763  -0.66468  -0.65288  -0.64454  -0.63802
 Alpha  occ. eigenvalues --   -0.63197  -0.62543  -0.62140  -0.61643  -0.60415
 Alpha  occ. eigenvalues --   -0.60320  -0.59070  -0.58619  -0.58586  -0.58506
 Alpha  occ. eigenvalues --   -0.58191  -0.58093  -0.57737  -0.57694  -0.57445
 Alpha  occ. eigenvalues --   -0.56517  -0.56163  -0.55709  -0.55139  -0.54853
 Alpha  occ. eigenvalues --   -0.54602  -0.54464  -0.54168  -0.53937  -0.53642
 Alpha  occ. eigenvalues --   -0.53575  -0.53271  -0.53172  -0.53048  -0.52813
 Alpha  occ. eigenvalues --   -0.52705  -0.52513  -0.52360  -0.52208  -0.52022
 Alpha  occ. eigenvalues --   -0.51688  -0.51617  -0.51481  -0.51034  -0.50936
 Alpha  occ. eigenvalues --   -0.50568  -0.50308  -0.50139  -0.49910  -0.49670
 Alpha  occ. eigenvalues --   -0.49289  -0.48776  -0.48666  -0.48316  -0.48284
 Alpha  occ. eigenvalues --   -0.47642  -0.47557  -0.47399  -0.46880  -0.46708
 Alpha  occ. eigenvalues --   -0.46442  -0.46298  -0.46021  -0.45822  -0.45494
 Alpha  occ. eigenvalues --   -0.45213  -0.44731  -0.44036  -0.43896  -0.43326
 Alpha  occ. eigenvalues --   -0.43025  -0.42605  -0.42120  -0.41426  -0.40966
 Alpha  occ. eigenvalues --   -0.40549  -0.40406  -0.40383  -0.39787  -0.39636
 Alpha  occ. eigenvalues --   -0.39334  -0.38963  -0.38671  -0.37554  -0.36597
 Alpha  occ. eigenvalues --   -0.34848  -0.34738  -0.34532  -0.34451  -0.33124
 Alpha  occ. eigenvalues --   -0.32692  -0.32218  -0.31794  -0.29907  -0.29308
 Alpha virt. eigenvalues --   -0.17920  -0.17774  -0.15023  -0.14598  -0.12052
 Alpha virt. eigenvalues --   -0.09420  -0.09353  -0.08869  -0.08256  -0.08218
 Alpha virt. eigenvalues --   -0.07543  -0.06792  -0.06102  -0.05972  -0.05756
 Alpha virt. eigenvalues --   -0.05197  -0.04833  -0.04598  -0.03860  -0.03807
 Alpha virt. eigenvalues --   -0.02908  -0.02601  -0.02364  -0.02070  -0.01940
 Alpha virt. eigenvalues --   -0.01645  -0.01417  -0.01004  -0.00614  -0.00417
 Alpha virt. eigenvalues --    0.00007   0.00483   0.00627   0.00774   0.01009
 Alpha virt. eigenvalues --    0.01247   0.01483   0.01852   0.02300   0.02722
 Alpha virt. eigenvalues --    0.02892   0.03105   0.03244   0.03491   0.03536
 Alpha virt. eigenvalues --    0.03632   0.03811   0.04084   0.04381   0.04514
 Alpha virt. eigenvalues --    0.04788   0.05030   0.05214   0.05307   0.05630
 Alpha virt. eigenvalues --    0.05811   0.06073   0.06116   0.06139   0.06278
 Alpha virt. eigenvalues --    0.06442   0.06755   0.06878   0.07033   0.07214
 Alpha virt. eigenvalues --    0.07368   0.07533   0.07668   0.07992   0.08542
 Alpha virt. eigenvalues --    0.08588   0.08782   0.08898   0.09035   0.09280
 Alpha virt. eigenvalues --    0.09393   0.09541   0.09948   0.10131   0.10300
 Alpha virt. eigenvalues --    0.10736   0.11025   0.11642   0.11715   0.11836
 Alpha virt. eigenvalues --    0.12118   0.12335   0.12424   0.12550   0.12765
 Alpha virt. eigenvalues --    0.13174   0.13222   0.13441   0.13640   0.13955
 Alpha virt. eigenvalues --    0.13991   0.14074   0.14285   0.14583   0.14667
 Alpha virt. eigenvalues --    0.14900   0.15126   0.15240   0.15423   0.15653
 Alpha virt. eigenvalues --    0.15860   0.15903   0.16326   0.16430   0.16712
 Alpha virt. eigenvalues --    0.16865   0.16952   0.17464   0.17546   0.17654
 Alpha virt. eigenvalues --    0.17962   0.18168   0.18524   0.18643   0.18802
 Alpha virt. eigenvalues --    0.18956   0.19003   0.19302   0.19509   0.19660
 Alpha virt. eigenvalues --    0.19843   0.19871   0.20192   0.20420   0.20818
 Alpha virt. eigenvalues --    0.21083   0.21194   0.21368   0.21552   0.21724
 Alpha virt. eigenvalues --    0.21944   0.22179   0.22407   0.22704   0.22881
 Alpha virt. eigenvalues --    0.23182   0.23467   0.23567   0.23683   0.23891
 Alpha virt. eigenvalues --    0.24005   0.24450   0.24673   0.25017   0.25246
 Alpha virt. eigenvalues --    0.25298   0.25537   0.25647   0.25877   0.26325
 Alpha virt. eigenvalues --    0.26423   0.26601   0.26727   0.26918   0.27248
 Alpha virt. eigenvalues --    0.27567   0.27841   0.27872   0.28068   0.28395
 Alpha virt. eigenvalues --    0.28558   0.28745   0.28946   0.29105   0.29315
 Alpha virt. eigenvalues --    0.29694   0.29871   0.29975   0.30010   0.30181
 Alpha virt. eigenvalues --    0.30320   0.30607   0.30739   0.31054   0.31251
 Alpha virt. eigenvalues --    0.31306   0.31422   0.31657   0.31810   0.32213
 Alpha virt. eigenvalues --    0.32262   0.32417   0.32712   0.32783   0.32839
 Alpha virt. eigenvalues --    0.32947   0.33345   0.33427   0.33528   0.33810
 Alpha virt. eigenvalues --    0.34120   0.34279   0.34437   0.34596   0.34698
 Alpha virt. eigenvalues --    0.34798   0.35092   0.35215   0.35486   0.35605
 Alpha virt. eigenvalues --    0.35781   0.36138   0.36294   0.36369   0.36610
 Alpha virt. eigenvalues --    0.36654   0.36788   0.36954   0.37116   0.37191
 Alpha virt. eigenvalues --    0.37434   0.37599   0.38006   0.38121   0.38257
 Alpha virt. eigenvalues --    0.38327   0.38534   0.38725   0.38811   0.39064
 Alpha virt. eigenvalues --    0.39286   0.39441   0.39491   0.39861   0.39917
 Alpha virt. eigenvalues --    0.40218   0.40289   0.40558   0.40697   0.40755
 Alpha virt. eigenvalues --    0.40978   0.41006   0.41215   0.41397   0.41517
 Alpha virt. eigenvalues --    0.41610   0.41763   0.42071   0.42309   0.42343
 Alpha virt. eigenvalues --    0.42441   0.42538   0.42783   0.43075   0.43132
 Alpha virt. eigenvalues --    0.43504   0.43649   0.44032   0.44146   0.44266
 Alpha virt. eigenvalues --    0.44409   0.44572   0.44854   0.45127   0.45248
 Alpha virt. eigenvalues --    0.45435   0.45801   0.45875   0.45960   0.46242
 Alpha virt. eigenvalues --    0.46331   0.46672   0.46838   0.47001   0.47230
 Alpha virt. eigenvalues --    0.47526   0.47800   0.48078   0.48253   0.48488
 Alpha virt. eigenvalues --    0.48529   0.48826   0.48927   0.49062   0.49240
 Alpha virt. eigenvalues --    0.49342   0.49550   0.49833   0.50110   0.50424
 Alpha virt. eigenvalues --    0.50523   0.50585   0.50773   0.50952   0.51338
 Alpha virt. eigenvalues --    0.51623   0.51954   0.52104   0.52313   0.52503
 Alpha virt. eigenvalues --    0.53063   0.53199   0.53241   0.53408   0.53669
 Alpha virt. eigenvalues --    0.54020   0.54298   0.54464   0.54555   0.54827
 Alpha virt. eigenvalues --    0.54855   0.55140   0.55506   0.55920   0.56013
 Alpha virt. eigenvalues --    0.56271   0.56589   0.56758   0.57096   0.57447
 Alpha virt. eigenvalues --    0.57692   0.58152   0.58263   0.58537   0.58841
 Alpha virt. eigenvalues --    0.59005   0.59186   0.59512   0.59567   0.59994
 Alpha virt. eigenvalues --    0.60357   0.60477   0.60793   0.61073   0.61348
 Alpha virt. eigenvalues --    0.61503   0.61774   0.62035   0.62151   0.62392
 Alpha virt. eigenvalues --    0.62713   0.63006   0.63114   0.63593   0.63962
 Alpha virt. eigenvalues --    0.64146   0.64516   0.64904   0.65136   0.65606
 Alpha virt. eigenvalues --    0.65837   0.66198   0.66272   0.66416   0.66846
 Alpha virt. eigenvalues --    0.67146   0.67311   0.67590   0.67631   0.68051
 Alpha virt. eigenvalues --    0.68395   0.68820   0.69022   0.69117   0.69296
 Alpha virt. eigenvalues --    0.69611   0.70071   0.70191   0.70613   0.71075
 Alpha virt. eigenvalues --    0.71354   0.71648   0.71866   0.72020   0.72498
 Alpha virt. eigenvalues --    0.72874   0.73016   0.73359   0.73745   0.73907
 Alpha virt. eigenvalues --    0.74055   0.74544   0.74953   0.75235   0.75259
 Alpha virt. eigenvalues --    0.75657   0.75876   0.76197   0.76349   0.76603
 Alpha virt. eigenvalues --    0.76804   0.77191   0.77696   0.78075   0.78149
 Alpha virt. eigenvalues --    0.78421   0.78700   0.79205   0.79533   0.79619
 Alpha virt. eigenvalues --    0.79990   0.80351   0.80450   0.80844   0.81135
 Alpha virt. eigenvalues --    0.81591   0.81805   0.82144   0.82388   0.82590
 Alpha virt. eigenvalues --    0.82781   0.83277   0.83507   0.83643   0.83928
 Alpha virt. eigenvalues --    0.84106   0.84700   0.84903   0.84969   0.85235
 Alpha virt. eigenvalues --    0.85360   0.85482   0.85740   0.86112   0.86321
 Alpha virt. eigenvalues --    0.86430   0.86756   0.86760   0.87470   0.87511
 Alpha virt. eigenvalues --    0.87720   0.88059   0.88214   0.88709   0.88956
 Alpha virt. eigenvalues --    0.89046   0.89357   0.89585   0.89749   0.90365
 Alpha virt. eigenvalues --    0.90554   0.90690   0.91338   0.91529   0.91729
 Alpha virt. eigenvalues --    0.91866   0.92092   0.92337   0.92637   0.92917
 Alpha virt. eigenvalues --    0.93313   0.93566   0.93774   0.93956   0.94430
 Alpha virt. eigenvalues --    0.94724   0.94864   0.94986   0.95332   0.95449
 Alpha virt. eigenvalues --    0.95848   0.95946   0.96162   0.96510   0.96586
 Alpha virt. eigenvalues --    0.96925   0.97727   0.97782   0.98058   0.98382
 Alpha virt. eigenvalues --    0.98539   0.98781   0.99248   0.99759   0.99852
 Alpha virt. eigenvalues --    1.00096   1.00276   1.00738   1.01317   1.01656
 Alpha virt. eigenvalues --    1.02042   1.02290   1.02394   1.03071   1.03434
 Alpha virt. eigenvalues --    1.03856   1.04258   1.04420   1.05093   1.05360
 Alpha virt. eigenvalues --    1.05825   1.05974   1.06187   1.06970   1.07109
 Alpha virt. eigenvalues --    1.07630   1.07752   1.08022   1.08164   1.08682
 Alpha virt. eigenvalues --    1.09040   1.09569   1.09688   1.09894   1.10118
 Alpha virt. eigenvalues --    1.10652   1.10922   1.11221   1.11344   1.11723
 Alpha virt. eigenvalues --    1.11750   1.12455   1.12678   1.12810   1.13258
 Alpha virt. eigenvalues --    1.13795   1.14017   1.14102   1.14585   1.15110
 Alpha virt. eigenvalues --    1.15186   1.15602   1.15767   1.16143   1.16243
 Alpha virt. eigenvalues --    1.16506   1.16800   1.17190   1.17635   1.17919
 Alpha virt. eigenvalues --    1.18060   1.18169   1.18987   1.19101   1.19522
 Alpha virt. eigenvalues --    1.19586   1.19985   1.20273   1.20685   1.20780
 Alpha virt. eigenvalues --    1.21180   1.21853   1.21997   1.22529   1.22644
 Alpha virt. eigenvalues --    1.23185   1.23471   1.23983   1.24227   1.24872
 Alpha virt. eigenvalues --    1.25093   1.25487   1.25598   1.26180   1.26327
 Alpha virt. eigenvalues --    1.26790   1.26953   1.27601   1.27754   1.28134
 Alpha virt. eigenvalues --    1.28329   1.28666   1.28872   1.29103   1.29475
 Alpha virt. eigenvalues --    1.29682   1.29941   1.30268   1.30425   1.31151
 Alpha virt. eigenvalues --    1.31591   1.31918   1.32333   1.32636   1.33026
 Alpha virt. eigenvalues --    1.33604   1.34089   1.34542   1.34889   1.35030
 Alpha virt. eigenvalues --    1.35560   1.35753   1.36180   1.36640   1.36864
 Alpha virt. eigenvalues --    1.37203   1.37300   1.37787   1.38043   1.38348
 Alpha virt. eigenvalues --    1.38481   1.38743   1.38953   1.39280   1.39646
 Alpha virt. eigenvalues --    1.40013   1.40117   1.40491   1.40941   1.41357
 Alpha virt. eigenvalues --    1.41588   1.42131   1.42235   1.42464   1.42830
 Alpha virt. eigenvalues --    1.43278   1.43649   1.43792   1.43890   1.44213
 Alpha virt. eigenvalues --    1.44370   1.44419   1.44626   1.45149   1.45404
 Alpha virt. eigenvalues --    1.45577   1.45905   1.45977   1.46394   1.46603
 Alpha virt. eigenvalues --    1.46741   1.46821   1.47015   1.47458   1.47583
 Alpha virt. eigenvalues --    1.47944   1.48217   1.48476   1.48917   1.49077
 Alpha virt. eigenvalues --    1.49398   1.49623   1.49869   1.50007   1.50261
 Alpha virt. eigenvalues --    1.50561   1.50738   1.51030   1.51340   1.51614
 Alpha virt. eigenvalues --    1.51755   1.51958   1.52330   1.52536   1.52739
 Alpha virt. eigenvalues --    1.53096   1.53229   1.53348   1.53825   1.54336
 Alpha virt. eigenvalues --    1.54533   1.54751   1.54944   1.55284   1.55614
 Alpha virt. eigenvalues --    1.55651   1.55812   1.56224   1.56303   1.56690
 Alpha virt. eigenvalues --    1.56861   1.57052   1.57419   1.57576   1.57885
 Alpha virt. eigenvalues --    1.57969   1.58445   1.58469   1.58937   1.59222
 Alpha virt. eigenvalues --    1.59563   1.60000   1.60282   1.60421   1.60564
 Alpha virt. eigenvalues --    1.61137   1.61533   1.61819   1.61991   1.62548
 Alpha virt. eigenvalues --    1.62697   1.62901   1.63013   1.63181   1.63476
 Alpha virt. eigenvalues --    1.63518   1.64062   1.64378   1.64909   1.65292
 Alpha virt. eigenvalues --    1.65581   1.65836   1.66068   1.66841   1.67285
 Alpha virt. eigenvalues --    1.67489   1.67747   1.67931   1.68632   1.68802
 Alpha virt. eigenvalues --    1.69374   1.69906   1.70486   1.70587   1.70954
 Alpha virt. eigenvalues --    1.71043   1.71472   1.71925   1.72293   1.72821
 Alpha virt. eigenvalues --    1.72963   1.73299   1.73492   1.73818   1.74395
 Alpha virt. eigenvalues --    1.74610   1.74682   1.75284   1.75393   1.75847
 Alpha virt. eigenvalues --    1.76227   1.76479   1.77121   1.77246   1.77604
 Alpha virt. eigenvalues --    1.77676   1.78172   1.78342   1.78601   1.78779
 Alpha virt. eigenvalues --    1.79453   1.79704   1.79745   1.80577   1.80662
 Alpha virt. eigenvalues --    1.80964   1.81670   1.81857   1.82111   1.82350
 Alpha virt. eigenvalues --    1.82719   1.83063   1.83646   1.83948   1.84313
 Alpha virt. eigenvalues --    1.84796   1.85331   1.85669   1.85809   1.86299
 Alpha virt. eigenvalues --    1.86499   1.87126   1.87438   1.87677   1.87941
 Alpha virt. eigenvalues --    1.88277   1.88442   1.88846   1.89126   1.89176
 Alpha virt. eigenvalues --    1.89755   1.89932   1.90519   1.90787   1.90936
 Alpha virt. eigenvalues --    1.91410   1.91668   1.92178   1.92433   1.92688
 Alpha virt. eigenvalues --    1.93093   1.93581   1.93846   1.94155   1.94210
 Alpha virt. eigenvalues --    1.94535   1.94771   1.95053   1.95681   1.96172
 Alpha virt. eigenvalues --    1.96673   1.96786   1.97175   1.97409   1.97606
 Alpha virt. eigenvalues --    1.98346   1.98642   1.99259   1.99602   1.99894
 Alpha virt. eigenvalues --    2.00153   2.00536   2.00938   2.01147   2.01729
 Alpha virt. eigenvalues --    2.01806   2.02360   2.02647   2.03173   2.03303
 Alpha virt. eigenvalues --    2.03698   2.04159   2.04230   2.05019   2.05122
 Alpha virt. eigenvalues --    2.05540   2.05860   2.06081   2.06589   2.06802
 Alpha virt. eigenvalues --    2.06975   2.07686   2.07830   2.08056   2.08583
 Alpha virt. eigenvalues --    2.08771   2.09068   2.09451   2.10078   2.10596
 Alpha virt. eigenvalues --    2.10654   2.10918   2.11254   2.11485   2.11780
 Alpha virt. eigenvalues --    2.12035   2.12277   2.12761   2.13103   2.13384
 Alpha virt. eigenvalues --    2.13622   2.14357   2.14416   2.15280   2.15424
 Alpha virt. eigenvalues --    2.15911   2.16100   2.16524   2.16786   2.17200
 Alpha virt. eigenvalues --    2.17559   2.17704   2.18128   2.18940   2.19221
 Alpha virt. eigenvalues --    2.19625   2.20348   2.20785   2.20899   2.21003
 Alpha virt. eigenvalues --    2.21081   2.21348   2.21693   2.22343   2.22603
 Alpha virt. eigenvalues --    2.23033   2.23580   2.23915   2.24209   2.24617
 Alpha virt. eigenvalues --    2.24930   2.25543   2.25834   2.26067   2.26458
 Alpha virt. eigenvalues --    2.26788   2.27395   2.27641   2.27805   2.28010
 Alpha virt. eigenvalues --    2.28463   2.29157   2.29353   2.29452   2.29600
 Alpha virt. eigenvalues --    2.30249   2.30378   2.30546   2.30921   2.31136
 Alpha virt. eigenvalues --    2.31654   2.31906   2.32337   2.32598   2.33004
 Alpha virt. eigenvalues --    2.33070   2.33381   2.33625   2.34057   2.34111
 Alpha virt. eigenvalues --    2.34408   2.35040   2.35441   2.35935   2.36197
 Alpha virt. eigenvalues --    2.36432   2.36729   2.37101   2.37880   2.38269
 Alpha virt. eigenvalues --    2.38560   2.38689   2.39239   2.39762   2.40245
 Alpha virt. eigenvalues --    2.40645   2.41238   2.41468   2.41601   2.41841
 Alpha virt. eigenvalues --    2.42584   2.42888   2.43157   2.43331   2.43684
 Alpha virt. eigenvalues --    2.43975   2.44236   2.45063   2.45337   2.45844
 Alpha virt. eigenvalues --    2.46043   2.46372   2.46727   2.47007   2.47232
 Alpha virt. eigenvalues --    2.47407   2.47641   2.48082   2.48294   2.48511
 Alpha virt. eigenvalues --    2.48663   2.48918   2.49180   2.49299   2.49417
 Alpha virt. eigenvalues --    2.49893   2.49988   2.50249   2.50669   2.51420
 Alpha virt. eigenvalues --    2.51460   2.51815   2.51876   2.52350   2.52531
 Alpha virt. eigenvalues --    2.52902   2.53200   2.53477   2.53746   2.54139
 Alpha virt. eigenvalues --    2.54468   2.54594   2.54785   2.55061   2.55550
 Alpha virt. eigenvalues --    2.55785   2.56270   2.56433   2.56659   2.56953
 Alpha virt. eigenvalues --    2.57299   2.57489   2.58223   2.58300   2.59026
 Alpha virt. eigenvalues --    2.59199   2.59614   2.59818   2.60170   2.60338
 Alpha virt. eigenvalues --    2.60421   2.60583   2.60761   2.61131   2.61387
 Alpha virt. eigenvalues --    2.61702   2.61930   2.62346   2.62774   2.63352
 Alpha virt. eigenvalues --    2.63633   2.63840   2.64080   2.64390   2.64703
 Alpha virt. eigenvalues --    2.64999   2.65546   2.65927   2.66264   2.66671
 Alpha virt. eigenvalues --    2.67092   2.67301   2.67623   2.67896   2.68620
 Alpha virt. eigenvalues --    2.68717   2.68864   2.69172   2.69927   2.70040
 Alpha virt. eigenvalues --    2.70594   2.71040   2.71174   2.71404   2.71685
 Alpha virt. eigenvalues --    2.72421   2.72827   2.73054   2.73427   2.73806
 Alpha virt. eigenvalues --    2.74299   2.74707   2.74743   2.75285   2.75486
 Alpha virt. eigenvalues --    2.75892   2.76458   2.76590   2.76830   2.77439
 Alpha virt. eigenvalues --    2.77489   2.77720   2.78232   2.78346   2.78730
 Alpha virt. eigenvalues --    2.79155   2.79381   2.80045   2.80358   2.80761
 Alpha virt. eigenvalues --    2.80953   2.81416   2.81594   2.81840   2.82191
 Alpha virt. eigenvalues --    2.82385   2.82423   2.82883   2.82980   2.83612
 Alpha virt. eigenvalues --    2.84037   2.84077   2.84455   2.84759   2.85024
 Alpha virt. eigenvalues --    2.85100   2.85531   2.85649   2.85793   2.86011
 Alpha virt. eigenvalues --    2.86381   2.86663   2.87333   2.87563   2.87809
 Alpha virt. eigenvalues --    2.88003   2.88244   2.88590   2.88948   2.89137
 Alpha virt. eigenvalues --    2.89613   2.89782   2.90060   2.90322   2.90861
 Alpha virt. eigenvalues --    2.90987   2.91205   2.91586   2.91876   2.92202
 Alpha virt. eigenvalues --    2.92521   2.92936   2.93262   2.93538   2.93846
 Alpha virt. eigenvalues --    2.94243   2.94420   2.94728   2.95063   2.95171
 Alpha virt. eigenvalues --    2.95535   2.95704   2.95791   2.96274   2.96407
 Alpha virt. eigenvalues --    2.96739   2.96956   2.97210   2.97334   2.97893
 Alpha virt. eigenvalues --    2.98014   2.98422   2.98687   2.98825   2.98977
 Alpha virt. eigenvalues --    2.99079   2.99619   2.99904   3.00120   3.00406
 Alpha virt. eigenvalues --    3.00623   3.01044   3.01552   3.01948   3.02196
 Alpha virt. eigenvalues --    3.02359   3.02557   3.02647   3.03080   3.03402
 Alpha virt. eigenvalues --    3.03499   3.03805   3.04086   3.04359   3.04786
 Alpha virt. eigenvalues --    3.04987   3.05342   3.05475   3.05603   3.05960
 Alpha virt. eigenvalues --    3.06053   3.06371   3.06664   3.07135   3.07431
 Alpha virt. eigenvalues --    3.07565   3.07791   3.08082   3.08189   3.08511
 Alpha virt. eigenvalues --    3.08836   3.09144   3.09243   3.09341   3.09655
 Alpha virt. eigenvalues --    3.09790   3.10114   3.10323   3.10531   3.10718
 Alpha virt. eigenvalues --    3.11227   3.11460   3.11569   3.11811   3.11981
 Alpha virt. eigenvalues --    3.12389   3.12665   3.12878   3.13356   3.13508
 Alpha virt. eigenvalues --    3.13848   3.14013   3.14068   3.14490   3.14706
 Alpha virt. eigenvalues --    3.14990   3.15177   3.15279   3.15492   3.15695
 Alpha virt. eigenvalues --    3.16228   3.16397   3.16646   3.16838   3.17053
 Alpha virt. eigenvalues --    3.17156   3.17453   3.17635   3.17858   3.18172
 Alpha virt. eigenvalues --    3.18364   3.18640   3.18897   3.19271   3.19446
 Alpha virt. eigenvalues --    3.19725   3.19988   3.20318   3.20351   3.20562
 Alpha virt. eigenvalues --    3.20717   3.21189   3.21466   3.21754   3.21819
 Alpha virt. eigenvalues --    3.22222   3.22494   3.22761   3.23117   3.23259
 Alpha virt. eigenvalues --    3.23419   3.23601   3.23739   3.24014   3.24533
 Alpha virt. eigenvalues --    3.24714   3.24972   3.25316   3.25490   3.25818
 Alpha virt. eigenvalues --    3.26076   3.26282   3.26525   3.26658   3.26751
 Alpha virt. eigenvalues --    3.27153   3.27260   3.27576   3.27872   3.28053
 Alpha virt. eigenvalues --    3.28223   3.28448   3.28711   3.29065   3.29252
 Alpha virt. eigenvalues --    3.29661   3.29835   3.29941   3.30138   3.30641
 Alpha virt. eigenvalues --    3.30881   3.31012   3.31449   3.31661   3.31817
 Alpha virt. eigenvalues --    3.32258   3.32419   3.32816   3.33158   3.33221
 Alpha virt. eigenvalues --    3.33381   3.33576   3.33889   3.34281   3.34333
 Alpha virt. eigenvalues --    3.34698   3.35063   3.35307   3.35465   3.35717
 Alpha virt. eigenvalues --    3.36027   3.36471   3.36631   3.36928   3.37149
 Alpha virt. eigenvalues --    3.37530   3.37680   3.38010   3.38389   3.38571
 Alpha virt. eigenvalues --    3.39051   3.39235   3.39488   3.39699   3.39788
 Alpha virt. eigenvalues --    3.40702   3.40868   3.41309   3.41617   3.41801
 Alpha virt. eigenvalues --    3.42023   3.42270   3.42332   3.42581   3.42940
 Alpha virt. eigenvalues --    3.43464   3.44149   3.44400   3.44442   3.44624
 Alpha virt. eigenvalues --    3.44994   3.45277   3.45401   3.46267   3.46524
 Alpha virt. eigenvalues --    3.46655   3.46980   3.47328   3.47681   3.47942
 Alpha virt. eigenvalues --    3.48121   3.48516   3.49008   3.49500   3.49685
 Alpha virt. eigenvalues --    3.50201   3.50486   3.50728   3.51234   3.51468
 Alpha virt. eigenvalues --    3.51841   3.51998   3.52192   3.52778   3.52947
 Alpha virt. eigenvalues --    3.53415   3.53726   3.54119   3.54722   3.54772
 Alpha virt. eigenvalues --    3.55486   3.55674   3.55918   3.56113   3.56526
 Alpha virt. eigenvalues --    3.56649   3.57076   3.57583   3.57966   3.58536
 Alpha virt. eigenvalues --    3.59218   3.59294   3.59913   3.60185   3.60317
 Alpha virt. eigenvalues --    3.60605   3.60664   3.61419   3.61662   3.62104
 Alpha virt. eigenvalues --    3.62342   3.62858   3.63412   3.63491   3.63959
 Alpha virt. eigenvalues --    3.64197   3.64515   3.64715   3.64970   3.65161
 Alpha virt. eigenvalues --    3.65491   3.65708   3.66036   3.66295   3.66579
 Alpha virt. eigenvalues --    3.67063   3.67348   3.67570   3.68130   3.68337
 Alpha virt. eigenvalues --    3.69239   3.70129   3.70343   3.71323   3.71742
 Alpha virt. eigenvalues --    3.72384   3.72833   3.73900   3.74348   3.74619
 Alpha virt. eigenvalues --    3.75334   3.75720   3.75859   3.76222   3.76542
 Alpha virt. eigenvalues --    3.76928   3.77078   3.77944   3.78554   3.78673
 Alpha virt. eigenvalues --    3.78993   3.79168   3.79641   3.80222   3.80410
 Alpha virt. eigenvalues --    3.81042   3.81259   3.81499   3.82116   3.82676
 Alpha virt. eigenvalues --    3.83244   3.83779   3.84056   3.84383   3.84569
 Alpha virt. eigenvalues --    3.85055   3.85940   3.86160   3.86417   3.87025
 Alpha virt. eigenvalues --    3.87084   3.87553   3.87789   3.88407   3.88888
 Alpha virt. eigenvalues --    3.89347   3.89955   3.90497   3.90918   3.91337
 Alpha virt. eigenvalues --    3.91859   3.92528   3.93086   3.93517   3.93652
 Alpha virt. eigenvalues --    3.94362   3.94794   3.95272   3.95554   3.96421
 Alpha virt. eigenvalues --    3.96644   3.97611   3.97925   3.98559   3.99323
 Alpha virt. eigenvalues --    3.99604   4.00227   4.00807   4.01147   4.01390
 Alpha virt. eigenvalues --    4.01839   4.02166   4.02516   4.02676   4.03569
 Alpha virt. eigenvalues --    4.03812   4.04421   4.04500   4.04729   4.05209
 Alpha virt. eigenvalues --    4.06281   4.06721   4.07004   4.07168   4.07944
 Alpha virt. eigenvalues --    4.08674   4.09469   4.10121   4.10327   4.10496
 Alpha virt. eigenvalues --    4.11216   4.11728   4.12280   4.12964   4.13405
 Alpha virt. eigenvalues --    4.14220   4.14398   4.15215   4.15446   4.15789
 Alpha virt. eigenvalues --    4.16151   4.16768   4.17227   4.17253   4.18058
 Alpha virt. eigenvalues --    4.18367   4.19234   4.19549   4.20140   4.20432
 Alpha virt. eigenvalues --    4.20726   4.21205   4.21488   4.22211   4.22365
 Alpha virt. eigenvalues --    4.22571   4.23603   4.23856   4.24386   4.24937
 Alpha virt. eigenvalues --    4.25220   4.25913   4.26195   4.26339   4.26825
 Alpha virt. eigenvalues --    4.27559   4.28183   4.28389   4.28668   4.29341
 Alpha virt. eigenvalues --    4.29824   4.30012   4.30517   4.31166   4.31496
 Alpha virt. eigenvalues --    4.32126   4.32593   4.33383   4.33973   4.34260
 Alpha virt. eigenvalues --    4.35454   4.35718   4.36121   4.36305   4.37261
 Alpha virt. eigenvalues --    4.37449   4.37926   4.38745   4.39332   4.40036
 Alpha virt. eigenvalues --    4.41421   4.41537   4.42127   4.42432   4.44009
 Alpha virt. eigenvalues --    4.44900   4.45494   4.45690   4.45951   4.46357
 Alpha virt. eigenvalues --    4.47041   4.47585   4.48211   4.49192   4.49591
 Alpha virt. eigenvalues --    4.49946   4.50152   4.50912   4.50968   4.51541
 Alpha virt. eigenvalues --    4.52419   4.53093   4.53611   4.54164   4.54688
 Alpha virt. eigenvalues --    4.55433   4.56113   4.56568   4.57208   4.57783
 Alpha virt. eigenvalues --    4.58120   4.58917   4.59436   4.60399   4.61024
 Alpha virt. eigenvalues --    4.61288   4.62152   4.62154   4.62780   4.63051
 Alpha virt. eigenvalues --    4.63627   4.63801   4.64767   4.65426   4.66237
 Alpha virt. eigenvalues --    4.66368   4.67233   4.67632   4.68766   4.69028
 Alpha virt. eigenvalues --    4.69713   4.70183   4.70637   4.70985   4.71687
 Alpha virt. eigenvalues --    4.71759   4.72735   4.73482   4.73922   4.74726
 Alpha virt. eigenvalues --    4.75017   4.75413   4.76328   4.76683   4.77302
 Alpha virt. eigenvalues --    4.78186   4.78881   4.79754   4.80366   4.81396
 Alpha virt. eigenvalues --    4.82197   4.82409   4.82891   4.83764   4.84118
 Alpha virt. eigenvalues --    4.84334   4.84884   4.85502   4.86426   4.87113
 Alpha virt. eigenvalues --    4.87748   4.88098   4.88555   4.89442   4.89928
 Alpha virt. eigenvalues --    4.91188   4.91932   4.92040   4.92615   4.92892
 Alpha virt. eigenvalues --    4.93932   4.94468   4.94995   4.95630   4.96008
 Alpha virt. eigenvalues --    4.96885   4.98035   4.98444   4.99487   5.00958
 Alpha virt. eigenvalues --    5.01666   5.02319   5.03053   5.04808   5.05920
 Alpha virt. eigenvalues --    5.07329   5.08237   5.08861   5.09637   5.10630
 Alpha virt. eigenvalues --    5.10853   5.11344   5.12010   5.12839   5.13051
 Alpha virt. eigenvalues --    5.13965   5.14439   5.14645   5.15647   5.16146
 Alpha virt. eigenvalues --    5.16507   5.16943   5.17400   5.18009   5.18279
 Alpha virt. eigenvalues --    5.18628   5.20271   5.20341   5.22139   5.22855
 Alpha virt. eigenvalues --    5.22971   5.25666   5.25828   5.25954   5.26683
 Alpha virt. eigenvalues --    5.27455   5.28359   5.28491   5.29782   5.30052
 Alpha virt. eigenvalues --    5.30991   5.31296   5.31911   5.33108   5.34681
 Alpha virt. eigenvalues --    5.35076   5.35800   5.36990   5.37159   5.38012
 Alpha virt. eigenvalues --    5.38570   5.39551   5.40389   5.40821   5.43600
 Alpha virt. eigenvalues --    5.44208   5.45853   5.46561   5.47748   5.48408
 Alpha virt. eigenvalues --    5.48985   5.50024   5.50254   5.51926   5.52208
 Alpha virt. eigenvalues --    5.53227   5.53735   5.54705   5.55985   5.56778
 Alpha virt. eigenvalues --    5.57453   5.59384   5.59721   5.59773   5.60431
 Alpha virt. eigenvalues --    5.60684   5.62539   5.64270   5.65439   5.69511
 Alpha virt. eigenvalues --    5.70207   5.72532   5.73806   5.75305   5.81836
 Alpha virt. eigenvalues --    5.83643   5.84226   5.85274   5.85802   5.86293
 Alpha virt. eigenvalues --    5.89034   5.90896   5.91434   5.91818   5.92981
 Alpha virt. eigenvalues --    5.94124   5.94366   5.96394   5.97809   5.99170
 Alpha virt. eigenvalues --    6.00059   6.00820   6.03130   6.05177   6.07510
 Alpha virt. eigenvalues --    6.07630   6.10197   6.11304   6.11334   6.15977
 Alpha virt. eigenvalues --    6.20265   6.20691   6.22018   6.25873   6.28878
 Alpha virt. eigenvalues --    6.29925   6.32522   6.33345   6.37661   6.40257
 Alpha virt. eigenvalues --    6.41862   6.43806   6.45890   6.58995   6.60394
 Alpha virt. eigenvalues --    6.67904   6.69836   6.78111   6.79824   6.86392
 Alpha virt. eigenvalues --    6.87637   6.90869   7.01139   7.05848   7.06922
 Alpha virt. eigenvalues --    7.11887   7.12596   7.20054   7.20623  22.20823
 Alpha virt. eigenvalues --   22.22393  22.41498  22.42088  22.43006  22.43305
 Alpha virt. eigenvalues --   22.43697  22.46747  22.51352  22.53787  22.57363
 Alpha virt. eigenvalues --   22.59055  22.62488  22.67375  22.69081  22.73412
 Alpha virt. eigenvalues --   22.79505  22.80973  22.83780  22.85275  22.88026
 Alpha virt. eigenvalues --   22.89659  22.91728  22.96121  22.96759  22.99476
 Alpha virt. eigenvalues --   23.15372  23.17521  23.19239  23.21572  23.24202
 Alpha virt. eigenvalues --   23.25893  23.35953  23.37647  23.40423  23.42723
 Alpha virt. eigenvalues --   23.49593  23.51478  23.55913  23.60609  23.61750
 Alpha virt. eigenvalues --   23.69040  32.33136  32.36249  32.61797  32.72714
 Alpha virt. eigenvalues --   32.86860  33.00043  33.05419  33.28115  43.86976
 Alpha virt. eigenvalues --   43.89269  43.90820  43.91164
  Beta  occ. eigenvalues -- -256.50549 -30.26941 -26.10005 -26.09765 -26.09092
  Beta  occ. eigenvalues --  -19.34025 -19.32270 -19.25246 -19.24952 -14.55972
  Beta  occ. eigenvalues --  -14.55839 -14.51720 -14.51694 -14.48527 -14.48387
  Beta  occ. eigenvalues --  -14.48237 -14.48172 -10.42411 -10.42328 -10.39825
  Beta  occ. eigenvalues --  -10.39527 -10.36690 -10.36539 -10.35760 -10.35538
  Beta  occ. eigenvalues --  -10.35376 -10.35330 -10.35308 -10.35273 -10.34950
  Beta  occ. eigenvalues --  -10.34900 -10.34382 -10.34273 -10.33238 -10.32727
  Beta  occ. eigenvalues --  -10.32710 -10.32502 -10.32226 -10.32200 -10.32134
  Beta  occ. eigenvalues --  -10.32125 -10.32057 -10.31982 -10.31974 -10.31814
  Beta  occ. eigenvalues --  -10.31765 -10.31588 -10.31588 -10.31415 -10.31291
  Beta  occ. eigenvalues --  -10.31101 -10.30626 -10.30464 -10.30447 -10.30223
  Beta  occ. eigenvalues --  -10.30049 -10.29939 -10.29650 -10.29461  -3.59170
  Beta  occ. eigenvalues --   -2.34489  -2.34271  -2.33915  -1.24395  -1.23372
  Beta  occ. eigenvalues --   -1.16542  -1.16205  -1.09992  -1.09815  -1.08648
  Beta  occ. eigenvalues --   -1.07756  -1.07692  -1.06797  -1.02004  -1.01833
  Beta  occ. eigenvalues --   -0.93910  -0.92359  -0.91915  -0.91740  -0.91394
  Beta  occ. eigenvalues --   -0.91180  -0.91045  -0.90840  -0.90803  -0.87798
  Beta  occ. eigenvalues --   -0.87056  -0.86252  -0.85990  -0.85596  -0.83271
  Beta  occ. eigenvalues --   -0.82109  -0.81820  -0.81102  -0.80778  -0.80078
  Beta  occ. eigenvalues --   -0.78713  -0.77643  -0.77160  -0.76095  -0.75899
  Beta  occ. eigenvalues --   -0.75764  -0.75495  -0.74582  -0.72712  -0.72627
  Beta  occ. eigenvalues --   -0.72475  -0.70043  -0.69204  -0.69160  -0.69025
  Beta  occ. eigenvalues --   -0.66763  -0.66468  -0.65300  -0.64469  -0.63815
  Beta  occ. eigenvalues --   -0.63218  -0.62566  -0.62163  -0.61664  -0.60417
  Beta  occ. eigenvalues --   -0.60323  -0.59075  -0.58618  -0.58587  -0.58514
  Beta  occ. eigenvalues --   -0.58195  -0.57935  -0.57704  -0.57688  -0.57450
  Beta  occ. eigenvalues --   -0.56520  -0.56169  -0.55711  -0.55147  -0.54854
  Beta  occ. eigenvalues --   -0.54565  -0.54465  -0.54101  -0.53922  -0.53613
  Beta  occ. eigenvalues --   -0.53541  -0.53266  -0.53183  -0.52999  -0.52814
  Beta  occ. eigenvalues --   -0.52711  -0.52494  -0.52341  -0.52151  -0.52021
  Beta  occ. eigenvalues --   -0.51689  -0.51621  -0.51454  -0.51031  -0.50931
  Beta  occ. eigenvalues --   -0.50523  -0.50253  -0.50049  -0.49842  -0.49649
  Beta  occ. eigenvalues --   -0.49261  -0.48761  -0.48670  -0.48299  -0.48250
  Beta  occ. eigenvalues --   -0.47599  -0.47497  -0.47260  -0.46743  -0.46664
  Beta  occ. eigenvalues --   -0.46298  -0.46038  -0.45861  -0.45600  -0.45206
  Beta  occ. eigenvalues --   -0.44635  -0.44014  -0.43923  -0.43289  -0.43022
  Beta  occ. eigenvalues --   -0.42809  -0.42546  -0.41819  -0.41420  -0.40709
  Beta  occ. eigenvalues --   -0.40367  -0.40003  -0.39537  -0.39208  -0.38962
  Beta  occ. eigenvalues --   -0.38141  -0.37582  -0.36770  -0.36339  -0.34850
  Beta  occ. eigenvalues --   -0.34807  -0.34548  -0.34407  -0.33186  -0.32572
  Beta  occ. eigenvalues --   -0.32354  -0.31666  -0.29961  -0.29263
  Beta virt. eigenvalues --   -0.19147  -0.17771  -0.16042  -0.12471  -0.12024
  Beta virt. eigenvalues --   -0.11619  -0.09342  -0.09237  -0.08256  -0.08218
  Beta virt. eigenvalues --   -0.07992  -0.07533  -0.06759  -0.06036  -0.05959
  Beta virt. eigenvalues --   -0.05657  -0.05105  -0.04812  -0.04585  -0.03852
  Beta virt. eigenvalues --   -0.03805  -0.02904  -0.02575  -0.02347  -0.02065
  Beta virt. eigenvalues --   -0.01859  -0.01622  -0.01402  -0.00997  -0.00595
  Beta virt. eigenvalues --   -0.00411   0.00013   0.00501   0.00640   0.00791
  Beta virt. eigenvalues --    0.01034   0.01253   0.01496   0.01864   0.02324
  Beta virt. eigenvalues --    0.02744   0.02895   0.03120   0.03247   0.03494
  Beta virt. eigenvalues --    0.03542   0.03640   0.03818   0.04090   0.04385
  Beta virt. eigenvalues --    0.04517   0.04795   0.05035   0.05220   0.05308
  Beta virt. eigenvalues --    0.05641   0.05820   0.06076   0.06125   0.06144
  Beta virt. eigenvalues --    0.06280   0.06452   0.06762   0.06882   0.07038
  Beta virt. eigenvalues --    0.07217   0.07381   0.07539   0.07670   0.07992
  Beta virt. eigenvalues --    0.08552   0.08644   0.08786   0.08905   0.09042
  Beta virt. eigenvalues --    0.09283   0.09401   0.09546   0.09954   0.10133
  Beta virt. eigenvalues --    0.10303   0.10739   0.11034   0.11650   0.11720
  Beta virt. eigenvalues --    0.11839   0.12125   0.12337   0.12432   0.12559
  Beta virt. eigenvalues --    0.12779   0.13181   0.13242   0.13446   0.13647
  Beta virt. eigenvalues --    0.13965   0.14008   0.14082   0.14309   0.14588
  Beta virt. eigenvalues --    0.14690   0.14909   0.15144   0.15265   0.15495
  Beta virt. eigenvalues --    0.15675   0.15872   0.15929   0.16353   0.16433
  Beta virt. eigenvalues --    0.16714   0.16866   0.16959   0.17471   0.17556
  Beta virt. eigenvalues --    0.17674   0.17972   0.18176   0.18528   0.18654
  Beta virt. eigenvalues --    0.18807   0.18961   0.19012   0.19325   0.19541
  Beta virt. eigenvalues --    0.19671   0.19858   0.19884   0.20216   0.20441
  Beta virt. eigenvalues --    0.20835   0.21115   0.21210   0.21386   0.21572
  Beta virt. eigenvalues --    0.21749   0.21965   0.22190   0.22415   0.22723
  Beta virt. eigenvalues --    0.22900   0.23206   0.23481   0.23604   0.23699
  Beta virt. eigenvalues --    0.23959   0.24015   0.24535   0.24716   0.25150
  Beta virt. eigenvalues --    0.25279   0.25299   0.25583   0.25657   0.25916
  Beta virt. eigenvalues --    0.26359   0.26426   0.26623   0.26777   0.26922
  Beta virt. eigenvalues --    0.27290   0.27567   0.27855   0.27882   0.28076
  Beta virt. eigenvalues --    0.28412   0.28630   0.28771   0.28958   0.29113
  Beta virt. eigenvalues --    0.29321   0.29763   0.29910   0.29994   0.30026
  Beta virt. eigenvalues --    0.30226   0.30352   0.30648   0.30755   0.31060
  Beta virt. eigenvalues --    0.31272   0.31332   0.31435   0.31717   0.31826
  Beta virt. eigenvalues --    0.32221   0.32274   0.32428   0.32729   0.32805
  Beta virt. eigenvalues --    0.32856   0.32959   0.33377   0.33440   0.33538
  Beta virt. eigenvalues --    0.33842   0.34135   0.34303   0.34446   0.34626
  Beta virt. eigenvalues --    0.34720   0.34825   0.35129   0.35226   0.35543
  Beta virt. eigenvalues --    0.35613   0.35790   0.36181   0.36336   0.36391
  Beta virt. eigenvalues --    0.36620   0.36668   0.36813   0.36970   0.37197
  Beta virt. eigenvalues --    0.37225   0.37437   0.37609   0.38012   0.38153
  Beta virt. eigenvalues --    0.38263   0.38339   0.38541   0.38726   0.38814
  Beta virt. eigenvalues --    0.39082   0.39309   0.39448   0.39508   0.39878
  Beta virt. eigenvalues --    0.39930   0.40227   0.40320   0.40572   0.40700
  Beta virt. eigenvalues --    0.40775   0.40989   0.41050   0.41218   0.41404
  Beta virt. eigenvalues --    0.41537   0.41627   0.41765   0.42076   0.42315
  Beta virt. eigenvalues --    0.42375   0.42474   0.42548   0.42795   0.43082
  Beta virt. eigenvalues --    0.43138   0.43524   0.43654   0.44097   0.44185
  Beta virt. eigenvalues --    0.44284   0.44433   0.44599   0.44858   0.45134
  Beta virt. eigenvalues --    0.45271   0.45442   0.45820   0.45891   0.45962
  Beta virt. eigenvalues --    0.46263   0.46347   0.46681   0.46858   0.47018
  Beta virt. eigenvalues --    0.47241   0.47545   0.47821   0.48082   0.48266
  Beta virt. eigenvalues --    0.48496   0.48552   0.48853   0.48936   0.49126
  Beta virt. eigenvalues --    0.49262   0.49351   0.49565   0.49840   0.50122
  Beta virt. eigenvalues --    0.50433   0.50576   0.50583   0.50784   0.50963
  Beta virt. eigenvalues --    0.51355   0.51632   0.51998   0.52124   0.52363
  Beta virt. eigenvalues --    0.52545   0.53084   0.53217   0.53244   0.53431
  Beta virt. eigenvalues --    0.53703   0.54060   0.54327   0.54473   0.54571
  Beta virt. eigenvalues --    0.54855   0.54863   0.55145   0.55537   0.55948
  Beta virt. eigenvalues --    0.56033   0.56308   0.56609   0.56793   0.57261
  Beta virt. eigenvalues --    0.57469   0.57749   0.58159   0.58284   0.58565
  Beta virt. eigenvalues --    0.58846   0.59034   0.59200   0.59532   0.59599
  Beta virt. eigenvalues --    0.60035   0.60374   0.60540   0.60800   0.61076
  Beta virt. eigenvalues --    0.61358   0.61511   0.61832   0.62113   0.62195
  Beta virt. eigenvalues --    0.62395   0.62724   0.63018   0.63129   0.63624
  Beta virt. eigenvalues --    0.63976   0.64173   0.64566   0.64913   0.65149
  Beta virt. eigenvalues --    0.65608   0.65852   0.66203   0.66294   0.66440
  Beta virt. eigenvalues --    0.66866   0.67185   0.67342   0.67608   0.67662
  Beta virt. eigenvalues --    0.68072   0.68428   0.68838   0.69038   0.69139
  Beta virt. eigenvalues --    0.69308   0.69675   0.70080   0.70229   0.70629
  Beta virt. eigenvalues --    0.71095   0.71369   0.71673   0.71891   0.72068
  Beta virt. eigenvalues --    0.72517   0.72901   0.73036   0.73368   0.73780
  Beta virt. eigenvalues --    0.73943   0.74096   0.74553   0.74977   0.75247
  Beta virt. eigenvalues --    0.75278   0.75718   0.75896   0.76233   0.76356
[...]
  1710. RY*(   2) H  70                  0.00012     2.20671   
  1711. RY*(   3) H  70                  0.00006     2.59277   
  1712. RY*(   4) H  70                  0.00006     2.15852   
  1713. RY*(   5) H  70                  0.00000     3.00654   
  1714. RY*(   1) H  71                  0.00065     0.72497   
  1715. RY*(   2) H  71                  0.00014     2.14413   
  1716. RY*(   3) H  71                  0.00011     2.08009   
  1717. RY*(   4) H  71                  0.00006     2.98161   
  1718. RY*(   5) H  71                  0.00000     3.16925   
  1719. RY*(   1) H  72                  0.00034     1.04398   
  1720. RY*(   2) H  72                  0.00008     1.64294   
  1721. RY*(   3) H  72                  0.00002     1.91672   
  1722. RY*(   4) H  72                  0.00003     2.02550   
  1723. RY*(   5) H  72                  0.00000     2.85274   
  1724. RY*(   1) H  73                  0.00017     1.25709   
  1725. RY*(   2) H  73                  0.00008     1.76816   
  1726. RY*(   3) H  73                  0.00004     2.01490   
  1727. RY*(   4) H  73                  0.00001     2.06950   
  1728. RY*(   5) H  73                  0.00000     2.54701   
  1729. RY*(   1) H  74                  0.00035     1.02982   
  1730. RY*(   2) H  74                  0.00008     1.64295   
  1731. RY*(   3) H  74                  0.00003     2.04507   
  1732. RY*(   4) H  74                  0.00002     1.94911   
  1733. RY*(   5) H  74                  0.00000     2.81641   
  1734. RY*(   1) H  75                  0.00036     1.64924   
  1735. RY*(   2) H  75                  0.00008     2.51993   
  1736. RY*(   3) H  75                  0.00006     2.38499   
  1737. RY*(   4) H  75                  0.00004     1.51222   
  1738. RY*(   5) H  75                  0.00000     2.73335   
  1739. RY*(   1) H  76                  0.00037     1.71805   
  1740. RY*(   2) H  76                  0.00007     2.63099   
  1741. RY*(   3) H  76                  0.00006     2.33986   
  1742. RY*(   4) H  76                  0.00002     1.09040   
  1743. RY*(   5) H  76                  0.00001     3.09199   
  1744. RY*(   1) H  77                  0.00035     1.28754   
  1745. RY*(   2) H  77                  0.00007     2.04517   
  1746. RY*(   3) H  77                  0.00004     1.85720   
  1747. RY*(   4) H  77                  0.00004     2.04549   
  1748. RY*(   5) H  77                  0.00000     2.93417   
  1749. RY*(   1) H  78                  0.00034     1.27860   
  1750. RY*(   2) H  78                  0.00007     1.98657   
  1751. RY*(   3) H  78                  0.00005     2.17070   
  1752. RY*(   4) H  78                  0.00005     2.22533   
  1753. RY*(   5) H  78                  0.00001     3.00415   
  1754. RY*(   1) H  79                  0.00032     0.86282   
  1755. RY*(   2) H  79                  0.00011     1.72317   
  1756. RY*(   3) H  79                  0.00005     2.20723   
  1757. RY*(   4) H  79                  0.00003     2.32831   
  1758. RY*(   5) H  79                  0.00001     2.93631   
  1759. RY*(   1) H  80                  0.00036     1.25118   
  1760. RY*(   2) H  80                  0.00008     1.35238   
  1761. RY*(   3) H  80                  0.00005     2.20130   
  1762. RY*(   4) H  80                  0.00004     2.35848   
  1763. RY*(   5) H  80                  0.00000     2.97518   
  1764. RY*(   1) H  81                  0.00032     0.94123   
  1765. RY*(   2) H  81                  0.00011     1.58975   
  1766. RY*(   3) H  81                  0.00006     2.14044   
  1767. RY*(   4) H  81                  0.00002     2.64149   
  1768. RY*(   5) H  81                  0.00002     2.64134   
  1769. RY*(   1) H  82                  0.00062     1.14231   
  1770. RY*(   2) H  82                  0.00012     1.47900   
  1771. RY*(   3) H  82                  0.00006     2.00560   
  1772. RY*(   4) H  82                  0.00003     2.37261   
  1773. RY*(   5) H  82                  0.00000     2.88977   
  1774. RY*(   1) H  83                  0.00024     1.23839   
  1775. RY*(   2) H  83                  0.00012     1.14450   
  1776. RY*(   3) H  83                  0.00007     2.06784   
  1777. RY*(   4) H  83                  0.00002     2.40067   
  1778. RY*(   5) H  83                  0.00000     2.98452   
  1779. RY*(   1) H  84                  0.00038     0.93018   
  1780. RY*(   2) H  84                  0.00010     1.51776   
  1781. RY*(   3) H  84                  0.00006     2.16669   
  1782. RY*(   4) H  84                  0.00002     2.69007   
  1783. RY*(   5) H  84                  0.00002     2.60477   
  1784. RY*(   1) H  85                  0.00038     1.05672   
  1785. RY*(   2) H  85                  0.00010     1.45993   
  1786. RY*(   3) H  85                  0.00005     2.26113   
  1787. RY*(   4) H  85                  0.00003     2.34537   
  1788. RY*(   5) H  85                  0.00000     2.93111   
  1789. RY*(   1) H  86                  0.00025     1.07613   
  1790. RY*(   2) H  86                  0.00009     1.56309   
  1791. RY*(   3) H  86                  0.00005     2.25366   
  1792. RY*(   4) H  86                  0.00003     2.27715   
  1793. RY*(   5) H  86                  0.00000     2.92795   
  1794. RY*(   1) H  87                  0.00033     1.03761   
  1795. RY*(   2) H  87                  0.00013     1.50735   
  1796. RY*(   3) H  87                  0.00009     2.08280   
  1797. RY*(   4) H  87                  0.00003     2.34047   
  1798. RY*(   5) H  87                  0.00001     2.98560   
  1799. RY*(   1) H  88                  0.00023     1.40626   
  1800. RY*(   2) H  88                  0.00014     0.98922   
  1801. RY*(   3) H  88                  0.00007     2.04992   
  1802. RY*(   4) H  88                  0.00003     2.41034   
  1803. RY*(   5) H  88                  0.00000     2.97777   
  1804. RY*(   1) H  89                  0.00038     0.94664   
  1805. RY*(   2) H  89                  0.00010     1.57522   
  1806. RY*(   3) H  89                  0.00005     2.16088   
  1807. RY*(   4) H  89                  0.00002     2.56512   
  1808. RY*(   5) H  89                  0.00002     2.69009   
  1809. RY*(   1) H  90                  0.00033     0.97568   
  1810. RY*(   2) H  90                  0.00010     1.63244   
  1811. RY*(   3) H  90                  0.00004     2.21506   
  1812. RY*(   4) H  90                  0.00003     2.34436   
  1813. RY*(   5) H  90                  0.00001     2.91474   
  1814. RY*(   1) H  91                  0.00020     1.21556   
  1815. RY*(   2) H  91                  0.00007     1.54320   
  1816. RY*(   3) H  91                  0.00004     2.41714   
  1817. RY*(   4) H  91                  0.00004     2.02849   
  1818. RY*(   5) H  91                  0.00001     2.94371   
  1819. RY*(   1) H  92                  0.00051     0.72818   
  1820. RY*(   2) H  92                  0.00013     2.27681   
  1821. RY*(   3) H  92                  0.00004     2.39419   
  1822. RY*(   4) H  92                  0.00005     2.28659   
  1823. RY*(   5) H  92                  0.00000     3.04128   
  1824. RY*(   1) H  93                  0.00047     1.61928   
  1825. RY*(   2) H  93                  0.00008     2.31674   
  1826. RY*(   3) H  93                  0.00006     2.36315   
  1827. RY*(   4) H  93                  0.00004     1.60416   
  1828. RY*(   5) H  93                  0.00000     2.71302   
  1829. RY*(   1) H  94                  0.00033     1.07564   
  1830. RY*(   2) H  94                  0.00008     1.65344   
  1831. RY*(   3) H  94                  0.00006     2.23877   
  1832. RY*(   4) H  94                  0.00004     2.36252   
  1833. RY*(   5) H  94                  0.00001     3.01188   
  1834. RY*(   1) H  95                  0.00053     0.87076   
  1835. RY*(   2) H  95                  0.00006     1.69015   
  1836. RY*(   3) H  95                  0.00007     2.32287   
  1837. RY*(   4) H  95                  0.00003     2.32695   
  1838. RY*(   5) H  95                  0.00001     2.83974   
  1849. RY*(   1) H  98                  0.00040     1.18640   
  1850. RY*(   2) H  98                  0.00037     1.78078   
  1851. RY*(   3) H  98                  0.00019     1.94584   
  1852. RY*(   4) H  98                  0.00011     1.81748   
  1853. RY*(   5) H  98                  0.00000     3.23491   
  1854. RY*(   1) H  99                  0.00043     1.64997   
  1855. RY*(   2) H  99                  0.00033     0.96402   
  1856. RY*(   3) H  99                  0.00021     1.98246   
  1857. RY*(   4) H  99                  0.00013     2.10015   
  1858. RY*(   5) H  99                  0.00000     3.23069   
  1887. BD*(   1) C  23 - C  27          0.01017     0.45549   
  1888. BD*(   2) C  23 - C  27          0.20187    -0.05611  1906(v),197(v),571(g),206(r)
                                                    678(g)
  1889. BD*(   1) C  23 - C  54          0.01028     0.45474   
  1890. BD*(   1) C  23 - H  71          0.00608     0.34434   
  1891. BD*(   1) C  24 - C  30          0.00979     0.45491   
  1892. BD*(   2) C  24 - C  30          0.20225    -0.05999  1926(v),1906(v),206(r)
                                                    596(g),755(g)
  1893. BD*(   1) C  24 - C  37          0.00959     0.46175   
  1894. BD*(   1) C  24 - H  66          0.00600     0.34398   
  1895. BD*(   1) C  25 - C  40          0.00980     0.47117   
  1896. BD*(   2) C  25 - C  40          0.19731    -0.05268  1928(v),1943(v),1926(v)
                                                    623(g),1016(g)
  1897. BD*(   1) C  25 - C  44          0.00999     0.46051   
  1898. BD*(   1) C  25 - H  67          0.00574     0.34056   
  1899. BD*(   1) C  26 - C  47          0.00977     0.43981   
  1900. BD*(   2) C  26 - C  47          0.20993    -0.06749  1960(v),1945(v),1943(v)
                                                    648(g),1197(g),1886(r)
  1901. BD*(   1) C  26 - C  51          0.00987     0.43977   
  1902. BD*(   1) C  26 - H  68          0.00572     0.34102   
  1903. BD*(   1) C  27 - C  28          0.01736     0.40037   
  1904. BD*(   1) C  27 - N  61          0.01312     0.41977   
  1905. BD*(   1) C  28 - C  29          0.01039     0.49188   
  1906. BD*(   2) C  28 - C  29          0.11898    -0.02721  1888(v),1892(v),1913(v)
                                                    1914(v),1911(v),1915(v)
  1907. BD*(   1) C  28 - C  32          0.01118     0.32387   
  1908. BD*(   1) C  29 - C  30          0.01697     0.39574   
  1909. BD*(   1) C  29 - C  31          0.00799     0.30733   
  1910. BD*(   1) C  30 - N  61          0.01353     0.39194   
  1911. BD*(   1) C  31 - H  72          0.00389     0.30871   
  1912. BD*(   1) C  31 - H  73          0.00251     0.31383   
  1913. BD*(   1) C  31 - H  74          0.00426     0.30548   
  1914. BD*(   1) C  32 - C  33          0.00668     0.27868   
  1915. BD*(   1) C  32 - H  75          0.00817     0.31431   
  1916. BD*(   1) C  32 - H  76          0.00614     0.32276   
  1917. BD*(   1) C  33 - C  34          0.04150     0.26945   
  1918. BD*(   1) C  33 - H  77          0.00628     0.30387   
  1919. BD*(   1) C  33 - H  78          0.00702     0.29861   
  1920. BD*(   1) C  34 - O  35          0.02180     0.47133   
  1921. BD*(   2) C  34 - O  35          0.08599    -0.06094   
  1922. BD*(   1) C  34 - O  36          0.03434     0.43058   
  1923. BD*(   1) O  36 - H  99          0.00666     0.30725   
  1924. BD*(   1) C  37 - C  38          0.01697     0.39473   
  1925. BD*(   1) C  37 - N  62          0.01374     0.38629   
  1926. BD*(   2) C  37 - N  62          0.32637    -0.09965  1892(v),1928(v),1896(v)
                                                    206(v),936(g),1585(g)
                                                    1960(r),1883(r),1869(r)
  1927. BD*(   1) C  38 - C  39          0.01084     0.49480   
  1928. BD*(   2) C  38 - C  39          0.13002    -0.02842  1937(v),1896(v),1926(v)
                                                    1935(v),1933(v)
  1929. BD*(   1) C  38 - C  41          0.00760     0.31142   
  1930. BD*(   1) C  39 - C  40          0.01668     0.40997   
  1931. BD*(   1) C  39 - C  42          0.01419     0.33376   
  1932. BD*(   1) C  40 - N  62          0.01316     0.41490   
  1933. BD*(   1) C  41 - H  79          0.00472     0.30858   
  1934. BD*(   1) C  41 - H  80          0.00358     0.32279   
  1935. BD*(   1) C  41 - H  81          0.00467     0.30717   
  1936. BD*(   1) C  42 - C  43          0.00250     0.51493   
  1937. BD*(   2) C  42 - C  43          0.02689    -0.02133   
  1938. BD*(   1) C  42 - H  69          0.00899     0.35603   
  1939. BD*(   1) C  43 - H  82          0.00409     0.35690   
  1940. BD*(   1) C  43 - H  83          0.00457     0.36031   
  1941. BD*(   1) C  44 - C  45          0.01719     0.39886   
  1942. BD*(   1) C  44 - N  63          0.01331     0.39444   
  1943. BD*(   2) C  44 - N  63          0.32541    -0.09967  1896(v),1900(v),1945(v)
                                                    206(v),1118(g),1611(g)
                                                    623(v),1869(r),1882(r)
  1944. BD*(   1) C  45 - C  46          0.01113     0.49069   
  1945. BD*(   2) C  45 - C  46          0.13368    -0.03280  1954(v),1900(v),1943(v)
                                                    1950(v)
  1946. BD*(   1) C  45 - C  48          0.00759     0.31509   
  1947. BD*(   1) C  46 - C  47          0.01595     0.39978   
  1948. BD*(   1) C  46 - C  49          0.01416     0.32881   
  1949. BD*(   1) C  47 - N  63          0.01380     0.39216   
  1950. BD*(   1) C  48 - H  84          0.00517     0.30018   
  1951. BD*(   1) C  48 - H  85          0.00369     0.31040   
  1952. BD*(   1) C  48 - H  86          0.00390     0.31086   
  1953. BD*(   1) C  49 - C  50          0.00254     0.50379   
  1954. BD*(   2) C  49 - C  50          0.02456    -0.03097   
  1955. BD*(   1) C  49 - H  70          0.00892     0.35358   
  1956. BD*(   1) C  50 - H  87          0.00475     0.35027   
  1957. BD*(   1) C  50 - H  88          0.00379     0.35695   
  1958. BD*(   1) C  51 - C  52          0.01710     0.39233   
  1959. BD*(   1) C  51 - N  64          0.01308     0.40810   
  1960. BD*(   2) C  51 - N  64          0.32234    -0.09796  1900(v),1962(v),197(v)
                                                    1300(g),1637(g),207(v)
                                                    1926(r),648(v),1883(r)
                                                    1869(r),1872(r)
  1961. BD*(   1) C  52 - C  53          0.01062     0.47821   
  1962. BD*(   2) C  52 - C  53          0.12317    -0.03441  1960(v),197(v),1972(v)
                                                    1967(v),1970(v),1968(v)
  1963. BD*(   1) C  52 - C  55          0.00804     0.30473   
  1964. BD*(   1) C  53 - C  54          0.01612     0.39008   
  1965. BD*(   1) C  53 - C  56          0.01144     0.30105   
  1966. BD*(   1) C  54 - N  64          0.01253     0.41708   
  1967. BD*(   1) C  55 - H  89          0.00487     0.29659   
  1968. BD*(   1) C  55 - H  90          0.00339     0.30431   
  1969. BD*(   1) C  55 - H  91          0.00339     0.31029   
  1970. BD*(   1) C  56 - C  57          0.00621     0.26337   
  1971. BD*(   1) C  56 - H  92          0.00624     0.29479   
  1972. BD*(   1) C  56 - H  93          0.00939     0.30291   
  1973. BD*(   1) C  57 - C  58          0.03900     0.26460   
  1974. BD*(   1) C  57 - H  94          0.00685     0.30799   
  1975. BD*(   1) C  57 - H  95          0.00765     0.28369   
  1976. BD*(   1) C  58 - O  59          0.03692     0.42399   
  1977. BD*(   1) C  58 - O  60          0.03389     0.41319   
  1978. BD*(   2) C  58 - O  60          0.08931    -0.00395   
  1979. BD*(   1) O  59 - H  98          0.00678     0.29670   
  1980. BD*(   1) N  61 -Fe  65          0.04537     0.24701   
  1981. BD*(   1) N  62 -Fe  65          0.04571     0.24160   
  1982. BD*(   1) N  63 -Fe  65          0.04734     0.23745   
  1983. BD*(   1) N  64 -Fe  65          0.04720     0.23022   
       -------------------------------
              Total Lewis  156.11660  ( 97.3273%)
        Valence non-Lewis    3.96676  (  2.4730%)
        Rydberg non-Lewis    0.32032  (  0.1997%)
       -------------------------------
            Total unit  3  160.40368  (100.0000%)
           Charge unit  3    0.59632
 1\1\GINC-NODE540\SP\UPBE1PBE\def2TZVP\C42H44Fe1N8O4(1+,2)\ZHARTOVSKA\0
 6-Feb-2023\0\\# PBE1PBE/def2TZVP empiricaldispersion=GD3BJ scf=maxcycl
 e=999 geom=check pop=nbo\\1aw3_III_D\\1,2\C,0,4.428,9.754,1.996\C,0,3.
 012,9.72,2.522\N,0,2.674,9.452,3.824\C,0,1.843,9.805,1.81\C,0,1.338,9.
 387,3.894\N,0,0.779,9.575,2.689\H,0,4.58961716,8.91469111,1.35230716\H
 ,0,5.11416854,9.71198695,2.81594368\H,0,3.321,9.286,4.585\H,0,1.751,9.
 989,0.755\H,0,0.806,9.184,4.805\C,0,-6.248,10.013,0.126\C,0,-5.16,9.69
 4,1.112\N,0,-5.297,8.979,2.278\C,0,-3.834,9.989,0.948\C,0,-4.062,8.858
 ,2.802\N,0,-3.129,9.446,2.021\H,0,-6.88794025,9.16286096,0.01357186\H,
 0,-5.81161942,10.25847869,-0.81962794\H,0,-6.156,8.576,2.649\H,0,-3.40
 8,10.531,0.12\H,0,-3.877,8.333,3.724\C,0,-1.333,12.913,2.873\C,0,-0.46
 6,10.195,-1.128\C,0,-1.143,6.149,1.56\C,0,-1.72,8.874,5.632\C,0,-1.123
 ,12.495,1.558\C,0,-1.063,13.397,0.434\C,0,-0.748,12.656,-0.682\C,0,-0.
 715,11.269,-0.274\C,0,-0.515,13.218,-2.067\C,0,-1.36,14.878,0.473\C,0,
 -2.786,15.185,0.941\C,0,-3.153,16.658001,0.83\O,0,-2.5,17.358999,0.027
 \O,0,-4.098,17.055,1.544\C,0,-0.534,8.873,-0.708\C,0,-0.314,7.74,-1.57
 7\C,0,-0.563,6.629,-0.812\C,0,-0.863,7.033,0.532\C,0,0.108,7.775,-3.02
 6\C,0,-0.44,5.191,-1.257\C,0,-0.981,4.782,-2.415\C,0,-1.347,6.551,2.87
 7\C,0,-1.673,5.652,3.954\C,0,-1.699,6.409,5.097\C,0,-1.571,7.799,4.746
 \C,0,-1.997,4.189,3.838\C,0,-2.042,5.893,6.476\C,0,-1.558,4.719,6.939\
 C,0,-1.672,10.215,5.225\C,0,-1.869,11.355,6.093\C,0,-1.72,12.494,5.327
 \C,0,-1.482,12.058,3.967\C,0,-2.221,11.305,7.561\C,0,-1.929,13.933,5.7
 73\C,0,-1.24,14.359,7.076\C,0,-1.561,15.812,7.393\O,0,-0.742,16.674,7.
 011\O,0,-2.63,16.031,8.002\N,0,-0.975,11.234,1.077\N,0,-0.821,8.393,0.
 554\N,0,-1.332,7.823,3.394\N,0,-1.461,10.7,3.968\Fe,0,-1.148,9.534,2.2
 57\H,0,-0.257,10.379,-2.168\H,0,-1.196,5.104,1.306\H,0,-1.899,8.65,6.6
 71\H,0,-0.18,4.44,-0.536\H,0,-2.635,6.508,7.131\H,0,-1.347,13.973,3.04
 4\H,0,0.244,13.998,-2.019\H,0,-0.176,12.464,-2.774\H,0,-1.442,13.654,-
 2.439\H,0,-0.665,15.381,1.137\H,0,-1.23,15.299,-0.524\H,0,-3.456,14.60
 8,0.324\H,0,-2.954,14.883,1.971\H,0,0.921,8.486,-3.162\H,0,0.467,6.797
 ,-3.34\H,0,-0.741,8.059,-3.645\H,0,-1.84,5.341,-2.723\H,0,-0.882,3.752
 ,-2.724\H,0,-1.096,3.595,3.995\H,0,-2.746,3.95,4.592\H,0,-2.42,3.965,2
 .862\H,0,-0.823,4.169,6.371\H,0,-1.719,4.449,7.972\H,0,-1.321,11.466,8
 .155\H,0,-2.959,12.076,7.784\H,0,-2.658,10.349,7.838\H,0,-1.535,14.623
 ,5.031\H,0,-3.002,14.12,5.836\H,0,-1.564,13.767,7.925\H,0,-0.163,14.25
 3,6.971\H,0,-6.81922222,10.84482526,0.48190999\H,0,4.58299214,10.65939
 995,1.44724835\H,0,0.20042932,16.50684755,7.08507452\H,0,-3.91740197,1
 7.5131862,2.36804476\\Version=ES64L-G16RevA.03\State=2-A\HF=-3627.5052
 531\S2=0.813315\S2-1=0.\S2A=0.751288\RMSD=1.706e-09\Dipole=1.2143586,-
 2.9874368,0.57074\Quadrupole=23.6471874,-17.3098601,-6.3373273,16.0572
 819,17.044902,3.3176738\PG=C01 [X(C42H44Fe1N8O4)]\\@


 WOMEN HOLD UP HALF THE SKY. -- MAO TSE TUNG
 Job cpu time:       4 days 18 hours 41 minutes 25.7 seconds.
 Elapsed time:       1 days  4 hours 45 minutes 16.3 seconds.
 File lengths (MBytes):  RWF=   3611 Int=      0 D2E=      0 Chk=    302 Scr=      1
 Normal termination of Gaussian 16 at Mon Feb  6 16:33:29 2023.
