 Entering Gaussian System, Link 0=g16
 Input=/net/homes/chemie/zhartovska/work/BioModel/Konrad/1flp/1flp05/1flp05.com
 Output=/net/homes/chemie/zhartovska/work/BioModel/Konrad/1flp/1flp05/1flp05.log
 Initial command:
 /afs/math/software/gaussian/g16.A03/g16/l1.exe "/scratch/zhartovska_gaussian.binsRI4/Gau-22970.inp" -scrdir="/scratch/zhartovska_gaussian.binsRI4/"
 Entering Link 1 = /afs/math/software/gaussian/g16.A03/g16/l1.exe PID=     22971.
  
 Copyright (c) 1988,1990,1992,1993,1995,1998,2003,2009,2016,
            Gaussian, Inc.  All Rights Reserved.
  
 This is part of the Gaussian(R) 16 program.  It is based on
 the Gaussian(R) 09 system (copyright 2009, Gaussian, Inc.),
 the Gaussian(R) 03 system (copyright 2003, Gaussian, Inc.),
 the Gaussian(R) 98 system (copyright 1998, Gaussian, Inc.),
 the Gaussian(R) 94 system (copyright 1995, Gaussian, Inc.),
 the Gaussian 92(TM) system (copyright 1992, Gaussian, Inc.),
 the Gaussian 90(TM) system (copyright 1990, Gaussian, Inc.),
 the Gaussian 88(TM) system (copyright 1988, Gaussian, Inc.),
 the Gaussian 86(TM) system (copyright 1986, Carnegie Mellon
 University), and the Gaussian 82(TM) system (copyright 1983,
 Carnegie Mellon University). Gaussian is a federally registered
 trademark of Gaussian, Inc.
  
 This software contains proprietary and confidential information,
 including trade secrets, belonging to Gaussian, Inc.
  
 This software is provided under written license and may be
 used, copied, transmitted, or stored only in accord with that
 written license.
  
 The following legend is applicable only to US Government
 contracts under FAR:
  
                    RESTRICTED RIGHTS LEGEND
  
 Use, reproduction and disclosure by the US Government is
 subject to restrictions as set forth in subparagraphs (a)
 and (c) of the Commercial Computer Software - Restricted
 Rights clause in FAR 52.227-19.
  
 Gaussian, Inc.
 340 Quinnipiac St., Bldg. 40, Wallingford CT 06492
  
  
 ---------------------------------------------------------------
 Warning -- This program may not be used in any manner that
 competes with the business of Gaussian, Inc. or will provide
 assistance to any competitor of Gaussian, Inc.  The licensee
 of this program is prohibited from giving any competitor of
 Gaussian, Inc. access to this program.  By using this program,
 the user acknowledges that Gaussian, Inc. is engaged in the
 business of creating and licensing software in the field of
 computational chemistry and represents and warrants to the
 licensee that it is not a competitor of Gaussian, Inc. and that
 it will not use this program in any manner prohibited above.
 ---------------------------------------------------------------
  

 Cite this work as:
 Gaussian 16, Revision A.03,
 M. J. Frisch, G. W. Trucks, H. B. Schlegel, G. E. Scuseria, 
 M. A. Robb, J. R. Cheeseman, G. Scalmani, V. Barone, 
 G. A. Petersson, H. Nakatsuji, X. Li, M. Caricato, A. V. Marenich, 
 J. Bloino, B. G. Janesko, R. Gomperts, B. Mennucci, H. P. Hratchian, 
 J. V. Ortiz, A. F. Izmaylov, J. L. Sonnenberg, D. Williams-Young, 
 F. Ding, F. Lipparini, F. Egidi, J. Goings, B. Peng, A. Petrone, 
 T. Henderson, D. Ranasinghe, V. G. Zakrzewski, J. Gao, N. Rega, 
 G. Zheng, W. Liang, M. Hada, M. Ehara, K. Toyota, R. Fukuda, 
 J. Hasegawa, M. Ishida, T. Nakajima, Y. Honda, O. Kitao, H. Nakai, 
 T. Vreven, K. Throssell, J. A. Montgomery, Jr., J. E. Peralta, 
 F. Ogliaro, M. J. Bearpark, J. J. Heyd, E. N. Brothers, K. N. Kudin, 
 V. N. Staroverov, T. A. Keith, R. Kobayashi, J. Normand, 
 K. Raghavachari, A. P. Rendell, J. C. Burant, S. S. Iyengar, 
 J. Tomasi, M. Cossi, J. M. Millam, M. Klene, C. Adamo, R. Cammi, 
 J. W. Ochterski, R. L. Martin, K. Morokuma, O. Farkas, 
 J. B. Foresman, and D. J. Fox, Gaussian, Inc., Wallingford CT, 2016.
 
 ******************************************
 Gaussian 16:  ES64L-G16RevA.03 25-Dec-2016
                29-Sep-2022 
 ******************************************
 %nprocs=12
 Will use up to   12 processors via shared memory.
 %mem=16GB
 %oldchk=1flp_II_S.chk
 %chk=1flp_II_Q.chk
 Copying data from "1flp_II_S.chk" to current chk file "1flp_II_Q.chk"
 IOpt=  2 FromEx=T IUOpen= 4 IOptOp= 5 NList=   0 IFRang= 0 IUIn= 4 IUOut= 2.
 ----------------------------------------------------------------------
 # PBE1PBE/def2TZVP empiricaldispersion=GD3BJ int=(grid=ultrafine) geom
 =check pop=nbo
 ----------------------------------------------------------------------
 1/29=2,38=1,172=1/1;
 2/12=2,40=1/2;
 3/5=44,7=101,11=2,14=-4,25=1,30=1,74=-13,75=-5,124=41/1,2,3;
 4//1;
 5/5=2,38=5/2;
 6/7=2,8=2,9=2,10=2,28=1,40=1/1,7;
 99/5=1,9=1/99;
 ---------
 1flp_II_Q
 ---------
 Structure from the checkpoint file:  "1flp_II_Q.chk"
 Charge =  0 Multiplicity = 5
 Z-Matrix found in chk file.
 C,0,1.855,1.103,19.240999
 C,0,2.991,1.833,18.511
 N,0,4.255,2.041,19.082001
 C,0,2.925,2.479,17.308001
 C,0,4.985,2.723,18.195
 N,0,4.18,3.017,17.136
 Fe,0,4.822,4.251,15.293
 C,0,5.474,6.932,17.278
 C,0,8.116,3.228,15.537
 C,0,4.14,1.437,13.497
 C,0,1.664,5.303,14.788
 N,0,6.373,4.842,16.259001
 C,0,6.512,6.009,17.037001
 C,0,7.835,6.061,17.683001
 C,0,8.575,5.051,17.173
 C,0,7.663,4.299,16.323
 C,0,10.043,4.728,17.514
 C,0,8.251,7.045,18.788
 C,0,8.136,6.433,20.212999
 C,0,6.73,6.452,20.652
 O,0,6.199,7.559,20.885
 O,0,6.081,5.431,20.542999
 N,0,5.963,2.657,14.516
 C,0,7.302,2.468,14.716
 C,0,7.7,1.232,14.055
 C,0,6.58,0.688,13.53
 C,0,5.456,1.576,13.874
 C,0,9.209,0.834,14.054
 C,0,6.244,-0.593,12.799
 C,0,7.076,-1.634,12.51
 N,0,3.336,3.613,14.298
 C,0,3.125,2.374,13.672
 C,0,1.777,2.16,13.11
 C,0,1.108,3.283,13.455
 C,0,2.042,4.087,14.214
 C,0,1.335,1.01,12.233
 C,0,-0.344,3.747,13.175
 C,0,-1.31282067,2.8313389,12.93103628
 N,0,3.804,5.821,15.858
 C,0,2.479,6.085,15.559
 C,0,2.065,7.359,16.128
 C,0,3.103,7.806,16.854
 C,0,4.228,6.869,16.673
 C,0,0.692,8.021,15.841
 C,0,3.184,9.206,17.483999
 C,0,3.407,10.303,16.416
 C,0,3.506,11.672,17.031
 O,0,4.595,12.015,17.506001
 O,0,2.468,12.316,17.226999
 O,0,5.495,5.394,13.439
 H,0,2.17861909,0.83286919,20.22446228
 H,0,1.00347556,1.7472287,19.31010403
 H,0,1.59104733,0.22004968,18.69728242
 H,0,4.55442559,1.73536294,19.98584297
 H,0,6.01600364,2.99013895,18.29780208
 H,0,2.0857576,2.55034434,16.64809026
 H,0,6.5273177,4.58586112,20.45277277
 H,0,8.72914317,7.005818,20.89487928
 H,0,8.48949828,5.42322521,20.19585707
 H,0,9.26531927,7.34203084,18.62117941
 H,0,7.62419648,7.91043403,18.73285222
 H,0,3.99551909,9.22809574,18.18102737
 H,0,2.2712407,9.40712235,18.00488311
 H,0,4.31236323,10.09343767,15.88562178
 H,0,2.5885155,10.28938181,15.72694437
 H,0,5.41161003,11.71951972,17.09680733
 H,0,0.78269163,8.6821484,15.00460427
 H,0,-0.03014099,7.26304304,15.61983574
 H,0,0.37627532,8.57449409,16.70057095
 H,0,5.65861365,7.72818761,17.9685817
 H,0,10.648935,5.59167875,17.3356694
 H,0,10.11647011,4.44723524,18.54388994
 H,0,10.38270255,3.92085456,16.89916798
 H,0,9.15705465,2.98376951,15.57516663
 H,0,0.6661989,5.64698074,14.61201644
 H,0,9.77668028,1.58653189,14.56029521
 H,0,9.33106532,-0.10298755,14.55605019
 H,0,9.5538728,0.74557419,13.04496897
 H,0,7.40195976,-1.79489651,11.50363896
 H,0,7.40289654,-2.28995872,13.28958759
 H,0,5.23127752,-0.69450999,12.46886534
 H,0,2.06625877,0.22986669,12.27240342
 H,0,0.3952526,0.63594848,12.58208492
 H,0,1.23075569,1.35051315,11.22399856
 H,0,3.86965028,0.51712783,13.02197767
 H,0,-0.58151903,4.79030448,13.17431145
 H,0,-1.09720009,1.78722159,13.02173802
 H,0,-2.29337467,3.15249472,12.64771176
 Recover connectivity data from disk.
 Stoichiometry    C38H38FeN6O5(5)
 Framework group  C1[X(C38H38FeN6O5)]
 Deg. of freedom   258
 Full point group                 C1      NOp   1
 Largest Abelian subgroup         C1      NOp   1
 Largest concise Abelian subgroup C1      NOp   1
                         Standard orientation:                         
 ---------------------------------------------------------------------
 Center     Atomic      Atomic             Coordinates (Angstroms)
 Number     Number       Type             X           Y           Z
 ---------------------------------------------------------------------
      1          6           0       -1.659744    0.771539    5.227612
      2          6           0       -1.352433    0.133387    3.865769
      3          7           0       -0.899663   -1.186716    3.726733
      4          6           0       -1.342376    0.747241    2.644311
      5          6           0       -0.708827   -1.406708    2.422900
      6          7           0       -0.944352   -0.235918    1.767369
      7         26           0       -0.711417    0.071772   -0.509172
      8          6           0        2.587232   -0.723228   -0.309231
      9          6           0       -1.496157   -3.221771   -1.211492
     10          6           0       -4.039593    0.801228   -0.487433
     11          6           0       -0.022526    3.339890   -0.085464
     12          7           0        0.264941   -1.578979   -0.608089
     13          6           0        1.660379   -1.761876   -0.531961
     14          6           0        2.010266   -3.192485   -0.567822
     15          6           0        0.880399   -3.879069   -0.850318
     16          6           0       -0.183031   -2.884655   -0.848041
     17          6           0        0.756584   -5.404615   -1.032018
     18          6           0        3.396915   -3.780472   -0.261539
     19          6           0        3.520151   -4.301800    1.198400
     20          6           0        3.739072   -3.169927    2.115382
     21          8           0        4.825911   -2.556813    2.047777
     22          8           0        2.783894   -2.732304    2.725009
     23          7           0       -2.481632   -0.997212   -0.921551
     24          6           0       -2.552947   -2.328843   -1.222075
     25          6           0       -3.953809   -2.691857   -1.391859
     26          6           0       -4.682041   -1.583908   -1.130921
     27          6           0       -3.738259   -0.510163   -0.775106
     28          6           0       -4.303431   -4.146835   -1.834905
     29          6           0       -6.156764   -1.259471   -1.040633
     30          6           0       -7.210775   -2.115128   -1.168446
     31          7           0       -1.742752    1.664517   -0.440051
     32          6           0       -3.131103    1.845130   -0.333377
     33          6           0       -3.585141    3.237657   -0.150454
     34          6           0       -2.432164    3.939907   -0.078328
     35          6           0       -1.365150    2.967850   -0.185278
     36          6           0       -5.012306    3.736200   -0.191080
     37          6           0       -2.155144    5.455886    0.086197
     38          6           0       -3.080720    6.254239    0.671440
     39          7           0        0.938904    1.099581   -0.307930
     40          6           0        1.030399    2.468129   -0.125100
     41          6           0        2.421924    2.885926   -0.039432
     42          6           0        3.157970    1.762538   -0.063232
     43          6           0        2.246890    0.620226   -0.266732
     44          6           0        2.870962    4.369940    0.003102
     45          6           0        4.690344    1.730030   -0.182524
     46          6           0        5.162848    2.117383   -1.603952
     47          6           0        6.660840    2.067875   -1.729474
     48          8           0        7.187900    0.967831   -1.932710
     49          8           0        7.319921    3.069429   -1.424354
     50          8           0       -0.564045    0.337710   -2.768431
     51          1           0       -1.439264    0.072379    6.007011
     52          1           0       -1.059303    1.648065    5.354394
     53          1           0       -2.694879    1.039005    5.270715
     54          1           0       -0.747779   -1.842046    4.466648
     55          1           0       -0.422613   -2.335048    1.974386
     56          1           0       -1.588729    1.764114    2.420303
     57          1           0        1.995118   -3.269156    2.830942
     58          1           0        4.346053   -4.978750    1.265669
     59          1           0        2.619670   -4.811335    1.471178
     60          1           0        3.583756   -4.591407   -0.934127
     61          1           0        4.135480   -3.022753   -0.420549
     62          1           0        5.036609    0.743036    0.042963
     63          1           0        5.109496    2.416435    0.523210
     64          1           0        4.731788    1.439526   -2.310774
     65          1           0        4.827788    3.109508   -1.823775
     66          1           0        6.737210    0.311375   -2.468942
     67          1           0        3.065741    4.712294   -0.991762
     68          1           0        2.095984    4.964700    0.439646
     69          1           0        3.760931    4.456583    0.590764
     70          1           0        3.613987   -0.987246   -0.164425
     71          1           0        1.438483   -5.730074   -1.789639
     72          1           0        0.988839   -5.893737   -0.109133
     73          1           0       -0.243524   -5.649089   -1.323421
     74          1           0       -1.692390   -4.233671   -1.498637
     75          1           0        0.197726    4.380569    0.030190
     76          1           0       -3.400531   -4.703431   -1.975871
     77          1           0       -4.897764   -4.616662   -1.079306
     78          1           0       -4.851711   -4.117990   -2.753304
     79          1           0       -7.821947   -2.083766   -2.046163
     80          1           0       -7.426669   -2.817909   -0.391022
     81          1           0       -6.402495   -0.234939   -0.853950
     82          1           0       -5.682566    2.904887   -0.123467
     83          1           0       -5.182101    4.399077    0.631515
     84          1           0       -5.182026    4.257373   -1.110032
     85          1           0       -5.075352    1.042928   -0.370446
     86          1           0       -1.233102    5.872169   -0.262296
     87          1           0       -3.961531    5.825618    1.101971
     88          1           0       -2.930700    7.313200    0.702988
 ---------------------------------------------------------------------
 Rotational constants (GHZ):           0.0715338           0.0499899           0.0375477
 Standard basis: def2TZVP (5D, 7F)
 There are  2044 symmetry adapted cartesian basis functions of A   symmetry.
 There are  1792 symmetry adapted basis functions of A   symmetry.
  1792 basis functions,  2905 primitive gaussians,  2044 cartesian basis functions
   189 alpha electrons      185 beta electrons
       nuclear repulsion energy      7548.1841855258 Hartrees.
 NAtoms=   88 NActive=   88 NUniq=   88 SFac= 1.00D+00 NAtFMM=   60 NAOKFM=T Big=T
 Integral buffers will be    131072 words long.
 Raffenetti 2 integral format.
 Two-electron integral symmetry is turned on.
 Nuclear repulsion after empirical dispersion term =     7548.0566854000 Hartrees.
 One-electron integrals computed using PRISM.
   1 Symmetry operations used in ECPInt.
 ECPInt:  NShTT=  249571 NPrTT=  775641 LenC2=  182731 LenP2D=  367299.
 LDataN:  DoStor=T MaxTD1= 6 Len=  172
 NBasis=  1792 RedAO= T EigKep=  4.28D-06  NBF=  1792
 NBsUse=  1792 1.00D-06 EigRej= -1.00D+00 NBFU=  1792
 ExpMin= 4.20D-02 ExpMax= 3.01D+05 ExpMxC= 2.91D+03 IAcc=3 IRadAn=         5 AccDes= 0.00D+00
 Harris functional with IExCor= 1009 and IRadAn=       5 diagonalized for initial guess.
 HarFok:  IExCor= 1009 AccDes= 0.00D+00 IRadAn=         5 IDoV= 1 UseB2=F ITyADJ=14
 ICtDFT=  3500011 ScaDFX=  1.000000  1.000000  1.000000  1.000000
 FoFCou: FMM=F IPFlag=           0 FMFlag=      100000 FMFlg1=        2001
         NFxFlg=           0 DoJE=T BraDBF=F KetDBF=T FulRan=T
         wScrn=  0.000000 ICntrl=       500 IOpCl=  0 I1Cent=   200000004 NGrid=           0
         NMat0=    1 NMatS0=      1 NMatT0=    0 NMatD0=    1 NMtDS0=    0 NMtDT0=    0
 Petite list used in FoFCou.
 Initial guess <Sx>= 0.0000 <Sy>= 0.0000 <Sz>= 2.0000 <S**2>= 6.0000 S= 2.0000
 Requested convergence on RMS density matrix=1.00D-08 within 128 cycles.
 Requested convergence on MAX density matrix=1.00D-06.
 Requested convergence on             energy=1.00D-06.
 No special actions if energy rises.
 EnCoef did     8 forward-backward iterations
 EnCoef did   100 forward-backward iterations
 EnCoef did   100 forward-backward iterations
 EnCoef did   100 forward-backward iterations
 EnCoef did   100 forward-backward iterations
 EnCoef did    13 forward-backward iterations
 EnCoef did     3 forward-backward iterations
 EnCoef did     2 forward-backward iterations
 EnCoef did    50 forward-backward iterations
 EnCoef did   100 forward-backward iterations
 EnCoef did     6 forward-backward iterations
 Restarting incremental Fock formation.
 Rare condition: small coef for last iteration:  0.000D+00
 Rare condition: small coef for last iteration:  0.000D+00
 Restarting incremental Fock formation.
 Restarting incremental Fock formation.
 SCF Done:  E(UPBE1PBE) =  -3437.28025471     A.U. after   76 cycles
            NFock= 76  Conv=0.47D-08     -V/T= 2.0035
 <Sx>= 0.0000 <Sy>= 0.0000 <Sz>= 2.0000 <S**2>= 6.0646 S= 2.0129
 <L.S>= 0.000000000000E+00
 Annihilation of the first spin contaminant:
 S**2 before annihilation     6.0646,   after     6.0013

 **********************************************************************

            Population analysis using the SCF density.

 **********************************************************************

 Orbital symmetries:
 Alpha Orbitals:
       Occupied  (A) (A) (A) (A) (A) (A) (A) (A) (A) (A) (A) (A)
                 (A) (A) (A) (A) (A) (A) (A) (A) (A) (A) (A) (A)
                 (A) (A) (A) (A) (A) (A) (A) (A) (A) (A) (A) (A)
                 (A) (A) (A) (A) (A) (A) (A) (A) (A) (A) (A) (A)
                 (A) (A) (A) (A) (A) (A) (A) (A) (A) (A) (A) (A)
                 (A) (A) (A) (A) (A) (A) (A) (A) (A) (A) (A) (A)
                 (A) (A) (A) (A) (A) (A) (A) (A) (A) (A) (A) (A)
                 (A) (A) (A) (A) (A) (A) (A) (A) (A) (A) (A) (A)
                 (A) (A) (A) (A) (A) (A) (A) (A) (A) (A) (A) (A)
                 (A) (A) (A) (A) (A) (A) (A) (A) (A) (A) (A) (A)
                 (A) (A) (A) (A) (A) (A) (A) (A) (A) (A) (A) (A)
                 (A) (A) (A) (A) (A) (A) (A) (A) (A) (A) (A) (A)
                 (A) (A) (A) (A) (A) (A) (A) (A) (A) (A) (A) (A)
                 (A) (A) (A) (A) (A) (A) (A) (A) (A) (A) (A) (A)
                 (A) (A) (A) (A) (A) (A) (A) (A) (A) (A) (A) (A)
                 (A) (A) (A) (A) (A) (A) (A) (A) (A)
       Virtual   (A) (A) (A) (A) (A) (A) (A) (A) (A) (A) (A) (A)
                 (A) (A) (A) (A) (A) (A) (A) (A) (A) (A) (A) (A)
                 (A) (A) (A) (A) (A) (A) (A) (A) (A) (A) (A) (A)
                 (A) (A) (A) (A) (A) (A) (A) (A) (A) (A) (A) (A)
                 (A) (A) (A) (A) (A) (A) (A) (A) (A) (A) (A) (A)
                 (A) (A) (A) (A) (A) (A) (A) (A) (A) (A) (A) (A)
                 (A) (A) (A) (A) (A) (A) (A) (A) (A) (A) (A) (A)
                 (A) (A) (A) (A) (A) (A) (A) (A) (A) (A) (A) (A)
                 (A) (A) (A) (A) (A) (A) (A) (A) (A) (A) (A) (A)
                 (A) (A) (A) (A) (A) (A) (A) (A) (A) (A) (A) (A)
                 (A) (A) (A) (A) (A) (A) (A) (A) (A) (A) (A) (A)
                 (A) (A) (A) (A) (A) (A) (A) (A) (A) (A) (A) (A)
                 (A) (A) (A) (A) (A) (A) (A) (A) (A) (A) (A) (A)
                 (A) (A) (A) (A) (A) (A) (A) (A) (A) (A) (A) (A)
                 (A) (A) (A) (A) (A) (A) (A) (A) (A) (A) (A) (A)
                 (A) (A) (A) (A) (A) (A) (A) (A) (A) (A) (A) (A)
                 (A) (A) (A) (A) (A) (A) (A) (A) (A) (A) (A) (A)
                 (A) (A) (A) (A) (A) (A) (A) (A) (A) (A) (A) (A)
                 (A) (A) (A) (A) (A) (A) (A) (A) (A) (A) (A) (A)
                 (A) (A) (A) (A) (A) (A) (A) (A) (A) (A) (A) (A)
                 (A) (A) (A) (A) (A) (A) (A) (A) (A) (A) (A) (A)
                 (A) (A) (A) (A) (A) (A) (A) (A) (A) (A) (A) (A)
                 (A) (A) (A) (A) (A) (A) (A) (A) (A) (A) (A) (A)
                 (A) (A) (A) (A) (A) (A) (A) (A) (A) (A) (A) (A)
                 (A) (A) (A) (A) (A) (A) (A) (A) (A) (A) (A) (A)
                 (A) (A) (A) (A) (A) (A) (A) (A) (A) (A) (A) (A)
                 (A) (A) (A) (A) (A) (A) (A) (A) (A) (A) (A) (A)
                 (A) (A) (A) (A) (A) (A) (A) (A) (A) (A) (A) (A)
                 (A) (A) (A) (A) (A) (A) (A) (A) (A) (A) (A) (A)
                 (A) (A) (A) (A) (A) (A) (A) (A) (A) (A) (A) (A)
                 (A) (A) (A) (A) (A) (A) (A) (A) (A) (A) (A) (A)
                 (A) (A) (A) (A) (A) (A) (A) (A) (A) (A) (A) (A)
                 (A) (A) (A) (A) (A) (A) (A) (A) (A) (A) (A) (A)
                 (A) (A) (A) (A) (A) (A) (A) (A) (A) (A) (A) (A)
                 (A) (A) (A) (A) (A) (A) (A) (A) (A) (A) (A) (A)
                 (A) (A) (A) (A) (A) (A) (A) (A) (A) (A) (A) (A)
                 (A) (A) (A) (A) (A) (A) (A) (A) (A) (A) (A) (A)
                 (A) (A) (A) (A) (A) (A) (A) (A) (A) (A) (A) (A)
                 (A) (A) (A) (A) (A) (A) (A) (A) (A) (A) (A) (A)
                 (A) (A) (A) (A) (A) (A) (A) (A) (A) (A) (A) (A)
                 (A) (A) (A) (A) (A) (A) (A) (A) (A) (A) (A) (A)
                 (A) (A) (A) (A) (A) (A) (A) (A) (A) (A) (A) (A)
                 (A) (A) (A) (A) (A) (A) (A) (A) (A) (A) (A) (A)
                 (A) (A) (A) (A) (A) (A) (A) (A) (A) (A) (A) (A)
                 (A) (A) (A) (A) (A) (A) (A) (A) (A) (A) (A) (A)
                 (A) (A) (A) (A) (A) (A) (A) (A) (A) (A) (A) (A)
                 (A) (A) (A) (A) (A) (A) (A) (A) (A) (A) (A) (A)
                 (A) (A) (A) (A) (A) (A) (A) (A) (A) (A) (A) (A)
                 (A) (A) (A) (A) (A) (A) (A) (A) (A) (A) (A) (A)
                 (A) (A) (A) (A) (A) (A) (A) (A) (A) (A) (A) (A)
                 (A) (A) (A) (A) (A) (A) (A) (A) (A) (A) (A) (A)
                 (A) (A) (A) (A) (A) (A) (A) (A) (A) (A) (A) (A)
                 (A) (A) (A) (A) (A) (A) (A) (A) (A) (A) (A) (A)
                 (A) (A) (A) (A) (A) (A) (A) (A) (A) (A) (A) (A)
                 (A) (A) (A) (A) (A) (A) (A) (A) (A) (A) (A) (A)
                 (A) (A) (A) (A) (A) (A) (A) (A) (A) (A) (A) (A)
                 (A) (A) (A) (A) (A) (A) (A) (A) (A) (A) (A) (A)
                 (A) (A) (A) (A) (A) (A) (A) (A) (A) (A) (A) (A)
                 (A) (A) (A) (A) (A) (A) (A) (A) (A) (A) (A) (A)
                 (A) (A) (A) (A) (A) (A) (A) (A) (A) (A) (A) (A)
                 (A) (A) (A) (A) (A) (A) (A) (A) (A) (A) (A) (A)
                 (A) (A) (A) (A) (A) (A) (A) (A) (A) (A) (A) (A)
                 (A) (A) (A) (A) (A) (A) (A) (A) (A) (A) (A) (A)
                 (A) (A) (A) (A) (A) (A) (A) (A) (A) (A) (A) (A)
                 (A) (A) (A) (A) (A) (A) (A) (A) (A) (A) (A) (A)
                 (A) (A) (A) (A) (A) (A) (A) (A) (A) (A) (A) (A)
                 (A) (A) (A) (A) (A) (A) (A) (A) (A) (A) (A) (A)
                 (A) (A) (A) (A) (A) (A) (A) (A) (A) (A) (A) (A)
                 (A) (A) (A) (A) (A) (A) (A) (A) (A) (A) (A) (A)
                 (A) (A) (A) (A) (A) (A) (A) (A) (A) (A) (A) (A)
                 (A) (A) (A) (A) (A) (A) (A) (A) (A) (A) (A) (A)
                 (A) (A) (A) (A) (A) (A) (A) (A) (A) (A) (A) (A)
                 (A) (A) (A) (A) (A) (A) (A) (A) (A) (A) (A) (A)
                 (A) (A) (A) (A) (A) (A) (A) (A) (A) (A) (A) (A)
                 (A) (A) (A) (A) (A) (A) (A) (A) (A) (A) (A) (A)
                 (A) (A) (A) (A) (A) (A) (A) (A) (A) (A) (A) (A)
                 (A) (A) (A) (A) (A) (A) (A) (A) (A) (A) (A) (A)
                 (A) (A) (A) (A) (A) (A) (A) (A) (A) (A) (A) (A)
                 (A) (A) (A) (A) (A) (A) (A) (A) (A) (A) (A) (A)
                 (A) (A) (A) (A) (A) (A) (A) (A) (A) (A) (A) (A)
                 (A) (A) (A) (A) (A) (A) (A) (A) (A) (A) (A) (A)
                 (A) (A) (A) (A) (A) (A) (A) (A) (A) (A) (A) (A)
                 (A) (A) (A) (A) (A) (A) (A) (A) (A) (A) (A) (A)
                 (A) (A) (A) (A) (A) (A) (A) (A) (A) (A) (A) (A)
                 (A) (A) (A) (A) (A) (A) (A) (A) (A) (A) (A) (A)
                 (A) (A) (A) (A) (A) (A) (A) (A) (A) (A) (A) (A)
                 (A) (A) (A) (A) (A) (A) (A) (A) (A) (A) (A) (A)
                 (A) (A) (A) (A) (A) (A) (A) (A) (A) (A) (A) (A)
                 (A) (A) (A) (A) (A) (A) (A) (A) (A) (A) (A) (A)
                 (A) (A) (A) (A) (A) (A) (A) (A) (A) (A) (A) (A)
                 (A) (A) (A) (A) (A) (A) (A) (A) (A) (A) (A) (A)
                 (A) (A) (A) (A) (A) (A) (A) (A) (A) (A) (A) (A)
                 (A) (A) (A) (A) (A) (A) (A) (A) (A) (A) (A) (A)
                 (A) (A) (A) (A) (A) (A) (A) (A) (A) (A) (A) (A)
                 (A) (A) (A) (A) (A) (A) (A) (A) (A) (A) (A) (A)
                 (A) (A) (A) (A) (A) (A) (A) (A) (A) (A) (A) (A)
                 (A) (A) (A) (A) (A) (A) (A) (A) (A) (A) (A) (A)
                 (A) (A) (A) (A) (A) (A) (A) (A) (A) (A) (A) (A)
                 (A) (A) (A) (A) (A) (A) (A) (A) (A) (A) (A) (A)
                 (A) (A) (A) (A) (A) (A) (A) (A) (A) (A) (A) (A)
                 (A) (A) (A) (A) (A) (A) (A) (A) (A) (A) (A) (A)
                 (A) (A) (A) (A) (A) (A) (A) (A) (A) (A) (A) (A)
                 (A) (A) (A) (A) (A) (A) (A) (A) (A) (A) (A) (A)
                 (A) (A) (A) (A) (A) (A) (A) (A) (A) (A) (A) (A)
                 (A) (A) (A) (A) (A) (A) (A) (A) (A) (A) (A) (A)
                 (A) (A) (A) (A) (A) (A) (A) (A) (A) (A) (A) (A)
                 (A) (A) (A) (A) (A) (A) (A) (A) (A) (A) (A) (A)
                 (A) (A) (A) (A) (A) (A) (A) (A) (A) (A) (A) (A)
                 (A) (A) (A) (A) (A) (A) (A) (A) (A) (A) (A) (A)
                 (A) (A) (A) (A) (A) (A) (A) (A) (A) (A) (A) (A)
                 (A) (A) (A) (A) (A) (A) (A) (A) (A) (A) (A) (A)
                 (A) (A) (A) (A) (A) (A) (A) (A) (A) (A) (A) (A)
                 (A) (A) (A) (A) (A) (A) (A) (A) (A) (A) (A) (A)
                 (A) (A) (A) (A) (A) (A) (A) (A) (A) (A) (A) (A)
                 (A) (A) (A) (A) (A) (A) (A) (A) (A) (A) (A) (A)
                 (A) (A) (A) (A) (A) (A) (A) (A) (A) (A) (A) (A)
                 (A) (A) (A) (A) (A) (A) (A) (A) (A) (A) (A) (A)
                 (A) (A) (A) (A) (A) (A) (A) (A) (A) (A) (A) (A)
                 (A) (A) (A) (A) (A) (A) (A) (A) (A) (A) (A) (A)
                 (A) (A) (A) (A) (A) (A) (A) (A) (A) (A) (A) (A)
                 (A) (A) (A) (A) (A) (A) (A) (A) (A) (A) (A) (A)
                 (A) (A) (A) (A) (A) (A) (A) (A) (A) (A) (A) (A)
                 (A) (A) (A) (A) (A) (A) (A) (A) (A) (A) (A) (A)
                 (A) (A) (A) (A) (A) (A) (A) (A) (A) (A) (A) (A)
                 (A) (A) (A) (A) (A) (A) (A) (A) (A) (A) (A) (A)
                 (A) (A) (A) (A) (A) (A) (A) (A) (A) (A) (A) (A)
                 (A) (A) (A) (A) (A) (A) (A) (A) (A) (A) (A) (A)
                 (A) (A) (A) (A) (A) (A) (A) (A) (A) (A) (A) (A)
                 (A) (A) (A) (A) (A) (A) (A) (A) (A) (A) (A) (A)
                 (A) (A) (A) (A) (A) (A) (A) (A) (A) (A) (A) (A)
                 (A) (A) (A) (A) (A) (A) (A) (A) (A) (A) (A) (A)
                 (A) (A) (A) (A) (A) (A) (A) (A) (A) (A) (A) (A)
                 (A) (A) (A) (A) (A) (A) (A) (A) (A) (A) (A) (A)
                 (A) (A) (A) (A) (A) (A) (A)
 Beta  Orbitals:
       Occupied  (A) (A) (A) (A) (A) (A) (A) (A) (A) (A) (A) (A)
                 (A) (A) (A) (A) (A) (A) (A) (A) (A) (A) (A) (A)
                 (A) (A) (A) (A) (A) (A) (A) (A) (A) (A) (A) (A)
                 (A) (A) (A) (A) (A) (A) (A) (A) (A) (A) (A) (A)
                 (A) (A) (A) (A) (A) (A) (A) (A) (A) (A) (A) (A)
                 (A) (A) (A) (A) (A) (A) (A) (A) (A) (A) (A) (A)
                 (A) (A) (A) (A) (A) (A) (A) (A) (A) (A) (A) (A)
                 (A) (A) (A) (A) (A) (A) (A) (A) (A) (A) (A) (A)
                 (A) (A) (A) (A) (A) (A) (A) (A) (A) (A) (A) (A)
                 (A) (A) (A) (A) (A) (A) (A) (A) (A) (A) (A) (A)
                 (A) (A) (A) (A) (A) (A) (A) (A) (A) (A) (A) (A)
                 (A) (A) (A) (A) (A) (A) (A) (A) (A) (A) (A) (A)
                 (A) (A) (A) (A) (A) (A) (A) (A) (A) (A) (A) (A)
                 (A) (A) (A) (A) (A) (A) (A) (A) (A) (A) (A) (A)
                 (A) (A) (A) (A) (A) (A) (A) (A) (A) (A) (A) (A)
                 (A) (A) (A) (A) (A)
       Virtual   (A) (A) (A) (A) (A) (A) (A) (A) (A) (A) (A) (A)
                 (A) (A) (A) (A) (A) (A) (A) (A) (A) (A) (A) (A)
                 (A) (A) (A) (A) (A) (A) (A) (A) (A) (A) (A) (A)
                 (A) (A) (A) (A) (A) (A) (A) (A) (A) (A) (A) (A)
                 (A) (A) (A) (A) (A) (A) (A) (A) (A) (A) (A) (A)
                 (A) (A) (A) (A) (A) (A) (A) (A) (A) (A) (A) (A)
                 (A) (A) (A) (A) (A) (A) (A) (A) (A) (A) (A) (A)
                 (A) (A) (A) (A) (A) (A) (A) (A) (A) (A) (A) (A)
                 (A) (A) (A) (A) (A) (A) (A) (A) (A) (A) (A) (A)
                 (A) (A) (A) (A) (A) (A) (A) (A) (A) (A) (A) (A)
                 (A) (A) (A) (A) (A) (A) (A) (A) (A) (A) (A) (A)
                 (A) (A) (A) (A) (A) (A) (A) (A) (A) (A) (A) (A)
                 (A) (A) (A) (A) (A) (A) (A) (A) (A) (A) (A) (A)
                 (A) (A) (A) (A) (A) (A) (A) (A) (A) (A) (A) (A)
                 (A) (A) (A) (A) (A) (A) (A) (A) (A) (A) (A) (A)
                 (A) (A) (A) (A) (A) (A) (A) (A) (A) (A) (A) (A)
                 (A) (A) (A) (A) (A) (A) (A) (A) (A) (A) (A) (A)
                 (A) (A) (A) (A) (A) (A) (A) (A) (A) (A) (A) (A)
                 (A) (A) (A) (A) (A) (A) (A) (A) (A) (A) (A) (A)
                 (A) (A) (A) (A) (A) (A) (A) (A) (A) (A) (A) (A)
                 (A) (A) (A) (A) (A) (A) (A) (A) (A) (A) (A) (A)
                 (A) (A) (A) (A) (A) (A) (A) (A) (A) (A) (A) (A)
                 (A) (A) (A) (A) (A) (A) (A) (A) (A) (A) (A) (A)
                 (A) (A) (A) (A) (A) (A) (A) (A) (A) (A) (A) (A)
                 (A) (A) (A) (A) (A) (A) (A) (A) (A) (A) (A) (A)
                 (A) (A) (A) (A) (A) (A) (A) (A) (A) (A) (A) (A)
                 (A) (A) (A) (A) (A) (A) (A) (A) (A) (A) (A) (A)
                 (A) (A) (A) (A) (A) (A) (A) (A) (A) (A) (A) (A)
                 (A) (A) (A) (A) (A) (A) (A) (A) (A) (A) (A) (A)
                 (A) (A) (A) (A) (A) (A) (A) (A) (A) (A) (A) (A)
                 (A) (A) (A) (A) (A) (A) (A) (A) (A) (A) (A) (A)
                 (A) (A) (A) (A) (A) (A) (A) (A) (A) (A) (A) (A)
                 (A) (A) (A) (A) (A) (A) (A) (A) (A) (A) (A) (A)
                 (A) (A) (A) (A) (A) (A) (A) (A) (A) (A) (A) (A)
                 (A) (A) (A) (A) (A) (A) (A) (A) (A) (A) (A) (A)
                 (A) (A) (A) (A) (A) (A) (A) (A) (A) (A) (A) (A)
                 (A) (A) (A) (A) (A) (A) (A) (A) (A) (A) (A) (A)
                 (A) (A) (A) (A) (A) (A) (A) (A) (A) (A) (A) (A)
                 (A) (A) (A) (A) (A) (A) (A) (A) (A) (A) (A) (A)
                 (A) (A) (A) (A) (A) (A) (A) (A) (A) (A) (A) (A)
                 (A) (A) (A) (A) (A) (A) (A) (A) (A) (A) (A) (A)
                 (A) (A) (A) (A) (A) (A) (A) (A) (A) (A) (A) (A)
                 (A) (A) (A) (A) (A) (A) (A) (A) (A) (A) (A) (A)
                 (A) (A) (A) (A) (A) (A) (A) (A) (A) (A) (A) (A)
                 (A) (A) (A) (A) (A) (A) (A) (A) (A) (A) (A) (A)
                 (A) (A) (A) (A) (A) (A) (A) (A) (A) (A) (A) (A)
                 (A) (A) (A) (A) (A) (A) (A) (A) (A) (A) (A) (A)
                 (A) (A) (A) (A) (A) (A) (A) (A) (A) (A) (A) (A)
                 (A) (A) (A) (A) (A) (A) (A) (A) (A) (A) (A) (A)
                 (A) (A) (A) (A) (A) (A) (A) (A) (A) (A) (A) (A)
                 (A) (A) (A) (A) (A) (A) (A) (A) (A) (A) (A) (A)
                 (A) (A) (A) (A) (A) (A) (A) (A) (A) (A) (A) (A)
                 (A) (A) (A) (A) (A) (A) (A) (A) (A) (A) (A) (A)
                 (A) (A) (A) (A) (A) (A) (A) (A) (A) (A) (A) (A)
                 (A) (A) (A) (A) (A) (A) (A) (A) (A) (A) (A) (A)
                 (A) (A) (A) (A) (A) (A) (A) (A) (A) (A) (A) (A)
                 (A) (A) (A) (A) (A) (A) (A) (A) (A) (A) (A) (A)
                 (A) (A) (A) (A) (A) (A) (A) (A) (A) (A) (A) (A)
                 (A) (A) (A) (A) (A) (A) (A) (A) (A) (A) (A) (A)
                 (A) (A) (A) (A) (A) (A) (A) (A) (A) (A) (A) (A)
                 (A) (A) (A) (A) (A) (A) (A) (A) (A) (A) (A) (A)
                 (A) (A) (A) (A) (A) (A) (A) (A) (A) (A) (A) (A)
                 (A) (A) (A) (A) (A) (A) (A) (A) (A) (A) (A) (A)
                 (A) (A) (A) (A) (A) (A) (A) (A) (A) (A) (A) (A)
                 (A) (A) (A) (A) (A) (A) (A) (A) (A) (A) (A) (A)
                 (A) (A) (A) (A) (A) (A) (A) (A) (A) (A) (A) (A)
                 (A) (A) (A) (A) (A) (A) (A) (A) (A) (A) (A) (A)
                 (A) (A) (A) (A) (A) (A) (A) (A) (A) (A) (A) (A)
                 (A) (A) (A) (A) (A) (A) (A) (A) (A) (A) (A) (A)
                 (A) (A) (A) (A) (A) (A) (A) (A) (A) (A) (A) (A)
                 (A) (A) (A) (A) (A) (A) (A) (A) (A) (A) (A) (A)
                 (A) (A) (A) (A) (A) (A) (A) (A) (A) (A) (A) (A)
                 (A) (A) (A) (A) (A) (A) (A) (A) (A) (A) (A) (A)
                 (A) (A) (A) (A) (A) (A) (A) (A) (A) (A) (A) (A)
                 (A) (A) (A) (A) (A) (A) (A) (A) (A) (A) (A) (A)
                 (A) (A) (A) (A) (A) (A) (A) (A) (A) (A) (A) (A)
                 (A) (A) (A) (A) (A) (A) (A) (A) (A) (A) (A) (A)
                 (A) (A) (A) (A) (A) (A) (A) (A) (A) (A) (A) (A)
                 (A) (A) (A) (A) (A) (A) (A) (A) (A) (A) (A) (A)
                 (A) (A) (A) (A) (A) (A) (A) (A) (A) (A) (A) (A)
                 (A) (A) (A) (A) (A) (A) (A) (A) (A) (A) (A) (A)
                 (A) (A) (A) (A) (A) (A) (A) (A) (A) (A) (A) (A)
                 (A) (A) (A) (A) (A) (A) (A) (A) (A) (A) (A) (A)
                 (A) (A) (A) (A) (A) (A) (A) (A) (A) (A) (A) (A)
                 (A) (A) (A) (A) (A) (A) (A) (A) (A) (A) (A) (A)
                 (A) (A) (A) (A) (A) (A) (A) (A) (A) (A) (A) (A)
                 (A) (A) (A) (A) (A) (A) (A) (A) (A) (A) (A) (A)
                 (A) (A) (A) (A) (A) (A) (A) (A) (A) (A) (A) (A)
                 (A) (A) (A) (A) (A) (A) (A) (A) (A) (A) (A) (A)
                 (A) (A) (A) (A) (A) (A) (A) (A) (A) (A) (A) (A)
                 (A) (A) (A) (A) (A) (A) (A) (A) (A) (A) (A) (A)
                 (A) (A) (A) (A) (A) (A) (A) (A) (A) (A) (A) (A)
                 (A) (A) (A) (A) (A) (A) (A) (A) (A) (A) (A) (A)
                 (A) (A) (A) (A) (A) (A) (A) (A) (A) (A) (A) (A)
                 (A) (A) (A) (A) (A) (A) (A) (A) (A) (A) (A) (A)
                 (A) (A) (A) (A) (A) (A) (A) (A) (A) (A) (A) (A)
                 (A) (A) (A) (A) (A) (A) (A) (A) (A) (A) (A) (A)
                 (A) (A) (A) (A) (A) (A) (A) (A) (A) (A) (A) (A)
                 (A) (A) (A) (A) (A) (A) (A) (A) (A) (A) (A) (A)
                 (A) (A) (A) (A) (A) (A) (A) (A) (A) (A) (A) (A)
                 (A) (A) (A) (A) (A) (A) (A) (A) (A) (A) (A) (A)
                 (A) (A) (A) (A) (A) (A) (A) (A) (A) (A) (A) (A)
                 (A) (A) (A) (A) (A) (A) (A) (A) (A) (A) (A) (A)
                 (A) (A) (A) (A) (A) (A) (A) (A) (A) (A) (A) (A)
                 (A) (A) (A) (A) (A) (A) (A) (A) (A) (A) (A) (A)
                 (A) (A) (A) (A) (A) (A) (A) (A) (A) (A) (A) (A)
                 (A) (A) (A) (A) (A) (A) (A) (A) (A) (A) (A) (A)
                 (A) (A) (A) (A) (A) (A) (A) (A) (A) (A) (A) (A)
                 (A) (A) (A) (A) (A) (A) (A) (A) (A) (A) (A) (A)
                 (A) (A) (A) (A) (A) (A) (A) (A) (A) (A) (A) (A)
                 (A) (A) (A) (A) (A) (A) (A) (A) (A) (A) (A) (A)
                 (A) (A) (A) (A) (A) (A) (A) (A) (A) (A) (A) (A)
                 (A) (A) (A) (A) (A) (A) (A) (A) (A) (A) (A) (A)
                 (A) (A) (A) (A) (A) (A) (A) (A) (A) (A) (A) (A)
                 (A) (A) (A) (A) (A) (A) (A) (A) (A) (A) (A) (A)
                 (A) (A) (A) (A) (A) (A) (A) (A) (A) (A) (A) (A)
                 (A) (A) (A) (A) (A) (A) (A) (A) (A) (A) (A) (A)
                 (A) (A) (A) (A) (A) (A) (A) (A) (A) (A) (A) (A)
                 (A) (A) (A) (A) (A) (A) (A) (A) (A) (A) (A) (A)
                 (A) (A) (A) (A) (A) (A) (A) (A) (A) (A) (A) (A)
                 (A) (A) (A) (A) (A) (A) (A) (A) (A) (A) (A) (A)
                 (A) (A) (A) (A) (A) (A) (A) (A) (A) (A) (A) (A)
                 (A) (A) (A) (A) (A) (A) (A) (A) (A) (A) (A) (A)
                 (A) (A) (A) (A) (A) (A) (A) (A) (A) (A) (A) (A)
                 (A) (A) (A) (A) (A) (A) (A) (A) (A) (A) (A) (A)
                 (A) (A) (A) (A) (A) (A) (A) (A) (A) (A) (A) (A)
                 (A) (A) (A) (A) (A) (A) (A) (A) (A) (A) (A) (A)
                 (A) (A) (A) (A) (A) (A) (A) (A) (A) (A) (A) (A)
                 (A) (A) (A) (A) (A) (A) (A) (A) (A) (A) (A) (A)
                 (A) (A) (A) (A) (A) (A) (A) (A) (A) (A) (A) (A)
                 (A) (A) (A) (A) (A) (A) (A) (A) (A) (A) (A) (A)
                 (A) (A) (A) (A) (A) (A) (A) (A) (A) (A) (A) (A)
                 (A) (A) (A) (A) (A) (A) (A) (A) (A) (A) (A) (A)
                 (A) (A) (A) (A) (A) (A) (A) (A) (A) (A) (A)
 The electronic state is 5-A.
 Alpha  occ. eigenvalues -- -256.39822 -30.20288 -26.03495 -26.01707 -26.01666
 Alpha  occ. eigenvalues --  -19.28828 -19.26438 -19.17636 -19.16579 -19.13980
 Alpha  occ. eigenvalues --  -14.47356 -14.40354 -14.39939 -14.39887 -14.39096
 Alpha  occ. eigenvalues --  -14.38583 -10.35432 -10.33994 -10.30707 -10.28546
 Alpha  occ. eigenvalues --  -10.27106 -10.26895 -10.26855 -10.26569 -10.26329
 Alpha  occ. eigenvalues --  -10.25854 -10.25790 -10.25790 -10.25765 -10.25061
 Alpha  occ. eigenvalues --  -10.24869 -10.24667 -10.24666 -10.24449 -10.24404
 Alpha  occ. eigenvalues --  -10.24333 -10.24333 -10.24154 -10.24070 -10.23979
 Alpha  occ. eigenvalues --  -10.23551 -10.23470 -10.23384 -10.23362 -10.23235
 Alpha  occ. eigenvalues --  -10.23148 -10.22833 -10.22724 -10.22643 -10.22567
 Alpha  occ. eigenvalues --  -10.22269 -10.22140 -10.22009 -10.21469  -3.59341
 Alpha  occ. eigenvalues --   -2.38359  -2.33693  -2.33428  -1.20514  -1.17437
 Alpha  occ. eigenvalues --   -1.07184  -1.03355  -1.02412  -0.99250  -0.98233
 Alpha  occ. eigenvalues --   -0.97839  -0.96855  -0.91968  -0.85422  -0.85215
 Alpha  occ. eigenvalues --   -0.84500  -0.84227  -0.83819  -0.82511  -0.82366
 Alpha  occ. eigenvalues --   -0.82113  -0.81853  -0.80557  -0.79192  -0.78493
 Alpha  occ. eigenvalues --   -0.77531  -0.76426  -0.75046  -0.74069  -0.73705
 Alpha  occ. eigenvalues --   -0.73173  -0.72388  -0.71802  -0.70524  -0.69470
 Alpha  occ. eigenvalues --   -0.69156  -0.67454  -0.66689  -0.66410  -0.66087
 Alpha  occ. eigenvalues --   -0.63970  -0.62334  -0.61536  -0.60351  -0.58871
 Alpha  occ. eigenvalues --   -0.58026  -0.57220  -0.56185  -0.55551  -0.55357
 Alpha  occ. eigenvalues --   -0.55070  -0.53871  -0.53436  -0.52560  -0.52197
 Alpha  occ. eigenvalues --   -0.52093  -0.51360  -0.50715  -0.50056  -0.49919
 Alpha  occ. eigenvalues --   -0.49720  -0.49132  -0.48913  -0.48336  -0.48054
 Alpha  occ. eigenvalues --   -0.47288  -0.46869  -0.46766  -0.45811  -0.45712
 Alpha  occ. eigenvalues --   -0.45568  -0.45373  -0.45049  -0.44888  -0.44758
 Alpha  occ. eigenvalues --   -0.44486  -0.44383  -0.44327  -0.44077  -0.43842
 Alpha  occ. eigenvalues --   -0.43692  -0.43417  -0.43319  -0.43066  -0.42690
 Alpha  occ. eigenvalues --   -0.42646  -0.42243  -0.42120  -0.41775  -0.41496
 Alpha  occ. eigenvalues --   -0.40809  -0.40586  -0.40484  -0.40063  -0.39741
 Alpha  occ. eigenvalues --   -0.39444  -0.39263  -0.38929  -0.38805  -0.38677
 Alpha  occ. eigenvalues --   -0.38084  -0.37725  -0.37335  -0.36921  -0.36813
 Alpha  occ. eigenvalues --   -0.36739  -0.36210  -0.35942  -0.35402  -0.34871
 Alpha  occ. eigenvalues --   -0.34388  -0.33790  -0.32925  -0.32767  -0.32072
 Alpha  occ. eigenvalues --   -0.31805  -0.31662  -0.31349  -0.30126  -0.29382
 Alpha  occ. eigenvalues --   -0.29174  -0.28615  -0.28200  -0.27167  -0.26811
 Alpha  occ. eigenvalues --   -0.25957  -0.25718  -0.24738  -0.24678  -0.22813
 Alpha  occ. eigenvalues --   -0.21861  -0.20573  -0.20184  -0.18422
 Alpha virt. eigenvalues --   -0.09338  -0.08592  -0.06386  -0.05729  -0.02622
 Alpha virt. eigenvalues --   -0.02334  -0.00642  -0.00105   0.00207   0.01007
 Alpha virt. eigenvalues --    0.01768   0.02025   0.02560   0.03427   0.03587
 Alpha virt. eigenvalues --    0.04369   0.04844   0.04963   0.05592   0.05873
 Alpha virt. eigenvalues --    0.06416   0.06514   0.06924   0.07363   0.07508
 Alpha virt. eigenvalues --    0.07816   0.07895   0.08060   0.08562   0.08999
 Alpha virt. eigenvalues --    0.09168   0.09620   0.09938   0.10393   0.10519
 Alpha virt. eigenvalues --    0.10848   0.11183   0.11327   0.11433   0.11780
 Alpha virt. eigenvalues --    0.11979   0.12521   0.12673   0.12737   0.12827
 Alpha virt. eigenvalues --    0.12979   0.13290   0.13393   0.13724   0.13868
 Alpha virt. eigenvalues --    0.14255   0.14338   0.14529   0.14743   0.14920
 Alpha virt. eigenvalues --    0.15179   0.15484   0.15592   0.15852   0.16263
 Alpha virt. eigenvalues --    0.16432   0.16802   0.16902   0.17174   0.17589
 Alpha virt. eigenvalues --    0.17723   0.18066   0.18405   0.18474   0.18751
 Alpha virt. eigenvalues --    0.18845   0.19274   0.19586   0.19730   0.19873
 Alpha virt. eigenvalues --    0.20061   0.20254   0.20447   0.20787   0.21027
 Alpha virt. eigenvalues --    0.21186   0.21433   0.21623   0.21762   0.22014
 Alpha virt. eigenvalues --    0.22208   0.22413   0.22507   0.22777   0.22834
 Alpha virt. eigenvalues --    0.23327   0.23449   0.23642   0.23824   0.24045
 Alpha virt. eigenvalues --    0.24429   0.24614   0.24635   0.24800   0.25107
 Alpha virt. eigenvalues --    0.25585   0.25670   0.25777   0.25952   0.26052
 Alpha virt. eigenvalues --    0.26366   0.26685   0.27038   0.27301   0.27553
 Alpha virt. eigenvalues --    0.27677   0.27832   0.27883   0.28282   0.28426
 Alpha virt. eigenvalues --    0.28703   0.29055   0.29220   0.29495   0.29539
 Alpha virt. eigenvalues --    0.29835   0.29988   0.30355   0.30679   0.30745
 Alpha virt. eigenvalues --    0.30959   0.31345   0.31620   0.32060   0.32138
 Alpha virt. eigenvalues --    0.32410   0.32717   0.32815   0.32856   0.33279
 Alpha virt. eigenvalues --    0.33413   0.33792   0.33909   0.34321   0.34701
 Alpha virt. eigenvalues --    0.34952   0.35048   0.35464   0.35589   0.36155
 Alpha virt. eigenvalues --    0.36215   0.36338   0.36439   0.36967   0.37138
 Alpha virt. eigenvalues --    0.37468   0.37707   0.37946   0.38016   0.38150
 Alpha virt. eigenvalues --    0.38305   0.38671   0.38701   0.38819   0.39083
 Alpha virt. eigenvalues --    0.39506   0.39765   0.39875   0.40298   0.40321
 Alpha virt. eigenvalues --    0.40497   0.40690   0.40928   0.41127   0.41279
 Alpha virt. eigenvalues --    0.41513   0.41644   0.41986   0.42049   0.42296
 Alpha virt. eigenvalues --    0.42346   0.42620   0.42825   0.42905   0.43084
 Alpha virt. eigenvalues --    0.43312   0.43556   0.43662   0.43834   0.44011
 Alpha virt. eigenvalues --    0.44108   0.44643   0.44717   0.44948   0.45200
 Alpha virt. eigenvalues --    0.45433   0.45684   0.45750   0.45966   0.46324
 Alpha virt. eigenvalues --    0.46462   0.46568   0.46731   0.46886   0.47213
 Alpha virt. eigenvalues --    0.47341   0.47476   0.47716   0.47975   0.48044
 Alpha virt. eigenvalues --    0.48466   0.48522   0.48830   0.48991   0.49174
 Alpha virt. eigenvalues --    0.49382   0.49409   0.49596   0.49908   0.50063
 Alpha virt. eigenvalues --    0.50258   0.50428   0.50651   0.50762   0.50909
 Alpha virt. eigenvalues --    0.51245   0.51291   0.51703   0.51966   0.52121
 Alpha virt. eigenvalues --    0.52190   0.52400   0.52659   0.52927   0.53081
 Alpha virt. eigenvalues --    0.53257   0.53774   0.53848   0.54142   0.54352
 Alpha virt. eigenvalues --    0.54618   0.54764   0.54916   0.55202   0.55312
 Alpha virt. eigenvalues --    0.55981   0.56024   0.56237   0.56474   0.56859
 Alpha virt. eigenvalues --    0.56883   0.57143   0.57237   0.57673   0.58017
 Alpha virt. eigenvalues --    0.58150   0.58296   0.58361   0.58954   0.59149
 Alpha virt. eigenvalues --    0.59411   0.59708   0.60008   0.60314   0.60430
 Alpha virt. eigenvalues --    0.60463   0.60863   0.61240   0.61523   0.61617
 Alpha virt. eigenvalues --    0.62016   0.62146   0.62395   0.62601   0.62961
 Alpha virt. eigenvalues --    0.63304   0.63673   0.63723   0.63876   0.64372
 Alpha virt. eigenvalues --    0.64422   0.64544   0.64894   0.65227   0.65684
 Alpha virt. eigenvalues --    0.65827   0.65931   0.66466   0.66586   0.66736
 Alpha virt. eigenvalues --    0.67004   0.67440   0.67608   0.67868   0.68097
 Alpha virt. eigenvalues --    0.68411   0.68717   0.68812   0.69075   0.69280
 Alpha virt. eigenvalues --    0.69411   0.69572   0.70192   0.70467   0.70715
 Alpha virt. eigenvalues --    0.71196   0.71364   0.71595   0.72060   0.72414
 Alpha virt. eigenvalues --    0.72880   0.73003   0.73188   0.73453   0.73962
 Alpha virt. eigenvalues --    0.74214   0.74500   0.74817   0.75028   0.75449
 Alpha virt. eigenvalues --    0.75878   0.75938   0.76061   0.76439   0.76605
 Alpha virt. eigenvalues --    0.77148   0.77398   0.77588   0.77864   0.78228
 Alpha virt. eigenvalues --    0.78574   0.78743   0.79163   0.79639   0.79944
 Alpha virt. eigenvalues --    0.80130   0.80285   0.80535   0.81055   0.81336
 Alpha virt. eigenvalues --    0.81470   0.81897   0.82149   0.82410   0.82650
 Alpha virt. eigenvalues --    0.82978   0.83555   0.83990   0.84146   0.84494
 Alpha virt. eigenvalues --    0.84627   0.84926   0.85321   0.85549   0.85736
 Alpha virt. eigenvalues --    0.86005   0.86389   0.86801   0.87246   0.87353
 Alpha virt. eigenvalues --    0.87569   0.87747   0.88058   0.88207   0.88819
 Alpha virt. eigenvalues --    0.89325   0.89556   0.89602   0.90249   0.90419
 Alpha virt. eigenvalues --    0.90566   0.91000   0.91148   0.91352   0.91626
 Alpha virt. eigenvalues --    0.91769   0.92014   0.92572   0.92979   0.93094
 Alpha virt. eigenvalues --    0.93472   0.93810   0.94001   0.94272   0.94335
 Alpha virt. eigenvalues --    0.94868   0.95059   0.95381   0.95534   0.95752
 Alpha virt. eigenvalues --    0.96239   0.96574   0.96687   0.97166   0.97373
 Alpha virt. eigenvalues --    0.97638   0.97977   0.98088   0.98544   0.98662
 Alpha virt. eigenvalues --    0.98984   0.99272   0.99375   0.99660   1.00340
 Alpha virt. eigenvalues --    1.00571   1.00879   1.01254   1.01660   1.02082
 Alpha virt. eigenvalues --    1.02144   1.02667   1.02896   1.03221   1.03763
 Alpha virt. eigenvalues --    1.04056   1.04233   1.04589   1.04958   1.05146
 Alpha virt. eigenvalues --    1.05682   1.05879   1.06292   1.06622   1.07076
 Alpha virt. eigenvalues --    1.07420   1.07835   1.07917   1.08697   1.09049
 Alpha virt. eigenvalues --    1.09118   1.09418   1.09917   1.10279   1.10437
 Alpha virt. eigenvalues --    1.11109   1.11219   1.11605   1.12263   1.12599
 Alpha virt. eigenvalues --    1.12911   1.13136   1.13708   1.13836   1.14116
 Alpha virt. eigenvalues --    1.14472   1.14937   1.15464   1.15694   1.15965
 Alpha virt. eigenvalues --    1.16638   1.16921   1.17023   1.17837   1.18274
 Alpha virt. eigenvalues --    1.18736   1.18918   1.18999   1.19395   1.19767
 Alpha virt. eigenvalues --    1.20602   1.20725   1.21431   1.21698   1.21782
 Alpha virt. eigenvalues --    1.22102   1.22758   1.22878   1.23245   1.23554
 Alpha virt. eigenvalues --    1.24125   1.24371   1.24463   1.25018   1.25508
 Alpha virt. eigenvalues --    1.26058   1.26292   1.26473   1.26724   1.27112
 Alpha virt. eigenvalues --    1.27699   1.28080   1.28307   1.28476   1.28638
 Alpha virt. eigenvalues --    1.29542   1.29831   1.30174   1.30562   1.31153
 Alpha virt. eigenvalues --    1.31488   1.31706   1.32043   1.32481   1.32586
 Alpha virt. eigenvalues --    1.33118   1.33490   1.33828   1.34127   1.34311
 Alpha virt. eigenvalues --    1.34821   1.35230   1.35583   1.36017   1.36230
 Alpha virt. eigenvalues --    1.36354   1.36689   1.37410   1.37573   1.38735
 Alpha virt. eigenvalues --    1.39177   1.39574   1.40031   1.40299   1.40694
 Alpha virt. eigenvalues --    1.40793   1.41024   1.41687   1.41981   1.42504
 Alpha virt. eigenvalues --    1.42710   1.43204   1.43680   1.44113   1.44550
 Alpha virt. eigenvalues --    1.44737   1.45483   1.45772   1.45903   1.46423
 Alpha virt. eigenvalues --    1.46722   1.47422   1.47603   1.47823   1.48067
 Alpha virt. eigenvalues --    1.48297   1.48734   1.48964   1.49552   1.49678
 Alpha virt. eigenvalues --    1.50124   1.50520   1.50822   1.51132   1.51361
 Alpha virt. eigenvalues --    1.51786   1.52033   1.52204   1.52853   1.52904
 Alpha virt. eigenvalues --    1.53492   1.53611   1.54012   1.54131   1.54287
 Alpha virt. eigenvalues --    1.54671   1.54735   1.54944   1.55234   1.55573
 Alpha virt. eigenvalues --    1.55824   1.55935   1.56271   1.56459   1.56809
 Alpha virt. eigenvalues --    1.57003   1.57458   1.57580   1.57987   1.58053
 Alpha virt. eigenvalues --    1.58320   1.58743   1.58888   1.59306   1.59726
 Alpha virt. eigenvalues --    1.60014   1.60051   1.60237   1.60597   1.60736
 Alpha virt. eigenvalues --    1.61223   1.61262   1.61494   1.61585   1.62138
 Alpha virt. eigenvalues --    1.62671   1.62781   1.63325   1.63686   1.63960
 Alpha virt. eigenvalues --    1.64390   1.64756   1.64933   1.64985   1.65680
 Alpha virt. eigenvalues --    1.65975   1.66342   1.66383   1.66811   1.67089
 Alpha virt. eigenvalues --    1.67456   1.67828   1.67883   1.68461   1.68835
 Alpha virt. eigenvalues --    1.68907   1.69088   1.69496   1.69797   1.69827
 Alpha virt. eigenvalues --    1.70182   1.70612   1.70888   1.71208   1.71324
 Alpha virt. eigenvalues --    1.71804   1.72217   1.72581   1.72671   1.73304
 Alpha virt. eigenvalues --    1.73738   1.73941   1.74538   1.74730   1.74928
 Alpha virt. eigenvalues --    1.75491   1.75745   1.76014   1.76385   1.76671
 Alpha virt. eigenvalues --    1.76738   1.77839   1.78010   1.78258   1.78755
 Alpha virt. eigenvalues --    1.79155   1.79307   1.80113   1.80884   1.81167
 Alpha virt. eigenvalues --    1.81424   1.82156   1.82582   1.82845   1.83215
 Alpha virt. eigenvalues --    1.83428   1.84040   1.84190   1.84470   1.85191
 Alpha virt. eigenvalues --    1.85301   1.85794   1.86023   1.86722   1.87135
 Alpha virt. eigenvalues --    1.87189   1.87519   1.87889   1.88269   1.88403
 Alpha virt. eigenvalues --    1.88490   1.89139   1.89962   1.90132   1.90598
 Alpha virt. eigenvalues --    1.90690   1.91002   1.91370   1.91587   1.92342
 Alpha virt. eigenvalues --    1.92496   1.92953   1.93058   1.94063   1.94244
 Alpha virt. eigenvalues --    1.94447   1.94755   1.95217   1.95735   1.96360
 Alpha virt. eigenvalues --    1.96822   1.97209   1.97277   1.97529   1.97949
 Alpha virt. eigenvalues --    1.98379   1.98693   1.98890   1.99429   1.99523
 Alpha virt. eigenvalues --    1.99900   2.00510   2.01132   2.01729   2.01921
 Alpha virt. eigenvalues --    2.02240   2.02542   2.02684   2.03186   2.03652
 Alpha virt. eigenvalues --    2.03928   2.04505   2.04813   2.05226   2.05714
 Alpha virt. eigenvalues --    2.06423   2.06748   2.07332   2.07508   2.08018
 Alpha virt. eigenvalues --    2.08308   2.08447   2.08811   2.09135   2.09410
 Alpha virt. eigenvalues --    2.10261   2.10349   2.10762   2.11130   2.11449
 Alpha virt. eigenvalues --    2.11861   2.12316   2.12604   2.13212   2.13444
 Alpha virt. eigenvalues --    2.13767   2.14245   2.14488   2.15021   2.15057
 Alpha virt. eigenvalues --    2.15431   2.15749   2.16507   2.16617   2.16930
 Alpha virt. eigenvalues --    2.17222   2.17332   2.17662   2.17895   2.18490
 Alpha virt. eigenvalues --    2.18745   2.19563   2.19837   2.20177   2.20570
 Alpha virt. eigenvalues --    2.21089   2.21277   2.22060   2.22585   2.23092
 Alpha virt. eigenvalues --    2.23339   2.23697   2.24031   2.24467   2.25165
 Alpha virt. eigenvalues --    2.25343   2.25898   2.26113   2.26471   2.26572
 Alpha virt. eigenvalues --    2.27210   2.27879   2.28582   2.28942   2.29330
 Alpha virt. eigenvalues --    2.29578   2.29764   2.30188   2.30874   2.31359
 Alpha virt. eigenvalues --    2.31738   2.32144   2.32643   2.32728   2.33236
 Alpha virt. eigenvalues --    2.33571   2.34071   2.34284   2.34584   2.34703
 Alpha virt. eigenvalues --    2.35113   2.35475   2.35840   2.36221   2.36740
 Alpha virt. eigenvalues --    2.37067   2.37519   2.37623   2.38288   2.38784
 Alpha virt. eigenvalues --    2.39021   2.39159   2.39511   2.39878   2.40852
 Alpha virt. eigenvalues --    2.41350   2.41522   2.42047   2.42393   2.43168
 Alpha virt. eigenvalues --    2.43537   2.43712   2.44374   2.44418   2.44774
 Alpha virt. eigenvalues --    2.45262   2.45564   2.46204   2.46454   2.46597
 Alpha virt. eigenvalues --    2.47082   2.47528   2.48189   2.48336   2.49023
 Alpha virt. eigenvalues --    2.49551   2.50316   2.50547   2.50679   2.50938
 Alpha virt. eigenvalues --    2.51507   2.52081   2.52316   2.52585   2.53247
 Alpha virt. eigenvalues --    2.53602   2.53765   2.54109   2.54363   2.54917
 Alpha virt. eigenvalues --    2.55048   2.55879   2.56183   2.56364   2.56482
 Alpha virt. eigenvalues --    2.56915   2.57145   2.57339   2.57572   2.57825
 Alpha virt. eigenvalues --    2.57957   2.58322   2.58567   2.59040   2.59186
 Alpha virt. eigenvalues --    2.59503   2.60019   2.60836   2.60848   2.61343
 Alpha virt. eigenvalues --    2.61602   2.61876   2.62379   2.62618   2.62929
 Alpha virt. eigenvalues --    2.62955   2.63568   2.63710   2.64188   2.64547
 Alpha virt. eigenvalues --    2.64938   2.65449   2.65761   2.65845   2.65997
 Alpha virt. eigenvalues --    2.66467   2.66576   2.67022   2.67387   2.67514
 Alpha virt. eigenvalues --    2.68122   2.68477   2.68771   2.69252   2.69848
 Alpha virt. eigenvalues --    2.69914   2.70351   2.70867   2.71077   2.71734
 Alpha virt. eigenvalues --    2.72315   2.72700   2.73120   2.73827   2.73932
 Alpha virt. eigenvalues --    2.74498   2.74890   2.74975   2.75504   2.76071
 Alpha virt. eigenvalues --    2.76431   2.76662   2.77357   2.77510   2.78065
 Alpha virt. eigenvalues --    2.78383   2.78497   2.79252   2.79467   2.79632
 Alpha virt. eigenvalues --    2.80263   2.80605   2.80761   2.81031   2.81188
 Alpha virt. eigenvalues --    2.81558   2.82001   2.82109   2.82452   2.82782
 Alpha virt. eigenvalues --    2.82948   2.83156   2.83359   2.84013   2.84814
 Alpha virt. eigenvalues --    2.85260   2.85340   2.85570   2.85785   2.86206
 Alpha virt. eigenvalues --    2.86260   2.86847   2.87184   2.87365   2.87528
 Alpha virt. eigenvalues --    2.88325   2.88624   2.88899   2.89074   2.89362
 Alpha virt. eigenvalues --    2.89990   2.90215   2.90715   2.90889   2.91310
 Alpha virt. eigenvalues --    2.91759   2.92094   2.92182   2.92438   2.93225
 Alpha virt. eigenvalues --    2.93526   2.93652   2.93939   2.94318   2.94329
 Alpha virt. eigenvalues --    2.94904   2.95415   2.95657   2.95967   2.96061
 Alpha virt. eigenvalues --    2.96290   2.96723   2.97031   2.97153   2.97766
 Alpha virt. eigenvalues --    2.98151   2.98416   2.98800   2.99438   2.99701
 Alpha virt. eigenvalues --    3.00107   3.00435   3.00722   3.01000   3.01401
 Alpha virt. eigenvalues --    3.01738   3.01994   3.02392   3.02691   3.02847
 Alpha virt. eigenvalues --    3.03383   3.03578   3.04003   3.04136   3.04402
 Alpha virt. eigenvalues --    3.04827   3.05227   3.05706   3.05878   3.06236
 Alpha virt. eigenvalues --    3.06340   3.06592   3.06711   3.07001   3.07532
 Alpha virt. eigenvalues --    3.07721   3.08153   3.08206   3.08683   3.08868
 Alpha virt. eigenvalues --    3.09080   3.09383   3.10325   3.10529   3.10690
 Alpha virt. eigenvalues --    3.10761   3.11146   3.11578   3.11673   3.11898
 Alpha virt. eigenvalues --    3.12092   3.12405   3.12823   3.13162   3.13461
 Alpha virt. eigenvalues --    3.13582   3.13994   3.14487   3.14913   3.15058
 Alpha virt. eigenvalues --    3.15416   3.15563   3.15570   3.15922   3.16387
 Alpha virt. eigenvalues --    3.16723   3.16826   3.17277   3.17647   3.17913
 Alpha virt. eigenvalues --    3.18158   3.18242   3.18621   3.18779   3.18874
 Alpha virt. eigenvalues --    3.19128   3.19711   3.19886   3.20061   3.20113
 Alpha virt. eigenvalues --    3.20577   3.20757   3.21067   3.21468   3.21711
 Alpha virt. eigenvalues --    3.22177   3.22336   3.22434   3.22634   3.22942
 Alpha virt. eigenvalues --    3.23260   3.23480   3.23788   3.23961   3.24511
 Alpha virt. eigenvalues --    3.24764   3.25303   3.25382   3.25670   3.25824
 Alpha virt. eigenvalues --    3.26197   3.26315   3.26539   3.26740   3.26907
 Alpha virt. eigenvalues --    3.27147   3.27586   3.27976   3.28181   3.28542
 Alpha virt. eigenvalues --    3.28692   3.28907   3.29266   3.29417   3.29674
 Alpha virt. eigenvalues --    3.29816   3.30223   3.30843   3.31064   3.31101
 Alpha virt. eigenvalues --    3.31517   3.31756   3.32354   3.32444   3.32582
 Alpha virt. eigenvalues --    3.32685   3.33179   3.33511   3.33860   3.33866
 Alpha virt. eigenvalues --    3.34193   3.34593   3.34794   3.35087   3.35234
 Alpha virt. eigenvalues --    3.35370   3.35896   3.36318   3.36621   3.37044
 Alpha virt. eigenvalues --    3.37228   3.37448   3.37676   3.37824   3.38199
 Alpha virt. eigenvalues --    3.38489   3.38764   3.39096   3.39330   3.39397
 Alpha virt. eigenvalues --    3.39805   3.40392   3.40612   3.40798   3.41309
 Alpha virt. eigenvalues --    3.41704   3.41954   3.42250   3.42625   3.42940
 Alpha virt. eigenvalues --    3.43383   3.43591   3.43824   3.44428   3.44935
 Alpha virt. eigenvalues --    3.45162   3.45727   3.46162   3.46215   3.46662
 Alpha virt. eigenvalues --    3.47349   3.47430   3.47672   3.48452   3.48528
 Alpha virt. eigenvalues --    3.48967   3.49312   3.49493   3.49780   3.50085
 Alpha virt. eigenvalues --    3.50402   3.51186   3.51311   3.51436   3.51692
 Alpha virt. eigenvalues --    3.52141   3.52562   3.52777   3.53329   3.53449
 Alpha virt. eigenvalues --    3.53771   3.54020   3.54536   3.54594   3.55009
 Alpha virt. eigenvalues --    3.55387   3.55874   3.56502   3.56554   3.56789
 Alpha virt. eigenvalues --    3.56805   3.57134   3.57596   3.58093   3.58609
 Alpha virt. eigenvalues --    3.58910   3.59230   3.59727   3.60128   3.60392
 Alpha virt. eigenvalues --    3.60716   3.61092   3.61626   3.61790   3.62279
 Alpha virt. eigenvalues --    3.62474   3.62590   3.62929   3.63247   3.63840
 Alpha virt. eigenvalues --    3.64123   3.64406   3.65217   3.65695   3.66071
 Alpha virt. eigenvalues --    3.66339   3.66672   3.66943   3.67220   3.67505
 Alpha virt. eigenvalues --    3.67824   3.68666   3.68858   3.69605   3.69991
 Alpha virt. eigenvalues --    3.70073   3.70509   3.70993   3.71438   3.71802
 Alpha virt. eigenvalues --    3.72009   3.72299   3.72592   3.72912   3.73812
 Alpha virt. eigenvalues --    3.74221   3.74849   3.74965   3.75320   3.75743
 Alpha virt. eigenvalues --    3.76469   3.76814   3.76961   3.77128   3.77857
 Alpha virt. eigenvalues --    3.78452   3.79284   3.79410   3.79852   3.80192
 Alpha virt. eigenvalues --    3.80594   3.81086   3.81252   3.82037   3.82453
 Alpha virt. eigenvalues --    3.82969   3.83662   3.83930   3.84182   3.84259
 Alpha virt. eigenvalues --    3.84694   3.85119   3.85652   3.86279   3.86791
 Alpha virt. eigenvalues --    3.87662   3.87928   3.88835   3.89673   3.90219
 Alpha virt. eigenvalues --    3.90850   3.91278   3.92041   3.92155   3.92958
 Alpha virt. eigenvalues --    3.93049   3.93471   3.94056   3.94731   3.95310
 Alpha virt. eigenvalues --    3.96309   3.96462   3.96641   3.97199   3.97601
 Alpha virt. eigenvalues --    3.99074   3.99402   4.00042   4.00944   4.01102
 Alpha virt. eigenvalues --    4.01486   4.02052   4.03005   4.03395   4.04592
 Alpha virt. eigenvalues --    4.04742   4.04961   4.05196   4.05819   4.06762
 Alpha virt. eigenvalues --    4.07315   4.07626   4.08235   4.08265   4.09398
 Alpha virt. eigenvalues --    4.09940   4.10119   4.11097   4.11261   4.11794
 Alpha virt. eigenvalues --    4.12324   4.12533   4.13252   4.13448   4.14142
 Alpha virt. eigenvalues --    4.14663   4.14789   4.15565   4.15959   4.16501
 Alpha virt. eigenvalues --    4.17592   4.17755   4.18001   4.18251   4.19017
 Alpha virt. eigenvalues --    4.19328   4.19689   4.20614   4.20900   4.21780
 Alpha virt. eigenvalues --    4.22150   4.22573   4.22907   4.23581   4.23823
 Alpha virt. eigenvalues --    4.24764   4.25249   4.25356   4.25705   4.26156
 Alpha virt. eigenvalues --    4.26565   4.27455   4.28104   4.28316   4.28613
 Alpha virt. eigenvalues --    4.29172   4.29552   4.30042   4.30618   4.30937
 Alpha virt. eigenvalues --    4.31839   4.32097   4.32582   4.33280   4.33844
 Alpha virt. eigenvalues --    4.34192   4.34823   4.35284   4.35486   4.36138
 Alpha virt. eigenvalues --    4.37131   4.37358   4.37858   4.38525   4.38729
 Alpha virt. eigenvalues --    4.38973   4.39541   4.39849   4.40187   4.41592
 Alpha virt. eigenvalues --    4.41757   4.42796   4.43181   4.43987   4.44787
 Alpha virt. eigenvalues --    4.45138   4.45538   4.46675   4.47171   4.47365
 Alpha virt. eigenvalues --    4.48713   4.50077   4.51118   4.51882   4.53029
 Alpha virt. eigenvalues --    4.53298   4.53793   4.54615   4.55596   4.55767
 Alpha virt. eigenvalues --    4.56804   4.56967   4.58126   4.58780   4.58928
 Alpha virt. eigenvalues --    4.59133   4.59878   4.60694   4.61516   4.62285
 Alpha virt. eigenvalues --    4.63337   4.63934   4.64360   4.65179   4.65396
 Alpha virt. eigenvalues --    4.65966   4.66637   4.66957   4.68019   4.69220
 Alpha virt. eigenvalues --    4.69504   4.69776   4.70201   4.70396   4.71062
 Alpha virt. eigenvalues --    4.71405   4.71953   4.72915   4.73304   4.74176
 Alpha virt. eigenvalues --    4.74659   4.75014   4.75547   4.76468   4.77201
 Alpha virt. eigenvalues --    4.77955   4.78963   4.79370   4.79974   4.80079
 Alpha virt. eigenvalues --    4.80536   4.82325   4.82620   4.82993   4.84036
 Alpha virt. eigenvalues --    4.84641   4.85623   4.87033   4.87836   4.88219
 Alpha virt. eigenvalues --    4.88476   4.89644   4.90627   4.91201   4.91834
 Alpha virt. eigenvalues --    4.92712   4.93065   4.93985   4.94328   4.95089
 Alpha virt. eigenvalues --    4.95424   4.96254   4.98468   4.99047   4.99330
 Alpha virt. eigenvalues --    5.00629   5.00887   5.02665   5.03874   5.04706
 Alpha virt. eigenvalues --    5.05489   5.06025   5.06941   5.07336   5.08726
 Alpha virt. eigenvalues --    5.10245   5.11690   5.13008   5.14018   5.14749
 Alpha virt. eigenvalues --    5.15646   5.16647   5.17799   5.18649   5.18866
 Alpha virt. eigenvalues --    5.19670   5.20412   5.20693   5.21033   5.21657
 Alpha virt. eigenvalues --    5.21787   5.22271   5.22707   5.23034   5.23242
 Alpha virt. eigenvalues --    5.23508   5.24187   5.24473   5.25286   5.25333
 Alpha virt. eigenvalues --    5.25950   5.27618   5.28255   5.29105   5.29557
 Alpha virt. eigenvalues --    5.30451   5.31720   5.32169   5.32884   5.33661
 Alpha virt. eigenvalues --    5.33976   5.34924   5.35295   5.35652   5.36758
 Alpha virt. eigenvalues --    5.37235   5.37902   5.38651   5.39040   5.40943
 Alpha virt. eigenvalues --    5.41467   5.43714   5.44150   5.44419   5.45398
 Alpha virt. eigenvalues --    5.45529   5.45981   5.46915   5.48446   5.49740
 Alpha virt. eigenvalues --    5.52902   5.54350   5.56093   5.57045   5.57252
 Alpha virt. eigenvalues --    5.58133   5.59621   5.59917   5.60917   5.62532
 Alpha virt. eigenvalues --    5.63904   5.64114   5.66459   5.68316   5.68671
 Alpha virt. eigenvalues --    5.70117   5.70890   5.72664   5.75182   5.77752
 Alpha virt. eigenvalues --    5.78585   5.85419   5.87920   5.89261   5.89665
 Alpha virt. eigenvalues --    5.90232   5.90574   5.91526   5.92992   5.94643
 Alpha virt. eigenvalues --    5.96896   5.97894   5.98525   6.03602   6.04492
 Alpha virt. eigenvalues --    6.04973   6.05968   6.07600   6.08019   6.08591
 Alpha virt. eigenvalues --    6.10696   6.14234   6.19271   6.21333   6.22206
 Alpha virt. eigenvalues --    6.22585   6.23069   6.26763   6.27478   6.32151
 Alpha virt. eigenvalues --    6.38548   6.40092   6.43244   6.46434   6.47657
 Alpha virt. eigenvalues --    6.47764   6.48711   6.50819   6.51546   6.55511
 Alpha virt. eigenvalues --    6.55623   6.57362   6.71354   6.71452   6.73839
 Alpha virt. eigenvalues --    6.78705   6.79808   6.88586   6.89386   6.95577
 Alpha virt. eigenvalues --    6.96956   6.99060   7.00535   7.14791   7.15148
 Alpha virt. eigenvalues --    7.19675   7.21512   7.30367   7.31925  22.28914
 Alpha virt. eigenvalues --   22.38643  22.47560  22.50173  22.51411  22.54544
 Alpha virt. eigenvalues --   22.57156  22.60812  22.66056  22.66574  22.69218
 Alpha virt. eigenvalues --   22.72207  22.75634  22.77093  22.83341  22.85040
 Alpha virt. eigenvalues --   22.90259  22.91584  22.92719  22.94272  22.99096
 Alpha virt. eigenvalues --   23.01410  23.11026  23.12835  23.13785  23.17830
 Alpha virt. eigenvalues --   23.21979  23.34732  23.36531  23.44408  23.48091
 Alpha virt. eigenvalues --   23.52233  23.63251  23.67299  23.71614  23.71903
 Alpha virt. eigenvalues --   23.74067  23.85052  32.41711  32.63920  32.85493
 Alpha virt. eigenvalues --   32.89449  32.92949  33.08629  43.92584  43.92762
 Alpha virt. eigenvalues --   43.96928  44.01773  44.15267
  Beta  occ. eigenvalues -- -256.39730 -30.14310 -25.97935 -25.97440 -25.96427
  Beta  occ. eigenvalues --  -19.28828 -19.26438 -19.17636 -19.16579 -19.10317
  Beta  occ. eigenvalues --  -14.47350 -14.40179 -14.40027 -14.39966 -14.39151
  Beta  occ. eigenvalues --  -14.38637 -10.35432 -10.33993 -10.30702 -10.28541
  Beta  occ. eigenvalues --  -10.27098 -10.26895 -10.26855 -10.26556 -10.26321
  Beta  occ. eigenvalues --  -10.25843 -10.25784 -10.25771 -10.25765 -10.25064
  Beta  occ. eigenvalues --  -10.24870 -10.24665 -10.24656 -10.24441 -10.24402
  Beta  occ. eigenvalues --  -10.24330 -10.24320 -10.24150 -10.24065 -10.23976
  Beta  occ. eigenvalues --  -10.23551 -10.23457 -10.23376 -10.23359 -10.23242
  Beta  occ. eigenvalues --  -10.23169 -10.22829 -10.22722 -10.22647 -10.22568
  Beta  occ. eigenvalues --  -10.22285 -10.22140 -10.22009 -10.21481  -3.44976
  Beta  occ. eigenvalues --   -2.21880  -2.20574  -2.16700  -1.20514  -1.17436
  Beta  occ. eigenvalues --   -1.07119  -1.03355  -1.02411  -0.99267  -0.98258
  Beta  occ. eigenvalues --   -0.97857  -0.96867  -0.91815  -0.85332  -0.84501
  Beta  occ. eigenvalues --   -0.84253  -0.83809  -0.82514  -0.82344  -0.82114
  Beta  occ. eigenvalues --   -0.81864  -0.80563  -0.79196  -0.78490  -0.77533
  Beta  occ. eigenvalues --   -0.76454  -0.75053  -0.74183  -0.73757  -0.73675
  Beta  occ. eigenvalues --   -0.73170  -0.72398  -0.71803  -0.70520  -0.69469
  Beta  occ. eigenvalues --   -0.69155  -0.67457  -0.66578  -0.66402  -0.66083
  Beta  occ. eigenvalues --   -0.63934  -0.62335  -0.61532  -0.60332  -0.58855
  Beta  occ. eigenvalues --   -0.57975  -0.57220  -0.56184  -0.55477  -0.55331
  Beta  occ. eigenvalues --   -0.55032  -0.53902  -0.53425  -0.52573  -0.52207
  Beta  occ. eigenvalues --   -0.52093  -0.51325  -0.50683  -0.49973  -0.49853
  Beta  occ. eigenvalues --   -0.49675  -0.49122  -0.48872  -0.48287  -0.47820
  Beta  occ. eigenvalues --   -0.47223  -0.46843  -0.46708  -0.45805  -0.45639
  Beta  occ. eigenvalues --   -0.45477  -0.45331  -0.44971  -0.44804  -0.44726
  Beta  occ. eigenvalues --   -0.44430  -0.44328  -0.44181  -0.43971  -0.43756
  Beta  occ. eigenvalues --   -0.43669  -0.43377  -0.43307  -0.42965  -0.42685
  Beta  occ. eigenvalues --   -0.42420  -0.42052  -0.41810  -0.41373  -0.40924
  Beta  occ. eigenvalues --   -0.40598  -0.40426  -0.40307  -0.39971  -0.39476
  Beta  occ. eigenvalues --   -0.39384  -0.38977  -0.38676  -0.38572  -0.38264
  Beta  occ. eigenvalues --   -0.37705  -0.37486  -0.36835  -0.36353  -0.35779
  Beta  occ. eigenvalues --   -0.35223  -0.34680  -0.34227  -0.33809  -0.33166
  Beta  occ. eigenvalues --   -0.32823  -0.32763  -0.32047  -0.31787  -0.31436
  Beta  occ. eigenvalues --   -0.29452  -0.28787  -0.28244  -0.27596  -0.27019
  Beta  occ. eigenvalues --   -0.26768  -0.25951  -0.25663  -0.25353  -0.25080
  Beta  occ. eigenvalues --   -0.21675  -0.20515  -0.19068  -0.18375  -0.17287
  Beta virt. eigenvalues --   -0.09944  -0.09416  -0.07056  -0.04527  -0.03614
  Beta virt. eigenvalues --   -0.02497  -0.02359  -0.01418  -0.00655  -0.00152
  Beta virt. eigenvalues --    0.00043   0.00369   0.01023   0.01779   0.01934
  Beta virt. eigenvalues --    0.02073   0.02735   0.03465   0.03622   0.04380
  Beta virt. eigenvalues --    0.04873   0.05037   0.05682   0.06017   0.06530
  Beta virt. eigenvalues --    0.06720   0.07057   0.07535   0.07598   0.07858
  Beta virt. eigenvalues --    0.07972   0.08107   0.08595   0.09048   0.09250
  Beta virt. eigenvalues --    0.09676   0.10058   0.10505   0.10543   0.10897
  Beta virt. eigenvalues --    0.11320   0.11474   0.11586   0.11894   0.12002
  Beta virt. eigenvalues --    0.12545   0.12701   0.12756   0.12857   0.13013
  Beta virt. eigenvalues --    0.13356   0.13421   0.13751   0.13900   0.14278
  Beta virt. eigenvalues --    0.14366   0.14549   0.14795   0.15001   0.15195
  Beta virt. eigenvalues --    0.15510   0.15656   0.15870   0.16281   0.16531
  Beta virt. eigenvalues --    0.16819   0.16942   0.17191   0.17619   0.17742
  Beta virt. eigenvalues --    0.18106   0.18450   0.18490   0.18796   0.18865
  Beta virt. eigenvalues --    0.19298   0.19617   0.19785   0.19882   0.20100
  Beta virt. eigenvalues --    0.20308   0.20502   0.20809   0.21126   0.21260
  Beta virt. eigenvalues --    0.21519   0.21702   0.21842   0.22054   0.22239
  Beta virt. eigenvalues --    0.22482   0.22550   0.22823   0.22904   0.23426
  Beta virt. eigenvalues --    0.23487   0.23776   0.23939   0.24118   0.24458
  Beta virt. eigenvalues --    0.24658   0.24754   0.24867   0.25155   0.25642
  Beta virt. eigenvalues --    0.25726   0.25874   0.25981   0.26151   0.26426
  Beta virt. eigenvalues --    0.26826   0.27119   0.27397   0.27677   0.27727
  Beta virt. eigenvalues --    0.27892   0.28018   0.28438   0.28486   0.28791
  Beta virt. eigenvalues --    0.29132   0.29479   0.29574   0.29627   0.29939
  Beta virt. eigenvalues --    0.30143   0.30454   0.30790   0.30804   0.31073
  Beta virt. eigenvalues --    0.31409   0.31723   0.32142   0.32236   0.32457
  Beta virt. eigenvalues --    0.32887   0.32943   0.33114   0.33345   0.33666
  Beta virt. eigenvalues --    0.33996   0.34251   0.34539   0.34789   0.35125
  Beta virt. eigenvalues --    0.35211   0.35583   0.35790   0.36214   0.36327
  Beta virt. eigenvalues --    0.36549   0.36756   0.37180   0.37217   0.37575
  Beta virt. eigenvalues --    0.37792   0.38017   0.38074   0.38297   0.38459
  Beta virt. eigenvalues --    0.38788   0.38850   0.39080   0.39453   0.39666
  Beta virt. eigenvalues --    0.39874   0.39974   0.40349   0.40412   0.40548
  Beta virt. eigenvalues --    0.40736   0.40994   0.41342   0.41450   0.41604
  Beta virt. eigenvalues --    0.41853   0.42027   0.42105   0.42344   0.42410
  Beta virt. eigenvalues --    0.42677   0.42871   0.42978   0.43149   0.43433
  Beta virt. eigenvalues --    0.43626   0.43735   0.43872   0.44055   0.44141
  Beta virt. eigenvalues --    0.44693   0.44799   0.44994   0.45236   0.45493
  Beta virt. eigenvalues --    0.45746   0.45842   0.46037   0.46406   0.46502
  Beta virt. eigenvalues --    0.46607   0.46804   0.46972   0.47278   0.47415
  Beta virt. eigenvalues --    0.47506   0.47782   0.48058   0.48079   0.48525
  Beta virt. eigenvalues --    0.48575   0.48890   0.49015   0.49241   0.49430
  Beta virt. eigenvalues --    0.49506   0.49691   0.49974   0.50137   0.50340
  Beta virt. eigenvalues --    0.50498   0.50721   0.50820   0.50990   0.51280
  Beta virt. eigenvalues --    0.51381   0.51738   0.52110   0.52175   0.52226
  Beta virt. eigenvalues --    0.52523   0.52719   0.53000   0.53126   0.53359
  Beta virt. eigenvalues --    0.53816   0.53949   0.54249   0.54483   0.54742
  Beta virt. eigenvalues --    0.54848   0.55051   0.55309   0.55357   0.56067
  Beta virt. eigenvalues --    0.56183   0.56397   0.56532   0.56969   0.57031
  Beta virt. eigenvalues --    0.57217   0.57337   0.57799   0.58118   0.58276
  Beta virt. eigenvalues --    0.58407   0.58458   0.59217   0.59256   0.59585
  Beta virt. eigenvalues --    0.59780   0.60067   0.60442   0.60516   0.60707
  Beta virt. eigenvalues --    0.61015   0.61367   0.61643   0.61669   0.62194
  Beta virt. eigenvalues --    0.62294   0.62513   0.62953   0.63225   0.63479
  Beta virt. eigenvalues --    0.63756   0.63916   0.64106   0.64596   0.64719
  Beta virt. eigenvalues --    0.64869   0.65004   0.65344   0.65913   0.65955
  Beta virt. eigenvalues --    0.66367   0.66576   0.66668   0.66838   0.67146
  Beta virt. eigenvalues --    0.67538   0.67818   0.68063   0.68290   0.68593
  Beta virt. eigenvalues --    0.68790   0.68983   0.69316   0.69427   0.69665
  Beta virt. eigenvalues --    0.69816   0.70309   0.70567   0.71028   0.71256
  Beta virt. eigenvalues --    0.71416   0.71671   0.72162   0.72533   0.72989
  Beta virt. eigenvalues --    0.73111   0.73496   0.73532   0.74175   0.74309
  Beta virt. eigenvalues --    0.74604   0.74889   0.75163   0.75609   0.75956
  Beta virt. eigenvalues --    0.76087   0.76558   0.76605   0.76864   0.77457
  Beta virt. eigenvalues --    0.77534   0.77778   0.77943   0.78347   0.78610
  Beta virt. eigenvalues --    0.78826   0.79304   0.79718   0.80064   0.80262
  Beta virt. eigenvalues --    0.80452   0.80666   0.81181   0.81448   0.81559
  Beta virt. eigenvalues --    0.82004   0.82251   0.82653   0.82792   0.83062
  Beta virt. eigenvalues --    0.83899   0.84105   0.84185   0.84584   0.84777
  Beta virt. eigenvalues --    0.85010   0.85382   0.85600   0.85821   0.86121
  Beta virt. eigenvalues --    0.86466   0.86889   0.87347   0.87559   0.87685
  Beta virt. eigenvalues --    0.87838   0.88259   0.88387   0.88982   0.89427
  Beta virt. eigenvalues --    0.89599   0.89770   0.90310   0.90558   0.90619
  Beta virt. eigenvalues --    0.91154   0.91287   0.91422   0.91803   0.91888
  Beta virt. eigenvalues --    0.92072   0.92730   0.93131   0.93188   0.93571
  Beta virt. eigenvalues --    0.93885   0.94081   0.94392   0.94442   0.94940
  Beta virt. eigenvalues --    0.95258   0.95455   0.95626   0.95861   0.96261
  Beta virt. eigenvalues --    0.96699   0.96868   0.97330   0.97485   0.97769
  Beta virt. eigenvalues --    0.98107   0.98175   0.98591   0.98741   0.99042
  Beta virt. eigenvalues --    0.99347   0.99567   0.99730   1.00440   1.00675
  Beta virt. eigenvalues --    1.00964   1.01342   1.01750   1.02148   1.02233
  Beta virt. eigenvalues --    1.02766   1.02967   1.03285   1.03836   1.04279
  Beta virt. eigenvalues --    1.04537   1.04691   1.05117   1.05262   1.05913
  Beta virt. eigenvalues --    1.06095   1.06488   1.06710   1.07183   1.07660
  Beta virt. eigenvalues --    1.07991   1.08095   1.08830   1.09115   1.09159
  Beta virt. eigenvalues --    1.09482   1.09985   1.10339   1.10804   1.11262
  Beta virt. eigenvalues --    1.11369   1.11838   1.12405   1.12801   1.13061
  Beta virt. eigenvalues --    1.13378   1.13797   1.14056   1.14540   1.14583
  Beta virt. eigenvalues --    1.15102   1.15657   1.15837   1.16083   1.16810
  Beta virt. eigenvalues --    1.17028   1.17151   1.18036   1.18355   1.18957
  Beta virt. eigenvalues --    1.19115   1.19286   1.19503   1.19889   1.20843
  Beta virt. eigenvalues --    1.20943   1.21550   1.21795   1.22025   1.22426
  Beta virt. eigenvalues --    1.22831   1.23132   1.23382   1.23938   1.24393
  Beta virt. eigenvalues --    1.24519   1.24610   1.25247   1.25576   1.26193
  Beta virt. eigenvalues --    1.26402   1.26646   1.26909   1.27336   1.27795
  Beta virt. eigenvalues --    1.28239   1.28386   1.28566   1.28782   1.29712
  Beta virt. eigenvalues --    1.29952   1.30277   1.30686   1.31409   1.31597
  Beta virt. eigenvalues --    1.31942   1.32208   1.32605   1.32809   1.33263
  Beta virt. eigenvalues --    1.33681   1.33931   1.34274   1.34481   1.34929
  Beta virt. eigenvalues --    1.35396   1.35671   1.36243   1.36446   1.36588
  Beta virt. eigenvalues --    1.36793   1.37582   1.37645   1.38852   1.39285
  Beta virt. eigenvalues --    1.39693   1.40207   1.40449   1.40896   1.40959
  Beta virt. eigenvalues --    1.41165   1.41783   1.42067   1.42635   1.42902
  Beta virt. eigenvalues --    1.43275   1.43940   1.44210   1.44787   1.44935
  Beta virt. eigenvalues --    1.45610   1.45835   1.46038   1.46543   1.46841
  Beta virt. eigenvalues --    1.47566   1.47714   1.47972   1.48185   1.48437
  Beta virt. eigenvalues --    1.48898   1.49069   1.49738   1.49745   1.50231
  Beta virt. eigenvalues --    1.50765   1.50891   1.51240   1.51488   1.51883
  Beta virt. eigenvalues --    1.52139   1.52398   1.52926   1.52983   1.53587
  Beta virt. eigenvalues --    1.53781   1.54110   1.54310   1.54369   1.54797
  Beta virt. eigenvalues --    1.54880   1.55016   1.55374   1.55621   1.55909
  Beta virt. eigenvalues --    1.55980   1.56425   1.56510   1.56950   1.57075
  Beta virt. eigenvalues --    1.57543   1.57718   1.58062   1.58138   1.58437
  Beta virt. eigenvalues --    1.58884   1.58942   1.59542   1.59796   1.60065
  Beta virt. eigenvalues --    1.60148   1.60413   1.60670   1.60848   1.61285
  Beta virt. eigenvalues --    1.61352   1.61624   1.61747   1.62219   1.62732
  Beta virt. eigenvalues --    1.62892   1.63406   1.63789   1.64059   1.64439
  Beta virt. eigenvalues --    1.64862   1.65053   1.65225   1.65775   1.66073
  Beta virt. eigenvalues --    1.66417   1.66481   1.66930   1.67127   1.67554
  Beta virt. eigenvalues --    1.67914   1.68052   1.68636   1.68919   1.69092
  Beta virt. eigenvalues --    1.69225   1.69553   1.69889   1.70059   1.70301
  Beta virt. eigenvalues --    1.70728   1.71092   1.71292   1.71414   1.71915
  Beta virt. eigenvalues --    1.72434   1.72718   1.72791   1.73397   1.73777
  Beta virt. eigenvalues --    1.74139   1.74714   1.74886   1.75047   1.75630
  Beta virt. eigenvalues --    1.75952   1.76289   1.76511   1.76763   1.76959
  Beta virt. eigenvalues --    1.77926   1.78095   1.78380   1.79237   1.79298
  Beta virt. eigenvalues --    1.79671   1.80298   1.81115   1.81650   1.81847
  Beta virt. eigenvalues --    1.82424   1.82697   1.83271   1.83479   1.83566
  Beta virt. eigenvalues --    1.84107   1.84580   1.85114   1.85293   1.85504
  Beta virt. eigenvalues --    1.86162   1.86363   1.86959   1.87210   1.87359
  Beta virt. eigenvalues --    1.88229   1.88299   1.88514   1.88575   1.88702
  Beta virt. eigenvalues --    1.89689   1.90094   1.90491   1.90733   1.90840
  Beta virt. eigenvalues --    1.91339   1.91504   1.92095   1.92532   1.92690
  Beta virt. eigenvalues --    1.93178   1.93578   1.94176   1.94408   1.94724
  Beta virt. eigenvalues --    1.95020   1.95327   1.95938   1.96623   1.96904
  Beta virt. eigenvalues --    1.97268   1.97377   1.97751   1.98104   1.98590
  Beta virt. eigenvalues --    1.98913   1.99030   1.99626   1.99701   2.00104
  Beta virt. eigenvalues --    2.00736   2.01251   2.02003   2.02241   2.02420
  Beta virt. eigenvalues --    2.02621   2.02894   2.03308   2.03786   2.04052
  Beta virt. eigenvalues --    2.04827   2.04889   2.05470   2.05870   2.06632
  Beta virt. eigenvalues --    2.06810   2.07572   2.07642   2.08276   2.08371
  Beta virt. eigenvalues --    2.08529   2.09005   2.09191   2.09573   2.10310
  Beta virt. eigenvalues --    2.10531   2.10987   2.11296   2.11654   2.11994
  Beta virt. eigenvalues --    2.12413   2.12779   2.13288   2.13607   2.13840
[...]
  1555. RY*(   1) H  63                  0.00041     1.66601   
  1556. RY*(   2) H  63                  0.00007     2.69840   
  1557. RY*(   3) H  63                  0.00007     2.14713   
  1558. RY*(   4) H  63                  0.00004     1.80164   
  1559. RY*(   5) H  63                  0.00000     2.85946   
  1560. RY*(   1) H  64                  0.00047     1.11962   
  1561. RY*(   2) H  64                  0.00006     1.65658   
  1562. RY*(   3) H  64                  0.00007     2.40407   
  1563. RY*(   4) H  64                  0.00003     2.48074   
  1564. RY*(   5) H  64                  0.00001     2.98608   
  1565. RY*(   1) H  65                  0.00041     1.07386   
  1566. RY*(   2) H  65                  0.00006     1.68328   
  1567. RY*(   3) H  65                  0.00007     2.37555   
  1568. RY*(   4) H  65                  0.00004     2.52529   
  1569. RY*(   5) H  65                  0.00001     3.05964   
  1570. RY*(   1) H  66                  0.00043     0.99080   
  1571. RY*(   2) H  66                  0.00036     2.11681   
  1572. RY*(   3) H  66                  0.00017     2.08474   
  1573. RY*(   4) H  66                  0.00011     1.93077   
  1574. RY*(   5) H  66                  0.00000     3.26768   
  1575. RY*(   1) H  67                  0.00043     1.01461   
  1576. RY*(   2) H  67                  0.00007     1.73652   
  1577. RY*(   3) H  67                  0.00004     2.16299   
  1578. RY*(   4) H  67                  0.00002     1.99103   
  1579. RY*(   5) H  67                  0.00000     3.00264   
  1580. RY*(   1) H  68                  0.00025     1.21959   
  1581. RY*(   2) H  68                  0.00010     1.89367   
  1582. RY*(   3) H  68                  0.00002     1.92075   
  1583. RY*(   4) H  68                  0.00003     2.13245   
  1584. RY*(   5) H  68                  0.00000     2.90055   
  1585. RY*(   1) H  69                  0.00034     0.99310   
  1586. RY*(   2) H  69                  0.00008     1.83266   
  1587. RY*(   3) H  69                  0.00004     1.98248   
  1588. RY*(   4) H  69                  0.00003     2.21566   
  1589. RY*(   5) H  69                  0.00000     2.88940   
  1590. RY*(   1) H  70                  0.00085     0.74782   
  1591. RY*(   2) H  70                  0.00014     2.26772   
  1592. RY*(   3) H  70                  0.00012     2.21917   
  1593. RY*(   4) H  70                  0.00006     3.01811   
  1594. RY*(   5) H  70                  0.00000     3.22360   
  1595. RY*(   1) H  71                  0.00041     1.01186   
  1596. RY*(   2) H  71                  0.00008     1.71206   
  1597. RY*(   3) H  71                  0.00003     2.10118   
  1598. RY*(   4) H  71                  0.00003     2.08343   
  1599. RY*(   5) H  71                  0.00000     2.91256   
  1600. RY*(   1) H  72                  0.00046     0.89464   
  1601. RY*(   2) H  72                  0.00008     1.83189   
  1602. RY*(   3) H  72                  0.00003     2.14220   
  1603. RY*(   4) H  72                  0.00004     2.04736   
  1604. RY*(   5) H  72                  0.00000     2.93422   
  1605. RY*(   1) H  73                  0.00022     1.37055   
  1606. RY*(   2) H  73                  0.00009     1.90260   
  1607. RY*(   3) H  73                  0.00004     2.08835   
  1608. RY*(   4) H  73                  0.00001     1.90419   
  1609. RY*(   5) H  73                  0.00000     2.80258   
  1610. RY*(   1) H  74                  0.00116     0.73807   
  1611. RY*(   2) H  74                  0.00014     2.14317   
  1612. RY*(   3) H  74                  0.00013     2.24480   
  1613. RY*(   4) H  74                  0.00007     3.03314   
  1614. RY*(   5) H  74                  0.00001     3.28047   
  1615. RY*(   1) H  75                  0.00104     0.71482   
  1616. RY*(   2) H  75                  0.00014     2.18835   
  1617. RY*(   3) H  75                  0.00013     2.26001   
  1618. RY*(   4) H  75                  0.00006     3.06937   
  1619. RY*(   5) H  75                  0.00001     3.27267   
  1620. RY*(   1) H  76                  0.00022     1.42245   
  1621. RY*(   2) H  76                  0.00009     1.96836   
  1622. RY*(   3) H  76                  0.00004     2.10820   
  1623. RY*(   4) H  76                  0.00001     2.40049   
  1624. RY*(   5) H  76                  0.00000     2.31979   
  1625. RY*(   1) H  77                  0.00036     0.91732   
  1626. RY*(   2) H  77                  0.00008     1.80718   
  1627. RY*(   3) H  77                  0.00003     2.15673   
  1628. RY*(   4) H  77                  0.00003     1.99211   
  1629. RY*(   5) H  77                  0.00000     2.96872   
  1630. RY*(   1) H  78                  0.00050     0.90454   
  1631. RY*(   2) H  78                  0.00008     1.79351   
  1632. RY*(   3) H  78                  0.00003     2.20348   
  1633. RY*(   4) H  78                  0.00002     2.03009   
  1634. RY*(   5) H  78                  0.00000     2.88452   
  1635. RY*(   1) H  79                  0.00059     1.15687   
  1636. RY*(   2) H  79                  0.00018     1.53126   
  1637. RY*(   3) H  79                  0.00005     2.22799   
  1638. RY*(   4) H  79                  0.00002     2.30361   
  1639. RY*(   5) H  79                  0.00001     2.90652   
  1640. RY*(   1) H  80                  0.00088     1.06092   
  1641. RY*(   2) H  80                  0.00020     1.66356   
  1642. RY*(   3) H  80                  0.00004     2.20813   
  1643. RY*(   4) H  80                  0.00003     2.29021   
  1644. RY*(   5) H  80                  0.00001     2.93939   
  1645. RY*(   1) H  81                  0.00070     1.57689   
  1646. RY*(   2) H  81                  0.00010     1.82815   
  1647. RY*(   3) H  81                  0.00005     2.49626   
  1648. RY*(   4) H  81                  0.00003     2.15720   
  1649. RY*(   5) H  81                  0.00001     3.07612   
  1650. RY*(   1) H  82                  0.00023     1.41725   
  1651. RY*(   2) H  82                  0.00010     1.89812   
  1652. RY*(   3) H  82                  0.00003     2.12660   
  1653. RY*(   4) H  82                  0.00001     2.53340   
  1654. RY*(   5) H  82                  0.00001     2.19466   
  1655. RY*(   1) H  83                  0.00036     0.95743   
  1656. RY*(   2) H  83                  0.00008     1.91435   
  1657. RY*(   3) H  83                  0.00005     1.91595   
  1658. RY*(   4) H  83                  0.00003     2.18837   
  1659. RY*(   5) H  83                  0.00000     3.00151   
  1660. RY*(   1) H  84                  0.00044     1.05031   
  1661. RY*(   2) H  84                  0.00008     1.67772   
  1662. RY*(   3) H  84                  0.00003     2.14967   
  1663. RY*(   4) H  84                  0.00002     2.00815   
  1664. RY*(   5) H  84                  0.00000     2.94980   
  1665. RY*(   1) H  85                  0.00134     0.77532   
  1666. RY*(   2) H  85                  0.00014     2.17113   
  1667. RY*(   3) H  85                  0.00013     2.25797   
  1668. RY*(   4) H  85                  0.00007     3.09900   
  1669. RY*(   5) H  85                  0.00001     3.29160   
  1670. RY*(   1) H  86                  0.00032     1.48472   
  1671. RY*(   2) H  86                  0.00013     1.61044   
  1672. RY*(   3) H  86                  0.00006     2.45660   
  1673. RY*(   4) H  86                  0.00004     2.18696   
  1674. RY*(   5) H  86                  0.00000     3.10904   
  1675. RY*(   1) H  87                  0.00039     1.05717   
  1676. RY*(   2) H  87                  0.00013     1.77014   
  1677. RY*(   3) H  87                  0.00009     2.13062   
  1678. RY*(   4) H  87                  0.00004     2.43209   
  1679. RY*(   5) H  87                  0.00000     3.06911   
  1680. RY*(   1) H  88                  0.00023     1.45244   
  1681. RY*(   2) H  88                  0.00014     1.03886   
  1682. RY*(   3) H  88                  0.00008     2.11122   
  1683. RY*(   4) H  88                  0.00003     2.53919   
  1684. RY*(   5) H  88                  0.00000     3.07487   
  1700. BD*(   1) C   8 - C  13          0.00990     0.52422   
  1701. BD*(   2) C   8 - C  13          0.20651     0.02689  1705(r),1773(v),1720(v)
                                                    377(g),511(g)
  1702. BD*(   1) C   8 - C  43          0.00915     0.55810   
  1703. BD*(   1) C   8 - H  70          0.00658     0.44215   
  1704. BD*(   1) C   9 - C  16          0.01078     0.53512   
  1705. BD*(   2) C   9 - C  16          0.19973     0.02689  1701(r),1738(v),1720(v)
                                                    589(g),404(g),1698(r)
  1706. BD*(   1) C   9 - C  24          0.00965     0.56263   
  1707. BD*(   1) C   9 - H  74          0.00756     0.44163   
  1708. BD*(   1) C  10 - C  27          0.00987     0.57824   
  1709. BD*(   1) C  10 - C  32          0.01112     0.55425   
  1710. BD*(   2) C  10 - C  32          0.19104     0.03326  1759(v),184(v),1756(v)
                                                    1005(g),1767(r),430(g)
                                                    1750(r),1714(r),171(r)
                                                    1699(r)
  1711. BD*(   1) C  10 - H  85          0.00809     0.44273   
  1712. BD*(   1) C  11 - C  35          0.01187     0.54996   
  1713. BD*(   1) C  11 - C  40          0.00979     0.59118   
  1714. BD*(   2) C  11 - C  40          0.18916     0.04486  1776(v),1756(v),1773(v)
                                                    1213(g),456(g),1767(r)
                                                    455(g),1710(r)
  1715. BD*(   1) C  11 - H  75          0.00741     0.44160   
  1716. BD*(   1) N  12 - C  13          0.01481     0.42382   
  1717. BD*(   1) N  12 - C  16          0.01433     0.43369   
  1718. BD*(   1) C  13 - C  14          0.01622     0.44366   
  1719. BD*(   1) C  14 - C  15          0.00998     0.59300   
  1720. BD*(   2) C  14 - C  15          0.12954     0.04996  1701(v),1705(v),1727(v)
                                                    1725(v),1724(v),1728(v)
  1721. BD*(   1) C  14 - C  18          0.01257     0.35589   
  1722. BD*(   1) C  15 - C  16          0.01627     0.46164   
  1723. BD*(   1) C  15 - C  17          0.00900     0.34477   
  1724. BD*(   1) C  17 - H  71          0.00383     0.39245   
  1725. BD*(   1) C  17 - H  72          0.00414     0.38640   
  1726. BD*(   1) C  17 - H  73          0.00239     0.39869   
  1727. BD*(   1) C  18 - C  19          0.00809     0.30894   
  1728. BD*(   1) C  18 - H  60          0.00637     0.39803   
  1729. BD*(   1) C  18 - H  61          0.00604     0.40353   
  1730. BD*(   1) C  19 - C  20          0.03553     0.37461   
  1731. BD*(   1) C  19 - H  58          0.00536     0.38474   
  1732. BD*(   1) C  19 - H  59          0.00723     0.36627   
  1733. BD*(   1) C  20 - O  21          0.04506     0.40836   
  1734. BD*(   2) C  20 - O  21          0.10387     0.13450  1733(g),1727(v),718(g)
                                                    1736(v),1732(v)
  1735. BD*(   1) C  20 - O  22          0.03463     0.54825   
  1736. BD*(   1) O  22 - H  57          0.00731     0.34528   
  1737. BD*(   1) N  23 - C  24          0.01300     0.49750   
  1738. BD*(   2) N  23 - C  24          0.31540     0.00052  1705(v),176(r),1742(v)
                                                    184(v),795(g),769(g),193(r)
                                                    404(v),1699(r),173(r),175(r)
                                                    171(r),172(r),1695(r)
  1739. BD*(   1) N  23 - C  27          0.01242     0.51426   
  1740. BD*(   1) C  24 - C  25          0.01668     0.46780   
  1741. BD*(   1) C  25 - C  26          0.00969     0.61481   
  1742. BD*(   2) C  25 - C  26          0.15292     0.05758  1750(v),1738(v),184(v)
                                                    1748(v),1747(v)
  1743. BD*(   1) C  25 - C  28          0.00904     0.33889   
  1744. BD*(   1) C  26 - C  27          0.01785     0.45156   
  1745. BD*(   1) C  26 - C  29          0.01394     0.39852   
  1746. BD*(   1) C  28 - H  76          0.00316     0.41404   
  1747. BD*(   1) C  28 - H  77          0.00374     0.40680   
  1748. BD*(   1) C  28 - H  78          0.00380     0.40980   
  1749. BD*(   1) C  29 - C  30          0.00278     0.59118   
  1750. BD*(   2) C  29 - C  30          0.06796     0.02083   
  1751. BD*(   1) C  29 - H  81          0.00943     0.42596   
  1752. BD*(   1) C  30 - H  79          0.00361     0.42610   
  1753. BD*(   1) C  30 - H  80          0.00381     0.42465   
  1754. BD*(   1) N  31 - C  32          0.01483     0.42461   
  1755. BD*(   1) N  31 - C  35          0.01460     0.45765   
  1756. BD*(   2) N  31 - C  35          0.30931    -0.00946  1714(v),1759(v),171(r)
                                                    1710(v),1081(g),977(g)
                                                    1699(r),176(r),175(r),173(r)
                                                    174(r),1696(r),172(r),170(r)
  1757. BD*(   1) C  32 - C  33          0.01671     0.43961   
  1758. BD*(   1) C  33 - C  34          0.01011     0.59750   
  1759. BD*(   2) C  33 - C  34          0.13273     0.05360  1710(v),1767(v),1756(v)
                                                    1765(v),1764(v)
  1760. BD*(   1) C  33 - C  36          0.00859     0.37761   
  1761. BD*(   1) C  34 - C  35          0.01493     0.47544   
  1762. BD*(   1) C  34 - C  37          0.01532     0.36401   
  1763. BD*(   1) C  36 - H  82          0.00305     0.40548   
  1764. BD*(   1) C  36 - H  83          0.00393     0.40020   
  1765. BD*(   1) C  36 - H  84          0.00451     0.39978   
  1766. BD*(   1) C  37 - C  38          0.00246     0.58083   
  1767. BD*(   2) C  37 - C  38          0.02521     0.03258   
  1768. BD*(   1) C  37 - H  86          0.00724     0.44039   
  1769. BD*(   1) C  38 - H  87          0.00523     0.43521   
  1770. BD*(   1) C  38 - H  88          0.00414     0.43609   
  1771. BD*(   1) N  39 - C  40          0.01439     0.47005   
  1772. BD*(   1) N  39 - C  43          0.01380     0.45524   
  1773. BD*(   2) N  39 - C  43          0.32328    -0.00838  1701(v),176(r),1776(v)
                                                    1714(v),1289(g),1185(g)
                                                    1288(g),377(v),171(r),173(r)
                                                    193(r),172(r),1699(r),174(r)
                                                    1695(r)
  1774. BD*(   1) C  40 - C  41          0.01701     0.47245   
  1775. BD*(   1) C  41 - C  42          0.00931     0.61687   
  1776. BD*(   2) C  41 - C  42          0.11201     0.06443  1714(v),1773(v),1783(v)
                                                    1780(v),1785(v)
  1777. BD*(   1) C  41 - C  44          0.00897     0.34812   
  1778. BD*(   1) C  42 - C  43          0.01705     0.44834   
  1779. BD*(   1) C  42 - C  45          0.01191     0.36914   
  1780. BD*(   1) C  44 - H  67          0.00420     0.40539   
  1781. BD*(   1) C  44 - H  68          0.00284     0.40859   
  1782. BD*(   1) C  44 - H  69          0.00287     0.41059   
  1783. BD*(   1) C  45 - C  46          0.00757     0.33376   
  1784. BD*(   1) C  45 - H  62          0.00587     0.41173   
  1785. BD*(   1) C  45 - H  63          0.00686     0.41377   
  1786. BD*(   1) C  46 - C  47          0.03739     0.36406   
  1787. BD*(   1) C  46 - H  64          0.00710     0.38983   
  1788. BD*(   1) C  46 - H  65          0.00596     0.40486   
  1789. BD*(   1) C  47 - O  48          0.03625     0.52570   
  1790. BD*(   1) C  47 - O  49          0.03205     0.50526   
  1791. BD*(   2) C  47 - O  49          0.09961     0.09429   
  1792. BD*(   1) O  48 - H  66          0.00694     0.37017   
       -------------------------------
              Total Lewis  144.47651  ( 97.4843%)
        Valence non-Lewis    3.42611  (  2.3117%)
        Rydberg non-Lewis    0.30224  (  0.2039%)
       -------------------------------
            Total unit  3  148.20486  (100.0000%)
           Charge unit  3   -0.20486
 1\1\GINC-NODE495\SP\UPBE1PBE\def2TZVP\C38H38Fe1N6O5(5)\ZHARTOVSKA\01-O
 ct-2022\0\\# PBE1PBE/def2TZVP empiricaldispersion=GD3BJ int=(grid=ultr
 afine) geom=check pop=nbo\\1flp_II_Q\\0,5\C,0,1.855,1.103,19.240999\C,
 0,2.991,1.833,18.511\N,0,4.255,2.041,19.082001\C,0,2.925,2.479,17.3080
 01\C,0,4.985,2.723,18.195\N,0,4.18,3.017,17.136\Fe,0,4.822,4.251,15.29
 3\C,0,5.474,6.932,17.278\C,0,8.116,3.228,15.537\C,0,4.14,1.437,13.497\
 C,0,1.664,5.303,14.788\N,0,6.373,4.842,16.259001\C,0,6.512,6.009,17.03
 7001\C,0,7.835,6.061,17.683001\C,0,8.575,5.051,17.173\C,0,7.663,4.299,
 16.323\C,0,10.043,4.728,17.514\C,0,8.251,7.045,18.788\C,0,8.136,6.433,
 20.212999\C,0,6.73,6.452,20.652\O,0,6.199,7.559,20.885\O,0,6.081,5.431
 ,20.542999\N,0,5.963,2.657,14.516\C,0,7.302,2.468,14.716\C,0,7.7,1.232
 ,14.055\C,0,6.58,0.688,13.53\C,0,5.456,1.576,13.874\C,0,9.209,0.834,14
 .054\C,0,6.244,-0.593,12.799\C,0,7.076,-1.634,12.51\N,0,3.336,3.613,14
 .298\C,0,3.125,2.374,13.672\C,0,1.777,2.16,13.11\C,0,1.108,3.283,13.45
 5\C,0,2.042,4.087,14.214\C,0,1.335,1.01,12.233\C,0,-0.344,3.747,13.175
 \C,0,-1.31282067,2.8313389,12.93103628\N,0,3.804,5.821,15.858\C,0,2.47
 9,6.085,15.559\C,0,2.065,7.359,16.128\C,0,3.103,7.806,16.854\C,0,4.228
 ,6.869,16.673\C,0,0.692,8.021,15.841\C,0,3.184,9.206,17.483999\C,0,3.4
 07,10.303,16.416\C,0,3.506,11.672,17.031\O,0,4.595,12.015,17.506001\O,
 0,2.468,12.316,17.226999\O,0,5.495,5.394,13.439\H,0,2.17861909,0.83286
 919,20.22446228\H,0,1.00347556,1.7472287,19.31010403\H,0,1.59104733,0.
 22004968,18.69728242\H,0,4.55442559,1.73536294,19.98584297\H,0,6.01600
 364,2.99013895,18.29780208\H,0,2.0857576,2.55034434,16.64809026\H,0,6.
 5273177,4.58586112,20.45277277\H,0,8.72914317,7.005818,20.89487928\H,0
 ,8.48949828,5.42322521,20.19585707\H,0,9.26531927,7.34203084,18.621179
 41\H,0,7.62419648,7.91043403,18.73285222\H,0,3.99551909,9.22809574,18.
 18102737\H,0,2.2712407,9.40712235,18.00488311\H,0,4.31236323,10.093437
 67,15.88562178\H,0,2.5885155,10.28938181,15.72694437\H,0,5.41161003,11
 .71951972,17.09680733\H,0,0.78269163,8.6821484,15.00460427\H,0,-0.0301
 4099,7.26304304,15.61983574\H,0,0.37627532,8.57449409,16.70057095\H,0,
 5.65861365,7.72818761,17.9685817\H,0,10.648935,5.59167875,17.3356694\H
 ,0,10.11647011,4.44723524,18.54388994\H,0,10.38270255,3.92085456,16.89
 916798\H,0,9.15705465,2.98376951,15.57516663\H,0,0.6661989,5.64698074,
 14.61201644\H,0,9.77668028,1.58653189,14.56029521\H,0,9.33106532,-0.10
 298755,14.55605019\H,0,9.5538728,0.74557419,13.04496897\H,0,7.40195976
 ,-1.79489651,11.50363896\H,0,7.40289654,-2.28995872,13.28958759\H,0,5.
 23127752,-0.69450999,12.46886534\H,0,2.06625877,0.22986669,12.27240342
 \H,0,0.3952526,0.63594848,12.58208492\H,0,1.23075569,1.35051315,11.223
 99856\H,0,3.86965028,0.51712783,13.02197767\H,0,-0.58151903,4.79030448
 ,13.17431145\H,0,-1.09720009,1.78722159,13.02173802\H,0,-2.29337467,3.
 15249472,12.64771176\\Version=ES64L-G16RevA.03\State=5-A\HF=-3437.2802
 547\S2=6.064563\S2-1=0.\S2A=6.001292\RMSD=4.663e-09\Dipole=0.9480137,-
 4.1049048,2.3573723\Quadrupole=27.9953889,-23.338954,-4.656435,20.9017
 381,20.9659319,-24.1600423\PG=C01 [X(C38H38Fe1N6O5)]\\@


 THE RED LIGHT IS ALWAYS LONGER THAN THE GREEN LIGHT.

                     -- PETER'S THEORY OF RELATIVITY
 Job cpu time:       5 days 23 hours 37 minutes 32.1 seconds.
 Elapsed time:       1 days 12 hours  2 minutes  3.7 seconds.
 File lengths (MBytes):  RWF=   2950 Int=      0 D2E=      0 Chk=    247 Scr=      1
 Normal termination of Gaussian 16 at Sat Oct  1 01:56:06 2022.
