 Entering Gaussian System, Link 0=g16
 Input=/net/homes/chemie/zhartovska/work/BioModel/Konrad/1jbq/1jbq12/1jbq16/1jbq16.com
 Output=/net/homes/chemie/zhartovska/work/BioModel/Konrad/1jbq/1jbq12/1jbq16/1jbq16.log
 Initial command:
 /afs/math/software/gaussian/g16.A03/g16/l1.exe "/scratch/zhartovska_gaussian.UzjDgym/Gau-27461.inp" -scrdir="/scratch/zhartovska_gaussian.UzjDgym/"
 Entering Link 1 = /afs/math/software/gaussian/g16.A03/g16/l1.exe PID=     27462.
  
 Copyright (c) 1988,1990,1992,1993,1995,1998,2003,2009,2016,
            Gaussian, Inc.  All Rights Reserved.
  
 This is part of the Gaussian(R) 16 program.  It is based on
 the Gaussian(R) 09 system (copyright 2009, Gaussian, Inc.),
 the Gaussian(R) 03 system (copyright 2003, Gaussian, Inc.),
 the Gaussian(R) 98 system (copyright 1998, Gaussian, Inc.),
 the Gaussian(R) 94 system (copyright 1995, Gaussian, Inc.),
 the Gaussian 92(TM) system (copyright 1992, Gaussian, Inc.),
 the Gaussian 90(TM) system (copyright 1990, Gaussian, Inc.),
 the Gaussian 88(TM) system (copyright 1988, Gaussian, Inc.),
 the Gaussian 86(TM) system (copyright 1986, Carnegie Mellon
 University), and the Gaussian 82(TM) system (copyright 1983,
 Carnegie Mellon University). Gaussian is a federally registered
 trademark of Gaussian, Inc.
  
 This software contains proprietary and confidential information,
 including trade secrets, belonging to Gaussian, Inc.
  
 This software is provided under written license and may be
 used, copied, transmitted, or stored only in accord with that
 written license.
  
 The following legend is applicable only to US Government
 contracts under FAR:
  
                    RESTRICTED RIGHTS LEGEND
  
 Use, reproduction and disclosure by the US Government is
 subject to restrictions as set forth in subparagraphs (a)
 and (c) of the Commercial Computer Software - Restricted
 Rights clause in FAR 52.227-19.
  
 Gaussian, Inc.
 340 Quinnipiac St., Bldg. 40, Wallingford CT 06492
  
  
 ---------------------------------------------------------------
 Warning -- This program may not be used in any manner that
 competes with the business of Gaussian, Inc. or will provide
 assistance to any competitor of Gaussian, Inc.  The licensee
 of this program is prohibited from giving any competitor of
 Gaussian, Inc. access to this program.  By using this program,
 the user acknowledges that Gaussian, Inc. is engaged in the
 business of creating and licensing software in the field of
 computational chemistry and represents and warrants to the
 licensee that it is not a competitor of Gaussian, Inc. and that
 it will not use this program in any manner prohibited above.
 ---------------------------------------------------------------
  

 Cite this work as:
 Gaussian 16, Revision A.03,
 M. J. Frisch, G. W. Trucks, H. B. Schlegel, G. E. Scuseria, 
 M. A. Robb, J. R. Cheeseman, G. Scalmani, V. Barone, 
 G. A. Petersson, H. Nakatsuji, X. Li, M. Caricato, A. V. Marenich, 
 J. Bloino, B. G. Janesko, R. Gomperts, B. Mennucci, H. P. Hratchian, 
 J. V. Ortiz, A. F. Izmaylov, J. L. Sonnenberg, D. Williams-Young, 
 F. Ding, F. Lipparini, F. Egidi, J. Goings, B. Peng, A. Petrone, 
 T. Henderson, D. Ranasinghe, V. G. Zakrzewski, J. Gao, N. Rega, 
 G. Zheng, W. Liang, M. Hada, M. Ehara, K. Toyota, R. Fukuda, 
 J. Hasegawa, M. Ishida, T. Nakajima, Y. Honda, O. Kitao, H. Nakai, 
 T. Vreven, K. Throssell, J. A. Montgomery, Jr., J. E. Peralta, 
 F. Ogliaro, M. J. Bearpark, J. J. Heyd, E. N. Brothers, K. N. Kudin, 
 V. N. Staroverov, T. A. Keith, R. Kobayashi, J. Normand, 
 K. Raghavachari, A. P. Rendell, J. C. Burant, S. S. Iyengar, 
 J. Tomasi, M. Cossi, J. M. Millam, M. Klene, C. Adamo, R. Cammi, 
 J. W. Ochterski, R. L. Martin, K. Morokuma, O. Farkas, 
 J. B. Foresman, and D. J. Fox, Gaussian, Inc., Wallingford CT, 2016.
 
 ******************************************
 Gaussian 16:  ES64L-G16RevA.03 25-Dec-2016
                29-Sep-2022 
 ******************************************
 %nprocs=12
 Will use up to   12 processors via shared memory.
 %mem=16GB
 %oldchk=1jbq_III_D.chk
 %chk=1jbq_III_H.chk
 Copying data from "1jbq_III_D.chk" to current chk file "1jbq_III_H.chk"
 IOpt=  2 FromEx=T IUOpen= 4 IOptOp= 5 NList=   0 IFRang= 0 IUIn= 4 IUOut= 2.
 ----------------------------------------------------------------------
 # PBE1PBE/def2TZVP empiricaldispersion=GD3BJ scf=maxcycle=999 geom=che
 ck pop=nbo
 ----------------------------------------------------------------------
 1/29=2,38=1,172=1/1;
 2/12=2,40=1/2;
 3/5=44,7=101,11=2,14=-4,25=1,30=1,74=-13,124=41/1,2,3;
 4//1;
 5/5=2,7=999,38=5/2;
 6/7=2,8=2,9=2,10=2,28=1,40=1/1,7;
 99/5=1,9=1/99;
 ----------
 1jbq_III_H
 ----------
 Structure from the checkpoint file:  "1jbq_III_H.chk"
 Charge =  1 Multiplicity = 6
 Z-Matrix found in chk file.
 C,0,-14.426,91.945,42.445999
 S,0,-13.61514756,90.44205984,42.94808385
 C,0,-6.735,87.879997,45.296001
 C,0,-7.719,88.763,44.599998
 N,0,-7.343,89.896004,43.912998
 C,0,-9.063,88.672997,44.473
 C,0,-8.414,90.466003,43.393002
 N,0,-9.47,89.745003,43.717999
 C,0,-10.953,92.300003,41.314999
 C,0,-11.872,87.638,40.998001
 C,0,-12.394,87.350998,45.764
 C,0,-11.576,92.092003,46.098
 C,0,-11.131,91.056,40.793999
 C,0,-11.01,90.705002,39.391998
 C,0,-11.28,89.394997,39.290001
 C,0,-11.563,88.899002,40.644001
 C,0,-11.297,88.524002,38.006001
 C,0,-10.63,91.708,38.287998
 C,0,-11.742,92.139999,37.362999
 C,0,-11.193,92.964996,36.207001
 O,0,-10.77,94.139999,36.534
 O,0,-11.172,92.470001,35.066002
 C,0,-12.111,87.150002,42.238998
 C,0,-12.428,85.758003,42.523998
 C,0,-12.569,85.661003,43.887001
 C,0,-12.351,86.986,44.423
 C,0,-12.553,84.656998,41.449001
 C,0,-12.891,84.424004,44.775002
 C,0,-14.14058471,83.57203839,44.48467002
 C,0,-12.208,88.622002,46.277
 C,0,-12.294,88.947998,47.712002
 C,0,-12.073,90.289001,47.816002
 C,0,-11.844,90.779999,46.460999
 C,0,-12.596,87.878998,48.806
 C,0,-12.048,91.242996,49.053001
 C,0,-11.54553863,90.72621722,50.41390962
 C,0,-11.343,92.589996,44.828999
 C,0,-11.063,93.980003,44.478001
 C,0,-10.885,94.031998,43.127998
 C,0,-11.057,92.678001,42.638
 C,0,-10.995,95.148003,45.480999
 C,0,-10.569,95.273003,42.262001
 C,0,-11.761,95.569,41.271999
 C,0,-11.547,96.749001,40.348
 O,0,-10.395,97.149002,40.092999
 O,0,-12.598,97.237,39.867001
 N,0,-11.449,89.935997,41.525002
 N,0,-12.08,87.879997,43.41
 N,0,-11.928,89.747002,45.542
 N,0,-11.35,91.795998,43.674999
 Fe,0,-11.707,89.852997,43.553001
 H,0,-5.84267659,88.43333186,45.50210646
 H,0,-7.15753264,87.52958024,46.21446399
 H,0,-6.50010461,87.04472118,44.66987125
 H,0,-6.40609387,90.23364375,43.82240934
 H,0,-8.42403416,91.36126531,42.8070799
 H,0,-9.69061235,87.90990104,44.88371558
 H,0,-13.86737953,92.40560745,41.65816403
 H,0,-15.41259069,91.71915812,42.09881858
 H,0,-14.48545231,92.61368722,43.27919935
 H,0,-12.31674047,90.60699352,42.89298471
 H,0,-10.10646147,95.71769308,45.3053502
 H,0,-11.85206227,95.77618641,45.35558025
 H,0,-10.97926187,94.76110598,46.47847732
 H,0,-9.67755439,95.09303095,41.69823261
 H,0,-10.41972239,96.11980552,42.89882255
 H,0,-11.92457117,94.69785925,40.67261743
 H,0,-12.64201862,95.75094708,41.85131019
 H,0,-9.63459792,96.65487634,40.40800456
 H,0,-10.70385476,93.07385352,40.61931084
 H,0,-10.23217049,92.58285875,38.75837429
 H,0,-9.85685067,91.26824936,37.69322115
 H,0,-12.23348367,91.27267958,36.97428212
 H,0,-12.4475692,92.72839668,37.91150631
 H,0,-9.82723254,94.31444826,36.58254859
 H,0,-10.4273088,87.90099251,37.98609151
 H,0,-12.1745066,87.9117393,38.00193416
 H,0,-11.3009077,89.15864101,37.14453826
 H,0,-11.93721543,86.93090823,40.1975835
 H,0,-11.71109515,83.99964717,41.51213663
 H,0,-13.4526611,84.10087236,41.61097067
 H,0,-12.58187813,85.10739541,40.47884213
 H,0,-12.24415118,84.16553988,45.58721066
 H,0,-14.03310048,82.56435518,44.14127276
 H,0,-15.11628689,83.98777148,44.62634312
 H,0,-12.59057677,86.57086904,46.46944765
 H,0,-11.80798195,87.87694257,49.52982548
 H,0,-13.52219167,88.11348462,49.28775202
 H,0,-12.66508681,86.91291977,48.35122548
 H,0,-12.37999099,92.25542037,48.95461973
 H,0,-10.49504549,90.65401713,50.60404458
 H,0,-12.24691901,90.43935672,51.16934103
 H,0,-11.54596949,92.8042839,46.89590606
 Recover connectivity data from disk.
 Stoichiometry    C39H42FeN6O4S(1+,6)
 Framework group  C1[X(C39H42FeN6O4S)]
 Deg. of freedom   273
 Full point group                 C1      NOp   1
 Largest Abelian subgroup         C1      NOp   1
 Largest concise Abelian subgroup C1      NOp   1
                         Standard orientation:                         
 ---------------------------------------------------------------------
 Center     Atomic      Atomic             Coordinates (Angstroms)
 Number     Number       Type             X           Y           Z
 ---------------------------------------------------------------------
      1          6           0       -1.078762   -0.496773   -3.134535
      2         16           0        0.244926    0.204440   -2.173000
      3          6           0        3.242665   -0.056858    4.923379
      4          6           0        2.201657   -0.157349    3.856340
      5          7           0        0.910195   -0.560008    4.115252
      6          6           0        2.256656    0.105124    2.530199
      7          6           0        0.214648   -0.541385    2.993555
      8          7           0        1.007397   -0.142348    2.017380
      9          6           0       -2.382947   -0.284083    0.289028
     10          6           0        0.562368    3.434526   -0.130963
     11          6           0        4.316898    0.484535   -0.651212
     12          6           0        1.337982   -3.295291   -0.340100
     13          6           0       -1.924517    0.996042    0.246686
     14          6           0       -2.735492    2.186845    0.413283
     15          6           0       -1.916658    3.241418    0.283654
     16          6           0       -0.563806    2.719354    0.045625
     17          6           0       -2.283246    4.746817    0.367098
     18          6           0       -4.248916    2.159846    0.692638
     19          6           0       -5.149224    2.555658   -0.452600
     20          6           0       -6.593207    2.680625    0.013928
     21          8           0       -7.165264    1.561477    0.308457
     22          8           0       -7.108024    3.810139    0.094553
     23          6           0        1.823312    2.978921   -0.325337
     24          6           0        2.986585    3.837512   -0.495607
     25          6           0        4.069760    3.004154   -0.634578
     26          6           0        3.565599    1.651061   -0.561103
     27          6           0        2.935741    5.380519   -0.496675
     28          6           0        5.576025    3.343730   -0.830149
     29          6           0        6.013694    4.268773   -1.980950
     30          6           0        3.833952   -0.810735   -0.603710
     31          6           0        4.683771   -2.008219   -0.733084
     32          6           0        3.848917   -3.082900   -0.655463
     33          6           0        2.502234   -2.552030   -0.470598
     34          6           0        6.228799   -1.932376   -0.927847
     35          6           0        4.124650   -4.618421   -0.739396
     36          6           0        5.444631   -5.194640   -0.194216
     37          6           0        0.050017   -2.827717   -0.152563
     38          6           0       -1.158333   -3.637419   -0.018440
     39          6           0       -2.204217   -2.782745    0.161986
     40          6           0       -1.649640   -1.443040    0.137008
     41          6           0       -1.201846   -5.176604   -0.080644
     42          6           0       -3.696479   -3.139567    0.351023
     43          6           0       -4.548623   -2.593401   -0.858992
     44          6           0       -6.036265   -2.857935   -0.764566
     45          8           0       -6.568767   -3.075803    0.340470
     46          8           0       -6.649401   -2.806855   -1.857982
     47          7           0       -0.613013    1.354768    0.043787
     48          7           0        2.199669    1.652064   -0.379240
     49          7           0        2.518656   -1.167315   -0.439098
     50          7           0       -0.272516   -1.467185   -0.068155
     51         26           0        0.960786    0.073685   -0.217394
     52          1           0        2.966058   -0.676108    5.750977
     53          1           0        4.184926   -0.381695    4.534117
     54          1           0        3.322524    0.959195    5.249199
     55          1           0        0.555333   -0.824789    5.011892
     56          1           0       -0.817419   -0.805254    2.893007
     57          1           0        3.112722    0.442159    1.983887
     58          1           0       -2.007043   -0.352048   -2.622432
     59          1           0       -1.119477   -0.015826   -4.089486
     60          1           0       -0.905467   -1.543961   -3.269688
     61          1           0        0.008007    0.013029   -0.898899
     62          1           0       -1.771739   -5.550920    0.743983
     63          1           0       -1.658372   -5.483710   -0.998343
     64          1           0       -0.205640   -5.563883   -0.030764
     65          1           0       -4.052283   -2.701688    1.260180
     66          1           0       -3.801515   -4.202982    0.405938
     67          1           0       -4.398643   -1.536073   -0.925800
     68          1           0       -4.183323   -3.044042   -1.758091
     69          1           0       -6.055210   -2.986804    1.146658
     70          1           0       -3.432156   -0.406219    0.459739
     71          1           0       -4.512355    1.167188    0.992852
     72          1           0       -4.446046    2.819441    1.511768
     73          1           0       -4.824194    3.495597   -0.847277
     74          1           0       -5.090266    1.812241   -1.219903
     75          1           0       -7.308330    1.322723    1.227222
     76          1           0       -1.938595    5.146780    1.297767
     77          1           0       -1.818631    5.272365   -0.440883
     78          1           0       -3.345308    4.859421    0.301951
     79          1           0        0.447271    4.498212   -0.115945
     80          1           0        3.366679    5.752206    0.409438
     81          1           0        3.487167    5.754970   -1.333703
     82          1           0        1.918139    5.703800   -0.566500
     83          1           0        6.307461    2.934459   -0.165019
     84          1           0        6.426617    5.232089   -1.765507
     85          1           0        5.904867    3.948180   -2.995976
     86          1           0        5.374060    0.600392   -0.769050
     87          1           0        6.713925   -2.482504   -0.148802
     88          1           0        6.489712   -2.352352   -1.876765
     89          1           0        6.543103   -0.910220   -0.891640
     90          1           0        3.396362   -5.269695   -1.175674
     91          1           0        5.564287   -5.356018    0.856754
     92          1           0        6.242106   -5.433621   -0.866393
     93          1           0        1.450072   -4.358203   -0.390637
 ---------------------------------------------------------------------
 Rotational constants (GHZ):           0.0734634           0.0435634           0.0331814
 Standard basis: def2TZVP (5D, 7F)
 There are  2110 symmetry adapted cartesian basis functions of A   symmetry.
 There are  1853 symmetry adapted basis functions of A   symmetry.
  1853 basis functions,  3006 primitive gaussians,  2110 cartesian basis functions
   198 alpha electrons      193 beta electrons
       nuclear repulsion energy      8207.5331616776 Hartrees.
 NAtoms=   93 NActive=   93 NUniq=   93 SFac= 1.00D+00 NAtFMM=   60 NAOKFM=T Big=T
 Integral buffers will be    131072 words long.
 Raffenetti 2 integral format.
 Two-electron integral symmetry is turned on.
 Nuclear repulsion after empirical dispersion term =     8207.3959598851 Hartrees.
 One-electron integrals computed using PRISM.
   1 Symmetry operations used in ECPInt.
 ECPInt:  NShTT=  270480 NPrTT=  840459 LenC2=  196595 LenP2D=  394954.
 LDataN:  DoStor=T MaxTD1= 6 Len=  172
 NBasis=  1853 RedAO= T EigKep=  2.83D-06  NBF=  1853
 NBsUse=  1853 1.00D-06 EigRej= -1.00D+00 NBFU=  1853
 ExpMin= 4.20D-02 ExpMax= 3.01D+05 ExpMxC= 2.91D+03 IAcc=3 IRadAn=         5 AccDes= 0.00D+00
 Harris functional with IExCor= 1009 and IRadAn=       5 diagonalized for initial guess.
 HarFok:  IExCor= 1009 AccDes= 0.00D+00 IRadAn=         5 IDoV= 1 UseB2=F ITyADJ=14
 ICtDFT=  3500011 ScaDFX=  1.000000  1.000000  1.000000  1.000000
 FoFCou: FMM=F IPFlag=           0 FMFlag=      100000 FMFlg1=        2001
         NFxFlg=           0 DoJE=T BraDBF=F KetDBF=T FulRan=T
         wScrn=  0.000000 ICntrl=       500 IOpCl=  0 I1Cent=   200000004 NGrid=           0
         NMat0=    1 NMatS0=      1 NMatT0=    0 NMatD0=    1 NMtDS0=    0 NMtDT0=    0
 Petite list used in FoFCou.
 Initial guess <Sx>= 0.0000 <Sy>= 0.0000 <Sz>= 2.5000 <S**2>= 8.7500 S= 2.5000
 Requested convergence on RMS density matrix=1.00D-08 within 999 cycles.
 Requested convergence on MAX density matrix=1.00D-06.
 Requested convergence on             energy=1.00D-06.
 No special actions if energy rises.
 EnCoef did   100 forward-backward iterations
 EnCoef did     6 forward-backward iterations
 EnCoef did     4 forward-backward iterations
 EnCoef did   100 forward-backward iterations
 EnCoef did     4 forward-backward iterations
 EnCoef did    14 forward-backward iterations
 EnCoef did     5 forward-backward iterations
 EnCoef did     3 forward-backward iterations
 Rare condition: small coef for last iteration:  0.000D+00
 Rare condition: small coef for last iteration:  0.000D+00
 Restarting incremental Fock formation.
 Restarting incremental Fock formation.
 SCF Done:  E(UPBE1PBE) =  -3800.29714518     A.U. after   45 cycles
            NFock= 45  Conv=0.30D-08     -V/T= 2.0031
 <Sx>= 0.0000 <Sy>= 0.0000 <Sz>= 2.5000 <S**2>= 8.8299 S= 2.5133
 <L.S>= 0.000000000000E+00
 Annihilation of the first spin contaminant:
 S**2 before annihilation     8.8299,   after     8.7518

 **********************************************************************

            Population analysis using the SCF density.

 **********************************************************************

 Orbital symmetries:
 Alpha Orbitals:
       Occupied  (A) (A) (A) (A) (A) (A) (A) (A) (A) (A) (A) (A)
                 (A) (A) (A) (A) (A) (A) (A) (A) (A) (A) (A) (A)
                 (A) (A) (A) (A) (A) (A) (A) (A) (A) (A) (A) (A)
                 (A) (A) (A) (A) (A) (A) (A) (A) (A) (A) (A) (A)
                 (A) (A) (A) (A) (A) (A) (A) (A) (A) (A) (A) (A)
                 (A) (A) (A) (A) (A) (A) (A) (A) (A) (A) (A) (A)
                 (A) (A) (A) (A) (A) (A) (A) (A) (A) (A) (A) (A)
                 (A) (A) (A) (A) (A) (A) (A) (A) (A) (A) (A) (A)
                 (A) (A) (A) (A) (A) (A) (A) (A) (A) (A) (A) (A)
                 (A) (A) (A) (A) (A) (A) (A) (A) (A) (A) (A) (A)
                 (A) (A) (A) (A) (A) (A) (A) (A) (A) (A) (A) (A)
                 (A) (A) (A) (A) (A) (A) (A) (A) (A) (A) (A) (A)
                 (A) (A) (A) (A) (A) (A) (A) (A) (A) (A) (A) (A)
                 (A) (A) (A) (A) (A) (A) (A) (A) (A) (A) (A) (A)
                 (A) (A) (A) (A) (A) (A) (A) (A) (A) (A) (A) (A)
                 (A) (A) (A) (A) (A) (A) (A) (A) (A) (A) (A) (A)
                 (A) (A) (A) (A) (A) (A)
       Virtual   (A) (A) (A) (A) (A) (A) (A) (A) (A) (A) (A) (A)
                 (A) (A) (A) (A) (A) (A) (A) (A) (A) (A) (A) (A)
                 (A) (A) (A) (A) (A) (A) (A) (A) (A) (A) (A) (A)
                 (A) (A) (A) (A) (A) (A) (A) (A) (A) (A) (A) (A)
                 (A) (A) (A) (A) (A) (A) (A) (A) (A) (A) (A) (A)
                 (A) (A) (A) (A) (A) (A) (A) (A) (A) (A) (A) (A)
                 (A) (A) (A) (A) (A) (A) (A) (A) (A) (A) (A) (A)
                 (A) (A) (A) (A) (A) (A) (A) (A) (A) (A) (A) (A)
                 (A) (A) (A) (A) (A) (A) (A) (A) (A) (A) (A) (A)
                 (A) (A) (A) (A) (A) (A) (A) (A) (A) (A) (A) (A)
                 (A) (A) (A) (A) (A) (A) (A) (A) (A) (A) (A) (A)
                 (A) (A) (A) (A) (A) (A) (A) (A) (A) (A) (A) (A)
                 (A) (A) (A) (A) (A) (A) (A) (A) (A) (A) (A) (A)
                 (A) (A) (A) (A) (A) (A) (A) (A) (A) (A) (A) (A)
                 (A) (A) (A) (A) (A) (A) (A) (A) (A) (A) (A) (A)
                 (A) (A) (A) (A) (A) (A) (A) (A) (A) (A) (A) (A)
                 (A) (A) (A) (A) (A) (A) (A) (A) (A) (A) (A) (A)
                 (A) (A) (A) (A) (A) (A) (A) (A) (A) (A) (A) (A)
                 (A) (A) (A) (A) (A) (A) (A) (A) (A) (A) (A) (A)
                 (A) (A) (A) (A) (A) (A) (A) (A) (A) (A) (A) (A)
                 (A) (A) (A) (A) (A) (A) (A) (A) (A) (A) (A) (A)
                 (A) (A) (A) (A) (A) (A) (A) (A) (A) (A) (A) (A)
                 (A) (A) (A) (A) (A) (A) (A) (A) (A) (A) (A) (A)
                 (A) (A) (A) (A) (A) (A) (A) (A) (A) (A) (A) (A)
                 (A) (A) (A) (A) (A) (A) (A) (A) (A) (A) (A) (A)
                 (A) (A) (A) (A) (A) (A) (A) (A) (A) (A) (A) (A)
                 (A) (A) (A) (A) (A) (A) (A) (A) (A) (A) (A) (A)
                 (A) (A) (A) (A) (A) (A) (A) (A) (A) (A) (A) (A)
                 (A) (A) (A) (A) (A) (A) (A) (A) (A) (A) (A) (A)
                 (A) (A) (A) (A) (A) (A) (A) (A) (A) (A) (A) (A)
                 (A) (A) (A) (A) (A) (A) (A) (A) (A) (A) (A) (A)
                 (A) (A) (A) (A) (A) (A) (A) (A) (A) (A) (A) (A)
                 (A) (A) (A) (A) (A) (A) (A) (A) (A) (A) (A) (A)
                 (A) (A) (A) (A) (A) (A) (A) (A) (A) (A) (A) (A)
                 (A) (A) (A) (A) (A) (A) (A) (A) (A) (A) (A) (A)
                 (A) (A) (A) (A) (A) (A) (A) (A) (A) (A) (A) (A)
                 (A) (A) (A) (A) (A) (A) (A) (A) (A) (A) (A) (A)
                 (A) (A) (A) (A) (A) (A) (A) (A) (A) (A) (A) (A)
                 (A) (A) (A) (A) (A) (A) (A) (A) (A) (A) (A) (A)
                 (A) (A) (A) (A) (A) (A) (A) (A) (A) (A) (A) (A)
                 (A) (A) (A) (A) (A) (A) (A) (A) (A) (A) (A) (A)
                 (A) (A) (A) (A) (A) (A) (A) (A) (A) (A) (A) (A)
                 (A) (A) (A) (A) (A) (A) (A) (A) (A) (A) (A) (A)
                 (A) (A) (A) (A) (A) (A) (A) (A) (A) (A) (A) (A)
                 (A) (A) (A) (A) (A) (A) (A) (A) (A) (A) (A) (A)
                 (A) (A) (A) (A) (A) (A) (A) (A) (A) (A) (A) (A)
                 (A) (A) (A) (A) (A) (A) (A) (A) (A) (A) (A) (A)
                 (A) (A) (A) (A) (A) (A) (A) (A) (A) (A) (A) (A)
                 (A) (A) (A) (A) (A) (A) (A) (A) (A) (A) (A) (A)
                 (A) (A) (A) (A) (A) (A) (A) (A) (A) (A) (A) (A)
                 (A) (A) (A) (A) (A) (A) (A) (A) (A) (A) (A) (A)
                 (A) (A) (A) (A) (A) (A) (A) (A) (A) (A) (A) (A)
                 (A) (A) (A) (A) (A) (A) (A) (A) (A) (A) (A) (A)
                 (A) (A) (A) (A) (A) (A) (A) (A) (A) (A) (A) (A)
                 (A) (A) (A) (A) (A) (A) (A) (A) (A) (A) (A) (A)
                 (A) (A) (A) (A) (A) (A) (A) (A) (A) (A) (A) (A)
                 (A) (A) (A) (A) (A) (A) (A) (A) (A) (A) (A) (A)
                 (A) (A) (A) (A) (A) (A) (A) (A) (A) (A) (A) (A)
                 (A) (A) (A) (A) (A) (A) (A) (A) (A) (A) (A) (A)
                 (A) (A) (A) (A) (A) (A) (A) (A) (A) (A) (A) (A)
                 (A) (A) (A) (A) (A) (A) (A) (A) (A) (A) (A) (A)
                 (A) (A) (A) (A) (A) (A) (A) (A) (A) (A) (A) (A)
                 (A) (A) (A) (A) (A) (A) (A) (A) (A) (A) (A) (A)
                 (A) (A) (A) (A) (A) (A) (A) (A) (A) (A) (A) (A)
                 (A) (A) (A) (A) (A) (A) (A) (A) (A) (A) (A) (A)
                 (A) (A) (A) (A) (A) (A) (A) (A) (A) (A) (A) (A)
                 (A) (A) (A) (A) (A) (A) (A) (A) (A) (A) (A) (A)
                 (A) (A) (A) (A) (A) (A) (A) (A) (A) (A) (A) (A)
                 (A) (A) (A) (A) (A) (A) (A) (A) (A) (A) (A) (A)
                 (A) (A) (A) (A) (A) (A) (A) (A) (A) (A) (A) (A)
                 (A) (A) (A) (A) (A) (A) (A) (A) (A) (A) (A) (A)
                 (A) (A) (A) (A) (A) (A) (A) (A) (A) (A) (A) (A)
                 (A) (A) (A) (A) (A) (A) (A) (A) (A) (A) (A) (A)
                 (A) (A) (A) (A) (A) (A) (A) (A) (A) (A) (A) (A)
                 (A) (A) (A) (A) (A) (A) (A) (A) (A) (A) (A) (A)
                 (A) (A) (A) (A) (A) (A) (A) (A) (A) (A) (A) (A)
                 (A) (A) (A) (A) (A) (A) (A) (A) (A) (A) (A) (A)
                 (A) (A) (A) (A) (A) (A) (A) (A) (A) (A) (A) (A)
                 (A) (A) (A) (A) (A) (A) (A) (A) (A) (A) (A) (A)
                 (A) (A) (A) (A) (A) (A) (A) (A) (A) (A) (A) (A)
                 (A) (A) (A) (A) (A) (A) (A) (A) (A) (A) (A) (A)
                 (A) (A) (A) (A) (A) (A) (A) (A) (A) (A) (A) (A)
                 (A) (A) (A) (A) (A) (A) (A) (A) (A) (A) (A) (A)
                 (A) (A) (A) (A) (A) (A) (A) (A) (A) (A) (A) (A)
                 (A) (A) (A) (A) (A) (A) (A) (A) (A) (A) (A) (A)
                 (A) (A) (A) (A) (A) (A) (A) (A) (A) (A) (A) (A)
                 (A) (A) (A) (A) (A) (A) (A) (A) (A) (A) (A) (A)
                 (A) (A) (A) (A) (A) (A) (A) (A) (A) (A) (A) (A)
                 (A) (A) (A) (A) (A) (A) (A) (A) (A) (A) (A) (A)
                 (A) (A) (A) (A) (A) (A) (A) (A) (A) (A) (A) (A)
                 (A) (A) (A) (A) (A) (A) (A) (A) (A) (A) (A) (A)
                 (A) (A) (A) (A) (A) (A) (A) (A) (A) (A) (A) (A)
                 (A) (A) (A) (A) (A) (A) (A) (A) (A) (A) (A) (A)
                 (A) (A) (A) (A) (A) (A) (A) (A) (A) (A) (A) (A)
                 (A) (A) (A) (A) (A) (A) (A) (A) (A) (A) (A) (A)
                 (A) (A) (A) (A) (A) (A) (A) (A) (A) (A) (A) (A)
                 (A) (A) (A) (A) (A) (A) (A) (A) (A) (A) (A) (A)
                 (A) (A) (A) (A) (A) (A) (A) (A) (A) (A) (A) (A)
                 (A) (A) (A) (A) (A) (A) (A) (A) (A) (A) (A) (A)
                 (A) (A) (A) (A) (A) (A) (A) (A) (A) (A) (A) (A)
                 (A) (A) (A) (A) (A) (A) (A) (A) (A) (A) (A) (A)
                 (A) (A) (A) (A) (A) (A) (A) (A) (A) (A) (A) (A)
                 (A) (A) (A) (A) (A) (A) (A) (A) (A) (A) (A) (A)
                 (A) (A) (A) (A) (A) (A) (A) (A) (A) (A) (A) (A)
                 (A) (A) (A) (A) (A) (A) (A) (A) (A) (A) (A) (A)
                 (A) (A) (A) (A) (A) (A) (A) (A) (A) (A) (A) (A)
                 (A) (A) (A) (A) (A) (A) (A) (A) (A) (A) (A) (A)
                 (A) (A) (A) (A) (A) (A) (A) (A) (A) (A) (A) (A)
                 (A) (A) (A) (A) (A) (A) (A) (A) (A) (A) (A) (A)
                 (A) (A) (A) (A) (A) (A) (A) (A) (A) (A) (A) (A)
                 (A) (A) (A) (A) (A) (A) (A) (A) (A) (A) (A) (A)
                 (A) (A) (A) (A) (A) (A) (A) (A) (A) (A) (A) (A)
                 (A) (A) (A) (A) (A) (A) (A) (A) (A) (A) (A) (A)
                 (A) (A) (A) (A) (A) (A) (A) (A) (A) (A) (A) (A)
                 (A) (A) (A) (A) (A) (A) (A) (A) (A) (A) (A) (A)
                 (A) (A) (A) (A) (A) (A) (A) (A) (A) (A) (A) (A)
                 (A) (A) (A) (A) (A) (A) (A) (A) (A) (A) (A) (A)
                 (A) (A) (A) (A) (A) (A) (A) (A) (A) (A) (A) (A)
                 (A) (A) (A) (A) (A) (A) (A) (A) (A) (A) (A) (A)
                 (A) (A) (A) (A) (A) (A) (A) (A) (A) (A) (A) (A)
                 (A) (A) (A) (A) (A) (A) (A) (A) (A) (A) (A) (A)
                 (A) (A) (A) (A) (A) (A) (A) (A) (A) (A) (A) (A)
                 (A) (A) (A) (A) (A) (A) (A) (A) (A) (A) (A) (A)
                 (A) (A) (A) (A) (A) (A) (A) (A) (A) (A) (A) (A)
                 (A) (A) (A) (A) (A) (A) (A) (A) (A) (A) (A) (A)
                 (A) (A) (A) (A) (A) (A) (A) (A) (A) (A) (A) (A)
                 (A) (A) (A) (A) (A) (A) (A) (A) (A) (A) (A) (A)
                 (A) (A) (A) (A) (A) (A) (A) (A) (A) (A) (A) (A)
                 (A) (A) (A) (A) (A) (A) (A) (A) (A) (A) (A) (A)
                 (A) (A) (A) (A) (A) (A) (A) (A) (A) (A) (A) (A)
                 (A) (A) (A) (A) (A) (A) (A) (A) (A) (A) (A) (A)
                 (A) (A) (A) (A) (A) (A) (A) (A) (A) (A) (A) (A)
                 (A) (A) (A) (A) (A) (A) (A) (A) (A) (A) (A) (A)
                 (A) (A) (A) (A) (A) (A) (A) (A) (A) (A) (A) (A)
                 (A) (A) (A) (A) (A) (A) (A) (A) (A) (A) (A) (A)
                 (A) (A) (A) (A) (A) (A) (A) (A) (A) (A) (A) (A)
                 (A) (A) (A) (A) (A) (A) (A) (A) (A) (A) (A) (A)
                 (A) (A) (A) (A) (A) (A) (A) (A) (A) (A) (A)
 Beta  Orbitals:
       Occupied  (A) (A) (A) (A) (A) (A) (A) (A) (A) (A) (A) (A)
                 (A) (A) (A) (A) (A) (A) (A) (A) (A) (A) (A) (A)
                 (A) (A) (A) (A) (A) (A) (A) (A) (A) (A) (A) (A)
                 (A) (A) (A) (A) (A) (A) (A) (A) (A) (A) (A) (A)
                 (A) (A) (A) (A) (A) (A) (A) (A) (A) (A) (A) (A)
                 (A) (A) (A) (A) (A) (A) (A) (A) (A) (A) (A) (A)
                 (A) (A) (A) (A) (A) (A) (A) (A) (A) (A) (A) (A)
                 (A) (A) (A) (A) (A) (A) (A) (A) (A) (A) (A) (A)
                 (A) (A) (A) (A) (A) (A) (A) (A) (A) (A) (A) (A)
                 (A) (A) (A) (A) (A) (A) (A) (A) (A) (A) (A) (A)
                 (A) (A) (A) (A) (A) (A) (A) (A) (A) (A) (A) (A)
                 (A) (A) (A) (A) (A) (A) (A) (A) (A) (A) (A) (A)
                 (A) (A) (A) (A) (A) (A) (A) (A) (A) (A) (A) (A)
                 (A) (A) (A) (A) (A) (A) (A) (A) (A) (A) (A) (A)
                 (A) (A) (A) (A) (A) (A) (A) (A) (A) (A) (A) (A)
                 (A) (A) (A) (A) (A) (A) (A) (A) (A) (A) (A) (A)
                 (A)
       Virtual   (A) (A) (A) (A) (A) (A) (A) (A) (A) (A) (A) (A)
                 (A) (A) (A) (A) (A) (A) (A) (A) (A) (A) (A) (A)
                 (A) (A) (A) (A) (A) (A) (A) (A) (A) (A) (A) (A)
                 (A) (A) (A) (A) (A) (A) (A) (A) (A) (A) (A) (A)
                 (A) (A) (A) (A) (A) (A) (A) (A) (A) (A) (A) (A)
                 (A) (A) (A) (A) (A) (A) (A) (A) (A) (A) (A) (A)
                 (A) (A) (A) (A) (A) (A) (A) (A) (A) (A) (A) (A)
                 (A) (A) (A) (A) (A) (A) (A) (A) (A) (A) (A) (A)
                 (A) (A) (A) (A) (A) (A) (A) (A) (A) (A) (A) (A)
                 (A) (A) (A) (A) (A) (A) (A) (A) (A) (A) (A) (A)
                 (A) (A) (A) (A) (A) (A) (A) (A) (A) (A) (A) (A)
                 (A) (A) (A) (A) (A) (A) (A) (A) (A) (A) (A) (A)
                 (A) (A) (A) (A) (A) (A) (A) (A) (A) (A) (A) (A)
                 (A) (A) (A) (A) (A) (A) (A) (A) (A) (A) (A) (A)
                 (A) (A) (A) (A) (A) (A) (A) (A) (A) (A) (A) (A)
                 (A) (A) (A) (A) (A) (A) (A) (A) (A) (A) (A) (A)
                 (A) (A) (A) (A) (A) (A) (A) (A) (A) (A) (A) (A)
                 (A) (A) (A) (A) (A) (A) (A) (A) (A) (A) (A) (A)
                 (A) (A) (A) (A) (A) (A) (A) (A) (A) (A) (A) (A)
                 (A) (A) (A) (A) (A) (A) (A) (A) (A) (A) (A) (A)
                 (A) (A) (A) (A) (A) (A) (A) (A) (A) (A) (A) (A)
                 (A) (A) (A) (A) (A) (A) (A) (A) (A) (A) (A) (A)
                 (A) (A) (A) (A) (A) (A) (A) (A) (A) (A) (A) (A)
                 (A) (A) (A) (A) (A) (A) (A) (A) (A) (A) (A) (A)
                 (A) (A) (A) (A) (A) (A) (A) (A) (A) (A) (A) (A)
                 (A) (A) (A) (A) (A) (A) (A) (A) (A) (A) (A) (A)
                 (A) (A) (A) (A) (A) (A) (A) (A) (A) (A) (A) (A)
                 (A) (A) (A) (A) (A) (A) (A) (A) (A) (A) (A) (A)
                 (A) (A) (A) (A) (A) (A) (A) (A) (A) (A) (A) (A)
                 (A) (A) (A) (A) (A) (A) (A) (A) (A) (A) (A) (A)
                 (A) (A) (A) (A) (A) (A) (A) (A) (A) (A) (A) (A)
                 (A) (A) (A) (A) (A) (A) (A) (A) (A) (A) (A) (A)
                 (A) (A) (A) (A) (A) (A) (A) (A) (A) (A) (A) (A)
                 (A) (A) (A) (A) (A) (A) (A) (A) (A) (A) (A) (A)
                 (A) (A) (A) (A) (A) (A) (A) (A) (A) (A) (A) (A)
                 (A) (A) (A) (A) (A) (A) (A) (A) (A) (A) (A) (A)
                 (A) (A) (A) (A) (A) (A) (A) (A) (A) (A) (A) (A)
                 (A) (A) (A) (A) (A) (A) (A) (A) (A) (A) (A) (A)
                 (A) (A) (A) (A) (A) (A) (A) (A) (A) (A) (A) (A)
                 (A) (A) (A) (A) (A) (A) (A) (A) (A) (A) (A) (A)
                 (A) (A) (A) (A) (A) (A) (A) (A) (A) (A) (A) (A)
                 (A) (A) (A) (A) (A) (A) (A) (A) (A) (A) (A) (A)
                 (A) (A) (A) (A) (A) (A) (A) (A) (A) (A) (A) (A)
                 (A) (A) (A) (A) (A) (A) (A) (A) (A) (A) (A) (A)
                 (A) (A) (A) (A) (A) (A) (A) (A) (A) (A) (A) (A)
                 (A) (A) (A) (A) (A) (A) (A) (A) (A) (A) (A) (A)
                 (A) (A) (A) (A) (A) (A) (A) (A) (A) (A) (A) (A)
                 (A) (A) (A) (A) (A) (A) (A) (A) (A) (A) (A) (A)
                 (A) (A) (A) (A) (A) (A) (A) (A) (A) (A) (A) (A)
                 (A) (A) (A) (A) (A) (A) (A) (A) (A) (A) (A) (A)
                 (A) (A) (A) (A) (A) (A) (A) (A) (A) (A) (A) (A)
                 (A) (A) (A) (A) (A) (A) (A) (A) (A) (A) (A) (A)
                 (A) (A) (A) (A) (A) (A) (A) (A) (A) (A) (A) (A)
                 (A) (A) (A) (A) (A) (A) (A) (A) (A) (A) (A) (A)
                 (A) (A) (A) (A) (A) (A) (A) (A) (A) (A) (A) (A)
                 (A) (A) (A) (A) (A) (A) (A) (A) (A) (A) (A) (A)
                 (A) (A) (A) (A) (A) (A) (A) (A) (A) (A) (A) (A)
                 (A) (A) (A) (A) (A) (A) (A) (A) (A) (A) (A) (A)
                 (A) (A) (A) (A) (A) (A) (A) (A) (A) (A) (A) (A)
                 (A) (A) (A) (A) (A) (A) (A) (A) (A) (A) (A) (A)
                 (A) (A) (A) (A) (A) (A) (A) (A) (A) (A) (A) (A)
                 (A) (A) (A) (A) (A) (A) (A) (A) (A) (A) (A) (A)
                 (A) (A) (A) (A) (A) (A) (A) (A) (A) (A) (A) (A)
                 (A) (A) (A) (A) (A) (A) (A) (A) (A) (A) (A) (A)
                 (A) (A) (A) (A) (A) (A) (A) (A) (A) (A) (A) (A)
                 (A) (A) (A) (A) (A) (A) (A) (A) (A) (A) (A) (A)
                 (A) (A) (A) (A) (A) (A) (A) (A) (A) (A) (A) (A)
                 (A) (A) (A) (A) (A) (A) (A) (A) (A) (A) (A) (A)
                 (A) (A) (A) (A) (A) (A) (A) (A) (A) (A) (A) (A)
                 (A) (A) (A) (A) (A) (A) (A) (A) (A) (A) (A) (A)
                 (A) (A) (A) (A) (A) (A) (A) (A) (A) (A) (A) (A)
                 (A) (A) (A) (A) (A) (A) (A) (A) (A) (A) (A) (A)
                 (A) (A) (A) (A) (A) (A) (A) (A) (A) (A) (A) (A)
                 (A) (A) (A) (A) (A) (A) (A) (A) (A) (A) (A) (A)
                 (A) (A) (A) (A) (A) (A) (A) (A) (A) (A) (A) (A)
                 (A) (A) (A) (A) (A) (A) (A) (A) (A) (A) (A) (A)
                 (A) (A) (A) (A) (A) (A) (A) (A) (A) (A) (A) (A)
                 (A) (A) (A) (A) (A) (A) (A) (A) (A) (A) (A) (A)
                 (A) (A) (A) (A) (A) (A) (A) (A) (A) (A) (A) (A)
                 (A) (A) (A) (A) (A) (A) (A) (A) (A) (A) (A) (A)
                 (A) (A) (A) (A) (A) (A) (A) (A) (A) (A) (A) (A)
                 (A) (A) (A) (A) (A) (A) (A) (A) (A) (A) (A) (A)
                 (A) (A) (A) (A) (A) (A) (A) (A) (A) (A) (A) (A)
                 (A) (A) (A) (A) (A) (A) (A) (A) (A) (A) (A) (A)
                 (A) (A) (A) (A) (A) (A) (A) (A) (A) (A) (A) (A)
                 (A) (A) (A) (A) (A) (A) (A) (A) (A) (A) (A) (A)
                 (A) (A) (A) (A) (A) (A) (A) (A) (A) (A) (A) (A)
                 (A) (A) (A) (A) (A) (A) (A) (A) (A) (A) (A) (A)
                 (A) (A) (A) (A) (A) (A) (A) (A) (A) (A) (A) (A)
                 (A) (A) (A) (A) (A) (A) (A) (A) (A) (A) (A) (A)
                 (A) (A) (A) (A) (A) (A) (A) (A) (A) (A) (A) (A)
                 (A) (A) (A) (A) (A) (A) (A) (A) (A) (A) (A) (A)
                 (A) (A) (A) (A) (A) (A) (A) (A) (A) (A) (A) (A)
                 (A) (A) (A) (A) (A) (A) (A) (A) (A) (A) (A) (A)
                 (A) (A) (A) (A) (A) (A) (A) (A) (A) (A) (A) (A)
                 (A) (A) (A) (A) (A) (A) (A) (A) (A) (A) (A) (A)
                 (A) (A) (A) (A) (A) (A) (A) (A) (A) (A) (A) (A)
                 (A) (A) (A) (A) (A) (A) (A) (A) (A) (A) (A) (A)
                 (A) (A) (A) (A) (A) (A) (A) (A) (A) (A) (A) (A)
                 (A) (A) (A) (A) (A) (A) (A) (A) (A) (A) (A) (A)
                 (A) (A) (A) (A) (A) (A) (A) (A) (A) (A) (A) (A)
                 (A) (A) (A) (A) (A) (A) (A) (A) (A) (A) (A) (A)
                 (A) (A) (A) (A) (A) (A) (A) (A) (A) (A) (A) (A)
                 (A) (A) (A) (A) (A) (A) (A) (A) (A) (A) (A) (A)
                 (A) (A) (A) (A) (A) (A) (A) (A) (A) (A) (A) (A)
                 (A) (A) (A) (A) (A) (A) (A) (A) (A) (A) (A) (A)
                 (A) (A) (A) (A) (A) (A) (A) (A) (A) (A) (A) (A)
                 (A) (A) (A) (A) (A) (A) (A) (A) (A) (A) (A) (A)
                 (A) (A) (A) (A) (A) (A) (A) (A) (A) (A) (A) (A)
                 (A) (A) (A) (A) (A) (A) (A) (A) (A) (A) (A) (A)
                 (A) (A) (A) (A) (A) (A) (A) (A) (A) (A) (A) (A)
                 (A) (A) (A) (A) (A) (A) (A) (A) (A) (A) (A) (A)
                 (A) (A) (A) (A) (A) (A) (A) (A) (A) (A) (A) (A)
                 (A) (A) (A) (A) (A) (A) (A) (A) (A) (A) (A) (A)
                 (A) (A) (A) (A) (A) (A) (A) (A) (A) (A) (A) (A)
                 (A) (A) (A) (A) (A) (A) (A) (A) (A) (A) (A) (A)
                 (A) (A) (A) (A) (A) (A) (A) (A) (A) (A) (A) (A)
                 (A) (A) (A) (A) (A) (A) (A) (A) (A) (A) (A) (A)
                 (A) (A) (A) (A) (A) (A) (A) (A) (A) (A) (A) (A)
                 (A) (A) (A) (A) (A) (A) (A) (A) (A) (A) (A) (A)
                 (A) (A) (A) (A) (A) (A) (A) (A) (A) (A) (A) (A)
                 (A) (A) (A) (A) (A) (A) (A) (A) (A) (A) (A) (A)
                 (A) (A) (A) (A) (A) (A) (A) (A) (A) (A) (A) (A)
                 (A) (A) (A) (A) (A) (A) (A) (A) (A) (A) (A) (A)
                 (A) (A) (A) (A) (A) (A) (A) (A) (A) (A) (A) (A)
                 (A) (A) (A) (A) (A) (A) (A) (A) (A) (A) (A) (A)
                 (A) (A) (A) (A) (A) (A) (A) (A) (A) (A) (A) (A)
                 (A) (A) (A) (A) (A) (A) (A) (A) (A) (A) (A) (A)
                 (A) (A) (A) (A) (A) (A) (A) (A) (A) (A) (A) (A)
                 (A) (A) (A) (A) (A) (A) (A) (A) (A) (A) (A) (A)
                 (A) (A) (A) (A) (A) (A) (A) (A) (A) (A) (A) (A)
                 (A) (A) (A) (A) (A) (A) (A) (A) (A) (A) (A) (A)
                 (A) (A) (A) (A) (A) (A) (A) (A) (A) (A) (A) (A)
                 (A) (A) (A) (A) (A) (A) (A) (A) (A) (A) (A) (A)
                 (A) (A) (A) (A) (A) (A) (A) (A) (A) (A) (A) (A)
                 (A) (A) (A) (A) (A) (A) (A) (A) (A) (A) (A) (A)
                 (A) (A) (A) (A) (A) (A) (A) (A) (A) (A) (A) (A)
                 (A) (A) (A) (A) (A) (A) (A) (A) (A) (A) (A) (A)
                 (A) (A) (A) (A)
 The electronic state is 6-A.
 Alpha  occ. eigenvalues -- -256.53868 -89.13252 -30.34205 -26.17240 -26.16209
 Alpha  occ. eigenvalues --  -26.15239 -19.35503 -19.32670 -19.26378 -19.24674
 Alpha  occ. eigenvalues --  -14.55037 -14.51187 -14.50684 -14.50560 -14.50291
 Alpha  occ. eigenvalues --  -14.49317 -10.43183 -10.42990 -10.38725 -10.37376
 Alpha  occ. eigenvalues --  -10.37338 -10.37069 -10.36721 -10.36685 -10.36639
 Alpha  occ. eigenvalues --  -10.36464 -10.36206 -10.36142 -10.35597 -10.35219
 Alpha  occ. eigenvalues --  -10.35112 -10.34594 -10.34528 -10.34466 -10.34437
 Alpha  occ. eigenvalues --  -10.34433 -10.34382 -10.34244 -10.33649 -10.33639
 Alpha  occ. eigenvalues --  -10.33564 -10.33288 -10.33279 -10.33221 -10.33059
 Alpha  occ. eigenvalues --  -10.32883 -10.32761 -10.32449 -10.32435 -10.31716
 Alpha  occ. eigenvalues --  -10.31600 -10.30930 -10.30816 -10.30743 -10.30564
 Alpha  occ. eigenvalues --   -8.11725  -6.05385  -6.04965  -6.04719  -3.73746
 Alpha  occ. eigenvalues --   -2.52816  -2.48642  -2.47755  -1.25545  -1.22170
 Alpha  occ. eigenvalues --   -1.17144  -1.10733  -1.10621  -1.09894  -1.09273
 Alpha  occ. eigenvalues --   -1.09139  -1.08112  -1.01483  -0.96159  -0.95724
 Alpha  occ. eigenvalues --   -0.94109  -0.93536  -0.92857  -0.92445  -0.92117
 Alpha  occ. eigenvalues --   -0.91730  -0.91357  -0.89350  -0.88951  -0.87445
 Alpha  occ. eigenvalues --   -0.86514  -0.85137  -0.83729  -0.83393  -0.82428
 Alpha  occ. eigenvalues --   -0.82105  -0.81889  -0.81060  -0.80183  -0.79008
 Alpha  occ. eigenvalues --   -0.78261  -0.77438  -0.77032  -0.76285  -0.75242
 Alpha  occ. eigenvalues --   -0.73333  -0.72953  -0.72702  -0.71547  -0.70956
 Alpha  occ. eigenvalues --   -0.70122  -0.67563  -0.66959  -0.66551  -0.66129
 Alpha  occ. eigenvalues --   -0.65669  -0.64015  -0.63609  -0.63379  -0.63149
 Alpha  occ. eigenvalues --   -0.62565  -0.61378  -0.60704  -0.60233  -0.59713
 Alpha  occ. eigenvalues --   -0.59491  -0.58624  -0.58409  -0.58190  -0.57371
 Alpha  occ. eigenvalues --   -0.57158  -0.56868  -0.56303  -0.56036  -0.55599
 Alpha  occ. eigenvalues --   -0.55345  -0.55228  -0.55090  -0.55022  -0.54982
 Alpha  occ. eigenvalues --   -0.54755  -0.54318  -0.54140  -0.53979  -0.53823
 Alpha  occ. eigenvalues --   -0.53713  -0.53415  -0.53110  -0.52911  -0.52853
 Alpha  occ. eigenvalues --   -0.52504  -0.52290  -0.52128  -0.51890  -0.51855
 Alpha  occ. eigenvalues --   -0.51297  -0.51111  -0.50845  -0.50804  -0.50343
 Alpha  occ. eigenvalues --   -0.50333  -0.50054  -0.50037  -0.49848  -0.49579
 Alpha  occ. eigenvalues --   -0.49333  -0.49155  -0.48857  -0.48672  -0.48506
 Alpha  occ. eigenvalues --   -0.48380  -0.47305  -0.47041  -0.46660  -0.46356
 Alpha  occ. eigenvalues --   -0.46212  -0.45757  -0.45667  -0.45281  -0.44651
 Alpha  occ. eigenvalues --   -0.44369  -0.44259  -0.42812  -0.41384  -0.41246
 Alpha  occ. eigenvalues --   -0.40503  -0.40093  -0.39964  -0.39482  -0.37891
 Alpha  occ. eigenvalues --   -0.37550  -0.36513  -0.36073  -0.35645  -0.34797
 Alpha  occ. eigenvalues --   -0.34576  -0.34404  -0.33969  -0.32871  -0.31562
 Alpha  occ. eigenvalues --   -0.30949  -0.29465  -0.28816
 Alpha virt. eigenvalues --   -0.20881  -0.19593  -0.18288  -0.16674  -0.11537
 Alpha virt. eigenvalues --   -0.08997  -0.08715  -0.08232  -0.07370  -0.07025
 Alpha virt. eigenvalues --   -0.06241  -0.06133  -0.05434  -0.05210  -0.04680
 Alpha virt. eigenvalues --   -0.04371  -0.04092  -0.03517  -0.03237  -0.03007
 Alpha virt. eigenvalues --   -0.02839  -0.02307  -0.02057  -0.01829  -0.01488
 Alpha virt. eigenvalues --   -0.01359  -0.00990  -0.00621  -0.00251   0.00115
 Alpha virt. eigenvalues --    0.00557   0.00745   0.01000   0.01154   0.01375
 Alpha virt. eigenvalues --    0.01645   0.01861   0.02050   0.02472   0.02523
 Alpha virt. eigenvalues --    0.02739   0.02982   0.03135   0.03289   0.03885
 Alpha virt. eigenvalues --    0.04039   0.04157   0.04502   0.04598   0.04703
 Alpha virt. eigenvalues --    0.04878   0.05107   0.05217   0.05369   0.05619
 Alpha virt. eigenvalues --    0.05888   0.06102   0.06245   0.06305   0.06487
 Alpha virt. eigenvalues --    0.06692   0.06756   0.07047   0.07317   0.07427
 Alpha virt. eigenvalues --    0.07748   0.08133   0.08223   0.08441   0.08615
 Alpha virt. eigenvalues --    0.08736   0.09070   0.09202   0.09477   0.09664
 Alpha virt. eigenvalues --    0.09872   0.10149   0.10499   0.10636   0.10841
 Alpha virt. eigenvalues --    0.11157   0.11468   0.11744   0.11862   0.11923
 Alpha virt. eigenvalues --    0.12243   0.12565   0.12763   0.13031   0.13077
 Alpha virt. eigenvalues --    0.13251   0.13485   0.13712   0.13748   0.13888
 Alpha virt. eigenvalues --    0.14250   0.14359   0.14691   0.14784   0.15105
 Alpha virt. eigenvalues --    0.15202   0.15466   0.15653   0.15793   0.15915
 Alpha virt. eigenvalues --    0.16109   0.16393   0.16527   0.16767   0.16991
 Alpha virt. eigenvalues --    0.17131   0.17211   0.17332   0.17669   0.17852
 Alpha virt. eigenvalues --    0.17958   0.18055   0.18413   0.18574   0.18753
 Alpha virt. eigenvalues --    0.19095   0.19498   0.19668   0.19940   0.20267
 Alpha virt. eigenvalues --    0.20366   0.20551   0.20835   0.21045   0.21233
 Alpha virt. eigenvalues --    0.21443   0.21671   0.22046   0.22315   0.22447
 Alpha virt. eigenvalues --    0.22603   0.22866   0.23125   0.23289   0.23674
 Alpha virt. eigenvalues --    0.24003   0.24123   0.24274   0.24434   0.24548
 Alpha virt. eigenvalues --    0.25072   0.25437   0.25681   0.25955   0.26081
 Alpha virt. eigenvalues --    0.26137   0.26384   0.26450   0.26742   0.26897
 Alpha virt. eigenvalues --    0.27221   0.27524   0.27671   0.27771   0.28031
 Alpha virt. eigenvalues --    0.28128   0.28397   0.28731   0.28950   0.29284
 Alpha virt. eigenvalues --    0.29346   0.29795   0.30018   0.30115   0.30454
 Alpha virt. eigenvalues --    0.30544   0.30787   0.31133   0.31154   0.31401
 Alpha virt. eigenvalues --    0.31535   0.31567   0.31924   0.32316   0.32665
 Alpha virt. eigenvalues --    0.32736   0.33166   0.33322   0.33568   0.33705
 Alpha virt. eigenvalues --    0.33995   0.34121   0.34331   0.34483   0.34765
 Alpha virt. eigenvalues --    0.34897   0.35156   0.35266   0.35442   0.35668
 Alpha virt. eigenvalues --    0.35935   0.36090   0.36174   0.36367   0.36473
 Alpha virt. eigenvalues --    0.36571   0.37048   0.37195   0.37380   0.37510
 Alpha virt. eigenvalues --    0.37742   0.37819   0.37971   0.38304   0.38368
 Alpha virt. eigenvalues --    0.38567   0.38735   0.38781   0.39084   0.39197
 Alpha virt. eigenvalues --    0.39377   0.39438   0.39563   0.39577   0.39793
 Alpha virt. eigenvalues --    0.40015   0.40061   0.40353   0.40555   0.40683
 Alpha virt. eigenvalues --    0.40799   0.40965   0.41179   0.41496   0.41611
 Alpha virt. eigenvalues --    0.42149   0.42244   0.42391   0.42469   0.42616
 Alpha virt. eigenvalues --    0.42823   0.42896   0.43140   0.43214   0.43438
 Alpha virt. eigenvalues --    0.43755   0.43889   0.44113   0.44142   0.44509
 Alpha virt. eigenvalues --    0.44561   0.44974   0.45146   0.45194   0.45230
 Alpha virt. eigenvalues --    0.45728   0.45924   0.46043   0.46299   0.46613
 Alpha virt. eigenvalues --    0.46758   0.46823   0.47037   0.47469   0.47639
 Alpha virt. eigenvalues --    0.48001   0.48431   0.48706   0.48982   0.49176
 Alpha virt. eigenvalues --    0.49488   0.49795   0.50030   0.50046   0.50313
 Alpha virt. eigenvalues --    0.50543   0.50621   0.50903   0.50973   0.51255
 Alpha virt. eigenvalues --    0.51618   0.51931   0.52062   0.52133   0.52536
 Alpha virt. eigenvalues --    0.52720   0.53152   0.53457   0.53763   0.53927
 Alpha virt. eigenvalues --    0.54261   0.54692   0.54860   0.55033   0.55147
 Alpha virt. eigenvalues --    0.55327   0.55948   0.56177   0.56493   0.56646
 Alpha virt. eigenvalues --    0.56736   0.57383   0.57564   0.57902   0.58047
 Alpha virt. eigenvalues --    0.58333   0.58655   0.58749   0.58831   0.59082
 Alpha virt. eigenvalues --    0.59470   0.59554   0.59902   0.60162   0.60676
 Alpha virt. eigenvalues --    0.60811   0.60924   0.61393   0.61695   0.62011
 Alpha virt. eigenvalues --    0.62117   0.62409   0.62670   0.62963   0.63151
 Alpha virt. eigenvalues --    0.63369   0.63602   0.63794   0.64127   0.64789
 Alpha virt. eigenvalues --    0.64847   0.65224   0.65496   0.65882   0.66066
 Alpha virt. eigenvalues --    0.66188   0.67027   0.67189   0.67460   0.67875
 Alpha virt. eigenvalues --    0.68026   0.68300   0.68554   0.68768   0.69224
 Alpha virt. eigenvalues --    0.69319   0.69775   0.69921   0.70331   0.70624
 Alpha virt. eigenvalues --    0.70731   0.71184   0.71744   0.71830   0.71900
 Alpha virt. eigenvalues --    0.72317   0.72503   0.72643   0.73135   0.73214
 Alpha virt. eigenvalues --    0.73653   0.74426   0.74539   0.74763   0.75093
 Alpha virt. eigenvalues --    0.75267   0.75548   0.76136   0.76172   0.76541
 Alpha virt. eigenvalues --    0.76873   0.77209   0.77422   0.77877   0.78022
 Alpha virt. eigenvalues --    0.78594   0.78841   0.79273   0.79378   0.79962
 Alpha virt. eigenvalues --    0.80252   0.80556   0.80805   0.81185   0.81344
 Alpha virt. eigenvalues --    0.81406   0.81580   0.82158   0.82673   0.82769
 Alpha virt. eigenvalues --    0.83051   0.83164   0.83411   0.83671   0.83921
 Alpha virt. eigenvalues --    0.84310   0.84415   0.84704   0.84884   0.85297
 Alpha virt. eigenvalues --    0.85811   0.85922   0.86086   0.86338   0.86489
 Alpha virt. eigenvalues --    0.87138   0.87477   0.87520   0.87787   0.87924
 Alpha virt. eigenvalues --    0.88099   0.88370   0.88622   0.88764   0.88869
 Alpha virt. eigenvalues --    0.89487   0.89670   0.89982   0.90095   0.90607
 Alpha virt. eigenvalues --    0.91049   0.91318   0.91570   0.91699   0.92103
 Alpha virt. eigenvalues --    0.92298   0.92753   0.93068   0.93401   0.93497
 Alpha virt. eigenvalues --    0.93850   0.93878   0.94173   0.94559   0.94905
 Alpha virt. eigenvalues --    0.95241   0.95605   0.95835   0.95993   0.96184
 Alpha virt. eigenvalues --    0.96416   0.96932   0.97418   0.97462   0.97728
 Alpha virt. eigenvalues --    0.98153   0.98439   0.98729   0.99218   0.99582
 Alpha virt. eigenvalues --    0.99671   0.99976   1.00581   1.00707   1.01040
 Alpha virt. eigenvalues --    1.01373   1.01472   1.02249   1.02281   1.02835
 Alpha virt. eigenvalues --    1.02948   1.03502   1.03751   1.04060   1.04453
 Alpha virt. eigenvalues --    1.04887   1.05240   1.05728   1.06068   1.06238
 Alpha virt. eigenvalues --    1.06560   1.06801   1.07301   1.07605   1.07640
 Alpha virt. eigenvalues --    1.08453   1.08718   1.09089   1.09531   1.10200
 Alpha virt. eigenvalues --    1.10369   1.11003   1.11395   1.11890   1.12167
 Alpha virt. eigenvalues --    1.12602   1.12757   1.13006   1.13348   1.13572
 Alpha virt. eigenvalues --    1.13864   1.14184   1.14779   1.15206   1.15264
 Alpha virt. eigenvalues --    1.15742   1.16233   1.16446   1.16696   1.17215
 Alpha virt. eigenvalues --    1.17520   1.17854   1.17938   1.18014   1.18620
 Alpha virt. eigenvalues --    1.18786   1.19092   1.19414   1.19557   1.20007
 Alpha virt. eigenvalues --    1.20530   1.20874   1.21401   1.22177   1.22222
 Alpha virt. eigenvalues --    1.22426   1.22800   1.23373   1.23739   1.24208
 Alpha virt. eigenvalues --    1.24399   1.24620   1.24860   1.25743   1.26033
 Alpha virt. eigenvalues --    1.26956   1.27384   1.27634   1.27927   1.29257
 Alpha virt. eigenvalues --    1.29346   1.29464   1.30028   1.30096   1.30649
 Alpha virt. eigenvalues --    1.31785   1.32344   1.32596   1.32844   1.33069
 Alpha virt. eigenvalues --    1.33264   1.33506   1.34080   1.35211   1.35331
 Alpha virt. eigenvalues --    1.35563   1.35956   1.36333   1.36564   1.37122
 Alpha virt. eigenvalues --    1.37299   1.37549   1.37936   1.38415   1.38698
 Alpha virt. eigenvalues --    1.39106   1.39346   1.39435   1.39660   1.40176
 Alpha virt. eigenvalues --    1.40400   1.40651   1.41000   1.41131   1.41201
 Alpha virt. eigenvalues --    1.41930   1.42154   1.42302   1.42710   1.42799
 Alpha virt. eigenvalues --    1.43166   1.43285   1.43411   1.44082   1.44308
 Alpha virt. eigenvalues --    1.44442   1.44656   1.44954   1.45285   1.45426
 Alpha virt. eigenvalues --    1.45438   1.45989   1.46303   1.46414   1.46856
 Alpha virt. eigenvalues --    1.47052   1.47266   1.47519   1.47643   1.47864
 Alpha virt. eigenvalues --    1.48009   1.48359   1.48960   1.49053   1.49184
 Alpha virt. eigenvalues --    1.49800   1.50014   1.50220   1.50375   1.50411
 Alpha virt. eigenvalues --    1.50641   1.51202   1.51501   1.51791   1.51924
 Alpha virt. eigenvalues --    1.52224   1.52329   1.52588   1.53039   1.53273
 Alpha virt. eigenvalues --    1.53649   1.54037   1.54327   1.54397   1.54775
 Alpha virt. eigenvalues --    1.54938   1.55237   1.55420   1.55777   1.56004
 Alpha virt. eigenvalues --    1.56234   1.56568   1.56696   1.57175   1.57433
 Alpha virt. eigenvalues --    1.57655   1.58145   1.58521   1.58615   1.58903
 Alpha virt. eigenvalues --    1.59422   1.59509   1.59615   1.60136   1.60547
 Alpha virt. eigenvalues --    1.60694   1.60830   1.61056   1.61614   1.61738
 Alpha virt. eigenvalues --    1.61926   1.62205   1.62540   1.62980   1.63378
 Alpha virt. eigenvalues --    1.63775   1.64226   1.64435   1.64701   1.64947
 Alpha virt. eigenvalues --    1.65481   1.65696   1.65995   1.66079   1.66685
 Alpha virt. eigenvalues --    1.67111   1.67452   1.68023   1.68423   1.68804
 Alpha virt. eigenvalues --    1.69388   1.69567   1.70045   1.70690   1.70786
 Alpha virt. eigenvalues --    1.71044   1.71385   1.71744   1.72121   1.72267
 Alpha virt. eigenvalues --    1.73003   1.73109   1.73418   1.73940   1.74090
 Alpha virt. eigenvalues --    1.74412   1.74699   1.75278   1.75532   1.75845
 Alpha virt. eigenvalues --    1.75981   1.76521   1.76636   1.76845   1.77973
 Alpha virt. eigenvalues --    1.78062   1.78267   1.78669   1.79080   1.79536
 Alpha virt. eigenvalues --    1.79636   1.79849   1.80607   1.80813   1.81322
 Alpha virt. eigenvalues --    1.81523   1.81996   1.82277   1.82434   1.82627
 Alpha virt. eigenvalues --    1.83060   1.83495   1.83520   1.84064   1.84298
 Alpha virt. eigenvalues --    1.85061   1.85311   1.85374   1.85776   1.85915
 Alpha virt. eigenvalues --    1.86391   1.87081   1.87493   1.87796   1.88160
 Alpha virt. eigenvalues --    1.88341   1.89066   1.89172   1.89704   1.90010
 Alpha virt. eigenvalues --    1.90219   1.90352   1.90845   1.91116   1.91795
 Alpha virt. eigenvalues --    1.91924   1.92206   1.92591   1.92762   1.92852
 Alpha virt. eigenvalues --    1.93574   1.93817   1.94031   1.94751   1.94949
 Alpha virt. eigenvalues --    1.95388   1.95579   1.96079   1.96563   1.96913
 Alpha virt. eigenvalues --    1.97256   1.97471   1.97968   1.98084   1.98323
 Alpha virt. eigenvalues --    1.98986   1.99321   1.99656   2.00148   2.00462
 Alpha virt. eigenvalues --    2.01053   2.01444   2.01586   2.02009   2.02488
 Alpha virt. eigenvalues --    2.02672   2.03151   2.03326   2.03980   2.04324
 Alpha virt. eigenvalues --    2.04575   2.04965   2.05247   2.05559   2.05836
 Alpha virt. eigenvalues --    2.06259   2.06617   2.06797   2.07026   2.07328
 Alpha virt. eigenvalues --    2.07726   2.07962   2.08618   2.08795   2.09189
 Alpha virt. eigenvalues --    2.09621   2.09903   2.10276   2.10485   2.11219
 Alpha virt. eigenvalues --    2.11327   2.11808   2.11945   2.12293   2.12587
 Alpha virt. eigenvalues --    2.13331   2.13717   2.13895   2.14728   2.14975
 Alpha virt. eigenvalues --    2.15502   2.15695   2.16124   2.16490   2.17094
 Alpha virt. eigenvalues --    2.17216   2.17392   2.18109   2.18196   2.18717
 Alpha virt. eigenvalues --    2.18939   2.19538   2.19884   2.20462   2.21024
 Alpha virt. eigenvalues --    2.21339   2.21675   2.21854   2.22142   2.22919
 Alpha virt. eigenvalues --    2.23349   2.23393   2.23892   2.24495   2.25073
 Alpha virt. eigenvalues --    2.25186   2.25278   2.25677   2.26249   2.26599
 Alpha virt. eigenvalues --    2.27149   2.27388   2.27543   2.27880   2.28063
 Alpha virt. eigenvalues --    2.28561   2.28768   2.29240   2.29357   2.29644
 Alpha virt. eigenvalues --    2.29974   2.30206   2.30958   2.31217   2.31522
 Alpha virt. eigenvalues --    2.31897   2.32294   2.32710   2.33096   2.33423
 Alpha virt. eigenvalues --    2.33620   2.34055   2.34318   2.34886   2.35377
 Alpha virt. eigenvalues --    2.35867   2.35919   2.36159   2.36802   2.37543
 Alpha virt. eigenvalues --    2.37755   2.38042   2.38200   2.38902   2.38960
 Alpha virt. eigenvalues --    2.39362   2.39704   2.40515   2.40976   2.41522
 Alpha virt. eigenvalues --    2.41773   2.42080   2.42408   2.42773   2.43151
 Alpha virt. eigenvalues --    2.43235   2.43527   2.44023   2.44431   2.44990
 Alpha virt. eigenvalues --    2.45121   2.45910   2.46357   2.46425   2.46830
 Alpha virt. eigenvalues --    2.47244   2.47460   2.47714   2.48048   2.48178
 Alpha virt. eigenvalues --    2.48607   2.48942   2.49032   2.49341   2.49544
 Alpha virt. eigenvalues --    2.49934   2.50273   2.50489   2.50602   2.50972
 Alpha virt. eigenvalues --    2.51160   2.51681   2.51916   2.52143   2.52673
 Alpha virt. eigenvalues --    2.52838   2.53198   2.53456   2.53970   2.54234
 Alpha virt. eigenvalues --    2.54571   2.54682   2.55064   2.55632   2.55884
 Alpha virt. eigenvalues --    2.56313   2.56651   2.57312   2.57658   2.57914
 Alpha virt. eigenvalues --    2.58306   2.58367   2.58718   2.58907   2.59396
 Alpha virt. eigenvalues --    2.59716   2.60164   2.60415   2.61040   2.61223
 Alpha virt. eigenvalues --    2.61688   2.61902   2.61963   2.62850   2.63030
 Alpha virt. eigenvalues --    2.63420   2.63754   2.64338   2.64399   2.64834
 Alpha virt. eigenvalues --    2.65015   2.65622   2.65886   2.66056   2.66807
 Alpha virt. eigenvalues --    2.67007   2.67219   2.67781   2.67973   2.68089
 Alpha virt. eigenvalues --    2.68519   2.68919   2.68989   2.69092   2.69292
 Alpha virt. eigenvalues --    2.69570   2.70437   2.70460   2.70934   2.71103
 Alpha virt. eigenvalues --    2.71224   2.71864   2.72001   2.72350   2.72557
 Alpha virt. eigenvalues --    2.73053   2.73288   2.74018   2.74549   2.74759
 Alpha virt. eigenvalues --    2.75314   2.75528   2.75855   2.76446   2.76681
 Alpha virt. eigenvalues --    2.77019   2.77239   2.78033   2.78275   2.78796
 Alpha virt. eigenvalues --    2.79353   2.79597   2.79879   2.80039   2.80543
 Alpha virt. eigenvalues --    2.80922   2.81221   2.81677   2.81998   2.82376
 Alpha virt. eigenvalues --    2.82879   2.82920   2.83217   2.83660   2.83791
 Alpha virt. eigenvalues --    2.84403   2.84484   2.84829   2.85025   2.85320
 Alpha virt. eigenvalues --    2.85620   2.86132   2.86244   2.86712   2.86992
 Alpha virt. eigenvalues --    2.87174   2.87445   2.87835   2.88374   2.88480
 Alpha virt. eigenvalues --    2.88831   2.89092   2.89472   2.89878   2.90068
 Alpha virt. eigenvalues --    2.90216   2.90804   2.91157   2.91559   2.91589
 Alpha virt. eigenvalues --    2.91897   2.92497   2.92537   2.92780   2.93111
 Alpha virt. eigenvalues --    2.93367   2.93811   2.93937   2.94117   2.94572
 Alpha virt. eigenvalues --    2.94697   2.95380   2.95548   2.95864   2.96391
 Alpha virt. eigenvalues --    2.96522   2.97042   2.97093   2.97230   2.97506
 Alpha virt. eigenvalues --    2.97741   2.98148   2.98301   2.98664   2.99025
 Alpha virt. eigenvalues --    2.99262   2.99530   2.99812   3.00042   3.00194
 Alpha virt. eigenvalues --    3.00548   3.00703   3.01167   3.01314   3.01563
 Alpha virt. eigenvalues --    3.01807   3.02198   3.02430   3.02928   3.03086
 Alpha virt. eigenvalues --    3.03268   3.03502   3.03817   3.04261   3.04598
 Alpha virt. eigenvalues --    3.04683   3.05117   3.05200   3.05512   3.05794
 Alpha virt. eigenvalues --    3.06267   3.06575   3.06779   3.07028   3.07316
 Alpha virt. eigenvalues --    3.07486   3.08074   3.08335   3.08597   3.09120
 Alpha virt. eigenvalues --    3.09185   3.09544   3.09870   3.10021   3.10402
 Alpha virt. eigenvalues --    3.10721   3.11001   3.11205   3.11454   3.11685
 Alpha virt. eigenvalues --    3.11856   3.12073   3.12340   3.12683   3.12900
 Alpha virt. eigenvalues --    3.13171   3.13647   3.14118   3.14324   3.14582
 Alpha virt. eigenvalues --    3.14663   3.15180   3.15491   3.15571   3.15753
 Alpha virt. eigenvalues --    3.16149   3.16501   3.16657   3.16880   3.17123
 Alpha virt. eigenvalues --    3.17341   3.17566   3.17819   3.18069   3.18422
 Alpha virt. eigenvalues --    3.18722   3.18882   3.19284   3.19380   3.19576
 Alpha virt. eigenvalues --    3.20189   3.20432   3.20551   3.20987   3.21148
 Alpha virt. eigenvalues --    3.21643   3.21805   3.22059   3.22209   3.22723
 Alpha virt. eigenvalues --    3.23010   3.23425   3.23674   3.23789   3.24046
 Alpha virt. eigenvalues --    3.24368   3.24701   3.24922   3.25331   3.25618
 Alpha virt. eigenvalues --    3.25744   3.25780   3.25899   3.26287   3.26498
 Alpha virt. eigenvalues --    3.26846   3.27011   3.27150   3.27408   3.27705
 Alpha virt. eigenvalues --    3.27841   3.28053   3.28148   3.28180   3.28686
 Alpha virt. eigenvalues --    3.28981   3.29161   3.29501   3.29688   3.29870
 Alpha virt. eigenvalues --    3.30113   3.30428   3.30937   3.31088   3.31409
 Alpha virt. eigenvalues --    3.31738   3.32290   3.32361   3.32952   3.33129
 Alpha virt. eigenvalues --    3.33176   3.33269   3.33576   3.34197   3.34559
 Alpha virt. eigenvalues --    3.34694   3.34815   3.35145   3.35530   3.35654
 Alpha virt. eigenvalues --    3.36013   3.36432   3.36922   3.37178   3.37545
 Alpha virt. eigenvalues --    3.37666   3.37921   3.38204   3.38331   3.38804
 Alpha virt. eigenvalues --    3.38968   3.39708   3.39879   3.40269   3.40357
 Alpha virt. eigenvalues --    3.40791   3.41151   3.41352   3.41584   3.42148
 Alpha virt. eigenvalues --    3.42407   3.42672   3.42850   3.43439   3.43986
 Alpha virt. eigenvalues --    3.44343   3.44766   3.45372   3.45853   3.46163
 Alpha virt. eigenvalues --    3.46415   3.46627   3.47002   3.47402   3.47606
 Alpha virt. eigenvalues --    3.48080   3.48606   3.48944   3.48995   3.49888
 Alpha virt. eigenvalues --    3.49982   3.50519   3.50698   3.51295   3.51521
 Alpha virt. eigenvalues --    3.51626   3.52717   3.52917   3.53000   3.53126
 Alpha virt. eigenvalues --    3.53553   3.53860   3.54180   3.54558   3.54636
 Alpha virt. eigenvalues --    3.55228   3.55522   3.55721   3.56229   3.56782
 Alpha virt. eigenvalues --    3.56994   3.57676   3.57955   3.58075   3.58503
 Alpha virt. eigenvalues --    3.58580   3.59101   3.59399   3.60044   3.60244
 Alpha virt. eigenvalues --    3.60693   3.60935   3.61487   3.61839   3.61964
 Alpha virt. eigenvalues --    3.62140   3.62373   3.62997   3.63295   3.63787
 Alpha virt. eigenvalues --    3.64289   3.64785   3.65204   3.65544   3.65793
 Alpha virt. eigenvalues --    3.65956   3.66311   3.66674   3.66869   3.67248
 Alpha virt. eigenvalues --    3.67411   3.68176   3.68421   3.69556   3.69626
 Alpha virt. eigenvalues --    3.69969   3.71013   3.71462   3.72030   3.72389
 Alpha virt. eigenvalues --    3.73194   3.73587   3.73810   3.74385   3.74838
 Alpha virt. eigenvalues --    3.75061   3.75492   3.75818   3.76660   3.76973
 Alpha virt. eigenvalues --    3.77460   3.78133   3.78370   3.79490   3.79873
 Alpha virt. eigenvalues --    3.80348   3.80849   3.81133   3.81727   3.82227
 Alpha virt. eigenvalues --    3.82415   3.83047   3.83777   3.83924   3.85135
 Alpha virt. eigenvalues --    3.85535   3.86354   3.86688   3.87304   3.87633
 Alpha virt. eigenvalues --    3.87850   3.88302   3.89171   3.89574   3.90001
 Alpha virt. eigenvalues --    3.90683   3.91156   3.91422   3.92470   3.92892
 Alpha virt. eigenvalues --    3.93294   3.93646   3.94309   3.95526   3.95876
 Alpha virt. eigenvalues --    3.96271   3.97285   3.97469   3.97757   3.98909
 Alpha virt. eigenvalues --    4.00356   4.00628   4.01301   4.02402   4.03045
 Alpha virt. eigenvalues --    4.03678   4.03844   4.04262   4.04477   4.04753
 Alpha virt. eigenvalues --    4.05301   4.06370   4.06627   4.07198   4.07350
 Alpha virt. eigenvalues --    4.07572   4.07918   4.08453   4.08907   4.09051
 Alpha virt. eigenvalues --    4.09859   4.10521   4.10577   4.11513   4.12203
 Alpha virt. eigenvalues --    4.12388   4.12816   4.13335   4.13575   4.14278
 Alpha virt. eigenvalues --    4.14521   4.14990   4.15272   4.15395   4.15691
 Alpha virt. eigenvalues --    4.16637   4.17363   4.17707   4.18465   4.18825
 Alpha virt. eigenvalues --    4.19344   4.19815   4.21019   4.21421   4.21913
 Alpha virt. eigenvalues --    4.22751   4.23139   4.23445   4.23949   4.24154
 Alpha virt. eigenvalues --    4.24747   4.24886   4.25226   4.25834   4.25973
 Alpha virt. eigenvalues --    4.26685   4.27323   4.27803   4.27855   4.28903
 Alpha virt. eigenvalues --    4.29190   4.29600   4.30057   4.30900   4.31181
 Alpha virt. eigenvalues --    4.31660   4.32252   4.32426   4.32893   4.33334
 Alpha virt. eigenvalues --    4.34739   4.35022   4.35279   4.36136   4.36946
 Alpha virt. eigenvalues --    4.37486   4.38053   4.38361   4.39208   4.39344
 Alpha virt. eigenvalues --    4.39775   4.40235   4.40518   4.41851   4.43082
 Alpha virt. eigenvalues --    4.43751   4.44222   4.44434   4.45824   4.45938
 Alpha virt. eigenvalues --    4.46757   4.48023   4.49147   4.50105   4.50430
 Alpha virt. eigenvalues --    4.51086   4.51545   4.53168   4.53772   4.54295
 Alpha virt. eigenvalues --    4.54906   4.55343   4.56267   4.56423   4.56849
 Alpha virt. eigenvalues --    4.57141   4.57858   4.58557   4.59419   4.59740
 Alpha virt. eigenvalues --    4.60096   4.61398   4.61887   4.62195   4.62993
 Alpha virt. eigenvalues --    4.63689   4.64015   4.64787   4.64834   4.66324
 Alpha virt. eigenvalues --    4.67239   4.67450   4.67765   4.69149   4.69330
 Alpha virt. eigenvalues --    4.70202   4.70877   4.71646   4.72567   4.73079
 Alpha virt. eigenvalues --    4.73722   4.74719   4.75231   4.75766   4.77012
 Alpha virt. eigenvalues --    4.77864   4.78721   4.79052   4.79965   4.80180
 Alpha virt. eigenvalues --    4.80506   4.81209   4.81593   4.81989   4.83441
 Alpha virt. eigenvalues --    4.83742   4.84981   4.85677   4.86762   4.87240
 Alpha virt. eigenvalues --    4.88470   4.89325   4.90293   4.91221   4.91960
 Alpha virt. eigenvalues --    4.92230   4.92896   4.93828   4.94650   4.95134
 Alpha virt. eigenvalues --    4.95849   4.97612   4.98236   4.99284   4.99728
 Alpha virt. eigenvalues --    5.01912   5.04539   5.05172   5.06142   5.06620
 Alpha virt. eigenvalues --    5.07032   5.07582   5.09185   5.09247   5.09686
 Alpha virt. eigenvalues --    5.10342   5.10862   5.11830   5.12946   5.13596
 Alpha virt. eigenvalues --    5.14747   5.15043   5.15526   5.16176   5.16400
 Alpha virt. eigenvalues --    5.17380   5.19145   5.21749   5.22269   5.22420
 Alpha virt. eigenvalues --    5.22627   5.23444   5.23763   5.24587   5.24832
 Alpha virt. eigenvalues --    5.26473   5.27371   5.29187   5.29586   5.30227
 Alpha virt. eigenvalues --    5.31242   5.32957   5.33614   5.33945   5.35789
 Alpha virt. eigenvalues --    5.35917   5.37059   5.37546   5.38312   5.38964
 Alpha virt. eigenvalues --    5.39631   5.41424   5.44205   5.45771   5.46750
 Alpha virt. eigenvalues --    5.48308   5.48950   5.49589   5.50046   5.51253
 Alpha virt. eigenvalues --    5.51972   5.52247   5.52573   5.53450   5.54322
 Alpha virt. eigenvalues --    5.55654   5.57101   5.62597   5.63368   5.66331
 Alpha virt. eigenvalues --    5.66774   5.67584   5.67956   5.71419   5.72430
 Alpha virt. eigenvalues --    5.76444   5.78407   5.79989   5.81468   5.82160
 Alpha virt. eigenvalues --    5.83721   5.85456   5.86865   5.88783   5.90746
 Alpha virt. eigenvalues --    5.92823   5.96947   5.97091   5.98368   5.98614
 Alpha virt. eigenvalues --    5.98949   6.01703   6.03287   6.05708   6.06630
 Alpha virt. eigenvalues --    6.08106   6.10094   6.14199   6.15568   6.17261
 Alpha virt. eigenvalues --    6.18303   6.24018   6.24468   6.26731   6.28174
 Alpha virt. eigenvalues --    6.30785   6.36413   6.38373   6.38950   6.42292
 Alpha virt. eigenvalues --    6.45611   6.58349   6.63769   6.66624   6.68027
 Alpha virt. eigenvalues --    6.76504   6.78845   6.85104   6.86216   6.88755
 Alpha virt. eigenvalues --    6.97784   7.04550   7.05973   7.08365   7.10967
 Alpha virt. eigenvalues --    7.16984   7.22925   9.03667   9.24304   9.52621
 Alpha virt. eigenvalues --   20.07868  22.11548  22.13493  22.23494  22.27256
 Alpha virt. eigenvalues --   22.29329  22.41977  22.44156  22.44583  22.49141
 Alpha virt. eigenvalues --   22.50664  22.54845  22.55454  22.59239  22.62202
 Alpha virt. eigenvalues --   22.69422  22.79139  22.82458  22.83616  22.85920
 Alpha virt. eigenvalues --   22.91135  22.96367  22.99462  23.00994  23.07777
 Alpha virt. eigenvalues --   23.11124  23.15240  23.16052  23.22528  23.23706
 Alpha virt. eigenvalues --   23.27016  23.28431  23.34678  23.37298  23.44743
 Alpha virt. eigenvalues --   23.51418  23.56404  23.64731  23.67357  23.80402
 Alpha virt. eigenvalues --   32.36159  32.66463  32.81799  32.88843  32.93831
 Alpha virt. eigenvalues --   33.08591  43.85717  43.86796  43.89993  43.92224
  Beta  occ. eigenvalues -- -256.53780 -89.12919 -30.28589 -26.12124 -26.11738
  Beta  occ. eigenvalues --  -26.10667 -19.35503 -19.32670 -19.26378 -19.24674
  Beta  occ. eigenvalues --  -14.55025 -14.51158 -14.50726 -14.50507 -14.50214
  Beta  occ. eigenvalues --  -14.49034 -10.43183 -10.42990 -10.38718 -10.37359
  Beta  occ. eigenvalues --  -10.37328 -10.37010 -10.36799 -10.36727 -10.36634
  Beta  occ. eigenvalues --  -10.36489 -10.36222 -10.36135 -10.35216 -10.35031
  Beta  occ. eigenvalues --  -10.34580 -10.34577 -10.34526 -10.34460 -10.34436
  Beta  occ. eigenvalues --  -10.34368 -10.34286 -10.33926 -10.33650 -10.33629
  Beta  occ. eigenvalues --  -10.33576 -10.33301 -10.33277 -10.33229 -10.32993
  Beta  occ. eigenvalues --  -10.32760 -10.32448 -10.32407 -10.31714 -10.31601
  Beta  occ. eigenvalues --  -10.31406 -10.30931 -10.30816 -10.30751 -10.30564
  Beta  occ. eigenvalues --   -8.11391  -6.05007  -6.04507  -6.04133  -3.60373
  Beta  occ. eigenvalues --   -2.37546  -2.35634  -2.33106  -1.25545  -1.22170
  Beta  occ. eigenvalues --   -1.17019  -1.10733  -1.10548  -1.09893  -1.09195
  Beta  occ. eigenvalues --   -1.09103  -1.08028  -1.01220  -0.95740  -0.95101
  Beta  occ. eigenvalues --   -0.94051  -0.92991  -0.92729  -0.92371  -0.91783
  Beta  occ. eigenvalues --   -0.91332  -0.91248  -0.89308  -0.88905  -0.87379
  Beta  occ. eigenvalues --   -0.85943  -0.83822  -0.83178  -0.82851  -0.82359
  Beta  occ. eigenvalues --   -0.81602  -0.81089  -0.80215  -0.80049  -0.78925
  Beta  occ. eigenvalues --   -0.78174  -0.77403  -0.76957  -0.76239  -0.75021
  Beta  occ. eigenvalues --   -0.73314  -0.72671  -0.71608  -0.70909  -0.70089
  Beta  occ. eigenvalues --   -0.69893  -0.67428  -0.66838  -0.66201  -0.65670
  Beta  occ. eigenvalues --   -0.64974  -0.63616  -0.63235  -0.63116  -0.62500
  Beta  occ. eigenvalues --   -0.62084  -0.61141  -0.60339  -0.59951  -0.59441
  Beta  occ. eigenvalues --   -0.59314  -0.58301  -0.58128  -0.57450  -0.56991
  Beta  occ. eigenvalues --   -0.56511  -0.56035  -0.55788  -0.55620  -0.55390
  Beta  occ. eigenvalues --   -0.55173  -0.54998  -0.54837  -0.54638  -0.54452
  Beta  occ. eigenvalues --   -0.54224  -0.53886  -0.53802  -0.53635  -0.53397
  Beta  occ. eigenvalues --   -0.53005  -0.52815  -0.52522  -0.52114  -0.51990
  Beta  occ. eigenvalues --   -0.51766  -0.51605  -0.51383  -0.51282  -0.51091
  Beta  occ. eigenvalues --   -0.50913  -0.50827  -0.50452  -0.50103  -0.49984
  Beta  occ. eigenvalues --   -0.49706  -0.49436  -0.49345  -0.49162  -0.48821
  Beta  occ. eigenvalues --   -0.48741  -0.48556  -0.48368  -0.47817  -0.47300
  Beta  occ. eigenvalues --   -0.46896  -0.46585  -0.46314  -0.45980  -0.45639
  Beta  occ. eigenvalues --   -0.45002  -0.44841  -0.44562  -0.44103  -0.42825
  Beta  occ. eigenvalues --   -0.42360  -0.41858  -0.41307  -0.39960  -0.39861
  Beta  occ. eigenvalues --   -0.39483  -0.38861  -0.38481  -0.36587  -0.36151
  Beta  occ. eigenvalues --   -0.35851  -0.35387  -0.34666  -0.34195  -0.33271
  Beta  occ. eigenvalues --   -0.31424  -0.30589  -0.29157
  Beta virt. eigenvalues --   -0.22050  -0.21746  -0.18914  -0.18146  -0.16625
  Beta virt. eigenvalues --   -0.15893  -0.15448  -0.13399  -0.13234  -0.10774
  Beta virt. eigenvalues --   -0.08954  -0.08635  -0.08045  -0.07192  -0.06502
  Beta virt. eigenvalues --   -0.06183  -0.05669  -0.05247  -0.05120  -0.04322
  Beta virt. eigenvalues --   -0.04146  -0.03737  -0.03355  -0.02949  -0.02746
  Beta virt. eigenvalues --   -0.02452  -0.02035  -0.01772  -0.01499  -0.01227
  Beta virt. eigenvalues --   -0.01019  -0.00704  -0.00412   0.00312   0.00463
  Beta virt. eigenvalues --    0.00702   0.00839   0.01344   0.01422   0.01734
  Beta virt. eigenvalues --    0.02036   0.02188   0.02322   0.02616   0.02833
  Beta virt. eigenvalues --    0.03093   0.03237   0.03473   0.03558   0.04149
  Beta virt. eigenvalues --    0.04258   0.04365   0.04609   0.04722   0.04800
  Beta virt. eigenvalues --    0.05123   0.05355   0.05427   0.05471   0.05743
  Beta virt. eigenvalues --    0.06030   0.06173   0.06327   0.06395   0.06755
  Beta virt. eigenvalues --    0.06890   0.07062   0.07126   0.07356   0.07553
  Beta virt. eigenvalues --    0.07904   0.08292   0.08377   0.08664   0.08814
  Beta virt. eigenvalues --    0.08849   0.09271   0.09542   0.09658   0.09813
  Beta virt. eigenvalues --    0.10142   0.10513   0.10623   0.10941   0.11062
  Beta virt. eigenvalues --    0.11394   0.11801   0.11926   0.12091   0.12221
  Beta virt. eigenvalues --    0.12545   0.12778   0.13079   0.13184   0.13312
  Beta virt. eigenvalues --    0.13509   0.13725   0.13823   0.13997   0.14181
  Beta virt. eigenvalues --    0.14440   0.14648   0.14921   0.15002   0.15308
  Beta virt. eigenvalues --    0.15548   0.15611   0.15868   0.16133   0.16222
  Beta virt. eigenvalues --    0.16552   0.16695   0.16809   0.16952   0.17123
  Beta virt. eigenvalues --    0.17395   0.17563   0.17788   0.18106   0.18245
  Beta virt. eigenvalues --    0.18442   0.18535   0.18678   0.18754   0.19398
  Beta virt. eigenvalues --    0.19537   0.19853   0.20077   0.20436   0.20455
  Beta virt. eigenvalues --    0.20717   0.21064   0.21293   0.21575   0.21763
  Beta virt. eigenvalues --    0.21861   0.22096   0.22309   0.22585   0.22886
  Beta virt. eigenvalues --    0.22995   0.23226   0.23615   0.23630   0.24112
  Beta virt. eigenvalues --    0.24158   0.24285   0.24531   0.24764   0.24977
  Beta virt. eigenvalues --    0.25346   0.25700   0.26161   0.26205   0.26384
  Beta virt. eigenvalues --    0.26419   0.26624   0.26847   0.27061   0.27105
  Beta virt. eigenvalues --    0.27519   0.27768   0.27947   0.28013   0.28238
  Beta virt. eigenvalues --    0.28338   0.28785   0.28988   0.29097   0.29452
  Beta virt. eigenvalues --    0.29609   0.30128   0.30162   0.30308   0.30665
  Beta virt. eigenvalues --    0.30771   0.31079   0.31343   0.31419   0.31571
  Beta virt. eigenvalues --    0.31740   0.31851   0.32244   0.32504   0.32885
  Beta virt. eigenvalues --    0.33059   0.33408   0.33585   0.33732   0.33843
  Beta virt. eigenvalues --    0.34146   0.34303   0.34533   0.34659   0.34870
  Beta virt. eigenvalues --    0.35076   0.35364   0.35511   0.35579   0.36031
  Beta virt. eigenvalues --    0.36061   0.36222   0.36470   0.36554   0.36700
  Beta virt. eigenvalues --    0.36785   0.37184   0.37382   0.37626   0.37693
  Beta virt. eigenvalues --    0.37933   0.38022   0.38337   0.38525   0.38655
  Beta virt. eigenvalues --    0.38783   0.38849   0.38957   0.39277   0.39405
  Beta virt. eigenvalues --    0.39552   0.39670   0.39742   0.39784   0.39978
  Beta virt. eigenvalues --    0.40165   0.40423   0.40686   0.40751   0.41011
  Beta virt. eigenvalues --    0.41108   0.41166   0.41527   0.41694   0.41877
  Beta virt. eigenvalues --    0.42322   0.42476   0.42543   0.42788   0.42811
  Beta virt. eigenvalues --    0.43013   0.43152   0.43316   0.43473   0.43757
  Beta virt. eigenvalues --    0.43935   0.44040   0.44250   0.44381   0.44740
  Beta virt. eigenvalues --    0.44796   0.45169   0.45249   0.45397   0.45489
  Beta virt. eigenvalues --    0.45853   0.46107   0.46260   0.46463   0.46727
  Beta virt. eigenvalues --    0.46956   0.47071   0.47230   0.47598   0.47799
  Beta virt. eigenvalues --    0.48165   0.48587   0.48937   0.49152   0.49342
  Beta virt. eigenvalues --    0.49614   0.49893   0.50131   0.50205   0.50485
  Beta virt. eigenvalues --    0.50803   0.50871   0.51106   0.51142   0.51425
  Beta virt. eigenvalues --    0.51797   0.52069   0.52181   0.52301   0.52801
  Beta virt. eigenvalues --    0.52867   0.53264   0.53539   0.53852   0.54185
  Beta virt. eigenvalues --    0.54412   0.54809   0.55096   0.55278   0.55467
  Beta virt. eigenvalues --    0.55585   0.56126   0.56407   0.56631   0.56855
  Beta virt. eigenvalues --    0.56992   0.57639   0.57824   0.58104   0.58232
  Beta virt. eigenvalues --    0.58538   0.58793   0.58874   0.58990   0.59196
  Beta virt. eigenvalues --    0.59629   0.59723   0.60090   0.60385   0.60883
  Beta virt. eigenvalues --    0.60926   0.61109   0.61585   0.61856   0.62173
  Beta virt. eigenvalues --    0.62246   0.62543   0.63043   0.63163   0.63475
  Beta virt. eigenvalues --    0.63636   0.63785   0.64122   0.64374   0.64930
  Beta virt. eigenvalues --    0.65038   0.65486   0.65634   0.66091   0.66191
  Beta virt. eigenvalues --    0.66331   0.67250   0.67413   0.67684   0.68158
  Beta virt. eigenvalues --    0.68277   0.68527   0.68701   0.68882   0.69392
  Beta virt. eigenvalues --    0.69541   0.70054   0.70264   0.70444   0.70918
  Beta virt. eigenvalues --    0.71112   0.71369   0.71893   0.71958   0.72172
  Beta virt. eigenvalues --    0.72476   0.72682   0.73071   0.73315   0.73408
  Beta virt. eigenvalues --    0.73941   0.74603   0.74747   0.74994   0.75401
  Beta virt. eigenvalues --    0.75441   0.75925   0.76386   0.76600   0.76753
  Beta virt. eigenvalues --    0.77105   0.77429   0.77779   0.78200   0.78425
  Beta virt. eigenvalues --    0.78851   0.79122   0.79468   0.79647   0.80347
  Beta virt. eigenvalues --    0.80397   0.80705   0.80960   0.81512   0.81529
  Beta virt. eigenvalues --    0.81657   0.81831   0.82432   0.82892   0.83173
  Beta virt. eigenvalues --    0.83293   0.83589   0.83769   0.84017   0.84294
  Beta virt. eigenvalues --    0.84728   0.84901   0.85004   0.85139   0.86078
  Beta virt. eigenvalues --    0.86090   0.86282   0.86391   0.86760   0.86915
  Beta virt. eigenvalues --    0.87401   0.87677   0.87777   0.87991   0.88201
  Beta virt. eigenvalues --    0.88469   0.88545   0.88913   0.89147   0.89425
  Beta virt. eigenvalues --    0.89874   0.89967   0.90231   0.90403   0.90854
  Beta virt. eigenvalues --    0.91288   0.91615   0.91877   0.92003   0.92384
  Beta virt. eigenvalues --    0.92559   0.92981   0.93393   0.93485   0.93816
  Beta virt. eigenvalues --    0.94150   0.94313   0.94486   0.94897   0.95159
  Beta virt. eigenvalues --    0.95482   0.95786   0.96066   0.96390   0.96464
  Beta virt. eigenvalues --    0.96856   0.97268   0.97729   0.97901   0.97989
  Beta virt. eigenvalues --    0.98525   0.98763   0.98922   0.99510   0.99869
  Beta virt. eigenvalues --    1.00165   1.00234   1.00774   1.01109   1.01340
  Beta virt. eigenvalues --    1.01705   1.01798   1.02552   1.02720   1.03071
  Beta virt. eigenvalues --    1.03223   1.03727   1.03919   1.04238   1.04777
  Beta virt. eigenvalues --    1.05072   1.05648   1.06273   1.06423   1.06666
  Beta virt. eigenvalues --    1.06819   1.07077   1.07650   1.07869   1.08020
  Beta virt. eigenvalues --    1.08754   1.08933   1.09379   1.09800   1.10430
  Beta virt. eigenvalues --    1.10611   1.11431   1.11721   1.12056   1.12479
  Beta virt. eigenvalues --    1.12827   1.13047   1.13408   1.13587   1.13793
  Beta virt. eigenvalues --    1.14071   1.14602   1.15017   1.15407   1.15517
  Beta virt. eigenvalues --    1.16115   1.16488   1.16663   1.17279   1.17705
  Beta virt. eigenvalues --    1.17735   1.18115   1.18172   1.18265   1.18820
  Beta virt. eigenvalues --    1.19122   1.19223   1.19699   1.19891   1.20177
  Beta virt. eigenvalues --    1.20689   1.21191   1.21587   1.22362   1.22557
  Beta virt. eigenvalues --    1.23043   1.23594   1.23704   1.24015   1.24305
  Beta virt. eigenvalues --    1.24692   1.24778   1.25236   1.26042   1.26314
  Beta virt. eigenvalues --    1.27158   1.27569   1.27941   1.28007   1.29481
  Beta virt. eigenvalues --    1.29569   1.29735   1.30242   1.30369   1.31267
  Beta virt. eigenvalues --    1.32010   1.32709   1.32753   1.33140   1.33295
  Beta virt. eigenvalues --    1.33544   1.33774   1.34507   1.35359   1.35534
  Beta virt. eigenvalues --    1.35921   1.36496   1.36638   1.36856   1.37340
  Beta virt. eigenvalues --    1.37691   1.37833   1.38174   1.38782   1.39060
[...]
   268. RY*(  15) C   3                  0.00000     2.31085   
   269. RY*(  16) C   3                  0.00000     2.75829   
   270. RY*(  17) C   3                  0.00000     2.32919   
   271. RY*(  18) C   3                  0.00000     2.32190   
   272. RY*(  19) C   3                  0.00000     2.43574   
   273. RY*(  20) C   3                  0.00000     3.41836   
   274. RY*(  21) C   3                  0.00000     3.38403   
   275. RY*(  22) C   3                  0.00000     3.38309   
   276. RY*(  23) C   3                  0.00000     3.51614   
   277. RY*(  24) C   3                  0.00000     3.32860   
   278. RY*(  25) C   3                  0.00000     3.19553   
   279. RY*(  26) C   3                  0.00000     3.43694   
   280. RY*(   1) C   4                  0.00204     1.62950   
   281. RY*(   2) C   4                  0.00159     1.15439   
   282. RY*(   3) C   4                  0.00095     1.15414   
   283. RY*(   4) C   4                  0.00077     2.15204   
   284. RY*(   5) C   4                  0.00064     1.91237   
   285. RY*(   6) C   4                  0.00050     1.66874   
   286. RY*(   7) C   4                  0.00022     2.23889   
   287. RY*(   8) C   4                  0.00011     2.64180   
   288. RY*(   9) C   4                  0.00008     2.24308   
   289. RY*(  10) C   4                  0.00004     2.99389   
   290. RY*(  11) C   4                  0.00000     2.02728   
   291. RY*(  12) C   4                  0.00001     1.63411   
   292. RY*(  13) C   4                  0.00000    21.20468   
   293. RY*(  14) C   4                  0.00000     1.40767   
   294. RY*(  15) C   4                  0.00000     2.56823   
   295. RY*(  16) C   4                  0.00001     1.74979   
   296. RY*(  17) C   4                  0.00000     2.89716   
   297. RY*(  18) C   4                  0.00000     1.98984   
   298. RY*(  19) C   4                  0.00000     2.16518   
   299. RY*(  20) C   4                  0.00000     3.99128   
   300. RY*(  21) C   4                  0.00001     3.80876   
   301. RY*(  22) C   4                  0.00000     3.52552   
   302. RY*(  23) C   4                  0.00000     3.65372   
   303. RY*(  24) C   4                  0.00000     3.39591   
   304. RY*(  25) C   4                  0.00000     3.52285   
   305. RY*(  26) C   4                  0.00000     3.47893   
   306. RY*(   1) N   5                  0.00132     0.66304   
   307. RY*(   2) N   5                  0.00120     1.62732   
   308. RY*(   3) N   5                  0.00053     1.96832   
   309. RY*(   4) N   5                  0.00045     2.11279   
   310. RY*(   5) N   5                  0.00030     1.01896   
   311. RY*(   6) N   5                  0.00013     2.12755   
   312. RY*(   7) N   5                  0.00010     2.03263   
   313. RY*(   8) N   5                  0.00004     2.04464   
   314. RY*(   9) N   5                  0.00004     1.86952   
   315. RY*(  10) N   5                  0.00003     3.24069   
   316. RY*(  11) N   5                  0.00000     3.94247   
   317. RY*(  12) N   5                  0.00000     2.09857   
   318. RY*(  13) N   5                  0.00000     4.12801   
   319. RY*(  14) N   5                  0.00000    30.40907   
   320. RY*(  15) N   5                  0.00000     4.07508   
   321. RY*(  16) N   5                  0.00000     2.41670   
   322. RY*(  17) N   5                  0.00000     4.35518   
   323. RY*(  18) N   5                  0.00001     2.80973   
   324. RY*(  19) N   5                  0.00000     3.70651   
   325. RY*(  20) N   5                  0.00000     4.60390   
   326. RY*(  21) N   5                  0.00000     4.63658   
   327. RY*(  22) N   5                  0.00000     4.39171   
   328. RY*(  23) N   5                  0.00000     4.32856   
   329. RY*(  24) N   5                  0.00000     4.31909   
   330. RY*(  25) N   5                  0.00000     4.38216   
   331. RY*(  26) N   5                  0.00000     4.37918   
   332. RY*(   1) C   6                  0.00169     1.45530   
   333. RY*(   2) C   6                  0.00155     0.74863   
   334. RY*(   3) C   6                  0.00084     1.68843   
   335. RY*(   4) C   6                  0.00035     2.01549   
   336. RY*(   5) C   6                  0.00024     2.07966   
   337. RY*(   6) C   6                  0.00021     1.61797   
   338. RY*(   7) C   6                  0.00019     1.81501   
   339. RY*(   8) C   6                  0.00009     1.45637   
   340. RY*(   9) C   6                  0.00010     1.36512   
   341. RY*(  10) C   6                  0.00007     1.35628   
   342. RY*(  11) C   6                  0.00005     1.53104   
   343. RY*(  12) C   6                  0.00002     2.25835   
   344. RY*(  13) C   6                  0.00002     2.15274   
   345. RY*(  14) C   6                  0.00002     2.94170   
   346. RY*(  15) C   6                  0.00001     1.85605   
   347. RY*(  16) C   6                  0.00001     3.34704   
   348. RY*(  17) C   6                  0.00000     3.59229   
   349. RY*(  18) C   6                  0.00000    20.63175   
   350. RY*(  19) C   6                  0.00000     2.76116   
   351. RY*(  20) C   6                  0.00000     3.99851   
   352. RY*(  21) C   6                  0.00001     3.54238   
   353. RY*(  22) C   6                  0.00000     3.41095   
   354. RY*(  23) C   6                  0.00000     3.48490   
   355. RY*(  24) C   6                  0.00000     3.35212   
   356. RY*(  25) C   6                  0.00000     3.49749   
   357. RY*(  26) C   6                  0.00000     3.55384   
   358. RY*(   1) C   7                  0.00193     1.52878   
   359. RY*(   2) C   7                  0.00144     0.48341   
   360. RY*(   3) C   7                  0.00105     1.28839   
   361. RY*(   4) C   7                  0.00058     2.42866   
   362. RY*(   5) C   7                  0.00042     1.39314   
   363. RY*(   6) C   7                  0.00020     1.83214   
   364. RY*(   7) C   7                  0.00011     1.67870   
   365. RY*(   8) C   7                  0.00003     2.72494   
   366. RY*(   9) C   7                  0.00001     3.44457   
   367. RY*(  10) C   7                  0.00000     3.08130   
   368. RY*(  11) C   7                  0.00001     2.26265   
   369. RY*(  12) C   7                  0.00001     1.39774   
   370. RY*(  13) C   7                  0.00001     2.50237   
   371. RY*(  14) C   7                  0.00001     1.59829   
   372. RY*(  15) C   7                  0.00001     2.41133   
   373. RY*(  16) C   7                  0.00000     3.33038   
   374. RY*(  17) C   7                  0.00000     2.49941   
   375. RY*(  18) C   7                  0.00000    21.32028   
   376. RY*(  19) C   7                  0.00001     2.57649   
   377. RY*(  20) C   7                  0.00000     3.85344   
   378. RY*(  21) C   7                  0.00001     3.91575   
   379. RY*(  22) C   7                  0.00000     3.45977   
   380. RY*(  23) C   7                  0.00000     3.68245   
   381. RY*(  24) C   7                  0.00000     3.56667   
   382. RY*(  25) C   7                  0.00000     3.44086   
   383. RY*(  26) C   7                  0.00000     3.41561   
   384. RY*(   1) N   8                  0.00319     1.27320   
   385. RY*(   2) N   8                  0.00191     0.75524   
   386. RY*(   3) N   8                  0.00146     1.10637   
   387. RY*(   4) N   8                  0.00075     1.11361   
   388. RY*(   5) N   8                  0.00033     2.36707   
   389. RY*(   6) N   8                  0.00023     2.57603   
   390. RY*(   7) N   8                  0.00014     2.54153   
   391. RY*(   8) N   8                  0.00014     2.24817   
   392. RY*(   9) N   8                  0.00007     3.34761   
   393. RY*(  10) N   8                  0.00004     2.72608   
   394. RY*(  11) N   8                  0.00004     2.74090   
   395. RY*(  12) N   8                  0.00002     4.21520   
   396. RY*(  13) N   8                  0.00002     3.32551   
   397. RY*(  14) N   8                  0.00001     4.02864   
   398. RY*(  15) N   8                  0.00001     3.55137   
   399. RY*(  16) N   8                  0.00000    31.67533   
   400. RY*(  17) N   8                  0.00000     4.14685   
   401. RY*(  18) N   8                  0.00001     3.87389   
   402. RY*(  19) N   8                  0.00000     4.20625   
   403. RY*(  20) N   8                  0.00000     4.37513   
   404. RY*(  21) N   8                  0.00000     4.43576   
   405. RY*(  22) N   8                  0.00000     3.84201   
   406. RY*(  23) N   8                  0.00000     4.52484   
   407. RY*(  24) N   8                  0.00000     4.50825   
   408. RY*(  25) N   8                  0.00000     4.45673   
   409. RY*(  26) N   8                  0.00000     4.53945   
  1529. RY*(   1) H  52                  0.00021     1.21007   
  1530. RY*(   2) H  52                  0.00006     1.68466   
  1531. RY*(   3) H  52                  0.00003     1.59741   
  1532. RY*(   4) H  52                  0.00003     1.97548   
  1533. RY*(   5) H  52                  0.00000     2.80990   
  1534. RY*(   1) H  53                  0.00016     1.24631   
  1535. RY*(   2) H  53                  0.00007     1.84746   
  1536. RY*(   3) H  53                  0.00003     2.03426   
  1537. RY*(   4) H  53                  0.00002     1.31884   
  1538. RY*(   5) H  53                  0.00000     2.84322   
  1539. RY*(   1) H  54                  0.00028     1.20008   
  1540. RY*(   2) H  54                  0.00007     1.76122   
  1541. RY*(   3) H  54                  0.00003     1.72255   
  1542. RY*(   4) H  54                  0.00003     1.73035   
  1543. RY*(   5) H  54                  0.00000     2.83087   
  1544. RY*(   1) H  55                  0.00026     2.06929   
  1545. RY*(   2) H  55                  0.00020     2.05274   
  1546. RY*(   3) H  55                  0.00015     0.94894   
  1547. RY*(   4) H  55                  0.00010     2.45736   
  1548. RY*(   5) H  55                  0.00000     3.01274   
  1549. RY*(   1) H  56                  0.00026     0.57501   
  1550. RY*(   2) H  56                  0.00013     2.34741   
  1551. RY*(   3) H  56                  0.00010     1.97441   
  1552. RY*(   4) H  56                  0.00006     2.29997   
  1553. RY*(   5) H  56                  0.00001     3.02676   
  1554. RY*(   1) H  57                  0.00030     0.94166   
  1555. RY*(   2) H  57                  0.00017     2.02438   
  1556. RY*(   3) H  57                  0.00012     2.15736   
  1557. RY*(   4) H  57                  0.00003     2.61772   
  1558. RY*(   5) H  57                  0.00001     3.04577   
  1744. BD*(   1) C   3 - C   4          0.00694     0.29445   
  1745. BD*(   1) C   3 - H  52          0.00219     0.30283   
  1746. BD*(   1) C   3 - H  53          0.00265     0.30906   
  1747. BD*(   1) C   3 - H  54          0.00499     0.30695   
  1748. BD*(   1) C   4 - N   5          0.01376     0.32814   
  1749. BD*(   2) C   4 - N   5          0.37325    -0.14520  1754(v),181(v),1747(v)
                                                    281(g),306(g),1746(v)
                                                    1745(v),255(v),336(v)
                                                    1506(r)
  1750. BD*(   1) C   4 - C   6          0.01104     0.48600   
  1751. BD*(   1) N   5 - C   7          0.00985     0.39405   
  1752. BD*(   1) N   5 - H  55          0.00732     0.28760   
  1753. BD*(   1) C   6 - N   8          0.00684     0.37652   
  1754. BD*(   2) C   6 - N   8          0.32318    -0.11609  1749(v),181(v),1743(r)
                                                    333(g),385(g),1836(r),359(v)
                                                    196(r),1850(r),1797(r)
                                                    1820(r),1853(r),1851(r)
                                                    1852(r)
  1755. BD*(   1) C   6 - H  57          0.00729     0.32679   
  1756. BD*(   1) C   7 - N   8          0.00695     0.43836   
  1757. BD*(   1) C   7 - H  56          0.00889     0.27923   
       -------------------------------
              Total Lewis   20.98042  ( 96.2372%)
        Valence non-Lewis    0.78513  (  3.6014%)
        Rydberg non-Lewis    0.03518  (  0.1614%)
       -------------------------------
            Total unit  2   21.80073  (100.0000%)
           Charge unit  2    0.19927

 Molecular unit  3  (H)
   199. LP*(   1) H  61                  0.39994    -0.27704  180(r),196(r),197(r),198(r)
                                                    227(r),1851(r),1852(r)
                                                    1743(r),1829(r),1577(g)
                                                    1781(r),1505(r),1853(r)
                                                    228(r),1850(r),1578(g)
                                                    1400(r),1574(g),1477(r)
                                                    1836(r),1479(r),1401(r)
                                                    1478(r),226(r),1502(r)
                                                    1399(r),1476(r),1398(r)
                                                    231(r),387(r),203(r),1740(r)
                                                    1514(r),230(r),204(r),229(r)
                                                    234(r),1503(r),1835(r)
                                                    384(r),1424(r),1509(r)
                                                    247(r),592(r),1138(r)
                                                    1508(r),1760(r),243(r)
                                                    1775(r),1772(r),1803(r)
                                                    244(r),233(r),1763(r)
                                                    1450(r),1525(r),1813(r)
                                                    1820(r),1819(r),1796(r)
                                                    1520(r),205(r),1741(r)
                                                    1771(r),202(r),1515(r)
                                                    1758(r),1523(r),187(r)
                                                    1762(r),1797(r),237(r)
                                                    1141(r),389(r),1504(r)
                                                    232(r),1425(r),514(r)
                                                    1510(r),236(r),1507(r)
                                                    235(r),595(r),1407(r),544(r)
                                                    240(r),339(r),1739(r)
                                                    1216(r),1511(r),252(r)
                                                    957(r),419(r)
  1574. RY*(   1) H  61                  0.00565     1.66320   
  1575. RY*(   2) H  61                  0.00182     1.87691   
  1576. RY*(   3) H  61                  0.00164     1.87135   
  1577. RY*(   4) H  61                  0.00051     2.13926   
  1578. RY*(   5) H  61                  0.00018     2.39807   
       -------------------------------
              Total Lewis    0.00000  (  0.0000%)
        Valence non-Lewis    0.39994  ( 97.6060%)
        Rydberg non-Lewis    0.00981  (  2.3940%)
       -------------------------------
            Total unit  3    0.40975  (100.0000%)
           Charge unit  3    0.09025
 1\1\GINC-NODE567\SP\UPBE1PBE\def2TZVP\C39H42Fe1N6O4S1(1+,6)\ZHARTOVSKA
 \30-Sep-2022\0\\# PBE1PBE/def2TZVP empiricaldispersion=GD3BJ scf=maxcy
 cle=999 geom=check pop=nbo\\1jbq_III_H\\1,6\C,0,-14.426,91.945,42.4459
 99\S,0,-13.61514756,90.44205984,42.94808385\C,0,-6.735,87.879997,45.29
 6001\C,0,-7.719,88.763,44.599998\N,0,-7.343,89.896004,43.912998\C,0,-9
 .063,88.672997,44.473\C,0,-8.414,90.466003,43.393002\N,0,-9.47,89.7450
 03,43.717999\C,0,-10.953,92.300003,41.314999\C,0,-11.872,87.638,40.998
 001\C,0,-12.394,87.350998,45.764\C,0,-11.576,92.092003,46.098\C,0,-11.
 131,91.056,40.793999\C,0,-11.01,90.705002,39.391998\C,0,-11.28,89.3949
 97,39.290001\C,0,-11.563,88.899002,40.644001\C,0,-11.297,88.524002,38.
 006001\C,0,-10.63,91.708,38.287998\C,0,-11.742,92.139999,37.362999\C,0
 ,-11.193,92.964996,36.207001\O,0,-10.77,94.139999,36.534\O,0,-11.172,9
 2.470001,35.066002\C,0,-12.111,87.150002,42.238998\C,0,-12.428,85.7580
 03,42.523998\C,0,-12.569,85.661003,43.887001\C,0,-12.351,86.986,44.423
 \C,0,-12.553,84.656998,41.449001\C,0,-12.891,84.424004,44.775002\C,0,-
 14.14058471,83.57203839,44.48467002\C,0,-12.208,88.622002,46.277\C,0,-
 12.294,88.947998,47.712002\C,0,-12.073,90.289001,47.816002\C,0,-11.844
 ,90.779999,46.460999\C,0,-12.596,87.878998,48.806\C,0,-12.048,91.24299
 6,49.053001\C,0,-11.54553863,90.72621722,50.41390962\C,0,-11.343,92.58
 9996,44.828999\C,0,-11.063,93.980003,44.478001\C,0,-10.885,94.031998,4
 3.127998\C,0,-11.057,92.678001,42.638\C,0,-10.995,95.148003,45.480999\
 C,0,-10.569,95.273003,42.262001\C,0,-11.761,95.569,41.271999\C,0,-11.5
 47,96.749001,40.348\O,0,-10.395,97.149002,40.092999\O,0,-12.598,97.237
 ,39.867001\N,0,-11.449,89.935997,41.525002\N,0,-12.08,87.879997,43.41\
 N,0,-11.928,89.747002,45.542\N,0,-11.35,91.795998,43.674999\Fe,0,-11.7
 07,89.852997,43.553001\H,0,-5.84267659,88.43333186,45.50210646\H,0,-7.
 15753264,87.52958024,46.21446399\H,0,-6.50010461,87.04472118,44.669871
 25\H,0,-6.40609387,90.23364375,43.82240934\H,0,-8.42403416,91.36126531
 ,42.8070799\H,0,-9.69061235,87.90990104,44.88371558\H,0,-13.86737953,9
 2.40560745,41.65816403\H,0,-15.41259069,91.71915812,42.09881858\H,0,-1
 4.48545231,92.61368722,43.27919935\H,0,-12.31674047,90.60699352,42.892
 98471\H,0,-10.10646147,95.71769308,45.3053502\H,0,-11.85206227,95.7761
 8641,45.35558025\H,0,-10.97926187,94.76110598,46.47847732\H,0,-9.67755
 439,95.09303095,41.69823261\H,0,-10.41972239,96.11980552,42.89882255\H
 ,0,-11.92457117,94.69785925,40.67261743\H,0,-12.64201862,95.75094708,4
 1.85131019\H,0,-9.63459792,96.65487634,40.40800456\H,0,-10.70385476,93
 .07385352,40.61931084\H,0,-10.23217049,92.58285875,38.75837429\H,0,-9.
 85685067,91.26824936,37.69322115\H,0,-12.23348367,91.27267958,36.97428
 212\H,0,-12.4475692,92.72839668,37.91150631\H,0,-9.82723254,94.3144482
 6,36.58254859\H,0,-10.4273088,87.90099251,37.98609151\H,0,-12.1745066,
 87.9117393,38.00193416\H,0,-11.3009077,89.15864101,37.14453826\H,0,-11
 .93721543,86.93090823,40.1975835\H,0,-11.71109515,83.99964717,41.51213
 663\H,0,-13.4526611,84.10087236,41.61097067\H,0,-12.58187813,85.107395
 41,40.47884213\H,0,-12.24415118,84.16553988,45.58721066\H,0,-14.033100
 48,82.56435518,44.14127276\H,0,-15.11628689,83.98777148,44.62634312\H,
 0,-12.59057677,86.57086904,46.46944765\H,0,-11.80798195,87.87694257,49
 .52982548\H,0,-13.52219167,88.11348462,49.28775202\H,0,-12.66508681,86
 .91291977,48.35122548\H,0,-12.37999099,92.25542037,48.95461973\H,0,-10
 .49504549,90.65401713,50.60404458\H,0,-12.24691901,90.43935672,51.1693
 4103\H,0,-11.54596949,92.8042839,46.89590606\\Version=ES64L-G16RevA.03
 \State=6-A\HF=-3800.2971452\S2=8.829917\S2-1=0.\S2A=8.751787\RMSD=2.95
 7e-09\Dipole=3.018214,-1.8653322,3.369023\Quadrupole=9.8165579,2.79844
 65,-12.6150044,21.3285394,-8.8370542,11.9338672\PG=C01 [X(C39H42Fe1N6O
 4S1)]\\@


 The number of Unix installations has grown to 10,
  with more expected.
                  -- The Unix Programmer's Manual,
                     2nd Edition, June, 1972.
 Job cpu time:       3 days  5 hours 42 minutes 51.0 seconds.
 Elapsed time:       0 days 19 hours 29 minutes  3.7 seconds.
 File lengths (MBytes):  RWF=   3154 Int=      0 D2E=      0 Chk=    264 Scr=      1
 Normal termination of Gaussian 16 at Fri Sep 30 08:04:47 2022.
