 Entering Gaussian System, Link 0=g16
 Input=/net/homes/chemie/zhartovska/work/BioModel/Konrad/1fhf/1fhf12/1fhf16/1fhf16.com
 Output=/net/homes/chemie/zhartovska/work/BioModel/Konrad/1fhf/1fhf12/1fhf16/1fhf16.log
 Initial command:
 /afs/math/software/gaussian/g16.A03/g16/l1.exe "/scratch/zhartovska_gaussian.jthIoF5/Gau-17300.inp" -scrdir="/scratch/zhartovska_gaussian.jthIoF5/"
 Entering Link 1 = /afs/math/software/gaussian/g16.A03/g16/l1.exe PID=     17301.
  
 Copyright (c) 1988,1990,1992,1993,1995,1998,2003,2009,2016,
            Gaussian, Inc.  All Rights Reserved.
  
 This is part of the Gaussian(R) 16 program.  It is based on
 the Gaussian(R) 09 system (copyright 2009, Gaussian, Inc.),
 the Gaussian(R) 03 system (copyright 2003, Gaussian, Inc.),
 the Gaussian(R) 98 system (copyright 1998, Gaussian, Inc.),
 the Gaussian(R) 94 system (copyright 1995, Gaussian, Inc.),
 the Gaussian 92(TM) system (copyright 1992, Gaussian, Inc.),
 the Gaussian 90(TM) system (copyright 1990, Gaussian, Inc.),
 the Gaussian 88(TM) system (copyright 1988, Gaussian, Inc.),
 the Gaussian 86(TM) system (copyright 1986, Carnegie Mellon
 University), and the Gaussian 82(TM) system (copyright 1983,
 Carnegie Mellon University). Gaussian is a federally registered
 trademark of Gaussian, Inc.
  
 This software contains proprietary and confidential information,
 including trade secrets, belonging to Gaussian, Inc.
  
 This software is provided under written license and may be
 used, copied, transmitted, or stored only in accord with that
 written license.
  
 The following legend is applicable only to US Government
 contracts under FAR:
  
                    RESTRICTED RIGHTS LEGEND
  
 Use, reproduction and disclosure by the US Government is
 subject to restrictions as set forth in subparagraphs (a)
 and (c) of the Commercial Computer Software - Restricted
 Rights clause in FAR 52.227-19.
  
 Gaussian, Inc.
 340 Quinnipiac St., Bldg. 40, Wallingford CT 06492
  
  
 ---------------------------------------------------------------
 Warning -- This program may not be used in any manner that
 competes with the business of Gaussian, Inc. or will provide
 assistance to any competitor of Gaussian, Inc.  The licensee
 of this program is prohibited from giving any competitor of
 Gaussian, Inc. access to this program.  By using this program,
 the user acknowledges that Gaussian, Inc. is engaged in the
 business of creating and licensing software in the field of
 computational chemistry and represents and warrants to the
 licensee that it is not a competitor of Gaussian, Inc. and that
 it will not use this program in any manner prohibited above.
 ---------------------------------------------------------------
  

 Cite this work as:
 Gaussian 16, Revision A.03,
 M. J. Frisch, G. W. Trucks, H. B. Schlegel, G. E. Scuseria, 
 M. A. Robb, J. R. Cheeseman, G. Scalmani, V. Barone, 
 G. A. Petersson, H. Nakatsuji, X. Li, M. Caricato, A. V. Marenich, 
 J. Bloino, B. G. Janesko, R. Gomperts, B. Mennucci, H. P. Hratchian, 
 J. V. Ortiz, A. F. Izmaylov, J. L. Sonnenberg, D. Williams-Young, 
 F. Ding, F. Lipparini, F. Egidi, J. Goings, B. Peng, A. Petrone, 
 T. Henderson, D. Ranasinghe, V. G. Zakrzewski, J. Gao, N. Rega, 
 G. Zheng, W. Liang, M. Hada, M. Ehara, K. Toyota, R. Fukuda, 
 J. Hasegawa, M. Ishida, T. Nakajima, Y. Honda, O. Kitao, H. Nakai, 
 T. Vreven, K. Throssell, J. A. Montgomery, Jr., J. E. Peralta, 
 F. Ogliaro, M. J. Bearpark, J. J. Heyd, E. N. Brothers, K. N. Kudin, 
 V. N. Staroverov, T. A. Keith, R. Kobayashi, J. Normand, 
 K. Raghavachari, A. P. Rendell, J. C. Burant, S. S. Iyengar, 
 J. Tomasi, M. Cossi, J. M. Millam, M. Klene, C. Adamo, R. Cammi, 
 J. W. Ochterski, R. L. Martin, K. Morokuma, O. Farkas, 
 J. B. Foresman, and D. J. Fox, Gaussian, Inc., Wallingford CT, 2016.
 
 ******************************************
 Gaussian 16:  ES64L-G16RevA.03 25-Dec-2016
                31-Aug-2022 
 ******************************************
 %nprocs=12
 Will use up to   12 processors via shared memory.
 %mem=16GB
 %oldchk=1fhf_III_D.chk
 %chk=1fhf_III_H.chk
 Copying data from "1fhf_III_D.chk" to current chk file "1fhf_III_H.chk"
 IOpt=  2 FromEx=T IUOpen= 4 IOptOp= 5 NList=   0 IFRang= 0 IUIn= 4 IUOut= 2.
 ----------------------------------------------------------------------
 # PBE1PBE/def2TZVP empiricaldispersion=GD3BJ int=(grid=ultrafine) geom
 =check pop=nbo
 ----------------------------------------------------------------------
 1/29=2,38=1,172=1/1;
 2/12=2,40=1/2;
 3/5=44,7=101,11=2,14=-4,25=1,30=1,74=-13,75=-5,124=41/1,2,3;
 4//1;
 5/5=2,38=5/2;
 6/7=2,8=2,9=2,10=2,28=1,40=1/1,7;
 99/5=1,9=1/99;
 ----------
 1fhf_III_H
 ----------
 Structure from the checkpoint file:  "1fhf_III_H.chk"
 Charge =  1 Multiplicity = 6
 Z-Matrix found in chk file.
 C,0,-6.546,53.229,1.865
 C,0,-5.999,53.189999,0.452
 N,0,-6.725,52.800999,-0.68
 C,0,-4.667,53.479,0.084
 C,0,-5.777,52.813999,-1.677
 N,0,-4.554,53.183998,-1.302
 C,0,-2.424,56.617001,-2.155
 C,0,-4.342,53.460999,-5.354
 C,0,-2.651,49.738998,-2.71
 C,0,-0.782,52.856998,0.516
 C,0,-2.983,56.082001,-3.328
 C,0,-3.61,56.924,-4.415
 C,0,-4.141,56.007,-5.299
 C,0,-3.903,54.640999,-4.736
 C,0,-4.864,56.321999,-6.621
 C,0,-3.947,58.446999,-4.335
 C,0,-4.066,59.476002,-5.484
 C,0,-2.816,60.345001,-5.658
 O,0,-2.321,60.894001,-4.652
 O,0,-2.328,60.492001,-6.8
 C,0,-4.074,52.174,-4.889
 C,0,-4.658,50.948002,-5.482
 C,0,-4.181,49.889,-4.742
 C,0,-3.322,50.476002,-3.674
 C,0,-5.64,50.831001,-6.659
 C,0,-4.447,48.554001,-5.075
 C,0,-4.69712146,47.51821506,-3.96316065
 C,0,-1.923,50.285,-1.67
 C,0,-1.071,49.485001,-0.8
 C,0,-0.492,50.354,0.077
 C,0,-1.04,51.693001,-0.227
 C,0,-0.816,47.981998,-0.892
 C,0,0.49,50.046001,1.022
 C,0,0.26624177,48.8919758,2.01686587
 C,0,-1.183,54.145,0.12
 C,0,-0.922,55.370998,0.867
 C,0,-1.364,56.414001,0.103
 C,0,-1.949,55.842999,-1.088
 C,0,-0.304,55.464001,2.255
 C,0,-1.158,57.915001,0.342
 C,0,0.31,58.299,0.507
 C,0,0.523,59.794998,0.553
 O,0,-0.26,60.48,1.241
 O,0,1.477,60.282001,-0.088
 N,0,-3.175,54.673,-3.532
 N,0,-3.305,51.893002,-3.735
 N,0,-1.853,51.653999,-1.378
 N,0,-1.876,54.428001,-1.081
 Fe,0,-2.601,53.157001,-2.404
 H,0,-6.00714852,52.54469097,-2.68665581
 H,0,-7.69562801,52.57006928,-0.7474739
 H,0,-3.89302277,53.84828059,0.72391491
 H,0,-5.859945,53.75108773,2.49876095
 H,0,-7.48949206,53.7336891,1.86841157
 H,0,-6.67471853,52.22975599,2.22533727
 H,0,-1.3752204,60.50700461,-6.91655869
 H,0,-4.24604458,58.94905735,-6.39768117
 H,0,-4.90151051,60.11447861,-5.28608638
 H,0,-4.88991699,58.49115731,-3.83115718
 H,0,-3.20689239,58.85557964,-3.6791017
 H,0,-4.26022351,55.99942622,-7.44337507
 H,0,-5.80281125,55.80920806,-6.6450601
 H,0,-5.03151738,57.37631628,-6.6934776
 H,0,-2.35692164,57.68162359,-2.07145822
 H,0,-1.56271125,58.45389299,-0.48908617
 H,0,-1.6886424,58.19792411,1.22702721
 H,0,0.86571483,57.89694534,-0.31423875
 H,0,0.67820825,57.87045027,1.41566265
 H,0,2.38001147,60.08488228,0.17145036
 H,0,0.63921345,55.9653537,2.19259919
 H,0,-0.95760784,56.01277979,2.90039803
 H,0,-0.1591972,54.47924375,2.64766437
 H,0,-0.24855586,52.75738048,1.43817878
 H,0,0.10493885,47.74577552,-0.40111247
 H,0,-1.61783626,47.45457995,-0.41893678
 H,0,-0.7564487,47.69262938,-1.92040627
 H,0,-2.70038235,48.67218019,-2.77603889
 H,0,-5.19564843,50.24672386,-7.43750621
 H,0,-6.54001135,50.35713025,-6.32684629
 H,0,-5.86782989,51.80771408,-7.03186069
 H,0,-4.92452471,53.55510544,-6.24658553
 N,0,-0.80026098,53.51103565,-3.12290727
 C,0,0.19483418,53.15195436,-3.84844215
 H,0,0.86402326,52.63160881,-4.50137896
 H,0,-4.47631404,48.25435491,-6.10176819
 H,0,-3.86967088,47.05579177,-3.46678354
 H,0,-5.69835773,47.26096891,-3.68702599
 H,0,1.39749243,50.61195542,1.05445117
 H,0,1.10532119,48.38908782,2.4503972
 H,0,-0.72830602,48.59304107,2.27457251
 Recover connectivity data from disk.
 Stoichiometry    C39H39FeN7O4(1+,6)
 Framework group  C1[X(C39H39FeN7O4)]
 Deg. of freedom   264
 Full point group                 C1      NOp   1
 Largest Abelian subgroup         C1      NOp   1
 Largest concise Abelian subgroup C1      NOp   1
                         Standard orientation:                         
 ---------------------------------------------------------------------
 Center     Atomic      Atomic             Coordinates (Angstroms)
 Number     Number       Type             X           Y           Z
 ---------------------------------------------------------------------
      1          6           0        1.574455    1.471442    5.288724
      2          6           0        1.478990    0.546920    4.091458
      3          7           0        1.923798   -0.780184    4.063819
      4          6           0        0.987139    0.908072    2.818344
      5          6           0        1.735495   -1.143950    2.750388
      6          7           0        1.208323   -0.206906    1.964709
      7          6           0       -2.526192    0.021684    0.217951
      8          6           0        0.745288   -3.574735   -0.267713
      9          6           0        4.285837   -0.286277   -0.862747
     10          6           0        1.060043    3.309501   -0.327218
     11          6           0       -1.962654   -1.248221    0.007234
     12          6           0       -2.747564   -2.536535    0.095671
     13          6           0       -1.799014   -3.529013   -0.044134
     14          6           0       -0.460496   -2.868148   -0.149965
     15          6           0       -2.058203   -5.046150   -0.071571
     16          6           0       -4.201906   -2.705018    0.639728
     17          6           0       -5.247258   -3.791751    0.294099
     18          6           0       -6.293227   -3.330954   -0.726464
     19          8           0       -6.867937   -2.237520   -0.545982
     20          8           0       -6.553513   -4.061824   -1.707278
     21          6           0        1.997533   -2.985463   -0.438172
     22          6           0        3.270645   -3.743646   -0.427193
     23          6           0        4.278133   -2.820638   -0.599353
     24          6           0        3.615894   -1.487770   -0.688674
     25          6           0        3.481572   -5.252671   -0.222994
     26          6           0        5.623445   -3.187713   -0.738130
     27          6           0        6.727166   -2.323102   -0.101069
     28          6           0        3.681894    0.956685   -0.861822
     29          6           0        4.384402    2.173846   -1.246275
     30          6           0        3.476134    3.187106   -1.157484
     31          6           0        2.219063    2.588805   -0.660039
     32          6           0        5.830301    2.288894   -1.724444
     33          6           0        3.676373    4.515237   -1.542431
     34          6           0        4.888638    5.298291   -1.004995
     35          6           0       -0.171354    2.710525   -0.008698
     36          6           0       -1.391958    3.433633    0.332542
     37          6           0       -2.389602    2.508832    0.460465
     38          6           0       -1.787427    1.211591    0.257239
     39          6           0       -1.518515    4.936155    0.541177
     40          6           0       -3.894104    2.757666    0.625123
     41          6           0       -4.478596    3.641028   -0.473852
     42          6           0       -5.986715    3.728601   -0.415519
     43          8           0       -6.524449    3.884452    0.699027
     44          8           0       -6.630647    3.652867   -1.482189
     45          7           0       -0.549766   -1.463686   -0.137979
     46          7           0        2.209905   -1.589673   -0.531478
     47          7           0        2.329562    1.186071   -0.573896
     48          7           0       -0.398483    1.313698   -0.003540
     49         26           0        0.910840   -0.139844   -0.257081
     50          1           0        1.995385   -2.115287    2.384519
     51          1           0        2.289178   -1.329601    4.815243
     52          1           0        0.535663    1.839861    2.548459
     53          1           0        0.984291    2.346255    5.111778
     54          1           0        1.211312    0.966297    6.159273
     55          1           0        2.595153    1.754441    5.440331
     56          1           0       -6.710018   -3.670121   -2.569644
     57          1           0       -4.736066   -4.644486   -0.101408
     58          1           0       -5.750617   -4.080290    1.193141
     59          1           0       -4.090160   -2.762809    1.702307
     60          1           0       -4.686743   -1.778671    0.412324
     61          1           0       -1.858315   -5.424455   -1.052301
     62          1           0       -1.416992   -5.530366    0.635030
     63          1           0       -3.079462   -5.238182    0.183486
     64          1           0       -3.585291    0.083825    0.357042
     65          1           0       -4.401266    1.815553    0.614674
     66          1           0       -4.062857    3.228964    1.570798
     67          1           0       -4.193154    3.242157   -1.424812
     68          1           0       -4.072252    4.626089   -0.376702
     69          1           0       -6.555520    4.349246   -2.138703
     70          1           0       -2.152433    5.349162   -0.215442
     71          1           0       -1.941836    5.128009    1.504967
     72          1           0       -0.550235    5.387455    0.480662
     73          1           0        1.117884    4.377872   -0.315437
     74          1           0        5.950575    3.194106   -2.282142
     75          1           0        6.485725    2.301231   -0.878769
     76          1           0        6.067605    1.451949   -2.347429
     77          1           0        5.345246   -0.324217   -1.008051
     78          1           0        3.964896   -5.664974   -1.083984
     79          1           0        4.092659   -5.413770    0.640441
     80          1           0        2.533969   -5.729576   -0.083313
     81          1           0        0.701117   -4.642911   -0.223565
     82          7           0        0.273493    0.160536   -2.097839
     83          6           0        0.456961    0.068650   -3.364113
     84          1           0        0.849630   -0.122781   -4.340876
     85          1           0        5.883763   -4.068724   -1.286725
     86          1           0        7.084780   -1.452134   -0.609427
     87          1           0        7.136425   -2.593334    0.849921
     88          1           0        2.987428    4.988262   -2.210641
     89          1           0        5.282130    6.123181   -1.561431
     90          1           0        5.337435    5.017472   -0.075144
 ---------------------------------------------------------------------
 Rotational constants (GHZ):           0.0678210           0.0449232           0.0330267
 Standard basis: def2TZVP (5D, 7F)
 There are  2086 symmetry adapted cartesian basis functions of A   symmetry.
 There are  1829 symmetry adapted basis functions of A   symmetry.
  1829 basis functions,  2964 primitive gaussians,  2086 cartesian basis functions
   192 alpha electrons      187 beta electrons
       nuclear repulsion energy      7600.1045503555 Hartrees.
 NAtoms=   90 NActive=   90 NUniq=   90 SFac= 1.00D+00 NAtFMM=   60 NAOKFM=T Big=T
 Integral buffers will be    131072 words long.
 Raffenetti 2 integral format.
 Two-electron integral symmetry is turned on.
 Nuclear repulsion after empirical dispersion term =     7599.9791565168 Hartrees.
 One-electron integrals computed using PRISM.
   1 Symmetry operations used in ECPInt.
 ECPInt:  NShTT=  260281 NPrTT=  808361 LenC2=  186326 LenP2D=  373358.
 LDataN:  DoStor=T MaxTD1= 6 Len=  172
 NBasis=  1829 RedAO= T EigKep=  3.91D-06  NBF=  1829
 NBsUse=  1829 1.00D-06 EigRej= -1.00D+00 NBFU=  1829
 ExpMin= 4.20D-02 ExpMax= 3.01D+05 ExpMxC= 2.91D+03 IAcc=3 IRadAn=         5 AccDes= 0.00D+00
 Harris functional with IExCor= 1009 and IRadAn=       5 diagonalized for initial guess.
 HarFok:  IExCor= 1009 AccDes= 0.00D+00 IRadAn=         5 IDoV= 1 UseB2=F ITyADJ=14
 ICtDFT=  3500011 ScaDFX=  1.000000  1.000000  1.000000  1.000000
 FoFCou: FMM=F IPFlag=           0 FMFlag=      100000 FMFlg1=        2001
         NFxFlg=           0 DoJE=T BraDBF=F KetDBF=T FulRan=T
         wScrn=  0.000000 ICntrl=       500 IOpCl=  0 I1Cent=   200000004 NGrid=           0
         NMat0=    1 NMatS0=      1 NMatT0=    0 NMatD0=    1 NMtDS0=    0 NMtDT0=    0
 Petite list used in FoFCou.
 Initial guess <Sx>= 0.0000 <Sy>= 0.0000 <Sz>= 2.5000 <S**2>= 8.7500 S= 2.5000
 Requested convergence on RMS density matrix=1.00D-08 within 128 cycles.
 Requested convergence on MAX density matrix=1.00D-06.
 Requested convergence on             energy=1.00D-06.
 No special actions if energy rises.
 EnCoef did     3 forward-backward iterations
 EnCoef did   100 forward-backward iterations
 Restarting incremental Fock formation.
 Restarting incremental Fock formation.
 SCF Done:  E(UPBE1PBE) =  -3455.27539964     A.U. after   52 cycles
            NFock= 52  Conv=0.12D-08     -V/T= 2.0041
 <Sx>= 0.0000 <Sy>= 0.0000 <Sz>= 2.5000 <S**2>= 8.8526 S= 2.5171
 <L.S>= 0.000000000000E+00
 Annihilation of the first spin contaminant:
 S**2 before annihilation     8.8526,   after     8.7532

 **********************************************************************

            Population analysis using the SCF density.

 **********************************************************************

 Orbital symmetries:
 Alpha Orbitals:
       Occupied  (A) (A) (A) (A) (A) (A) (A) (A) (A) (A) (A) (A)
                 (A) (A) (A) (A) (A) (A) (A) (A) (A) (A) (A) (A)
                 (A) (A) (A) (A) (A) (A) (A) (A) (A) (A) (A) (A)
                 (A) (A) (A) (A) (A) (A) (A) (A) (A) (A) (A) (A)
                 (A) (A) (A) (A) (A) (A) (A) (A) (A) (A) (A) (A)
                 (A) (A) (A) (A) (A) (A) (A) (A) (A) (A) (A) (A)
                 (A) (A) (A) (A) (A) (A) (A) (A) (A) (A) (A) (A)
                 (A) (A) (A) (A) (A) (A) (A) (A) (A) (A) (A) (A)
                 (A) (A) (A) (A) (A) (A) (A) (A) (A) (A) (A) (A)
                 (A) (A) (A) (A) (A) (A) (A) (A) (A) (A) (A) (A)
                 (A) (A) (A) (A) (A) (A) (A) (A) (A) (A) (A) (A)
                 (A) (A) (A) (A) (A) (A) (A) (A) (A) (A) (A) (A)
                 (A) (A) (A) (A) (A) (A) (A) (A) (A) (A) (A) (A)
                 (A) (A) (A) (A) (A) (A) (A) (A) (A) (A) (A) (A)
                 (A) (A) (A) (A) (A) (A) (A) (A) (A) (A) (A) (A)
                 (A) (A) (A) (A) (A) (A) (A) (A) (A) (A) (A) (A)
       Virtual   (A) (A) (A) (A) (A) (A) (A) (A) (A) (A) (A) (A)
                 (A) (A) (A) (A) (A) (A) (A) (A) (A) (A) (A) (A)
                 (A) (A) (A) (A) (A) (A) (A) (A) (A) (A) (A) (A)
                 (A) (A) (A) (A) (A) (A) (A) (A) (A) (A) (A) (A)
                 (A) (A) (A) (A) (A) (A) (A) (A) (A) (A) (A) (A)
                 (A) (A) (A) (A) (A) (A) (A) (A) (A) (A) (A) (A)
                 (A) (A) (A) (A) (A) (A) (A) (A) (A) (A) (A) (A)
                 (A) (A) (A) (A) (A) (A) (A) (A) (A) (A) (A) (A)
                 (A) (A) (A) (A) (A) (A) (A) (A) (A) (A) (A) (A)
                 (A) (A) (A) (A) (A) (A) (A) (A) (A) (A) (A) (A)
                 (A) (A) (A) (A) (A) (A) (A) (A) (A) (A) (A) (A)
                 (A) (A) (A) (A) (A) (A) (A) (A) (A) (A) (A) (A)
                 (A) (A) (A) (A) (A) (A) (A) (A) (A) (A) (A) (A)
                 (A) (A) (A) (A) (A) (A) (A) (A) (A) (A) (A) (A)
                 (A) (A) (A) (A) (A) (A) (A) (A) (A) (A) (A) (A)
                 (A) (A) (A) (A) (A) (A) (A) (A) (A) (A) (A) (A)
                 (A) (A) (A) (A) (A) (A) (A) (A) (A) (A) (A) (A)
                 (A) (A) (A) (A) (A) (A) (A) (A) (A) (A) (A) (A)
                 (A) (A) (A) (A) (A) (A) (A) (A) (A) (A) (A) (A)
                 (A) (A) (A) (A) (A) (A) (A) (A) (A) (A) (A) (A)
                 (A) (A) (A) (A) (A) (A) (A) (A) (A) (A) (A) (A)
                 (A) (A) (A) (A) (A) (A) (A) (A) (A) (A) (A) (A)
                 (A) (A) (A) (A) (A) (A) (A) (A) (A) (A) (A) (A)
                 (A) (A) (A) (A) (A) (A) (A) (A) (A) (A) (A) (A)
                 (A) (A) (A) (A) (A) (A) (A) (A) (A) (A) (A) (A)
                 (A) (A) (A) (A) (A) (A) (A) (A) (A) (A) (A) (A)
                 (A) (A) (A) (A) (A) (A) (A) (A) (A) (A) (A) (A)
                 (A) (A) (A) (A) (A) (A) (A) (A) (A) (A) (A) (A)
                 (A) (A) (A) (A) (A) (A) (A) (A) (A) (A) (A) (A)
                 (A) (A) (A) (A) (A) (A) (A) (A) (A) (A) (A) (A)
                 (A) (A) (A) (A) (A) (A) (A) (A) (A) (A) (A) (A)
                 (A) (A) (A) (A) (A) (A) (A) (A) (A) (A) (A) (A)
                 (A) (A) (A) (A) (A) (A) (A) (A) (A) (A) (A) (A)
                 (A) (A) (A) (A) (A) (A) (A) (A) (A) (A) (A) (A)
                 (A) (A) (A) (A) (A) (A) (A) (A) (A) (A) (A) (A)
                 (A) (A) (A) (A) (A) (A) (A) (A) (A) (A) (A) (A)
                 (A) (A) (A) (A) (A) (A) (A) (A) (A) (A) (A) (A)
                 (A) (A) (A) (A) (A) (A) (A) (A) (A) (A) (A) (A)
                 (A) (A) (A) (A) (A) (A) (A) (A) (A) (A) (A) (A)
                 (A) (A) (A) (A) (A) (A) (A) (A) (A) (A) (A) (A)
                 (A) (A) (A) (A) (A) (A) (A) (A) (A) (A) (A) (A)
                 (A) (A) (A) (A) (A) (A) (A) (A) (A) (A) (A) (A)
                 (A) (A) (A) (A) (A) (A) (A) (A) (A) (A) (A) (A)
                 (A) (A) (A) (A) (A) (A) (A) (A) (A) (A) (A) (A)
                 (A) (A) (A) (A) (A) (A) (A) (A) (A) (A) (A) (A)
                 (A) (A) (A) (A) (A) (A) (A) (A) (A) (A) (A) (A)
                 (A) (A) (A) (A) (A) (A) (A) (A) (A) (A) (A) (A)
                 (A) (A) (A) (A) (A) (A) (A) (A) (A) (A) (A) (A)
                 (A) (A) (A) (A) (A) (A) (A) (A) (A) (A) (A) (A)
                 (A) (A) (A) (A) (A) (A) (A) (A) (A) (A) (A) (A)
                 (A) (A) (A) (A) (A) (A) (A) (A) (A) (A) (A) (A)
                 (A) (A) (A) (A) (A) (A) (A) (A) (A) (A) (A) (A)
                 (A) (A) (A) (A) (A) (A) (A) (A) (A) (A) (A) (A)
                 (A) (A) (A) (A) (A) (A) (A) (A) (A) (A) (A) (A)
                 (A) (A) (A) (A) (A) (A) (A) (A) (A) (A) (A) (A)
                 (A) (A) (A) (A) (A) (A) (A) (A) (A) (A) (A) (A)
                 (A) (A) (A) (A) (A) (A) (A) (A) (A) (A) (A) (A)
                 (A) (A) (A) (A) (A) (A) (A) (A) (A) (A) (A) (A)
                 (A) (A) (A) (A) (A) (A) (A) (A) (A) (A) (A) (A)
                 (A) (A) (A) (A) (A) (A) (A) (A) (A) (A) (A) (A)
                 (A) (A) (A) (A) (A) (A) (A) (A) (A) (A) (A) (A)
                 (A) (A) (A) (A) (A) (A) (A) (A) (A) (A) (A) (A)
                 (A) (A) (A) (A) (A) (A) (A) (A) (A) (A) (A) (A)
                 (A) (A) (A) (A) (A) (A) (A) (A) (A) (A) (A) (A)
                 (A) (A) (A) (A) (A) (A) (A) (A) (A) (A) (A) (A)
                 (A) (A) (A) (A) (A) (A) (A) (A) (A) (A) (A) (A)
                 (A) (A) (A) (A) (A) (A) (A) (A) (A) (A) (A) (A)
                 (A) (A) (A) (A) (A) (A) (A) (A) (A) (A) (A) (A)
                 (A) (A) (A) (A) (A) (A) (A) (A) (A) (A) (A) (A)
                 (A) (A) (A) (A) (A) (A) (A) (A) (A) (A) (A) (A)
                 (A) (A) (A) (A) (A) (A) (A) (A) (A) (A) (A) (A)
                 (A) (A) (A) (A) (A) (A) (A) (A) (A) (A) (A) (A)
                 (A) (A) (A) (A) (A) (A) (A) (A) (A) (A) (A) (A)
                 (A) (A) (A) (A) (A) (A) (A) (A) (A) (A) (A) (A)
                 (A) (A) (A) (A) (A) (A) (A) (A) (A) (A) (A) (A)
                 (A) (A) (A) (A) (A) (A) (A) (A) (A) (A) (A) (A)
                 (A) (A) (A) (A) (A) (A) (A) (A) (A) (A) (A) (A)
                 (A) (A) (A) (A) (A) (A) (A) (A) (A) (A) (A) (A)
                 (A) (A) (A) (A) (A) (A) (A) (A) (A) (A) (A) (A)
                 (A) (A) (A) (A) (A) (A) (A) (A) (A) (A) (A) (A)
                 (A) (A) (A) (A) (A) (A) (A) (A) (A) (A) (A) (A)
                 (A) (A) (A) (A) (A) (A) (A) (A) (A) (A) (A) (A)
                 (A) (A) (A) (A) (A) (A) (A) (A) (A) (A) (A) (A)
                 (A) (A) (A) (A) (A) (A) (A) (A) (A) (A) (A) (A)
                 (A) (A) (A) (A) (A) (A) (A) (A) (A) (A) (A) (A)
                 (A) (A) (A) (A) (A) (A) (A) (A) (A) (A) (A) (A)
                 (A) (A) (A) (A) (A) (A) (A) (A) (A) (A) (A) (A)
                 (A) (A) (A) (A) (A) (A) (A) (A) (A) (A) (A) (A)
                 (A) (A) (A) (A) (A) (A) (A) (A) (A) (A) (A) (A)
                 (A) (A) (A) (A) (A) (A) (A) (A) (A) (A) (A) (A)
                 (A) (A) (A) (A) (A) (A) (A) (A) (A) (A) (A) (A)
                 (A) (A) (A) (A) (A) (A) (A) (A) (A) (A) (A) (A)
                 (A) (A) (A) (A) (A) (A) (A) (A) (A) (A) (A) (A)
                 (A) (A) (A) (A) (A) (A) (A) (A) (A) (A) (A) (A)
                 (A) (A) (A) (A) (A) (A) (A) (A) (A) (A) (A) (A)
                 (A) (A) (A) (A) (A) (A) (A) (A) (A) (A) (A) (A)
                 (A) (A) (A) (A) (A) (A) (A) (A) (A) (A) (A) (A)
                 (A) (A) (A) (A) (A) (A) (A) (A) (A) (A) (A) (A)
                 (A) (A) (A) (A) (A) (A) (A) (A) (A) (A) (A) (A)
                 (A) (A) (A) (A) (A) (A) (A) (A) (A) (A) (A) (A)
                 (A) (A) (A) (A) (A) (A) (A) (A) (A) (A) (A) (A)
                 (A) (A) (A) (A) (A) (A) (A) (A) (A) (A) (A) (A)
                 (A) (A) (A) (A) (A) (A) (A) (A) (A) (A) (A) (A)
                 (A) (A) (A) (A) (A) (A) (A) (A) (A) (A) (A) (A)
                 (A) (A) (A) (A) (A) (A) (A) (A) (A) (A) (A) (A)
                 (A) (A) (A) (A) (A) (A) (A) (A) (A) (A) (A) (A)
                 (A) (A) (A) (A) (A) (A) (A) (A) (A) (A) (A) (A)
                 (A) (A) (A) (A) (A) (A) (A) (A) (A) (A) (A) (A)
                 (A) (A) (A) (A) (A) (A) (A) (A) (A) (A) (A) (A)
                 (A) (A) (A) (A) (A) (A) (A) (A) (A) (A) (A) (A)
                 (A) (A) (A) (A) (A) (A) (A) (A) (A) (A) (A) (A)
                 (A) (A) (A) (A) (A) (A) (A) (A) (A) (A) (A) (A)
                 (A) (A) (A) (A) (A) (A) (A) (A) (A) (A) (A) (A)
                 (A) (A) (A) (A) (A) (A) (A) (A) (A) (A) (A) (A)
                 (A) (A) (A) (A) (A) (A) (A) (A) (A) (A) (A) (A)
                 (A) (A) (A) (A) (A) (A) (A) (A) (A) (A) (A) (A)
                 (A) (A) (A) (A) (A) (A) (A) (A) (A) (A) (A) (A)
                 (A) (A) (A) (A) (A) (A) (A) (A) (A) (A) (A) (A)
                 (A) (A) (A) (A) (A) (A) (A) (A) (A) (A) (A) (A)
                 (A) (A) (A) (A) (A) (A) (A) (A) (A) (A) (A) (A)
                 (A) (A) (A) (A) (A) (A) (A) (A) (A) (A) (A) (A)
                 (A) (A) (A) (A) (A) (A) (A) (A) (A) (A) (A) (A)
                 (A) (A) (A) (A) (A) (A) (A) (A) (A) (A) (A) (A)
                 (A) (A) (A) (A) (A) (A) (A) (A) (A) (A) (A) (A)
                 (A) (A) (A) (A) (A) (A) (A) (A) (A) (A) (A) (A)
                 (A) (A) (A) (A) (A) (A) (A) (A) (A) (A) (A) (A)
                 (A) (A) (A) (A) (A) (A) (A) (A) (A) (A) (A) (A)
                 (A) (A) (A) (A) (A) (A) (A) (A) (A) (A) (A) (A)
                 (A) (A) (A) (A) (A) (A) (A) (A) (A) (A) (A) (A)
                 (A) (A) (A) (A) (A) (A) (A) (A) (A) (A) (A) (A)
                 (A) (A) (A) (A) (A) (A) (A) (A) (A) (A) (A) (A)
                 (A) (A) (A) (A) (A) (A) (A) (A) (A) (A) (A) (A)
                 (A) (A) (A) (A) (A) (A) (A) (A) (A) (A) (A) (A)
                 (A) (A) (A) (A) (A) (A) (A) (A) (A) (A) (A) (A)
                 (A) (A) (A) (A) (A) (A) (A) (A) (A) (A) (A) (A)
                 (A) (A) (A) (A) (A) (A) (A) (A) (A) (A) (A) (A)
                 (A) (A) (A) (A) (A)
 Beta  Orbitals:
       Occupied  (A) (A) (A) (A) (A) (A) (A) (A) (A) (A) (A) (A)
                 (A) (A) (A) (A) (A) (A) (A) (A) (A) (A) (A) (A)
                 (A) (A) (A) (A) (A) (A) (A) (A) (A) (A) (A) (A)
                 (A) (A) (A) (A) (A) (A) (A) (A) (A) (A) (A) (A)
                 (A) (A) (A) (A) (A) (A) (A) (A) (A) (A) (A) (A)
                 (A) (A) (A) (A) (A) (A) (A) (A) (A) (A) (A) (A)
                 (A) (A) (A) (A) (A) (A) (A) (A) (A) (A) (A) (A)
                 (A) (A) (A) (A) (A) (A) (A) (A) (A) (A) (A) (A)
                 (A) (A) (A) (A) (A) (A) (A) (A) (A) (A) (A) (A)
                 (A) (A) (A) (A) (A) (A) (A) (A) (A) (A) (A) (A)
                 (A) (A) (A) (A) (A) (A) (A) (A) (A) (A) (A) (A)
                 (A) (A) (A) (A) (A) (A) (A) (A) (A) (A) (A) (A)
                 (A) (A) (A) (A) (A) (A) (A) (A) (A) (A) (A) (A)
                 (A) (A) (A) (A) (A) (A) (A) (A) (A) (A) (A) (A)
                 (A) (A) (A) (A) (A) (A) (A) (A) (A) (A) (A) (A)
                 (A) (A) (A) (A) (A) (A) (A)
       Virtual   (A) (A) (A) (A) (A) (A) (A) (A) (A) (A) (A) (A)
                 (A) (A) (A) (A) (A) (A) (A) (A) (A) (A) (A) (A)
                 (A) (A) (A) (A) (A) (A) (A) (A) (A) (A) (A) (A)
                 (A) (A) (A) (A) (A) (A) (A) (A) (A) (A) (A) (A)
                 (A) (A) (A) (A) (A) (A) (A) (A) (A) (A) (A) (A)
                 (A) (A) (A) (A) (A) (A) (A) (A) (A) (A) (A) (A)
                 (A) (A) (A) (A) (A) (A) (A) (A) (A) (A) (A) (A)
                 (A) (A) (A) (A) (A) (A) (A) (A) (A) (A) (A) (A)
                 (A) (A) (A) (A) (A) (A) (A) (A) (A) (A) (A) (A)
                 (A) (A) (A) (A) (A) (A) (A) (A) (A) (A) (A) (A)
                 (A) (A) (A) (A) (A) (A) (A) (A) (A) (A) (A) (A)
                 (A) (A) (A) (A) (A) (A) (A) (A) (A) (A) (A) (A)
                 (A) (A) (A) (A) (A) (A) (A) (A) (A) (A) (A) (A)
                 (A) (A) (A) (A) (A) (A) (A) (A) (A) (A) (A) (A)
                 (A) (A) (A) (A) (A) (A) (A) (A) (A) (A) (A) (A)
                 (A) (A) (A) (A) (A) (A) (A) (A) (A) (A) (A) (A)
                 (A) (A) (A) (A) (A) (A) (A) (A) (A) (A) (A) (A)
                 (A) (A) (A) (A) (A) (A) (A) (A) (A) (A) (A) (A)
                 (A) (A) (A) (A) (A) (A) (A) (A) (A) (A) (A) (A)
                 (A) (A) (A) (A) (A) (A) (A) (A) (A) (A) (A) (A)
                 (A) (A) (A) (A) (A) (A) (A) (A) (A) (A) (A) (A)
                 (A) (A) (A) (A) (A) (A) (A) (A) (A) (A) (A) (A)
                 (A) (A) (A) (A) (A) (A) (A) (A) (A) (A) (A) (A)
                 (A) (A) (A) (A) (A) (A) (A) (A) (A) (A) (A) (A)
                 (A) (A) (A) (A) (A) (A) (A) (A) (A) (A) (A) (A)
                 (A) (A) (A) (A) (A) (A) (A) (A) (A) (A) (A) (A)
                 (A) (A) (A) (A) (A) (A) (A) (A) (A) (A) (A) (A)
                 (A) (A) (A) (A) (A) (A) (A) (A) (A) (A) (A) (A)
                 (A) (A) (A) (A) (A) (A) (A) (A) (A) (A) (A) (A)
                 (A) (A) (A) (A) (A) (A) (A) (A) (A) (A) (A) (A)
                 (A) (A) (A) (A) (A) (A) (A) (A) (A) (A) (A) (A)
                 (A) (A) (A) (A) (A) (A) (A) (A) (A) (A) (A) (A)
                 (A) (A) (A) (A) (A) (A) (A) (A) (A) (A) (A) (A)
                 (A) (A) (A) (A) (A) (A) (A) (A) (A) (A) (A) (A)
                 (A) (A) (A) (A) (A) (A) (A) (A) (A) (A) (A) (A)
                 (A) (A) (A) (A) (A) (A) (A) (A) (A) (A) (A) (A)
                 (A) (A) (A) (A) (A) (A) (A) (A) (A) (A) (A) (A)
                 (A) (A) (A) (A) (A) (A) (A) (A) (A) (A) (A) (A)
                 (A) (A) (A) (A) (A) (A) (A) (A) (A) (A) (A) (A)
                 (A) (A) (A) (A) (A) (A) (A) (A) (A) (A) (A) (A)
                 (A) (A) (A) (A) (A) (A) (A) (A) (A) (A) (A) (A)
                 (A) (A) (A) (A) (A) (A) (A) (A) (A) (A) (A) (A)
                 (A) (A) (A) (A) (A) (A) (A) (A) (A) (A) (A) (A)
                 (A) (A) (A) (A) (A) (A) (A) (A) (A) (A) (A) (A)
                 (A) (A) (A) (A) (A) (A) (A) (A) (A) (A) (A) (A)
                 (A) (A) (A) (A) (A) (A) (A) (A) (A) (A) (A) (A)
                 (A) (A) (A) (A) (A) (A) (A) (A) (A) (A) (A) (A)
                 (A) (A) (A) (A) (A) (A) (A) (A) (A) (A) (A) (A)
                 (A) (A) (A) (A) (A) (A) (A) (A) (A) (A) (A) (A)
                 (A) (A) (A) (A) (A) (A) (A) (A) (A) (A) (A) (A)
                 (A) (A) (A) (A) (A) (A) (A) (A) (A) (A) (A) (A)
                 (A) (A) (A) (A) (A) (A) (A) (A) (A) (A) (A) (A)
                 (A) (A) (A) (A) (A) (A) (A) (A) (A) (A) (A) (A)
                 (A) (A) (A) (A) (A) (A) (A) (A) (A) (A) (A) (A)
                 (A) (A) (A) (A) (A) (A) (A) (A) (A) (A) (A) (A)
                 (A) (A) (A) (A) (A) (A) (A) (A) (A) (A) (A) (A)
                 (A) (A) (A) (A) (A) (A) (A) (A) (A) (A) (A) (A)
                 (A) (A) (A) (A) (A) (A) (A) (A) (A) (A) (A) (A)
                 (A) (A) (A) (A) (A) (A) (A) (A) (A) (A) (A) (A)
                 (A) (A) (A) (A) (A) (A) (A) (A) (A) (A) (A) (A)
                 (A) (A) (A) (A) (A) (A) (A) (A) (A) (A) (A) (A)
                 (A) (A) (A) (A) (A) (A) (A) (A) (A) (A) (A) (A)
                 (A) (A) (A) (A) (A) (A) (A) (A) (A) (A) (A) (A)
                 (A) (A) (A) (A) (A) (A) (A) (A) (A) (A) (A) (A)
                 (A) (A) (A) (A) (A) (A) (A) (A) (A) (A) (A) (A)
                 (A) (A) (A) (A) (A) (A) (A) (A) (A) (A) (A) (A)
                 (A) (A) (A) (A) (A) (A) (A) (A) (A) (A) (A) (A)
                 (A) (A) (A) (A) (A) (A) (A) (A) (A) (A) (A) (A)
                 (A) (A) (A) (A) (A) (A) (A) (A) (A) (A) (A) (A)
                 (A) (A) (A) (A) (A) (A) (A) (A) (A) (A) (A) (A)
                 (A) (A) (A) (A) (A) (A) (A) (A) (A) (A) (A) (A)
                 (A) (A) (A) (A) (A) (A) (A) (A) (A) (A) (A) (A)
                 (A) (A) (A) (A) (A) (A) (A) (A) (A) (A) (A) (A)
                 (A) (A) (A) (A) (A) (A) (A) (A) (A) (A) (A) (A)
                 (A) (A) (A) (A) (A) (A) (A) (A) (A) (A) (A) (A)
                 (A) (A) (A) (A) (A) (A) (A) (A) (A) (A) (A) (A)
                 (A) (A) (A) (A) (A) (A) (A) (A) (A) (A) (A) (A)
                 (A) (A) (A) (A) (A) (A) (A) (A) (A) (A) (A) (A)
                 (A) (A) (A) (A) (A) (A) (A) (A) (A) (A) (A) (A)
                 (A) (A) (A) (A) (A) (A) (A) (A) (A) (A) (A) (A)
                 (A) (A) (A) (A) (A) (A) (A) (A) (A) (A) (A) (A)
                 (A) (A) (A) (A) (A) (A) (A) (A) (A) (A) (A) (A)
                 (A) (A) (A) (A) (A) (A) (A) (A) (A) (A) (A) (A)
                 (A) (A) (A) (A) (A) (A) (A) (A) (A) (A) (A) (A)
                 (A) (A) (A) (A) (A) (A) (A) (A) (A) (A) (A) (A)
                 (A) (A) (A) (A) (A) (A) (A) (A) (A) (A) (A) (A)
                 (A) (A) (A) (A) (A) (A) (A) (A) (A) (A) (A) (A)
                 (A) (A) (A) (A) (A) (A) (A) (A) (A) (A) (A) (A)
                 (A) (A) (A) (A) (A) (A) (A) (A) (A) (A) (A) (A)
                 (A) (A) (A) (A) (A) (A) (A) (A) (A) (A) (A) (A)
                 (A) (A) (A) (A) (A) (A) (A) (A) (A) (A) (A) (A)
                 (A) (A) (A) (A) (A) (A) (A) (A) (A) (A) (A) (A)
                 (A) (A) (A) (A) (A) (A) (A) (A) (A) (A) (A) (A)
                 (A) (A) (A) (A) (A) (A) (A) (A) (A) (A) (A) (A)
                 (A) (A) (A) (A) (A) (A) (A) (A) (A) (A) (A) (A)
                 (A) (A) (A) (A) (A) (A) (A) (A) (A) (A) (A) (A)
                 (A) (A) (A) (A) (A) (A) (A) (A) (A) (A) (A) (A)
                 (A) (A) (A) (A) (A) (A) (A) (A) (A) (A) (A) (A)
                 (A) (A) (A) (A) (A) (A) (A) (A) (A) (A) (A) (A)
                 (A) (A) (A) (A) (A) (A) (A) (A) (A) (A) (A) (A)
                 (A) (A) (A) (A) (A) (A) (A) (A) (A) (A) (A) (A)
                 (A) (A) (A) (A) (A) (A) (A) (A) (A) (A) (A) (A)
                 (A) (A) (A) (A) (A) (A) (A) (A) (A) (A) (A) (A)
                 (A) (A) (A) (A) (A) (A) (A) (A) (A) (A) (A) (A)
                 (A) (A) (A) (A) (A) (A) (A) (A) (A) (A) (A) (A)
                 (A) (A) (A) (A) (A) (A) (A) (A) (A) (A) (A) (A)
                 (A) (A) (A) (A) (A) (A) (A) (A) (A) (A) (A) (A)
                 (A) (A) (A) (A) (A) (A) (A) (A) (A) (A) (A) (A)
                 (A) (A) (A) (A) (A) (A) (A) (A) (A) (A) (A) (A)
                 (A) (A) (A) (A) (A) (A) (A) (A) (A) (A) (A) (A)
                 (A) (A) (A) (A) (A) (A) (A) (A) (A) (A) (A) (A)
                 (A) (A) (A) (A) (A) (A) (A) (A) (A) (A) (A) (A)
                 (A) (A) (A) (A) (A) (A) (A) (A) (A) (A) (A) (A)
                 (A) (A) (A) (A) (A) (A) (A) (A) (A) (A) (A) (A)
                 (A) (A) (A) (A) (A) (A) (A) (A) (A) (A) (A) (A)
                 (A) (A) (A) (A) (A) (A) (A) (A) (A) (A) (A) (A)
                 (A) (A) (A) (A) (A) (A) (A) (A) (A) (A) (A) (A)
                 (A) (A) (A) (A) (A) (A) (A) (A) (A) (A) (A) (A)
                 (A) (A) (A) (A) (A) (A) (A) (A) (A) (A) (A) (A)
                 (A) (A) (A) (A) (A) (A) (A) (A) (A) (A) (A) (A)
                 (A) (A) (A) (A) (A) (A) (A) (A) (A) (A) (A) (A)
                 (A) (A) (A) (A) (A) (A) (A) (A) (A) (A) (A) (A)
                 (A) (A) (A) (A) (A) (A) (A) (A) (A) (A) (A) (A)
                 (A) (A) (A) (A) (A) (A) (A) (A) (A) (A) (A) (A)
                 (A) (A) (A) (A) (A) (A) (A) (A) (A) (A) (A) (A)
                 (A) (A) (A) (A) (A) (A) (A) (A) (A) (A) (A) (A)
                 (A) (A) (A) (A) (A) (A) (A) (A) (A) (A) (A) (A)
                 (A) (A) (A) (A) (A) (A) (A) (A) (A) (A) (A) (A)
                 (A) (A) (A) (A) (A) (A) (A) (A) (A) (A) (A) (A)
                 (A) (A) (A) (A) (A) (A) (A) (A) (A) (A) (A) (A)
                 (A) (A) (A) (A) (A) (A) (A) (A) (A) (A) (A) (A)
                 (A) (A) (A) (A) (A) (A) (A) (A) (A) (A) (A) (A)
                 (A) (A) (A) (A) (A) (A) (A) (A) (A) (A) (A) (A)
                 (A) (A) (A) (A) (A) (A) (A) (A) (A) (A) (A) (A)
                 (A) (A) (A) (A) (A) (A) (A) (A) (A) (A) (A) (A)
                 (A) (A) (A) (A) (A) (A) (A) (A) (A) (A) (A) (A)
                 (A) (A) (A) (A) (A) (A) (A) (A) (A) (A)
 The electronic state is 6-A.
 Alpha  occ. eigenvalues -- -256.52716 -30.33523 -26.17015 -26.14727 -26.14697
 Alpha  occ. eigenvalues --  -19.33078 -19.32000 -19.24549 -19.24524 -14.55914
 Alpha  occ. eigenvalues --  -14.54708 -14.50135 -14.49729 -14.49728 -14.49522
 Alpha  occ. eigenvalues --  -14.48943 -10.43662 -10.42332 -10.41737 -10.38522
 Alpha  occ. eigenvalues --  -10.36987 -10.36887 -10.36506 -10.36452 -10.36434
 Alpha  occ. eigenvalues --  -10.36406 -10.36159 -10.35949 -10.35703 -10.33954
 Alpha  occ. eigenvalues --  -10.33797 -10.33783 -10.33701 -10.33459 -10.33435
 Alpha  occ. eigenvalues --  -10.33152 -10.32946 -10.32875 -10.32673 -10.32650
 Alpha  occ. eigenvalues --  -10.32611 -10.32451 -10.32384 -10.32383 -10.32339
 Alpha  occ. eigenvalues --  -10.31823 -10.31707 -10.31409 -10.30817 -10.30800
 Alpha  occ. eigenvalues --  -10.30705 -10.30393 -10.30324 -10.30169 -10.29823
 Alpha  occ. eigenvalues --   -3.72763  -2.52622  -2.46558  -2.46533  -1.23821
 Alpha  occ. eigenvalues --   -1.23115  -1.13520  -1.09322  -1.09298  -1.07603
 Alpha  occ. eigenvalues --   -1.06337  -1.06138  -1.04862  -1.02988  -1.00361
 Alpha  occ. eigenvalues --   -0.93577  -0.93298  -0.92790  -0.92278  -0.91885
 Alpha  occ. eigenvalues --   -0.90672  -0.90267  -0.88896  -0.87887  -0.87517
 Alpha  occ. eigenvalues --   -0.86318  -0.85348  -0.84742  -0.82803  -0.81812
 Alpha  occ. eigenvalues --   -0.81113  -0.80402  -0.80360  -0.78890  -0.78419
 Alpha  occ. eigenvalues --   -0.77200  -0.75885  -0.75256  -0.75185  -0.74260
 Alpha  occ. eigenvalues --   -0.73791  -0.73260  -0.72496  -0.72118  -0.70741
 Alpha  occ. eigenvalues --   -0.68952  -0.67703  -0.65046  -0.64839  -0.64741
 Alpha  occ. eigenvalues --   -0.64337  -0.63692  -0.62178  -0.61946  -0.61682
 Alpha  occ. eigenvalues --   -0.60967  -0.60218  -0.60155  -0.59453  -0.58648
 Alpha  occ. eigenvalues --   -0.58195  -0.57643  -0.57544  -0.57377  -0.56945
 Alpha  occ. eigenvalues --   -0.56465  -0.55991  -0.55515  -0.55441  -0.55175
 Alpha  occ. eigenvalues --   -0.54727  -0.54321  -0.54123  -0.53895  -0.53559
 Alpha  occ. eigenvalues --   -0.53395  -0.53136  -0.53039  -0.52671  -0.52517
 Alpha  occ. eigenvalues --   -0.52332  -0.52147  -0.51925  -0.51654  -0.51574
 Alpha  occ. eigenvalues --   -0.51166  -0.51021  -0.50851  -0.50504  -0.50383
 Alpha  occ. eigenvalues --   -0.50310  -0.50165  -0.49933  -0.49635  -0.49373
 Alpha  occ. eigenvalues --   -0.49195  -0.48667  -0.48467  -0.48367  -0.48301
 Alpha  occ. eigenvalues --   -0.48029  -0.47861  -0.47449  -0.47378  -0.46762
 Alpha  occ. eigenvalues --   -0.46560  -0.46369  -0.45767  -0.45625  -0.45479
 Alpha  occ. eigenvalues --   -0.45140  -0.44462  -0.43771  -0.43572  -0.43284
 Alpha  occ. eigenvalues --   -0.42796  -0.42390  -0.41886  -0.41363  -0.40331
 Alpha  occ. eigenvalues --   -0.39685  -0.39510  -0.38537  -0.38303  -0.37063
 Alpha  occ. eigenvalues --   -0.36249  -0.35490  -0.34798  -0.34521  -0.34079
 Alpha  occ. eigenvalues --   -0.33404  -0.32919  -0.32298  -0.31901  -0.30585
 Alpha  occ. eigenvalues --   -0.29688  -0.27867
 Alpha virt. eigenvalues --   -0.18374  -0.18283  -0.17275  -0.15952  -0.14464
 Alpha virt. eigenvalues --   -0.13195  -0.10146  -0.08270  -0.07686  -0.07401
 Alpha virt. eigenvalues --   -0.06723  -0.05875  -0.05232  -0.04578  -0.04314
 Alpha virt. eigenvalues --   -0.03864  -0.03702  -0.03552  -0.03102  -0.02800
 Alpha virt. eigenvalues --   -0.02630  -0.02206  -0.01669  -0.01530  -0.01174
 Alpha virt. eigenvalues --   -0.00942  -0.00266   0.00071   0.00499   0.00837
 Alpha virt. eigenvalues --    0.01022   0.01209   0.01388   0.01556   0.01939
 Alpha virt. eigenvalues --    0.02074   0.02285   0.02390   0.02626   0.02824
 Alpha virt. eigenvalues --    0.03137   0.03218   0.03830   0.04003   0.04187
 Alpha virt. eigenvalues --    0.04611   0.04891   0.04969   0.05155   0.05270
 Alpha virt. eigenvalues --    0.05359   0.05733   0.05999   0.06156   0.06465
 Alpha virt. eigenvalues --    0.06697   0.06863   0.06935   0.07316   0.07390
 Alpha virt. eigenvalues --    0.07548   0.07841   0.07920   0.08226   0.08458
 Alpha virt. eigenvalues --    0.08549   0.08768   0.09131   0.09248   0.09778
 Alpha virt. eigenvalues --    0.09908   0.10182   0.10320   0.10834   0.11084
 Alpha virt. eigenvalues --    0.11165   0.11594   0.11969   0.12330   0.12382
 Alpha virt. eigenvalues --    0.12668   0.12795   0.12895   0.13024   0.13236
 Alpha virt. eigenvalues --    0.13417   0.13705   0.13744   0.13981   0.14084
 Alpha virt. eigenvalues --    0.14225   0.14535   0.14672   0.14804   0.15145
 Alpha virt. eigenvalues --    0.15413   0.15480   0.15933   0.16052   0.16110
 Alpha virt. eigenvalues --    0.16357   0.16717   0.16871   0.17074   0.17427
 Alpha virt. eigenvalues --    0.17658   0.17782   0.17908   0.18193   0.18365
 Alpha virt. eigenvalues --    0.18526   0.18749   0.18850   0.19216   0.19555
 Alpha virt. eigenvalues --    0.19557   0.19702   0.19935   0.19944   0.20261
 Alpha virt. eigenvalues --    0.20355   0.20607   0.21067   0.21144   0.21285
 Alpha virt. eigenvalues --    0.21868   0.22073   0.22275   0.22493   0.22764
 Alpha virt. eigenvalues --    0.22797   0.23368   0.23660   0.23811   0.23980
 Alpha virt. eigenvalues --    0.24249   0.24351   0.24454   0.24698   0.25337
 Alpha virt. eigenvalues --    0.25457   0.25601   0.25712   0.26026   0.26151
 Alpha virt. eigenvalues --    0.26527   0.26622   0.26664   0.27073   0.27478
 Alpha virt. eigenvalues --    0.27664   0.27766   0.28047   0.28109   0.28330
 Alpha virt. eigenvalues --    0.28525   0.28670   0.29023   0.29288   0.29549
 Alpha virt. eigenvalues --    0.29734   0.29934   0.30142   0.30284   0.30710
 Alpha virt. eigenvalues --    0.30908   0.31222   0.31426   0.31559   0.31758
 Alpha virt. eigenvalues --    0.31781   0.32275   0.32378   0.32513   0.32583
 Alpha virt. eigenvalues --    0.32835   0.33060   0.33210   0.33422   0.33494
 Alpha virt. eigenvalues --    0.33869   0.33960   0.34353   0.34676   0.34714
 Alpha virt. eigenvalues --    0.34928   0.35289   0.35313   0.35447   0.35582
 Alpha virt. eigenvalues --    0.35822   0.36015   0.36371   0.36446   0.36645
 Alpha virt. eigenvalues --    0.36895   0.37080   0.37121   0.37348   0.37403
 Alpha virt. eigenvalues --    0.37849   0.37945   0.38058   0.38340   0.38549
 Alpha virt. eigenvalues --    0.38744   0.38992   0.39267   0.39399   0.39742
 Alpha virt. eigenvalues --    0.39866   0.40051   0.40101   0.40198   0.40453
 Alpha virt. eigenvalues --    0.40623   0.40919   0.41007   0.41183   0.41245
 Alpha virt. eigenvalues --    0.41435   0.41622   0.41751   0.41824   0.42026
 Alpha virt. eigenvalues --    0.42167   0.42179   0.42460   0.42666   0.42809
 Alpha virt. eigenvalues --    0.43036   0.43282   0.43473   0.43765   0.43865
 Alpha virt. eigenvalues --    0.44120   0.44268   0.44461   0.44635   0.44814
 Alpha virt. eigenvalues --    0.44941   0.45453   0.45719   0.45794   0.45873
 Alpha virt. eigenvalues --    0.46018   0.46282   0.46489   0.46737   0.47105
 Alpha virt. eigenvalues --    0.47479   0.47542   0.47902   0.48208   0.48311
 Alpha virt. eigenvalues --    0.48601   0.48743   0.49117   0.49412   0.49757
 Alpha virt. eigenvalues --    0.49857   0.50035   0.50131   0.50262   0.50453
 Alpha virt. eigenvalues --    0.50601   0.50834   0.51014   0.51733   0.51810
 Alpha virt. eigenvalues --    0.51909   0.52254   0.52462   0.52565   0.52703
 Alpha virt. eigenvalues --    0.53155   0.53258   0.53461   0.53645   0.53988
 Alpha virt. eigenvalues --    0.54157   0.54511   0.54900   0.55226   0.55530
 Alpha virt. eigenvalues --    0.55763   0.56332   0.56592   0.56785   0.56851
 Alpha virt. eigenvalues --    0.57246   0.57349   0.57563   0.58046   0.58368
 Alpha virt. eigenvalues --    0.58505   0.58925   0.59099   0.59390   0.59675
 Alpha virt. eigenvalues --    0.60023   0.60150   0.60500   0.60613   0.60849
 Alpha virt. eigenvalues --    0.61298   0.61595   0.61883   0.61896   0.62269
 Alpha virt. eigenvalues --    0.62439   0.62647   0.62755   0.63386   0.63572
 Alpha virt. eigenvalues --    0.64012   0.64253   0.64474   0.64704   0.64874
 Alpha virt. eigenvalues --    0.65499   0.65693   0.65990   0.66285   0.66549
 Alpha virt. eigenvalues --    0.66827   0.67048   0.67798   0.67929   0.68317
 Alpha virt. eigenvalues --    0.68485   0.68711   0.68932   0.69216   0.69361
 Alpha virt. eigenvalues --    0.69544   0.70264   0.70498   0.70867   0.71016
 Alpha virt. eigenvalues --    0.71512   0.71546   0.71714   0.72280   0.72328
 Alpha virt. eigenvalues --    0.72658   0.73110   0.73574   0.73861   0.74076
 Alpha virt. eigenvalues --    0.74478   0.75075   0.75202   0.75505   0.75634
 Alpha virt. eigenvalues --    0.76239   0.76317   0.76502   0.76704   0.77180
 Alpha virt. eigenvalues --    0.77537   0.77723   0.78070   0.78392   0.78828
 Alpha virt. eigenvalues --    0.79225   0.79626   0.79748   0.80253   0.80771
 Alpha virt. eigenvalues --    0.81064   0.81466   0.81550   0.81760   0.81813
 Alpha virt. eigenvalues --    0.82505   0.82615   0.83097   0.83133   0.83463
 Alpha virt. eigenvalues --    0.83639   0.83921   0.84138   0.84425   0.84886
 Alpha virt. eigenvalues --    0.84975   0.85446   0.85607   0.86218   0.86390
 Alpha virt. eigenvalues --    0.86656   0.86905   0.87098   0.87319   0.87418
 Alpha virt. eigenvalues --    0.88238   0.88332   0.88552   0.89020   0.89046
 Alpha virt. eigenvalues --    0.89364   0.89572   0.89743   0.90244   0.90415
 Alpha virt. eigenvalues --    0.90750   0.90919   0.91312   0.91671   0.91994
 Alpha virt. eigenvalues --    0.92378   0.92486   0.92668   0.93079   0.93253
 Alpha virt. eigenvalues --    0.93382   0.93657   0.93808   0.94057   0.94475
 Alpha virt. eigenvalues --    0.94745   0.94873   0.95337   0.95362   0.95756
 Alpha virt. eigenvalues --    0.96145   0.96398   0.96773   0.97015   0.97505
 Alpha virt. eigenvalues --    0.97792   0.98159   0.98779   0.99040   0.99283
 Alpha virt. eigenvalues --    0.99947   1.00234   1.00377   1.00809   1.01162
 Alpha virt. eigenvalues --    1.01471   1.01833   1.01869   1.02550   1.02809
 Alpha virt. eigenvalues --    1.03195   1.03565   1.04133   1.04361   1.04493
 Alpha virt. eigenvalues --    1.05009   1.05345   1.05366   1.05721   1.06353
 Alpha virt. eigenvalues --    1.06522   1.06771   1.07163   1.07490   1.07778
 Alpha virt. eigenvalues --    1.08221   1.08357   1.09251   1.09458   1.09607
 Alpha virt. eigenvalues --    1.10371   1.10937   1.11117   1.11325   1.11899
 Alpha virt. eigenvalues --    1.12191   1.12703   1.12933   1.13101   1.13547
 Alpha virt. eigenvalues --    1.13614   1.13974   1.14255   1.14629   1.14978
 Alpha virt. eigenvalues --    1.15266   1.15508   1.15733   1.16012   1.16140
 Alpha virt. eigenvalues --    1.16591   1.16890   1.17887   1.18028   1.18394
 Alpha virt. eigenvalues --    1.18478   1.19037   1.19479   1.19837   1.20054
 Alpha virt. eigenvalues --    1.20349   1.20723   1.21099   1.21325   1.21860
 Alpha virt. eigenvalues --    1.22435   1.22967   1.23624   1.24034   1.24147
 Alpha virt. eigenvalues --    1.24398   1.24969   1.25247   1.25343   1.25709
 Alpha virt. eigenvalues --    1.25854   1.26335   1.26508   1.27240   1.27840
 Alpha virt. eigenvalues --    1.28383   1.28415   1.28704   1.29211   1.29557
 Alpha virt. eigenvalues --    1.29968   1.30936   1.31435   1.31577   1.31962
 Alpha virt. eigenvalues --    1.32808   1.32971   1.33436   1.33766   1.33862
 Alpha virt. eigenvalues --    1.34571   1.34769   1.34920   1.35230   1.35668
 Alpha virt. eigenvalues --    1.36057   1.36529   1.36798   1.37171   1.37631
 Alpha virt. eigenvalues --    1.37720   1.38326   1.38499   1.38953   1.39058
 Alpha virt. eigenvalues --    1.39693   1.39807   1.40064   1.40434   1.40815
 Alpha virt. eigenvalues --    1.41068   1.41099   1.41502   1.41965   1.42249
 Alpha virt. eigenvalues --    1.42778   1.43264   1.43396   1.43670   1.43902
 Alpha virt. eigenvalues --    1.44301   1.44659   1.44908   1.45449   1.45721
 Alpha virt. eigenvalues --    1.45921   1.46204   1.46334   1.46445   1.46560
 Alpha virt. eigenvalues --    1.47023   1.47397   1.47474   1.47870   1.48082
 Alpha virt. eigenvalues --    1.48283   1.48550   1.48697   1.49113   1.49283
 Alpha virt. eigenvalues --    1.49560   1.49749   1.49983   1.50263   1.50579
 Alpha virt. eigenvalues --    1.50790   1.51193   1.51422   1.51801   1.52042
 Alpha virt. eigenvalues --    1.52198   1.52457   1.52773   1.53128   1.53201
 Alpha virt. eigenvalues --    1.53397   1.53577   1.54116   1.54348   1.54744
 Alpha virt. eigenvalues --    1.54824   1.55121   1.55313   1.55401   1.55993
 Alpha virt. eigenvalues --    1.56264   1.56407   1.56628   1.56672   1.56993
 Alpha virt. eigenvalues --    1.57208   1.57393   1.57863   1.58334   1.58844
 Alpha virt. eigenvalues --    1.59124   1.59511   1.59618   1.60178   1.60296
 Alpha virt. eigenvalues --    1.60653   1.61033   1.61194   1.61437   1.62291
 Alpha virt. eigenvalues --    1.62455   1.62622   1.63097   1.63314   1.63590
 Alpha virt. eigenvalues --    1.63779   1.64391   1.64642   1.64827   1.65251
 Alpha virt. eigenvalues --    1.65766   1.66450   1.66557   1.66949   1.67226
 Alpha virt. eigenvalues --    1.67873   1.67966   1.68699   1.69294   1.69564
 Alpha virt. eigenvalues --    1.69968   1.70529   1.71172   1.71331   1.71678
 Alpha virt. eigenvalues --    1.71901   1.72057   1.72552   1.73077   1.73603
 Alpha virt. eigenvalues --    1.74250   1.74373   1.74595   1.74784   1.75232
 Alpha virt. eigenvalues --    1.75410   1.76067   1.76085   1.76507   1.77370
 Alpha virt. eigenvalues --    1.77436   1.77872   1.78121   1.78624   1.78898
 Alpha virt. eigenvalues --    1.79465   1.79633   1.79791   1.80316   1.80630
 Alpha virt. eigenvalues --    1.81264   1.81399   1.81769   1.82162   1.82526
 Alpha virt. eigenvalues --    1.83150   1.83548   1.83973   1.84214   1.84617
 Alpha virt. eigenvalues --    1.85176   1.85542   1.85772   1.85984   1.86225
 Alpha virt. eigenvalues --    1.86364   1.86980   1.87013   1.87330   1.87775
 Alpha virt. eigenvalues --    1.87995   1.88635   1.88703   1.89068   1.89637
 Alpha virt. eigenvalues --    1.89796   1.90381   1.90676   1.91130   1.91429
 Alpha virt. eigenvalues --    1.91616   1.91829   1.92316   1.92812   1.93002
 Alpha virt. eigenvalues --    1.93491   1.94358   1.94437   1.95419   1.95624
 Alpha virt. eigenvalues --    1.96005   1.96266   1.96960   1.97413   1.97548
 Alpha virt. eigenvalues --    1.97982   1.98339   1.98783   1.99131   1.99245
 Alpha virt. eigenvalues --    1.99901   1.99958   2.00132   2.00553   2.00841
 Alpha virt. eigenvalues --    2.01335   2.01372   2.01856   2.02530   2.02750
 Alpha virt. eigenvalues --    2.03020   2.03267   2.03680   2.04143   2.04297
 Alpha virt. eigenvalues --    2.04763   2.05016   2.05160   2.05781   2.05852
 Alpha virt. eigenvalues --    2.06213   2.06805   2.06891   2.07242   2.07673
 Alpha virt. eigenvalues --    2.07947   2.08722   2.09213   2.09928   2.10135
 Alpha virt. eigenvalues --    2.10916   2.11184   2.11578   2.12054   2.12257
 Alpha virt. eigenvalues --    2.12796   2.13269   2.13533   2.13604   2.14426
 Alpha virt. eigenvalues --    2.14873   2.15342   2.15783   2.16042   2.16298
 Alpha virt. eigenvalues --    2.16631   2.16966   2.17553   2.17924   2.18286
 Alpha virt. eigenvalues --    2.18837   2.19022   2.19639   2.19840   2.20675
 Alpha virt. eigenvalues --    2.21458   2.21887   2.22056   2.22140   2.22543
 Alpha virt. eigenvalues --    2.22975   2.23327   2.23578   2.24356   2.24456
 Alpha virt. eigenvalues --    2.24777   2.25233   2.25452   2.25519   2.26006
 Alpha virt. eigenvalues --    2.26551   2.26870   2.27286   2.27330   2.27606
 Alpha virt. eigenvalues --    2.28223   2.28338   2.28442   2.29339   2.29494
 Alpha virt. eigenvalues --    2.29886   2.30410   2.30707   2.30995   2.31150
 Alpha virt. eigenvalues --    2.31652   2.32027   2.32284   2.33048   2.33207
 Alpha virt. eigenvalues --    2.33720   2.34019   2.34665   2.34829   2.34956
 Alpha virt. eigenvalues --    2.35684   2.35705   2.35983   2.36241   2.36814
 Alpha virt. eigenvalues --    2.37138   2.37444   2.38252   2.39122   2.39415
 Alpha virt. eigenvalues --    2.39940   2.40355   2.40416   2.40845   2.40955
 Alpha virt. eigenvalues --    2.41101   2.41696   2.42520   2.42576   2.42903
 Alpha virt. eigenvalues --    2.43545   2.43733   2.43907   2.44718   2.45043
 Alpha virt. eigenvalues --    2.45552   2.45755   2.46481   2.46770   2.46979
 Alpha virt. eigenvalues --    2.47129   2.47775   2.47843   2.48178   2.48806
 Alpha virt. eigenvalues --    2.49108   2.49537   2.49694   2.50183   2.50690
 Alpha virt. eigenvalues --    2.50956   2.51205   2.51247   2.51398   2.51704
 Alpha virt. eigenvalues --    2.51877   2.52248   2.52789   2.52856   2.53032
 Alpha virt. eigenvalues --    2.53742   2.53986   2.54090   2.54464   2.54869
 Alpha virt. eigenvalues --    2.55137   2.55292   2.55488   2.55760   2.56049
 Alpha virt. eigenvalues --    2.56459   2.56612   2.57016   2.57666   2.58184
 Alpha virt. eigenvalues --    2.58747   2.58904   2.59232   2.59336   2.59720
 Alpha virt. eigenvalues --    2.60532   2.60810   2.61088   2.61462   2.61987
 Alpha virt. eigenvalues --    2.62238   2.62513   2.62829   2.63043   2.63530
 Alpha virt. eigenvalues --    2.63617   2.63936   2.64166   2.64667   2.65046
 Alpha virt. eigenvalues --    2.65295   2.65762   2.65833   2.66308   2.66557
 Alpha virt. eigenvalues --    2.67037   2.67218   2.67446   2.67732   2.68022
 Alpha virt. eigenvalues --    2.68313   2.68594   2.69180   2.69316   2.70021
 Alpha virt. eigenvalues --    2.70238   2.70542   2.70941   2.71223   2.71495
 Alpha virt. eigenvalues --    2.71695   2.72263   2.72584   2.72793   2.73029
 Alpha virt. eigenvalues --    2.73325   2.73748   2.74044   2.74426   2.74903
 Alpha virt. eigenvalues --    2.75011   2.76111   2.76547   2.76680   2.77253
 Alpha virt. eigenvalues --    2.77484   2.78010   2.78038   2.78499   2.78785
 Alpha virt. eigenvalues --    2.78861   2.79039   2.79786   2.80098   2.80586
 Alpha virt. eigenvalues --    2.80778   2.81304   2.81458   2.81860   2.81932
 Alpha virt. eigenvalues --    2.82350   2.82943   2.83013   2.83249   2.83754
 Alpha virt. eigenvalues --    2.84108   2.84817   2.84973   2.86002   2.86185
 Alpha virt. eigenvalues --    2.86607   2.86869   2.87210   2.87655   2.87776
 Alpha virt. eigenvalues --    2.88065   2.88200   2.88575   2.88991   2.89126
 Alpha virt. eigenvalues --    2.89413   2.89860   2.90517   2.90744   2.91011
 Alpha virt. eigenvalues --    2.91156   2.91333   2.91432   2.91940   2.92379
 Alpha virt. eigenvalues --    2.92706   2.92779   2.92982   2.93277   2.93433
 Alpha virt. eigenvalues --    2.93651   2.93976   2.94234   2.94624   2.94897
 Alpha virt. eigenvalues --    2.95461   2.95758   2.95841   2.96376   2.96568
 Alpha virt. eigenvalues --    2.96786   2.97057   2.97238   2.97508   2.97720
 Alpha virt. eigenvalues --    2.97885   2.98198   2.98488   2.98590   2.98744
 Alpha virt. eigenvalues --    2.99441   2.99618   2.99971   3.00261   3.00407
 Alpha virt. eigenvalues --    3.00552   3.01121   3.01327   3.01489   3.02019
 Alpha virt. eigenvalues --    3.02198   3.02483   3.02933   3.03186   3.03387
 Alpha virt. eigenvalues --    3.03584   3.03783   3.04146   3.04646   3.04988
 Alpha virt. eigenvalues --    3.05132   3.05404   3.05590   3.06185   3.06392
 Alpha virt. eigenvalues --    3.06656   3.06917   3.07273   3.07610   3.08010
 Alpha virt. eigenvalues --    3.08178   3.08556   3.08964   3.09195   3.09454
 Alpha virt. eigenvalues --    3.09477   3.09742   3.10359   3.10431   3.10457
 Alpha virt. eigenvalues --    3.10771   3.11102   3.11505   3.11660   3.11898
 Alpha virt. eigenvalues --    3.12250   3.12548   3.12699   3.12965   3.13185
 Alpha virt. eigenvalues --    3.13434   3.13639   3.13874   3.14138   3.14225
 Alpha virt. eigenvalues --    3.14749   3.14995   3.15089   3.15395   3.15794
 Alpha virt. eigenvalues --    3.16011   3.16181   3.16451   3.16884   3.17280
 Alpha virt. eigenvalues --    3.17407   3.17633   3.17973   3.18053   3.18599
 Alpha virt. eigenvalues --    3.18721   3.18961   3.19203   3.19362   3.19645
 Alpha virt. eigenvalues --    3.19917   3.20249   3.20448   3.20765   3.21065
 Alpha virt. eigenvalues --    3.21169   3.21785   3.22040   3.22163   3.22313
 Alpha virt. eigenvalues --    3.22429   3.23120   3.23339   3.23808   3.23937
 Alpha virt. eigenvalues --    3.24251   3.24379   3.24845   3.25044   3.25408
 Alpha virt. eigenvalues --    3.25498   3.25818   3.26082   3.26115   3.26590
 Alpha virt. eigenvalues --    3.26939   3.27169   3.27519   3.27621   3.27932
 Alpha virt. eigenvalues --    3.28149   3.28248   3.28589   3.28707   3.29183
 Alpha virt. eigenvalues --    3.29310   3.29515   3.29661   3.29923   3.30102
 Alpha virt. eigenvalues --    3.30394   3.30854   3.31327   3.31559   3.31745
 Alpha virt. eigenvalues --    3.31932   3.32065   3.32408   3.32951   3.33199
 Alpha virt. eigenvalues --    3.33434   3.33491   3.34014   3.34152   3.34647
 Alpha virt. eigenvalues --    3.34931   3.35265   3.35666   3.35962   3.36132
 Alpha virt. eigenvalues --    3.36779   3.37216   3.37735   3.37822   3.38260
 Alpha virt. eigenvalues --    3.38347   3.38554   3.39018   3.39638   3.39878
 Alpha virt. eigenvalues --    3.40116   3.40331   3.40730   3.40999   3.41284
 Alpha virt. eigenvalues --    3.41790   3.42198   3.42442   3.42715   3.42897
 Alpha virt. eigenvalues --    3.43226   3.43502   3.44173   3.44215   3.44626
 Alpha virt. eigenvalues --    3.44819   3.44974   3.45324   3.45581   3.45967
 Alpha virt. eigenvalues --    3.46164   3.46811   3.46986   3.47282   3.47677
 Alpha virt. eigenvalues --    3.48304   3.48501   3.48937   3.49257   3.50010
 Alpha virt. eigenvalues --    3.50315   3.50461   3.51016   3.51069   3.51196
 Alpha virt. eigenvalues --    3.51797   3.52030   3.52244   3.52679   3.53274
 Alpha virt. eigenvalues --    3.53663   3.53951   3.54263   3.54629   3.55007
 Alpha virt. eigenvalues --    3.55438   3.55700   3.55861   3.56884   3.57104
 Alpha virt. eigenvalues --    3.57398   3.58039   3.58572   3.59040   3.59441
 Alpha virt. eigenvalues --    3.59609   3.59833   3.60345   3.60631   3.60892
 Alpha virt. eigenvalues --    3.61507   3.62171   3.62408   3.62720   3.63177
 Alpha virt. eigenvalues --    3.63866   3.64484   3.65142   3.65358   3.65760
 Alpha virt. eigenvalues --    3.66532   3.66815   3.67324   3.67460   3.67943
 Alpha virt. eigenvalues --    3.68208   3.69319   3.69747   3.70045   3.70269
 Alpha virt. eigenvalues --    3.70933   3.71630   3.72360   3.72563   3.72650
 Alpha virt. eigenvalues --    3.73077   3.73152   3.73517   3.74479   3.74752
 Alpha virt. eigenvalues --    3.74986   3.75483   3.75615   3.76386   3.77094
 Alpha virt. eigenvalues --    3.77725   3.78315   3.79150   3.79208   3.79550
 Alpha virt. eigenvalues --    3.80145   3.80667   3.81215   3.81882   3.82423
 Alpha virt. eigenvalues --    3.82689   3.83018   3.83259   3.83775   3.84429
 Alpha virt. eigenvalues --    3.85140   3.85728   3.86197   3.86797   3.86843
 Alpha virt. eigenvalues --    3.87346   3.87563   3.88841   3.89069   3.89548
 Alpha virt. eigenvalues --    3.89866   3.89957   3.90818   3.90968   3.91436
 Alpha virt. eigenvalues --    3.91781   3.92569   3.92648   3.93239   3.93906
 Alpha virt. eigenvalues --    3.94193   3.94870   3.95688   3.96006   3.96106
 Alpha virt. eigenvalues --    3.97038   3.97483   3.98116   3.98983   3.99785
 Alpha virt. eigenvalues --    4.00287   4.00533   4.00665   4.01061   4.02046
 Alpha virt. eigenvalues --    4.02403   4.02887   4.03204   4.03505   4.03869
 Alpha virt. eigenvalues --    4.04407   4.05559   4.05729   4.06021   4.06380
 Alpha virt. eigenvalues --    4.07010   4.07625   4.08296   4.08450   4.08989
 Alpha virt. eigenvalues --    4.09585   4.09829   4.10578   4.11090   4.11466
 Alpha virt. eigenvalues --    4.12178   4.12699   4.13354   4.14012   4.14149
 Alpha virt. eigenvalues --    4.14621   4.14751   4.15521   4.15859   4.16402
 Alpha virt. eigenvalues --    4.17045   4.17106   4.17594   4.18314   4.19364
 Alpha virt. eigenvalues --    4.19778   4.20223   4.20764   4.21382   4.21673
 Alpha virt. eigenvalues --    4.22494   4.23555   4.24081   4.24316   4.25230
 Alpha virt. eigenvalues --    4.25447   4.25950   4.26195   4.26653   4.26893
 Alpha virt. eigenvalues --    4.27104   4.28039   4.28285   4.28346   4.28866
 Alpha virt. eigenvalues --    4.29351   4.30647   4.31170   4.31463   4.31558
 Alpha virt. eigenvalues --    4.32505   4.32942   4.33061   4.33353   4.33878
 Alpha virt. eigenvalues --    4.34305   4.34565   4.35090   4.36044   4.36677
 Alpha virt. eigenvalues --    4.37077   4.37255   4.38155   4.39168   4.40079
 Alpha virt. eigenvalues --    4.40882   4.41438   4.42120   4.43153   4.44301
 Alpha virt. eigenvalues --    4.44929   4.45723   4.45897   4.46970   4.47468
 Alpha virt. eigenvalues --    4.47789   4.48085   4.48778   4.49428   4.50166
 Alpha virt. eigenvalues --    4.51232   4.51874   4.52042   4.53204   4.53334
 Alpha virt. eigenvalues --    4.54289   4.54380   4.54667   4.55097   4.55672
 Alpha virt. eigenvalues --    4.55820   4.56459   4.56770   4.57785   4.58156
 Alpha virt. eigenvalues --    4.59531   4.59993   4.60116   4.61061   4.61473
 Alpha virt. eigenvalues --    4.62837   4.63175   4.63480   4.64347   4.64863
 Alpha virt. eigenvalues --    4.66224   4.66592   4.67083   4.67829   4.68583
 Alpha virt. eigenvalues --    4.68653   4.69239   4.70450   4.71532   4.71758
 Alpha virt. eigenvalues --    4.72662   4.73735   4.74064   4.74237   4.74842
 Alpha virt. eigenvalues --    4.75443   4.76016   4.77284   4.77645   4.78027
 Alpha virt. eigenvalues --    4.78853   4.78924   4.80085   4.80791   4.81726
 Alpha virt. eigenvalues --    4.82155   4.82644   4.83513   4.84161   4.84854
 Alpha virt. eigenvalues --    4.85311   4.86424   4.87387   4.88152   4.89251
 Alpha virt. eigenvalues --    4.90223   4.91141   4.91966   4.92404   4.93636
 Alpha virt. eigenvalues --    4.94521   4.96455   4.97198   4.98225   4.99230
 Alpha virt. eigenvalues --    4.99713   5.00815   5.01773   5.02163   5.02982
 Alpha virt. eigenvalues --    5.04985   5.05801   5.06190   5.08666   5.09528
 Alpha virt. eigenvalues --    5.10020   5.10551   5.11060   5.11229   5.12721
 Alpha virt. eigenvalues --    5.12924   5.13386   5.13677   5.14675   5.15012
 Alpha virt. eigenvalues --    5.15941   5.16285   5.17011   5.17346   5.17674
 Alpha virt. eigenvalues --    5.18306   5.18911   5.19183   5.20499   5.20533
 Alpha virt. eigenvalues --    5.21284   5.22600   5.22958   5.23222   5.24073
 Alpha virt. eigenvalues --    5.25380   5.26084   5.26823   5.27444   5.28273
 Alpha virt. eigenvalues --    5.29910   5.30435   5.32315   5.33108   5.33244
 Alpha virt. eigenvalues --    5.34398   5.35533   5.36358   5.38957   5.39498
 Alpha virt. eigenvalues --    5.40624   5.41636   5.42832   5.44584   5.45711
 Alpha virt. eigenvalues --    5.46173   5.47105   5.48259   5.50396   5.51273
 Alpha virt. eigenvalues --    5.51746   5.52478   5.52842   5.54367   5.57560
 Alpha virt. eigenvalues --    5.59073   5.59719   5.60813   5.61810   5.63495
 Alpha virt. eigenvalues --    5.65375   5.66155   5.67855   5.72445   5.73706
 Alpha virt. eigenvalues --    5.74124   5.75670   5.78112   5.78797   5.80012
 Alpha virt. eigenvalues --    5.81560   5.82995   5.84130   5.85919   5.86914
 Alpha virt. eigenvalues --    5.88733   5.91866   5.92974   5.95199   5.96026
 Alpha virt. eigenvalues --    5.97953   5.99752   6.00545   6.00990   6.02326
 Alpha virt. eigenvalues --    6.08550   6.09080   6.10093   6.12102   6.13110
 Alpha virt. eigenvalues --    6.14943   6.24129   6.26439   6.28078   6.32198
 Alpha virt. eigenvalues --    6.37491   6.39140   6.41100   6.42741   6.43813
 Alpha virt. eigenvalues --    6.44688   6.57676   6.59485   6.68314   6.70463
 Alpha virt. eigenvalues --    6.76761   6.79345   6.86731   6.88543   6.94879
 Alpha virt. eigenvalues --    6.98882   7.06323   7.06785   7.07496   7.15401
 Alpha virt. eigenvalues --    7.18858   7.25477  22.12708  22.14471  22.21771
 Alpha virt. eigenvalues --   22.41061  22.42169  22.43848  22.44683  22.45656
 Alpha virt. eigenvalues --   22.48536  22.53034  22.54011  22.55216  22.55571
 Alpha virt. eigenvalues --   22.56962  22.65296  22.68651  22.72799  22.73507
 Alpha virt. eigenvalues --   22.76934  22.77873  22.82417  22.85766  22.86997
 Alpha virt. eigenvalues --   22.91737  22.96073  23.00973  23.04530  23.06721
 Alpha virt. eigenvalues --   23.13635  23.17388  23.29230  23.34038  23.41394
 Alpha virt. eigenvalues --   23.46596  23.48365  23.51923  23.57943  23.60207
 Alpha virt. eigenvalues --   23.64924  32.28945  32.44630  32.61165  32.78161
 Alpha virt. eigenvalues --   32.82451  32.86402  33.09182  43.86304  43.88989
 Alpha virt. eigenvalues --   43.89498  43.91720
  Beta  occ. eigenvalues -- -256.52616 -30.27257 -26.10573 -26.10475 -26.09602
  Beta  occ. eigenvalues --  -19.33078 -19.32000 -19.24549 -19.24523 -14.55811
  Beta  occ. eigenvalues --  -14.54698 -14.50121 -14.49856 -14.49698 -14.49284
  Beta  occ. eigenvalues --  -14.48990 -10.43444 -10.42332 -10.41737 -10.38512
  Beta  occ. eigenvalues --  -10.36908 -10.36819 -10.36625 -10.36478 -10.36426
  Beta  occ. eigenvalues --  -10.36370 -10.36080 -10.35885 -10.35720 -10.33958
  Beta  occ. eigenvalues --  -10.33781 -10.33513 -10.33423 -10.33249 -10.33130
  Beta  occ. eigenvalues --  -10.33075 -10.32849 -10.32725 -10.32690 -10.32633
  Beta  occ. eigenvalues --  -10.32405 -10.32356 -10.32273 -10.32271 -10.31872
  Beta  occ. eigenvalues --  -10.31707 -10.31409 -10.31116 -10.30821 -10.30799
  Beta  occ. eigenvalues --  -10.30728 -10.30395 -10.30320 -10.30168 -10.29823
  Beta  occ. eigenvalues --   -3.57688  -2.33692  -2.33494  -2.30014  -1.23821
  Beta  occ. eigenvalues --   -1.23113  -1.13419  -1.09320  -1.09298  -1.07537
  Beta  occ. eigenvalues --   -1.06214  -1.06100  -1.04789  -1.02763  -1.00139
  Beta  occ. eigenvalues --   -0.93320  -0.92864  -0.92321  -0.92175  -0.91785
  Beta  occ. eigenvalues --   -0.90566  -0.90192  -0.88871  -0.87832  -0.87455
  Beta  occ. eigenvalues --   -0.85433  -0.85173  -0.83923  -0.82551  -0.81775
  Beta  occ. eigenvalues --   -0.80405  -0.80331  -0.79573  -0.78789  -0.78405
  Beta  occ. eigenvalues --   -0.77175  -0.75438  -0.75088  -0.74732  -0.74095
  Beta  occ. eigenvalues --   -0.73374  -0.72729  -0.72107  -0.70939  -0.70688
  Beta  occ. eigenvalues --   -0.68664  -0.67612  -0.64845  -0.64737  -0.64479
  Beta  occ. eigenvalues --   -0.64236  -0.63389  -0.62120  -0.61673  -0.60691
  Beta  occ. eigenvalues --   -0.60354  -0.60139  -0.59520  -0.58937  -0.58310
  Beta  occ. eigenvalues --   -0.58056  -0.57492  -0.57311  -0.56937  -0.56471
  Beta  occ. eigenvalues --   -0.56241  -0.55795  -0.55339  -0.54770  -0.54548
  Beta  occ. eigenvalues --   -0.54013  -0.53878  -0.53709  -0.53303  -0.53146
  Beta  occ. eigenvalues --   -0.52771  -0.52705  -0.52392  -0.52335  -0.52031
  Beta  occ. eigenvalues --   -0.51510  -0.51464  -0.51310  -0.51103  -0.50846
  Beta  occ. eigenvalues --   -0.50677  -0.50494  -0.50364  -0.50227  -0.49959
  Beta  occ. eigenvalues --   -0.49780  -0.49558  -0.49452  -0.48979  -0.48816
  Beta  occ. eigenvalues --   -0.48563  -0.48279  -0.48215  -0.47850  -0.47613
  Beta  occ. eigenvalues --   -0.47474  -0.47194  -0.46906  -0.46476  -0.46244
  Beta  occ. eigenvalues --   -0.45532  -0.45231  -0.45009  -0.44299  -0.43746
  Beta  occ. eigenvalues --   -0.43411  -0.43407  -0.42640  -0.42328  -0.41845
  Beta  occ. eigenvalues --   -0.41364  -0.40454  -0.39672  -0.39495  -0.38178
  Beta  occ. eigenvalues --   -0.37887  -0.37359  -0.36501  -0.36029  -0.34798
  Beta  occ. eigenvalues --   -0.34579  -0.34173  -0.33578  -0.32877  -0.31939
  Beta  occ. eigenvalues --   -0.29846  -0.28740
  Beta virt. eigenvalues --   -0.20608  -0.20268  -0.17625  -0.16744  -0.15541
  Beta virt. eigenvalues --   -0.14711  -0.13067  -0.12890  -0.12577  -0.10455
  Beta virt. eigenvalues --   -0.09787  -0.09596  -0.07988  -0.07672  -0.07384
  Beta virt. eigenvalues --   -0.06348  -0.05749  -0.05024  -0.04490  -0.04134
  Beta virt. eigenvalues --   -0.03713  -0.03528  -0.03281  -0.02762  -0.02389
  Beta virt. eigenvalues --   -0.02174  -0.02075  -0.01479  -0.01166  -0.01117
  Beta virt. eigenvalues --   -0.00848   0.00140   0.00170   0.00592   0.00997
  Beta virt. eigenvalues --    0.01094   0.01473   0.01619   0.01879   0.02053
  Beta virt. eigenvalues --    0.02238   0.02428   0.02496   0.02853   0.03026
  Beta virt. eigenvalues --    0.03188   0.03610   0.03884   0.04113   0.04484
  Beta virt. eigenvalues --    0.04667   0.05016   0.05117   0.05215   0.05329
  Beta virt. eigenvalues --    0.05542   0.05851   0.06137   0.06254   0.06531
  Beta virt. eigenvalues --    0.06746   0.06971   0.07238   0.07385   0.07426
  Beta virt. eigenvalues --    0.07778   0.07914   0.08004   0.08324   0.08523
  Beta virt. eigenvalues --    0.08646   0.08902   0.09291   0.09501   0.09886
  Beta virt. eigenvalues --    0.10237   0.10320   0.10413   0.11001   0.11282
  Beta virt. eigenvalues --    0.11445   0.11749   0.12231   0.12419   0.12813
  Beta virt. eigenvalues --    0.12856   0.12950   0.13089   0.13321   0.13416
  Beta virt. eigenvalues --    0.13554   0.13871   0.13966   0.14312   0.14359
  Beta virt. eigenvalues --    0.14549   0.14700   0.14831   0.15053   0.15370
  Beta virt. eigenvalues --    0.15610   0.15812   0.16080   0.16295   0.16469
  Beta virt. eigenvalues --    0.16814   0.16926   0.17209   0.17344   0.17759
  Beta virt. eigenvalues --    0.17843   0.18043   0.18339   0.18632   0.18785
  Beta virt. eigenvalues --    0.18923   0.19094   0.19294   0.19437   0.19821
  Beta virt. eigenvalues --    0.19916   0.20051   0.20126   0.20416   0.20504
  Beta virt. eigenvalues --    0.20898   0.21237   0.21365   0.21567   0.21603
  Beta virt. eigenvalues --    0.22222   0.22382   0.22663   0.22916   0.23052
  Beta virt. eigenvalues --    0.23532   0.23668   0.23875   0.23926   0.24143
  Beta virt. eigenvalues --    0.24400   0.24558   0.24838   0.25144   0.25470
  Beta virt. eigenvalues --    0.25671   0.25799   0.26006   0.26242   0.26345
  Beta virt. eigenvalues --    0.26764   0.26822   0.26992   0.27487   0.27637
  Beta virt. eigenvalues --    0.27834   0.28079   0.28257   0.28516   0.28710
  Beta virt. eigenvalues --    0.28793   0.28977   0.29316   0.29542   0.29725
  Beta virt. eigenvalues --    0.29960   0.30422   0.30487   0.30601   0.30894
  Beta virt. eigenvalues --    0.31141   0.31353   0.31659   0.31708   0.31908
  Beta virt. eigenvalues --    0.32055   0.32463   0.32694   0.32752   0.32830
  Beta virt. eigenvalues --    0.32963   0.33299   0.33470   0.33638   0.33753
  Beta virt. eigenvalues --    0.34204   0.34341   0.34488   0.34885   0.35010
  Beta virt. eigenvalues --    0.35046   0.35361   0.35471   0.35593   0.35888
  Beta virt. eigenvalues --    0.36033   0.36249   0.36456   0.36574   0.37030
  Beta virt. eigenvalues --    0.37081   0.37202   0.37287   0.37502   0.37581
  Beta virt. eigenvalues --    0.37980   0.38163   0.38350   0.38589   0.38749
  Beta virt. eigenvalues --    0.38945   0.39209   0.39489   0.39626   0.39936
  Beta virt. eigenvalues --    0.40021   0.40159   0.40196   0.40462   0.40618
  Beta virt. eigenvalues --    0.40845   0.41103   0.41265   0.41387   0.41597
  Beta virt. eigenvalues --    0.41645   0.41791   0.41859   0.42172   0.42193
  Beta virt. eigenvalues --    0.42276   0.42388   0.42612   0.42906   0.43087
  Beta virt. eigenvalues --    0.43226   0.43441   0.43637   0.44003   0.44077
  Beta virt. eigenvalues --    0.44378   0.44431   0.44616   0.44838   0.45113
  Beta virt. eigenvalues --    0.45300   0.45551   0.45923   0.46031   0.46089
  Beta virt. eigenvalues --    0.46205   0.46386   0.46701   0.46969   0.47195
  Beta virt. eigenvalues --    0.47678   0.47776   0.48126   0.48337   0.48457
  Beta virt. eigenvalues --    0.48755   0.48886   0.49212   0.49532   0.49934
  Beta virt. eigenvalues --    0.50012   0.50155   0.50252   0.50426   0.50595
  Beta virt. eigenvalues --    0.50770   0.50983   0.51185   0.51870   0.51964
  Beta virt. eigenvalues --    0.52026   0.52390   0.52711   0.52727   0.52953
  Beta virt. eigenvalues --    0.53385   0.53442   0.53697   0.53871   0.54206
  Beta virt. eigenvalues --    0.54262   0.54633   0.55048   0.55405   0.55763
  Beta virt. eigenvalues --    0.55984   0.56507   0.56838   0.56925   0.57142
  Beta virt. eigenvalues --    0.57384   0.57659   0.57757   0.58349   0.58585
  Beta virt. eigenvalues --    0.58634   0.59113   0.59346   0.59582   0.59832
  Beta virt. eigenvalues --    0.60110   0.60274   0.60670   0.60792   0.60988
  Beta virt. eigenvalues --    0.61435   0.61770   0.62039   0.62068   0.62361
  Beta virt. eigenvalues --    0.62562   0.62749   0.62948   0.63519   0.63770
  Beta virt. eigenvalues --    0.64142   0.64376   0.64632   0.64980   0.65111
  Beta virt. eigenvalues --    0.65684   0.65929   0.66163   0.66523   0.66697
  Beta virt. eigenvalues --    0.66973   0.67189   0.67994   0.68046   0.68538
  Beta virt. eigenvalues --    0.68676   0.69034   0.69175   0.69444   0.69652
  Beta virt. eigenvalues --    0.70016   0.70411   0.70697   0.71166   0.71224
  Beta virt. eigenvalues --    0.71655   0.71758   0.71864   0.72388   0.72610
  Beta virt. eigenvalues --    0.73036   0.73213   0.73858   0.74092   0.74493
  Beta virt. eigenvalues --    0.74661   0.75225   0.75407   0.75650   0.75799
  Beta virt. eigenvalues --    0.76459   0.76678   0.76808   0.77016   0.77372
  Beta virt. eigenvalues --    0.77730   0.77876   0.78342   0.78889   0.78946
  Beta virt. eigenvalues --    0.79411   0.79898   0.80139   0.80435   0.81024
  Beta virt. eigenvalues --    0.81538   0.81633   0.81778   0.81986   0.82464
  Beta virt. eigenvalues --    0.82757   0.83093   0.83217   0.83519   0.83825
  Beta virt. eigenvalues --    0.83976   0.84192   0.84522   0.84649   0.85116
  Beta virt. eigenvalues --    0.85536   0.85675   0.86139   0.86562   0.86773
  Beta virt. eigenvalues --    0.86907   0.87189   0.87364   0.87607   0.87627
  Beta virt. eigenvalues --    0.88403   0.88550   0.88775   0.89279   0.89498
  Beta virt. eigenvalues --    0.89637   0.89872   0.89943   0.90508   0.90661
  Beta virt. eigenvalues --    0.90865   0.91157   0.91633   0.91843   0.92368
  Beta virt. eigenvalues --    0.92574   0.92793   0.92893   0.93475   0.93493
  Beta virt. eigenvalues --    0.93747   0.93970   0.94213   0.94362   0.94707
  Beta virt. eigenvalues --    0.95071   0.95288   0.95578   0.95720   0.96472
  Beta virt. eigenvalues --    0.96664   0.96918   0.97050   0.97142   0.98012
  Beta virt. eigenvalues --    0.98022   0.98484   0.98995   0.99461   0.99537
  Beta virt. eigenvalues --    1.00319   1.00516   1.00564   1.01044   1.01389
  Beta virt. eigenvalues --    1.01678   1.01998   1.02273   1.02825   1.02997
  Beta virt. eigenvalues --    1.03577   1.03786   1.04619   1.04912   1.04964
  Beta virt. eigenvalues --    1.05382   1.05642   1.05962   1.06041   1.06692
  Beta virt. eigenvalues --    1.06873   1.07092   1.07472   1.07941   1.08115
  Beta virt. eigenvalues --    1.08581   1.08762   1.09658   1.09842   1.10070
  Beta virt. eigenvalues --    1.10679   1.11137   1.11232   1.11520   1.12157
  Beta virt. eigenvalues --    1.12388   1.12881   1.13118   1.13378   1.13687
  Beta virt. eigenvalues --    1.13760   1.14387   1.14534   1.15052   1.15162
  Beta virt. eigenvalues --    1.15463   1.15801   1.15861   1.16125   1.16353
  Beta virt. eigenvalues --    1.16843   1.17136   1.18223   1.18266   1.18717
  Beta virt. eigenvalues --    1.18826   1.19289   1.19614   1.20259   1.20372
  Beta virt. eigenvalues --    1.20625   1.20853   1.21254   1.21846   1.22196
  Beta virt. eigenvalues --    1.22829   1.23068   1.24051   1.24271   1.24428
  Beta virt. eigenvalues --    1.24722   1.25203   1.25471   1.25679   1.25892
  Beta virt. eigenvalues --    1.26274   1.26642   1.26812   1.27636   1.28107
  Beta virt. eigenvalues --    1.28538   1.28837   1.29120   1.29394   1.29734
  Beta virt. eigenvalues --    1.30123   1.31123   1.31582   1.31803   1.32263
  Beta virt. eigenvalues --    1.33062   1.33280   1.33633   1.34057   1.34238
  Beta virt. eigenvalues --    1.34797   1.35172   1.35283   1.35478   1.36081
  Beta virt. eigenvalues --    1.36453   1.36706   1.36963   1.37469   1.37738
  Beta virt. eigenvalues --    1.37924   1.38570   1.38735   1.39292   1.39521
  Beta virt. eigenvalues --    1.39893   1.40076   1.40642   1.40866   1.41165
  Beta virt. eigenvalues --    1.41358   1.41610   1.41897   1.42440   1.42768
  Beta virt. eigenvalues --    1.43165   1.43384   1.43694   1.44050   1.44063
  Beta virt. eigenvalues --    1.44424   1.45055   1.45215   1.45786   1.45857
  Beta virt. eigenvalues --    1.46029   1.46366   1.46509   1.46641   1.46966
  Beta virt. eigenvalues --    1.47401   1.47714   1.47808   1.48008   1.48244
  Beta virt. eigenvalues --    1.48481   1.48730   1.48872   1.49221   1.49488
  Beta virt. eigenvalues --    1.49701   1.50037   1.50317   1.50385   1.50721
  Beta virt. eigenvalues --    1.51213   1.51498   1.51551   1.52002   1.52221
  Beta virt. eigenvalues --    1.52565   1.52589   1.52873   1.53232   1.53434
  Beta virt. eigenvalues --    1.53619   1.54174   1.54402   1.54584   1.54879
  Beta virt. eigenvalues --    1.55021   1.55311   1.55542   1.55577   1.56153
  Beta virt. eigenvalues --    1.56377   1.56782   1.56795   1.56981   1.57092
  Beta virt. eigenvalues --    1.57474   1.57575   1.58088   1.58714   1.59109
  Beta virt. eigenvalues --    1.59297   1.59657   1.59902   1.60426   1.60524
  Beta virt. eigenvalues --    1.61009   1.61307   1.61387   1.61728   1.62464
  Beta virt. eigenvalues --    1.62789   1.62886   1.63206   1.63512   1.63775
  Beta virt. eigenvalues --    1.63959   1.64527   1.64766   1.65092   1.65663
  Beta virt. eigenvalues --    1.65897   1.66599   1.66729   1.67109   1.67492
  Beta virt. eigenvalues --    1.68030   1.68101   1.68902   1.69535   1.69719
  Beta virt. eigenvalues --    1.69997   1.70880   1.71408   1.71465   1.71962
  Beta virt. eigenvalues --    1.72086   1.72301   1.72633   1.73360   1.73730
  Beta virt. eigenvalues --    1.74412   1.74642   1.74972   1.74979   1.75443
[...]
  1704. RY*(   3) H  88                  0.00008     1.76378   
  1705. RY*(   4) H  88                  0.00004     2.51863   
  1706. RY*(   5) H  88                  0.00001     2.98517   
  1707. RY*(   1) H  89                  0.00021     1.26645   
  1708. RY*(   2) H  89                  0.00010     1.54936   
  1709. RY*(   3) H  89                  0.00006     1.66228   
  1710. RY*(   4) H  89                  0.00001     2.78570   
  1711. RY*(   5) H  89                  0.00000     1.85387   
  1712. RY*(   1) H  90                  0.00027     1.38748   
  1713. RY*(   2) H  90                  0.00008     1.62772   
  1714. RY*(   3) H  90                  0.00005     1.94653   
  1715. RY*(   4) H  90                  0.00001     2.56911   
  1716. RY*(   5) H  90                  0.00001     1.55448   
  1731. BD*(   1) C   7 - C  11          0.00939     0.43949   
  1732. BD*(   1) C   7 - C  38          0.01006     0.44709   
  1733. BD*(   1) C   7 - H  64          0.00699     0.35872   
  1734. BD*(   1) C   8 - C  14          0.00987     0.44223   
  1735. BD*(   1) C   8 - C  21          0.00962     0.45197   
  1736. BD*(   2) C   8 - C  21          0.18809    -0.06197  1771(v),176(v),1776(v)
                                                    378(g),191(r),719(g)
  1737. BD*(   1) C   8 - H  81          0.00650     0.34886   
  1738. BD*(   1) C   9 - C  24          0.00948     0.46604   
  1739. BD*(   1) C   9 - C  28          0.01015     0.47308   
  1740. BD*(   2) C   9 - C  28          0.18940    -0.05500  1787(v),1776(v),1743(r)
                                                    403(g),901(g),1736(r)
  1741. BD*(   1) C   9 - H  77          0.00684     0.35070   
  1742. BD*(   1) C  10 - C  31          0.00920     0.43787   
  1743. BD*(   2) C  10 - C  31          0.17257    -0.06112  1802(v),1787(v),191(r)
                                                    1740(r),430(g),979(g)
  1744. BD*(   1) C  10 - C  35          0.00969     0.43754   
  1745. BD*(   1) C  10 - H  73          0.00624     0.35119   
  1746. BD*(   1) C  11 - C  12          0.01519     0.31002   
  1747. BD*(   1) C  11 - N  45          0.01400     0.29601   
  1748. BD*(   2) C  11 - N  45          0.33386    -0.11881  175(v),1750(v),176(v),192(v)
                                                    191(v),457(g),1341(g)
                                                    1727(r),352(v),1827(r)
                                                    193(v)
  1749. BD*(   1) C  12 - C  13          0.00972     0.46829   
  1750. BD*(   2) C  12 - C  13          0.11750    -0.03870  1748(v),176(v),1759(v)
                                                    1755(v),1756(v),1751(g)
  1751. BD*(   1) C  12 - C  16          0.01212     0.25669   
  1752. BD*(   1) C  13 - C  14          0.01711     0.32861   
  1753. BD*(   1) C  13 - C  15          0.00825     0.27123   
  1754. BD*(   1) C  14 - N  45          0.01328     0.33287   
  1755. BD*(   1) C  15 - H  61          0.00378     0.32002   
  1756. BD*(   1) C  15 - H  62          0.00359     0.31981   
  1757. BD*(   1) C  15 - H  63          0.00376     0.33887   
  1758. BD*(   1) C  16 - C  17          0.00550     0.25995   
  1759. BD*(   1) C  16 - H  59          0.00642     0.32192   
  1760. BD*(   1) C  16 - H  60          0.00614     0.33401   
  1761. BD*(   1) C  17 - C  18          0.03720     0.25388   
  1762. BD*(   1) C  17 - H  57          0.00634     0.32777   
  1763. BD*(   1) C  17 - H  58          0.00376     0.31808   
  1764. BD*(   1) C  18 - O  19          0.01712     0.48535   
  1765. BD*(   2) C  18 - O  19          0.10811    -0.06795  1763(v),1767(v),1758(v)
  1766. BD*(   1) C  18 - O  20          0.03493     0.42651   
  1767. BD*(   1) O  20 - H  56          0.00701     0.31471   
  1768. BD*(   1) C  21 - C  22          0.01620     0.34651   
  1769. BD*(   1) C  21 - N  46          0.01425     0.32448   
  1770. BD*(   1) C  22 - C  23          0.01075     0.47211   
  1771. BD*(   2) C  22 - C  23          0.12947    -0.03358  1736(v),181(v),1776(v)
                                                    1778(v),1777(v),743(g)
  1772. BD*(   1) C  22 - C  25          0.00747     0.27418   
  1773. BD*(   1) C  23 - C  24          0.01807     0.33314   
  1774. BD*(   1) C  23 - C  26          0.00767     0.45155   
  1775. BD*(   1) C  24 - N  46          0.01356     0.32241   
  1776. BD*(   2) C  24 - N  46          0.29191    -0.10893  181(r),1740(v),1771(v)
                                                    1736(v),795(g),193(v)
                                                    1367(g),192(v)
  1777. BD*(   1) C  25 - H  78          0.00323     0.32073   
  1778. BD*(   1) C  25 - H  79          0.00278     0.32217   
  1779. BD*(   1) C  25 - H  80          0.00226     0.32483   
  1780. BD*(   1) C  26 - C  27          0.00418     0.29709   
  1781. BD*(   1) C  26 - H  85          0.00540     0.35468   
  1782. BD*(   1) C  27 - H  86          0.00121     0.35619   
  1783. BD*(   1) C  27 - H  87          0.00088     0.36067   
  1784. BD*(   1) C  28 - C  29          0.01596     0.37379   
  1785. BD*(   1) C  28 - N  47          0.01461     0.34486   
  1786. BD*(   1) C  29 - C  30          0.01421     0.49571   
  1787. BD*(   2) C  29 - C  30          0.12925    -0.02983  1740(v),1743(v),1796(v)
                                                    1793(v),1797(v),1795(v)
  1788. BD*(   1) C  29 - C  32          0.00785     0.28707   
  1789. BD*(   1) C  30 - C  31          0.02284     0.35186   
  1790. BD*(   1) C  30 - C  33          0.00966     0.45052   
  1791. BD*(   1) C  31 - N  47          0.01371     0.33389   
  1792. BD*(   1) C  32 - H  74          0.00366     0.33739   
  1793. BD*(   1) C  32 - H  75          0.00406     0.32492   
  1794. BD*(   1) C  32 - H  76          0.00414     0.32725   
  1795. BD*(   1) C  33 - C  34          0.00395     0.27008   
  1796. BD*(   2) C  33 - C  34          0.03613    -0.08269   
  1797. BD*(   1) C  33 - H  88          0.00819     0.36538   
  1798. BD*(   1) C  34 - H  89          0.00167     0.36712   
  1799. BD*(   1) C  34 - H  90          0.00194     0.36167   
  1800. BD*(   1) C  35 - C  36          0.01586     0.37437   
  1801. BD*(   1) C  35 - N  48          0.01422     0.32685   
  1802. BD*(   2) C  35 - N  48          0.31888    -0.11001  1743(v),1804(v),183(v)
                                                    191(v),1081(g),1419(g)
                                                    1828(r),430(v),1827(r)
                                                    192(v),1728(r),1826(r)
  1803. BD*(   1) C  36 - C  37          0.01064     0.49511   
  1804. BD*(   2) C  36 - C  37          0.12322    -0.03066  1802(v),183(v),1812(v)
                                                    1809(v),1814(v),1810(v)
  1805. BD*(   1) C  36 - C  39          0.00836     0.29086   
  1806. BD*(   1) C  37 - C  38          0.01462     0.39323   
  1807. BD*(   1) C  37 - C  40          0.01152     0.29389   
  1808. BD*(   1) C  38 - N  48          0.01460     0.32555   
  1809. BD*(   1) C  39 - H  70          0.00461     0.32225   
  1810. BD*(   1) C  39 - H  71          0.00369     0.32542   
  1811. BD*(   1) C  39 - H  72          0.00252     0.32908   
  1812. BD*(   1) C  40 - C  41          0.00622     0.27998   
  1813. BD*(   1) C  40 - H  65          0.00566     0.33704   
  1814. BD*(   1) C  40 - H  66          0.00718     0.33937   
  1815. BD*(   1) C  41 - C  42          0.04036     0.28176   
  1816. BD*(   1) C  41 - H  67          0.00685     0.31829   
  1817. BD*(   1) C  41 - H  68          0.00649     0.31513   
  1818. BD*(   1) C  42 - O  43          0.02471     0.47327   
  1819. BD*(   2) C  42 - O  43          0.08532    -0.04551   
  1820. BD*(   1) C  42 - O  44          0.03488     0.43806   
  1821. BD*(   1) O  44 - H  69          0.00721     0.30701   
  1822. BD*(   1) N  45 -Fe  49          0.03536     0.27057   
  1823. BD*(   1) N  46 -Fe  49          0.03377     0.27935   
  1824. BD*(   1) N  47 -Fe  49          0.03456     0.27272   
  1825. BD*(   1) N  48 -Fe  49          0.03905     0.26826   
       -------------------------------
              Total Lewis  154.16883  ( 97.3506%)
        Valence non-Lewis    3.89803  (  2.4614%)
        Rydberg non-Lewis    0.29775  (  0.1880%)
       -------------------------------
            Total unit  2  158.36461  (100.0000%)
           Charge unit  2    2.63539

 Molecular unit  3  (CHN)
   110. BD (   1) N  82 - C  83          0.99690    -1.03917  190(r),193(r),191(r),1444(r)
                                                    1682(v),1445(r),1823(r)
                                                    328(r),1824(r),1419(r)
                                                    1446(r),1443(r),1366(r)
                                                    325(r),1450(r),1825(r)
                                                    1452(r),1392(r),1448(r)
   111. BD (   2) N  82 - C  83          0.98259    -0.46696  192(r),1822(r),1824(r)
                                                    1444(r),1445(r),1446(r)
                                                    326(r),1443(r),1419(r)
                                                    1825(r),1447(r),1748(r)
                                                    1468(r),1823(r)
   112. BD (   3) N  82 - C  83          0.97374    -0.49026  190(r),193(r),1444(r)
                                                    1825(r),1445(r),1822(r)
                                                    1443(r),1419(r),191(r)
                                                    328(r),327(r),1393(r)
                                                    1802(r),1368(r),1341(r)
                                                    1421(r),1769(r),1418(r)
                                                    1791(r),1463(r),1340(r)
                                                    1775(r)
   113. BD (   1) C  83 - H  84          0.99462    -0.77742  1630(v),190(r),1634(v)
                                                    193(r),1448(r),191(r),328(r)
   171. CR (   1) N  82                  0.99976   -14.35449  190(r),193(r),191(r),1829(v)
                                                    1656(v),1823(r),1824(r)
                                                    1822(r),1446(r),1825(r)
   172. CR (   1) C  83                  0.99963   -10.32875  1630(v),1633(v),190(r)
                                                    1682(v),193(r),1823(r)
   194. LP (   1) N  82                  0.82289    -0.64765  190(r),193(r),191(r),1829(v)
                                                    1656(v),1823(r),1632(g)
                                                    1448(r),1418(r),1639(g)
                                                    1630(g),1826(g),1393(r)
                                                    1444(r),1341(r),1342(r)
                                                    1394(r),1340(r),1801(r)
                                                    1420(r),1367(r),1446(r)
                                                    1366(r),1802(r),1808(r)
                                                    1824(r),1419(r),1825(r)
                                                    1754(r),1449(r),1747(r)
                                                    1392(r),1450(r),1785(r)
                                                    1791(r),1372(r),1453(r)
                                                    1457(r),1391(r),1368(r)
                                                    430(r),1769(r),1398(r)
                                                    1775(r),331(r),1345(r)
                                                    1344(r),1426(r),1421(r)
                                                    1455(r),1339(r),1157(r)
  1630. RY*(   1) N  82                  0.00252     1.03890   
  1631. RY*(   2) N  82                  0.00073     0.63648   
  1632. RY*(   3) N  82                  0.00067     1.60601   
  1633. RY*(   4) N  82                  0.00060     0.83050   
  1634. RY*(   5) N  82                  0.00031     2.07865   
  1635. RY*(   6) N  82                  0.00025     1.44311   
  1636. RY*(   7) N  82                  0.00011     1.67160   
  1637. RY*(   8) N  82                  0.00008     1.90534   
  1638. RY*(   9) N  82                  0.00004     1.24368   
  1639. RY*(  10) N  82                  0.00004     3.19527   
  1640. RY*(  11) N  82                  0.00000     4.49859   
  1641. RY*(  12) N  82                  0.00000     2.37587   
  1642. RY*(  13) N  82                  0.00000     4.59411   
  1643. RY*(  14) N  82                  0.00000     2.45472   
  1644. RY*(  15) N  82                  0.00000     4.61890   
  1645. RY*(  16) N  82                  0.00001     2.57533   
  1646. RY*(  17) N  82                  0.00000     4.45209   
  1647. RY*(  18) N  82                  0.00000    31.27681   
  1648. RY*(  19) N  82                  0.00000     4.70465   
  1649. RY*(  20) N  82                  0.00000     4.69502   
  1650. RY*(  21) N  82                  0.00000     4.49196   
  1651. RY*(  22) N  82                  0.00000     4.40726   
  1652. RY*(  23) N  82                  0.00000     4.03369   
  1653. RY*(  24) N  82                  0.00000     4.04546   
  1654. RY*(  25) N  82                  0.00000     3.82766   
  1655. RY*(  26) N  82                  0.00000     3.83611   
  1656. RY*(   1) C  83                  0.00265     1.49942   
  1657. RY*(   2) C  83                  0.00036     0.52284   
  1658. RY*(   3) C  83                  0.00027     0.52176   
  1659. RY*(   4) C  83                  0.00007     0.86966   
  1660. RY*(   5) C  83                  0.00003     1.71685   
  1661. RY*(   6) C  83                  0.00000    21.45305   
  1662. RY*(   7) C  83                  0.00000     1.32075   
  1663. RY*(   8) C  83                  0.00001     1.30137   
  1664. RY*(   9) C  83                  0.00001     1.35697   
  1665. RY*(  10) C  83                  0.00000     2.53226   
  1666. RY*(  11) C  83                  0.00001     1.38315   
  1667. RY*(  12) C  83                  0.00000     3.01591   
  1668. RY*(  13) C  83                  0.00000     2.23701   
  1669. RY*(  14) C  83                  0.00000     2.92592   
  1670. RY*(  15) C  83                  0.00001     2.16218   
  1671. RY*(  16) C  83                  0.00000     2.53084   
  1672. RY*(  17) C  83                  0.00000     1.31089   
  1673. RY*(  18) C  83                  0.00000     3.67010   
  1674. RY*(  19) C  83                  0.00000     2.04744   
  1675. RY*(  20) C  83                  0.00000     3.56169   
  1676. RY*(  21) C  83                  0.00000     3.63920   
  1677. RY*(  22) C  83                  0.00000     3.39641   
  1678. RY*(  23) C  83                  0.00000     2.92952   
  1679. RY*(  24) C  83                  0.00000     2.93863   
  1680. RY*(  25) C  83                  0.00000     2.58435   
  1681. RY*(  26) C  83                  0.00000     2.58531   
  1682. RY*(   1) H  84                  0.00028     1.53880   
  1683. RY*(   2) H  84                  0.00011     0.85413   
  1684. RY*(   3) H  84                  0.00003     2.09616   
  1685. RY*(   4) H  84                  0.00003     1.85667   
  1686. RY*(   5) H  84                  0.00000     2.34906   
  1826. BD*(   1) N  82 - C  83          0.00446     0.50013   
  1827. BD*(   2) N  82 - C  83          0.01575    -0.10313   
  1828. BD*(   3) N  82 - C  83          0.01370    -0.07905   
  1829. BD*(   1) C  83 - H  84          0.00300     0.25224   
       -------------------------------
              Total Lewis    6.77013  ( 99.3224%)
        Valence non-Lewis    0.03691  (  0.5415%)
        Rydberg non-Lewis    0.00928  (  0.1361%)
       -------------------------------
            Total unit  3    6.81631  (100.0000%)
           Charge unit  3    0.18369
 1\1\GINC-NODE402\SP\UPBE1PBE\def2TZVP\C39H39Fe1N7O4(1+,6)\ZHARTOVSKA\0
 1-Sep-2022\0\\# PBE1PBE/def2TZVP empiricaldispersion=GD3BJ int=(grid=u
 ltrafine) geom=check pop=nbo\\1fhf_III_H\\1,6\C,0,-6.546,53.229,1.865\
 C,0,-5.999,53.189999,0.452\N,0,-6.725,52.800999,-0.68\C,0,-4.667,53.47
 9,0.084\C,0,-5.777,52.813999,-1.677\N,0,-4.554,53.183998,-1.302\C,0,-2
 .424,56.617001,-2.155\C,0,-4.342,53.460999,-5.354\C,0,-2.651,49.738998
 ,-2.71\C,0,-0.782,52.856998,0.516\C,0,-2.983,56.082001,-3.328\C,0,-3.6
 1,56.924,-4.415\C,0,-4.141,56.007,-5.299\C,0,-3.903,54.640999,-4.736\C
 ,0,-4.864,56.321999,-6.621\C,0,-3.947,58.446999,-4.335\C,0,-4.066,59.4
 76002,-5.484\C,0,-2.816,60.345001,-5.658\O,0,-2.321,60.894001,-4.652\O
 ,0,-2.328,60.492001,-6.8\C,0,-4.074,52.174,-4.889\C,0,-4.658,50.948002
 ,-5.482\C,0,-4.181,49.889,-4.742\C,0,-3.322,50.476002,-3.674\C,0,-5.64
 ,50.831001,-6.659\C,0,-4.447,48.554001,-5.075\C,0,-4.69712146,47.51821
 506,-3.96316065\C,0,-1.923,50.285,-1.67\C,0,-1.071,49.485001,-0.8\C,0,
 -0.492,50.354,0.077\C,0,-1.04,51.693001,-0.227\C,0,-0.816,47.981998,-0
 .892\C,0,0.49,50.046001,1.022\C,0,0.26624177,48.8919758,2.01686587\C,0
 ,-1.183,54.145,0.12\C,0,-0.922,55.370998,0.867\C,0,-1.364,56.414001,0.
 103\C,0,-1.949,55.842999,-1.088\C,0,-0.304,55.464001,2.255\C,0,-1.158,
 57.915001,0.342\C,0,0.31,58.299,0.507\C,0,0.523,59.794998,0.553\O,0,-0
 .26,60.48,1.241\O,0,1.477,60.282001,-0.088\N,0,-3.175,54.673,-3.532\N,
 0,-3.305,51.893002,-3.735\N,0,-1.853,51.653999,-1.378\N,0,-1.876,54.42
 8001,-1.081\Fe,0,-2.601,53.157001,-2.404\H,0,-6.00714852,52.54469097,-
 2.68665581\H,0,-7.69562801,52.57006928,-0.7474739\H,0,-3.89302277,53.8
 4828059,0.72391491\H,0,-5.859945,53.75108773,2.49876095\H,0,-7.4894920
 6,53.7336891,1.86841157\H,0,-6.67471853,52.22975599,2.22533727\H,0,-1.
 3752204,60.50700461,-6.91655869\H,0,-4.24604458,58.94905735,-6.3976811
 7\H,0,-4.90151051,60.11447861,-5.28608638\H,0,-4.88991699,58.49115731,
 -3.83115718\H,0,-3.20689239,58.85557964,-3.6791017\H,0,-4.26022351,55.
 99942622,-7.44337507\H,0,-5.80281125,55.80920806,-6.6450601\H,0,-5.031
 51738,57.37631628,-6.6934776\H,0,-2.35692164,57.68162359,-2.07145822\H
 ,0,-1.56271125,58.45389299,-0.48908617\H,0,-1.6886424,58.19792411,1.22
 702721\H,0,0.86571483,57.89694534,-0.31423875\H,0,0.67820825,57.870450
 27,1.41566265\H,0,2.38001147,60.08488228,0.17145036\H,0,0.63921345,55.
 9653537,2.19259919\H,0,-0.95760784,56.01277979,2.90039803\H,0,-0.15919
 72,54.47924375,2.64766437\H,0,-0.24855586,52.75738048,1.43817878\H,0,0
 .10493885,47.74577552,-0.40111247\H,0,-1.61783626,47.45457995,-0.41893
 678\H,0,-0.7564487,47.69262938,-1.92040627\H,0,-2.70038235,48.67218019
 ,-2.77603889\H,0,-5.19564843,50.24672386,-7.43750621\H,0,-6.54001135,5
 0.35713025,-6.32684629\H,0,-5.86782989,51.80771408,-7.03186069\H,0,-4.
 92452471,53.55510544,-6.24658553\N,0,-0.80026098,53.51103565,-3.122907
 27\C,0,0.19483418,53.15195436,-3.84844215\H,0,0.86402326,52.63160881,-
 4.50137896\H,0,-4.47631404,48.25435491,-6.10176819\H,0,-3.86967088,47.
 05579177,-3.46678354\H,0,-5.69835773,47.26096891,-3.68702599\H,0,1.397
 49243,50.61195542,1.05445117\H,0,1.10532119,48.38908782,2.4503972\H,0,
 -0.72830602,48.59304107,2.27457251\\Version=ES64L-G16RevA.03\State=6-A
 \HF=-3455.2753996\S2=8.852592\S2-1=0.\S2A=8.753177\RMSD=1.153e-09\Dipo
 le=-0.0919484,-3.5670642,-1.2318009\Quadrupole=23.2713287,-26.4164422,
 3.1451135,11.1939354,6.7481041,-16.4530936\PG=C01 [X(C39H39Fe1N7O4)]\\
 @


 "PERFECTION IS NOT AN ACCIDENT"
         --  EAGLE ELECTRIC MANUFACTURING CO.,INC. NY
 Job cpu time:       5 days 18 hours 12 minutes 56.1 seconds.
 Elapsed time:       1 days 10 hours 43 minutes  2.4 seconds.
 File lengths (MBytes):  RWF=   3073 Int=      0 D2E=      0 Chk=    257 Scr=      1
 Normal termination of Gaussian 16 at Thu Sep  1 23:30:12 2022.
