 Entering Gaussian System, Link 0=g16
 Input=/net/homes/chemie/zhartovska/work/BioModel/Konrad/1ccc/1ccc01/1ccc.com
 Output=/net/homes/chemie/zhartovska/work/BioModel/Konrad/1ccc/1ccc01/1ccc.log
 Initial command:
 /afs/math/software/gaussian/g16.A03/g16/l1.exe "/scratch/zhartovska_gaussian.3zyZZPJ/Gau-11273.inp" -scrdir="/scratch/zhartovska_gaussian.3zyZZPJ/"
 Entering Link 1 = /afs/math/software/gaussian/g16.A03/g16/l1.exe PID=     11274.
  
 Copyright (c) 1988,1990,1992,1993,1995,1998,2003,2009,2016,
            Gaussian, Inc.  All Rights Reserved.
  
 This is part of the Gaussian(R) 16 program.  It is based on
 the Gaussian(R) 09 system (copyright 2009, Gaussian, Inc.),
 the Gaussian(R) 03 system (copyright 2003, Gaussian, Inc.),
 the Gaussian(R) 98 system (copyright 1998, Gaussian, Inc.),
 the Gaussian(R) 94 system (copyright 1995, Gaussian, Inc.),
 the Gaussian 92(TM) system (copyright 1992, Gaussian, Inc.),
 the Gaussian 90(TM) system (copyright 1990, Gaussian, Inc.),
 the Gaussian 88(TM) system (copyright 1988, Gaussian, Inc.),
 the Gaussian 86(TM) system (copyright 1986, Carnegie Mellon
 University), and the Gaussian 82(TM) system (copyright 1983,
 Carnegie Mellon University). Gaussian is a federally registered
 trademark of Gaussian, Inc.
  
 This software contains proprietary and confidential information,
 including trade secrets, belonging to Gaussian, Inc.
  
 This software is provided under written license and may be
 used, copied, transmitted, or stored only in accord with that
 written license.
  
 The following legend is applicable only to US Government
 contracts under FAR:
  
                    RESTRICTED RIGHTS LEGEND
  
 Use, reproduction and disclosure by the US Government is
 subject to restrictions as set forth in subparagraphs (a)
 and (c) of the Commercial Computer Software - Restricted
 Rights clause in FAR 52.227-19.
  
 Gaussian, Inc.
 340 Quinnipiac St., Bldg. 40, Wallingford CT 06492
  
  
 ---------------------------------------------------------------
 Warning -- This program may not be used in any manner that
 competes with the business of Gaussian, Inc. or will provide
 assistance to any competitor of Gaussian, Inc.  The licensee
 of this program is prohibited from giving any competitor of
 Gaussian, Inc. access to this program.  By using this program,
 the user acknowledges that Gaussian, Inc. is engaged in the
 business of creating and licensing software in the field of
 computational chemistry and represents and warrants to the
 licensee that it is not a competitor of Gaussian, Inc. and that
 it will not use this program in any manner prohibited above.
 ---------------------------------------------------------------
  

 Cite this work as:
 Gaussian 16, Revision A.03,
 M. J. Frisch, G. W. Trucks, H. B. Schlegel, G. E. Scuseria, 
 M. A. Robb, J. R. Cheeseman, G. Scalmani, V. Barone, 
 G. A. Petersson, H. Nakatsuji, X. Li, M. Caricato, A. V. Marenich, 
 J. Bloino, B. G. Janesko, R. Gomperts, B. Mennucci, H. P. Hratchian, 
 J. V. Ortiz, A. F. Izmaylov, J. L. Sonnenberg, D. Williams-Young, 
 F. Ding, F. Lipparini, F. Egidi, J. Goings, B. Peng, A. Petrone, 
 T. Henderson, D. Ranasinghe, V. G. Zakrzewski, J. Gao, N. Rega, 
 G. Zheng, W. Liang, M. Hada, M. Ehara, K. Toyota, R. Fukuda, 
 J. Hasegawa, M. Ishida, T. Nakajima, Y. Honda, O. Kitao, H. Nakai, 
 T. Vreven, K. Throssell, J. A. Montgomery, Jr., J. E. Peralta, 
 F. Ogliaro, M. J. Bearpark, J. J. Heyd, E. N. Brothers, K. N. Kudin, 
 V. N. Staroverov, T. A. Keith, R. Kobayashi, J. Normand, 
 K. Raghavachari, A. P. Rendell, J. C. Burant, S. S. Iyengar, 
 J. Tomasi, M. Cossi, J. M. Millam, M. Klene, C. Adamo, R. Cammi, 
 J. W. Ochterski, R. L. Martin, K. Morokuma, O. Farkas, 
 J. B. Foresman, and D. J. Fox, Gaussian, Inc., Wallingford CT, 2016.
 
 ******************************************
 Gaussian 16:  ES64L-G16RevA.03 25-Dec-2016
                14-Jan-2023 
 ******************************************
 %nprocs=12
 Will use up to   12 processors via shared memory.
 %mem=16GB
 %chk=1ccc_II_S.chk
 ---------------------------------------------------------------------
 # polar def2tzvp empiricaldispersion=gd3bj int=grid=ultrafine pbe1pbe
 ---------------------------------------------------------------------
 1/38=1,172=1/1;
 2/12=2,17=6,18=5,40=1/2;
 3/5=44,7=101,11=2,25=1,30=1,74=-13,75=-5,124=41/1,2,3;
 4//1;
 5/5=2,38=5,98=1/2;
 8/6=4,10=90,11=11/1;
 10/6=1,13=10/2;
 6/7=2,8=2,9=2,10=2,28=1/1;
 99/5=1,9=1/99;
 ---------
 1ccc_II_S
 ---------
 Symbolic Z-matrix:
 Charge =  0 Multiplicity = 1
 C                    -9.179     55.032    107.752 
 C                    -8.656     55.674    109.047 
 N                    -9.337     56.251    110.028 
 C                    -7.346     55.781    109.43 
 C                    -8.517     56.656    110.967 
 N                    -7.296     56.371    110.601 
 H                    -10.269    56.52     109.992 
 C                    -5.551     53.892    112.957 
 C                    -7.582     57.995    114.479 
 C                    -6.051     60.051    110.455 
 C                    -3.606     56.143    109.236 
 C                    -6.256     54.818    113.741 
 C                    -6.747     54.522    114.978 
 C                    -7.371     55.7      115.428 
 C                    -7.164     56.651    114.442 
 C                    -8.086     55.956    116.762 
 C                    -6.553     53.157    115.632 
 C                    -5.476     53.072    116.681 
 C                    -5.338     51.676    117.3 
 O                    -6.184     51.244    118.071 
 O                    -4.374     50.963    117.069 
 C                    -7.439     58.947    113.445 
 C                    -8.009     60.231    113.431 
 C                    -7.608     60.79     112.216 
 C                    -6.791     59.833    111.615 
 C                    -8.955     60.766    114.492 
 C                    -7.873     62.019    111.592 
 C                    -8.696     63.097    112.034 
 C                    -5.174     59.214    109.761 
 C                    -4.391     59.621    108.681 
 C                    -3.586     58.503    108.416 
 C                    -4.037     57.471    109.254 
 C                    -4.411     61.018    108.022 
 C                    -2.583     58.321    107.461 
 C                    -2.38      59.068    106.226 
 C                    -3.969     55.112    110.1 
 C                    -3.707     53.769    109.892 
 C                    -4.284     53.11     110.969 
 C                    -4.859     54.103    111.761 
 C                    -2.951     53.119    108.756 
 C                    -4.239     51.602    111.251 
 C                    -3.022     51.189    112.088 
 C                    -3.017     49.736    112.53 
 O                    -2.521     49.411    113.591 
 O                    -3.525     48.903    111.799 
 N                    -6.505     56.102    113.416 
 N                    -6.791     58.703    112.305 
 N                    -4.982     57.915    110.076 
 N                    -4.679     55.3      111.215 
 Fe                   -5.764     57.006    111.726 
 O                    -4.379     57.565    112.833 
 H                    -8.47883   54.29908   107.40922 
 H                    -10.12188   54.56315   107.94188 
 H                    -9.30036   55.78687   107.00343 
 H                    -6.50222   55.43985   108.86737 
 H                    -8.80002   57.1385   111.87914 
 H                    -7.47904   56.58754   117.37654 
 H                    -9.02522   56.43415   116.57725 
 H                    -8.25213   55.02476   117.26208 
 H                    -7.47973   52.87062   116.08374 
 H                    -6.32347   52.44983   114.86251 
 H                    -4.54172   53.34276   116.23523 
 H                    -5.70027   53.77105   117.45941 
 H                    -5.91535   50.79349   118.87503 
 H                    -5.54192   52.88729   113.32494 
 H                    -3.54136   57.90788   112.513 
 H                    -4.379     57.565    113.793 
 H                    -4.20968   51.07793   110.31859 
 H                    -5.12873   51.32301   111.77582 
 H                    -2.13916   51.36883   111.51081 
 H                    -2.98771   51.807    112.96081 
 H                    -1.56611   49.38202   113.68561 
 H                    -2.01609   52.74483   109.11771 
 H                    -3.52912   52.3108   108.35915 
 H                    -2.7726    53.84122   107.98692 
 H                    -2.91159   55.88547   108.46375 
 H                    -3.54204   61.13559   107.40883 
 H                    -5.2892    61.11513   107.41848 
 H                    -4.41562   61.77095   108.78224 
 H                    -1.38787   59.2754   105.88311 
 H                    -3.2231    59.40899   105.66226 
 H                    -1.87951   57.53969   107.65988 
 H                    -6.17518   61.02217   110.02336 
 H                    -8.3075    64.0938   112.05287 
 H                    -9.70184   62.90882   112.34668 
 H                    -7.38829   62.16872   110.64991 
 H                    -8.49365   61.58702   114.99992 
 H                    -9.86064   61.09702   114.02817 
 H                    -9.17715   59.99086   115.19536 
 H                    -8.05468   58.32829   115.37921 
 
 Stoichiometry    C38H40FeN6O5
 Framework group  C1[X(C38H40FeN6O5)]
 Deg. of freedom   264
 Full point group                 C1      NOp   1
 Largest Abelian subgroup         C1      NOp   1
 Largest concise Abelian subgroup C1      NOp   1
                         Standard orientation:                         
 ---------------------------------------------------------------------
 Center     Atomic      Atomic             Coordinates (Angstroms)
 Number     Number       Type             X           Y           Z
 ---------------------------------------------------------------------
      1          6           0       -1.569949   -1.838410    4.961434
      2          6           0       -1.479392   -0.895843    3.750616
      3          7           0       -1.693155    0.411778    3.691563
      4          6           0       -1.162440   -1.249704    2.466652
      5          6           0       -1.491293    0.845786    2.471301
      6          7           0       -1.168366   -0.171647    1.718591
      7          1           0       -2.121131    0.949831    4.376849
      8          6           0        2.363359    0.103689    0.237942
      9          6           0       -0.981740    3.544414   -0.259818
     10          6           0       -4.244496    0.084665   -0.644771
     11          6           0       -0.862945   -3.276823   -0.688878
     12          6           0        1.752141    1.363646    0.148080
     13          6           0        2.454817    2.531999    0.156170
     14          6           0        1.492355    3.551874    0.041755
     15          6           0        0.266693    2.918016   -0.082441
     16          6           0        1.707747    5.070714   -0.013430
     17          6           0        3.977852    2.572143    0.241803
     18          6           0        4.707806    2.821643   -1.051435
     19          6           0        6.232571    2.854570   -0.893225
     20          8           0        6.787480    3.798328   -0.347173
     21          8           0        6.943109    1.961180   -1.326830
     22          6           0       -2.241017    2.906098   -0.311552
     23          6           0       -3.487070    3.554977   -0.319243
     24          6           0       -4.429216    2.525371   -0.361342
     25          6           0       -3.690649    1.344435   -0.428095
     26          6           0       -3.679044    5.054793   -0.175876
     27          6           0       -5.832646    2.508679   -0.349091
     28          6           0       -6.747712    3.599106   -0.257492
     29          6           0       -3.640666   -1.168920   -0.768240
     30          6           0       -4.318680   -2.334301   -1.125064
     31          6           0       -3.295330   -3.284463   -1.259688
     32          6           0       -2.107901   -2.663283   -0.841590
     33          6           0       -5.839420   -2.461272   -1.364908
     34          6           0       -3.358381   -4.630509   -1.627580
     35          6           0       -4.512237   -5.519088   -1.568492
     36          6           0        0.351357   -2.680930   -0.354800
     37          6           0        1.495817   -3.361923    0.022047
     38          6           0        2.433591   -2.378155    0.304765
     39          6           0        1.791134   -1.161598    0.078546
     40          6           0        1.721205   -4.853869    0.110569
     41          6           0        3.894296   -2.597839    0.721528
     42          6           0        4.848486   -2.684053   -0.476101
     43          6           0        6.322185   -2.738898   -0.113061
     44          8           0        7.159932   -2.240473   -0.839094
     45          8           0        6.646332   -3.290452    0.924737
     46          7           0        0.432203    1.593744    0.002826
     47          7           0       -2.395877    1.581569   -0.285487
     48          7           0       -2.322517   -1.381173   -0.565956
     49          7           0        0.533194   -1.359426   -0.297990
     50         26           0       -0.955432    0.100357   -0.255377
     51          8           0       -0.710817    0.414192   -2.071370
     52          1           0       -0.939628   -2.687861    4.800098
     53          1           0       -1.251465   -1.319985    5.841606
     54          1           0       -2.581790   -2.163516    5.085460
     55          1           0       -0.945674   -2.241587    2.128896
     56          1           0       -1.576626    1.861783    2.146695
     57          1           0        1.529701    5.420262   -1.008928
     58          1           0        1.029689    5.551814    0.660129
     59          1           0        2.713992    5.298783    0.270042
     60          1           0        4.251353    3.343162    0.931460
     61          1           0        4.312919    1.635882    0.636830
     62          1           0        4.452073    2.047049   -1.743898
     63          1           0        4.384735    3.760007   -1.451432
     64          1           0        7.582380    4.175424   -0.731274
     65          1           0        3.410323    0.112777    0.458589
     66          1           0       -0.994066   -0.188352   -2.762970
     67          1           0       -0.296596    1.184219   -2.467702
     68          1           0        3.959897   -3.507907    1.280430
     69          1           0        4.199766   -1.785638    1.347560
     70          1           0        4.606620   -3.562382   -1.037295
     71          1           0        4.686239   -1.829053   -1.098637
     72          1           0        7.405716   -2.676398   -1.658337
     73          1           0        2.383060   -5.161637   -0.671816
     74          1           0        2.154480   -5.093467    1.059129
     75          1           0        0.785633   -5.362681    0.007060
     76          1           0       -0.838466   -4.334645   -0.847974
     77          1           0       -6.044495   -3.378566   -1.876197
     78          1           0       -6.350507   -2.454929   -0.424881
     79          1           0       -6.176616   -1.638271   -1.959775
     80          1           0       -4.656793   -6.259408   -2.327392
     81          1           0       -5.214736   -5.431083   -0.766214
     82          1           0       -2.451020   -5.060786   -1.996982
     83          1           0       -5.310973    0.075810   -0.731068
     84          1           0       -7.546102    3.688347   -0.964252
     85          1           0       -6.635719    4.327813    0.517972
     86          1           0       -6.280189    1.539244   -0.418379
     87          1           0       -4.097633    5.448676   -1.078394
     88          1           0       -4.341387    5.253143    0.640738
     89          1           0       -2.733355    5.519163    0.011030
     90          1           0       -0.976188    4.609126   -0.365920
 ---------------------------------------------------------------------
 Rotational constants (GHZ):           0.0766737           0.0457560           0.0337649
 Standard basis: def2TZVP (5D, 7F)
 There are  2056 symmetry adapted cartesian basis functions of A   symmetry.
 There are  1804 symmetry adapted basis functions of A   symmetry.
  1804 basis functions,  2921 primitive gaussians,  2056 cartesian basis functions
   188 alpha electrons      188 beta electrons
       nuclear repulsion energy      7619.4034109246 Hartrees.
 NAtoms=   90 NActive=   90 NUniq=   90 SFac= 1.00D+00 NAtFMM=   60 NAOKFM=T Big=T
 Integral buffers will be    131072 words long.
 Raffenetti 2 integral format.
 Two-electron integral symmetry is turned on.
 Nuclear repulsion after empirical dispersion term =     7619.2785381362 Hartrees.
 One-electron integrals computed using PRISM.
   1 Symmetry operations used in ECPInt.
 ECPInt:  NShTT=  255255 NPrTT=  790653 LenC2=  185308 LenP2D=  372504.
 LDataN:  DoStor=T MaxTD1= 6 Len=  172
 NBasis=  1804 RedAO= T EigKep=  3.00D-06  NBF=  1804
 NBsUse=  1804 1.00D-06 EigRej= -1.00D+00 NBFU=  1804
 ExpMin= 4.20D-02 ExpMax= 3.01D+05 ExpMxC= 2.91D+03 IAcc=3 IRadAn=         5 AccDes= 0.00D+00
 Harris functional with IExCor= 1009 and IRadAn=       5 diagonalized for initial guess.
 HarFok:  IExCor= 1009 AccDes= 0.00D+00 IRadAn=         5 IDoV= 1 UseB2=F ITyADJ=14
 ICtDFT=  3500011 ScaDFX=  1.000000  1.000000  1.000000  1.000000
 FoFCou: FMM=F IPFlag=           0 FMFlag=      100000 FMFlg1=        2001
         NFxFlg=           0 DoJE=T BraDBF=F KetDBF=T FulRan=T
         wScrn=  0.000000 ICntrl=       500 IOpCl=  0 I1Cent=   200000004 NGrid=           0
         NMat0=    1 NMatS0=      1 NMatT0=    0 NMatD0=    1 NMtDS0=    0 NMtDT0=    0
 Petite list used in FoFCou.
 Requested convergence on RMS density matrix=1.00D-08 within 128 cycles.
 Requested convergence on MAX density matrix=1.00D-06.
 Requested convergence on             energy=1.00D-06.
 No special actions if energy rises.
 EnCoef did     7 forward-backward iterations
 EnCoef did     3 forward-backward iterations
 Restarting incremental Fock formation.
 SCF Done:  E(RPBE1PBE) =  -3438.59819833     A.U. after   25 cycles
            NFock= 25  Conv=0.21D-08     -V/T= 2.0027
 DoSCS=F DFT=T ScalE2(SS,OS)=  1.000000  1.000000
 Range of M.O.s used for correlation:     1  1804
 NBasis=  1804 NAE=   188 NBE=   188 NFC=     0 NFV=     0
 NROrb=   1804 NOA=   188 NOB=   188 NVA=  1616 NVB=  1616

 **** Warning!!: The largest alpha MO coefficient is  0.46407795D+02


 **** Warning!!: The smallest alpha delta epsilon is  0.95852848D-01

          Differentiating once with respect to electric field.
                with respect to dipole field.
          Electric field/nuclear overlap derivatives assumed to be zero.
          There are     3 degrees of freedom in the 1st order CPHF.  IDoFFX=0 NUNeed=     3.
      3 vectors produced by pass  0 Test12= 1.01D-11 3.33D-08 XBig12= 2.32D+03 2.75D+01.
 AX will form     3 AO Fock derivatives at one time.
      3 vectors produced by pass  1 Test12= 1.01D-11 3.33D-08 XBig12= 1.57D+03 1.27D+01.
      3 vectors produced by pass  2 Test12= 1.01D-11 3.33D-08 XBig12= 6.76D+02 5.37D+00.
      3 vectors produced by pass  3 Test12= 1.01D-11 3.33D-08 XBig12= 6.04D+02 5.16D+00.
      3 vectors produced by pass  4 Test12= 1.01D-11 3.33D-08 XBig12= 2.56D+02 3.20D+00.
      3 vectors produced by pass  5 Test12= 1.01D-11 3.33D-08 XBig12= 1.28D+02 2.01D+00.
      3 vectors produced by pass  6 Test12= 1.01D-11 3.33D-08 XBig12= 6.79D+01 1.73D+00.
      3 vectors produced by pass  7 Test12= 1.01D-11 3.33D-08 XBig12= 2.72D+01 1.13D+00.
      3 vectors produced by pass  8 Test12= 1.01D-11 3.33D-08 XBig12= 1.33D+01 5.61D-01.
      3 vectors produced by pass  9 Test12= 1.01D-11 3.33D-08 XBig12= 7.10D+00 4.58D-01.
      3 vectors produced by pass 10 Test12= 1.01D-11 3.33D-08 XBig12= 3.91D+00 3.61D-01.
      3 vectors produced by pass 11 Test12= 1.01D-11 3.33D-08 XBig12= 1.81D+00 2.94D-01.
      3 vectors produced by pass 12 Test12= 1.01D-11 3.33D-08 XBig12= 7.88D-01 1.43D-01.
      3 vectors produced by pass 13 Test12= 1.01D-11 3.33D-08 XBig12= 3.22D-01 8.30D-02.
      3 vectors produced by pass 14 Test12= 1.01D-11 3.33D-08 XBig12= 1.51D-01 7.19D-02.
      3 vectors produced by pass 15 Test12= 1.01D-11 3.33D-08 XBig12= 5.16D-02 4.51D-02.
      3 vectors produced by pass 16 Test12= 1.01D-11 3.33D-08 XBig12= 2.01D-02 4.35D-02.
      3 vectors produced by pass 17 Test12= 1.01D-11 3.33D-08 XBig12= 1.04D-02 2.18D-02.
      3 vectors produced by pass 18 Test12= 1.01D-11 3.33D-08 XBig12= 4.01D-03 9.36D-03.
      3 vectors produced by pass 19 Test12= 1.01D-11 3.33D-08 XBig12= 1.12D-03 4.70D-03.
      3 vectors produced by pass 20 Test12= 1.01D-11 3.33D-08 XBig12= 3.29D-04 3.22D-03.
      3 vectors produced by pass 21 Test12= 1.01D-11 3.33D-08 XBig12= 5.46D-05 1.88D-03.
      3 vectors produced by pass 22 Test12= 1.01D-11 3.33D-08 XBig12= 1.84D-05 1.18D-03.
      3 vectors produced by pass 23 Test12= 1.01D-11 3.33D-08 XBig12= 4.48D-06 4.86D-04.
      3 vectors produced by pass 24 Test12= 1.01D-11 3.33D-08 XBig12= 9.14D-07 1.78D-04.
      3 vectors produced by pass 25 Test12= 1.01D-11 3.33D-08 XBig12= 2.72D-07 7.72D-05.
      3 vectors produced by pass 26 Test12= 1.01D-11 3.33D-08 XBig12= 6.58D-08 2.98D-05.
      3 vectors produced by pass 27 Test12= 1.01D-11 3.33D-08 XBig12= 1.30D-08 1.77D-05.
      3 vectors produced by pass 28 Test12= 1.01D-11 3.33D-08 XBig12= 2.54D-09 1.00D-05.
      3 vectors produced by pass 29 Test12= 1.01D-11 3.33D-08 XBig12= 5.82D-10 6.23D-06.
      3 vectors produced by pass 30 Test12= 1.01D-11 3.33D-08 XBig12= 9.43D-11 2.47D-06.
      3 vectors produced by pass 31 Test12= 1.01D-11 3.33D-08 XBig12= 1.94D-11 9.91D-07.
      3 vectors produced by pass 32 Test12= 1.01D-11 3.33D-08 XBig12= 3.58D-12 3.53D-07.
      3 vectors produced by pass 33 Test12= 1.01D-11 3.33D-08 XBig12= 2.29D-12 1.10D-07.
      2 vectors produced by pass 34 Test12= 1.01D-11 3.33D-08 XBig12= 2.09D-12 2.53D-07.
      1 vectors produced by pass 35 Test12= 1.01D-11 3.33D-08 XBig12= 2.21D-13 4.65D-08.
 InvSVY:  IOpt=1 It=  1 EMax= 7.11D-15
 Solved reduced A of dimension   105 with     3 vectors.
 Isotropic polarizability for W=    0.000000      682.99 Bohr**3.
 End of Minotr F.D. properties file   721 does not exist.
 End of Minotr F.D. properties file   722 does not exist.
 End of Minotr F.D. properties file   788 does not exist.

 **********************************************************************

            Population analysis using the SCF density.

 **********************************************************************

 Orbital symmetries:
       Occupied  (A) (A) (A) (A) (A) (A) (A) (A) (A) (A) (A) (A)
                 (A) (A) (A) (A) (A) (A) (A) (A) (A) (A) (A) (A)
                 (A) (A) (A) (A) (A) (A) (A) (A) (A) (A) (A) (A)
                 (A) (A) (A) (A) (A) (A) (A) (A) (A) (A) (A) (A)
                 (A) (A) (A) (A) (A) (A) (A) (A) (A) (A) (A) (A)
                 (A) (A) (A) (A) (A) (A) (A) (A) (A) (A) (A) (A)
                 (A) (A) (A) (A) (A) (A) (A) (A) (A) (A) (A) (A)
                 (A) (A) (A) (A) (A) (A) (A) (A) (A) (A) (A) (A)
                 (A) (A) (A) (A) (A) (A) (A) (A) (A) (A) (A) (A)
                 (A) (A) (A) (A) (A) (A) (A) (A) (A) (A) (A) (A)
                 (A) (A) (A) (A) (A) (A) (A) (A) (A) (A) (A) (A)
                 (A) (A) (A) (A) (A) (A) (A) (A) (A) (A) (A) (A)
                 (A) (A) (A) (A) (A) (A) (A) (A) (A) (A) (A) (A)
                 (A) (A) (A) (A) (A) (A) (A) (A) (A) (A) (A) (A)
                 (A) (A) (A) (A) (A) (A) (A) (A) (A) (A) (A) (A)
                 (A) (A) (A) (A) (A) (A) (A) (A)
       Virtual   (A) (A) (A) (A) (A) (A) (A) (A) (A) (A) (A) (A)
                 (A) (A) (A) (A) (A) (A) (A) (A) (A) (A) (A) (A)
                 (A) (A) (A) (A) (A) (A) (A) (A) (A) (A) (A) (A)
                 (A) (A) (A) (A) (A) (A) (A) (A) (A) (A) (A) (A)
                 (A) (A) (A) (A) (A) (A) (A) (A) (A) (A) (A) (A)
                 (A) (A) (A) (A) (A) (A) (A) (A) (A) (A) (A) (A)
                 (A) (A) (A) (A) (A) (A) (A) (A) (A) (A) (A) (A)
                 (A) (A) (A) (A) (A) (A) (A) (A) (A) (A) (A) (A)
                 (A) (A) (A) (A) (A) (A) (A) (A) (A) (A) (A) (A)
                 (A) (A) (A) (A) (A) (A) (A) (A) (A) (A) (A) (A)
                 (A) (A) (A) (A) (A) (A) (A) (A) (A) (A) (A) (A)
                 (A) (A) (A) (A) (A) (A) (A) (A) (A) (A) (A) (A)
                 (A) (A) (A) (A) (A) (A) (A) (A) (A) (A) (A) (A)
                 (A) (A) (A) (A) (A) (A) (A) (A) (A) (A) (A) (A)
                 (A) (A) (A) (A) (A) (A) (A) (A) (A) (A) (A) (A)
                 (A) (A) (A) (A) (A) (A) (A) (A) (A) (A) (A) (A)
                 (A) (A) (A) (A) (A) (A) (A) (A) (A) (A) (A) (A)
                 (A) (A) (A) (A) (A) (A) (A) (A) (A) (A) (A) (A)
                 (A) (A) (A) (A) (A) (A) (A) (A) (A) (A) (A) (A)
                 (A) (A) (A) (A) (A) (A) (A) (A) (A) (A) (A) (A)
                 (A) (A) (A) (A) (A) (A) (A) (A) (A) (A) (A) (A)
                 (A) (A) (A) (A) (A) (A) (A) (A) (A) (A) (A) (A)
                 (A) (A) (A) (A) (A) (A) (A) (A) (A) (A) (A) (A)
                 (A) (A) (A) (A) (A) (A) (A) (A) (A) (A) (A) (A)
                 (A) (A) (A) (A) (A) (A) (A) (A) (A) (A) (A) (A)
                 (A) (A) (A) (A) (A) (A) (A) (A) (A) (A) (A) (A)
                 (A) (A) (A) (A) (A) (A) (A) (A) (A) (A) (A) (A)
                 (A) (A) (A) (A) (A) (A) (A) (A) (A) (A) (A) (A)
                 (A) (A) (A) (A) (A) (A) (A) (A) (A) (A) (A) (A)
                 (A) (A) (A) (A) (A) (A) (A) (A) (A) (A) (A) (A)
                 (A) (A) (A) (A) (A) (A) (A) (A) (A) (A) (A) (A)
                 (A) (A) (A) (A) (A) (A) (A) (A) (A) (A) (A) (A)
                 (A) (A) (A) (A) (A) (A) (A) (A) (A) (A) (A) (A)
                 (A) (A) (A) (A) (A) (A) (A) (A) (A) (A) (A) (A)
                 (A) (A) (A) (A) (A) (A) (A) (A) (A) (A) (A) (A)
                 (A) (A) (A) (A) (A) (A) (A) (A) (A) (A) (A) (A)
                 (A) (A) (A) (A) (A) (A) (A) (A) (A) (A) (A) (A)
                 (A) (A) (A) (A) (A) (A) (A) (A) (A) (A) (A) (A)
                 (A) (A) (A) (A) (A) (A) (A) (A) (A) (A) (A) (A)
                 (A) (A) (A) (A) (A) (A) (A) (A) (A) (A) (A) (A)
                 (A) (A) (A) (A) (A) (A) (A) (A) (A) (A) (A) (A)
                 (A) (A) (A) (A) (A) (A) (A) (A) (A) (A) (A) (A)
                 (A) (A) (A) (A) (A) (A) (A) (A) (A) (A) (A) (A)
                 (A) (A) (A) (A) (A) (A) (A) (A) (A) (A) (A) (A)
                 (A) (A) (A) (A) (A) (A) (A) (A) (A) (A) (A) (A)
                 (A) (A) (A) (A) (A) (A) (A) (A) (A) (A) (A) (A)
                 (A) (A) (A) (A) (A) (A) (A) (A) (A) (A) (A) (A)
                 (A) (A) (A) (A) (A) (A) (A) (A) (A) (A) (A) (A)
                 (A) (A) (A) (A) (A) (A) (A) (A) (A) (A) (A) (A)
                 (A) (A) (A) (A) (A) (A) (A) (A) (A) (A) (A) (A)
                 (A) (A) (A) (A) (A) (A) (A) (A) (A) (A) (A) (A)
                 (A) (A) (A) (A) (A) (A) (A) (A) (A) (A) (A) (A)
                 (A) (A) (A) (A) (A) (A) (A) (A) (A) (A) (A) (A)
                 (A) (A) (A) (A) (A) (A) (A) (A) (A) (A) (A) (A)
                 (A) (A) (A) (A) (A) (A) (A) (A) (A) (A) (A) (A)
                 (A) (A) (A) (A) (A) (A) (A) (A) (A) (A) (A) (A)
                 (A) (A) (A) (A) (A) (A) (A) (A) (A) (A) (A) (A)
                 (A) (A) (A) (A) (A) (A) (A) (A) (A) (A) (A) (A)
                 (A) (A) (A) (A) (A) (A) (A) (A) (A) (A) (A) (A)
                 (A) (A) (A) (A) (A) (A) (A) (A) (A) (A) (A) (A)
                 (A) (A) (A) (A) (A) (A) (A) (A) (A) (A) (A) (A)
                 (A) (A) (A) (A) (A) (A) (A) (A) (A) (A) (A) (A)
                 (A) (A) (A) (A) (A) (A) (A) (A) (A) (A) (A) (A)
                 (A) (A) (A) (A) (A) (A) (A) (A) (A) (A) (A) (A)
                 (A) (A) (A) (A) (A) (A) (A) (A) (A) (A) (A) (A)
                 (A) (A) (A) (A) (A) (A) (A) (A) (A) (A) (A) (A)
                 (A) (A) (A) (A) (A) (A) (A) (A) (A) (A) (A) (A)
                 (A) (A) (A) (A) (A) (A) (A) (A) (A) (A) (A) (A)
                 (A) (A) (A) (A) (A) (A) (A) (A) (A) (A) (A) (A)
                 (A) (A) (A) (A) (A) (A) (A) (A) (A) (A) (A) (A)
                 (A) (A) (A) (A) (A) (A) (A) (A) (A) (A) (A) (A)
                 (A) (A) (A) (A) (A) (A) (A) (A) (A) (A) (A) (A)
                 (A) (A) (A) (A) (A) (A) (A) (A) (A) (A) (A) (A)
                 (A) (A) (A) (A) (A) (A) (A) (A) (A) (A) (A) (A)
                 (A) (A) (A) (A) (A) (A) (A) (A) (A) (A) (A) (A)
                 (A) (A) (A) (A) (A) (A) (A) (A) (A) (A) (A) (A)
                 (A) (A) (A) (A) (A) (A) (A) (A) (A) (A) (A) (A)
                 (A) (A) (A) (A) (A) (A) (A) (A) (A) (A) (A) (A)
                 (A) (A) (A) (A) (A) (A) (A) (A) (A) (A) (A) (A)
                 (A) (A) (A) (A) (A) (A) (A) (A) (A) (A) (A) (A)
                 (A) (A) (A) (A) (A) (A) (A) (A) (A) (A) (A) (A)
                 (A) (A) (A) (A) (A) (A) (A) (A) (A) (A) (A) (A)
                 (A) (A) (A) (A) (A) (A) (A) (A) (A) (A) (A) (A)
                 (A) (A) (A) (A) (A) (A) (A) (A) (A) (A) (A) (A)
                 (A) (A) (A) (A) (A) (A) (A) (A) (A) (A) (A) (A)
                 (A) (A) (A) (A) (A) (A) (A) (A) (A) (A) (A) (A)
                 (A) (A) (A) (A) (A) (A) (A) (A) (A) (A) (A) (A)
                 (A) (A) (A) (A) (A) (A) (A) (A) (A) (A) (A) (A)
                 (A) (A) (A) (A) (A) (A) (A) (A) (A) (A) (A) (A)
                 (A) (A) (A) (A) (A) (A) (A) (A) (A) (A) (A) (A)
                 (A) (A) (A) (A) (A) (A) (A) (A) (A) (A) (A) (A)
                 (A) (A) (A) (A) (A) (A) (A) (A) (A) (A) (A) (A)
                 (A) (A) (A) (A) (A) (A) (A) (A) (A) (A) (A) (A)
                 (A) (A) (A) (A) (A) (A) (A) (A) (A) (A) (A) (A)
                 (A) (A) (A) (A) (A) (A) (A) (A) (A) (A) (A) (A)
                 (A) (A) (A) (A) (A) (A) (A) (A) (A) (A) (A) (A)
                 (A) (A) (A) (A) (A) (A) (A) (A) (A) (A) (A) (A)
                 (A) (A) (A) (A) (A) (A) (A) (A) (A) (A) (A) (A)
                 (A) (A) (A) (A) (A) (A) (A) (A) (A) (A) (A) (A)
                 (A) (A) (A) (A) (A) (A) (A) (A) (A) (A) (A) (A)
                 (A) (A) (A) (A) (A) (A) (A) (A) (A) (A) (A) (A)
                 (A) (A) (A) (A) (A) (A) (A) (A) (A) (A) (A) (A)
                 (A) (A) (A) (A) (A) (A) (A) (A) (A) (A) (A) (A)
                 (A) (A) (A) (A) (A) (A) (A) (A) (A) (A) (A) (A)
                 (A) (A) (A) (A) (A) (A) (A) (A) (A) (A) (A) (A)
                 (A) (A) (A) (A) (A) (A) (A) (A) (A) (A) (A) (A)
                 (A) (A) (A) (A) (A) (A) (A) (A) (A) (A) (A) (A)
                 (A) (A) (A) (A) (A) (A) (A) (A) (A) (A) (A) (A)
                 (A) (A) (A) (A) (A) (A) (A) (A) (A) (A) (A) (A)
                 (A) (A) (A) (A) (A) (A) (A) (A) (A) (A) (A) (A)
                 (A) (A) (A) (A) (A) (A) (A) (A) (A) (A) (A) (A)
                 (A) (A) (A) (A) (A) (A) (A) (A) (A) (A) (A) (A)
                 (A) (A) (A) (A) (A) (A) (A) (A) (A) (A) (A) (A)
                 (A) (A) (A) (A) (A) (A) (A) (A) (A) (A) (A) (A)
                 (A) (A) (A) (A) (A) (A) (A) (A) (A) (A) (A) (A)
                 (A) (A) (A) (A) (A) (A) (A) (A) (A) (A) (A) (A)
                 (A) (A) (A) (A) (A) (A) (A) (A) (A) (A) (A) (A)
                 (A) (A) (A) (A) (A) (A) (A) (A) (A) (A) (A) (A)
                 (A) (A) (A) (A) (A) (A) (A) (A) (A) (A) (A) (A)
                 (A) (A) (A) (A) (A) (A) (A) (A) (A) (A) (A) (A)
                 (A) (A) (A) (A) (A) (A) (A) (A) (A) (A) (A) (A)
                 (A) (A) (A) (A) (A) (A) (A) (A) (A) (A) (A) (A)
                 (A) (A) (A) (A) (A) (A) (A) (A) (A) (A) (A) (A)
                 (A) (A) (A) (A) (A) (A) (A) (A) (A) (A) (A) (A)
                 (A) (A) (A) (A) (A) (A) (A) (A) (A) (A) (A) (A)
                 (A) (A) (A) (A) (A) (A) (A) (A) (A) (A) (A) (A)
                 (A) (A) (A) (A) (A) (A) (A) (A) (A) (A) (A) (A)
                 (A) (A) (A) (A) (A) (A) (A) (A) (A) (A) (A) (A)
                 (A) (A) (A) (A) (A) (A) (A) (A) (A) (A) (A) (A)
                 (A) (A) (A) (A) (A) (A) (A) (A) (A) (A) (A) (A)
                 (A) (A) (A) (A) (A) (A) (A) (A) (A) (A) (A) (A)
                 (A) (A) (A) (A) (A) (A) (A) (A) (A) (A) (A) (A)
                 (A) (A) (A) (A) (A) (A) (A) (A) (A) (A) (A) (A)
                 (A) (A) (A) (A) (A) (A) (A) (A) (A) (A) (A) (A)
                 (A) (A) (A) (A) (A) (A) (A) (A)
 The electronic state is 1-A.
 Alpha  occ. eigenvalues -- -256.30140 -30.06886 -25.89649 -25.89460 -25.89274
 Alpha  occ. eigenvalues --  -19.25641 -19.24493 -19.24338 -19.16938 -19.16663
 Alpha  occ. eigenvalues --  -14.44628 -14.38456 -14.36293 -14.36054 -14.35615
 Alpha  occ. eigenvalues --  -14.35159 -10.34427 -10.33554 -10.26918 -10.25704
 Alpha  occ. eigenvalues --  -10.24134 -10.23688 -10.23632 -10.23621 -10.23522
 Alpha  occ. eigenvalues --  -10.23269 -10.23162 -10.23130 -10.23110 -10.23062
 Alpha  occ. eigenvalues --  -10.23060 -10.23006 -10.22680 -10.22634 -10.22611
 Alpha  occ. eigenvalues --  -10.22428 -10.22316 -10.22100 -10.22039 -10.21808
 Alpha  occ. eigenvalues --  -10.21738 -10.21699 -10.21612 -10.21577 -10.21486
 Alpha  occ. eigenvalues --  -10.21460 -10.21388 -10.21384 -10.21342 -10.21187
 Alpha  occ. eigenvalues --  -10.21097 -10.21073 -10.21012 -10.20854  -3.41745
 Alpha  occ. eigenvalues --   -2.17789  -2.17220  -2.16889  -1.18436  -1.17557
 Alpha  occ. eigenvalues --   -1.08722  -1.08172  -1.02963  -1.02807  -0.99757
 Alpha  occ. eigenvalues --   -0.98993  -0.98664  -0.97997  -0.92866  -0.84285
 Alpha  occ. eigenvalues --   -0.83324  -0.82652  -0.82550  -0.82108  -0.81170
 Alpha  occ. eigenvalues --   -0.80973  -0.80953  -0.79115  -0.78483  -0.76902
 Alpha  occ. eigenvalues --   -0.75448  -0.74975  -0.73795  -0.72820  -0.72454
 Alpha  occ. eigenvalues --   -0.71721  -0.71171  -0.70117  -0.69729  -0.69348
 Alpha  occ. eigenvalues --   -0.66647  -0.66493  -0.66166  -0.65435  -0.65071
 Alpha  occ. eigenvalues --   -0.62913  -0.62632  -0.61727  -0.59611  -0.58815
 Alpha  occ. eigenvalues --   -0.58306  -0.57028  -0.56387  -0.55136  -0.54423
 Alpha  occ. eigenvalues --   -0.53541  -0.52644  -0.52421  -0.52390  -0.52042
 Alpha  occ. eigenvalues --   -0.51620  -0.50912  -0.50619  -0.50061  -0.49544
 Alpha  occ. eigenvalues --   -0.49294  -0.49177  -0.48360  -0.48174  -0.47883
 Alpha  occ. eigenvalues --   -0.47160  -0.46367  -0.45980  -0.45547  -0.45223
 Alpha  occ. eigenvalues --   -0.44888  -0.44604  -0.44342  -0.44285  -0.43884
 Alpha  occ. eigenvalues --   -0.43808  -0.43630  -0.43476  -0.43054  -0.42916
 Alpha  occ. eigenvalues --   -0.42703  -0.42444  -0.42361  -0.42034  -0.41710
 Alpha  occ. eigenvalues --   -0.41624  -0.41214  -0.41133  -0.40698  -0.40472
 Alpha  occ. eigenvalues --   -0.40227  -0.39753  -0.39196  -0.38791  -0.38636
 Alpha  occ. eigenvalues --   -0.38468  -0.38284  -0.38156  -0.37616  -0.37423
 Alpha  occ. eigenvalues --   -0.37208  -0.36524  -0.36474  -0.36130  -0.35968
 Alpha  occ. eigenvalues --   -0.35407  -0.35239  -0.35059  -0.33882  -0.33250
 Alpha  occ. eigenvalues --   -0.32897  -0.32685  -0.32500  -0.32301  -0.31058
 Alpha  occ. eigenvalues --   -0.30117  -0.29455  -0.29313  -0.28683  -0.27397
 Alpha  occ. eigenvalues --   -0.27142  -0.26987  -0.26839  -0.24379  -0.23458
 Alpha  occ. eigenvalues --   -0.23218  -0.21714  -0.20451  -0.19832  -0.18895
 Alpha  occ. eigenvalues --   -0.18519  -0.18336  -0.17778
 Alpha virt. eigenvalues --   -0.08193  -0.07934  -0.04765  -0.02504  -0.00185
 Alpha virt. eigenvalues --    0.00024   0.00551   0.00650   0.02654   0.03188
 Alpha virt. eigenvalues --    0.03736   0.04109   0.04542   0.04773   0.04992
 Alpha virt. eigenvalues --    0.05291   0.05790   0.05996   0.06119   0.06382
 Alpha virt. eigenvalues --    0.06864   0.07022   0.07747   0.08030   0.08264
 Alpha virt. eigenvalues --    0.08542   0.08653   0.09102   0.09230   0.09580
 Alpha virt. eigenvalues --    0.09802   0.09929   0.10438   0.10946   0.11038
 Alpha virt. eigenvalues --    0.11542   0.11557   0.11650   0.12234   0.12366
 Alpha virt. eigenvalues --    0.12513   0.12886   0.12978   0.13400   0.13597
 Alpha virt. eigenvalues --    0.13673   0.13835   0.14043   0.14532   0.14664
 Alpha virt. eigenvalues --    0.14690   0.14954   0.15153   0.15314   0.15414
 Alpha virt. eigenvalues --    0.16036   0.16178   0.16210   0.16690   0.16735
 Alpha virt. eigenvalues --    0.16963   0.17150   0.17519   0.17794   0.17984
 Alpha virt. eigenvalues --    0.18423   0.18475   0.18829   0.19073   0.19503
 Alpha virt. eigenvalues --    0.19743   0.19900   0.20040   0.20186   0.20435
 Alpha virt. eigenvalues --    0.20642   0.20886   0.21048   0.21305   0.21553
 Alpha virt. eigenvalues --    0.21948   0.22111   0.22351   0.22387   0.22585
 Alpha virt. eigenvalues --    0.22688   0.22966   0.23240   0.23575   0.23716
 Alpha virt. eigenvalues --    0.23857   0.24129   0.24238   0.24652   0.25027
 Alpha virt. eigenvalues --    0.25234   0.25383   0.25618   0.25819   0.25999
 Alpha virt. eigenvalues --    0.26085   0.26428   0.26645   0.27110   0.27508
 Alpha virt. eigenvalues --    0.27611   0.27781   0.27901   0.28032   0.28201
 Alpha virt. eigenvalues --    0.28411   0.28631   0.28740   0.29270   0.29398
 Alpha virt. eigenvalues --    0.29511   0.29641   0.30180   0.30407   0.30613
 Alpha virt. eigenvalues --    0.30775   0.31109   0.31151   0.31307   0.31676
 Alpha virt. eigenvalues --    0.32015   0.32180   0.32376   0.32962   0.33104
 Alpha virt. eigenvalues --    0.33315   0.33741   0.33990   0.34157   0.34534
 Alpha virt. eigenvalues --    0.34691   0.34963   0.35296   0.35628   0.35812
 Alpha virt. eigenvalues --    0.35932   0.36394   0.36464   0.36681   0.36913
 Alpha virt. eigenvalues --    0.37144   0.37352   0.37760   0.38127   0.38361
 Alpha virt. eigenvalues --    0.38645   0.38756   0.38888   0.39020   0.39320
 Alpha virt. eigenvalues --    0.39480   0.39690   0.40057   0.40237   0.40387
 Alpha virt. eigenvalues --    0.40461   0.41084   0.41171   0.41205   0.41280
 Alpha virt. eigenvalues --    0.41436   0.41537   0.41707   0.41867   0.42292
 Alpha virt. eigenvalues --    0.42386   0.42430   0.42730   0.43053   0.43383
 Alpha virt. eigenvalues --    0.43453   0.43679   0.43859   0.44074   0.44162
 Alpha virt. eigenvalues --    0.44410   0.44696   0.44761   0.45060   0.45129
 Alpha virt. eigenvalues --    0.45464   0.45517   0.45723   0.45803   0.45885
 Alpha virt. eigenvalues --    0.46173   0.46502   0.46914   0.46968   0.46997
 Alpha virt. eigenvalues --    0.47206   0.47427   0.47600   0.47714   0.47834
 Alpha virt. eigenvalues --    0.48388   0.48407   0.48621   0.48850   0.48983
 Alpha virt. eigenvalues --    0.49367   0.49452   0.49685   0.49725   0.49930
 Alpha virt. eigenvalues --    0.49988   0.50291   0.50452   0.50864   0.51175
 Alpha virt. eigenvalues --    0.51353   0.51604   0.51665   0.51776   0.51869
 Alpha virt. eigenvalues --    0.52142   0.52339   0.52481   0.52630   0.52791
 Alpha virt. eigenvalues --    0.52848   0.53223   0.53382   0.53492   0.53931
 Alpha virt. eigenvalues --    0.54044   0.54337   0.54552   0.54735   0.54757
 Alpha virt. eigenvalues --    0.54934   0.55211   0.55321   0.55752   0.55779
 Alpha virt. eigenvalues --    0.56121   0.56303   0.56471   0.56731   0.56948
 Alpha virt. eigenvalues --    0.57052   0.57434   0.57836   0.57939   0.58159
 Alpha virt. eigenvalues --    0.58565   0.58778   0.58876   0.59332   0.59412
 Alpha virt. eigenvalues --    0.59529   0.59786   0.60042   0.60248   0.60516
 Alpha virt. eigenvalues --    0.60811   0.61075   0.61154   0.61383   0.61974
 Alpha virt. eigenvalues --    0.62193   0.62543   0.62788   0.63072   0.63447
 Alpha virt. eigenvalues --    0.63668   0.63755   0.63878   0.64149   0.64447
 Alpha virt. eigenvalues --    0.64893   0.65129   0.65527   0.65690   0.65895
 Alpha virt. eigenvalues --    0.66189   0.66314   0.66630   0.66912   0.67209
 Alpha virt. eigenvalues --    0.67350   0.67689   0.68110   0.68374   0.68454
 Alpha virt. eigenvalues --    0.68710   0.69042   0.69434   0.69598   0.69777
 Alpha virt. eigenvalues --    0.69993   0.70409   0.70656   0.70882   0.71297
 Alpha virt. eigenvalues --    0.71694   0.71718   0.72102   0.72382   0.72514
 Alpha virt. eigenvalues --    0.72635   0.73197   0.73480   0.73607   0.73967
 Alpha virt. eigenvalues --    0.74115   0.74504   0.75110   0.75292   0.75739
 Alpha virt. eigenvalues --    0.76233   0.76374   0.76435   0.76805   0.76893
 Alpha virt. eigenvalues --    0.77429   0.77536   0.77847   0.78019   0.78209
 Alpha virt. eigenvalues --    0.78422   0.79105   0.79285   0.79342   0.79710
 Alpha virt. eigenvalues --    0.80025   0.80270   0.80424   0.80777   0.81056
 Alpha virt. eigenvalues --    0.81534   0.81781   0.81935   0.82343   0.82760
 Alpha virt. eigenvalues --    0.82996   0.83233   0.83574   0.83724   0.84059
 Alpha virt. eigenvalues --    0.84346   0.84544   0.85024   0.85284   0.85930
 Alpha virt. eigenvalues --    0.86177   0.86465   0.86532   0.87167   0.87509
 Alpha virt. eigenvalues --    0.87794   0.88132   0.88478   0.88905   0.89026
 Alpha virt. eigenvalues --    0.89209   0.89601   0.90155   0.90324   0.90590
 Alpha virt. eigenvalues --    0.90914   0.91312   0.91767   0.92104   0.92524
 Alpha virt. eigenvalues --    0.92824   0.93032   0.93460   0.93722   0.93973
 Alpha virt. eigenvalues --    0.94357   0.94664   0.94748   0.95503   0.95592
 Alpha virt. eigenvalues --    0.96035   0.96274   0.96520   0.96983   0.97165
 Alpha virt. eigenvalues --    0.97549   0.97796   0.98268   0.98568   0.98844
 Alpha virt. eigenvalues --    0.98969   0.99436   0.99868   1.00180   1.00267
 Alpha virt. eigenvalues --    1.00775   1.00990   1.01169   1.01567   1.01780
 Alpha virt. eigenvalues --    1.01917   1.02184   1.02244   1.02796   1.03083
 Alpha virt. eigenvalues --    1.03512   1.03756   1.03904   1.04141   1.04559
 Alpha virt. eigenvalues --    1.04861   1.05263   1.05409   1.05607   1.06238
 Alpha virt. eigenvalues --    1.06354   1.06575   1.07358   1.07491   1.07725
 Alpha virt. eigenvalues --    1.08132   1.08620   1.08884   1.09160   1.09470
 Alpha virt. eigenvalues --    1.09746   1.09825   1.10301   1.10469   1.11254
 Alpha virt. eigenvalues --    1.11440   1.11730   1.12094   1.12224   1.12517
 Alpha virt. eigenvalues --    1.12887   1.12981   1.13732   1.14045   1.14371
 Alpha virt. eigenvalues --    1.14965   1.15170   1.15252   1.15580   1.16088
 Alpha virt. eigenvalues --    1.16490   1.16672   1.16954   1.17529   1.17570
 Alpha virt. eigenvalues --    1.18376   1.18896   1.19047   1.19548   1.19783
 Alpha virt. eigenvalues --    1.20344   1.20743   1.21211   1.21423   1.22193
 Alpha virt. eigenvalues --    1.22416   1.23112   1.23473   1.23546   1.24151
 Alpha virt. eigenvalues --    1.24184   1.24600   1.24953   1.25393   1.25851
 Alpha virt. eigenvalues --    1.26163   1.26431   1.26850   1.27320   1.27531
 Alpha virt. eigenvalues --    1.28141   1.28669   1.28962   1.29158   1.29632
 Alpha virt. eigenvalues --    1.29898   1.30299   1.30366   1.31513   1.31633
 Alpha virt. eigenvalues --    1.32263   1.32287   1.32586   1.33116   1.33691
 Alpha virt. eigenvalues --    1.34376   1.34740   1.35301   1.35357   1.35704
 Alpha virt. eigenvalues --    1.36171   1.36446   1.36841   1.37295   1.37635
 Alpha virt. eigenvalues --    1.37893   1.38081   1.38437   1.39183   1.39788
 Alpha virt. eigenvalues --    1.40233   1.40289   1.40767   1.40895   1.41547
 Alpha virt. eigenvalues --    1.42609   1.42966   1.43017   1.43521   1.43555
 Alpha virt. eigenvalues --    1.44275   1.44593   1.44818   1.45214   1.45338
 Alpha virt. eigenvalues --    1.45817   1.46171   1.46516   1.46749   1.47228
 Alpha virt. eigenvalues --    1.47461   1.47762   1.48319   1.48375   1.48640
 Alpha virt. eigenvalues --    1.48933   1.49335   1.49514   1.49822   1.50087
 Alpha virt. eigenvalues --    1.50397   1.50701   1.50846   1.51264   1.51380
 Alpha virt. eigenvalues --    1.52209   1.52428   1.52679   1.52805   1.53011
 Alpha virt. eigenvalues --    1.53366   1.53494   1.53988   1.54064   1.54513
 Alpha virt. eigenvalues --    1.54556   1.55103   1.55223   1.55788   1.55846
 Alpha virt. eigenvalues --    1.56226   1.56412   1.56848   1.57127   1.57163
 Alpha virt. eigenvalues --    1.57451   1.57683   1.57939   1.58326   1.58471
 Alpha virt. eigenvalues --    1.59315   1.59451   1.59731   1.60337   1.60481
 Alpha virt. eigenvalues --    1.60787   1.61000   1.61409   1.61450   1.61757
 Alpha virt. eigenvalues --    1.61912   1.62096   1.62513   1.62859   1.63002
 Alpha virt. eigenvalues --    1.63175   1.63357   1.63696   1.63864   1.63921
 Alpha virt. eigenvalues --    1.64133   1.64471   1.64740   1.65034   1.65305
 Alpha virt. eigenvalues --    1.65777   1.66184   1.66310   1.66562   1.66876
 Alpha virt. eigenvalues --    1.67625   1.67702   1.67942   1.68176   1.68562
 Alpha virt. eigenvalues --    1.69326   1.69546   1.70041   1.70293   1.70522
 Alpha virt. eigenvalues --    1.70831   1.71041   1.71200   1.71596   1.72265
 Alpha virt. eigenvalues --    1.72478   1.72654   1.73055   1.73402   1.73558
 Alpha virt. eigenvalues --    1.73827   1.73941   1.74442   1.75166   1.75468
 Alpha virt. eigenvalues --    1.75713   1.75841   1.76351   1.76438   1.76836
 Alpha virt. eigenvalues --    1.77573   1.78269   1.78580   1.79314   1.79666
 Alpha virt. eigenvalues --    1.79968   1.80350   1.80702   1.81051   1.81648
 Alpha virt. eigenvalues --    1.81909   1.82589   1.83031   1.83354   1.83608
 Alpha virt. eigenvalues --    1.83832   1.84068   1.84443   1.84817   1.85264
 Alpha virt. eigenvalues --    1.85800   1.86040   1.86223   1.86476   1.87042
 Alpha virt. eigenvalues --    1.87587   1.88283   1.88447   1.88609   1.89225
 Alpha virt. eigenvalues --    1.89367   1.89522   1.89860   1.90459   1.91000
 Alpha virt. eigenvalues --    1.91104   1.91597   1.91857   1.92367   1.92468
 Alpha virt. eigenvalues --    1.93217   1.93302   1.93493   1.94241   1.94440
 Alpha virt. eigenvalues --    1.94925   1.94996   1.95503   1.95809   1.96057
 Alpha virt. eigenvalues --    1.96497   1.97277   1.97506   1.97788   1.98242
 Alpha virt. eigenvalues --    1.98508   1.99011   1.99095   1.99187   1.99518
 Alpha virt. eigenvalues --    2.00200   2.00737   2.01014   2.01514   2.01846
 Alpha virt. eigenvalues --    2.02377   2.02483   2.02644   2.02826   2.03460
 Alpha virt. eigenvalues --    2.03792   2.04099   2.04354   2.05007   2.05364
 Alpha virt. eigenvalues --    2.05695   2.05790   2.06032   2.06360   2.06971
 Alpha virt. eigenvalues --    2.07061   2.07508   2.07850   2.08181   2.08664
 Alpha virt. eigenvalues --    2.09124   2.09229   2.09683   2.09989   2.10608
 Alpha virt. eigenvalues --    2.10679   2.11154   2.12125   2.12421   2.12912
 Alpha virt. eigenvalues --    2.13246   2.13824   2.14880   2.15056   2.15427
 Alpha virt. eigenvalues --    2.15523   2.15770   2.16049   2.16953   2.17075
 Alpha virt. eigenvalues --    2.17374   2.17607   2.17823   2.18272   2.18375
 Alpha virt. eigenvalues --    2.18986   2.19629   2.19854   2.20156   2.20489
 Alpha virt. eigenvalues --    2.20858   2.21435   2.21795   2.22325   2.22869
 Alpha virt. eigenvalues --    2.22957   2.23261   2.23471   2.23900   2.24316
 Alpha virt. eigenvalues --    2.24983   2.25600   2.25860   2.26076   2.26638
 Alpha virt. eigenvalues --    2.26962   2.27260   2.27436   2.28075   2.28575
 Alpha virt. eigenvalues --    2.28822   2.29378   2.29621   2.30056   2.30522
 Alpha virt. eigenvalues --    2.31395   2.31593   2.32229   2.32392   2.33294
 Alpha virt. eigenvalues --    2.33584   2.33941   2.34072   2.34420   2.35040
 Alpha virt. eigenvalues --    2.35358   2.35589   2.36045   2.36347   2.37010
 Alpha virt. eigenvalues --    2.37329   2.37444   2.38211   2.38813   2.39434
 Alpha virt. eigenvalues --    2.39698   2.39994   2.40104   2.40308   2.41027
 Alpha virt. eigenvalues --    2.41368   2.41697   2.41942   2.42401   2.43058
 Alpha virt. eigenvalues --    2.43362   2.43852   2.44322   2.45107   2.45268
 Alpha virt. eigenvalues --    2.45648   2.46218   2.46406   2.46474   2.46712
 Alpha virt. eigenvalues --    2.47464   2.47604   2.47965   2.48503   2.48941
 Alpha virt. eigenvalues --    2.49529   2.49948   2.50152   2.50823   2.50878
 Alpha virt. eigenvalues --    2.51497   2.51777   2.52302   2.52834   2.52956
 Alpha virt. eigenvalues --    2.53343   2.53799   2.54112   2.54362   2.54745
 Alpha virt. eigenvalues --    2.55069   2.55805   2.55941   2.56240   2.56400
 Alpha virt. eigenvalues --    2.56543   2.57081   2.57365   2.57879   2.57979
 Alpha virt. eigenvalues --    2.58263   2.58723   2.59055   2.59213   2.59859
 Alpha virt. eigenvalues --    2.59867   2.60007   2.60202   2.60632   2.61022
 Alpha virt. eigenvalues --    2.61340   2.61475   2.62444   2.62551   2.62779
 Alpha virt. eigenvalues --    2.63131   2.63179   2.63396   2.63740   2.64169
 Alpha virt. eigenvalues --    2.64502   2.64823   2.65237   2.65756   2.65907
 Alpha virt. eigenvalues --    2.66458   2.66808   2.67078   2.67679   2.67792
 Alpha virt. eigenvalues --    2.68035   2.68508   2.68769   2.69293   2.69466
 Alpha virt. eigenvalues --    2.69560   2.69987   2.70268   2.70568   2.70817
 Alpha virt. eigenvalues --    2.71534   2.71582   2.71838   2.72641   2.72856
 Alpha virt. eigenvalues --    2.73425   2.73576   2.73675   2.73906   2.74442
 Alpha virt. eigenvalues --    2.74807   2.75095   2.75301   2.75646   2.75765
 Alpha virt. eigenvalues --    2.76658   2.77081   2.77414   2.78003   2.78201
 Alpha virt. eigenvalues --    2.78806   2.79488   2.79728   2.80382   2.80569
 Alpha virt. eigenvalues --    2.80884   2.81190   2.81533   2.81962   2.82524
 Alpha virt. eigenvalues --    2.82956   2.82972   2.83314   2.83545   2.83989
 Alpha virt. eigenvalues --    2.84561   2.84786   2.85123   2.85567   2.85970
 Alpha virt. eigenvalues --    2.86193   2.86468   2.86765   2.87278   2.87433
 Alpha virt. eigenvalues --    2.87952   2.88117   2.88831   2.89323   2.89756
 Alpha virt. eigenvalues --    2.89942   2.90053   2.90712   2.90769   2.91368
 Alpha virt. eigenvalues --    2.91669   2.91937   2.92555   2.92651   2.92745
 Alpha virt. eigenvalues --    2.92836   2.93402   2.93450   2.94188   2.94271
 Alpha virt. eigenvalues --    2.94685   2.94883   2.95308   2.95720   2.95833
 Alpha virt. eigenvalues --    2.96217   2.96921   2.97393   2.97451   2.97915
 Alpha virt. eigenvalues --    2.98094   2.98385   2.98441   2.98816   2.99120
 Alpha virt. eigenvalues --    2.99828   3.00259   3.00442   3.00616   3.00940
 Alpha virt. eigenvalues --    3.01238   3.01367   3.01472   3.02044   3.02434
 Alpha virt. eigenvalues --    3.02589   3.02735   3.03662   3.03934   3.03986
 Alpha virt. eigenvalues --    3.04040   3.04893   3.05053   3.05317   3.05691
 Alpha virt. eigenvalues --    3.06166   3.06327   3.06759   3.06869   3.07225
 Alpha virt. eigenvalues --    3.07620   3.08147   3.08337   3.08867   3.08995
 Alpha virt. eigenvalues --    3.09322   3.09645   3.10057   3.10222   3.10479
 Alpha virt. eigenvalues --    3.10941   3.11313   3.11462   3.11578   3.12109
 Alpha virt. eigenvalues --    3.12191   3.12761   3.13110   3.13160   3.13490
 Alpha virt. eigenvalues --    3.13650   3.14042   3.14344   3.14523   3.14891
 Alpha virt. eigenvalues --    3.15277   3.15695   3.15786   3.16094   3.16375
 Alpha virt. eigenvalues --    3.16504   3.16967   3.17079   3.17336   3.17533
 Alpha virt. eigenvalues --    3.18162   3.18333   3.18571   3.18989   3.19130
 Alpha virt. eigenvalues --    3.19520   3.19628   3.19861   3.20063   3.20206
 Alpha virt. eigenvalues --    3.20668   3.21076   3.21119   3.21571   3.21738
 Alpha virt. eigenvalues --    3.22002   3.22404   3.22747   3.23058   3.23449
 Alpha virt. eigenvalues --    3.23736   3.23979   3.24128   3.24280   3.24496
 Alpha virt. eigenvalues --    3.24919   3.25221   3.25568   3.25865   3.25959
 Alpha virt. eigenvalues --    3.26590   3.26601   3.26871   3.27312   3.27563
 Alpha virt. eigenvalues --    3.27844   3.28503   3.28535   3.28690   3.29097
 Alpha virt. eigenvalues --    3.29446   3.29840   3.30091   3.30107   3.30384
 Alpha virt. eigenvalues --    3.30730   3.31069   3.31290   3.31571   3.31638
 Alpha virt. eigenvalues --    3.32066   3.32144   3.32652   3.33030   3.33270
 Alpha virt. eigenvalues --    3.33465   3.33935   3.34018   3.34212   3.34428
 Alpha virt. eigenvalues --    3.34727   3.34950   3.35209   3.35512   3.35777
 Alpha virt. eigenvalues --    3.36218   3.36418   3.36848   3.37104   3.37339
 Alpha virt. eigenvalues --    3.37603   3.37713   3.37753   3.38048   3.38197
 Alpha virt. eigenvalues --    3.38549   3.38604   3.38778   3.39349   3.39622
 Alpha virt. eigenvalues --    3.39756   3.39964   3.40010   3.40536   3.40657
 Alpha virt. eigenvalues --    3.40983   3.41355   3.41387   3.42061   3.42264
 Alpha virt. eigenvalues --    3.42366   3.42778   3.43335   3.43638   3.43925
 Alpha virt. eigenvalues --    3.44386   3.44438   3.45002   3.45341   3.45962
 Alpha virt. eigenvalues --    3.46086   3.46464   3.46754   3.47387   3.47562
 Alpha virt. eigenvalues --    3.48133   3.48224   3.48634   3.48920   3.49103
 Alpha virt. eigenvalues --    3.49505   3.49677   3.49936   3.50357   3.50842
 Alpha virt. eigenvalues --    3.51468   3.51773   3.52075   3.52562   3.52709
 Alpha virt. eigenvalues --    3.53105   3.53443   3.53858   3.54333   3.54481
 Alpha virt. eigenvalues --    3.54946   3.55047   3.55897   3.55970   3.56522
 Alpha virt. eigenvalues --    3.56592   3.57183   3.57652   3.57779   3.58425
 Alpha virt. eigenvalues --    3.58470   3.58937   3.59454   3.59565   3.59949
 Alpha virt. eigenvalues --    3.60538   3.60964   3.61064   3.61838   3.62123
 Alpha virt. eigenvalues --    3.62781   3.63419   3.63581   3.63839   3.64351
 Alpha virt. eigenvalues --    3.64605   3.64920   3.65507   3.65915   3.66020
 Alpha virt. eigenvalues --    3.66801   3.66980   3.67074   3.67799   3.68141
 Alpha virt. eigenvalues --    3.68740   3.69047   3.69088   3.69537   3.69737
 Alpha virt. eigenvalues --    3.70427   3.70618   3.70863   3.71151   3.71660
 Alpha virt. eigenvalues --    3.72024   3.72347   3.72729   3.72935   3.73581
 Alpha virt. eigenvalues --    3.73703   3.73926   3.74260   3.74885   3.75391
 Alpha virt. eigenvalues --    3.75618   3.75847   3.76416   3.76702   3.77059
 Alpha virt. eigenvalues --    3.77723   3.77821   3.78187   3.78432   3.78886
 Alpha virt. eigenvalues --    3.79493   3.80085   3.80380   3.81105   3.81325
 Alpha virt. eigenvalues --    3.81609   3.82374   3.82724   3.83251   3.83876
 Alpha virt. eigenvalues --    3.84325   3.84718   3.85109   3.86056   3.86483
 Alpha virt. eigenvalues --    3.86636   3.87603   3.87745   3.87961   3.88545
 Alpha virt. eigenvalues --    3.89262   3.89845   3.90051   3.90817   3.91456
 Alpha virt. eigenvalues --    3.92110   3.92759   3.93430   3.93552   3.94695
 Alpha virt. eigenvalues --    3.94819   3.95410   3.96075   3.96649   3.97062
 Alpha virt. eigenvalues --    3.97342   3.97421   3.98037   3.98331   3.99276
 Alpha virt. eigenvalues --    3.99428   3.99585   3.99991   4.00804   4.01015
 Alpha virt. eigenvalues --    4.01561   4.01941   4.02819   4.03424   4.03638
 Alpha virt. eigenvalues --    4.03984   4.04764   4.05402   4.06055   4.06701
 Alpha virt. eigenvalues --    4.07011   4.07183   4.08511   4.08810   4.09330
 Alpha virt. eigenvalues --    4.10019   4.10153   4.10563   4.11184   4.12164
 Alpha virt. eigenvalues --    4.12792   4.12937   4.13422   4.14140   4.14600
 Alpha virt. eigenvalues --    4.15184   4.15815   4.16396   4.16552   4.16795
 Alpha virt. eigenvalues --    4.17104   4.17823   4.18531   4.19215   4.19503
 Alpha virt. eigenvalues --    4.19709   4.19914   4.20785   4.21274   4.21522
 Alpha virt. eigenvalues --    4.21910   4.22395   4.22761   4.23624   4.24009
 Alpha virt. eigenvalues --    4.24771   4.24945   4.25604   4.26213   4.26405
 Alpha virt. eigenvalues --    4.27081   4.27674   4.28161   4.28677   4.29605
 Alpha virt. eigenvalues --    4.30597   4.31102   4.31518   4.32135   4.32239
 Alpha virt. eigenvalues --    4.33163   4.33876   4.34109   4.34335   4.35123
 Alpha virt. eigenvalues --    4.35502   4.35952   4.36418   4.36877   4.37474
 Alpha virt. eigenvalues --    4.37777   4.38193   4.38848   4.39781   4.40133
 Alpha virt. eigenvalues --    4.40693   4.41039   4.41355   4.42173   4.43350
 Alpha virt. eigenvalues --    4.43836   4.44087   4.44810   4.45127   4.45342
 Alpha virt. eigenvalues --    4.46147   4.46389   4.46632   4.46772   4.47333
 Alpha virt. eigenvalues --    4.48112   4.48723   4.49768   4.51037   4.51610
 Alpha virt. eigenvalues --    4.52271   4.52412   4.53758   4.54143   4.54185
 Alpha virt. eigenvalues --    4.55481   4.56260   4.56561   4.58043   4.58178
 Alpha virt. eigenvalues --    4.58712   4.59285   4.59793   4.60908   4.61561
 Alpha virt. eigenvalues --    4.62135   4.63609   4.64123   4.65407   4.66441
 Alpha virt. eigenvalues --    4.66628   4.66940   4.67847   4.68264   4.68820
 Alpha virt. eigenvalues --    4.69170   4.69626   4.71019   4.71325   4.72232
 Alpha virt. eigenvalues --    4.73145   4.73733   4.73973   4.74724   4.75029
 Alpha virt. eigenvalues --    4.76028   4.76958   4.78177   4.78229   4.79349
 Alpha virt. eigenvalues --    4.79694   4.79839   4.80725   4.81937   4.83014
 Alpha virt. eigenvalues --    4.83280   4.83639   4.84696   4.85449   4.86657
 Alpha virt. eigenvalues --    4.87054   4.87837   4.88675   4.89249   4.89837
 Alpha virt. eigenvalues --    4.90920   4.91685   4.92854   4.93291   4.94205
 Alpha virt. eigenvalues --    4.94885   4.95399   4.95557   4.97375   4.98282
 Alpha virt. eigenvalues --    4.98934   4.99471   5.00974   5.01366   5.01712
 Alpha virt. eigenvalues --    5.02456   5.03296   5.03795   5.04655   5.05933
 Alpha virt. eigenvalues --    5.06720   5.08238   5.09011   5.09612   5.10173
 Alpha virt. eigenvalues --    5.10713   5.11334   5.11844   5.12801   5.13329
 Alpha virt. eigenvalues --    5.14454   5.15035   5.15760   5.17456   5.17663
 Alpha virt. eigenvalues --    5.18086   5.18609   5.19488   5.19692   5.20213
 Alpha virt. eigenvalues --    5.20690   5.21466   5.22052   5.22120   5.23532
 Alpha virt. eigenvalues --    5.24243   5.24581   5.25104   5.25763   5.26833
 Alpha virt. eigenvalues --    5.27210   5.29150   5.30991   5.31628   5.32002
 Alpha virt. eigenvalues --    5.32299   5.32752   5.33047   5.35506   5.36702
 Alpha virt. eigenvalues --    5.39373   5.40661   5.41000   5.41672   5.42500
 Alpha virt. eigenvalues --    5.42782   5.43602   5.44121   5.45276   5.45495
 Alpha virt. eigenvalues --    5.46899   5.47502   5.48468   5.48913   5.49515
 Alpha virt. eigenvalues --    5.50465   5.51172   5.51851   5.53898   5.55740
 Alpha virt. eigenvalues --    5.55930   5.57318   5.58775   5.60119   5.60301
 Alpha virt. eigenvalues --    5.60924   5.62375   5.62981   5.63696   5.64430
 Alpha virt. eigenvalues --    5.66188   5.67016   5.67762   5.68326   5.69701
 Alpha virt. eigenvalues --    5.71650   5.71889   5.72016   5.73216   5.74531
 Alpha virt. eigenvalues --    5.75435   5.77144   5.79830   5.80562   5.82713
 Alpha virt. eigenvalues --    5.84254   5.86085   5.87674   5.88283   5.88626
 Alpha virt. eigenvalues --    5.89726   5.94332   5.98243   5.98583   6.00092
 Alpha virt. eigenvalues --    6.02783   6.04741   6.05693   6.05967   6.09957
 Alpha virt. eigenvalues --    6.12070   6.13178   6.14927   6.15393   6.16674
 Alpha virt. eigenvalues --    6.18657   6.20811   6.23828   6.26665   6.27029
 Alpha virt. eigenvalues --    6.27537   6.29809   6.34042   6.36718   6.40417
 Alpha virt. eigenvalues --    6.40625   6.42261   6.42553   6.44985   6.45436
 Alpha virt. eigenvalues --    6.49763   6.50672   6.52169   6.53249   6.53767
 Alpha virt. eigenvalues --    6.54722   6.55937   6.59737   6.65424   6.68927
 Alpha virt. eigenvalues --    6.78642   6.83797   6.86220   6.87824   6.88040
 Alpha virt. eigenvalues --    6.98949   7.00455   7.03667   7.04584   7.10649
 Alpha virt. eigenvalues --    7.13248   7.16406   7.17827   7.19707   7.26216
 Alpha virt. eigenvalues --    7.28468   7.34351  22.35761  22.39681  22.46712
 Alpha virt. eigenvalues --   22.53481  22.54265  22.55563  22.55676  22.61757
 Alpha virt. eigenvalues --   22.64227  22.73202  22.75610  22.77992  22.85059
 Alpha virt. eigenvalues --   22.90482  22.95525  22.96854  22.99064  23.01823
 Alpha virt. eigenvalues --   23.06145  23.08701  23.12988  23.17985  23.23597
 Alpha virt. eigenvalues --   23.35948  23.39186  23.39848  23.45757  23.50057
 Alpha virt. eigenvalues --   23.52000  23.56510  23.59556  23.63013  23.73973
 Alpha virt. eigenvalues --   23.78539  23.82810  23.94697  23.97887  24.07428
 Alpha virt. eigenvalues --   32.52203  32.82458  32.97559  33.06087  33.12200
 Alpha virt. eigenvalues --   33.19532  43.94168  43.98016  44.00271  44.01805
 Alpha virt. eigenvalues --   44.22197
          Condensed to atoms (all electrons):
 Mulliken charges:
               1
     1  C   -0.374748
     2  C    0.148593
     3  N   -0.206321
     4  C   -0.212980
     5  C    0.014583
     6  N    0.046986
     7  H    0.221277
     8  C   -0.465026
     9  C   -0.504198
    10  C   -0.443845
    11  C   -0.510347
    12  C    0.336530
    13  C    0.040167
    14  C   -0.061220
    15  C    0.203401
    16  C   -0.409025
    17  C   -0.468729
    18  C   -0.090888
    19  C    0.225640
    20  O   -0.321828
    21  O   -0.354429
    22  C    0.285055
    23  C   -0.129024
    24  C   -0.013470
    25  C    0.265889
    26  C   -0.365707
    27  C   -0.090702
    28  C   -0.359154
    29  C    0.259473
    30  C   -0.111629
    31  C    0.028897
    32  C    0.262083
    33  C   -0.400991
    34  C   -0.167347
    35  C   -0.354294
    36  C    0.269096
    37  C   -0.093377
    38  C    0.009297
    39  C    0.235087
    40  C   -0.391902
    41  C   -0.297121
    42  C   -0.260714
    43  C    0.271745
    44  O   -0.306089
    45  O   -0.325860
    46  N   -0.068841
    47  N   -0.047734
    48  N   -0.062730
    49  N   -0.055889
    50  Fe  -0.253856
    51  O   -0.476690
    52  H    0.151292
    53  H    0.130103
    54  H    0.143817
    55  H    0.147413
    56  H    0.173680
    57  H    0.135850
    58  H    0.135959
    59  H    0.135501
    60  H    0.128822
    61  H    0.135505
    62  H    0.125582
    63  H    0.108385
    64  H    0.354309
    65  H    0.091256
    66  H    0.345885
    67  H    0.348756
    68  H    0.118934
    69  H    0.128625
    70  H    0.123860
    71  H    0.129972
    72  H    0.350129
    73  H    0.130699
    74  H    0.140317
    75  H    0.127107
    76  H    0.089332
    77  H    0.155373
    78  H    0.143019
    79  H    0.129479
    80  H    0.137685
    81  H    0.147270
    82  H    0.117523
    83  H    0.086105
    84  H    0.139342
    85  H    0.129594
    86  H    0.116641
    87  H    0.140670
    88  H    0.128986
    89  H    0.116377
    90  H    0.113756
 Sum of Mulliken charges =  -0.00000
 Mulliken charges with hydrogens summed into heavy atoms:
               1
     1  C    0.050463
     2  C    0.148593
     3  N    0.014955
     4  C   -0.065568
     5  C    0.188263
     6  N    0.046986
     8  C   -0.373771
     9  C   -0.390443
    10  C   -0.357740
    11  C   -0.421015
    12  C    0.336530
    13  C    0.040167
    14  C   -0.061220
    15  C    0.203401
    16  C   -0.001713
    17  C   -0.204402
    18  C    0.143078
    19  C    0.225640
    20  O    0.032481
    21  O   -0.354429
    22  C    0.285055
    23  C   -0.129024
    24  C   -0.013470
    25  C    0.265889
    26  C    0.020326
    27  C    0.025939
    28  C   -0.090219
    29  C    0.259473
    30  C   -0.111629
    31  C    0.028897
    32  C    0.262083
    33  C    0.026880
    34  C   -0.049824
    35  C   -0.069339
    36  C    0.269096
    37  C   -0.093377
    38  C    0.009297
    39  C    0.235087
    40  C    0.006220
    41  C   -0.049561
    42  C   -0.006883
    43  C    0.271745
    44  O    0.044040
    45  O   -0.325860
    46  N   -0.068841
    47  N   -0.047734
    48  N   -0.062730
    49  N   -0.055889
    50  Fe  -0.253856
    51  O    0.217951
 Electronic spatial extent (au):  <R**2>=          32267.7612
 Charge=              0.0000 electrons
 Dipole moment (field-independent basis, Debye):
    X=             -1.4989    Y=              3.6731    Z=             -0.4098  Tot=              3.9883
 Quadrupole moment (field-independent basis, Debye-Ang):
   XX=           -319.0788   YY=           -278.0032   ZZ=           -265.7739
   XY=             19.8333   XZ=            -32.3343   YZ=              8.2834
 Traceless Quadrupole moment (field-independent basis, Debye-Ang):
   XX=            -31.4602   YY=              9.6154   ZZ=             21.8447
   XY=             19.8333   XZ=            -32.3343   YZ=              8.2834
 Octapole moment (field-independent basis, Debye-Ang**2):
  XXX=              1.8451  YYY=            125.4098  ZZZ=             75.2680  XYY=            147.8208
  XXY=            149.3580  XXZ=           -145.0727  XZZ=             -8.9059  YZZ=              7.0738
  YYZ=            -50.6333  XYZ=             56.9714
 Hexadecapole moment (field-independent basis, Debye-Ang**3):
 XXXX=         -25725.8683 YYYY=         -14257.1477 ZZZZ=          -3182.3630 XXXY=           1635.9203
 XXXZ=          -1192.5461 YYYX=            459.5810 YYYZ=             37.5003 ZZZX=           -409.5329
 ZZZY=            -13.7459 XXYY=          -5909.1894 XXZZ=          -4643.5333 YYZZ=          -2963.9428
 XXYZ=            464.0751 YYXZ=           -518.2079 ZZXY=            -65.1897
 N-N= 7.619278538136D+03 E-N=-2.332321270470D+04  KE= 3.429245121520D+03
  Exact polarizability: 880.106 -14.996 813.576  39.745  30.692 355.295
 Approx polarizability:1502.752 -34.6691544.371  92.914  76.010 574.579

 ----------------------------------------------------------------------

 Electric dipole moment (input orientation):
 (Debye = 10**-18 statcoulomb cm , SI units = C m)
                  (au)            (Debye)         (10**-30 SI)
   Tot        0.156913D+01      0.398833D+01      0.133036D+02
   x         -0.739519D+00     -0.187967D+01     -0.626991D+01
   y          0.985873D+00      0.250584D+01      0.835858D+01
   z          0.971253D+00      0.246868D+01      0.823462D+01

 Dipole polarizability, Alpha (input orientation).
 (esu units = cm**3 , SI units = C**2 m**2 J**-1)
 Alpha(0;0):
               (au)            (10**-24 esu)      (10**-40 SI)
   iso        0.682992D+03      0.101209D+03      0.112610D+03
   aniso      0.503167D+03      0.745616D+02      0.829610D+02
   xx         0.518764D+03      0.768728D+02      0.855326D+02
   yx        -0.137196D+03     -0.203304D+02     -0.226206D+02
   yy         0.827228D+03      0.122583D+03      0.136392D+03
   zx        -0.181214D+03     -0.268532D+02     -0.298782D+02
   zy        -0.929697D+02     -0.137767D+02     -0.153286D+02
   zz         0.702984D+03      0.104172D+03      0.115906D+03

 First dipole hyperpolarizability, Beta (input orientation).
 ||, _|_  parallel and perpendicular components, (z) with respect to z axis,
 vector components x,y,z.  Values do not include the 1/n! factor of 1/2.
 (esu units = statvolt**-1 cm**4 , SI units = C**3 m**3 J**-2)
 Beta(0;0,0):
               (au)            (10**-30 esu)      (10**-50 SI)
   || (z)    -0.163370D+03     -0.141139D+01     -0.523822D+00
   _|_(z)    -0.544565D+02     -0.470462D+00     -0.174607D+00
   x         -0.119542D+04     -0.103275D+02     -0.383296D+01
   y          0.623008D+04      0.538230D+02      0.199759D+02
   z         -0.816848D+03     -0.705693D+01     -0.261911D+01
   ||         0.127922D+04      0.110515D+02      0.410164D+01
   xxx       -0.106834D+03     -0.922960D+00     -0.342548D+00
   xxy        0.788575D+03      0.681267D+01      0.252846D+01
   yxy       -0.827657D+03     -0.715031D+01     -0.265377D+01
   yyy        0.114662D+04      0.990594D+01      0.367649D+01
   xxz       -0.400445D+03     -0.345954D+01     -0.128397D+01
   yxz       -0.510160D+03     -0.440739D+01     -0.163576D+01
   yyz        0.549518D+03      0.474740D+01      0.176195D+01
   zxz        0.536016D+03      0.463076D+01      0.171866D+01
   zyz        0.141493D+03      0.122239D+01      0.453679D+00
   zzz       -0.421355D+03     -0.364018D+01     -0.135102D+01

 ----------------------------------------------------------------------

 Dipole orientation:
     6        100.02019634        -52.46832830        199.55144946
     6        102.24816690        -52.90772825        201.36265650
     7        102.21094526        -53.48334241        203.80171060
     6        104.76216351        -52.75679724        200.77098686
     6        104.52419471        -53.73607946        204.65060926
     7        106.09051633        -53.28675922        202.79667395
     1        100.75226362        -53.37833250        204.90903623
     6        110.17714762        -59.02330618        201.05503330
     6        109.63930900        -55.66933626        209.51564132
     6        109.26233669        -47.42454439        205.88636063
     6        110.81243633        -50.71651519        197.64297602
     6        110.04596392        -58.87459690        203.69939733
     6        110.24478935        -60.93596808        205.23215711
     6        110.03531355        -60.00261761        207.71291174
     6        109.82336794        -57.40145414        207.50436016
     6        110.14609342        -61.46779105        210.21402257
     6        110.67178269        -63.59594327        204.20370133
     6        113.33266337        -64.59063868        204.37059109
     6        113.62646046        -67.27270938        203.31425701
     8        112.78443650        -69.09782716        204.45663203
     8        114.74605870        -67.68409507        201.33895783
     6        109.28061345        -53.03187843        209.30913572
     6        108.78257009        -51.37748446        211.32490598
     6        108.54749993        -48.99752848        210.21029871
     6        109.01355609        -49.36908756        207.64342539
     6        108.37000338        -52.19968245        214.04367596
     6        107.98446334        -46.59205573        211.17561644
     6        107.40882746        -45.86087540        213.70550035
     6        109.78487463        -47.49347335        203.29975452
     6        110.24033239        -45.35897507        201.82235956
     6        110.93042780        -46.36368178        199.46804231
     6        110.58473263        -48.98919721        199.62461884
     6        110.10365774        -42.58720036        202.72801242
     6        111.65234032        -45.14320882        197.24160900
     6        111.14160108        -42.53929289        196.50315760
     6        110.63372181        -53.34106320        197.75277189
     6        110.41147423        -54.92263730        195.68158913
     6        110.20212197        -57.34247771        196.67280711
     6        110.31318316        -57.06260381        199.29029916
     6        110.40770510        -54.24138960        192.90776206
     6        110.00543296        -59.81660734        195.17212838
     6        112.59240327        -60.97990682        194.57692422
     6        112.49200851        -63.57924185        193.36432978
     8        114.13333363        -65.13195387        193.77776097
     8        110.72478842        -64.07723155        191.97269875
     7        109.79432082        -56.74000826        205.06550893
     7        109.23751931        -51.80305131        207.10886437
     7        109.92948805        -49.65732069        201.95489797
     7        110.53410444        -54.64165750        199.91252654
    26        109.80980358        -53.18557625        203.50209891
     8        113.24711382        -53.22243976        204.22715115
     1        100.60319887        -52.86665683        197.65673193
     1         98.48992337        -53.68962897        200.05662411
     1         99.41655223        -50.54282800        199.68019139
     1        105.51891627        -52.28464122        198.95635024
     1        105.04186100        -54.22740732        206.54246830
     1        111.90131473        -61.08520888        211.14210725
     1        108.61544963        -60.88980107        211.40211737
     1        109.99873558        -63.44966936        209.84125439
     1        109.46412423        -64.86181710        205.21742545
     1        110.11628753        -63.61350161        202.25957454
     1        114.55254035        -63.35154667        203.33857210
     1        113.90187324        -64.59344356        206.31082417
     1        113.78283673        -70.60336036        204.62294534
     1        110.17239231        -60.89270784        200.28443162
     1        114.44636109        -52.06303104        203.51393957
     1        114.10210374        -54.36224965        205.35005765
     1        109.04168445        -59.44829542        193.43314957
     1        108.92574709        -61.14591918        196.24717284
     1        113.57994529        -59.73249745        193.32902889
     1        113.63925584        -61.12124487        196.30105744
     1        115.76448742        -64.95566169        193.00358285
     1        112.12487188        -54.88239198        192.05396679
     1        108.83232816        -55.12492010        191.99887622
     1        110.26324703        -52.23458730        192.70679320
     1        111.16786680        -49.92761759        195.81545806
     1        111.01500507        -41.39081632        201.37648611
     1        108.16785519        -42.03538224        202.91952572
     1        111.03344357        -42.41549887        204.51533696
     1        112.52553476        -41.49291709        195.46472735
     1        109.38272902        -41.67411002        196.99948386
     1        112.70644056        -46.25265721        195.92005345
     1        109.01109951        -45.56722223        206.64514017
     1        108.40360098        -44.32462206        214.56507202
     1        105.98227398        -46.84867211        214.74363084
     1        107.98746124        -45.09202925        209.81973160
     1        109.85834808        -51.47008892        215.20170682
     1        106.59470354        -51.48898739        214.70074154
     1        108.36631024        -54.21919960        214.14392022
     1        109.78555692        -56.42528668        211.38531044

 Electric dipole moment (dipole orientation):
 (Debye = 10**-18 statcoulomb cm , SI units = C m)
                  (au)            (Debye)         (10**-30 SI)
   Tot        0.156913D+01      0.398833D+01      0.133036D+02
   x          0.000000D+00      0.000000D+00      0.000000D+00
   y          0.000000D+00      0.000000D+00      0.000000D+00
   z          0.156913D+01      0.398833D+01      0.133036D+02

 Dipole polarizability, Alpha (dipole orientation).
 (esu units = cm**3 , SI units = C**2 m**2 J**-1)
 Alpha(0;0):
               (au)            (10**-24 esu)      (10**-40 SI)
   iso        0.682992D+03      0.101209D+03      0.112610D+03
   aniso      0.503167D+03      0.745616D+02      0.829610D+02
   xx         0.363297D+03      0.538350D+02      0.598995D+02
   yx        -0.458224D+02     -0.679017D+01     -0.755509D+01
   yy         0.859902D+03      0.127424D+03      0.141779D+03
   zx        -0.679412D+02     -0.100679D+02     -0.112020D+02
   zy         0.270464D+02      0.400786D+01      0.445935D+01
   zz         0.825778D+03      0.122368D+03      0.136152D+03

 First dipole hyperpolarizability, Beta (dipole orientation).
 ||, _|_  parallel and perpendicular components, (z) with respect to z axis,
 vector components x,y,z.  Values do not include the 1/n! factor of 1/2.
 (esu units = statvolt**-1 cm**4 , SI units = C**3 m**3 J**-2)
 Beta(0;0,0):
               (au)            (10**-30 esu)      (10**-50 SI)
   || (z)     0.794420D+03      0.686317D+01      0.254720D+01
   _|_(z)     0.264807D+03      0.228772D+01      0.849066D+00
   x         -0.276911D+03     -0.239229D+01     -0.887876D+00
   y          0.500558D+04      0.432444D+02      0.160497D+02
   z          0.397210D+04      0.343158D+02      0.127360D+02
   ||         0.127922D+04      0.110515D+02      0.410164D+01
   xxx       -0.152998D+03     -0.132178D+01     -0.490567D+00
   xxy        0.755832D+02      0.652980D+00      0.242347D+00
   yxy        0.351491D+03      0.303661D+01      0.112701D+01
   yyy        0.341584D+03      0.295102D+01      0.109524D+01
   xxz        0.736509D+02      0.636287D+00      0.236151D+00
   yxz       -0.383404D+03     -0.331231D+01     -0.122933D+01
   yyz       -0.347846D+03     -0.300512D+01     -0.111532D+01
   zxz       -0.290797D+03     -0.251226D+01     -0.932400D+00
   zyz        0.125136D+04      0.108108D+02      0.401232D+01
   zzz        0.159823D+04      0.138074D+02      0.512450D+01

 ----------------------------------------------------------------------
 1\1\GINC-NODE532\SP\RPBE1PBE\def2TZVP\C38H40Fe1N6O5\ZHARTOVSKA\15-Jan-
 2023\0\\# polar def2tzvp empiricaldispersion=gd3bj int=grid=ultrafine 
 pbe1pbe\\1ccc_II_S\\0,1\C,0,-9.179,55.032001,107.751999\C,0,-8.656,55.
 674,109.046997\N,0,-9.337,56.250999,110.028\C,0,-7.346,55.780998,109.4
 3\C,0,-8.517,56.655998,110.967003\N,0,-7.296,56.370998,110.600998\H,0,
 -10.269,56.52,109.991997\C,0,-5.551,53.891998,112.957001\C,0,-7.582,57
 .994999,114.478996\C,0,-6.051,60.050999,110.455002\C,0,-3.606,56.14300
 2,109.236\C,0,-6.256,54.818001,113.740997\C,0,-6.747,54.521999,114.977
 997\C,0,-7.371,55.700001,115.428001\C,0,-7.164,56.651001,114.442001\C,
 0,-8.086,55.956001,116.762001\C,0,-6.553,53.157001,115.632004\C,0,-5.4
 76,53.071999,116.681\C,0,-5.338,51.675999,117.300003\O,0,-6.184,51.243
 999,118.070999\O,0,-4.374,50.963001,117.069\C,0,-7.439,58.946999,113.4
 45\C,0,-8.009,60.230999,113.431\C,0,-7.608,60.790001,112.216003\C,0,-6
 .791,59.833,111.614998\C,0,-8.955,60.765999,114.491997\C,0,-7.873,62.0
 19001,111.592003\C,0,-8.696,63.097,112.033997\C,0,-5.174,59.214001,109
 .761002\C,0,-4.391,59.620998,108.681\C,0,-3.586,58.502998,108.416\C,0,
 -4.037,57.471001,109.253998\C,0,-4.411,61.018002,108.022003\C,0,-2.583
 ,58.320999,107.460999\C,0,-2.38,59.068001,106.225998\C,0,-3.969,55.112
 ,110.099998\C,0,-3.707,53.769001,109.891998\C,0,-4.284,53.110001,110.9
 69002\C,0,-4.859,54.103001,111.761002\C,0,-2.951,53.118999,108.755997\
 C,0,-4.239,51.602001,111.250999\C,0,-3.022,51.188999,112.087997\C,0,-3
 .017,49.736,112.529999\O,0,-2.521,49.410999,113.591003\O,0,-3.525,48.9
 03,111.799004\N,0,-6.505,56.102001,113.416\N,0,-6.791,58.702999,112.30
 5\N,0,-4.982,57.915001,110.075996\N,0,-4.679,55.299999,111.214996\Fe,0
 ,-5.764,57.006001,111.725998\O,0,-4.379,57.564999,112.833\H,0,-8.47882
 994,54.29908433,107.40922351\H,0,-10.12188072,54.5631492,107.94187774\
 H,0,-9.30035533,55.78686697,107.00343354\H,0,-6.50222068,55.43984647,1
 08.86737038\H,0,-8.80002455,57.13849908,111.87913775\H,0,-7.47904095,5
 6.58754034,117.37654048\H,0,-9.02522183,56.43415344,116.57725092\H,0,-
 8.25213139,55.02475525,117.2620827\H,0,-7.47972763,52.8706197,116.0837
 3583\H,0,-6.323465,52.44983052,114.86250832\H,0,-4.5417231,53.34276352
 ,116.23522737\H,0,-5.70027299,53.77105398,117.45941105\H,0,-5.91534737
 ,50.79348884,118.87503032\H,0,-5.5419176,52.88729057,113.32494188\H,0,
[...]
  1660. RY*(   1) H  84                  0.00071     1.29915   
  1661. RY*(   2) H  84                  0.00021     1.67978   
  1662. RY*(   3) H  84                  0.00011     1.66328   
  1663. RY*(   4) H  84                  0.00003     2.92232   
  1664. RY*(   5) H  84                  0.00001     2.03763   
  1665. RY*(   1) H  85                  0.00100     1.20154   
  1666. RY*(   2) H  85                  0.00020     1.66188   
  1667. RY*(   3) H  85                  0.00010     2.01290   
  1668. RY*(   4) H  85                  0.00004     2.19738   
  1669. RY*(   5) H  85                  0.00003     2.56082   
  1670. RY*(   1) H  86                  0.00095     1.82228   
  1671. RY*(   2) H  86                  0.00017     1.75132   
  1672. RY*(   3) H  86                  0.00011     2.25942   
  1673. RY*(   4) H  86                  0.00006     2.26458   
  1674. RY*(   5) H  86                  0.00002     3.17672   
  1675. RY*(   1) H  87                  0.00132     0.92555   
  1676. RY*(   2) H  87                  0.00016     1.74045   
  1677. RY*(   3) H  87                  0.00007     2.17623   
  1678. RY*(   4) H  87                  0.00004     2.03745   
  1679. RY*(   5) H  87                  0.00001     2.99586   
  1680. RY*(   1) H  88                  0.00071     0.98503   
  1681. RY*(   2) H  88                  0.00017     1.83485   
  1682. RY*(   3) H  88                  0.00006     2.16703   
  1683. RY*(   4) H  88                  0.00006     1.96684   
  1684. RY*(   5) H  88                  0.00001     2.97976   
  1685. RY*(   1) H  89                  0.00052     1.27970   
  1686. RY*(   2) H  89                  0.00016     1.90391   
  1687. RY*(   3) H  89                  0.00007     2.13143   
  1688. RY*(   4) H  89                  0.00003     1.82911   
  1689. RY*(   5) H  89                  0.00001     2.91522   
  1690. RY*(   1) H  90                  0.00163     0.54807   
  1691. RY*(   2) H  90                  0.00031     2.08129   
  1692. RY*(   3) H  90                  0.00026     2.17813   
  1693. RY*(   4) H  90                  0.00008     2.83583   
  1694. RY*(   5) H  90                  0.00002     3.28500   
  1695. BD*(   1) C   1 - C   2          0.01404     0.34292   
  1696. BD*(   1) C   1 - H  52          0.00350     0.39978   
  1697. BD*(   1) C   1 - H  53          0.00589     0.39243   
  1698. BD*(   1) C   1 - H  54          0.01063     0.39446   
  1699. BD*(   1) C   2 - N   3          0.02423     0.49768   
  1700. BD*(   1) C   2 - C   4          0.02171     0.56569   
  1701. BD*(   2) C   2 - C   4          0.32773     0.03699  169(v),1703(v),1698(v)
  1702. BD*(   1) N   3 - C   5          0.02289     0.51665   
  1703. BD*(   2) N   3 - C   5          0.65635    -0.03769  169(v),1701(v),299(g),301(g)
                                                    248(g),246(g)
  1704. BD*(   1) N   3 - H   7          0.01696     0.42723   
  1705. BD*(   1) C   4 - N   6          0.01610     0.57422   
  1706. BD*(   1) C   4 - H  55          0.01655     0.43222   
  1707. BD*(   1) C   5 - N   6          0.01936     0.55801   
  1708. BD*(   1) C   5 - H  56          0.01743     0.39666   
  1709. BD*(   1) N   6 -Fe  50          0.06916     0.36327   
  1710. BD*(   1) C   8 - C  12          0.02389     0.55744   
  1711. BD*(   1) C   8 - C  39          0.02403     0.56811   
  1712. BD*(   1) C   8 - H  65          0.01353     0.46231   
  1713. BD*(   1) C   9 - C  15          0.02308     0.54739   
  1714. BD*(   1) C   9 - C  22          0.02261     0.53902   
  1715. BD*(   1) C   9 - H  90          0.01104     0.45468   
  1716. BD*(   1) C  10 - C  25          0.02359     0.57064   
  1717. BD*(   1) C  10 - C  29          0.02379     0.56708   
  1718. BD*(   1) C  10 - H  83          0.01437     0.46070   
  1719. BD*(   1) C  11 - C  32          0.02294     0.56402   
  1720. BD*(   1) C  11 - C  36          0.02382     0.57174   
  1721. BD*(   1) C  11 - H  76          0.01254     0.45627   
  1722. BD*(   1) C  12 - C  13          0.02858     0.60311   
  1723. BD*(   1) C  12 - N  46          0.02860     0.54888   
  1724. BD*(   1) C  13 - C  14          0.02355     0.55085   
  1725. BD*(   2) C  13 - C  14          0.30500     0.05540  1730(v),174(v),1734(v)
                                                    1731(v),1735(v),1732(v)
  1726. BD*(   1) C  13 - C  17          0.02473     0.38986   
  1727. BD*(   1) C  14 - C  15          0.02997     0.57152   
  1728. BD*(   1) C  14 - C  16          0.01740     0.37331   
  1729. BD*(   1) C  15 - N  46          0.02651     0.56115   
  1730. BD*(   2) C  15 - N  46          0.63529     0.02006  1725(v),171(v),174(v),539(g)
                                                    1343(g),191(v),381(v),540(g)
  1731. BD*(   1) C  16 - H  57          0.00968     0.40726   
  1732. BD*(   1) C  16 - H  58          0.00818     0.40889   
  1733. BD*(   1) C  16 - H  59          0.00468     0.41335   
  1734. BD*(   1) C  17 - C  18          0.01657     0.37568   
  1735. BD*(   1) C  17 - H  60          0.01659     0.40648   
  1736. BD*(   1) C  17 - H  61          0.01532     0.41601   
  1737. BD*(   1) C  18 - C  19          0.07319     0.33307   
  1738. BD*(   1) C  18 - H  62          0.01134     0.40233   
  1739. BD*(   1) C  18 - H  63          0.01341     0.38999   
  1740. BD*(   1) C  19 - O  20          0.06742     0.55123   
  1741. BD*(   1) C  19 - O  21          0.03959     0.60745   
  1742. BD*(   2) C  19 - O  21          0.20437     0.02299  1743(v),1741(g),1734(v)
                                                    651(g)
  1743. BD*(   1) O  20 - H  64          0.01488     0.37595   
  1744. BD*(   1) C  22 - C  23          0.03099     0.54350   
  1745. BD*(   1) C  22 - N  47          0.02682     0.55837   
  1746. BD*(   1) C  23 - C  24          0.02733     0.56560   
  1747. BD*(   1) C  23 - C  26          0.01599     0.38921   
  1748. BD*(   1) C  24 - C  25          0.03250     0.56676   
  1749. BD*(   1) C  24 - C  27          0.02334     0.54853   
  1750. BD*(   1) C  25 - N  47          0.02760     0.57875   
  1751. BD*(   2) C  25 - N  47          0.57658     0.02717  172(v),181(v),179(v),799(g)
                                                    1369(g),191(v),407(v),721(v)
  1752. BD*(   1) C  26 - H  87          0.01033     0.41177   
  1753. BD*(   1) C  26 - H  88          0.00775     0.41236   
  1754. BD*(   1) C  26 - H  89          0.00618     0.41681   
  1755. BD*(   1) C  27 - C  28          0.00733     0.51507   
  1756. BD*(   2) C  27 - C  28          0.16492     0.02018  181(v),1757(g),1759(g)
                                                    1758(g),1749(g)
  1757. BD*(   1) C  27 - H  86          0.01848     0.44836   
  1758. BD*(   1) C  28 - H  84          0.00524     0.44268   
  1759. BD*(   1) C  28 - H  85          0.00670     0.44126   
  1760. BD*(   1) C  29 - C  30          0.02979     0.55616   
  1761. BD*(   1) C  29 - N  48          0.02875     0.53725   
  1762. BD*(   1) C  30 - C  31          0.02752     0.55475   
  1763. BD*(   2) C  30 - C  31          0.34309     0.05601  1768(v),1773(v),182(v)
                                                    1770(v),1771(v)
  1764. BD*(   1) C  30 - C  33          0.01559     0.36427   
  1765. BD*(   1) C  31 - C  32          0.03514     0.55472   
  1766. BD*(   1) C  31 - C  34          0.02226     0.56072   
  1767. BD*(   1) C  32 - N  48          0.02556     0.57090   
  1768. BD*(   2) C  32 - N  48          0.58371     0.02362  1763(v),173(v),182(v),981(g)
                                                    1395(g),191(v)
  1769. BD*(   1) C  33 - H  77          0.00784     0.42752   
  1770. BD*(   1) C  33 - H  78          0.00842     0.41187   
  1771. BD*(   1) C  33 - H  79          0.00917     0.41475   
  1772. BD*(   1) C  34 - C  35          0.00731     0.47086   
  1773. BD*(   2) C  34 - C  35          0.14773     0.02084  1763(v)
  1774. BD*(   1) C  34 - H  82          0.01851     0.45134   
  1775. BD*(   1) C  35 - H  80          0.00472     0.45008   
  1776. BD*(   1) C  35 - H  81          0.00594     0.44910   
  1777. BD*(   1) C  36 - C  37          0.03281     0.58245   
  1778. BD*(   1) C  36 - N  49          0.02680     0.56749   
  1779. BD*(   1) C  37 - C  38          0.02255     0.57675   
  1780. BD*(   2) C  37 - C  38          0.27920     0.06613  1785(v),183(v),1789(v)
                                                    1786(v),1787(v)
  1781. BD*(   1) C  37 - C  40          0.01745     0.40173   
  1782. BD*(   1) C  38 - C  39          0.03279     0.56800   
  1783. BD*(   1) C  38 - C  41          0.02293     0.39189   
  1784. BD*(   1) C  39 - N  49          0.02608     0.57948   
  1785. BD*(   2) C  39 - N  49          0.61082     0.02918  1780(v),170(v),183(v)
                                                    1163(g),1421(g),355(v)
                                                    191(v)
  1786. BD*(   1) C  40 - H  73          0.01015     0.41026   
  1787. BD*(   1) C  40 - H  74          0.00802     0.41441   
  1788. BD*(   1) C  40 - H  75          0.00567     0.41873   
  1789. BD*(   1) C  41 - C  42          0.01626     0.36083   
  1790. BD*(   1) C  41 - H  68          0.01270     0.42902   
  1791. BD*(   1) C  41 - H  69          0.01299     0.42134   
  1792. BD*(   1) C  42 - C  43          0.08632     0.35832   
  1793. BD*(   1) C  42 - H  70          0.01173     0.39210   
  1794. BD*(   1) C  42 - H  71          0.01334     0.40475   
  1795. BD*(   1) C  43 - O  44          0.06597     0.57767   
  1796. BD*(   1) C  43 - O  45          0.04843     0.60789   
  1797. BD*(   2) C  43 - O  45          0.17455     0.03672  1798(v),1796(g),1793(v)
  1798. BD*(   1) O  44 - H  72          0.01613     0.36988   
  1799. BD*(   1) N  46 -Fe  50          0.04465     0.44396   
  1800. BD*(   1) N  47 -Fe  50          0.04719     0.44144   
  1801. BD*(   1) N  48 -Fe  50          0.04503     0.44320   
  1802. BD*(   1) N  49 -Fe  50          0.04569     0.43551   
       -------------------------------
              Total Lewis  354.18834  ( 96.7075%)
        Valence non-Lewis   11.34048  (  3.0964%)
        Rydberg non-Lewis    0.71821  (  0.1961%)
       -------------------------------
            Total unit  1  366.24703  (100.0000%)
           Charge unit  1   -0.24703

 Molecular unit  2  (H2O)
   109. BD (   1) O  51 - H  66          1.98491    -0.82186  191(r),1450(r),1448(r)
                                                    1804(g),1347(r),1709(r)
                                                    327(r),1467(r),1457(r)
                                                    1370(r),1447(r),1399(r)
                                                    1463(r),1373(r),1453(r)
                                                    1466(r)
   110. BD (   1) O  51 - H  67          1.98722    -0.82381  191(r),1448(r),1450(r)
                                                    1449(r),1799(r),1347(r)
                                                    1709(r),1453(r),1398(r)
                                                    1399(r),1459(r),1467(r)
                                                    327(r),325(r),1801(r)
                                                    1421(r),1800(r),1454(r)
                                                    1395(r),1422(r)
   168. CR (   1) O  51                  1.99974   -19.01167  191(r),1577(v),1709(r)
                                                    1801(r),1454(r),1450(r)
                                                    1453(r)
   192. LP (   1) O  51                  1.98771    -0.35932  1802(r),1800(r),1576(v)
                                                    1571(v),1373(r),1799(r)
                                                    1426(r),1801(r),1449(r)
                                                    1751(r),324(r),169(r)
                                                    1785(r),1377(r),1371(r)
                                                    1433(r),1423(r)
   193. LP (   2) O  51                  1.75653    -0.58861  191(r),1709(r),1803(g)
                                                    1804(g),1577(v),1476(g)
                                                    1572(v),1452(r),1477(g)
                                                    1421(r),1801(r),1369(r)
                                                    1451(r),1423(r),1345(r)
                                                    1371(r),1397(r),1346(r)
                                                    1398(r),1372(r),1729(r)
                                                    1343(r),1745(r),1395(r)
                                                    1723(r),1750(r),1767(r)
                                                    1400(r),1459(r),1778(r)
                                                    1761(r),1784(r),1348(r)
                                                    1802(r),1373(r),327(r)
                                                    381(r),1425(r),1730(r)
  1474. RY*(   1) O  51                  0.00536     0.68921   
  1475. RY*(   2) O  51                  0.00283     1.36825   
  1476. RY*(   3) O  51                  0.00071     1.52800   
  1477. RY*(   4) O  51                  0.00022     1.61076   
  1478. RY*(   5) O  51                  0.00020     2.65231   
  1479. RY*(   6) O  51                  0.00007     3.85408   
  1480. RY*(   7) O  51                  0.00005     2.34295   
  1481. RY*(   8) O  51                  0.00004     2.26020   
  1482. RY*(   9) O  51                  0.00001     3.08376   
  1483. RY*(  10) O  51                  0.00002     3.07871   
  1484. RY*(  11) O  51                  0.00000     6.48312   
  1485. RY*(  12) O  51                  0.00000     3.61441   
  1486. RY*(  13) O  51                  0.00000     6.52739   
  1487. RY*(  14) O  51                  0.00000     2.97156   
  1488. RY*(  15) O  51                  0.00000     6.68101   
  1489. RY*(  16) O  51                  0.00000    42.10047   
  1490. RY*(  17) O  51                  0.00000     6.44679   
  1491. RY*(  18) O  51                  0.00001     3.33463   
  1492. RY*(  19) O  51                  0.00000     6.54563   
  1493. RY*(  20) O  51                  0.00000     5.38825   
  1494. RY*(  21) O  51                  0.00000     5.23848   
  1495. RY*(  22) O  51                  0.00000     5.57110   
  1496. RY*(  23) O  51                  0.00000     5.50324   
  1497. RY*(  24) O  51                  0.00000     5.66060   
  1498. RY*(  25) O  51                  0.00000     5.51733   
  1499. RY*(  26) O  51                  0.00000     5.28602   
  1570. RY*(   1) H  66                  0.00095     1.67065   
  1571. RY*(   2) H  66                  0.00084     1.99954   
  1572. RY*(   3) H  66                  0.00035     1.90419   
  1573. RY*(   4) H  66                  0.00016     2.19866   
  1574. RY*(   5) H  66                  0.00001     2.86988   
  1575. RY*(   1) H  67                  0.00156     0.91098   
  1576. RY*(   2) H  67                  0.00087     2.02638   
  1577. RY*(   3) H  67                  0.00041     2.17448   
  1578. RY*(   4) H  67                  0.00015     2.35658   
  1579. RY*(   5) H  67                  0.00002     2.85086   
  1803. BD*(   1) O  51 - H  66          0.01150     0.42276   
  1804. BD*(   1) O  51 - H  67          0.01043     0.41778   
       -------------------------------
              Total Lewis    9.71611  ( 99.6227%)
        Valence non-Lewis    0.02194  (  0.2249%)
        Rydberg non-Lewis    0.01486  (  0.1524%)
       -------------------------------
            Total unit  2    9.75291  (100.0000%)
           Charge unit  2    0.24709
 1\1\GINC-NODE532\SP\RPBE1PBE\def2TZVP\C38H40Fe1N6O5\ZHARTOVSKA\15-Jan-
 2023\0\\# PBE1PBE/def2TZVP empiricaldispersion=GD3BJ int=(grid=ultrafi
 ne) geom=check guess=read pop=nbo scf=qc\\1ccc_II_S_nbo\\0,1\C,0,-9.17
 9,55.032001,107.751999\C,0,-8.656,55.674,109.046997\N,0,-9.337,56.2509
 99,110.028\C,0,-7.346,55.780998,109.43\C,0,-8.517,56.655998,110.967003
 \N,0,-7.296,56.370998,110.600998\H,0,-10.269,56.52,109.991997\C,0,-5.5
 51,53.891998,112.957001\C,0,-7.582,57.994999,114.478996\C,0,-6.051,60.
 050999,110.455002\C,0,-3.606,56.143002,109.236\C,0,-6.256,54.818001,11
 3.740997\C,0,-6.747,54.521999,114.977997\C,0,-7.371,55.700001,115.4280
 01\C,0,-7.164,56.651001,114.442001\C,0,-8.086,55.956001,116.762001\C,0
 ,-6.553,53.157001,115.632004\C,0,-5.476,53.071999,116.681\C,0,-5.338,5
 1.675999,117.300003\O,0,-6.184,51.243999,118.070999\O,0,-4.374,50.9630
 01,117.069\C,0,-7.439,58.946999,113.445\C,0,-8.009,60.230999,113.431\C
 ,0,-7.608,60.790001,112.216003\C,0,-6.791,59.833,111.614998\C,0,-8.955
 ,60.765999,114.491997\C,0,-7.873,62.019001,111.592003\C,0,-8.696,63.09
 7,112.033997\C,0,-5.174,59.214001,109.761002\C,0,-4.391,59.620998,108.
 681\C,0,-3.586,58.502998,108.416\C,0,-4.037,57.471001,109.253998\C,0,-
 4.411,61.018002,108.022003\C,0,-2.583,58.320999,107.460999\C,0,-2.38,5
 9.068001,106.225998\C,0,-3.969,55.112,110.099998\C,0,-3.707,53.769001,
 109.891998\C,0,-4.284,53.110001,110.969002\C,0,-4.859,54.103001,111.76
 1002\C,0,-2.951,53.118999,108.755997\C,0,-4.239,51.602001,111.250999\C
 ,0,-3.022,51.188999,112.087997\C,0,-3.017,49.736,112.529999\O,0,-2.521
 ,49.410999,113.591003\O,0,-3.525,48.903,111.799004\N,0,-6.505,56.10200
 1,113.416\N,0,-6.791,58.702999,112.305\N,0,-4.982,57.915001,110.075996
 \N,0,-4.679,55.299999,111.214996\Fe,0,-5.764,57.006001,111.725998\O,0,
 -4.379,57.564999,112.833\H,0,-8.47882994,54.29908433,107.40922351\H,0,
 -10.12188072,54.5631492,107.94187774\H,0,-9.30035533,55.78686697,107.0
 0343354\H,0,-6.50222068,55.43984647,108.86737038\H,0,-8.80002455,57.13
 849908,111.87913775\H,0,-7.47904095,56.58754034,117.37654048\H,0,-9.02
 522183,56.43415344,116.57725092\H,0,-8.25213139,55.02475525,117.262082
 7\H,0,-7.47972763,52.8706197,116.08373583\H,0,-6.323465,52.44983052,11
 4.86250832\H,0,-4.5417231,53.34276352,116.23522737\H,0,-5.70027299,53.
 77105398,117.45941105\H,0,-5.91534737,50.79348884,118.87503032\H,0,-5.
 5419176,52.88729057,113.32494188\H,0,-3.54136415,57.90787826,112.513\H
 ,0,-4.379,57.564999,113.793\H,0,-4.20968018,51.07792996,110.3185882\H,
 0,-5.12873146,51.32300875,111.77582398\H,0,-2.1391577,51.36883063,111.
 51080547\H,0,-2.98770606,51.80700086,112.96080719\H,0,-1.56611326,49.3
 8201798,113.68561496\H,0,-2.01608841,52.74483248,109.11771476\H,0,-3.5
 2911949,52.31079548,108.35915329\H,0,-2.77260395,53.84121908,107.98692
 418\H,0,-2.91158606,55.88546894,108.46375263\H,0,-3.54203963,61.135586
 24,107.40882943\H,0,-5.28919586,61.11512614,107.4184809\H,0,-4.4156177
 5,61.77094553,108.78223633\H,0,-1.38787206,59.27539721,105.88311468\H,
 0,-3.22310376,59.40898584,105.6622557\H,0,-1.87950976,57.53968841,107.
 65988401\H,0,-6.1751832,61.02216565,110.0233611\H,0,-8.30749674,64.093
 79938,112.05287069\H,0,-9.70184271,62.90881946,112.34667658\H,0,-7.388
 29493,62.16872245,110.64990721\H,0,-8.49365249,61.58701664,114.9999227
 \H,0,-9.86064458,61.0970181,114.02817132\H,0,-9.17714853,59.99086332,1
 15.19535658\H,0,-8.05468308,58.3282858,115.37921298\\Version=ES64L-G16
 RevA.03\State=1-A\HF=-3438.5981983\RMSD=6.284e-10\Dipole=-0.7395195,0.
 9858731,0.9712526\Quadrupole=22.2565134,-39.9621232,17.7056099,-0.5146
 036,7.2073043,-3.0219035\PG=C01 [X(C38H40Fe1N6O5)]\\@


 I take a simple view of life: keep your eyes open and get on with it.
 -- Laurence Olivier
 Job cpu time:       0 days  1 hours 54 minutes  4.4 seconds.
 Elapsed time:       0 days  0 hours 28 minutes 35.6 seconds.
 File lengths (MBytes):  RWF=   1097 Int=      0 D2E=      0 Chk=    215 Scr=      1
 Normal termination of Gaussian 16 at Sun Jan 15 18:40:16 2023.
