 Entering Gaussian System, Link 0=g16
 Input=/net/homes/chemie/zhartovska/work/BioModel/Konrad/1a6g/1a6g05/1a6g05.com
 Output=/net/homes/chemie/zhartovska/work/BioModel/Konrad/1a6g/1a6g05/1a6g05.log
 Initial command:
 /afs/math/software/gaussian/g16.A03/g16/l1.exe "/scratch/zhartovska_gaussian.rEfFD49/Gau-15787.inp" -scrdir="/scratch/zhartovska_gaussian.rEfFD49/"
 Entering Link 1 = /afs/math/software/gaussian/g16.A03/g16/l1.exe PID=     15788.
  
 Copyright (c) 1988,1990,1992,1993,1995,1998,2003,2009,2016,
            Gaussian, Inc.  All Rights Reserved.
  
 This is part of the Gaussian(R) 16 program.  It is based on
 the Gaussian(R) 09 system (copyright 2009, Gaussian, Inc.),
 the Gaussian(R) 03 system (copyright 2003, Gaussian, Inc.),
 the Gaussian(R) 98 system (copyright 1998, Gaussian, Inc.),
 the Gaussian(R) 94 system (copyright 1995, Gaussian, Inc.),
 the Gaussian 92(TM) system (copyright 1992, Gaussian, Inc.),
 the Gaussian 90(TM) system (copyright 1990, Gaussian, Inc.),
 the Gaussian 88(TM) system (copyright 1988, Gaussian, Inc.),
 the Gaussian 86(TM) system (copyright 1986, Carnegie Mellon
 University), and the Gaussian 82(TM) system (copyright 1983,
 Carnegie Mellon University). Gaussian is a federally registered
 trademark of Gaussian, Inc.
  
 This software contains proprietary and confidential information,
 including trade secrets, belonging to Gaussian, Inc.
  
 This software is provided under written license and may be
 used, copied, transmitted, or stored only in accord with that
 written license.
  
 The following legend is applicable only to US Government
 contracts under FAR:
  
                    RESTRICTED RIGHTS LEGEND
  
 Use, reproduction and disclosure by the US Government is
 subject to restrictions as set forth in subparagraphs (a)
 and (c) of the Commercial Computer Software - Restricted
 Rights clause in FAR 52.227-19.
  
 Gaussian, Inc.
 340 Quinnipiac St., Bldg. 40, Wallingford CT 06492
  
  
 ---------------------------------------------------------------
 Warning -- This program may not be used in any manner that
 competes with the business of Gaussian, Inc. or will provide
 assistance to any competitor of Gaussian, Inc.  The licensee
 of this program is prohibited from giving any competitor of
 Gaussian, Inc. access to this program.  By using this program,
 the user acknowledges that Gaussian, Inc. is engaged in the
 business of creating and licensing software in the field of
 computational chemistry and represents and warrants to the
 licensee that it is not a competitor of Gaussian, Inc. and that
 it will not use this program in any manner prohibited above.
 ---------------------------------------------------------------
  

 Cite this work as:
 Gaussian 16, Revision A.03,
 M. J. Frisch, G. W. Trucks, H. B. Schlegel, G. E. Scuseria, 
 M. A. Robb, J. R. Cheeseman, G. Scalmani, V. Barone, 
 G. A. Petersson, H. Nakatsuji, X. Li, M. Caricato, A. V. Marenich, 
 J. Bloino, B. G. Janesko, R. Gomperts, B. Mennucci, H. P. Hratchian, 
 J. V. Ortiz, A. F. Izmaylov, J. L. Sonnenberg, D. Williams-Young, 
 F. Ding, F. Lipparini, F. Egidi, J. Goings, B. Peng, A. Petrone, 
 T. Henderson, D. Ranasinghe, V. G. Zakrzewski, J. Gao, N. Rega, 
 G. Zheng, W. Liang, M. Hada, M. Ehara, K. Toyota, R. Fukuda, 
 J. Hasegawa, M. Ishida, T. Nakajima, Y. Honda, O. Kitao, H. Nakai, 
 T. Vreven, K. Throssell, J. A. Montgomery, Jr., J. E. Peralta, 
 F. Ogliaro, M. J. Bearpark, J. J. Heyd, E. N. Brothers, K. N. Kudin, 
 V. N. Staroverov, T. A. Keith, R. Kobayashi, J. Normand, 
 K. Raghavachari, A. P. Rendell, J. C. Burant, S. S. Iyengar, 
 J. Tomasi, M. Cossi, J. M. Millam, M. Klene, C. Adamo, R. Cammi, 
 J. W. Ochterski, R. L. Martin, K. Morokuma, O. Farkas, 
 J. B. Foresman, and D. J. Fox, Gaussian, Inc., Wallingford CT, 2016.
 
 ******************************************
 Gaussian 16:  ES64L-G16RevA.03 25-Dec-2016
                 8-Sep-2022 
 ******************************************
 %nprocs=12
 Will use up to   12 processors via shared memory.
 %mem=16GB
 %oldchk=1a6g_II_S.chk
 %chk=1a6g_II_Q.chk
 Copying data from "1a6g_II_S.chk" to current chk file "1a6g_II_Q.chk"
 IOpt=  2 FromEx=T IUOpen= 4 IOptOp= 5 NList=   0 IFRang= 0 IUIn= 4 IUOut= 2.
 ----------------------------------------------------------------------
 # PBE1PBE/def2TZVP empiricaldispersion=GD3BJ scf=maxcycle=999 geom=che
 ck pop=nbo
 ----------------------------------------------------------------------
 1/29=2,38=1,172=1/1;
 2/12=2,40=1/2;
 3/5=44,7=101,11=2,14=-4,25=1,30=1,74=-13,124=41/1,2,3;
 4//1;
 5/5=2,7=999,38=5/2;
 6/7=2,8=2,9=2,10=2,28=1,40=1/1,7;
 99/5=1,9=1/99;
 ---------
 1a6g_II_Q
 ---------
 Structure from the checkpoint file:  "1a6g_II_Q.chk"
 Charge =  0 Multiplicity = 5
 Z-Matrix found in chk file.
 C,0,9.563,29.266001,2.603
 C,0,10.793,29.143999,3.477
 N,0,11.018,29.971001,4.542
 C,0,11.903,28.341,3.405
 C,0,12.244,29.622999,5.051
 N,0,12.785,28.643,4.387
 Fe,0,14.633,27.799999,4.742
 C,0,15.982,30.875999,5.035
 C,0,13.859,27.797001,8.082
 C,0,13.333,24.698999,4.461
 C,0,15.457,27.771999,1.469
 N,0,14.899,29.068001,6.263
 C,0,15.422,30.325001,6.188
 C,0,15.366,30.961,7.489
 C,0,14.809,30.049999,8.337
 C,0,14.506,28.948,7.597
 C,0,14.492,30.266001,9.839
 C,0,15.74,32.409,7.822
 C,0,14.479,33.294998,8.021
 C,0,13.598,33.317001,6.814
 O,0,12.422,32.879002,6.9
 O,0,14.082,33.764999,5.74
 N,0,13.754,26.474001,5.981
 C,0,13.521,26.642,7.379
 C,0,12.876,25.492001,7.903
 C,0,12.732,24.643,6.9
 C,0,13.286,25.256001,5.694
 C,0,12.416,25.358,9.356
 C,0,12.192,23.231001,6.941
 C,0,12.38305219,22.46417462,8.04192843
 N,0,14.397,26.546,3.282
 C,0,13.905,25.194,3.289
 C,0,14.088,24.503,2.063
 C,0,14.7,25.377001,1.22
 C,0,14.902,26.634001,1.946
 C,0,13.664,23.054001,1.795
 C,0,15.247,25.156,-0.167
 C,0,15.06416569,23.96413626,-0.78554627
 N,0,15.464,29.084,3.481
 C,0,15.738,28.924999,2.139
 C,0,16.452,30.069,1.609
 C,0,16.638,30.898001,2.629
 C,0,16.014999,30.311001,3.762
 C,0,16.924,30.177999,0.162
 C,0,17.469999,32.186001,2.652
 C,0,18.965,31.896,2.978
 C,0,19.889999,33.044998,2.829
 O,0,20.224001,33.370998,1.661
 O,0,20.268999,33.573002,3.948
 C,0,16.25,26.974001,4.896
 O,0,17.216,26.469999,4.82
 H,0,9.78249371,28.89332331,1.62431014
 H,0,8.76391414,28.69704915,3.03038225
 H,0,9.27320393,30.29386396,2.5365472
 H,0,10.40958266,30.68774624,4.88274125
 H,0,12.70048136,30.10017914,5.89291679
 H,0,12.05198265,27.57743313,2.67037778
 H,0,17.40691131,32.65956714,1.69457896
 H,0,17.07220064,32.84541548,3.39485194
 H,0,19.02477263,31.5484893,3.98822945
 H,0,19.30100045,31.11142332,2.33267595
 H,0,21.2045082,33.66494555,4.14285617
 H,0,17.86512979,29.68019944,0.05536828
 H,0,16.20351763,29.72079699,-0.4835784
 H,0,17.03432371,31.20943176,-0.10044075
 H,0,15.70834431,27.76590573,0.42895726
 H,0,15.7796721,25.94014913,-0.66325656
 H,0,15.83983703,23.22731996,-0.76722379
 H,0,14.14413807,23.75991572,-1.29224454
 H,0,14.40496266,22.38767121,2.1847165
 H,0,12.72578882,22.86277156,2.27258882
 H,0,13.56537574,22.90042963,0.74068075
 H,0,12.86393113,23.74134886,4.37279224
 H,0,11.659085,22.83740957,6.10076944
 H,0,11.61192808,21.79954796,8.371381
 H,0,13.3050211,22.52335386,8.58171649
 H,0,13.14199189,25.8049104,10.00261184
 H,0,11.47553571,25.85315519,9.47948383
 H,0,12.3087638,24.3222186,9.60208389
 H,0,13.59359589,27.80975676,9.11848345
 H,0,16.43637544,31.83901328,5.14010215
 H,0,15.27425597,30.84039471,10.28960789
 H,0,13.56387559,30.78953431,9.93594302
 H,0,14.41906578,29.31716488,10.3281734
 H,0,16.32604873,32.81080885,7.02200217
 H,0,16.32062716,32.42156166,8.72067364
 H,0,14.79033499,34.29503346,8.23985976
 H,0,13.91886706,32.91748397,8.85083989
 H,0,15.03396822,33.81270625,5.62562988
 Recover connectivity data from disk.
 Stoichiometry    C39H38FeN6O5(5)
 Framework group  C1[X(C39H38FeN6O5)]
 Deg. of freedom   261
 Full point group                 C1      NOp   1
 Largest Abelian subgroup         C1      NOp   1
 Largest concise Abelian subgroup C1      NOp   1
                         Standard orientation:                         
 ---------------------------------------------------------------------
 Center     Atomic      Atomic             Coordinates (Angstroms)
 Number     Number       Type             X           Y           Z
 ---------------------------------------------------------------------
      1          6           0       -1.668641   -0.145279    5.292812
      2          6           0       -1.254598   -0.464156    3.872057
      3          7           0       -0.483759   -1.549544    3.561379
      4          6           0       -1.440696    0.196128    2.683998
      5          6           0       -0.249098   -1.484741    2.210824
      6          7           0       -0.821448   -0.449671    1.667667
      7         26           0       -0.723984    0.098720   -0.317666
      8          6           0        2.602199   -0.452503   -0.308600
      9          6           0       -1.288254   -3.183982   -1.130162
     10          6           0       -4.050075    0.662815   -0.381545
     11          6           0       -0.167747    3.346614    0.413137
     12          7           0        0.427754   -1.492778   -0.681890
     13          6           0        1.785478   -1.552720   -0.571465
     14          6           0        2.242471   -2.903006   -0.832461
     15          6           0        1.127798   -3.637650   -1.110093
     16          6           0        0.058414   -2.804100   -0.985911
     17          6           0        1.080326   -5.157057   -1.413901
     18          6           0        3.674702   -3.431078   -0.700846
     19          6           0        3.855934   -4.280191    0.587903
     20          6           0        3.536533   -3.512247    1.829572
     21          8           0        2.595994   -3.898986    2.569866
     22          8           0        4.222159   -2.484528    2.078858
     23          7           0       -2.378579   -0.999116   -0.668528
     24          6           0       -2.422961   -2.382987   -1.014722
     25          6           0       -3.770152   -2.797530   -1.176984
     26          6           0       -4.526313   -1.733658   -0.967353
     27          6           0       -3.654506   -0.603317   -0.652072
     28          6           0       -4.190256   -4.236376   -1.483579
     29          6           0       -6.026696   -1.610473   -1.111223
     30          6           0       -6.680165   -2.342620   -2.045838
     31          7           0       -1.853023    1.642466    0.001596
     32          6           0       -3.276022    1.798386   -0.142558
     33          6           0       -3.726764    3.140054   -0.038615
     34          6           0       -2.619367    3.899004    0.177573
     35          6           0       -1.459521    3.003438    0.203034
     36          6           0       -5.187114    3.592041   -0.158132
     37          6           0       -2.475848    5.397954    0.243669
     38          6           0       -3.575721    6.187318    0.182421
     39          7           0        0.872470    1.209764    0.064770
     40          6           0        0.940568    2.555549    0.357252
     41          6           0        2.315034    3.001552    0.463842
     42          6           0        3.072133    1.942310    0.204909
     43          6           0        2.195439    0.846664   -0.012707
     44          6           0        2.718319    4.445503    0.748162
     45          6           0        4.595561    1.896357    0.035348
     46          6           0        5.017935    2.207241   -1.431061
     47          6           0        6.472441    2.383974   -1.657329
     48          8           0        6.986048    3.473400   -1.294814
     49          8           0        7.048103    1.379372   -2.235236
     50          6           0       -0.707283    0.741667   -2.022664
     51          8           0       -0.696536    1.279695   -2.973117
     52          1           0       -1.836314    0.907229    5.387752
     53          1           0       -2.569273   -0.672632    5.528737
     54          1           0       -0.892990   -0.445045    5.966167
     55          1           0       -0.155767   -2.251803    4.193244
     56          1           0        0.334506   -2.199547    1.669198
     57          1           0       -2.000820    1.101266    2.574979
     58          1           0        5.041394    2.617982    0.687567
     59          1           0        4.947155    0.921234    0.300706
     60          1           0        4.678611    1.405425   -2.053034
     61          1           0        4.521209    3.103767   -1.738317
     62          1           0        7.554201    1.513922   -3.039823
     63          1           0        2.724768    5.000719   -0.166493
     64          1           0        2.017339    4.884539    1.426967
     65          1           0        3.695637    4.463766    1.183381
     66          1           0        0.006582    4.374245    0.654974
     67          1           0       -1.505558    5.838816    0.338950
     68          1           0       -3.864893    6.630747   -0.747445
     69          1           0       -4.154954    6.367134    1.063928
     70          1           0       -5.452571    3.671056   -1.191665
     71          1           0       -5.822415    2.875707    0.319527
     72          1           0       -5.305408    4.544762    0.314339
     73          1           0       -5.108706    0.814244   -0.345925
     74          1           0       -6.572323   -0.945247   -0.475090
     75          1           0       -7.646290   -2.747955   -1.828566
     76          1           0       -6.229988   -2.515355   -3.001036
     77          1           0       -3.495847   -4.671813   -2.171395
     78          1           0       -4.199738   -4.805871   -0.577772
     79          1           0       -5.168989   -4.237723   -1.915991
     80          1           0       -1.463053   -4.215074   -1.356426
     81          1           0        3.657692   -0.625715   -0.337457
     82          1           0        1.925238   -5.427758   -2.012018
     83          1           0        1.103234   -5.705339   -0.495335
     84          1           0        0.179738   -5.386813   -1.944046
     85          1           0        4.350770   -2.602274   -0.670571
     86          1           0        3.902894   -4.036883   -1.552802
     87          1           0        4.870503   -4.616001    0.640649
     88          1           0        3.211609   -5.132707    0.533493
     89          1           0        4.715457   -2.054597    1.376422
 ---------------------------------------------------------------------
 Rotational constants (GHZ):           0.0695993           0.0511366           0.0378352
 Standard basis: def2TZVP (5D, 7F)
 There are  2080 symmetry adapted cartesian basis functions of A   symmetry.
 There are  1823 symmetry adapted basis functions of A   symmetry.
  1823 basis functions,  2956 primitive gaussians,  2080 cartesian basis functions
   192 alpha electrons      188 beta electrons
       nuclear repulsion energy      7864.1666777320 Hartrees.
 NAtoms=   89 NActive=   89 NUniq=   89 SFac= 1.00D+00 NAtFMM=   60 NAOKFM=T Big=T
 Integral buffers will be    131072 words long.
 Raffenetti 2 integral format.
 Two-electron integral symmetry is turned on.
 Nuclear repulsion after empirical dispersion term =     7864.0371318496 Hartrees.
 One-electron integrals computed using PRISM.
   1 Symmetry operations used in ECPInt.
 ECPInt:  NShTT=  257403 NPrTT=  800753 LenC2=  189729 LenP2D=  382375.
 LDataN:  DoStor=T MaxTD1= 6 Len=  172
 NBasis=  1823 RedAO= T EigKep=  2.76D-06  NBF=  1823
 NBsUse=  1823 1.00D-06 EigRej= -1.00D+00 NBFU=  1823
 ExpMin= 4.20D-02 ExpMax= 3.01D+05 ExpMxC= 2.91D+03 IAcc=3 IRadAn=         5 AccDes= 0.00D+00
 Harris functional with IExCor= 1009 and IRadAn=       5 diagonalized for initial guess.
 HarFok:  IExCor= 1009 AccDes= 0.00D+00 IRadAn=         5 IDoV= 1 UseB2=F ITyADJ=14
 ICtDFT=  3500011 ScaDFX=  1.000000  1.000000  1.000000  1.000000
 FoFCou: FMM=F IPFlag=           0 FMFlag=      100000 FMFlg1=        2001
         NFxFlg=           0 DoJE=T BraDBF=F KetDBF=T FulRan=T
         wScrn=  0.000000 ICntrl=       500 IOpCl=  0 I1Cent=   200000004 NGrid=           0
         NMat0=    1 NMatS0=      1 NMatT0=    0 NMatD0=    1 NMtDS0=    0 NMtDT0=    0
 Petite list used in FoFCou.
 Initial guess <Sx>= 0.0000 <Sy>= 0.0000 <Sz>= 2.0000 <S**2>= 6.0000 S= 2.0000
 Requested convergence on RMS density matrix=1.00D-08 within 999 cycles.
 Requested convergence on MAX density matrix=1.00D-06.
 Requested convergence on             energy=1.00D-06.
 No special actions if energy rises.
 EnCoef did   100 forward-backward iterations
 EnCoef did     7 forward-backward iterations
 EnCoef did     3 forward-backward iterations
 EnCoef did     5 forward-backward iterations
 Restarting incremental Fock formation.
 Restarting incremental Fock formation.
 SCF Done:  E(UPBE1PBE) =  -3475.45023686     A.U. after   44 cycles
            NFock= 44  Conv=0.20D-08     -V/T= 2.0031
 <Sx>= 0.0000 <Sy>= 0.0000 <Sz>= 2.0000 <S**2>= 6.1193 S= 2.0238
 <L.S>= 0.000000000000E+00
 Annihilation of the first spin contaminant:
 S**2 before annihilation     6.1193,   after     6.0049

 **********************************************************************

            Population analysis using the SCF density.

 **********************************************************************

 Orbital symmetries:
 Alpha Orbitals:
       Occupied  (A) (A) (A) (A) (A) (A) (A) (A) (A) (A) (A) (A)
                 (A) (A) (A) (A) (A) (A) (A) (A) (A) (A) (A) (A)
                 (A) (A) (A) (A) (A) (A) (A) (A) (A) (A) (A) (A)
                 (A) (A) (A) (A) (A) (A) (A) (A) (A) (A) (A) (A)
                 (A) (A) (A) (A) (A) (A) (A) (A) (A) (A) (A) (A)
                 (A) (A) (A) (A) (A) (A) (A) (A) (A) (A) (A) (A)
                 (A) (A) (A) (A) (A) (A) (A) (A) (A) (A) (A) (A)
                 (A) (A) (A) (A) (A) (A) (A) (A) (A) (A) (A) (A)
                 (A) (A) (A) (A) (A) (A) (A) (A) (A) (A) (A) (A)
                 (A) (A) (A) (A) (A) (A) (A) (A) (A) (A) (A) (A)
                 (A) (A) (A) (A) (A) (A) (A) (A) (A) (A) (A) (A)
                 (A) (A) (A) (A) (A) (A) (A) (A) (A) (A) (A) (A)
                 (A) (A) (A) (A) (A) (A) (A) (A) (A) (A) (A) (A)
                 (A) (A) (A) (A) (A) (A) (A) (A) (A) (A) (A) (A)
                 (A) (A) (A) (A) (A) (A) (A) (A) (A) (A) (A) (A)
                 (A) (A) (A) (A) (A) (A) (A) (A) (A) (A) (A) (A)
       Virtual   (A) (A) (A) (A) (A) (A) (A) (A) (A) (A) (A) (A)
                 (A) (A) (A) (A) (A) (A) (A) (A) (A) (A) (A) (A)
                 (A) (A) (A) (A) (A) (A) (A) (A) (A) (A) (A) (A)
                 (A) (A) (A) (A) (A) (A) (A) (A) (A) (A) (A) (A)
                 (A) (A) (A) (A) (A) (A) (A) (A) (A) (A) (A) (A)
                 (A) (A) (A) (A) (A) (A) (A) (A) (A) (A) (A) (A)
                 (A) (A) (A) (A) (A) (A) (A) (A) (A) (A) (A) (A)
                 (A) (A) (A) (A) (A) (A) (A) (A) (A) (A) (A) (A)
                 (A) (A) (A) (A) (A) (A) (A) (A) (A) (A) (A) (A)
                 (A) (A) (A) (A) (A) (A) (A) (A) (A) (A) (A) (A)
                 (A) (A) (A) (A) (A) (A) (A) (A) (A) (A) (A) (A)
                 (A) (A) (A) (A) (A) (A) (A) (A) (A) (A) (A) (A)
                 (A) (A) (A) (A) (A) (A) (A) (A) (A) (A) (A) (A)
                 (A) (A) (A) (A) (A) (A) (A) (A) (A) (A) (A) (A)
                 (A) (A) (A) (A) (A) (A) (A) (A) (A) (A) (A) (A)
                 (A) (A) (A) (A) (A) (A) (A) (A) (A) (A) (A) (A)
                 (A) (A) (A) (A) (A) (A) (A) (A) (A) (A) (A) (A)
                 (A) (A) (A) (A) (A) (A) (A) (A) (A) (A) (A) (A)
                 (A) (A) (A) (A) (A) (A) (A) (A) (A) (A) (A) (A)
                 (A) (A) (A) (A) (A) (A) (A) (A) (A) (A) (A) (A)
                 (A) (A) (A) (A) (A) (A) (A) (A) (A) (A) (A) (A)
                 (A) (A) (A) (A) (A) (A) (A) (A) (A) (A) (A) (A)
                 (A) (A) (A) (A) (A) (A) (A) (A) (A) (A) (A) (A)
                 (A) (A) (A) (A) (A) (A) (A) (A) (A) (A) (A) (A)
                 (A) (A) (A) (A) (A) (A) (A) (A) (A) (A) (A) (A)
                 (A) (A) (A) (A) (A) (A) (A) (A) (A) (A) (A) (A)
                 (A) (A) (A) (A) (A) (A) (A) (A) (A) (A) (A) (A)
                 (A) (A) (A) (A) (A) (A) (A) (A) (A) (A) (A) (A)
                 (A) (A) (A) (A) (A) (A) (A) (A) (A) (A) (A) (A)
                 (A) (A) (A) (A) (A) (A) (A) (A) (A) (A) (A) (A)
                 (A) (A) (A) (A) (A) (A) (A) (A) (A) (A) (A) (A)
                 (A) (A) (A) (A) (A) (A) (A) (A) (A) (A) (A) (A)
                 (A) (A) (A) (A) (A) (A) (A) (A) (A) (A) (A) (A)
                 (A) (A) (A) (A) (A) (A) (A) (A) (A) (A) (A) (A)
                 (A) (A) (A) (A) (A) (A) (A) (A) (A) (A) (A) (A)
                 (A) (A) (A) (A) (A) (A) (A) (A) (A) (A) (A) (A)
                 (A) (A) (A) (A) (A) (A) (A) (A) (A) (A) (A) (A)
                 (A) (A) (A) (A) (A) (A) (A) (A) (A) (A) (A) (A)
                 (A) (A) (A) (A) (A) (A) (A) (A) (A) (A) (A) (A)
                 (A) (A) (A) (A) (A) (A) (A) (A) (A) (A) (A) (A)
                 (A) (A) (A) (A) (A) (A) (A) (A) (A) (A) (A) (A)
                 (A) (A) (A) (A) (A) (A) (A) (A) (A) (A) (A) (A)
                 (A) (A) (A) (A) (A) (A) (A) (A) (A) (A) (A) (A)
                 (A) (A) (A) (A) (A) (A) (A) (A) (A) (A) (A) (A)
                 (A) (A) (A) (A) (A) (A) (A) (A) (A) (A) (A) (A)
                 (A) (A) (A) (A) (A) (A) (A) (A) (A) (A) (A) (A)
                 (A) (A) (A) (A) (A) (A) (A) (A) (A) (A) (A) (A)
                 (A) (A) (A) (A) (A) (A) (A) (A) (A) (A) (A) (A)
                 (A) (A) (A) (A) (A) (A) (A) (A) (A) (A) (A) (A)
                 (A) (A) (A) (A) (A) (A) (A) (A) (A) (A) (A) (A)
                 (A) (A) (A) (A) (A) (A) (A) (A) (A) (A) (A) (A)
                 (A) (A) (A) (A) (A) (A) (A) (A) (A) (A) (A) (A)
                 (A) (A) (A) (A) (A) (A) (A) (A) (A) (A) (A) (A)
                 (A) (A) (A) (A) (A) (A) (A) (A) (A) (A) (A) (A)
                 (A) (A) (A) (A) (A) (A) (A) (A) (A) (A) (A) (A)
                 (A) (A) (A) (A) (A) (A) (A) (A) (A) (A) (A) (A)
                 (A) (A) (A) (A) (A) (A) (A) (A) (A) (A) (A) (A)
                 (A) (A) (A) (A) (A) (A) (A) (A) (A) (A) (A) (A)
                 (A) (A) (A) (A) (A) (A) (A) (A) (A) (A) (A) (A)
                 (A) (A) (A) (A) (A) (A) (A) (A) (A) (A) (A) (A)
                 (A) (A) (A) (A) (A) (A) (A) (A) (A) (A) (A) (A)
                 (A) (A) (A) (A) (A) (A) (A) (A) (A) (A) (A) (A)
                 (A) (A) (A) (A) (A) (A) (A) (A) (A) (A) (A) (A)
                 (A) (A) (A) (A) (A) (A) (A) (A) (A) (A) (A) (A)
                 (A) (A) (A) (A) (A) (A) (A) (A) (A) (A) (A) (A)
                 (A) (A) (A) (A) (A) (A) (A) (A) (A) (A) (A) (A)
                 (A) (A) (A) (A) (A) (A) (A) (A) (A) (A) (A) (A)
                 (A) (A) (A) (A) (A) (A) (A) (A) (A) (A) (A) (A)
                 (A) (A) (A) (A) (A) (A) (A) (A) (A) (A) (A) (A)
                 (A) (A) (A) (A) (A) (A) (A) (A) (A) (A) (A) (A)
                 (A) (A) (A) (A) (A) (A) (A) (A) (A) (A) (A) (A)
                 (A) (A) (A) (A) (A) (A) (A) (A) (A) (A) (A) (A)
                 (A) (A) (A) (A) (A) (A) (A) (A) (A) (A) (A) (A)
                 (A) (A) (A) (A) (A) (A) (A) (A) (A) (A) (A) (A)
                 (A) (A) (A) (A) (A) (A) (A) (A) (A) (A) (A) (A)
                 (A) (A) (A) (A) (A) (A) (A) (A) (A) (A) (A) (A)
                 (A) (A) (A) (A) (A) (A) (A) (A) (A) (A) (A) (A)
                 (A) (A) (A) (A) (A) (A) (A) (A) (A) (A) (A) (A)
                 (A) (A) (A) (A) (A) (A) (A) (A) (A) (A) (A) (A)
                 (A) (A) (A) (A) (A) (A) (A) (A) (A) (A) (A) (A)
                 (A) (A) (A) (A) (A) (A) (A) (A) (A) (A) (A) (A)
                 (A) (A) (A) (A) (A) (A) (A) (A) (A) (A) (A) (A)
                 (A) (A) (A) (A) (A) (A) (A) (A) (A) (A) (A) (A)
                 (A) (A) (A) (A) (A) (A) (A) (A) (A) (A) (A) (A)
                 (A) (A) (A) (A) (A) (A) (A) (A) (A) (A) (A) (A)
                 (A) (A) (A) (A) (A) (A) (A) (A) (A) (A) (A) (A)
                 (A) (A) (A) (A) (A) (A) (A) (A) (A) (A) (A) (A)
                 (A) (A) (A) (A) (A) (A) (A) (A) (A) (A) (A) (A)
                 (A) (A) (A) (A) (A) (A) (A) (A) (A) (A) (A) (A)
                 (A) (A) (A) (A) (A) (A) (A) (A) (A) (A) (A) (A)
                 (A) (A) (A) (A) (A) (A) (A) (A) (A) (A) (A) (A)
                 (A) (A) (A) (A) (A) (A) (A) (A) (A) (A) (A) (A)
                 (A) (A) (A) (A) (A) (A) (A) (A) (A) (A) (A) (A)
                 (A) (A) (A) (A) (A) (A) (A) (A) (A) (A) (A) (A)
                 (A) (A) (A) (A) (A) (A) (A) (A) (A) (A) (A) (A)
                 (A) (A) (A) (A) (A) (A) (A) (A) (A) (A) (A) (A)
                 (A) (A) (A) (A) (A) (A) (A) (A) (A) (A) (A) (A)
                 (A) (A) (A) (A) (A) (A) (A) (A) (A) (A) (A) (A)
                 (A) (A) (A) (A) (A) (A) (A) (A) (A) (A) (A) (A)
                 (A) (A) (A) (A) (A) (A) (A) (A) (A) (A) (A) (A)
                 (A) (A) (A) (A) (A) (A) (A) (A) (A) (A) (A) (A)
                 (A) (A) (A) (A) (A) (A) (A) (A) (A) (A) (A) (A)
                 (A) (A) (A) (A) (A) (A) (A) (A) (A) (A) (A) (A)
                 (A) (A) (A) (A) (A) (A) (A) (A) (A) (A) (A) (A)
                 (A) (A) (A) (A) (A) (A) (A) (A) (A) (A) (A) (A)
                 (A) (A) (A) (A) (A) (A) (A) (A) (A) (A) (A) (A)
                 (A) (A) (A) (A) (A) (A) (A) (A) (A) (A) (A) (A)
                 (A) (A) (A) (A) (A) (A) (A) (A) (A) (A) (A) (A)
                 (A) (A) (A) (A) (A) (A) (A) (A) (A) (A) (A) (A)
                 (A) (A) (A) (A) (A) (A) (A) (A) (A) (A) (A) (A)
                 (A) (A) (A) (A) (A) (A) (A) (A) (A) (A) (A) (A)
                 (A) (A) (A) (A) (A) (A) (A) (A) (A) (A) (A) (A)
                 (A) (A) (A) (A) (A) (A) (A) (A) (A) (A) (A) (A)
                 (A) (A) (A) (A) (A) (A) (A) (A) (A) (A) (A) (A)
                 (A) (A) (A) (A) (A) (A) (A) (A) (A) (A) (A) (A)
                 (A) (A) (A) (A) (A) (A) (A) (A) (A) (A) (A) (A)
                 (A) (A) (A) (A) (A) (A) (A) (A) (A) (A) (A) (A)
                 (A) (A) (A) (A) (A) (A) (A) (A) (A) (A) (A) (A)
                 (A) (A) (A) (A) (A) (A) (A) (A) (A) (A) (A) (A)
                 (A) (A) (A) (A) (A) (A) (A) (A) (A) (A) (A) (A)
                 (A) (A) (A) (A) (A) (A) (A) (A) (A) (A) (A) (A)
                 (A) (A) (A) (A) (A) (A) (A) (A) (A) (A) (A) (A)
                 (A) (A) (A) (A) (A) (A) (A) (A) (A) (A) (A) (A)
                 (A) (A) (A) (A) (A) (A) (A) (A) (A) (A) (A) (A)
                 (A) (A) (A) (A) (A) (A) (A) (A) (A) (A) (A) (A)
                 (A) (A) (A) (A) (A) (A) (A) (A) (A) (A) (A) (A)
                 (A) (A) (A) (A) (A) (A) (A) (A) (A) (A) (A) (A)
                 (A) (A) (A) (A) (A) (A) (A) (A) (A) (A) (A) (A)
                 (A) (A) (A) (A) (A) (A) (A) (A) (A) (A) (A) (A)
                 (A) (A) (A) (A) (A) (A) (A) (A) (A) (A) (A) (A)
                 (A) (A) (A) (A) (A) (A) (A) (A) (A) (A) (A) (A)
                 (A) (A) (A) (A) (A) (A) (A) (A) (A) (A) (A) (A)
                 (A) (A) (A) (A) (A) (A) (A) (A) (A) (A) (A) (A)
                 (A) (A) (A) (A) (A) (A) (A) (A) (A) (A) (A) (A)
                 (A) (A) (A) (A) (A) (A) (A) (A) (A) (A) (A) (A)
                 (A) (A) (A) (A) (A) (A) (A) (A) (A) (A) (A)
 Beta  Orbitals:
       Occupied  (A) (A) (A) (A) (A) (A) (A) (A) (A) (A) (A) (A)
                 (A) (A) (A) (A) (A) (A) (A) (A) (A) (A) (A) (A)
                 (A) (A) (A) (A) (A) (A) (A) (A) (A) (A) (A) (A)
                 (A) (A) (A) (A) (A) (A) (A) (A) (A) (A) (A) (A)
                 (A) (A) (A) (A) (A) (A) (A) (A) (A) (A) (A) (A)
                 (A) (A) (A) (A) (A) (A) (A) (A) (A) (A) (A) (A)
                 (A) (A) (A) (A) (A) (A) (A) (A) (A) (A) (A) (A)
                 (A) (A) (A) (A) (A) (A) (A) (A) (A) (A) (A) (A)
                 (A) (A) (A) (A) (A) (A) (A) (A) (A) (A) (A) (A)
                 (A) (A) (A) (A) (A) (A) (A) (A) (A) (A) (A) (A)
                 (A) (A) (A) (A) (A) (A) (A) (A) (A) (A) (A) (A)
                 (A) (A) (A) (A) (A) (A) (A) (A) (A) (A) (A) (A)
                 (A) (A) (A) (A) (A) (A) (A) (A) (A) (A) (A) (A)
                 (A) (A) (A) (A) (A) (A) (A) (A) (A) (A) (A) (A)
                 (A) (A) (A) (A) (A) (A) (A) (A) (A) (A) (A) (A)
                 (A) (A) (A) (A) (A) (A) (A) (A)
       Virtual   (A) (A) (A) (A) (A) (A) (A) (A) (A) (A) (A) (A)
                 (A) (A) (A) (A) (A) (A) (A) (A) (A) (A) (A) (A)
                 (A) (A) (A) (A) (A) (A) (A) (A) (A) (A) (A) (A)
                 (A) (A) (A) (A) (A) (A) (A) (A) (A) (A) (A) (A)
                 (A) (A) (A) (A) (A) (A) (A) (A) (A) (A) (A) (A)
                 (A) (A) (A) (A) (A) (A) (A) (A) (A) (A) (A) (A)
                 (A) (A) (A) (A) (A) (A) (A) (A) (A) (A) (A) (A)
                 (A) (A) (A) (A) (A) (A) (A) (A) (A) (A) (A) (A)
                 (A) (A) (A) (A) (A) (A) (A) (A) (A) (A) (A) (A)
                 (A) (A) (A) (A) (A) (A) (A) (A) (A) (A) (A) (A)
                 (A) (A) (A) (A) (A) (A) (A) (A) (A) (A) (A) (A)
                 (A) (A) (A) (A) (A) (A) (A) (A) (A) (A) (A) (A)
                 (A) (A) (A) (A) (A) (A) (A) (A) (A) (A) (A) (A)
                 (A) (A) (A) (A) (A) (A) (A) (A) (A) (A) (A) (A)
                 (A) (A) (A) (A) (A) (A) (A) (A) (A) (A) (A) (A)
                 (A) (A) (A) (A) (A) (A) (A) (A) (A) (A) (A) (A)
                 (A) (A) (A) (A) (A) (A) (A) (A) (A) (A) (A) (A)
                 (A) (A) (A) (A) (A) (A) (A) (A) (A) (A) (A) (A)
                 (A) (A) (A) (A) (A) (A) (A) (A) (A) (A) (A) (A)
                 (A) (A) (A) (A) (A) (A) (A) (A) (A) (A) (A) (A)
                 (A) (A) (A) (A) (A) (A) (A) (A) (A) (A) (A) (A)
                 (A) (A) (A) (A) (A) (A) (A) (A) (A) (A) (A) (A)
                 (A) (A) (A) (A) (A) (A) (A) (A) (A) (A) (A) (A)
                 (A) (A) (A) (A) (A) (A) (A) (A) (A) (A) (A) (A)
                 (A) (A) (A) (A) (A) (A) (A) (A) (A) (A) (A) (A)
                 (A) (A) (A) (A) (A) (A) (A) (A) (A) (A) (A) (A)
                 (A) (A) (A) (A) (A) (A) (A) (A) (A) (A) (A) (A)
                 (A) (A) (A) (A) (A) (A) (A) (A) (A) (A) (A) (A)
                 (A) (A) (A) (A) (A) (A) (A) (A) (A) (A) (A) (A)
                 (A) (A) (A) (A) (A) (A) (A) (A) (A) (A) (A) (A)
                 (A) (A) (A) (A) (A) (A) (A) (A) (A) (A) (A) (A)
                 (A) (A) (A) (A) (A) (A) (A) (A) (A) (A) (A) (A)
                 (A) (A) (A) (A) (A) (A) (A) (A) (A) (A) (A) (A)
                 (A) (A) (A) (A) (A) (A) (A) (A) (A) (A) (A) (A)
                 (A) (A) (A) (A) (A) (A) (A) (A) (A) (A) (A) (A)
                 (A) (A) (A) (A) (A) (A) (A) (A) (A) (A) (A) (A)
                 (A) (A) (A) (A) (A) (A) (A) (A) (A) (A) (A) (A)
                 (A) (A) (A) (A) (A) (A) (A) (A) (A) (A) (A) (A)
                 (A) (A) (A) (A) (A) (A) (A) (A) (A) (A) (A) (A)
                 (A) (A) (A) (A) (A) (A) (A) (A) (A) (A) (A) (A)
                 (A) (A) (A) (A) (A) (A) (A) (A) (A) (A) (A) (A)
                 (A) (A) (A) (A) (A) (A) (A) (A) (A) (A) (A) (A)
                 (A) (A) (A) (A) (A) (A) (A) (A) (A) (A) (A) (A)
                 (A) (A) (A) (A) (A) (A) (A) (A) (A) (A) (A) (A)
                 (A) (A) (A) (A) (A) (A) (A) (A) (A) (A) (A) (A)
                 (A) (A) (A) (A) (A) (A) (A) (A) (A) (A) (A) (A)
                 (A) (A) (A) (A) (A) (A) (A) (A) (A) (A) (A) (A)
                 (A) (A) (A) (A) (A) (A) (A) (A) (A) (A) (A) (A)
                 (A) (A) (A) (A) (A) (A) (A) (A) (A) (A) (A) (A)
                 (A) (A) (A) (A) (A) (A) (A) (A) (A) (A) (A) (A)
                 (A) (A) (A) (A) (A) (A) (A) (A) (A) (A) (A) (A)
                 (A) (A) (A) (A) (A) (A) (A) (A) (A) (A) (A) (A)
                 (A) (A) (A) (A) (A) (A) (A) (A) (A) (A) (A) (A)
                 (A) (A) (A) (A) (A) (A) (A) (A) (A) (A) (A) (A)
                 (A) (A) (A) (A) (A) (A) (A) (A) (A) (A) (A) (A)
                 (A) (A) (A) (A) (A) (A) (A) (A) (A) (A) (A) (A)
                 (A) (A) (A) (A) (A) (A) (A) (A) (A) (A) (A) (A)
                 (A) (A) (A) (A) (A) (A) (A) (A) (A) (A) (A) (A)
                 (A) (A) (A) (A) (A) (A) (A) (A) (A) (A) (A) (A)
                 (A) (A) (A) (A) (A) (A) (A) (A) (A) (A) (A) (A)
                 (A) (A) (A) (A) (A) (A) (A) (A) (A) (A) (A) (A)
                 (A) (A) (A) (A) (A) (A) (A) (A) (A) (A) (A) (A)
                 (A) (A) (A) (A) (A) (A) (A) (A) (A) (A) (A) (A)
                 (A) (A) (A) (A) (A) (A) (A) (A) (A) (A) (A) (A)
                 (A) (A) (A) (A) (A) (A) (A) (A) (A) (A) (A) (A)
                 (A) (A) (A) (A) (A) (A) (A) (A) (A) (A) (A) (A)
                 (A) (A) (A) (A) (A) (A) (A) (A) (A) (A) (A) (A)
                 (A) (A) (A) (A) (A) (A) (A) (A) (A) (A) (A) (A)
                 (A) (A) (A) (A) (A) (A) (A) (A) (A) (A) (A) (A)
                 (A) (A) (A) (A) (A) (A) (A) (A) (A) (A) (A) (A)
                 (A) (A) (A) (A) (A) (A) (A) (A) (A) (A) (A) (A)
                 (A) (A) (A) (A) (A) (A) (A) (A) (A) (A) (A) (A)
                 (A) (A) (A) (A) (A) (A) (A) (A) (A) (A) (A) (A)
                 (A) (A) (A) (A) (A) (A) (A) (A) (A) (A) (A) (A)
                 (A) (A) (A) (A) (A) (A) (A) (A) (A) (A) (A) (A)
                 (A) (A) (A) (A) (A) (A) (A) (A) (A) (A) (A) (A)
                 (A) (A) (A) (A) (A) (A) (A) (A) (A) (A) (A) (A)
                 (A) (A) (A) (A) (A) (A) (A) (A) (A) (A) (A) (A)
                 (A) (A) (A) (A) (A) (A) (A) (A) (A) (A) (A) (A)
                 (A) (A) (A) (A) (A) (A) (A) (A) (A) (A) (A) (A)
                 (A) (A) (A) (A) (A) (A) (A) (A) (A) (A) (A) (A)
                 (A) (A) (A) (A) (A) (A) (A) (A) (A) (A) (A) (A)
                 (A) (A) (A) (A) (A) (A) (A) (A) (A) (A) (A) (A)
                 (A) (A) (A) (A) (A) (A) (A) (A) (A) (A) (A) (A)
                 (A) (A) (A) (A) (A) (A) (A) (A) (A) (A) (A) (A)
                 (A) (A) (A) (A) (A) (A) (A) (A) (A) (A) (A) (A)
                 (A) (A) (A) (A) (A) (A) (A) (A) (A) (A) (A) (A)
                 (A) (A) (A) (A) (A) (A) (A) (A) (A) (A) (A) (A)
                 (A) (A) (A) (A) (A) (A) (A) (A) (A) (A) (A) (A)
                 (A) (A) (A) (A) (A) (A) (A) (A) (A) (A) (A) (A)
                 (A) (A) (A) (A) (A) (A) (A) (A) (A) (A) (A) (A)
                 (A) (A) (A) (A) (A) (A) (A) (A) (A) (A) (A) (A)
                 (A) (A) (A) (A) (A) (A) (A) (A) (A) (A) (A) (A)
                 (A) (A) (A) (A) (A) (A) (A) (A) (A) (A) (A) (A)
                 (A) (A) (A) (A) (A) (A) (A) (A) (A) (A) (A) (A)
                 (A) (A) (A) (A) (A) (A) (A) (A) (A) (A) (A) (A)
                 (A) (A) (A) (A) (A) (A) (A) (A) (A) (A) (A) (A)
                 (A) (A) (A) (A) (A) (A) (A) (A) (A) (A) (A) (A)
                 (A) (A) (A) (A) (A) (A) (A) (A) (A) (A) (A) (A)
                 (A) (A) (A) (A) (A) (A) (A) (A) (A) (A) (A) (A)
                 (A) (A) (A) (A) (A) (A) (A) (A) (A) (A) (A) (A)
                 (A) (A) (A) (A) (A) (A) (A) (A) (A) (A) (A) (A)
                 (A) (A) (A) (A) (A) (A) (A) (A) (A) (A) (A) (A)
                 (A) (A) (A) (A) (A) (A) (A) (A) (A) (A) (A) (A)
                 (A) (A) (A) (A) (A) (A) (A) (A) (A) (A) (A) (A)
                 (A) (A) (A) (A) (A) (A) (A) (A) (A) (A) (A) (A)
                 (A) (A) (A) (A) (A) (A) (A) (A) (A) (A) (A) (A)
                 (A) (A) (A) (A) (A) (A) (A) (A) (A) (A) (A) (A)
                 (A) (A) (A) (A) (A) (A) (A) (A) (A) (A) (A) (A)
                 (A) (A) (A) (A) (A) (A) (A) (A) (A) (A) (A) (A)
                 (A) (A) (A) (A) (A) (A) (A) (A) (A) (A) (A) (A)
                 (A) (A) (A) (A) (A) (A) (A) (A) (A) (A) (A) (A)
                 (A) (A) (A) (A) (A) (A) (A) (A) (A) (A) (A) (A)
                 (A) (A) (A) (A) (A) (A) (A) (A) (A) (A) (A) (A)
                 (A) (A) (A) (A) (A) (A) (A) (A) (A) (A) (A) (A)
                 (A) (A) (A) (A) (A) (A) (A) (A) (A) (A) (A) (A)
                 (A) (A) (A) (A) (A) (A) (A) (A) (A) (A) (A) (A)
                 (A) (A) (A) (A) (A) (A) (A) (A) (A) (A) (A) (A)
                 (A) (A) (A) (A) (A) (A) (A) (A) (A) (A) (A) (A)
                 (A) (A) (A) (A) (A) (A) (A) (A) (A) (A) (A) (A)
                 (A) (A) (A) (A) (A) (A) (A) (A) (A) (A) (A) (A)
                 (A) (A) (A) (A) (A) (A) (A) (A) (A) (A) (A) (A)
                 (A) (A) (A) (A) (A) (A) (A) (A) (A) (A) (A) (A)
                 (A) (A) (A) (A) (A) (A) (A) (A) (A) (A) (A) (A)
                 (A) (A) (A) (A) (A) (A) (A) (A) (A) (A) (A) (A)
                 (A) (A) (A) (A) (A) (A) (A) (A) (A) (A) (A) (A)
                 (A) (A) (A) (A) (A) (A) (A) (A) (A) (A) (A) (A)
                 (A) (A) (A) (A) (A) (A) (A) (A) (A) (A) (A) (A)
                 (A) (A) (A) (A) (A) (A) (A) (A) (A) (A) (A) (A)
                 (A) (A) (A) (A) (A) (A) (A) (A) (A) (A) (A) (A)
                 (A) (A) (A) (A) (A) (A) (A) (A) (A) (A) (A) (A)
                 (A) (A) (A) (A) (A) (A) (A) (A) (A) (A) (A) (A)
                 (A) (A) (A) (A) (A) (A) (A) (A) (A) (A) (A) (A)
                 (A) (A) (A) (A) (A) (A) (A) (A) (A) (A) (A) (A)
                 (A) (A) (A) (A) (A) (A) (A) (A) (A) (A) (A) (A)
                 (A) (A) (A) (A) (A) (A) (A) (A) (A) (A) (A) (A)
                 (A) (A) (A)
 The electronic state is 5-A.
 Alpha  occ. eigenvalues -- -256.34168 -30.13900 -25.96489 -25.96270 -25.95291
 Alpha  occ. eigenvalues --  -19.27554 -19.27363 -19.26618 -19.19163 -19.18108
 Alpha  occ. eigenvalues --  -14.44267 -14.39331 -14.38034 -14.36637 -14.36620
 Alpha  occ. eigenvalues --  -14.36426 -10.36103 -10.35680 -10.31214 -10.27555
 Alpha  occ. eigenvalues --  -10.26089 -10.25101 -10.24997 -10.24685 -10.24558
 Alpha  occ. eigenvalues --  -10.24410 -10.24294 -10.24133 -10.23876 -10.23761
 Alpha  occ. eigenvalues --  -10.23662 -10.23658 -10.23593 -10.23498 -10.23074
 Alpha  occ. eigenvalues --  -10.23043 -10.22994 -10.22920 -10.22848 -10.22365
 Alpha  occ. eigenvalues --  -10.22302 -10.22258 -10.22023 -10.22023 -10.21937
 Alpha  occ. eigenvalues --  -10.21796 -10.21748 -10.21696 -10.21665 -10.21392
 Alpha  occ. eigenvalues --  -10.21237 -10.21021 -10.20959 -10.20765 -10.20633
 Alpha  occ. eigenvalues --   -3.52500  -2.29984  -2.29715  -2.25496  -1.18752
 Alpha  occ. eigenvalues --   -1.17161  -1.15490  -1.05701  -1.03364  -1.02741
 Alpha  occ. eigenvalues --   -0.98100  -0.97198  -0.96884  -0.95271  -0.91835
 Alpha  occ. eigenvalues --   -0.84343  -0.84173  -0.84042  -0.83369  -0.82479
 Alpha  occ. eigenvalues --   -0.81330  -0.80896  -0.80204  -0.79765  -0.78964
 Alpha  occ. eigenvalues --   -0.78379  -0.76692  -0.75332  -0.74296  -0.73056
 Alpha  occ. eigenvalues --   -0.72570  -0.72408  -0.71553  -0.70277  -0.70127
 Alpha  occ. eigenvalues --   -0.69706  -0.67770  -0.66013  -0.65818  -0.65112
 Alpha  occ. eigenvalues --   -0.64757  -0.62577  -0.61181  -0.60568  -0.59688
 Alpha  occ. eigenvalues --   -0.57601  -0.57335  -0.56768  -0.56224  -0.55598
 Alpha  occ. eigenvalues --   -0.54946  -0.54601  -0.54157  -0.52562  -0.52222
 Alpha  occ. eigenvalues --   -0.51946  -0.51490  -0.50918  -0.50468  -0.49823
 Alpha  occ. eigenvalues --   -0.49218  -0.49004  -0.48769  -0.48659  -0.48398
 Alpha  occ. eigenvalues --   -0.48075  -0.47835  -0.47538  -0.47329  -0.47123
 Alpha  occ. eigenvalues --   -0.46097  -0.45789  -0.45590  -0.45237  -0.44730
 Alpha  occ. eigenvalues --   -0.44482  -0.44389  -0.44088  -0.44056  -0.43690
 Alpha  occ. eigenvalues --   -0.43431  -0.43382  -0.43250  -0.42905  -0.42790
 Alpha  occ. eigenvalues --   -0.42701  -0.42275  -0.42127  -0.41775  -0.41387
 Alpha  occ. eigenvalues --   -0.41170  -0.41082  -0.40682  -0.40467  -0.40336
 Alpha  occ. eigenvalues --   -0.39981  -0.39535  -0.39382  -0.39072  -0.38736
 Alpha  occ. eigenvalues --   -0.38403  -0.38305  -0.38053  -0.37879  -0.37712
 Alpha  occ. eigenvalues --   -0.37260  -0.37077  -0.36776  -0.36384  -0.35605
 Alpha  occ. eigenvalues --   -0.35273  -0.35114  -0.34870  -0.33466  -0.33124
 Alpha  occ. eigenvalues --   -0.32963  -0.32769  -0.32377  -0.31269  -0.30635
 Alpha  occ. eigenvalues --   -0.29702  -0.29018  -0.28801  -0.28611  -0.28496
 Alpha  occ. eigenvalues --   -0.28014  -0.26610  -0.26252  -0.23724  -0.23428
 Alpha  occ. eigenvalues --   -0.23150  -0.22432  -0.21986  -0.20276  -0.19175
 Alpha  occ. eigenvalues --   -0.17251  -0.15907
 Alpha virt. eigenvalues --   -0.07591  -0.06608  -0.02693  -0.02130  -0.01664
 Alpha virt. eigenvalues --   -0.00285   0.00349   0.00567   0.02153   0.02684
 Alpha virt. eigenvalues --    0.02959   0.03183   0.03597   0.04479   0.04653
 Alpha virt. eigenvalues --    0.04862   0.05219   0.05658   0.06093   0.06953
 Alpha virt. eigenvalues --    0.07150   0.07430   0.07528   0.07699   0.08220
 Alpha virt. eigenvalues --    0.08346   0.08622   0.09206   0.09512   0.09618
 Alpha virt. eigenvalues --    0.09841   0.10040   0.10660   0.11168   0.11196
 Alpha virt. eigenvalues --    0.11453   0.11622   0.11912   0.12221   0.12306
 Alpha virt. eigenvalues --    0.12791   0.12840   0.13028   0.13281   0.13458
 Alpha virt. eigenvalues --    0.13622   0.13802   0.14168   0.14245   0.14434
 Alpha virt. eigenvalues --    0.14648   0.14721   0.14859   0.15089   0.15338
 Alpha virt. eigenvalues --    0.15377   0.15415   0.15787   0.16149   0.16702
 Alpha virt. eigenvalues --    0.16813   0.17017   0.17314   0.17681   0.17825
 Alpha virt. eigenvalues --    0.18092   0.18229   0.18648   0.18685   0.18971
 Alpha virt. eigenvalues --    0.18997   0.19259   0.19532   0.19810   0.19971
 Alpha virt. eigenvalues --    0.20333   0.20447   0.20525   0.21006   0.21358
 Alpha virt. eigenvalues --    0.21541   0.21655   0.21797   0.22052   0.22206
 Alpha virt. eigenvalues --    0.22539   0.22621   0.23052   0.23150   0.23341
 Alpha virt. eigenvalues --    0.23645   0.24244   0.24287   0.24543   0.24665
 Alpha virt. eigenvalues --    0.24966   0.25035   0.25347   0.25661   0.25831
 Alpha virt. eigenvalues --    0.25931   0.26201   0.26519   0.26690   0.26995
 Alpha virt. eigenvalues --    0.27060   0.27395   0.27651   0.27783   0.27876
 Alpha virt. eigenvalues --    0.28188   0.28413   0.28639   0.28953   0.29297
 Alpha virt. eigenvalues --    0.29423   0.29692   0.29891   0.30209   0.30317
 Alpha virt. eigenvalues --    0.30608   0.30961   0.31127   0.31288   0.31504
 Alpha virt. eigenvalues --    0.31692   0.31864   0.32151   0.32641   0.32986
 Alpha virt. eigenvalues --    0.33124   0.33229   0.33414   0.33640   0.34052
 Alpha virt. eigenvalues --    0.34300   0.34675   0.34775   0.35161   0.35306
 Alpha virt. eigenvalues --    0.35353   0.35847   0.36164   0.36713   0.36759
 Alpha virt. eigenvalues --    0.36857   0.37248   0.37448   0.37673   0.37693
 Alpha virt. eigenvalues --    0.37956   0.38252   0.38500   0.38624   0.38869
 Alpha virt. eigenvalues --    0.39064   0.39265   0.39485   0.39510   0.39693
 Alpha virt. eigenvalues --    0.40107   0.40266   0.40473   0.40693   0.41005
 Alpha virt. eigenvalues --    0.41283   0.41303   0.41553   0.41638   0.41888
 Alpha virt. eigenvalues --    0.42214   0.42371   0.42405   0.42750   0.42796
 Alpha virt. eigenvalues --    0.42984   0.43118   0.43206   0.43447   0.43720
 Alpha virt. eigenvalues --    0.43853   0.43947   0.44245   0.44342   0.44575
 Alpha virt. eigenvalues --    0.44679   0.44869   0.45069   0.45202   0.45516
 Alpha virt. eigenvalues --    0.45669   0.45805   0.45990   0.46222   0.46380
 Alpha virt. eigenvalues --    0.46663   0.46901   0.46972   0.47239   0.47330
 Alpha virt. eigenvalues --    0.47558   0.47647   0.47779   0.47840   0.48100
 Alpha virt. eigenvalues --    0.48474   0.48682   0.48766   0.49084   0.49096
 Alpha virt. eigenvalues --    0.49430   0.49505   0.49815   0.49887   0.49975
 Alpha virt. eigenvalues --    0.50120   0.50534   0.50722   0.50813   0.50909
 Alpha virt. eigenvalues --    0.51452   0.51732   0.51899   0.52215   0.52337
 Alpha virt. eigenvalues --    0.52543   0.52709   0.52923   0.53149   0.53370
 Alpha virt. eigenvalues --    0.53500   0.53689   0.54252   0.54375   0.54626
 Alpha virt. eigenvalues --    0.54837   0.55237   0.55493   0.55578   0.55730
 Alpha virt. eigenvalues --    0.56027   0.56278   0.56363   0.56855   0.57158
 Alpha virt. eigenvalues --    0.57231   0.57623   0.57739   0.58108   0.58163
 Alpha virt. eigenvalues --    0.58367   0.58576   0.58795   0.58893   0.59081
 Alpha virt. eigenvalues --    0.59463   0.59917   0.60051   0.60480   0.60795
 Alpha virt. eigenvalues --    0.60878   0.61063   0.61345   0.61544   0.61783
 Alpha virt. eigenvalues --    0.61869   0.62339   0.62446   0.62570   0.63118
 Alpha virt. eigenvalues --    0.63396   0.63578   0.63795   0.63948   0.64136
 Alpha virt. eigenvalues --    0.64378   0.64621   0.64762   0.65157   0.65699
 Alpha virt. eigenvalues --    0.65784   0.66152   0.66267   0.66377   0.66701
 Alpha virt. eigenvalues --    0.67027   0.67384   0.67802   0.67855   0.68108
 Alpha virt. eigenvalues --    0.68318   0.68753   0.69101   0.69208   0.69710
 Alpha virt. eigenvalues --    0.69842   0.70230   0.70708   0.70922   0.71145
 Alpha virt. eigenvalues --    0.71405   0.71467   0.71941   0.72027   0.72082
 Alpha virt. eigenvalues --    0.72407   0.72460   0.72713   0.72943   0.73534
 Alpha virt. eigenvalues --    0.73984   0.74233   0.74462   0.74572   0.74867
 Alpha virt. eigenvalues --    0.75251   0.75568   0.75732   0.76412   0.76655
 Alpha virt. eigenvalues --    0.77071   0.77340   0.77486   0.77759   0.78237
 Alpha virt. eigenvalues --    0.78321   0.78541   0.79030   0.79124   0.79750
 Alpha virt. eigenvalues --    0.80473   0.80484   0.80705   0.80983   0.81466
 Alpha virt. eigenvalues --    0.81644   0.82099   0.82159   0.82552   0.82818
 Alpha virt. eigenvalues --    0.83272   0.83532   0.83723   0.83881   0.84194
 Alpha virt. eigenvalues --    0.84505   0.84925   0.85195   0.85289   0.85671
 Alpha virt. eigenvalues --    0.85907   0.86308   0.86572   0.86809   0.87182
 Alpha virt. eigenvalues --    0.87713   0.87749   0.88213   0.88415   0.88737
 Alpha virt. eigenvalues --    0.89048   0.89107   0.89681   0.90328   0.90411
 Alpha virt. eigenvalues --    0.91003   0.91105   0.91505   0.91604   0.92123
 Alpha virt. eigenvalues --    0.92192   0.92613   0.92935   0.93199   0.93431
 Alpha virt. eigenvalues --    0.93557   0.94023   0.94302   0.94371   0.94783
 Alpha virt. eigenvalues --    0.95029   0.95179   0.95363   0.95589   0.96040
 Alpha virt. eigenvalues --    0.96354   0.96566   0.96774   0.96917   0.97096
 Alpha virt. eigenvalues --    0.97387   0.97863   0.97982   0.98323   0.98707
 Alpha virt. eigenvalues --    0.98973   0.99160   0.99344   0.99525   1.00056
 Alpha virt. eigenvalues --    1.00267   1.00410   1.00843   1.00937   1.01281
 Alpha virt. eigenvalues --    1.01627   1.01921   1.02193   1.02263   1.02738
 Alpha virt. eigenvalues --    1.02812   1.03461   1.03723   1.04096   1.04315
 Alpha virt. eigenvalues --    1.04397   1.05103   1.05719   1.06093   1.06350
 Alpha virt. eigenvalues --    1.06582   1.06959   1.07577   1.07847   1.08094
 Alpha virt. eigenvalues --    1.08479   1.08755   1.09234   1.09463   1.09674
 Alpha virt. eigenvalues --    1.09827   1.10054   1.10412   1.10668   1.11078
 Alpha virt. eigenvalues --    1.11347   1.12057   1.12337   1.12757   1.12865
 Alpha virt. eigenvalues --    1.13143   1.13274   1.14014   1.14770   1.15057
 Alpha virt. eigenvalues --    1.15326   1.15777   1.16258   1.16378   1.16613
 Alpha virt. eigenvalues --    1.17290   1.17489   1.17506   1.17915   1.18331
 Alpha virt. eigenvalues --    1.18544   1.19325   1.19712   1.20015   1.20194
 Alpha virt. eigenvalues --    1.20651   1.20784   1.21184   1.21789   1.22383
 Alpha virt. eigenvalues --    1.22472   1.23021   1.23410   1.24007   1.24120
 Alpha virt. eigenvalues --    1.24487   1.24900   1.25141   1.25755   1.25968
 Alpha virt. eigenvalues --    1.26385   1.26640   1.27051   1.27201   1.27420
 Alpha virt. eigenvalues --    1.27807   1.27999   1.28216   1.28804   1.28995
 Alpha virt. eigenvalues --    1.29286   1.29762   1.30208   1.31089   1.31193
 Alpha virt. eigenvalues --    1.31930   1.32278   1.32819   1.33023   1.33528
 Alpha virt. eigenvalues --    1.33611   1.34057   1.34472   1.34784   1.34999
 Alpha virt. eigenvalues --    1.35125   1.35453   1.35826   1.36338   1.36916
 Alpha virt. eigenvalues --    1.37109   1.37896   1.38370   1.38552   1.38993
 Alpha virt. eigenvalues --    1.39453   1.40018   1.40196   1.40327   1.40640
 Alpha virt. eigenvalues --    1.41317   1.41458   1.41978   1.42387   1.42596
 Alpha virt. eigenvalues --    1.43066   1.43302   1.43538   1.43948   1.44895
 Alpha virt. eigenvalues --    1.45219   1.45614   1.45821   1.46440   1.47260
 Alpha virt. eigenvalues --    1.47609   1.47753   1.47961   1.48626   1.48669
 Alpha virt. eigenvalues --    1.48992   1.49111   1.49619   1.49912   1.50102
 Alpha virt. eigenvalues --    1.50830   1.50992   1.51240   1.51787   1.51923
 Alpha virt. eigenvalues --    1.52369   1.52553   1.52785   1.52915   1.53161
 Alpha virt. eigenvalues --    1.53388   1.53915   1.54227   1.54407   1.54524
 Alpha virt. eigenvalues --    1.54928   1.55220   1.55416   1.55660   1.56171
 Alpha virt. eigenvalues --    1.56201   1.56612   1.56951   1.57154   1.57468
 Alpha virt. eigenvalues --    1.57706   1.57839   1.58317   1.58485   1.58722
 Alpha virt. eigenvalues --    1.58946   1.59361   1.59606   1.59779   1.59866
 Alpha virt. eigenvalues --    1.60285   1.60688   1.60810   1.61141   1.61294
 Alpha virt. eigenvalues --    1.61556   1.62092   1.62133   1.62319   1.62427
 Alpha virt. eigenvalues --    1.62953   1.63457   1.63765   1.63884   1.64047
 Alpha virt. eigenvalues --    1.64242   1.64460   1.64832   1.64990   1.65483
 Alpha virt. eigenvalues --    1.65844   1.66212   1.66396   1.66629   1.66795
 Alpha virt. eigenvalues --    1.67165   1.67196   1.67619   1.67878   1.68169
 Alpha virt. eigenvalues --    1.68606   1.68874   1.69117   1.69400   1.69787
 Alpha virt. eigenvalues --    1.70008   1.70701   1.70916   1.71355   1.71552
 Alpha virt. eigenvalues --    1.71631   1.71992   1.72347   1.72784   1.73013
 Alpha virt. eigenvalues --    1.73268   1.73562   1.73710   1.74091   1.74366
 Alpha virt. eigenvalues --    1.74798   1.74996   1.75317   1.75615   1.75771
 Alpha virt. eigenvalues --    1.76151   1.76933   1.77020   1.77723   1.77872
 Alpha virt. eigenvalues --    1.78257   1.78702   1.78781   1.79577   1.79787
 Alpha virt. eigenvalues --    1.80258   1.80445   1.81005   1.81803   1.82353
 Alpha virt. eigenvalues --    1.82830   1.83272   1.83529   1.84112   1.84170
 Alpha virt. eigenvalues --    1.84491   1.85287   1.85830   1.86110   1.86384
 Alpha virt. eigenvalues --    1.86701   1.87449   1.87568   1.87957   1.88204
 Alpha virt. eigenvalues --    1.88304   1.88815   1.89011   1.89255   1.89760
 Alpha virt. eigenvalues --    1.89964   1.90769   1.90997   1.91160   1.91667
 Alpha virt. eigenvalues --    1.92117   1.92571   1.92734   1.93197   1.93656
 Alpha virt. eigenvalues --    1.93905   1.94036   1.94508   1.94850   1.95654
 Alpha virt. eigenvalues --    1.96063   1.96445   1.96770   1.97327   1.97676
 Alpha virt. eigenvalues --    1.97925   1.98077   1.98501   1.98577   1.99224
 Alpha virt. eigenvalues --    1.99233   1.99637   2.00122   2.01100   2.01303
 Alpha virt. eigenvalues --    2.01424   2.01886   2.02263   2.02613   2.03072
 Alpha virt. eigenvalues --    2.03459   2.03663   2.04415   2.04593   2.04636
 Alpha virt. eigenvalues --    2.04993   2.05495   2.06343   2.06914   2.07647
 Alpha virt. eigenvalues --    2.07691   2.08049   2.08259   2.08777   2.08963
 Alpha virt. eigenvalues --    2.09668   2.09815   2.10420   2.10886   2.11102
 Alpha virt. eigenvalues --    2.11573   2.11737   2.11852   2.12405   2.12427
 Alpha virt. eigenvalues --    2.12703   2.12965   2.13556   2.13681   2.14157
 Alpha virt. eigenvalues --    2.14880   2.15139   2.15961   2.16168   2.16406
 Alpha virt. eigenvalues --    2.16653   2.17056   2.17202   2.17599   2.18038
 Alpha virt. eigenvalues --    2.18170   2.18618   2.19068   2.19173   2.19530
 Alpha virt. eigenvalues --    2.19759   2.20839   2.21035   2.21320   2.21864
 Alpha virt. eigenvalues --    2.22414   2.22843   2.23077   2.23285   2.23951
 Alpha virt. eigenvalues --    2.24236   2.24977   2.25468   2.25731   2.26228
 Alpha virt. eigenvalues --    2.26664   2.27044   2.27423   2.27757   2.27929
 Alpha virt. eigenvalues --    2.28387   2.28786   2.29133   2.29610   2.30143
 Alpha virt. eigenvalues --    2.30619   2.30772   2.31393   2.31489   2.32085
 Alpha virt. eigenvalues --    2.32550   2.32748   2.33079   2.33377   2.33759
 Alpha virt. eigenvalues --    2.34176   2.34536   2.35480   2.36090   2.36233
 Alpha virt. eigenvalues --    2.36698   2.37427   2.37673   2.38087   2.38437
 Alpha virt. eigenvalues --    2.38711   2.39191   2.39251   2.39506   2.39936
 Alpha virt. eigenvalues --    2.40229   2.40962   2.41236   2.41508   2.41607
 Alpha virt. eigenvalues --    2.41845   2.42119   2.42436   2.42703   2.43501
 Alpha virt. eigenvalues --    2.44056   2.44505   2.44787   2.45471   2.45662
 Alpha virt. eigenvalues --    2.46169   2.46451   2.46556   2.46926   2.47487
 Alpha virt. eigenvalues --    2.47793   2.48378   2.48684   2.49352   2.49844
 Alpha virt. eigenvalues --    2.49849   2.50172   2.51223   2.51550   2.52149
 Alpha virt. eigenvalues --    2.52395   2.53347   2.53974   2.54074   2.54552
 Alpha virt. eigenvalues --    2.54605   2.55226   2.55443   2.55994   2.56138
 Alpha virt. eigenvalues --    2.56320   2.56564   2.57097   2.57667   2.57920
 Alpha virt. eigenvalues --    2.58220   2.58392   2.59054   2.59163   2.59590
 Alpha virt. eigenvalues --    2.59632   2.60161   2.60333   2.60595   2.60755
 Alpha virt. eigenvalues --    2.61290   2.61537   2.61789   2.62258   2.62279
 Alpha virt. eigenvalues --    2.62501   2.62722   2.63166   2.63536   2.63791
 Alpha virt. eigenvalues --    2.64393   2.64571   2.64753   2.65160   2.65829
 Alpha virt. eigenvalues --    2.66236   2.66426   2.66759   2.66948   2.67308
 Alpha virt. eigenvalues --    2.67540   2.67874   2.68233   2.68257   2.68960
 Alpha virt. eigenvalues --    2.69048   2.69834   2.70087   2.70266   2.70955
 Alpha virt. eigenvalues --    2.71085   2.71213   2.71786   2.72247   2.72480
 Alpha virt. eigenvalues --    2.73260   2.73475   2.73634   2.74096   2.74278
 Alpha virt. eigenvalues --    2.74808   2.74858   2.75591   2.75744   2.76026
 Alpha virt. eigenvalues --    2.76437   2.76599   2.76943   2.77120   2.77434
 Alpha virt. eigenvalues --    2.78246   2.78514   2.78815   2.78917   2.79482
 Alpha virt. eigenvalues --    2.80140   2.80349   2.80477   2.80845   2.81072
 Alpha virt. eigenvalues --    2.81675   2.81753   2.82326   2.82578   2.82983
 Alpha virt. eigenvalues --    2.83838   2.83860   2.84462   2.84754   2.85061
 Alpha virt. eigenvalues --    2.85269   2.85500   2.86026   2.86631   2.86703
 Alpha virt. eigenvalues --    2.86812   2.87036   2.87452   2.87871   2.88003
 Alpha virt. eigenvalues --    2.88457   2.89317   2.89561   2.90144   2.90275
 Alpha virt. eigenvalues --    2.90559   2.91102   2.91375   2.91675   2.91723
 Alpha virt. eigenvalues --    2.92139   2.92621   2.92970   2.93220   2.93254
 Alpha virt. eigenvalues --    2.93416   2.93717   2.93737   2.94301   2.94430
 Alpha virt. eigenvalues --    2.94501   2.94930   2.95319   2.95726   2.95850
 Alpha virt. eigenvalues --    2.96109   2.96808   2.97144   2.97421   2.97722
 Alpha virt. eigenvalues --    2.98132   2.98377   2.98542   2.98739   2.99171
 Alpha virt. eigenvalues --    2.99350   2.99738   3.00089   3.00561   3.00789
 Alpha virt. eigenvalues --    3.01191   3.01404   3.01914   3.02228   3.02415
 Alpha virt. eigenvalues --    3.02503   3.03086   3.03267   3.03691   3.03956
 Alpha virt. eigenvalues --    3.04341   3.04646   3.05039   3.05521   3.05754
 Alpha virt. eigenvalues --    3.05929   3.06046   3.06170   3.06620   3.06650
 Alpha virt. eigenvalues --    3.07126   3.07457   3.07838   3.07997   3.08371
 Alpha virt. eigenvalues --    3.08664   3.08990   3.09245   3.09576   3.09982
 Alpha virt. eigenvalues --    3.10388   3.10730   3.10917   3.11088   3.11473
 Alpha virt. eigenvalues --    3.11812   3.12020   3.12371   3.12745   3.12869
 Alpha virt. eigenvalues --    3.13086   3.13327   3.13854   3.14066   3.14218
 Alpha virt. eigenvalues --    3.14656   3.14905   3.15021   3.15477   3.15818
 Alpha virt. eigenvalues --    3.16330   3.16564   3.16903   3.17002   3.17184
 Alpha virt. eigenvalues --    3.17482   3.17792   3.18042   3.18344   3.18433
 Alpha virt. eigenvalues --    3.19004   3.19033   3.19416   3.19485   3.19878
 Alpha virt. eigenvalues --    3.20066   3.20772   3.21058   3.21170   3.21494
 Alpha virt. eigenvalues --    3.21898   3.22012   3.22165   3.22301   3.22545
 Alpha virt. eigenvalues --    3.22754   3.22910   3.23579   3.23719   3.24137
 Alpha virt. eigenvalues --    3.24335   3.24818   3.24899   3.25245   3.25559
 Alpha virt. eigenvalues --    3.25744   3.25899   3.26077   3.26343   3.26713
 Alpha virt. eigenvalues --    3.26960   3.27111   3.27185   3.27549   3.28017
 Alpha virt. eigenvalues --    3.28384   3.28667   3.28775   3.29036   3.29456
 Alpha virt. eigenvalues --    3.29654   3.29773   3.29868   3.30557   3.30991
 Alpha virt. eigenvalues --    3.31153   3.31223   3.31488   3.31784   3.31883
 Alpha virt. eigenvalues --    3.32255   3.32648   3.32817   3.33010   3.33295
 Alpha virt. eigenvalues --    3.33338   3.33562   3.33812   3.34055   3.34787
 Alpha virt. eigenvalues --    3.34855   3.35080   3.35304   3.35796   3.36095
 Alpha virt. eigenvalues --    3.36522   3.36689   3.36937   3.37280   3.37450
 Alpha virt. eigenvalues --    3.37627   3.37867   3.38394   3.38620   3.38744
 Alpha virt. eigenvalues --    3.39017   3.39360   3.39662   3.39767   3.40323
 Alpha virt. eigenvalues --    3.40629   3.40794   3.41076   3.41425   3.41585
 Alpha virt. eigenvalues --    3.41860   3.41979   3.42232   3.42596   3.43070
 Alpha virt. eigenvalues --    3.43329   3.43511   3.44026   3.44242   3.44770
 Alpha virt. eigenvalues --    3.45198   3.45351   3.45530   3.45991   3.46169
 Alpha virt. eigenvalues --    3.46419   3.46434   3.46729   3.47219   3.47511
 Alpha virt. eigenvalues --    3.47970   3.48419   3.48711   3.49052   3.49351
 Alpha virt. eigenvalues --    3.49664   3.49834   3.50295   3.50713   3.50908
 Alpha virt. eigenvalues --    3.51151   3.51626   3.51797   3.51925   3.52732
 Alpha virt. eigenvalues --    3.53019   3.53127   3.53424   3.54094   3.54386
 Alpha virt. eigenvalues --    3.55225   3.55389   3.55792   3.56224   3.56451
 Alpha virt. eigenvalues --    3.57022   3.57177   3.57460   3.57654   3.57903
 Alpha virt. eigenvalues --    3.58328   3.58503   3.59378   3.59609   3.59736
 Alpha virt. eigenvalues --    3.59801   3.60256   3.61013   3.61127   3.61523
 Alpha virt. eigenvalues --    3.62108   3.62531   3.62751   3.63250   3.63630
 Alpha virt. eigenvalues --    3.63894   3.64320   3.64583   3.64948   3.65489
 Alpha virt. eigenvalues --    3.65661   3.65986   3.66457   3.66763   3.67388
 Alpha virt. eigenvalues --    3.67681   3.68090   3.68331   3.68726   3.69154
 Alpha virt. eigenvalues --    3.69459   3.70113   3.70594   3.70780   3.70915
 Alpha virt. eigenvalues --    3.71299   3.71793   3.72086   3.72949   3.73317
 Alpha virt. eigenvalues --    3.73590   3.73868   3.74245   3.75008   3.75202
 Alpha virt. eigenvalues --    3.75474   3.75737   3.76290   3.76717   3.77230
 Alpha virt. eigenvalues --    3.77635   3.77732   3.78015   3.78178   3.78900
 Alpha virt. eigenvalues --    3.79383   3.79648   3.80337   3.80820   3.81124
 Alpha virt. eigenvalues --    3.81944   3.82074   3.82481   3.83354   3.83508
 Alpha virt. eigenvalues --    3.83939   3.84943   3.85533   3.85867   3.86534
 Alpha virt. eigenvalues --    3.86867   3.87102   3.87842   3.88023   3.88775
 Alpha virt. eigenvalues --    3.88990   3.89733   3.90579   3.90846   3.91719
 Alpha virt. eigenvalues --    3.91845   3.92528   3.92618   3.93251   3.94176
 Alpha virt. eigenvalues --    3.94238   3.94405   3.95086   3.95500   3.95696
 Alpha virt. eigenvalues --    3.96420   3.97219   3.97791   3.98030   3.98608
 Alpha virt. eigenvalues --    3.98851   3.99531   4.00693   4.01029   4.01715
 Alpha virt. eigenvalues --    4.01880   4.02538   4.02791   4.03679   4.04645
 Alpha virt. eigenvalues --    4.05173   4.05510   4.05954   4.06626   4.07236
 Alpha virt. eigenvalues --    4.07548   4.08471   4.09264   4.10101   4.10429
 Alpha virt. eigenvalues --    4.11085   4.11569   4.12408   4.13092   4.13502
 Alpha virt. eigenvalues --    4.13912   4.14028   4.14429   4.14933   4.15397
 Alpha virt. eigenvalues --    4.15635   4.16155   4.16765   4.16953   4.17667
 Alpha virt. eigenvalues --    4.18358   4.18392   4.18826   4.20094   4.20557
 Alpha virt. eigenvalues --    4.20637   4.21043   4.21893   4.22408   4.22667
 Alpha virt. eigenvalues --    4.23104   4.23606   4.24586   4.24619   4.25226
 Alpha virt. eigenvalues --    4.25778   4.26385   4.26964   4.27455   4.28035
 Alpha virt. eigenvalues --    4.29040   4.29322   4.29530   4.29876   4.30644
 Alpha virt. eigenvalues --    4.31281   4.31800   4.32675   4.33285   4.33902
 Alpha virt. eigenvalues --    4.34305   4.34467   4.34975   4.35252   4.36147
 Alpha virt. eigenvalues --    4.36798   4.37358   4.37450   4.37988   4.38295
 Alpha virt. eigenvalues --    4.39090   4.39628   4.40221   4.40897   4.41392
 Alpha virt. eigenvalues --    4.41537   4.41817   4.42622   4.42871   4.43510
 Alpha virt. eigenvalues --    4.43726   4.44220   4.44692   4.45972   4.46308
 Alpha virt. eigenvalues --    4.46475   4.47326   4.47469   4.47738   4.48408
 Alpha virt. eigenvalues --    4.48818   4.49503   4.50495   4.50978   4.51169
 Alpha virt. eigenvalues --    4.52577   4.52868   4.53209   4.54197   4.55370
 Alpha virt. eigenvalues --    4.56495   4.57349   4.57645   4.58529   4.59605
 Alpha virt. eigenvalues --    4.60344   4.60882   4.61115   4.61921   4.62085
 Alpha virt. eigenvalues --    4.62639   4.63415   4.63797   4.64715   4.65329
 Alpha virt. eigenvalues --    4.65748   4.66160   4.67439   4.67952   4.68456
 Alpha virt. eigenvalues --    4.69181   4.69810   4.70953   4.71540   4.71771
 Alpha virt. eigenvalues --    4.72158   4.73185   4.73829   4.74466   4.74658
 Alpha virt. eigenvalues --    4.75453   4.75825   4.76175   4.76441   4.77705
 Alpha virt. eigenvalues --    4.78075   4.78821   4.79152   4.80461   4.80908
 Alpha virt. eigenvalues --    4.81364   4.82094   4.82713   4.83157   4.83822
 Alpha virt. eigenvalues --    4.84520   4.86530   4.86867   4.87649   4.87832
 Alpha virt. eigenvalues --    4.88418   4.89733   4.90893   4.91050   4.91953
 Alpha virt. eigenvalues --    4.92012   4.92390   4.92999   4.93994   4.94784
 Alpha virt. eigenvalues --    4.95624   4.96021   4.96443   4.97421   4.98367
 Alpha virt. eigenvalues --    4.98923   4.99265   5.00633   5.02316   5.03655
 Alpha virt. eigenvalues --    5.04258   5.04533   5.04956   5.06066   5.07063
 Alpha virt. eigenvalues --    5.07642   5.08342   5.09881   5.10203   5.10411
 Alpha virt. eigenvalues --    5.11597   5.11620   5.12702   5.13051   5.13509
 Alpha virt. eigenvalues --    5.16722   5.17084   5.17789   5.18337   5.19017
 Alpha virt. eigenvalues --    5.19189   5.19573   5.20616   5.21582   5.22091
 Alpha virt. eigenvalues --    5.22602   5.23006   5.23067   5.23419   5.24536
 Alpha virt. eigenvalues --    5.26073   5.27005   5.27697   5.28143   5.28659
 Alpha virt. eigenvalues --    5.28938   5.29819   5.30114   5.31459   5.32824
 Alpha virt. eigenvalues --    5.33895   5.35508   5.37656   5.38356   5.38594
 Alpha virt. eigenvalues --    5.39604   5.39909   5.40116   5.40828   5.41394
 Alpha virt. eigenvalues --    5.43354   5.44095   5.44881   5.45209   5.47386
 Alpha virt. eigenvalues --    5.47906   5.49411   5.50487   5.51611   5.52613
 Alpha virt. eigenvalues --    5.53258   5.54952   5.57184   5.57514   5.58272
 Alpha virt. eigenvalues --    5.58576   5.59369   5.60217   5.61346   5.61708
 Alpha virt. eigenvalues --    5.63281   5.64245   5.64728   5.65004   5.65469
 Alpha virt. eigenvalues --    5.66838   5.67951   5.72209   5.74138   5.75926
 Alpha virt. eigenvalues --    5.78290   5.78995   5.80315   5.82604   5.84279
 Alpha virt. eigenvalues --    5.84436   5.85101   5.86344   5.90304   5.94446
 Alpha virt. eigenvalues --    5.94689   5.94870   5.97318   5.99531   5.99807
 Alpha virt. eigenvalues --    6.01917   6.03426   6.03727   6.06188   6.08377
 Alpha virt. eigenvalues --    6.11438   6.11999   6.13354   6.13929   6.15620
 Alpha virt. eigenvalues --    6.16344   6.19174   6.21554   6.23733   6.28860
 Alpha virt. eigenvalues --    6.29956   6.30082   6.31802   6.32639   6.34206
 Alpha virt. eigenvalues --    6.36049   6.37047   6.38265   6.38811   6.44220
 Alpha virt. eigenvalues --    6.44721   6.48045   6.49788   6.50801   6.53157
 Alpha virt. eigenvalues --    6.54152   6.62459   6.68328   6.72768   6.77625
 Alpha virt. eigenvalues --    6.79698   6.80620   6.83772   6.87214   6.88413
 Alpha virt. eigenvalues --    6.89648   6.93550   6.95786   6.99652   7.09411
 Alpha virt. eigenvalues --    7.11962   7.16997   7.19469   7.24260   7.24916
 Alpha virt. eigenvalues --    7.31101  22.36142  22.38461  22.49339  22.52330
 Alpha virt. eigenvalues --   22.53323  22.57852  22.58935  22.63388  22.64187
 Alpha virt. eigenvalues --   22.70891  22.72820  22.78938  22.79835  22.84417
 Alpha virt. eigenvalues --   22.91097  22.92594  22.95823  22.98254  23.01065
 Alpha virt. eigenvalues --   23.08070  23.09320  23.12623  23.20868  23.24579
 Alpha virt. eigenvalues --   23.28294  23.32636  23.33140  23.36891  23.40491
 Alpha virt. eigenvalues --   23.43066  23.47335  23.52017  23.57114  23.61858
 Alpha virt. eigenvalues --   23.62940  23.74870  23.83383  23.87683  23.97493
 Alpha virt. eigenvalues --   32.46787  32.82505  32.99066  33.00930  33.02816
 Alpha virt. eigenvalues --   33.29566  43.93672  43.94506  43.97302  44.10217
 Alpha virt. eigenvalues --   44.11206
  Beta  occ. eigenvalues -- -256.34097 -30.09134 -25.93426 -25.91547 -25.91063
  Beta  occ. eigenvalues --  -19.27677 -19.27364 -19.26618 -19.19163 -19.18108
  Beta  occ. eigenvalues --  -14.44269 -14.39381 -14.37694 -14.36497 -14.36456
  Beta  occ. eigenvalues --  -14.36115 -10.36103 -10.35680 -10.31403 -10.27564
  Beta  occ. eigenvalues --  -10.26090 -10.25243 -10.24967 -10.24683 -10.24535
  Beta  occ. eigenvalues --  -10.24412 -10.24263 -10.24145 -10.23858 -10.23760
  Beta  occ. eigenvalues --  -10.23741 -10.23659 -10.23615 -10.23048 -10.22995
  Beta  occ. eigenvalues --  -10.22918 -10.22849 -10.22654 -10.22553 -10.22317
  Beta  occ. eigenvalues --  -10.22298 -10.22016 -10.22002 -10.21956 -10.21795
  Beta  occ. eigenvalues --  -10.21739 -10.21707 -10.21648 -10.21369 -10.21237
  Beta  occ. eigenvalues --  -10.20961 -10.20959 -10.20866 -10.20743 -10.20630
  Beta  occ. eigenvalues --   -3.41184  -2.20276  -2.14740  -2.13718  -1.18988
  Beta  occ. eigenvalues --   -1.17161  -1.15490  -1.05730  -1.03364  -1.02741
  Beta  occ. eigenvalues --   -0.97926  -0.97007  -0.96658  -0.94897  -0.91879
  Beta  occ. eigenvalues --   -0.84313  -0.84027  -0.83392  -0.82541  -0.81951
  Beta  occ. eigenvalues --   -0.81113  -0.80749  -0.80203  -0.79559  -0.78758
  Beta  occ. eigenvalues --   -0.77001  -0.76016  -0.75213  -0.74077  -0.73027
  Beta  occ. eigenvalues --   -0.72420  -0.72111  -0.71404  -0.70229  -0.70076
  Beta  occ. eigenvalues --   -0.69657  -0.67716  -0.65985  -0.65590  -0.65073
  Beta  occ. eigenvalues --   -0.64773  -0.61198  -0.60801  -0.59742  -0.59585
  Beta  occ. eigenvalues --   -0.57908  -0.57127  -0.56674  -0.56232  -0.55189
  Beta  occ. eigenvalues --   -0.54765  -0.54072  -0.53974  -0.52341  -0.52146
  Beta  occ. eigenvalues --   -0.51853  -0.51312  -0.50667  -0.50300  -0.49628
  Beta  occ. eigenvalues --   -0.49167  -0.48993  -0.48777  -0.48568  -0.48482
  Beta  occ. eigenvalues --   -0.48019  -0.47800  -0.47543  -0.47260  -0.45916
  Beta  occ. eigenvalues --   -0.45743  -0.45457  -0.45299  -0.44778  -0.44466
  Beta  occ. eigenvalues --   -0.44299  -0.43916  -0.43649  -0.43468  -0.43378
  Beta  occ. eigenvalues --   -0.43278  -0.43185  -0.43010  -0.42881  -0.42717
  Beta  occ. eigenvalues --   -0.42451  -0.42213  -0.42021  -0.41630  -0.41215
  Beta  occ. eigenvalues --   -0.41046  -0.40980  -0.40360  -0.40230  -0.39943
  Beta  occ. eigenvalues --   -0.39349  -0.39285  -0.38874  -0.38632  -0.38463
  Beta  occ. eigenvalues --   -0.38156  -0.37997  -0.37837  -0.37583  -0.37340
  Beta  occ. eigenvalues --   -0.36686  -0.36536  -0.36082  -0.35938  -0.35298
  Beta  occ. eigenvalues --   -0.35068  -0.34663  -0.33514  -0.32922  -0.32876
  Beta  occ. eigenvalues --   -0.32774  -0.32454  -0.31823  -0.30478  -0.28805
  Beta  occ. eigenvalues --   -0.28694  -0.28361  -0.27970  -0.27218  -0.26982
  Beta  occ. eigenvalues --   -0.25464  -0.24642  -0.23708  -0.22594  -0.19712
  Beta  occ. eigenvalues --   -0.19276  -0.18845  -0.18401
  Beta virt. eigenvalues --   -0.08484  -0.06864  -0.05693  -0.04347  -0.02336
  Beta virt. eigenvalues --   -0.02050  -0.01327  -0.00263   0.00363   0.01016
  Beta virt. eigenvalues --    0.01809   0.02302   0.02802   0.03017   0.03626
  Beta virt. eigenvalues --    0.04471   0.04511   0.04845   0.05256   0.05462
  Beta virt. eigenvalues --    0.05828   0.06148   0.06855   0.07282   0.07494
  Beta virt. eigenvalues --    0.07757   0.07896   0.08019   0.08450   0.08639
  Beta virt. eigenvalues --    0.08852   0.09281   0.09609   0.09775   0.09950
  Beta virt. eigenvalues --    0.10187   0.10964   0.11260   0.11450   0.11495
  Beta virt. eigenvalues --    0.11770   0.12079   0.12272   0.12382   0.12884
  Beta virt. eigenvalues --    0.12966   0.13107   0.13398   0.13645   0.13686
  Beta virt. eigenvalues --    0.13898   0.14225   0.14300   0.14516   0.14765
  Beta virt. eigenvalues --    0.14795   0.14900   0.15305   0.15402   0.15475
  Beta virt. eigenvalues --    0.15743   0.15942   0.16351   0.16861   0.16934
  Beta virt. eigenvalues --    0.17098   0.17327   0.17745   0.18060   0.18181
  Beta virt. eigenvalues --    0.18329   0.18708   0.18964   0.19054   0.19240
  Beta virt. eigenvalues --    0.19405   0.19597   0.19836   0.20084   0.20379
  Beta virt. eigenvalues --    0.20548   0.20601   0.21056   0.21508   0.21655
  Beta virt. eigenvalues --    0.21732   0.21956   0.22319   0.22478   0.22645
  Beta virt. eigenvalues --    0.22856   0.23160   0.23374   0.23584   0.23895
  Beta virt. eigenvalues --    0.24365   0.24708   0.24731   0.24946   0.25094
  Beta virt. eigenvalues --    0.25213   0.25433   0.26067   0.26125   0.26270
  Beta virt. eigenvalues --    0.26327   0.26753   0.27030   0.27161   0.27498
  Beta virt. eigenvalues --    0.27801   0.27843   0.28250   0.28312   0.28518
  Beta virt. eigenvalues --    0.28687   0.29119   0.29476   0.29571   0.29813
  Beta virt. eigenvalues --    0.29923   0.30329   0.30398   0.30635   0.30970
  Beta virt. eigenvalues --    0.31143   0.31422   0.31499   0.31600   0.31884
  Beta virt. eigenvalues --    0.32177   0.32459   0.32866   0.33183   0.33287
  Beta virt. eigenvalues --    0.33566   0.33867   0.34201   0.34319   0.34543
  Beta virt. eigenvalues --    0.34873   0.35040   0.35354   0.35528   0.35917
  Beta virt. eigenvalues --    0.36154   0.36471   0.36892   0.36945   0.37041
  Beta virt. eigenvalues --    0.37437   0.37634   0.37867   0.37917   0.38110
  Beta virt. eigenvalues --    0.38381   0.38677   0.38816   0.39003   0.39158
  Beta virt. eigenvalues --    0.39438   0.39566   0.39690   0.39898   0.40146
  Beta virt. eigenvalues --    0.40458   0.40655   0.40771   0.41093   0.41366
  Beta virt. eigenvalues --    0.41474   0.41663   0.41771   0.41953   0.42438
  Beta virt. eigenvalues --    0.42473   0.42571   0.42858   0.42945   0.43099
  Beta virt. eigenvalues --    0.43262   0.43357   0.43590   0.43894   0.44013
  Beta virt. eigenvalues --    0.44251   0.44434   0.44562   0.44803   0.45018
  Beta virt. eigenvalues --    0.45114   0.45325   0.45658   0.45697   0.45895
  Beta virt. eigenvalues --    0.46030   0.46154   0.46464   0.46557   0.46943
  Beta virt. eigenvalues --    0.47042   0.47076   0.47378   0.47531   0.47663
  Beta virt. eigenvalues --    0.47844   0.47919   0.47993   0.48197   0.48740
  Beta virt. eigenvalues --    0.48808   0.49110   0.49287   0.49506   0.49657
  Beta virt. eigenvalues --    0.49729   0.49995   0.50021   0.50135   0.50549
  Beta virt. eigenvalues --    0.50656   0.50933   0.51020   0.51420   0.51696
  Beta virt. eigenvalues --    0.51883   0.52023   0.52398   0.52506   0.52641
  Beta virt. eigenvalues --    0.52824   0.53051   0.53325   0.53512   0.53612
  Beta virt. eigenvalues --    0.53859   0.54421   0.54504   0.54739   0.54956
  Beta virt. eigenvalues --    0.55392   0.55639   0.55655   0.55940   0.56134
  Beta virt. eigenvalues --    0.56409   0.56455   0.57002   0.57229   0.57405
  Beta virt. eigenvalues --    0.57693   0.57924   0.58265   0.58308   0.58506
  Beta virt. eigenvalues --    0.58685   0.59028   0.59070   0.59304   0.59714
  Beta virt. eigenvalues --    0.60038   0.60263   0.60667   0.60889   0.61100
  Beta virt. eigenvalues --    0.61240   0.61503   0.61697   0.61974   0.62085
  Beta virt. eigenvalues --    0.62417   0.62738   0.62756   0.63189   0.63560
  Beta virt. eigenvalues --    0.63780   0.63923   0.64180   0.64477   0.64590
  Beta virt. eigenvalues --    0.64770   0.64933   0.65350   0.65882   0.65927
  Beta virt. eigenvalues --    0.66348   0.66434   0.66585   0.66939   0.67259
  Beta virt. eigenvalues --    0.67551   0.67946   0.68201   0.68259   0.68438
  Beta virt. eigenvalues --    0.68981   0.69297   0.69418   0.69853   0.69960
  Beta virt. eigenvalues --    0.70430   0.70889   0.71069   0.71448   0.71507
  Beta virt. eigenvalues --    0.71591   0.72035   0.72173   0.72290   0.72564
  Beta virt. eigenvalues --    0.72586   0.72936   0.73054   0.73712   0.74250
  Beta virt. eigenvalues --    0.74493   0.74554   0.74795   0.75051   0.75510
  Beta virt. eigenvalues --    0.75631   0.75863   0.76494   0.76986   0.77155
  Beta virt. eigenvalues --    0.77500   0.77566   0.77920   0.78391   0.78449
  Beta virt. eigenvalues --    0.78643   0.79171   0.79227   0.79925   0.80570
  Beta virt. eigenvalues --    0.80635   0.80791   0.81151   0.81687   0.81856
  Beta virt. eigenvalues --    0.82140   0.82364   0.82707   0.82971   0.83449
  Beta virt. eigenvalues --    0.83641   0.83901   0.83955   0.84416   0.84828
  Beta virt. eigenvalues --    0.85096   0.85301   0.85391   0.85854   0.86026
  Beta virt. eigenvalues --    0.86533   0.86692   0.87024   0.87358   0.87767
  Beta virt. eigenvalues --    0.87968   0.88278   0.88527   0.88794   0.89217
  Beta virt. eigenvalues --    0.89564   0.89928   0.90502   0.90594   0.91102
  Beta virt. eigenvalues --    0.91248   0.91602   0.91728   0.92274   0.92430
  Beta virt. eigenvalues --    0.92894   0.93070   0.93401   0.93621   0.93806
  Beta virt. eigenvalues --    0.94214   0.94433   0.94864   0.95069   0.95320
  Beta virt. eigenvalues --    0.95475   0.95489   0.95837   0.96319   0.96504
  Beta virt. eigenvalues --    0.96734   0.96932   0.97084   0.97409   0.97716
  Beta virt. eigenvalues --    0.98003   0.98266   0.98540   0.98913   0.99238
  Beta virt. eigenvalues --    0.99355   0.99450   0.99756   1.00233   1.00315
  Beta virt. eigenvalues --    1.00744   1.01106   1.01405   1.01546   1.01768
  Beta virt. eigenvalues --    1.02030   1.02416   1.02433   1.02904   1.03198
  Beta virt. eigenvalues --    1.03724   1.04016   1.04308   1.04463   1.04668
  Beta virt. eigenvalues --    1.05347   1.06020   1.06447   1.06590   1.06874
  Beta virt. eigenvalues --    1.07179   1.07762   1.07950   1.08302   1.08680
  Beta virt. eigenvalues --    1.08909   1.09452   1.09663   1.09889   1.10203
  Beta virt. eigenvalues --    1.10351   1.10585   1.11017   1.11350   1.11630
  Beta virt. eigenvalues --    1.12207   1.12670   1.12909   1.13177   1.13292
  Beta virt. eigenvalues --    1.13619   1.14205   1.15125   1.15346   1.15618
  Beta virt. eigenvalues --    1.15910   1.16372   1.16553   1.17019   1.17476
  Beta virt. eigenvalues --    1.17586   1.17837   1.18364   1.18702   1.18974
  Beta virt. eigenvalues --    1.19491   1.19922   1.20178   1.20307   1.20845
  Beta virt. eigenvalues --    1.20982   1.21348   1.21974   1.22512   1.22784
  Beta virt. eigenvalues --    1.23110   1.23681   1.24166   1.24388   1.24629
  Beta virt. eigenvalues --    1.25221   1.25411   1.25908   1.26248   1.26681
  Beta virt. eigenvalues --    1.26941   1.27285   1.27565   1.27618   1.28068
  Beta virt. eigenvalues --    1.28352   1.28546   1.29088   1.29157   1.29498
  Beta virt. eigenvalues --    1.30048   1.30378   1.31306   1.31541   1.32151
  Beta virt. eigenvalues --    1.32411   1.33098   1.33353   1.33673   1.33963
  Beta virt. eigenvalues --    1.34149   1.34595   1.34998   1.35253   1.35358
  Beta virt. eigenvalues --    1.35759   1.36106   1.36459   1.37120   1.37360
  Beta virt. eigenvalues --    1.38089   1.38558   1.38798   1.39089   1.39658
  Beta virt. eigenvalues --    1.40153   1.40539   1.40666   1.41120   1.41574
  Beta virt. eigenvalues --    1.41609   1.42150   1.42701   1.43061   1.43296
  Beta virt. eigenvalues --    1.43678   1.43901   1.44435   1.45230   1.45356
  Beta virt. eigenvalues --    1.45710   1.46118   1.46520   1.47382   1.47828
  Beta virt. eigenvalues --    1.48134   1.48173   1.48789   1.48928   1.49164
  Beta virt. eigenvalues --    1.49328   1.50037   1.50274   1.50331   1.51025
  Beta virt. eigenvalues --    1.51259   1.51566   1.51884   1.52366   1.52546
  Beta virt. eigenvalues --    1.52780   1.52985   1.53256   1.53333   1.53578
  Beta virt. eigenvalues --    1.54123   1.54457   1.54671   1.54887   1.55240
  Beta virt. eigenvalues --    1.55570   1.55826   1.55883   1.56285   1.56458
  Beta virt. eigenvalues --    1.56705   1.57184   1.57438   1.57657   1.57874
  Beta virt. eigenvalues --    1.58107   1.58572   1.58760   1.58857   1.59393
  Beta virt. eigenvalues --    1.59554   1.59711   1.59902   1.60091   1.60504
  Beta virt. eigenvalues --    1.60768   1.61135   1.61424   1.61590   1.61830
  Beta virt. eigenvalues --    1.62215   1.62342   1.62535   1.62694   1.63194
  Beta virt. eigenvalues --    1.63796   1.63959   1.64223   1.64288   1.64606
  Beta virt. eigenvalues --    1.64697   1.64971   1.65197   1.65885   1.66018
  Beta virt. eigenvalues --    1.66383   1.66463   1.66694   1.67078   1.67282
  Beta virt. eigenvalues --    1.67545   1.67995   1.68175   1.68559   1.68871
  Beta virt. eigenvalues --    1.69104   1.69202   1.69513   1.70133   1.70197
  Beta virt. eigenvalues --    1.70787   1.71141   1.71506   1.71667   1.71760
  Beta virt. eigenvalues --    1.72202   1.72888   1.72949   1.73133   1.73465
  Beta virt. eigenvalues --    1.73737   1.74013   1.74203   1.74604   1.75030
  Beta virt. eigenvalues --    1.75238   1.75545   1.75925   1.75984   1.76221
  Beta virt. eigenvalues --    1.77066   1.77120   1.77806   1.77926   1.78387
  Beta virt. eigenvalues --    1.78821   1.79016   1.79777   1.79851   1.80370
  Beta virt. eigenvalues --    1.80562   1.81123   1.82039   1.82488   1.82905
  Beta virt. eigenvalues --    1.83294   1.83881   1.84178   1.84453   1.84950
  Beta virt. eigenvalues --    1.85793   1.85927   1.86209   1.86469   1.86897
  Beta virt. eigenvalues --    1.87588   1.87798   1.88062   1.88349   1.88539
  Beta virt. eigenvalues --    1.88912   1.89304   1.89417   1.89967   1.90306
  Beta virt. eigenvalues --    1.90902   1.91099   1.91348   1.91787   1.92332
  Beta virt. eigenvalues --    1.92814   1.92963   1.93480   1.93757   1.94101
[...]
  1585. RY*(   1) H  65                  0.00035     1.04751   
  1586. RY*(   2) H  65                  0.00007     1.89348   
  1587. RY*(   3) H  65                  0.00004     1.92452   
  1588. RY*(   4) H  65                  0.00003     2.17155   
  1589. RY*(   5) H  65                  0.00000     2.94858   
  1590. RY*(   1) H  66                  0.00088     0.67688   
  1591. RY*(   2) H  66                  0.00013     2.27068   
  1592. RY*(   3) H  66                  0.00011     2.23133   
  1593. RY*(   4) H  66                  0.00006     3.07788   
  1594. RY*(   5) H  66                  0.00000     3.24085   
  1595. RY*(   1) H  67                  0.00024     1.84457   
  1596. RY*(   2) H  67                  0.00008     1.65966   
  1597. RY*(   3) H  67                  0.00004     2.35058   
  1598. RY*(   4) H  67                  0.00003     2.16131   
  1599. RY*(   5) H  67                  0.00000     3.07804   
  1600. RY*(   1) H  68                  0.00023     1.64748   
  1601. RY*(   2) H  68                  0.00014     0.93806   
  1602. RY*(   3) H  68                  0.00002     2.38574   
  1603. RY*(   4) H  68                  0.00001     2.37854   
  1604. RY*(   5) H  68                  0.00001     2.80775   
  1605. RY*(   1) H  69                  0.00023     1.69488   
  1606. RY*(   2) H  69                  0.00014     0.94894   
  1607. RY*(   3) H  69                  0.00002     2.51568   
  1608. RY*(   4) H  69                  0.00002     2.23725   
  1609. RY*(   5) H  69                  0.00001     2.80316   
  1610. RY*(   1) H  70                  0.00031     1.06648   
  1611. RY*(   2) H  70                  0.00008     1.71714   
  1612. RY*(   3) H  70                  0.00004     2.14658   
  1613. RY*(   4) H  70                  0.00001     2.07277   
  1614. RY*(   5) H  70                  0.00001     2.88943   
  1615. RY*(   1) H  71                  0.00024     1.19976   
  1616. RY*(   2) H  71                  0.00010     1.79199   
  1617. RY*(   3) H  71                  0.00002     1.87636   
  1618. RY*(   4) H  71                  0.00003     2.18927   
  1619. RY*(   5) H  71                  0.00000     2.91295   
  1620. RY*(   1) H  72                  0.00025     1.13297   
  1621. RY*(   2) H  72                  0.00008     1.78095   
  1622. RY*(   3) H  72                  0.00003     2.19966   
  1623. RY*(   4) H  72                  0.00002     1.95685   
  1624. RY*(   5) H  72                  0.00000     3.00921   
  1625. RY*(   1) H  73                  0.00082     0.65198   
  1626. RY*(   2) H  73                  0.00011     2.24001   
  1627. RY*(   3) H  73                  0.00012     2.28000   
  1628. RY*(   4) H  73                  0.00006     3.09599   
  1629. RY*(   5) H  73                  0.00000     3.19562   
  1630. RY*(   1) H  74                  0.00050     1.40497   
  1631. RY*(   2) H  74                  0.00010     1.63409   
  1632. RY*(   3) H  74                  0.00005     2.65921   
  1633. RY*(   4) H  74                  0.00005     2.08032   
  1634. RY*(   5) H  74                  0.00000     3.08448   
  1635. RY*(   1) H  75                  0.00038     1.39546   
  1636. RY*(   2) H  75                  0.00014     1.17425   
  1637. RY*(   3) H  75                  0.00007     2.13445   
  1638. RY*(   4) H  75                  0.00002     2.48840   
  1639. RY*(   5) H  75                  0.00001     3.04439   
  1640. RY*(   1) H  76                  0.00050     1.23516   
  1641. RY*(   2) H  76                  0.00016     1.61327   
  1642. RY*(   3) H  76                  0.00007     1.98640   
  1643. RY*(   4) H  76                  0.00003     2.45352   
  1644. RY*(   5) H  76                  0.00001     3.03795   
  1645. RY*(   1) H  77                  0.00030     0.99714   
  1646. RY*(   2) H  77                  0.00010     1.89907   
  1647. RY*(   3) H  77                  0.00003     2.04809   
  1648. RY*(   4) H  77                  0.00003     2.10689   
  1649. RY*(   5) H  77                  0.00000     2.93387   
  1650. RY*(   1) H  78                  0.00045     0.98279   
  1651. RY*(   2) H  78                  0.00008     1.73566   
  1652. RY*(   3) H  78                  0.00004     2.16736   
  1653. RY*(   4) H  78                  0.00002     2.39497   
  1654. RY*(   5) H  78                  0.00001     2.63429   
  1655. RY*(   1) H  79                  0.00032     1.24847   
  1656. RY*(   2) H  79                  0.00010     2.08635   
  1657. RY*(   3) H  79                  0.00004     1.59604   
  1658. RY*(   4) H  79                  0.00003     2.16895   
  1659. RY*(   5) H  79                  0.00000     3.04833   
  1660. RY*(   1) H  80                  0.00089     0.62782   
  1661. RY*(   2) H  80                  0.00012     2.16798   
  1662. RY*(   3) H  80                  0.00013     2.26146   
  1663. RY*(   4) H  80                  0.00006     3.07503   
  1664. RY*(   5) H  80                  0.00000     3.21482   
  1665. RY*(   1) H  81                  0.00145     0.67939   
  1666. RY*(   2) H  81                  0.00015     2.24976   
  1667. RY*(   3) H  81                  0.00011     2.27061   
  1668. RY*(   4) H  81                  0.00006     3.05649   
  1669. RY*(   5) H  81                  0.00000     3.23264   
  1670. RY*(   1) H  82                  0.00038     0.85798   
  1671. RY*(   2) H  82                  0.00008     1.85956   
  1672. RY*(   3) H  82                  0.00004     2.10434   
  1673. RY*(   4) H  82                  0.00004     2.17501   
  1674. RY*(   5) H  82                  0.00000     2.93710   
  1675. RY*(   1) H  83                  0.00049     0.94070   
  1676. RY*(   2) H  83                  0.00008     1.81665   
  1677. RY*(   3) H  83                  0.00004     2.16513   
  1678. RY*(   4) H  83                  0.00003     2.01632   
  1679. RY*(   5) H  83                  0.00000     2.99927   
  1680. RY*(   1) H  84                  0.00026     1.13176   
  1681. RY*(   2) H  84                  0.00009     1.90090   
  1682. RY*(   3) H  84                  0.00003     1.99599   
  1683. RY*(   4) H  84                  0.00003     2.08439   
  1684. RY*(   5) H  84                  0.00000     2.88203   
  1685. RY*(   1) H  85                  0.00046     1.41759   
  1686. RY*(   2) H  85                  0.00010     2.18325   
  1687. RY*(   3) H  85                  0.00007     2.12149   
  1688. RY*(   4) H  85                  0.00003     2.36241   
  1689. RY*(   5) H  85                  0.00001     3.01972   
  1690. RY*(   1) H  86                  0.00052     1.03353   
  1691. RY*(   2) H  86                  0.00008     2.22353   
  1692. RY*(   3) H  86                  0.00005     2.59545   
  1693. RY*(   4) H  86                  0.00005     2.04159   
  1694. RY*(   5) H  86                  0.00001     3.02317   
  1695. RY*(   1) H  87                  0.00035     1.07457   
  1696. RY*(   2) H  87                  0.00006     1.76303   
  1697. RY*(   3) H  87                  0.00007     2.38059   
  1698. RY*(   4) H  87                  0.00003     2.44914   
  1699. RY*(   5) H  87                  0.00001     2.84564   
  1700. RY*(   1) H  88                  0.00037     1.12793   
  1701. RY*(   2) H  88                  0.00007     1.90934   
  1702. RY*(   3) H  88                  0.00006     2.29925   
  1703. RY*(   4) H  88                  0.00004     2.21174   
  1704. RY*(   5) H  88                  0.00001     3.13870   
  1705. RY*(   1) H  89                  0.00052     1.48734   
  1706. RY*(   2) H  89                  0.00033     2.19900   
  1707. RY*(   3) H  89                  0.00017     2.27834   
  1708. RY*(   4) H  89                  0.00010     1.54481   
  1709. RY*(   5) H  89                  0.00000     3.25803   
  1724. BD*(   1)Fe   7 - N  12          0.02417     0.43001   
  1725. BD*(   1)Fe   7 - N  23          0.02343     0.43065   
  1726. BD*(   1)Fe   7 - N  31          0.02489     0.45746   
  1727. BD*(   1)Fe   7 - N  39          0.02337     0.44278   
  1728. BD*(   1)Fe   7 - C  50          0.02481     0.52447   
  1729. BD*(   1) C   8 - C  13          0.01087     0.55855   
  1730. BD*(   2) C   8 - C  13          0.23158     0.03926  1749(v),187(v),1734(r)
                                                    376(g),508(g),1723(r)
  1731. BD*(   1) C   8 - C  43          0.01104     0.56226   
  1732. BD*(   1) C   8 - H  81          0.00718     0.43927   
  1733. BD*(   1) C   9 - C  16          0.01149     0.54994   
  1734. BD*(   2) C   9 - C  16          0.21432     0.04259  1749(v),1767(v),1730(r)
                                                    402(g),588(g),1723(r)
  1735. BD*(   1) C   9 - C  24          0.00916     0.56500   
  1736. BD*(   1) C   9 - H  80          0.00602     0.45291   
  1737. BD*(   1) C  10 - C  27          0.01050     0.62924   
  1738. BD*(   2) C  10 - C  27          0.18693     0.06431  1771(v),1784(v),1767(v)
                                                    428(g),1779(r),1742(r)
                                                    1749(r),874(g)
  1739. BD*(   1) C  10 - C  32          0.01111     0.56718   
  1740. BD*(   1) C  10 - H  73          0.00700     0.45198   
  1741. BD*(   1) C  11 - C  35          0.01027     0.62713   
  1742. BD*(   2) C  11 - C  35          0.20151     0.05664  1788(v),1800(v),1784(v)
                                                    454(g),1738(r),1082(g)
  1743. BD*(   1) C  11 - C  40          0.01080     0.61406   
  1744. BD*(   1) C  11 - H  66          0.00815     0.44870   
  1745. BD*(   1) N  12 - C  13          0.01281     0.51715   
  1746. BD*(   1) N  12 - C  16          0.01474     0.47664   
  1747. BD*(   1) C  13 - C  14          0.01670     0.48963   
  1748. BD*(   1) C  14 - C  15          0.01051     0.60005   
  1749. BD*(   2) C  14 - C  15          0.14621     0.06421  1734(v),1730(v),1756(v)
                                                    1754(v),1758(v),1763(r)
                                                    1753(v)
  1750. BD*(   1) C  14 - C  18          0.01228     0.36850   
  1751. BD*(   1) C  15 - C  16          0.01373     0.60780   
  1752. BD*(   1) C  15 - C  17          0.00996     0.35582   
  1753. BD*(   1) C  17 - H  82          0.00293     0.40760   
  1754. BD*(   1) C  17 - H  83          0.00443     0.40822   
  1755. BD*(   1) C  17 - H  84          0.00273     0.41316   
  1756. BD*(   1) C  18 - C  19          0.00997     0.31695   
  1757. BD*(   1) C  18 - H  85          0.00691     0.38259   
  1758. BD*(   1) C  18 - H  86          0.00728     0.39431   
  1759. BD*(   1) C  19 - C  20          0.03509     0.35873   
  1760. BD*(   1) C  19 - H  87          0.00644     0.37916   
  1761. BD*(   1) C  19 - H  88          0.00577     0.39569   
  1762. BD*(   1) C  20 - O  21          0.02601     0.49161   
  1763. BD*(   2) C  20 - O  21          0.10654     0.03823  1762(g),1756(v),1765(v)
                                                    1760(v),690(g)
  1764. BD*(   1) C  20 - O  22          0.03692     0.47120   
  1765. BD*(   1) O  22 - H  89          0.00686     0.37102   
  1766. BD*(   1) N  23 - C  24          0.01511     0.43870   
  1767. BD*(   2) N  23 - C  24          0.31799     0.00046  1734(v),1771(v),1738(v)
                                                    794(g),766(g),1720(r),178(v)
                                                    402(v),872(v)
  1768. BD*(   1) N  23 - C  27          0.01294     0.56741   
  1769. BD*(   1) C  24 - C  25          0.01516     0.52961   
  1770. BD*(   1) C  25 - C  26          0.01011     0.66869   
  1771. BD*(   2) C  25 - C  26          0.12752     0.08234  1738(v),1779(v),1767(v)
                                                    1776(v),846(g)
  1772. BD*(   1) C  25 - C  28          0.00971     0.38113   
  1773. BD*(   1) C  26 - C  27          0.02030     0.48564   
  1774. BD*(   1) C  26 - C  29          0.01392     0.42072   
  1775. BD*(   1) C  28 - H  77          0.00286     0.41372   
  1776. BD*(   1) C  28 - H  78          0.00489     0.41343   
  1777. BD*(   1) C  28 - H  79          0.00382     0.42997   
  1778. BD*(   1) C  29 - C  30          0.00262     0.59636   
  1779. BD*(   2) C  29 - C  30          0.03802     0.04820   
  1780. BD*(   1) C  29 - H  74          0.00936     0.44795   
  1781. BD*(   1) C  30 - H  75          0.00437     0.44716   
  1782. BD*(   1) C  30 - H  76          0.00437     0.44535   
  1783. BD*(   1) N  31 - C  32          0.01492     0.41049   
  1784. BD*(   2) N  31 - C  32          0.35365    -0.01695  1738(v),1788(v),1742(v)
                                                    178(v),974(g),428(v),1002(g)
                                                    1001(g),1720(r)
  1785. BD*(   1) N  31 - C  35          0.01520     0.42208   
  1786. BD*(   1) C  32 - C  33          0.01429     0.52425   
  1787. BD*(   1) C  33 - C  34          0.00975     0.60618   
  1788. BD*(   2) C  33 - C  34          0.14811     0.06720  1742(v),1784(v),185(v)
                                                    1792(v),1054(g),1028(g)
                                                    1793(v)
  1789. BD*(   1) C  33 - C  36          0.00878     0.37345   
  1790. BD*(   1) C  34 - C  35          0.01456     0.46856   
  1791. BD*(   1) C  34 - C  37          0.01019     0.42656   
  1792. BD*(   1) C  36 - H  70          0.00351     0.41074   
  1793. BD*(   1) C  36 - H  71          0.00257     0.41291   
  1794. BD*(   1) C  36 - H  72          0.00250     0.41880   
  1795. BD*(   1) C  37 - C  38          0.00234     0.62205   
  1796. BD*(   1) C  37 - H  67          0.00363     0.44489   
  1797. BD*(   1) C  38 - H  68          0.00311     0.44443   
  1798. BD*(   1) C  38 - H  69          0.00284     0.44171   
  1799. BD*(   1) N  39 - C  40          0.01372     0.49740   
  1800. BD*(   2) N  39 - C  40          0.31540     0.00883  1742(v),1804(v),187(v)
                                                    1209(g),1182(g),178(v)
                                                    454(v),1720(r)
  1801. BD*(   1) N  39 - C  43          0.01308     0.50342   
  1802. BD*(   1) C  40 - C  41          0.01688     0.49324   
  1803. BD*(   1) C  41 - C  42          0.01006     0.65624   
  1804. BD*(   2) C  41 - C  42          0.11904     0.07782  1800(v),187(v),1811(v)
                                                    1808(v)
  1805. BD*(   1) C  41 - C  44          0.00923     0.38225   
  1806. BD*(   1) C  42 - C  43          0.01628     0.52849   
  1807. BD*(   1) C  42 - C  45          0.01243     0.37607   
  1808. BD*(   1) C  44 - H  63          0.00474     0.40964   
  1809. BD*(   1) C  44 - H  64          0.00309     0.41191   
  1810. BD*(   1) C  44 - H  65          0.00291     0.41614   
  1811. BD*(   1) C  45 - C  46          0.00902     0.32344   
  1812. BD*(   1) C  45 - H  58          0.00665     0.41653   
  1813. BD*(   1) C  45 - H  59          0.00642     0.40275   
  1814. BD*(   1) C  46 - C  47          0.03152     0.37304   
  1815. BD*(   1) C  46 - H  60          0.00645     0.39565   
  1816. BD*(   1) C  46 - H  61          0.00519     0.39518   
  1817. BD*(   1) C  47 - O  48          0.02020     0.52127   
  1818. BD*(   2) C  47 - O  48          0.09378    -0.00297   
  1819. BD*(   1) C  47 - O  49          0.04129     0.41539   
  1820. BD*(   1) O  49 - H  62          0.00617     0.37944   
  1821. BD*(   1) C  50 - O  51          0.03493     0.47590   
  1822. BD*(   2) C  50 - O  51          0.05495     0.12852   
  1823. BD*(   3) C  50 - O  51          0.03833     0.39957   
       -------------------------------
              Total Lewis  161.74845  ( 97.3492%)
        Valence non-Lewis    4.08947  (  2.4613%)
        Rydberg non-Lewis    0.31488  (  0.1895%)
       -------------------------------
            Total unit  2  166.15280  (100.0000%)
           Charge unit  2    1.84720
 1\1\GINC-NODE575\SP\UPBE1PBE\def2TZVP\C39H38Fe1N6O5(5)\ZHARTOVSKA\09-S
 ep-2022\0\\# PBE1PBE/def2TZVP empiricaldispersion=GD3BJ scf=maxcycle=9
 99 geom=check pop=nbo\\1a6g_II_Q\\0,5\C,0,9.563,29.266001,2.603\C,0,10
 .793,29.143999,3.477\N,0,11.018,29.971001,4.542\C,0,11.903,28.341,3.40
 5\C,0,12.244,29.622999,5.051\N,0,12.785,28.643,4.387\Fe,0,14.633,27.79
 9999,4.742\C,0,15.982,30.875999,5.035\C,0,13.859,27.797001,8.082\C,0,1
 3.333,24.698999,4.461\C,0,15.457,27.771999,1.469\N,0,14.899,29.068001,
 6.263\C,0,15.422,30.325001,6.188\C,0,15.366,30.961,7.489\C,0,14.809,30
 .049999,8.337\C,0,14.506,28.948,7.597\C,0,14.492,30.266001,9.839\C,0,1
 5.74,32.409,7.822\C,0,14.479,33.294998,8.021\C,0,13.598,33.317001,6.81
 4\O,0,12.422,32.879002,6.9\O,0,14.082,33.764999,5.74\N,0,13.754,26.474
 001,5.981\C,0,13.521,26.642,7.379\C,0,12.876,25.492001,7.903\C,0,12.73
 2,24.643,6.9\C,0,13.286,25.256001,5.694\C,0,12.416,25.358,9.356\C,0,12
 .192,23.231001,6.941\C,0,12.38305219,22.46417462,8.04192843\N,0,14.397
 ,26.546,3.282\C,0,13.905,25.194,3.289\C,0,14.088,24.503,2.063\C,0,14.7
 ,25.377001,1.22\C,0,14.902,26.634001,1.946\C,0,13.664,23.054001,1.795\
 C,0,15.247,25.156,-0.167\C,0,15.06416569,23.96413626,-0.78554627\N,0,1
 5.464,29.084,3.481\C,0,15.738,28.924999,2.139\C,0,16.452,30.069,1.609\
 C,0,16.638,30.898001,2.629\C,0,16.014999,30.311001,3.762\C,0,16.924,30
 .177999,0.162\C,0,17.469999,32.186001,2.652\C,0,18.965,31.896,2.978\C,
 0,19.889999,33.044998,2.829\O,0,20.224001,33.370998,1.661\O,0,20.26899
 9,33.573002,3.948\C,0,16.25,26.974001,4.896\O,0,17.216,26.469999,4.82\
 H,0,9.78249371,28.89332331,1.62431014\H,0,8.76391414,28.69704915,3.030
 38225\H,0,9.27320393,30.29386396,2.5365472\H,0,10.40958266,30.68774624
 ,4.88274125\H,0,12.70048136,30.10017914,5.89291679\H,0,12.05198265,27.
 57743313,2.67037778\H,0,17.40691131,32.65956714,1.69457896\H,0,17.0722
 0064,32.84541548,3.39485194\H,0,19.02477263,31.5484893,3.98822945\H,0,
 19.30100045,31.11142332,2.33267595\H,0,21.2045082,33.66494555,4.142856
 17\H,0,17.86512979,29.68019944,0.05536828\H,0,16.20351763,29.72079699,
 -0.4835784\H,0,17.03432371,31.20943176,-0.10044075\H,0,15.70834431,27.
 76590573,0.42895726\H,0,15.7796721,25.94014913,-0.66325656\H,0,15.8398
 3703,23.22731996,-0.76722379\H,0,14.14413807,23.75991572,-1.29224454\H
 ,0,14.40496266,22.38767121,2.1847165\H,0,12.72578882,22.86277156,2.272
 58882\H,0,13.56537574,22.90042963,0.74068075\H,0,12.86393113,23.741348
 86,4.37279224\H,0,11.659085,22.83740957,6.10076944\H,0,11.61192808,21.
 79954796,8.371381\H,0,13.3050211,22.52335386,8.58171649\H,0,13.1419918
 9,25.8049104,10.00261184\H,0,11.47553571,25.85315519,9.47948383\H,0,12
 .3087638,24.3222186,9.60208389\H,0,13.59359589,27.80975676,9.11848345\
 H,0,16.43637544,31.83901328,5.14010215\H,0,15.27425597,30.84039471,10.
 28960789\H,0,13.56387559,30.78953431,9.93594302\H,0,14.41906578,29.317
 16488,10.3281734\H,0,16.32604873,32.81080885,7.02200217\H,0,16.3206271
 6,32.42156166,8.72067364\H,0,14.79033499,34.29503346,8.23985976\H,0,13
 .91886706,32.91748397,8.85083989\H,0,15.03396822,33.81270625,5.6256298
 8\\Version=ES64L-G16RevA.03\State=5-A\HF=-3475.4502369\S2=6.119336\S2-
 1=0.\S2A=6.00486\RMSD=2.017e-09\Dipole=-0.2562083,0.6380635,0.6954846\
 Quadrupole=5.4307559,-4.0841158,-1.3466401,8.7862434,16.7301192,18.416
 947\PG=C01 [X(C39H38Fe1N6O5)]\\@


 Sometimes the fool who rushes in gets the job done.
                                    -- Al Bernstein
 Job cpu time:       3 days  5 hours 45 minutes 31.5 seconds.
 Elapsed time:       0 days 19 hours 29 minutes 17.5 seconds.
 File lengths (MBytes):  RWF=   3053 Int=      0 D2E=      0 Chk=    255 Scr=      1
 Normal termination of Gaussian 16 at Fri Sep  9 07:06:47 2022.
