 Entering Gaussian System, Link 0=g16
 Input=/net/homes/chemie/zhartovska/work/BioModel/Konrad/1a6k/1a6k12/1a6k16/1a6k16.com
 Output=/net/homes/chemie/zhartovska/work/BioModel/Konrad/1a6k/1a6k12/1a6k16/1a6k16.log
 Initial command:
 /afs/math/software/gaussian/g16.A03/g16/l1.exe "/scratch/zhartovska_gaussian.hyiBOqD/Gau-21854.inp" -scrdir="/scratch/zhartovska_gaussian.hyiBOqD/"
 Entering Link 1 = /afs/math/software/gaussian/g16.A03/g16/l1.exe PID=     21855.
  
 Copyright (c) 1988,1990,1992,1993,1995,1998,2003,2009,2016,
            Gaussian, Inc.  All Rights Reserved.
  
 This is part of the Gaussian(R) 16 program.  It is based on
 the Gaussian(R) 09 system (copyright 2009, Gaussian, Inc.),
 the Gaussian(R) 03 system (copyright 2003, Gaussian, Inc.),
 the Gaussian(R) 98 system (copyright 1998, Gaussian, Inc.),
 the Gaussian(R) 94 system (copyright 1995, Gaussian, Inc.),
 the Gaussian 92(TM) system (copyright 1992, Gaussian, Inc.),
 the Gaussian 90(TM) system (copyright 1990, Gaussian, Inc.),
 the Gaussian 88(TM) system (copyright 1988, Gaussian, Inc.),
 the Gaussian 86(TM) system (copyright 1986, Carnegie Mellon
 University), and the Gaussian 82(TM) system (copyright 1983,
 Carnegie Mellon University). Gaussian is a federally registered
 trademark of Gaussian, Inc.
  
 This software contains proprietary and confidential information,
 including trade secrets, belonging to Gaussian, Inc.
  
 This software is provided under written license and may be
 used, copied, transmitted, or stored only in accord with that
 written license.
  
 The following legend is applicable only to US Government
 contracts under FAR:
  
                    RESTRICTED RIGHTS LEGEND
  
 Use, reproduction and disclosure by the US Government is
 subject to restrictions as set forth in subparagraphs (a)
 and (c) of the Commercial Computer Software - Restricted
 Rights clause in FAR 52.227-19.
  
 Gaussian, Inc.
 340 Quinnipiac St., Bldg. 40, Wallingford CT 06492
  
  
 ---------------------------------------------------------------
 Warning -- This program may not be used in any manner that
 competes with the business of Gaussian, Inc. or will provide
 assistance to any competitor of Gaussian, Inc.  The licensee
 of this program is prohibited from giving any competitor of
 Gaussian, Inc. access to this program.  By using this program,
 the user acknowledges that Gaussian, Inc. is engaged in the
 business of creating and licensing software in the field of
 computational chemistry and represents and warrants to the
 licensee that it is not a competitor of Gaussian, Inc. and that
 it will not use this program in any manner prohibited above.
 ---------------------------------------------------------------
  

 Cite this work as:
 Gaussian 16, Revision A.03,
 M. J. Frisch, G. W. Trucks, H. B. Schlegel, G. E. Scuseria, 
 M. A. Robb, J. R. Cheeseman, G. Scalmani, V. Barone, 
 G. A. Petersson, H. Nakatsuji, X. Li, M. Caricato, A. V. Marenich, 
 J. Bloino, B. G. Janesko, R. Gomperts, B. Mennucci, H. P. Hratchian, 
 J. V. Ortiz, A. F. Izmaylov, J. L. Sonnenberg, D. Williams-Young, 
 F. Ding, F. Lipparini, F. Egidi, J. Goings, B. Peng, A. Petrone, 
 T. Henderson, D. Ranasinghe, V. G. Zakrzewski, J. Gao, N. Rega, 
 G. Zheng, W. Liang, M. Hada, M. Ehara, K. Toyota, R. Fukuda, 
 J. Hasegawa, M. Ishida, T. Nakajima, Y. Honda, O. Kitao, H. Nakai, 
 T. Vreven, K. Throssell, J. A. Montgomery, Jr., J. E. Peralta, 
 F. Ogliaro, M. J. Bearpark, J. J. Heyd, E. N. Brothers, K. N. Kudin, 
 V. N. Staroverov, T. A. Keith, R. Kobayashi, J. Normand, 
 K. Raghavachari, A. P. Rendell, J. C. Burant, S. S. Iyengar, 
 J. Tomasi, M. Cossi, J. M. Millam, M. Klene, C. Adamo, R. Cammi, 
 J. W. Ochterski, R. L. Martin, K. Morokuma, O. Farkas, 
 J. B. Foresman, and D. J. Fox, Gaussian, Inc., Wallingford CT, 2016.
 
 ******************************************
 Gaussian 16:  ES64L-G16RevA.03 25-Dec-2016
                29-Sep-2022 
 ******************************************
 %nprocs=12
 Will use up to   12 processors via shared memory.
 %mem=16GB
 %oldchk=1a6k_III_D.chk
 %chk=1a6k_III_H.chk
 Copying data from "1a6k_III_D.chk" to current chk file "1a6k_III_H.chk"
 IOpt=  2 FromEx=T IUOpen= 4 IOptOp= 5 NList=   0 IFRang= 0 IUIn= 4 IUOut= 2.
 ----------------------------------------------------------------------
 # PBE1PBE/def2TZVP empiricaldispersion=GD3BJ scf=maxcycle=999 geom=che
 ck pop=nbo
 ----------------------------------------------------------------------
 1/29=2,38=1,172=1/1;
 2/12=2,40=1/2;
 3/5=44,7=101,11=2,14=-4,25=1,30=1,74=-13,124=41/1,2,3;
 4//1;
 5/5=2,7=999,38=5/2;
 6/7=2,8=2,9=2,10=2,28=1,40=1/1,7;
 99/5=1,9=1/99;
 ----------
 1a6k_III_H
 ----------
 Structure from the checkpoint file:  "1a6k_III_H.chk"
 Charge =  1 Multiplicity = 6
 Z-Matrix found in chk file.
 C,0,9.492,29.440001,2.541
 C,0,10.712,29.318001,3.393
 N,0,11.007,30.238001,4.345
 C,0,11.762,28.437,3.339
 C,0,12.181,29.896999,4.878
 N,0,12.674,28.809,4.311
 Fe,0,14.594,27.968,4.72
 C,0,15.966,31.09,4.996
 C,0,13.915,27.936001,8.079
 C,0,13.416,24.757,4.507
 C,0,15.491,27.867001,1.465
 N,0,14.946,29.202,6.28
 C,0,15.449,30.523001,6.183
 C,0,15.363,31.157,7.454
 C,0,14.82,30.256001,8.353
 C,0,14.534,29.1,7.582
 C,0,14.555,30.398001,9.834
 C,0,15.764,32.603001,7.755
 C,0,14.507,33.476002,7.966
 C,0,13.62,33.509998,6.704
 O,0,12.466,33.068001,6.832
 O,0,14.135,33.952,5.64
 N,0,13.856,26.594999,6.046
 C,0,13.58,26.785,7.394
 C,0,12.943,25.636,7.942
 C,0,12.796,24.715,6.966
 C,0,13.334,25.334,5.735
 C,0,12.508,25.525,9.403
 C,0,12.252,23.320999,7.02
 C,0,12.407,22.542999,8.069
 N,0,14.4,26.598,3.235
 C,0,13.945,25.284,3.32
 C,0,14.146,24.589001,2.11
 C,0,14.75,25.464001,1.255
 C,0,14.944,26.698999,1.957
 C,0,13.788,23.136999,1.853
 C,0,15.347,25.237,-0.099
 C,0,15.181,24.205,-0.871
 N,0,15.52,29.250999,3.447
 C,0,15.745,29.018,2.123
 C,0,16.482,30.193001,1.605
 C,0,16.632,31.055,2.561
 C,0,16.017,30.532,3.751
 C,0,16.954,30.298,0.127
 C,0,17.452999,32.355,2.535
 C,0,18.951,32.058998,2.787
 C,0,19.837,33.250999,2.699
 O,0,20.240999,33.617001,1.585
 O,0,20.27,33.77,3.722
 O,0,16.525,27.106001,4.962
 H,0,9.70419031,29.0710251,1.55930144
 H,0,8.6969299,28.86864515,2.9726434
 H,0,9.2005601,30.46776472,2.48046469
 H,0,11.85852264,27.61061793,2.66618796
 H,0,10.44742499,31.02652513,4.60015781
 H,0,12.66363881,30.43645646,5.6660009
 H,0,17.37633133,27.54966188,4.962
 H,0,15.82293541,27.76075691,4.962
 H,0,13.31919088,22.57333311,8.62746902
 H,0,11.62091384,21.87970286,8.36396912
 H,0,11.7171759,22.94372358,6.17352116
 H,0,13.24401061,25.98321394,10.03007923
 H,0,11.56896924,26.02088759,9.53421255
 H,0,12.40648993,24.49319075,9.6675097
 H,0,13.67346492,27.94519892,9.12134169
 H,0,15.35257035,30.94823716,10.28789613
 H,0,13.63234209,30.91899322,9.98289421
 H,0,14.49245622,29.4273147,10.27982101
 H,0,13.02291944,23.76433016,4.43632991
 H,0,14.5528405,22.50482949,2.25335075
 H,0,12.85486359,22.91075917,2.32519909
 H,0,13.70385204,22.97152843,0.79922649
 H,0,15.96027735,23.47813803,-0.96742868
 H,0,14.26503471,24.0820867,-1.41025866
 H,0,15.98229778,26.01230147,-0.47343873
 H,0,15.74718928,27.85898664,0.42615313
 H,0,17.89469238,29.80015652,0.01677426
 H,0,16.22981868,29.83773794,-0.51223411
 H,0,17.06225553,31.32835166,-0.14049992
 H,0,17.34203994,32.82298204,1.57918574
 H,0,17.09142995,33.0155708,3.2951408
 H,0,19.0522952,31.63334352,3.76345151
 H,0,19.27958556,31.33914263,2.06676408
 H,0,21.21732679,33.8403419,3.86065054
 H,0,16.36675141,32.0782105,5.08396762
 H,0,16.3636287,32.62654858,8.64088427
 H,0,16.33029991,32.99104423,6.93425226
 H,0,14.81112463,34.47346653,8.20573469
 H,0,13.93901555,33.07868159,8.78112585
 H,0,15.08988726,33.98995872,5.54862466
 Recover connectivity data from disk.
 Stoichiometry    C38H40FeN6O5(1+,6)
 Framework group  C1[X(C38H40FeN6O5)]
 Deg. of freedom   264
 Full point group                 C1      NOp   1
 Largest Abelian subgroup         C1      NOp   1
 Largest concise Abelian subgroup C1      NOp   1
                         Standard orientation:                         
 ---------------------------------------------------------------------
 Center     Atomic      Atomic             Coordinates (Angstroms)
 Number     Number       Type             X           Y           Z
 ---------------------------------------------------------------------
      1          6           0       -1.628464   -0.035347    5.376603
      2          6           0       -1.246317   -0.363958    3.971197
      3          7           0       -0.384630   -1.372420    3.687947
      4          6           0       -1.530114    0.272890    2.789900
      5          6           0       -0.188023   -1.369426    2.368862
      6          7           0       -0.866560   -0.399928    1.778997
      7         26           0       -0.752908    0.099032   -0.294427
      8          6           0        2.609922   -0.530376   -0.320170
      9          6           0       -1.399339   -3.153495   -1.159378
     10          6           0       -4.109755    0.760360   -0.488845
     11          6           0       -0.131812    3.366302    0.296355
     12          7           0        0.357060   -1.523923   -0.757296
     13          6           0        1.763245   -1.623084   -0.614916
     14          6           0        2.167268   -2.970271   -0.830887
     15          6           0        1.040221   -3.721774   -1.113479
     16          6           0       -0.041543   -2.810355   -1.005407
     17          6           0        0.908708   -5.186288   -1.462268
     18          6           0        3.600327   -3.496641   -0.723195
     19          6           0        3.766799   -4.342399    0.558866
     20          6           0        3.498716   -3.508402    1.828964
     21          8           0        2.561911   -3.891291    2.549556
     22          8           0        4.223241   -2.493865    2.025092
     23          7           0       -2.424873   -0.976527   -0.779977
     24          6           0       -2.507206   -2.337492   -1.045260
     25          6           0       -3.864746   -2.736750   -1.200029
     26          6           0       -4.656428   -1.656828   -1.028466
     27          6           0       -3.750216   -0.531330   -0.712240
     28          6           0       -4.296299   -4.172073   -1.499493
     29          6           0       -6.142090   -1.512924   -1.147596
     30          6           0       -6.850195   -2.199454   -2.017639
     31          7           0       -1.916101    1.743657   -0.045526
     32          6           0       -3.292748    1.867833   -0.219508
     33          6           0       -3.702619    3.214792   -0.147178
     34          6           0       -2.574123    3.953948    0.056811
     35          6           0       -1.459253    3.052842    0.083881
     36          6           0       -5.124967    3.717419   -0.310928
     37          6           0       -2.374798    5.437669    0.046976
     38          6           0       -3.291499    6.356809    0.105326
     39          7           0        0.922273    1.213805   -0.020313
     40          6           0        0.940878    2.547587    0.259988
     41          6           0        2.365053    2.946215    0.330286
     42          6           0        3.107949    1.901220    0.141689
     43          6           0        2.254263    0.761191   -0.056825
     44          6           0        2.810032    4.410884    0.604205
     45          6           0        4.636883    1.849962   -0.014667
     46          6           0        5.048924    2.203065   -1.464035
     47          6           0        6.518479    2.258581   -1.689718
     48          8           0        7.129012    3.301571   -1.411168
     49          8           0        7.084536    1.339938   -2.272002
     50          8           0       -0.637587    0.758156   -2.314977
     51          1           0       -1.766485    1.021518    5.470866
     52          1           0       -2.539967   -0.537648    5.625110
     53          1           0       -0.852808   -0.354411    6.041025
     54          1           0       -2.152704    1.135001    2.671386
     55          1           0        0.027266   -2.002032    4.346681
     56          1           0        0.440301   -2.064701    1.852432
     57          1           0        0.148602    0.923725   -2.840423
     58          1           0       -0.386698    0.347295   -1.484406
     59          1           0       -6.450282   -2.406860   -2.988182
     60          1           0       -7.826204   -2.550589   -1.754942
     61          1           0       -6.646479   -0.825879   -0.500711
     62          1           0       -3.607393   -4.615395   -2.187805
     63          1           0       -4.307246   -4.738027   -0.591486
     64          1           0       -5.276374   -4.167621   -1.928833
     65          1           0       -1.597399   -4.178253   -1.395055
     66          1           0        1.722895   -5.477324   -2.092583
     67          1           0        0.925886   -5.769483   -0.565335
     68          1           0       -0.015774   -5.348995   -1.975843
     69          1           0       -5.160500    0.959493   -0.523221
     70          1           0       -5.362917    3.781600   -1.352159
     71          1           0       -5.800169    3.039537    0.168111
     72          1           0       -5.214785    4.685546    0.135795
     73          1           0       -3.561369    6.899979   -0.776170
     74          1           0       -3.776465    6.570483    1.034870
     75          1           0       -1.362953    5.780033   -0.015130
     76          1           0        0.073780    4.392487    0.519009
     77          1           0        2.818135    4.958964   -0.314731
     78          1           0        2.125910    4.869694    1.287119
     79          1           0        3.792224    4.411782    1.028700
     80          1           0        5.083889    2.550382    0.659497
     81          1           0        4.982438    0.864866    0.220020
     82          1           0        4.632863    1.469395   -2.122458
     83          1           0        4.632222    3.157017   -1.711492
     84          1           0        7.573877    1.512728   -3.079645
     85          1           0        3.658740   -0.741367   -0.301077
     86          1           0        3.819598   -4.102524   -1.577435
     87          1           0        4.279191   -2.670153   -0.692197
     88          1           0        4.765215   -4.725285    0.597124
     89          1           0        3.079487   -5.161879    0.527997
     90          1           0        4.708308   -2.102074    1.295154
 ---------------------------------------------------------------------
 Rotational constants (GHZ):           0.0698492           0.0507222           0.0375474
 Standard basis: def2TZVP (5D, 7F)
 There are  2056 symmetry adapted cartesian basis functions of A   symmetry.
 There are  1804 symmetry adapted basis functions of A   symmetry.
  1804 basis functions,  2921 primitive gaussians,  2056 cartesian basis functions
   190 alpha electrons      185 beta electrons
       nuclear repulsion energy      7658.2838974337 Hartrees.
 NAtoms=   90 NActive=   90 NUniq=   90 SFac= 1.00D+00 NAtFMM=   60 NAOKFM=T Big=T
 Integral buffers will be    131072 words long.
 Raffenetti 2 integral format.
 Two-electron integral symmetry is turned on.
 Nuclear repulsion after empirical dispersion term =     7658.1562774620 Hartrees.
 One-electron integrals computed using PRISM.
   1 Symmetry operations used in ECPInt.
 ECPInt:  NShTT=  255255 NPrTT=  790653 LenC2=  187420 LenP2D=  376255.
 LDataN:  DoStor=T MaxTD1= 6 Len=  172
 NBasis=  1804 RedAO= T EigKep=  3.15D-06  NBF=  1804
 NBsUse=  1804 1.00D-06 EigRej= -1.00D+00 NBFU=  1804
 ExpMin= 4.20D-02 ExpMax= 3.01D+05 ExpMxC= 2.91D+03 IAcc=3 IRadAn=         5 AccDes= 0.00D+00
 Harris functional with IExCor= 1009 and IRadAn=       5 diagonalized for initial guess.
 HarFok:  IExCor= 1009 AccDes= 0.00D+00 IRadAn=         5 IDoV= 1 UseB2=F ITyADJ=14
 ICtDFT=  3500011 ScaDFX=  1.000000  1.000000  1.000000  1.000000
 FoFCou: FMM=F IPFlag=           0 FMFlag=      100000 FMFlg1=        2001
         NFxFlg=           0 DoJE=T BraDBF=F KetDBF=T FulRan=T
         wScrn=  0.000000 ICntrl=       500 IOpCl=  0 I1Cent=   200000004 NGrid=           0
         NMat0=    1 NMatS0=      1 NMatT0=    0 NMatD0=    1 NMtDS0=    0 NMtDT0=    0
 Petite list used in FoFCou.
 Initial guess <Sx>= 0.0000 <Sy>= 0.0000 <Sz>= 2.5000 <S**2>= 8.7500 S= 2.5000
 Requested convergence on RMS density matrix=1.00D-08 within 999 cycles.
 Requested convergence on MAX density matrix=1.00D-06.
 Requested convergence on             energy=1.00D-06.
 No special actions if energy rises.
 EnCoef did   100 forward-backward iterations
 EnCoef did     5 forward-backward iterations
 EnCoef did     6 forward-backward iterations
 Restarting incremental Fock formation.
 Restarting incremental Fock formation.
 SCF Done:  E(UPBE1PBE) =  -3438.30363599     A.U. after   47 cycles
            NFock= 47  Conv=0.18D-08     -V/T= 2.0029
 <Sx>= 0.0000 <Sy>= 0.0000 <Sz>= 2.5000 <S**2>= 9.1179 S= 2.5607
 <L.S>= 0.000000000000E+00
 Annihilation of the first spin contaminant:
 S**2 before annihilation     9.1179,   after     8.7655

 **********************************************************************

            Population analysis using the SCF density.

 **********************************************************************

 Orbital symmetries:
 Alpha Orbitals:
       Occupied  (A) (A) (A) (A) (A) (A) (A) (A) (A) (A) (A) (A)
                 (A) (A) (A) (A) (A) (A) (A) (A) (A) (A) (A) (A)
                 (A) (A) (A) (A) (A) (A) (A) (A) (A) (A) (A) (A)
                 (A) (A) (A) (A) (A) (A) (A) (A) (A) (A) (A) (A)
                 (A) (A) (A) (A) (A) (A) (A) (A) (A) (A) (A) (A)
                 (A) (A) (A) (A) (A) (A) (A) (A) (A) (A) (A) (A)
                 (A) (A) (A) (A) (A) (A) (A) (A) (A) (A) (A) (A)
                 (A) (A) (A) (A) (A) (A) (A) (A) (A) (A) (A) (A)
                 (A) (A) (A) (A) (A) (A) (A) (A) (A) (A) (A) (A)
                 (A) (A) (A) (A) (A) (A) (A) (A) (A) (A) (A) (A)
                 (A) (A) (A) (A) (A) (A) (A) (A) (A) (A) (A) (A)
                 (A) (A) (A) (A) (A) (A) (A) (A) (A) (A) (A) (A)
                 (A) (A) (A) (A) (A) (A) (A) (A) (A) (A) (A) (A)
                 (A) (A) (A) (A) (A) (A) (A) (A) (A) (A) (A) (A)
                 (A) (A) (A) (A) (A) (A) (A) (A) (A) (A) (A) (A)
                 (A) (A) (A) (A) (A) (A) (A) (A) (A) (A)
       Virtual   (A) (A) (A) (A) (A) (A) (A) (A) (A) (A) (A) (A)
                 (A) (A) (A) (A) (A) (A) (A) (A) (A) (A) (A) (A)
                 (A) (A) (A) (A) (A) (A) (A) (A) (A) (A) (A) (A)
                 (A) (A) (A) (A) (A) (A) (A) (A) (A) (A) (A) (A)
                 (A) (A) (A) (A) (A) (A) (A) (A) (A) (A) (A) (A)
                 (A) (A) (A) (A) (A) (A) (A) (A) (A) (A) (A) (A)
                 (A) (A) (A) (A) (A) (A) (A) (A) (A) (A) (A) (A)
                 (A) (A) (A) (A) (A) (A) (A) (A) (A) (A) (A) (A)
                 (A) (A) (A) (A) (A) (A) (A) (A) (A) (A) (A) (A)
                 (A) (A) (A) (A) (A) (A) (A) (A) (A) (A) (A) (A)
                 (A) (A) (A) (A) (A) (A) (A) (A) (A) (A) (A) (A)
                 (A) (A) (A) (A) (A) (A) (A) (A) (A) (A) (A) (A)
                 (A) (A) (A) (A) (A) (A) (A) (A) (A) (A) (A) (A)
                 (A) (A) (A) (A) (A) (A) (A) (A) (A) (A) (A) (A)
                 (A) (A) (A) (A) (A) (A) (A) (A) (A) (A) (A) (A)
                 (A) (A) (A) (A) (A) (A) (A) (A) (A) (A) (A) (A)
                 (A) (A) (A) (A) (A) (A) (A) (A) (A) (A) (A) (A)
                 (A) (A) (A) (A) (A) (A) (A) (A) (A) (A) (A) (A)
                 (A) (A) (A) (A) (A) (A) (A) (A) (A) (A) (A) (A)
                 (A) (A) (A) (A) (A) (A) (A) (A) (A) (A) (A) (A)
                 (A) (A) (A) (A) (A) (A) (A) (A) (A) (A) (A) (A)
                 (A) (A) (A) (A) (A) (A) (A) (A) (A) (A) (A) (A)
                 (A) (A) (A) (A) (A) (A) (A) (A) (A) (A) (A) (A)
                 (A) (A) (A) (A) (A) (A) (A) (A) (A) (A) (A) (A)
                 (A) (A) (A) (A) (A) (A) (A) (A) (A) (A) (A) (A)
                 (A) (A) (A) (A) (A) (A) (A) (A) (A) (A) (A) (A)
                 (A) (A) (A) (A) (A) (A) (A) (A) (A) (A) (A) (A)
                 (A) (A) (A) (A) (A) (A) (A) (A) (A) (A) (A) (A)
                 (A) (A) (A) (A) (A) (A) (A) (A) (A) (A) (A) (A)
                 (A) (A) (A) (A) (A) (A) (A) (A) (A) (A) (A) (A)
                 (A) (A) (A) (A) (A) (A) (A) (A) (A) (A) (A) (A)
                 (A) (A) (A) (A) (A) (A) (A) (A) (A) (A) (A) (A)
                 (A) (A) (A) (A) (A) (A) (A) (A) (A) (A) (A) (A)
                 (A) (A) (A) (A) (A) (A) (A) (A) (A) (A) (A) (A)
                 (A) (A) (A) (A) (A) (A) (A) (A) (A) (A) (A) (A)
                 (A) (A) (A) (A) (A) (A) (A) (A) (A) (A) (A) (A)
                 (A) (A) (A) (A) (A) (A) (A) (A) (A) (A) (A) (A)
                 (A) (A) (A) (A) (A) (A) (A) (A) (A) (A) (A) (A)
                 (A) (A) (A) (A) (A) (A) (A) (A) (A) (A) (A) (A)
                 (A) (A) (A) (A) (A) (A) (A) (A) (A) (A) (A) (A)
                 (A) (A) (A) (A) (A) (A) (A) (A) (A) (A) (A) (A)
                 (A) (A) (A) (A) (A) (A) (A) (A) (A) (A) (A) (A)
                 (A) (A) (A) (A) (A) (A) (A) (A) (A) (A) (A) (A)
                 (A) (A) (A) (A) (A) (A) (A) (A) (A) (A) (A) (A)
                 (A) (A) (A) (A) (A) (A) (A) (A) (A) (A) (A) (A)
                 (A) (A) (A) (A) (A) (A) (A) (A) (A) (A) (A) (A)
                 (A) (A) (A) (A) (A) (A) (A) (A) (A) (A) (A) (A)
                 (A) (A) (A) (A) (A) (A) (A) (A) (A) (A) (A) (A)
                 (A) (A) (A) (A) (A) (A) (A) (A) (A) (A) (A) (A)
                 (A) (A) (A) (A) (A) (A) (A) (A) (A) (A) (A) (A)
                 (A) (A) (A) (A) (A) (A) (A) (A) (A) (A) (A) (A)
                 (A) (A) (A) (A) (A) (A) (A) (A) (A) (A) (A) (A)
                 (A) (A) (A) (A) (A) (A) (A) (A) (A) (A) (A) (A)
                 (A) (A) (A) (A) (A) (A) (A) (A) (A) (A) (A) (A)
                 (A) (A) (A) (A) (A) (A) (A) (A) (A) (A) (A) (A)
                 (A) (A) (A) (A) (A) (A) (A) (A) (A) (A) (A) (A)
                 (A) (A) (A) (A) (A) (A) (A) (A) (A) (A) (A) (A)
                 (A) (A) (A) (A) (A) (A) (A) (A) (A) (A) (A) (A)
                 (A) (A) (A) (A) (A) (A) (A) (A) (A) (A) (A) (A)
                 (A) (A) (A) (A) (A) (A) (A) (A) (A) (A) (A) (A)
                 (A) (A) (A) (A) (A) (A) (A) (A) (A) (A) (A) (A)
                 (A) (A) (A) (A) (A) (A) (A) (A) (A) (A) (A) (A)
                 (A) (A) (A) (A) (A) (A) (A) (A) (A) (A) (A) (A)
                 (A) (A) (A) (A) (A) (A) (A) (A) (A) (A) (A) (A)
                 (A) (A) (A) (A) (A) (A) (A) (A) (A) (A) (A) (A)
                 (A) (A) (A) (A) (A) (A) (A) (A) (A) (A) (A) (A)
                 (A) (A) (A) (A) (A) (A) (A) (A) (A) (A) (A) (A)
                 (A) (A) (A) (A) (A) (A) (A) (A) (A) (A) (A) (A)
                 (A) (A) (A) (A) (A) (A) (A) (A) (A) (A) (A) (A)
                 (A) (A) (A) (A) (A) (A) (A) (A) (A) (A) (A) (A)
                 (A) (A) (A) (A) (A) (A) (A) (A) (A) (A) (A) (A)
                 (A) (A) (A) (A) (A) (A) (A) (A) (A) (A) (A) (A)
                 (A) (A) (A) (A) (A) (A) (A) (A) (A) (A) (A) (A)
                 (A) (A) (A) (A) (A) (A) (A) (A) (A) (A) (A) (A)
                 (A) (A) (A) (A) (A) (A) (A) (A) (A) (A) (A) (A)
                 (A) (A) (A) (A) (A) (A) (A) (A) (A) (A) (A) (A)
                 (A) (A) (A) (A) (A) (A) (A) (A) (A) (A) (A) (A)
                 (A) (A) (A) (A) (A) (A) (A) (A) (A) (A) (A) (A)
                 (A) (A) (A) (A) (A) (A) (A) (A) (A) (A) (A) (A)
                 (A) (A) (A) (A) (A) (A) (A) (A) (A) (A) (A) (A)
                 (A) (A) (A) (A) (A) (A) (A) (A) (A) (A) (A) (A)
                 (A) (A) (A) (A) (A) (A) (A) (A) (A) (A) (A) (A)
                 (A) (A) (A) (A) (A) (A) (A) (A) (A) (A) (A) (A)
                 (A) (A) (A) (A) (A) (A) (A) (A) (A) (A) (A) (A)
                 (A) (A) (A) (A) (A) (A) (A) (A) (A) (A) (A) (A)
                 (A) (A) (A) (A) (A) (A) (A) (A) (A) (A) (A) (A)
                 (A) (A) (A) (A) (A) (A) (A) (A) (A) (A) (A) (A)
                 (A) (A) (A) (A) (A) (A) (A) (A) (A) (A) (A) (A)
                 (A) (A) (A) (A) (A) (A) (A) (A) (A) (A) (A) (A)
                 (A) (A) (A) (A) (A) (A) (A) (A) (A) (A) (A) (A)
                 (A) (A) (A) (A) (A) (A) (A) (A) (A) (A) (A) (A)
                 (A) (A) (A) (A) (A) (A) (A) (A) (A) (A) (A) (A)
                 (A) (A) (A) (A) (A) (A) (A) (A) (A) (A) (A) (A)
                 (A) (A) (A) (A) (A) (A) (A) (A) (A) (A) (A) (A)
                 (A) (A) (A) (A) (A) (A) (A) (A) (A) (A) (A) (A)
                 (A) (A) (A) (A) (A) (A) (A) (A) (A) (A) (A) (A)
                 (A) (A) (A) (A) (A) (A) (A) (A) (A) (A) (A) (A)
                 (A) (A) (A) (A) (A) (A) (A) (A) (A) (A) (A) (A)
                 (A) (A) (A) (A) (A) (A) (A) (A) (A) (A) (A) (A)
                 (A) (A) (A) (A) (A) (A) (A) (A) (A) (A) (A) (A)
                 (A) (A) (A) (A) (A) (A) (A) (A) (A) (A) (A) (A)
                 (A) (A) (A) (A) (A) (A) (A) (A) (A) (A) (A) (A)
                 (A) (A) (A) (A) (A) (A) (A) (A) (A) (A) (A) (A)
                 (A) (A) (A) (A) (A) (A) (A) (A) (A) (A) (A) (A)
                 (A) (A) (A) (A) (A) (A) (A) (A) (A) (A) (A) (A)
                 (A) (A) (A) (A) (A) (A) (A) (A) (A) (A) (A) (A)
                 (A) (A) (A) (A) (A) (A) (A) (A) (A) (A) (A) (A)
                 (A) (A) (A) (A) (A) (A) (A) (A) (A) (A) (A) (A)
                 (A) (A) (A) (A) (A) (A) (A) (A) (A) (A) (A) (A)
                 (A) (A) (A) (A) (A) (A) (A) (A) (A) (A) (A) (A)
                 (A) (A) (A) (A) (A) (A) (A) (A) (A) (A) (A) (A)
                 (A) (A) (A) (A) (A) (A) (A) (A) (A) (A) (A) (A)
                 (A) (A) (A) (A) (A) (A) (A) (A) (A) (A) (A) (A)
                 (A) (A) (A) (A) (A) (A) (A) (A) (A) (A) (A) (A)
                 (A) (A) (A) (A) (A) (A) (A) (A) (A) (A) (A) (A)
                 (A) (A) (A) (A) (A) (A) (A) (A) (A) (A) (A) (A)
                 (A) (A) (A) (A) (A) (A) (A) (A) (A) (A) (A) (A)
                 (A) (A) (A) (A) (A) (A) (A) (A) (A) (A) (A) (A)
                 (A) (A) (A) (A) (A) (A) (A) (A) (A) (A) (A) (A)
                 (A) (A) (A) (A) (A) (A) (A) (A) (A) (A) (A) (A)
                 (A) (A) (A) (A) (A) (A) (A) (A) (A) (A) (A) (A)
                 (A) (A) (A) (A) (A) (A) (A) (A) (A) (A) (A) (A)
                 (A) (A) (A) (A) (A) (A) (A) (A) (A) (A) (A) (A)
                 (A) (A) (A) (A) (A) (A) (A) (A) (A) (A) (A) (A)
                 (A) (A) (A) (A) (A) (A) (A) (A) (A) (A) (A) (A)
                 (A) (A) (A) (A) (A) (A) (A) (A) (A) (A) (A) (A)
                 (A) (A) (A) (A) (A) (A) (A) (A) (A) (A) (A) (A)
                 (A) (A) (A) (A) (A) (A) (A) (A) (A) (A) (A) (A)
                 (A) (A) (A) (A) (A) (A) (A) (A) (A) (A) (A) (A)
                 (A) (A) (A) (A) (A) (A) (A) (A) (A) (A) (A) (A)
                 (A) (A) (A) (A) (A) (A) (A) (A) (A) (A) (A) (A)
                 (A) (A) (A) (A) (A) (A) (A) (A) (A) (A) (A) (A)
                 (A) (A) (A) (A) (A) (A) (A) (A) (A) (A) (A) (A)
                 (A) (A) (A) (A) (A) (A) (A) (A) (A) (A) (A) (A)
                 (A) (A) (A) (A) (A) (A)
 Beta  Orbitals:
       Occupied  (A) (A) (A) (A) (A) (A) (A) (A) (A) (A) (A) (A)
                 (A) (A) (A) (A) (A) (A) (A) (A) (A) (A) (A) (A)
                 (A) (A) (A) (A) (A) (A) (A) (A) (A) (A) (A) (A)
                 (A) (A) (A) (A) (A) (A) (A) (A) (A) (A) (A) (A)
                 (A) (A) (A) (A) (A) (A) (A) (A) (A) (A) (A) (A)
                 (A) (A) (A) (A) (A) (A) (A) (A) (A) (A) (A) (A)
                 (A) (A) (A) (A) (A) (A) (A) (A) (A) (A) (A) (A)
                 (A) (A) (A) (A) (A) (A) (A) (A) (A) (A) (A) (A)
                 (A) (A) (A) (A) (A) (A) (A) (A) (A) (A) (A) (A)
                 (A) (A) (A) (A) (A) (A) (A) (A) (A) (A) (A) (A)
                 (A) (A) (A) (A) (A) (A) (A) (A) (A) (A) (A) (A)
                 (A) (A) (A) (A) (A) (A) (A) (A) (A) (A) (A) (A)
                 (A) (A) (A) (A) (A) (A) (A) (A) (A) (A) (A) (A)
                 (A) (A) (A) (A) (A) (A) (A) (A) (A) (A) (A) (A)
                 (A) (A) (A) (A) (A) (A) (A) (A) (A) (A) (A) (A)
                 (A) (A) (A) (A) (A)
       Virtual   (A) (A) (A) (A) (A) (A) (A) (A) (A) (A) (A) (A)
                 (A) (A) (A) (A) (A) (A) (A) (A) (A) (A) (A) (A)
                 (A) (A) (A) (A) (A) (A) (A) (A) (A) (A) (A) (A)
                 (A) (A) (A) (A) (A) (A) (A) (A) (A) (A) (A) (A)
                 (A) (A) (A) (A) (A) (A) (A) (A) (A) (A) (A) (A)
                 (A) (A) (A) (A) (A) (A) (A) (A) (A) (A) (A) (A)
                 (A) (A) (A) (A) (A) (A) (A) (A) (A) (A) (A) (A)
                 (A) (A) (A) (A) (A) (A) (A) (A) (A) (A) (A) (A)
                 (A) (A) (A) (A) (A) (A) (A) (A) (A) (A) (A) (A)
                 (A) (A) (A) (A) (A) (A) (A) (A) (A) (A) (A) (A)
                 (A) (A) (A) (A) (A) (A) (A) (A) (A) (A) (A) (A)
                 (A) (A) (A) (A) (A) (A) (A) (A) (A) (A) (A) (A)
                 (A) (A) (A) (A) (A) (A) (A) (A) (A) (A) (A) (A)
                 (A) (A) (A) (A) (A) (A) (A) (A) (A) (A) (A) (A)
                 (A) (A) (A) (A) (A) (A) (A) (A) (A) (A) (A) (A)
                 (A) (A) (A) (A) (A) (A) (A) (A) (A) (A) (A) (A)
                 (A) (A) (A) (A) (A) (A) (A) (A) (A) (A) (A) (A)
                 (A) (A) (A) (A) (A) (A) (A) (A) (A) (A) (A) (A)
                 (A) (A) (A) (A) (A) (A) (A) (A) (A) (A) (A) (A)
                 (A) (A) (A) (A) (A) (A) (A) (A) (A) (A) (A) (A)
                 (A) (A) (A) (A) (A) (A) (A) (A) (A) (A) (A) (A)
                 (A) (A) (A) (A) (A) (A) (A) (A) (A) (A) (A) (A)
                 (A) (A) (A) (A) (A) (A) (A) (A) (A) (A) (A) (A)
                 (A) (A) (A) (A) (A) (A) (A) (A) (A) (A) (A) (A)
                 (A) (A) (A) (A) (A) (A) (A) (A) (A) (A) (A) (A)
                 (A) (A) (A) (A) (A) (A) (A) (A) (A) (A) (A) (A)
                 (A) (A) (A) (A) (A) (A) (A) (A) (A) (A) (A) (A)
                 (A) (A) (A) (A) (A) (A) (A) (A) (A) (A) (A) (A)
                 (A) (A) (A) (A) (A) (A) (A) (A) (A) (A) (A) (A)
                 (A) (A) (A) (A) (A) (A) (A) (A) (A) (A) (A) (A)
                 (A) (A) (A) (A) (A) (A) (A) (A) (A) (A) (A) (A)
                 (A) (A) (A) (A) (A) (A) (A) (A) (A) (A) (A) (A)
                 (A) (A) (A) (A) (A) (A) (A) (A) (A) (A) (A) (A)
                 (A) (A) (A) (A) (A) (A) (A) (A) (A) (A) (A) (A)
                 (A) (A) (A) (A) (A) (A) (A) (A) (A) (A) (A) (A)
                 (A) (A) (A) (A) (A) (A) (A) (A) (A) (A) (A) (A)
                 (A) (A) (A) (A) (A) (A) (A) (A) (A) (A) (A) (A)
                 (A) (A) (A) (A) (A) (A) (A) (A) (A) (A) (A) (A)
                 (A) (A) (A) (A) (A) (A) (A) (A) (A) (A) (A) (A)
                 (A) (A) (A) (A) (A) (A) (A) (A) (A) (A) (A) (A)
                 (A) (A) (A) (A) (A) (A) (A) (A) (A) (A) (A) (A)
                 (A) (A) (A) (A) (A) (A) (A) (A) (A) (A) (A) (A)
                 (A) (A) (A) (A) (A) (A) (A) (A) (A) (A) (A) (A)
                 (A) (A) (A) (A) (A) (A) (A) (A) (A) (A) (A) (A)
                 (A) (A) (A) (A) (A) (A) (A) (A) (A) (A) (A) (A)
                 (A) (A) (A) (A) (A) (A) (A) (A) (A) (A) (A) (A)
                 (A) (A) (A) (A) (A) (A) (A) (A) (A) (A) (A) (A)
                 (A) (A) (A) (A) (A) (A) (A) (A) (A) (A) (A) (A)
                 (A) (A) (A) (A) (A) (A) (A) (A) (A) (A) (A) (A)
                 (A) (A) (A) (A) (A) (A) (A) (A) (A) (A) (A) (A)
                 (A) (A) (A) (A) (A) (A) (A) (A) (A) (A) (A) (A)
                 (A) (A) (A) (A) (A) (A) (A) (A) (A) (A) (A) (A)
                 (A) (A) (A) (A) (A) (A) (A) (A) (A) (A) (A) (A)
                 (A) (A) (A) (A) (A) (A) (A) (A) (A) (A) (A) (A)
                 (A) (A) (A) (A) (A) (A) (A) (A) (A) (A) (A) (A)
                 (A) (A) (A) (A) (A) (A) (A) (A) (A) (A) (A) (A)
                 (A) (A) (A) (A) (A) (A) (A) (A) (A) (A) (A) (A)
                 (A) (A) (A) (A) (A) (A) (A) (A) (A) (A) (A) (A)
                 (A) (A) (A) (A) (A) (A) (A) (A) (A) (A) (A) (A)
                 (A) (A) (A) (A) (A) (A) (A) (A) (A) (A) (A) (A)
                 (A) (A) (A) (A) (A) (A) (A) (A) (A) (A) (A) (A)
                 (A) (A) (A) (A) (A) (A) (A) (A) (A) (A) (A) (A)
                 (A) (A) (A) (A) (A) (A) (A) (A) (A) (A) (A) (A)
                 (A) (A) (A) (A) (A) (A) (A) (A) (A) (A) (A) (A)
                 (A) (A) (A) (A) (A) (A) (A) (A) (A) (A) (A) (A)
                 (A) (A) (A) (A) (A) (A) (A) (A) (A) (A) (A) (A)
                 (A) (A) (A) (A) (A) (A) (A) (A) (A) (A) (A) (A)
                 (A) (A) (A) (A) (A) (A) (A) (A) (A) (A) (A) (A)
                 (A) (A) (A) (A) (A) (A) (A) (A) (A) (A) (A) (A)
                 (A) (A) (A) (A) (A) (A) (A) (A) (A) (A) (A) (A)
                 (A) (A) (A) (A) (A) (A) (A) (A) (A) (A) (A) (A)
                 (A) (A) (A) (A) (A) (A) (A) (A) (A) (A) (A) (A)
                 (A) (A) (A) (A) (A) (A) (A) (A) (A) (A) (A) (A)
                 (A) (A) (A) (A) (A) (A) (A) (A) (A) (A) (A) (A)
                 (A) (A) (A) (A) (A) (A) (A) (A) (A) (A) (A) (A)
                 (A) (A) (A) (A) (A) (A) (A) (A) (A) (A) (A) (A)
                 (A) (A) (A) (A) (A) (A) (A) (A) (A) (A) (A) (A)
                 (A) (A) (A) (A) (A) (A) (A) (A) (A) (A) (A) (A)
                 (A) (A) (A) (A) (A) (A) (A) (A) (A) (A) (A) (A)
                 (A) (A) (A) (A) (A) (A) (A) (A) (A) (A) (A) (A)
                 (A) (A) (A) (A) (A) (A) (A) (A) (A) (A) (A) (A)
                 (A) (A) (A) (A) (A) (A) (A) (A) (A) (A) (A) (A)
                 (A) (A) (A) (A) (A) (A) (A) (A) (A) (A) (A) (A)
                 (A) (A) (A) (A) (A) (A) (A) (A) (A) (A) (A) (A)
                 (A) (A) (A) (A) (A) (A) (A) (A) (A) (A) (A) (A)
                 (A) (A) (A) (A) (A) (A) (A) (A) (A) (A) (A) (A)
                 (A) (A) (A) (A) (A) (A) (A) (A) (A) (A) (A) (A)
                 (A) (A) (A) (A) (A) (A) (A) (A) (A) (A) (A) (A)
                 (A) (A) (A) (A) (A) (A) (A) (A) (A) (A) (A) (A)
                 (A) (A) (A) (A) (A) (A) (A) (A) (A) (A) (A) (A)
                 (A) (A) (A) (A) (A) (A) (A) (A) (A) (A) (A) (A)
                 (A) (A) (A) (A) (A) (A) (A) (A) (A) (A) (A) (A)
                 (A) (A) (A) (A) (A) (A) (A) (A) (A) (A) (A) (A)
                 (A) (A) (A) (A) (A) (A) (A) (A) (A) (A) (A) (A)
                 (A) (A) (A) (A) (A) (A) (A) (A) (A) (A) (A) (A)
                 (A) (A) (A) (A) (A) (A) (A) (A) (A) (A) (A) (A)
                 (A) (A) (A) (A) (A) (A) (A) (A) (A) (A) (A) (A)
                 (A) (A) (A) (A) (A) (A) (A) (A) (A) (A) (A) (A)
                 (A) (A) (A) (A) (A) (A) (A) (A) (A) (A) (A) (A)
                 (A) (A) (A) (A) (A) (A) (A) (A) (A) (A) (A) (A)
                 (A) (A) (A) (A) (A) (A) (A) (A) (A) (A) (A) (A)
                 (A) (A) (A) (A) (A) (A) (A) (A) (A) (A) (A) (A)
                 (A) (A) (A) (A) (A) (A) (A) (A) (A) (A) (A) (A)
                 (A) (A) (A) (A) (A) (A) (A) (A) (A) (A) (A) (A)
                 (A) (A) (A) (A) (A) (A) (A) (A) (A) (A) (A) (A)
                 (A) (A) (A) (A) (A) (A) (A) (A) (A) (A) (A) (A)
                 (A) (A) (A) (A) (A) (A) (A) (A) (A) (A) (A) (A)
                 (A) (A) (A) (A) (A) (A) (A) (A) (A) (A) (A) (A)
                 (A) (A) (A) (A) (A) (A) (A) (A) (A) (A) (A) (A)
                 (A) (A) (A) (A) (A) (A) (A) (A) (A) (A) (A) (A)
                 (A) (A) (A) (A) (A) (A) (A) (A) (A) (A) (A) (A)
                 (A) (A) (A) (A) (A) (A) (A) (A) (A) (A) (A) (A)
                 (A) (A) (A) (A) (A) (A) (A) (A) (A) (A) (A) (A)
                 (A) (A) (A) (A) (A) (A) (A) (A) (A) (A) (A) (A)
                 (A) (A) (A) (A) (A) (A) (A) (A) (A) (A) (A) (A)
                 (A) (A) (A) (A) (A) (A) (A) (A) (A) (A) (A) (A)
                 (A) (A) (A) (A) (A) (A) (A) (A) (A) (A) (A) (A)
                 (A) (A) (A) (A) (A) (A) (A) (A) (A) (A) (A) (A)
                 (A) (A) (A) (A) (A) (A) (A) (A) (A) (A) (A) (A)
                 (A) (A) (A) (A) (A) (A) (A) (A) (A) (A) (A) (A)
                 (A) (A) (A) (A) (A) (A) (A) (A) (A) (A) (A) (A)
                 (A) (A) (A) (A) (A) (A) (A) (A) (A) (A) (A) (A)
                 (A) (A) (A) (A) (A) (A) (A) (A) (A) (A) (A) (A)
                 (A) (A) (A) (A) (A) (A) (A) (A) (A) (A) (A) (A)
                 (A) (A) (A) (A) (A) (A) (A) (A) (A) (A) (A) (A)
                 (A) (A) (A) (A) (A) (A) (A) (A) (A) (A) (A) (A)
                 (A) (A) (A) (A) (A) (A) (A) (A) (A) (A) (A) (A)
                 (A) (A) (A) (A) (A) (A) (A) (A) (A) (A) (A) (A)
                 (A) (A) (A) (A) (A) (A) (A) (A) (A) (A) (A) (A)
                 (A) (A) (A) (A) (A) (A) (A) (A) (A) (A) (A) (A)
                 (A) (A) (A) (A) (A) (A) (A) (A) (A) (A) (A) (A)
                 (A) (A) (A) (A) (A) (A) (A) (A) (A) (A) (A) (A)
                 (A) (A) (A) (A) (A) (A) (A) (A) (A) (A) (A) (A)
                 (A) (A) (A) (A) (A) (A) (A) (A) (A) (A) (A) (A)
                 (A) (A) (A) (A) (A) (A) (A) (A) (A) (A) (A)
 The electronic state is 6-A.
 Alpha  occ. eigenvalues -- -256.47491 -30.28649 -26.11614 -26.10213 -26.09623
 Alpha  occ. eigenvalues --  -19.35706 -19.32801 -19.29365 -19.26486 -19.24285
 Alpha  occ. eigenvalues --  -14.53292 -14.48565 -14.48172 -14.47769 -14.47368
 Alpha  occ. eigenvalues --  -14.47352 -10.43992 -10.41742 -10.36754 -10.36679
 Alpha  occ. eigenvalues --  -10.36550 -10.36523 -10.36218 -10.36072 -10.35952
 Alpha  occ. eigenvalues --  -10.35889 -10.35858 -10.35685 -10.35276 -10.34716
 Alpha  occ. eigenvalues --  -10.34604 -10.34073 -10.33259 -10.33202 -10.33170
 Alpha  occ. eigenvalues --  -10.33004 -10.32863 -10.32598 -10.32596 -10.32581
 Alpha  occ. eigenvalues --  -10.32470 -10.32395 -10.32191 -10.32016 -10.31800
 Alpha  occ. eigenvalues --  -10.31651 -10.31528 -10.31442 -10.30999 -10.30521
 Alpha  occ. eigenvalues --  -10.30388 -10.30256 -10.29801 -10.29515  -3.71749
 Alpha  occ. eigenvalues --   -2.50101  -2.47781  -2.46289  -1.25275  -1.25132
 Alpha  occ. eigenvalues --   -1.15212  -1.15007  -1.11891  -1.09523  -1.08971
 Alpha  occ. eigenvalues --   -1.08037  -1.07441  -1.06560  -1.00325  -0.96293
 Alpha  occ. eigenvalues --   -0.94671  -0.93601  -0.93129  -0.92411  -0.91970
 Alpha  occ. eigenvalues --   -0.91683  -0.90404  -0.89375  -0.88656  -0.88259
 Alpha  occ. eigenvalues --   -0.87112  -0.86332  -0.84942  -0.82961  -0.82088
 Alpha  occ. eigenvalues --   -0.81133  -0.80704  -0.79616  -0.78711  -0.78564
 Alpha  occ. eigenvalues --   -0.77506  -0.76222  -0.75658  -0.74225  -0.73824
 Alpha  occ. eigenvalues --   -0.73494  -0.71087  -0.70873  -0.70644  -0.70398
 Alpha  occ. eigenvalues --   -0.68527  -0.66559  -0.66176  -0.65488  -0.65036
 Alpha  occ. eigenvalues --   -0.64598  -0.63445  -0.63140  -0.62286  -0.61851
 Alpha  occ. eigenvalues --   -0.61241  -0.60523  -0.59827  -0.59522  -0.58489
 Alpha  occ. eigenvalues --   -0.58285  -0.58170  -0.57609  -0.57018  -0.56827
 Alpha  occ. eigenvalues --   -0.56661  -0.56374  -0.56033  -0.55808  -0.55353
 Alpha  occ. eigenvalues --   -0.55078  -0.54964  -0.54809  -0.54365  -0.53995
 Alpha  occ. eigenvalues --   -0.53879  -0.53422  -0.53370  -0.52967  -0.52668
 Alpha  occ. eigenvalues --   -0.52567  -0.52295  -0.52153  -0.52037  -0.51690
 Alpha  occ. eigenvalues --   -0.51328  -0.51174  -0.51115  -0.50857  -0.50809
 Alpha  occ. eigenvalues --   -0.50179  -0.50014  -0.49945  -0.49755  -0.49650
 Alpha  occ. eigenvalues --   -0.49443  -0.49318  -0.48999  -0.48703  -0.48470
 Alpha  occ. eigenvalues --   -0.48410  -0.47659  -0.47360  -0.47095  -0.46665
 Alpha  occ. eigenvalues --   -0.46579  -0.46010  -0.45812  -0.45514  -0.45184
 Alpha  occ. eigenvalues --   -0.44862  -0.44451  -0.43839  -0.43351  -0.42625
 Alpha  occ. eigenvalues --   -0.42447  -0.41484  -0.40932  -0.40116  -0.39773
 Alpha  occ. eigenvalues --   -0.39716  -0.39303  -0.37601  -0.36785  -0.36095
 Alpha  occ. eigenvalues --   -0.35709  -0.34847  -0.34265  -0.34099  -0.33826
 Alpha  occ. eigenvalues --   -0.32799  -0.32151  -0.30652  -0.30292  -0.29908
 Alpha virt. eigenvalues --   -0.20821  -0.17526  -0.16940  -0.12196  -0.09253
 Alpha virt. eigenvalues --   -0.08991  -0.08103  -0.07217  -0.06531  -0.06087
 Alpha virt. eigenvalues --   -0.05463  -0.04239  -0.03895  -0.03809  -0.03473
 Alpha virt. eigenvalues --   -0.03223  -0.03166  -0.02907  -0.01961  -0.01620
 Alpha virt. eigenvalues --   -0.01418  -0.01022  -0.00695  -0.00492   0.00073
 Alpha virt. eigenvalues --    0.00204   0.00480   0.00978   0.01294   0.01469
 Alpha virt. eigenvalues --    0.01585   0.01766   0.02198   0.02296   0.02634
 Alpha virt. eigenvalues --    0.02871   0.03267   0.03425   0.03778   0.03920
 Alpha virt. eigenvalues --    0.04151   0.04242   0.04481   0.04713   0.04819
 Alpha virt. eigenvalues --    0.05085   0.05232   0.05343   0.05716   0.05797
 Alpha virt. eigenvalues --    0.05844   0.06258   0.06522   0.06599   0.06953
 Alpha virt. eigenvalues --    0.07212   0.07297   0.07548   0.07669   0.07915
 Alpha virt. eigenvalues --    0.08181   0.08460   0.08727   0.08858   0.09024
 Alpha virt. eigenvalues --    0.09311   0.09536   0.09662   0.10259   0.10414
 Alpha virt. eigenvalues --    0.10583   0.10671   0.10692   0.10989   0.11269
 Alpha virt. eigenvalues --    0.11357   0.11825   0.11990   0.12105   0.12198
 Alpha virt. eigenvalues --    0.12849   0.12965   0.13156   0.13242   0.13346
 Alpha virt. eigenvalues --    0.13645   0.14123   0.14266   0.14305   0.14671
 Alpha virt. eigenvalues --    0.14791   0.14952   0.15488   0.15705   0.15864
 Alpha virt. eigenvalues --    0.15919   0.16250   0.16321   0.16699   0.16959
 Alpha virt. eigenvalues --    0.17034   0.17442   0.17625   0.17894   0.18242
 Alpha virt. eigenvalues --    0.18274   0.18655   0.18882   0.18935   0.19242
 Alpha virt. eigenvalues --    0.19480   0.19674   0.19992   0.20012   0.20422
 Alpha virt. eigenvalues --    0.20515   0.20842   0.21033   0.21175   0.21291
 Alpha virt. eigenvalues --    0.21574   0.21637   0.21975   0.22070   0.22630
 Alpha virt. eigenvalues --    0.22783   0.23108   0.23475   0.23727   0.23890
 Alpha virt. eigenvalues --    0.24075   0.24356   0.24616   0.24823   0.24988
 Alpha virt. eigenvalues --    0.25291   0.25698   0.25850   0.25910   0.26262
 Alpha virt. eigenvalues --    0.26583   0.26762   0.27108   0.27247   0.27722
 Alpha virt. eigenvalues --    0.27957   0.28095   0.28348   0.28451   0.28628
 Alpha virt. eigenvalues --    0.28750   0.28921   0.29152   0.29366   0.29663
 Alpha virt. eigenvalues --    0.29677   0.30242   0.30526   0.30722   0.30978
 Alpha virt. eigenvalues --    0.31196   0.31442   0.31564   0.31872   0.32086
 Alpha virt. eigenvalues --    0.32213   0.32487   0.32816   0.32842   0.33003
 Alpha virt. eigenvalues --    0.33273   0.33490   0.33659   0.33799   0.34215
 Alpha virt. eigenvalues --    0.34321   0.34400   0.34570   0.34848   0.35073
 Alpha virt. eigenvalues --    0.35171   0.35216   0.35472   0.35628   0.35975
 Alpha virt. eigenvalues --    0.36176   0.36398   0.36524   0.36659   0.36878
 Alpha virt. eigenvalues --    0.37293   0.37367   0.37602   0.37701   0.37822
 Alpha virt. eigenvalues --    0.38034   0.38269   0.38334   0.38500   0.38822
 Alpha virt. eigenvalues --    0.38995   0.39108   0.39464   0.39551   0.39741
 Alpha virt. eigenvalues --    0.39964   0.40029   0.40199   0.40414   0.40584
 Alpha virt. eigenvalues --    0.40698   0.40986   0.41143   0.41276   0.41458
 Alpha virt. eigenvalues --    0.41700   0.42062   0.42126   0.42265   0.42523
 Alpha virt. eigenvalues --    0.42684   0.42827   0.43388   0.43451   0.43670
 Alpha virt. eigenvalues --    0.43865   0.43973   0.44286   0.44516   0.44880
 Alpha virt. eigenvalues --    0.45387   0.45496   0.45653   0.45889   0.46006
 Alpha virt. eigenvalues --    0.46214   0.46392   0.46585   0.46757   0.47083
 Alpha virt. eigenvalues --    0.47365   0.47482   0.47782   0.47997   0.48178
 Alpha virt. eigenvalues --    0.48236   0.48440   0.48684   0.48738   0.49082
 Alpha virt. eigenvalues --    0.49180   0.49797   0.50009   0.50130   0.50676
 Alpha virt. eigenvalues --    0.51051   0.51123   0.51404   0.51632   0.51914
 Alpha virt. eigenvalues --    0.51961   0.52077   0.52117   0.52685   0.52829
 Alpha virt. eigenvalues --    0.53001   0.53328   0.53631   0.53772   0.53940
 Alpha virt. eigenvalues --    0.54100   0.54439   0.54522   0.54719   0.54974
 Alpha virt. eigenvalues --    0.55188   0.55588   0.55963   0.56204   0.56365
 Alpha virt. eigenvalues --    0.56423   0.56916   0.57067   0.57220   0.57421
 Alpha virt. eigenvalues --    0.57858   0.58103   0.58380   0.58651   0.59015
 Alpha virt. eigenvalues --    0.59122   0.59444   0.59559   0.60060   0.60353
 Alpha virt. eigenvalues --    0.60674   0.60887   0.61146   0.61200   0.61639
 Alpha virt. eigenvalues --    0.61841   0.62104   0.62312   0.62696   0.62958
 Alpha virt. eigenvalues --    0.63157   0.63384   0.63558   0.64025   0.64588
 Alpha virt. eigenvalues --    0.64898   0.65186   0.65313   0.65744   0.66057
 Alpha virt. eigenvalues --    0.66208   0.66799   0.66968   0.67302   0.67583
 Alpha virt. eigenvalues --    0.68197   0.68386   0.68855   0.69284   0.69502
 Alpha virt. eigenvalues --    0.69741   0.70232   0.70306   0.70503   0.70983
 Alpha virt. eigenvalues --    0.71266   0.71633   0.71834   0.72353   0.72525
 Alpha virt. eigenvalues --    0.72740   0.73359   0.73601   0.73656   0.73984
 Alpha virt. eigenvalues --    0.74268   0.74433   0.74807   0.75142   0.75644
 Alpha virt. eigenvalues --    0.75878   0.76137   0.76333   0.76582   0.77030
 Alpha virt. eigenvalues --    0.77306   0.77626   0.77811   0.78138   0.78576
 Alpha virt. eigenvalues --    0.78946   0.79102   0.79263   0.79622   0.80195
 Alpha virt. eigenvalues --    0.80349   0.80772   0.81230   0.81326   0.81736
 Alpha virt. eigenvalues --    0.82106   0.82502   0.82802   0.83217   0.83581
 Alpha virt. eigenvalues --    0.83722   0.84087   0.84418   0.84505   0.84673
 Alpha virt. eigenvalues --    0.84823   0.84937   0.85030   0.85339   0.85619
 Alpha virt. eigenvalues --    0.85867   0.86794   0.86997   0.87221   0.87326
 Alpha virt. eigenvalues --    0.87386   0.87663   0.88025   0.88227   0.88665
 Alpha virt. eigenvalues --    0.88808   0.89171   0.89304   0.89424   0.90048
 Alpha virt. eigenvalues --    0.90257   0.90270   0.90605   0.90875   0.91031
 Alpha virt. eigenvalues --    0.91457   0.91920   0.91983   0.92614   0.92962
 Alpha virt. eigenvalues --    0.93264   0.93436   0.93908   0.94185   0.94820
 Alpha virt. eigenvalues --    0.94959   0.95486   0.95639   0.95993   0.96118
 Alpha virt. eigenvalues --    0.96513   0.96794   0.97278   0.97748   0.97989
 Alpha virt. eigenvalues --    0.98494   0.98575   0.99075   0.99239   0.99574
 Alpha virt. eigenvalues --    0.99992   1.00189   1.00663   1.00906   1.01274
 Alpha virt. eigenvalues --    1.01932   1.02056   1.02573   1.02699   1.03138
 Alpha virt. eigenvalues --    1.03448   1.03953   1.04250   1.04709   1.04827
 Alpha virt. eigenvalues --    1.05447   1.05841   1.05878   1.06101   1.06818
 Alpha virt. eigenvalues --    1.06965   1.07257   1.07523   1.07969   1.08040
 Alpha virt. eigenvalues --    1.08551   1.08885   1.09480   1.10003   1.10485
 Alpha virt. eigenvalues --    1.10814   1.11042   1.11285   1.11883   1.12246
 Alpha virt. eigenvalues --    1.12479   1.13041   1.13399   1.13877   1.14112
 Alpha virt. eigenvalues --    1.14409   1.14783   1.15157   1.15592   1.16042
 Alpha virt. eigenvalues --    1.16592   1.16644   1.16826   1.17223   1.17539
 Alpha virt. eigenvalues --    1.17877   1.18015   1.18547   1.18942   1.19035
 Alpha virt. eigenvalues --    1.19701   1.20019   1.20372   1.20893   1.21416
 Alpha virt. eigenvalues --    1.21837   1.21984   1.22270   1.22872   1.23267
 Alpha virt. eigenvalues --    1.23750   1.24028   1.24126   1.24603   1.24805
 Alpha virt. eigenvalues --    1.25116   1.25546   1.25869   1.26458   1.27165
 Alpha virt. eigenvalues --    1.27591   1.27979   1.28228   1.28375   1.28630
 Alpha virt. eigenvalues --    1.29517   1.29909   1.30072   1.30491   1.30990
 Alpha virt. eigenvalues --    1.31453   1.31923   1.32103   1.32322   1.32856
 Alpha virt. eigenvalues --    1.33299   1.33918   1.34401   1.34824   1.35168
 Alpha virt. eigenvalues --    1.35603   1.36029   1.36291   1.36788   1.37199
 Alpha virt. eigenvalues --    1.37308   1.37548   1.38150   1.38385   1.38552
 Alpha virt. eigenvalues --    1.38929   1.39393   1.39835   1.40090   1.40371
 Alpha virt. eigenvalues --    1.40540   1.41444   1.41830   1.41956   1.42372
 Alpha virt. eigenvalues --    1.42523   1.42962   1.43040   1.43552   1.43921
 Alpha virt. eigenvalues --    1.44326   1.44564   1.44790   1.45121   1.45343
 Alpha virt. eigenvalues --    1.45552   1.45874   1.46212   1.46320   1.46612
 Alpha virt. eigenvalues --    1.46859   1.47203   1.47345   1.47681   1.48062
 Alpha virt. eigenvalues --    1.48154   1.48290   1.48549   1.49129   1.49379
 Alpha virt. eigenvalues --    1.49577   1.49782   1.49963   1.50224   1.50629
 Alpha virt. eigenvalues --    1.50972   1.51272   1.51699   1.51992   1.52408
 Alpha virt. eigenvalues --    1.52475   1.52819   1.52974   1.53196   1.53565
 Alpha virt. eigenvalues --    1.53857   1.54052   1.54404   1.54601   1.54808
 Alpha virt. eigenvalues --    1.55163   1.55486   1.55733   1.55974   1.56139
 Alpha virt. eigenvalues --    1.56562   1.56939   1.57296   1.57597   1.57684
 Alpha virt. eigenvalues --    1.58034   1.58465   1.58963   1.59279   1.59415
 Alpha virt. eigenvalues --    1.59590   1.59861   1.60112   1.60359   1.60950
 Alpha virt. eigenvalues --    1.61294   1.61791   1.62161   1.62443   1.62686
 Alpha virt. eigenvalues --    1.62815   1.63167   1.63715   1.64050   1.64103
 Alpha virt. eigenvalues --    1.64373   1.64612   1.64971   1.65214   1.65506
 Alpha virt. eigenvalues --    1.65851   1.66358   1.66411   1.66986   1.67590
 Alpha virt. eigenvalues --    1.67826   1.68322   1.68692   1.68910   1.69186
 Alpha virt. eigenvalues --    1.69500   1.70080   1.70813   1.71439   1.71625
 Alpha virt. eigenvalues --    1.72099   1.72430   1.72726   1.73150   1.73835
 Alpha virt. eigenvalues --    1.74115   1.74735   1.74914   1.75513   1.76089
 Alpha virt. eigenvalues --    1.76327   1.76578   1.76822   1.77270   1.77493
 Alpha virt. eigenvalues --    1.77838   1.78009   1.78520   1.78914   1.79164
 Alpha virt. eigenvalues --    1.79372   1.80119   1.80350   1.80761   1.80862
 Alpha virt. eigenvalues --    1.81374   1.81640   1.81999   1.82560   1.83010
 Alpha virt. eigenvalues --    1.83425   1.84043   1.84214   1.84895   1.85163
 Alpha virt. eigenvalues --    1.85640   1.85910   1.86256   1.86521   1.86878
 Alpha virt. eigenvalues --    1.87237   1.87446   1.87890   1.88343   1.88630
 Alpha virt. eigenvalues --    1.88698   1.89145   1.89778   1.90056   1.90457
 Alpha virt. eigenvalues --    1.90963   1.91182   1.91461   1.91738   1.91990
 Alpha virt. eigenvalues --    1.92391   1.92866   1.93231   1.93603   1.94463
 Alpha virt. eigenvalues --    1.94884   1.95491   1.95559   1.95662   1.96043
 Alpha virt. eigenvalues --    1.96151   1.96864   1.97191   1.97510   1.97928
 Alpha virt. eigenvalues --    1.98374   1.98786   1.99237   1.99567   1.99780
 Alpha virt. eigenvalues --    1.99909   2.00574   2.01163   2.01440   2.01612
 Alpha virt. eigenvalues --    2.01781   2.02596   2.02926   2.03244   2.03950
 Alpha virt. eigenvalues --    2.04053   2.04404   2.04656   2.04922   2.05068
 Alpha virt. eigenvalues --    2.05597   2.06378   2.06414   2.07153   2.07454
 Alpha virt. eigenvalues --    2.07935   2.08610   2.08686   2.08898   2.09468
 Alpha virt. eigenvalues --    2.09528   2.09896   2.10148   2.10476   2.10634
 Alpha virt. eigenvalues --    2.10860   2.11498   2.12182   2.12431   2.12933
 Alpha virt. eigenvalues --    2.13390   2.13631   2.14020   2.14860   2.15100
 Alpha virt. eigenvalues --    2.15313   2.15759   2.15992   2.16463   2.16571
 Alpha virt. eigenvalues --    2.17429   2.17781   2.18142   2.18318   2.18825
 Alpha virt. eigenvalues --    2.19006   2.19723   2.19989   2.20216   2.20915
 Alpha virt. eigenvalues --    2.21093   2.21770   2.21810   2.22639   2.22837
 Alpha virt. eigenvalues --    2.23068   2.23508   2.23658   2.24305   2.24959
 Alpha virt. eigenvalues --    2.25015   2.25600   2.26329   2.27142   2.27411
 Alpha virt. eigenvalues --    2.27613   2.28060   2.28293   2.28826   2.29153
 Alpha virt. eigenvalues --    2.29579   2.29892   2.30141   2.30770   2.30931
 Alpha virt. eigenvalues --    2.31374   2.31627   2.31945   2.32492   2.32762
 Alpha virt. eigenvalues --    2.32960   2.33107   2.33690   2.34123   2.34423
 Alpha virt. eigenvalues --    2.34886   2.35107   2.35338   2.35847   2.36262
 Alpha virt. eigenvalues --    2.36368   2.36980   2.37493   2.37606   2.37886
 Alpha virt. eigenvalues --    2.38181   2.38642   2.39310   2.39609   2.40394
 Alpha virt. eigenvalues --    2.40810   2.41102   2.41904   2.42029   2.42572
 Alpha virt. eigenvalues --    2.42770   2.43541   2.44129   2.44474   2.44778
 Alpha virt. eigenvalues --    2.44877   2.45712   2.46117   2.46396   2.46479
 Alpha virt. eigenvalues --    2.46858   2.46938   2.47314   2.47995   2.48308
 Alpha virt. eigenvalues --    2.48390   2.48703   2.48839   2.49161   2.49738
 Alpha virt. eigenvalues --    2.49778   2.50206   2.50606   2.50757   2.51425
 Alpha virt. eigenvalues --    2.51504   2.51769   2.51880   2.52356   2.52719
 Alpha virt. eigenvalues --    2.52896   2.53383   2.53636   2.53839   2.54696
 Alpha virt. eigenvalues --    2.54926   2.55174   2.55519   2.55833   2.56209
 Alpha virt. eigenvalues --    2.56424   2.56596   2.57546   2.57798   2.58054
 Alpha virt. eigenvalues --    2.58292   2.58588   2.58711   2.59260   2.59515
 Alpha virt. eigenvalues --    2.59841   2.60307   2.60959   2.61024   2.61169
 Alpha virt. eigenvalues --    2.61733   2.61851   2.62102   2.62754   2.63042
 Alpha virt. eigenvalues --    2.63323   2.63932   2.64132   2.64281   2.64333
 Alpha virt. eigenvalues --    2.65161   2.65407   2.65637   2.65946   2.66227
 Alpha virt. eigenvalues --    2.66647   2.66930   2.67306   2.67814   2.68249
 Alpha virt. eigenvalues --    2.68808   2.69252   2.69679   2.69920   2.70438
 Alpha virt. eigenvalues --    2.70685   2.71106   2.71164   2.71358   2.71971
 Alpha virt. eigenvalues --    2.72052   2.72840   2.73224   2.73567   2.73637
 Alpha virt. eigenvalues --    2.74011   2.74326   2.74491   2.75123   2.75440
 Alpha virt. eigenvalues --    2.75666   2.76356   2.76750   2.77059   2.77259
 Alpha virt. eigenvalues --    2.77531   2.77788   2.78125   2.78484   2.79055
 Alpha virt. eigenvalues --    2.79182   2.79292   2.79895   2.80581   2.80655
 Alpha virt. eigenvalues --    2.80857   2.81197   2.81618   2.81956   2.82173
 Alpha virt. eigenvalues --    2.82205   2.82698   2.83125   2.83445   2.83806
 Alpha virt. eigenvalues --    2.84153   2.84444   2.84849   2.84887   2.85292
 Alpha virt. eigenvalues --    2.85710   2.85743   2.86168   2.86471   2.87138
 Alpha virt. eigenvalues --    2.87311   2.87641   2.87844   2.88014   2.88379
 Alpha virt. eigenvalues --    2.88969   2.89168   2.89494   2.89524   2.90002
 Alpha virt. eigenvalues --    2.90381   2.90965   2.91210   2.91470   2.91602
 Alpha virt. eigenvalues --    2.91945   2.92346   2.92848   2.93146   2.93557
 Alpha virt. eigenvalues --    2.93764   2.94120   2.94370   2.94589   2.94866
 Alpha virt. eigenvalues --    2.95226   2.95301   2.95618   2.96222   2.96573
 Alpha virt. eigenvalues --    2.96921   2.97102   2.97476   2.97847   2.98210
 Alpha virt. eigenvalues --    2.98377   2.98713   2.98878   2.99079   2.99357
 Alpha virt. eigenvalues --    2.99826   3.00220   3.00480   3.00753   3.00970
 Alpha virt. eigenvalues --    3.01358   3.01671   3.02035   3.02364   3.02447
 Alpha virt. eigenvalues --    3.02853   3.03277   3.03557   3.03903   3.04048
 Alpha virt. eigenvalues --    3.04149   3.04874   3.05160   3.05346   3.05462
 Alpha virt. eigenvalues --    3.05797   3.06192   3.06344   3.06849   3.06947
 Alpha virt. eigenvalues --    3.07427   3.07809   3.08155   3.08223   3.08243
 Alpha virt. eigenvalues --    3.08933   3.09217   3.09258   3.09799   3.09816
 Alpha virt. eigenvalues --    3.10282   3.10663   3.10861   3.11291   3.11396
 Alpha virt. eigenvalues --    3.11521   3.11714   3.12310   3.12661   3.13092
 Alpha virt. eigenvalues --    3.13455   3.13646   3.13762   3.13896   3.14416
 Alpha virt. eigenvalues --    3.14609   3.14942   3.15141   3.15743   3.15948
 Alpha virt. eigenvalues --    3.16088   3.16524   3.16780   3.16938   3.17016
 Alpha virt. eigenvalues --    3.17253   3.17540   3.17722   3.18082   3.18376
 Alpha virt. eigenvalues --    3.18516   3.19230   3.19367   3.19531   3.19832
 Alpha virt. eigenvalues --    3.20371   3.20669   3.20778   3.21153   3.21285
 Alpha virt. eigenvalues --    3.21611   3.21742   3.22059   3.22210   3.22768
 Alpha virt. eigenvalues --    3.22882   3.23141   3.23422   3.24259   3.24304
 Alpha virt. eigenvalues --    3.24559   3.24801   3.24945   3.25376   3.25483
 Alpha virt. eigenvalues --    3.25792   3.25891   3.26227   3.26467   3.26740
 Alpha virt. eigenvalues --    3.27108   3.27343   3.27637   3.28134   3.28600
 Alpha virt. eigenvalues --    3.28740   3.28817   3.29125   3.29307   3.29828
 Alpha virt. eigenvalues --    3.30012   3.30214   3.30329   3.30546   3.30855
 Alpha virt. eigenvalues --    3.31562   3.31776   3.31904   3.32078   3.32521
 Alpha virt. eigenvalues --    3.32707   3.32883   3.33227   3.33566   3.33697
 Alpha virt. eigenvalues --    3.34202   3.34216   3.34750   3.34869   3.35086
 Alpha virt. eigenvalues --    3.35784   3.36035   3.36200   3.36697   3.36955
 Alpha virt. eigenvalues --    3.37271   3.37562   3.37726   3.38123   3.38494
 Alpha virt. eigenvalues --    3.38754   3.39006   3.39621   3.40178   3.40593
 Alpha virt. eigenvalues --    3.40787   3.40968   3.41050   3.41360   3.41696
 Alpha virt. eigenvalues --    3.42044   3.42504   3.42877   3.43344   3.43460
 Alpha virt. eigenvalues --    3.43861   3.44668   3.44949   3.45512   3.45868
 Alpha virt. eigenvalues --    3.46118   3.46738   3.47008   3.47114   3.47631
 Alpha virt. eigenvalues --    3.48160   3.48547   3.48798   3.48977   3.49247
 Alpha virt. eigenvalues --    3.49491   3.49960   3.50284   3.50954   3.51104
 Alpha virt. eigenvalues --    3.51291   3.51580   3.52138   3.52372   3.53116
 Alpha virt. eigenvalues --    3.53282   3.53674   3.53940   3.54243   3.55234
 Alpha virt. eigenvalues --    3.55509   3.55693   3.56354   3.56586   3.56847
 Alpha virt. eigenvalues --    3.56995   3.57408   3.58027   3.58579   3.58940
 Alpha virt. eigenvalues --    3.59054   3.59484   3.60146   3.60711   3.60875
 Alpha virt. eigenvalues --    3.61573   3.61786   3.62338   3.62522   3.62732
 Alpha virt. eigenvalues --    3.63552   3.63625   3.63962   3.64147   3.64688
 Alpha virt. eigenvalues --    3.65159   3.65357   3.65718   3.65973   3.66065
 Alpha virt. eigenvalues --    3.66801   3.67069   3.67492   3.67800   3.67963
 Alpha virt. eigenvalues --    3.68627   3.68893   3.69276   3.69720   3.70364
 Alpha virt. eigenvalues --    3.70726   3.70985   3.71732   3.72204   3.72478
 Alpha virt. eigenvalues --    3.72966   3.73715   3.73954   3.74362   3.74742
 Alpha virt. eigenvalues --    3.75191   3.76123   3.76502   3.77239   3.77836
 Alpha virt. eigenvalues --    3.78446   3.79244   3.79804   3.80411   3.80477
 Alpha virt. eigenvalues --    3.81389   3.81604   3.81922   3.82995   3.83397
 Alpha virt. eigenvalues --    3.83670   3.84127   3.84648   3.85103   3.85303
 Alpha virt. eigenvalues --    3.85845   3.86340   3.87063   3.87350   3.87532
 Alpha virt. eigenvalues --    3.87735   3.88269   3.88633   3.89776   3.90390
 Alpha virt. eigenvalues --    3.90897   3.91030   3.91567   3.92153   3.92649
 Alpha virt. eigenvalues --    3.93254   3.93463   3.94008   3.94682   3.95283
 Alpha virt. eigenvalues --    3.95423   3.96514   3.97091   3.97286   3.97741
 Alpha virt. eigenvalues --    3.99063   3.99334   4.00093   4.00216   4.00997
 Alpha virt. eigenvalues --    4.02087   4.02230   4.03066   4.03820   4.03973
 Alpha virt. eigenvalues --    4.05008   4.05231   4.05318   4.05989   4.06610
 Alpha virt. eigenvalues --    4.07196   4.07283   4.07869   4.08109   4.08958
 Alpha virt. eigenvalues --    4.09637   4.10249   4.10637   4.10954   4.11498
 Alpha virt. eigenvalues --    4.11903   4.12177   4.12674   4.13291   4.13993
 Alpha virt. eigenvalues --    4.14302   4.14520   4.15150   4.15663   4.15735
 Alpha virt. eigenvalues --    4.16260   4.16593   4.17191   4.17462   4.18037
 Alpha virt. eigenvalues --    4.19911   4.19958   4.20810   4.21906   4.22110
 Alpha virt. eigenvalues --    4.22728   4.23063   4.23777   4.25084   4.25345
 Alpha virt. eigenvalues --    4.26363   4.26550   4.26838   4.27180   4.27626
 Alpha virt. eigenvalues --    4.28546   4.28804   4.29164   4.29933   4.30736
 Alpha virt. eigenvalues --    4.31259   4.31680   4.32020   4.32770   4.33326
 Alpha virt. eigenvalues --    4.33976   4.34283   4.34578   4.35787   4.36388
 Alpha virt. eigenvalues --    4.36825   4.37137   4.37733   4.38258   4.38449
 Alpha virt. eigenvalues --    4.39239   4.39655   4.40090   4.40571   4.41863
 Alpha virt. eigenvalues --    4.42298   4.42872   4.43281   4.44425   4.44614
 Alpha virt. eigenvalues --    4.45667   4.46917   4.48111   4.49081   4.49569
 Alpha virt. eigenvalues --    4.49946   4.50261   4.51278   4.51517   4.52319
 Alpha virt. eigenvalues --    4.52682   4.53355   4.53816   4.54542   4.55504
 Alpha virt. eigenvalues --    4.56131   4.56836   4.57366   4.57652   4.58911
 Alpha virt. eigenvalues --    4.59454   4.60194   4.60471   4.61150   4.61939
 Alpha virt. eigenvalues --    4.62287   4.63397   4.64077   4.64498   4.65377
 Alpha virt. eigenvalues --    4.66097   4.66631   4.67084   4.67659   4.67891
 Alpha virt. eigenvalues --    4.68145   4.68835   4.69319   4.70644   4.71189
 Alpha virt. eigenvalues --    4.71602   4.72214   4.72947   4.73365   4.74152
 Alpha virt. eigenvalues --    4.75456   4.76315   4.76677   4.77018   4.77896
 Alpha virt. eigenvalues --    4.78167   4.79491   4.80079   4.80696   4.80914
 Alpha virt. eigenvalues --    4.81720   4.81886   4.82460   4.82870   4.84070
 Alpha virt. eigenvalues --    4.85098   4.85451   4.86368   4.87226   4.88082
 Alpha virt. eigenvalues --    4.88457   4.89648   4.90274   4.90700   4.90925
 Alpha virt. eigenvalues --    4.91789   4.93477   4.93988   4.95096   4.96233
 Alpha virt. eigenvalues --    4.96748   4.97576   4.98773   4.99512   5.00275
 Alpha virt. eigenvalues --    5.01137   5.02225   5.03722   5.04782   5.05381
 Alpha virt. eigenvalues --    5.06576   5.07386   5.07837   5.09149   5.09912
 Alpha virt. eigenvalues --    5.10107   5.10869   5.12277   5.12405   5.13674
 Alpha virt. eigenvalues --    5.13825   5.14439   5.14538   5.14966   5.16076
 Alpha virt. eigenvalues --    5.16515   5.17862   5.17956   5.18880   5.19586
 Alpha virt. eigenvalues --    5.19923   5.20773   5.21468   5.21964   5.22751
 Alpha virt. eigenvalues --    5.24272   5.25470   5.26052   5.26472   5.26675
 Alpha virt. eigenvalues --    5.28449   5.28664   5.30420   5.31460   5.32368
 Alpha virt. eigenvalues --    5.33806   5.34632   5.34802   5.35729   5.36777
 Alpha virt. eigenvalues --    5.37734   5.38523   5.39636   5.39943   5.42158
 Alpha virt. eigenvalues --    5.45683   5.47027   5.47569   5.48773   5.49156
 Alpha virt. eigenvalues --    5.49435   5.49561   5.50181   5.50671   5.51908
 Alpha virt. eigenvalues --    5.53144   5.53532   5.54341   5.55845   5.55897
 Alpha virt. eigenvalues --    5.56768   5.62058   5.62331   5.63656   5.65016
 Alpha virt. eigenvalues --    5.66592   5.67363   5.69549   5.73333   5.73883
 Alpha virt. eigenvalues --    5.75593   5.77388   5.78358   5.80599   5.82627
 Alpha virt. eigenvalues --    5.84311   5.84532   5.84653   5.85463   5.87872
 Alpha virt. eigenvalues --    5.90085   5.91755   5.96665   5.97271   5.98958
 Alpha virt. eigenvalues --    5.99574   6.00910   6.01821   6.03093   6.05565
 Alpha virt. eigenvalues --    6.06235   6.11507   6.13821   6.14793   6.17775
 Alpha virt. eigenvalues --    6.18100   6.18576   6.21266   6.25282   6.26304
 Alpha virt. eigenvalues --    6.30398   6.30980   6.35864   6.38483   6.40063
 Alpha virt. eigenvalues --    6.41845   6.43765   6.44826   6.45439   6.47724
 Alpha virt. eigenvalues --    6.50573   6.58845   6.63692   6.68607   6.72073
 Alpha virt. eigenvalues --    6.72527   6.78457   6.81200   6.84048   6.88857
 Alpha virt. eigenvalues --    6.90071   6.96823   7.00842   7.05373   7.08287
 Alpha virt. eigenvalues --    7.09793   7.10961   7.22281   7.22711   7.24766
 Alpha virt. eigenvalues --   22.26520  22.27751  22.42480  22.44744  22.45501
 Alpha virt. eigenvalues --   22.49431  22.49856  22.53425  22.54442  22.61667
 Alpha virt. eigenvalues --   22.64387  22.67999  22.76433  22.77633  22.79476
 Alpha virt. eigenvalues --   22.82243  22.86219  22.87903  22.91435  22.96204
 Alpha virt. eigenvalues --   22.97907  23.01195  23.08497  23.16073  23.20173
 Alpha virt. eigenvalues --   23.22194  23.24821  23.28851  23.31866  23.35654
 Alpha virt. eigenvalues --   23.41469  23.48401  23.50670  23.60473  23.64400
 Alpha virt. eigenvalues --   23.67265  23.73567  23.80479  32.39416  32.61578
 Alpha virt. eigenvalues --   32.80744  32.86348  32.88613  33.09837  43.87104
 Alpha virt. eigenvalues --   43.89888  43.91671  44.02132  44.09138
  Beta  occ. eigenvalues -- -256.47363 -30.20205 -26.03743 -26.03432 -26.02988
  Beta  occ. eigenvalues --  -19.35706 -19.32801 -19.28992 -19.26486 -19.24285
  Beta  occ. eigenvalues --  -14.53283 -14.48304 -14.47943 -14.47556 -14.47287
  Beta  occ. eigenvalues --  -14.47126 -10.43992 -10.41742 -10.37378 -10.36748
  Beta  occ. eigenvalues --  -10.36509 -10.36350 -10.36269 -10.36019 -10.35804
  Beta  occ. eigenvalues --  -10.35739 -10.35722 -10.35299 -10.35259 -10.34818
  Beta  occ. eigenvalues --  -10.34706 -10.33260 -10.33178 -10.33117 -10.32924
  Beta  occ. eigenvalues --  -10.32910 -10.32697 -10.32695 -10.32682 -10.32612
  Beta  occ. eigenvalues --  -10.32468 -10.32343 -10.32188 -10.31994 -10.31792
  Beta  occ. eigenvalues --  -10.31669 -10.31569 -10.31402 -10.31001 -10.30516
  Beta  occ. eigenvalues --  -10.30386 -10.30257 -10.29732 -10.29511  -3.51425
  Beta  occ. eigenvalues --   -2.27741  -2.25553  -2.25412  -1.25275  -1.25132
  Beta  occ. eigenvalues --   -1.15100  -1.13959  -1.11890  -1.09523  -1.08633
  Beta  occ. eigenvalues --   -1.07709  -1.07188  -1.06286  -1.00106  -0.95644
  Beta  occ. eigenvalues --   -0.94614  -0.93494  -0.93028  -0.92313  -0.91935
  Beta  occ. eigenvalues --   -0.91531  -0.89821  -0.89346  -0.88501  -0.88181
  Beta  occ. eigenvalues --   -0.87005  -0.86342  -0.84531  -0.82665  -0.82034
  Beta  occ. eigenvalues --   -0.81006  -0.80651  -0.79487  -0.78648  -0.78518
  Beta  occ. eigenvalues --   -0.77344  -0.76098  -0.75585  -0.74173  -0.73552
  Beta  occ. eigenvalues --   -0.72700  -0.70961  -0.70664  -0.70303  -0.68526
  Beta  occ. eigenvalues --   -0.68301  -0.66388  -0.65789  -0.65018  -0.64914
  Beta  occ. eigenvalues --   -0.64302  -0.63303  -0.62959  -0.62105  -0.61720
  Beta  occ. eigenvalues --   -0.60473  -0.60438  -0.59483  -0.59443  -0.58436
  Beta  occ. eigenvalues --   -0.58147  -0.58117  -0.57094  -0.56708  -0.56510
  Beta  occ. eigenvalues --   -0.56471  -0.56274  -0.55714  -0.55595  -0.55028
  Beta  occ. eigenvalues --   -0.54762  -0.54645  -0.54338  -0.53744  -0.53725
  Beta  occ. eigenvalues --   -0.53502  -0.53181  -0.52878  -0.52482  -0.52425
  Beta  occ. eigenvalues --   -0.52251  -0.51839  -0.51490  -0.51175  -0.51095
  Beta  occ. eigenvalues --   -0.50976  -0.50619  -0.50469  -0.50451  -0.50068
  Beta  occ. eigenvalues --   -0.49854  -0.49676  -0.49465  -0.49223  -0.49043
  Beta  occ. eigenvalues --   -0.48790  -0.48380  -0.47908  -0.47780  -0.47339
  Beta  occ. eigenvalues --   -0.47046  -0.46865  -0.46272  -0.46013  -0.45811
  Beta  occ. eigenvalues --   -0.45376  -0.45186  -0.44019  -0.43639  -0.43250
  Beta  occ. eigenvalues --   -0.43083  -0.42614  -0.41850  -0.41435  -0.41190
  Beta  occ. eigenvalues --   -0.39950  -0.39773  -0.39642  -0.39063  -0.37971
  Beta  occ. eigenvalues --   -0.36783  -0.36082  -0.35162  -0.34574  -0.34194
  Beta  occ. eigenvalues --   -0.32786  -0.32070  -0.30699  -0.30172  -0.28936
  Beta virt. eigenvalues --   -0.24304  -0.18992  -0.16975  -0.16266  -0.13817
  Beta virt. eigenvalues --   -0.13606  -0.11931  -0.10570  -0.09121  -0.08952
  Beta virt. eigenvalues --   -0.08088  -0.07210  -0.06202  -0.05862  -0.05462
  Beta virt. eigenvalues --   -0.04965  -0.04023  -0.03764  -0.03634  -0.03217
  Beta virt. eigenvalues --   -0.03100  -0.02923  -0.02694  -0.01692  -0.01457
  Beta virt. eigenvalues --   -0.01140  -0.00901  -0.00548  -0.00362   0.00174
  Beta virt. eigenvalues --    0.00298   0.00557   0.01048   0.01353   0.01627
  Beta virt. eigenvalues --    0.01663   0.01955   0.02252   0.02489   0.02781
  Beta virt. eigenvalues --    0.02975   0.03467   0.03576   0.03861   0.04100
  Beta virt. eigenvalues --    0.04264   0.04356   0.04561   0.04796   0.04959
  Beta virt. eigenvalues --    0.05184   0.05347   0.05371   0.05783   0.05849
  Beta virt. eigenvalues --    0.05906   0.06305   0.06574   0.06639   0.07031
  Beta virt. eigenvalues --    0.07254   0.07397   0.07629   0.07773   0.08005
  Beta virt. eigenvalues --    0.08291   0.08545   0.08769   0.08942   0.09222
  Beta virt. eigenvalues --    0.09516   0.09645   0.09728   0.10414   0.10511
  Beta virt. eigenvalues --    0.10684   0.10810   0.10947   0.11386   0.11489
  Beta virt. eigenvalues --    0.11568   0.11905   0.12076   0.12301   0.12476
  Beta virt. eigenvalues --    0.13010   0.13048   0.13285   0.13360   0.13687
  Beta virt. eigenvalues --    0.13862   0.14316   0.14372   0.14563   0.14858
  Beta virt. eigenvalues --    0.15106   0.15305   0.15620   0.15853   0.16103
  Beta virt. eigenvalues --    0.16305   0.16424   0.16587   0.16852   0.17255
  Beta virt. eigenvalues --    0.17451   0.17633   0.17818   0.18083   0.18317
  Beta virt. eigenvalues --    0.18491   0.18846   0.19040   0.19183   0.19516
  Beta virt. eigenvalues --    0.19678   0.20008   0.20187   0.20393   0.20490
  Beta virt. eigenvalues --    0.20678   0.21059   0.21403   0.21409   0.21520
  Beta virt. eigenvalues --    0.21654   0.21689   0.22208   0.22336   0.22847
  Beta virt. eigenvalues --    0.22991   0.23277   0.23702   0.23925   0.24064
  Beta virt. eigenvalues --    0.24342   0.24674   0.24734   0.25030   0.25324
  Beta virt. eigenvalues --    0.25567   0.25837   0.26023   0.26238   0.26354
  Beta virt. eigenvalues --    0.26747   0.26983   0.27348   0.27406   0.27884
  Beta virt. eigenvalues --    0.28175   0.28282   0.28538   0.28706   0.28834
  Beta virt. eigenvalues --    0.28998   0.29049   0.29318   0.29519   0.29811
  Beta virt. eigenvalues --    0.30043   0.30390   0.30691   0.30924   0.31083
  Beta virt. eigenvalues --    0.31293   0.31535   0.31652   0.32033   0.32193
  Beta virt. eigenvalues --    0.32318   0.32562   0.32880   0.33026   0.33151
  Beta virt. eigenvalues --    0.33330   0.33615   0.33850   0.34005   0.34354
  Beta virt. eigenvalues --    0.34428   0.34593   0.34721   0.34969   0.35217
  Beta virt. eigenvalues --    0.35334   0.35416   0.35647   0.35993   0.36154
  Beta virt. eigenvalues --    0.36276   0.36649   0.36759   0.36904   0.37006
  Beta virt. eigenvalues --    0.37437   0.37464   0.37716   0.37782   0.38027
  Beta virt. eigenvalues --    0.38132   0.38444   0.38457   0.38692   0.38955
  Beta virt. eigenvalues --    0.39093   0.39259   0.39568   0.39638   0.39870
  Beta virt. eigenvalues --    0.40065   0.40241   0.40299   0.40547   0.40704
  Beta virt. eigenvalues --    0.40965   0.41047   0.41292   0.41367   0.41706
  Beta virt. eigenvalues --    0.41761   0.42201   0.42234   0.42445   0.42639
  Beta virt. eigenvalues --    0.42858   0.42982   0.43503   0.43716   0.43771
  Beta virt. eigenvalues --    0.44023   0.44102   0.44427   0.44710   0.45016
  Beta virt. eigenvalues --    0.45503   0.45586   0.45769   0.46033   0.46122
  Beta virt. eigenvalues --    0.46365   0.46480   0.46774   0.47105   0.47205
  Beta virt. eigenvalues --    0.47518   0.47675   0.47904   0.48174   0.48266
  Beta virt. eigenvalues --    0.48365   0.48705   0.48790   0.48959   0.49175
  Beta virt. eigenvalues --    0.49354   0.50031   0.50161   0.50277   0.50929
  Beta virt. eigenvalues --    0.51274   0.51348   0.51520   0.51837   0.51991
  Beta virt. eigenvalues --    0.52095   0.52293   0.52321   0.52975   0.52983
  Beta virt. eigenvalues --    0.53098   0.53491   0.53840   0.53861   0.54026
  Beta virt. eigenvalues --    0.54270   0.54589   0.54722   0.54865   0.55278
  Beta virt. eigenvalues --    0.55366   0.55773   0.56042   0.56305   0.56450
  Beta virt. eigenvalues --    0.56552   0.57003   0.57166   0.57435   0.57513
  Beta virt. eigenvalues --    0.57987   0.58272   0.58562   0.58942   0.59134
  Beta virt. eigenvalues --    0.59302   0.59585   0.59890   0.60243   0.60491
  Beta virt. eigenvalues --    0.60825   0.61029   0.61248   0.61377   0.61934
  Beta virt. eigenvalues --    0.62110   0.62284   0.62471   0.62775   0.63230
  Beta virt. eigenvalues --    0.63308   0.63594   0.63704   0.64221   0.64711
  Beta virt. eigenvalues --    0.65065   0.65297   0.65506   0.65908   0.66288
  Beta virt. eigenvalues --    0.66387   0.66973   0.67120   0.67365   0.67762
  Beta virt. eigenvalues --    0.68319   0.68537   0.68992   0.69407   0.69599
  Beta virt. eigenvalues --    0.69870   0.70308   0.70437   0.70664   0.71150
  Beta virt. eigenvalues --    0.71370   0.71812   0.72000   0.72487   0.72616
  Beta virt. eigenvalues --    0.72894   0.73483   0.73727   0.73825   0.74121
  Beta virt. eigenvalues --    0.74398   0.74570   0.74930   0.75258   0.75767
  Beta virt. eigenvalues --    0.75956   0.76290   0.76446   0.76749   0.77117
  Beta virt. eigenvalues --    0.77473   0.77672   0.77919   0.78296   0.78763
  Beta virt. eigenvalues --    0.79056   0.79267   0.79483   0.79807   0.80302
  Beta virt. eigenvalues --    0.80594   0.80963   0.81365   0.81702   0.81908
  Beta virt. eigenvalues --    0.82291   0.82568   0.82937   0.83345   0.83709
  Beta virt. eigenvalues --    0.83835   0.84242   0.84504   0.84704   0.84825
  Beta virt. eigenvalues --    0.85044   0.85145   0.85263   0.85440   0.85887
  Beta virt. eigenvalues --    0.86073   0.87025   0.87245   0.87488   0.87528
  Beta virt. eigenvalues --    0.87620   0.87805   0.88267   0.88396   0.88949
  Beta virt. eigenvalues --    0.89070   0.89362   0.89504   0.89748   0.90176
  Beta virt. eigenvalues --    0.90325   0.90463   0.90840   0.91054   0.91253
  Beta virt. eigenvalues --    0.91670   0.92086   0.92316   0.92842   0.93232
  Beta virt. eigenvalues --    0.93469   0.93623   0.94066   0.94492   0.95164
  Beta virt. eigenvalues --    0.95469   0.95611   0.95994   0.96225   0.96430
  Beta virt. eigenvalues --    0.96956   0.97392   0.97630   0.97934   0.98236
  Beta virt. eigenvalues --    0.98690   0.98743   0.99267   0.99536   0.99816
  Beta virt. eigenvalues --    1.00220   1.00395   1.00915   1.01081   1.01440
  Beta virt. eigenvalues --    1.02203   1.02250   1.02839   1.02994   1.03559
  Beta virt. eigenvalues --    1.03792   1.04058   1.04396   1.04965   1.04998
  Beta virt. eigenvalues --    1.05710   1.06095   1.06347   1.06739   1.06994
  Beta virt. eigenvalues --    1.07159   1.07431   1.07777   1.08162   1.08261
  Beta virt. eigenvalues --    1.08691   1.09006   1.09697   1.10293   1.10656
  Beta virt. eigenvalues --    1.10963   1.11186   1.11459   1.12213   1.12381
  Beta virt. eigenvalues --    1.12749   1.13177   1.13804   1.14078   1.14249
  Beta virt. eigenvalues --    1.14881   1.14940   1.15413   1.15767   1.16384
  Beta virt. eigenvalues --    1.16796   1.16855   1.17175   1.17311   1.17628
  Beta virt. eigenvalues --    1.18210   1.18263   1.18714   1.19090   1.19399
  Beta virt. eigenvalues --    1.19868   1.20232   1.20519   1.21105   1.21549
  Beta virt. eigenvalues --    1.21978   1.22169   1.22708   1.23038   1.23563
  Beta virt. eigenvalues --    1.24083   1.24187   1.24287   1.24862   1.24937
  Beta virt. eigenvalues --    1.25456   1.25686   1.26067   1.26709   1.27417
  Beta virt. eigenvalues --    1.27810   1.28234   1.28362   1.28537   1.28817
  Beta virt. eigenvalues --    1.29740   1.30089   1.30240   1.30620   1.31111
  Beta virt. eigenvalues --    1.31588   1.32221   1.32320   1.32477   1.33409
  Beta virt. eigenvalues --    1.33472   1.33937   1.34729   1.35027   1.35340
  Beta virt. eigenvalues --    1.35803   1.36311   1.36460   1.36830   1.37445
  Beta virt. eigenvalues --    1.37473   1.37649   1.38323   1.38577   1.38759
  Beta virt. eigenvalues --    1.39130   1.39705   1.40161   1.40476   1.40539
  Beta virt. eigenvalues --    1.40970   1.41770   1.41985   1.42119   1.42418
  Beta virt. eigenvalues --    1.42822   1.43419   1.43559   1.43887   1.44034
  Beta virt. eigenvalues --    1.44477   1.44866   1.45183   1.45408   1.45717
  Beta virt. eigenvalues --    1.45821   1.45989   1.46300   1.46468   1.46757
  Beta virt. eigenvalues --    1.46953   1.47260   1.47418   1.47855   1.48231
  Beta virt. eigenvalues --    1.48260   1.48421   1.48772   1.49343   1.49453
  Beta virt. eigenvalues --    1.49791   1.50025   1.50077   1.50443   1.50863
  Beta virt. eigenvalues --    1.51245   1.51368   1.51823   1.52086   1.52501
  Beta virt. eigenvalues --    1.52606   1.52979   1.53137   1.53272   1.53796
  Beta virt. eigenvalues --    1.54037   1.54167   1.54535   1.54800   1.55017
  Beta virt. eigenvalues --    1.55372   1.55560   1.55833   1.56123   1.56282
  Beta virt. eigenvalues --    1.56913   1.57014   1.57401   1.57734   1.57794
  Beta virt. eigenvalues --    1.58172   1.58825   1.59042   1.59453   1.59568
  Beta virt. eigenvalues --    1.59778   1.59968   1.60347   1.60490   1.61242
  Beta virt. eigenvalues --    1.61413   1.61770   1.62316   1.62598   1.62800
  Beta virt. eigenvalues --    1.62944   1.63294   1.63904   1.64124   1.64237
  Beta virt. eigenvalues --    1.64491   1.64827   1.65063   1.65276   1.65654
  Beta virt. eigenvalues --    1.65966   1.66499   1.66583   1.67087   1.67655
  Beta virt. eigenvalues --    1.67945   1.68469   1.68816   1.68998   1.69430
  Beta virt. eigenvalues --    1.69700   1.70201   1.71003   1.71595   1.71781
  Beta virt. eigenvalues --    1.72474   1.72722   1.72919   1.73529   1.73974
  Beta virt. eigenvalues --    1.74382   1.74902   1.75025   1.75749   1.76316
  Beta virt. eigenvalues --    1.76495   1.76817   1.76940   1.77559   1.77750
  Beta virt. eigenvalues --    1.77994   1.78281   1.78782   1.79134   1.79409
  Beta virt. eigenvalues --    1.79718   1.80197   1.80541   1.80919   1.80954
  Beta virt. eigenvalues --    1.81457   1.81723   1.82291   1.82654   1.83093
  Beta virt. eigenvalues --    1.83553   1.84136   1.84318   1.85063   1.85300
  Beta virt. eigenvalues --    1.85915   1.86086   1.86331   1.86630   1.87065
  Beta virt. eigenvalues --    1.87421   1.87664   1.88013   1.88551   1.88788
  Beta virt. eigenvalues --    1.89106   1.89274   1.89986   1.90201   1.90573
  Beta virt. eigenvalues --    1.91087   1.91383   1.91675   1.91988   1.92170
  Beta virt. eigenvalues --    1.92513   1.92988   1.93477   1.93727   1.94610
  Beta virt. eigenvalues --    1.95070   1.95548   1.95681   1.95914   1.96225
  Beta virt. eigenvalues --    1.96336   1.97031   1.97472   1.97688   1.98223
  Beta virt. eigenvalues --    1.98465   1.98938   1.99370   1.99727   1.99947
[...]
  1642. RY*(   1) H  80                  0.00043     1.58173   
  1643. RY*(   2) H  80                  0.00008     2.60647   
  1644. RY*(   3) H  80                  0.00008     1.98129   
  1645. RY*(   4) H  80                  0.00003     1.80791   
  1646. RY*(   5) H  80                  0.00000     2.78598   
  1647. RY*(   1) H  81                  0.00030     1.61939   
  1648. RY*(   2) H  81                  0.00008     2.58420   
  1649. RY*(   3) H  81                  0.00005     1.43854   
  1650. RY*(   4) H  81                  0.00006     2.31292   
  1651. RY*(   5) H  81                  0.00000     2.89093   
  1652. RY*(   1) H  82                  0.00038     1.16511   
  1653. RY*(   2) H  82                  0.00006     1.49771   
  1654. RY*(   3) H  82                  0.00006     2.41001   
  1655. RY*(   4) H  82                  0.00003     2.33473   
  1656. RY*(   5) H  82                  0.00001     2.92925   
  1657. RY*(   1) H  83                  0.00028     1.29374   
  1658. RY*(   2) H  83                  0.00007     2.21443   
  1659. RY*(   3) H  83                  0.00005     1.49738   
  1660. RY*(   4) H  83                  0.00002     2.34544   
  1661. RY*(   5) H  83                  0.00001     2.95868   
  1662. RY*(   1) H  84                  0.00053     0.95010   
  1663. RY*(   2) H  84                  0.00034     1.91601   
  1664. RY*(   3) H  84                  0.00021     1.72685   
  1665. RY*(   4) H  84                  0.00011     2.09723   
  1666. RY*(   5) H  84                  0.00000     3.14430   
  1667. RY*(   1) H  85                  0.00144     0.63108   
  1668. RY*(   2) H  85                  0.00014     2.14161   
  1669. RY*(   3) H  85                  0.00011     2.14197   
  1670. RY*(   4) H  85                  0.00006     2.97641   
  1671. RY*(   5) H  85                  0.00000     3.14290   
  1672. RY*(   1) H  86                  0.00043     1.00314   
  1673. RY*(   2) H  86                  0.00009     2.10185   
  1674. RY*(   3) H  86                  0.00005     2.50777   
  1675. RY*(   4) H  86                  0.00005     1.94872   
  1676. RY*(   5) H  86                  0.00001     2.93346   
  1677. RY*(   1) H  87                  0.00043     1.36459   
  1678. RY*(   2) H  87                  0.00010     1.83788   
  1679. RY*(   3) H  87                  0.00008     2.24267   
  1680. RY*(   4) H  87                  0.00003     2.30716   
  1681. RY*(   5) H  87                  0.00001     2.94733   
  1682. RY*(   1) H  88                  0.00026     1.14025   
  1683. RY*(   2) H  88                  0.00006     1.57249   
  1684. RY*(   3) H  88                  0.00007     2.30295   
  1685. RY*(   4) H  88                  0.00003     2.33027   
  1686. RY*(   5) H  88                  0.00001     2.77575   
  1687. RY*(   1) H  89                  0.00033     1.08829   
  1688. RY*(   2) H  89                  0.00007     2.04498   
  1689. RY*(   3) H  89                  0.00005     2.11740   
  1690. RY*(   4) H  89                  0.00004     2.00283   
  1691. RY*(   5) H  89                  0.00001     3.04242   
  1692. RY*(   1) H  90                  0.00045     1.56750   
  1693. RY*(   2) H  90                  0.00033     2.11571   
  1694. RY*(   3) H  90                  0.00017     2.17904   
  1695. RY*(   4) H  90                  0.00008     1.33086   
  1696. RY*(   5) H  90                  0.00000     3.16626   
  1711. BD*(   1) C   8 - C  13          0.01074     0.42408   
  1712. BD*(   2) C   8 - C  13          0.20847    -0.07122  1731(v),189(v),379(g)
                                                    1716(r),513(g),1710(r)
  1713. BD*(   1) C   8 - C  43          0.00922     0.49152   
  1714. BD*(   1) C   8 - H  85          0.00788     0.33161   
  1715. BD*(   1) C   9 - C  16          0.01134     0.43796   
  1716. BD*(   2) C   9 - C  16          0.16895    -0.06084  1749(v),1731(v),1712(r)
                                                    405(g),591(g)
  1717. BD*(   1) C   9 - C  24          0.00976     0.47518   
  1718. BD*(   1) C   9 - H  65          0.00639     0.34697   
  1719. BD*(   1) C  10 - C  27          0.00885     0.50545   
  1720. BD*(   2) C  10 - C  27          0.13606    -0.04505  1768(v),1753(v),1749(v)
                                                    431(g),877(g)
  1721. BD*(   1) C  10 - C  32          0.01123     0.44271   
  1722. BD*(   1) C  10 - H  69          0.00654     0.34107   
  1723. BD*(   1) C  11 - C  35          0.01079     0.47489   
  1724. BD*(   2) C  11 - C  35          0.20817    -0.06176  1782(v),1773(v),16(v),457(g)
                                                    1768(r),1085(g)
  1725. BD*(   1) C  11 - C  40          0.00953     0.52275   
  1726. BD*(   1) C  11 - H  76          0.00740     0.33999   
  1727. BD*(   1) N  12 - C  13          0.01462     0.32948   
  1728. BD*(   1) N  12 - C  16          0.01307     0.39466   
  1729. BD*(   1) C  13 - C  14          0.01392     0.41108   
  1730. BD*(   1) C  14 - C  15          0.01131     0.46753   
  1731. BD*(   2) C  14 - C  15          0.11206    -0.04148  1716(v),1712(v),1745(r)
                                                    1738(v),1736(v),1739(v)
  1732. BD*(   1) C  14 - C  18          0.01274     0.27468   
  1733. BD*(   1) C  15 - C  16          0.01546     0.41935   
  1734. BD*(   1) C  15 - C  17          0.00771     0.29714   
  1735. BD*(   1) C  17 - H  66          0.00333     0.32121   
  1736. BD*(   1) C  17 - H  67          0.00474     0.32014   
  1737. BD*(   1) C  17 - H  68          0.00288     0.32367   
  1738. BD*(   1) C  18 - C  19          0.00728     0.24075   
  1739. BD*(   1) C  18 - H  86          0.00690     0.30960   
  1740. BD*(   1) C  18 - H  87          0.00697     0.29410   
  1741. BD*(   1) C  19 - C  20          0.04009     0.23222   
  1742. BD*(   1) C  19 - H  88          0.00574     0.30889   
  1743. BD*(   1) C  19 - H  89          0.00519     0.31980   
  1744. BD*(   1) C  20 - O  21          0.02516     0.42931   
  1745. BD*(   2) C  20 - O  21          0.10174    -0.03516  1744(g),1731(r),1738(v)
                                                    1747(v),693(g)
  1746. BD*(   1) C  20 - O  22          0.03807     0.38558   
  1747. BD*(   1) O  22 - H  90          0.00642     0.28877   
  1748. BD*(   1) N  23 - C  24          0.01375     0.37320   
  1749. BD*(   2) N  23 - C  24          0.26918    -0.09267  1716(v),1753(v),1720(v)
                                                    797(g),1782(r),770(g),177(r)
                                                    405(v),176(r),1707(r)
  1750. BD*(   1) N  23 - C  27          0.01373     0.35906   
  1751. BD*(   1) C  24 - C  25          0.01581     0.41845   
  1752. BD*(   1) C  25 - C  26          0.01027     0.52238   
  1753. BD*(   2) C  25 - C  26          0.10188    -0.02524  1761(v),1720(v),1749(v)
                                                    1758(v)
  1754. BD*(   1) C  25 - C  28          0.00901     0.28821   
  1755. BD*(   1) C  26 - C  27          0.01877     0.35372   
  1756. BD*(   1) C  26 - C  29          0.01360     0.33915   
  1757. BD*(   1) C  28 - H  62          0.00264     0.32610   
  1758. BD*(   1) C  28 - H  63          0.00443     0.32709   
  1759. BD*(   1) C  28 - H  64          0.00304     0.34121   
  1760. BD*(   1) C  29 - C  30          0.00322     0.56991   
  1761. BD*(   2) C  29 - C  30          0.02465    -0.02630   
  1762. BD*(   1) C  29 - H  61          0.00958     0.35302   
  1763. BD*(   1) C  30 - H  59          0.00482     0.35853   
  1764. BD*(   1) C  30 - H  60          0.00423     0.36308   
  1765. BD*(   1) N  31 - C  32          0.01337     0.35833   
  1766. BD*(   1) N  31 - C  35          0.01306     0.35923   
  1767. BD*(   1) C  32 - C  33          0.01495     0.41899   
  1768. BD*(   2) C  32 - C  33          0.17101    -0.06525  1720(v),1773(v),16(v)
                                                    1774(v),1724(r),1008(g)
                                                    1775(v)
  1769. BD*(   1) C  33 - C  34          0.01042     0.48167   
  1770. BD*(   1) C  33 - C  36          0.00797     0.27917   
  1771. BD*(   1) C  34 - C  35          0.01430     0.38954   
  1772. BD*(   1) C  34 - C  37          0.01378     0.29603   
  1773. BD*(   2) C  34 - C  37          0.18159    -0.09942  1768(v),1724(v),187(v)
                                                    1780(v),1779(v),1772(g)
  1774. BD*(   1) C  36 - H  70          0.00500     0.31101   
  1775. BD*(   1) C  36 - H  71          0.00286     0.31213   
  1776. BD*(   1) C  36 - H  72          0.00238     0.31614   
  1777. BD*(   1) C  37 - C  38          0.00291     0.57956   
  1778. BD*(   1) C  37 - H  75          0.00474     0.31768   
  1779. BD*(   1) C  38 - H  73          0.01229     0.32081   
  1780. BD*(   1) C  38 - H  74          0.01245     0.31901   
  1781. BD*(   1) N  39 - C  40          0.01308     0.40887   
  1782. BD*(   2) N  39 - C  40          0.30242    -0.09300  1724(v),1786(v),189(v)
                                                    1213(g),1749(r),176(r)
                                                    1186(g),457(v),1707(r)
                                                    173(r),1804(r)
  1783. BD*(   1) N  39 - C  43          0.01449     0.34846   
  1784. BD*(   1) C  40 - C  41          0.01895     0.35516   
  1785. BD*(   1) C  41 - C  42          0.00932     0.60689   
  1786. BD*(   2) C  41 - C  42          0.09487    -0.00971   
  1787. BD*(   1) C  41 - C  44          0.00962     0.26148   
  1788. BD*(   1) C  42 - C  43          0.01737     0.40178   
  1789. BD*(   1) C  42 - C  45          0.01325     0.27883   
  1790. BD*(   1) C  44 - H  77          0.00359     0.32325   
  1791. BD*(   1) C  44 - H  78          0.00248     0.32397   
  1792. BD*(   1) C  44 - H  79          0.00248     0.33251   
  1793. BD*(   1) C  45 - C  46          0.00733     0.24789   
  1794. BD*(   1) C  45 - H  80          0.00667     0.33236   
  1795. BD*(   1) C  45 - H  81          0.00599     0.31677   
  1796. BD*(   1) C  46 - C  47          0.03431     0.29992   
  1797. BD*(   1) C  46 - H  82          0.00661     0.31359   
  1798. BD*(   1) C  46 - H  83          0.00500     0.31846   
  1799. BD*(   1) C  47 - O  48          0.02255     0.49514   
  1800. BD*(   2) C  47 - O  48          0.09936    -0.05342   
  1801. BD*(   1) C  47 - O  49          0.03381     0.47395   
  1802. BD*(   1) O  49 - H  84          0.00731     0.30689   
       -------------------------------
              Total Lewis  153.24213  ( 96.8273%)
        Valence non-Lewis    4.72442  (  2.9852%)
        Rydberg non-Lewis    0.29675  (  0.1875%)
       -------------------------------
            Total unit  2  158.26329  (100.0000%)
           Charge unit  2    2.73671

 Molecular unit  3  (H2O)
   109. BD (   1) O  50 - H  57          0.99624    -0.85222  177(r),176(r),173(r),1804(g)
                                                    353(r),172(r),178(r),326(r)
                                                    358(r),773(r),981(r),356(r)
                                                    769(r),174(r),1291(r)
   110. BD (   1) O  50 - H  58          0.92166    -0.87285  177(r),172(r),174(r),176(r)
                                                    173(r),16(r),171(r),1804(g)
                                                    1529(v),1535(g),1803(g)
                                                    178(r),358(r),1728(r)
                                                    1783(r),1188(r),1781(r)
                                                    484(r),1727(r),1765(r)
                                                    1186(r),356(r),486(r),326(r)
                                                    1766(r),1748(r),1185(r)
                                                    1750(r),363(r),327(r),332(r)
                                                    355(r),357(r),360(r),980(r)
                                                    370(r),359(r)
   168. CR (   1) O  50                  0.99993   -19.07725  177(r),172(r),1529(v),176(r)
                                                    356(r),175(r),173(r),171(r)
                                                    174(r)
   194. LP (   1) O  50                  0.98347    -0.65801  177(r),175(r),172(r),1804(g)
                                                    176(r),1535(v),174(r),16(r)
                                                    1529(v),1527(v),173(r)
                                                    978(r),171(r),483(r),769(r)
                                                    360(r),327(r),329(r),352(r)
                                                    358(r),1186(r),980(r),772(r)
                                                    1187(r),1188(r),354(r)
   195. LP (   2) O  50                  0.96707    -0.45416  173(r),177(r),1528(v)
                                                    1527(v),1533(v),172(r)
                                                    353(r),354(r),355(r),176(r)
                                                    1782(r),1186(r),1188(r)
                                                    328(r),171(r),483(r),486(r)
                                                    981(r),329(r),485(r)
  1471. RY*(   1) O  50                  0.00274     0.71020   
  1472. RY*(   2) O  50                  0.00035     1.21850   
  1473. RY*(   3) O  50                  0.00026     0.69629   
  1474. RY*(   4) O  50                  0.00012     0.91979   
  1475. RY*(   5) O  50                  0.00001     3.14385   
  1476. RY*(   6) O  50                  0.00001     3.48243   
  1477. RY*(   7) O  50                  0.00002     2.04610   
  1478. RY*(   8) O  50                  0.00001     6.11553   
  1479. RY*(   9) O  50                  0.00002     2.52586   
  1480. RY*(  10) O  50                  0.00000     2.82738   
  1481. RY*(  11) O  50                  0.00001     2.57818   
  1482. RY*(  12) O  50                  0.00001     2.40073   
  1483. RY*(  13) O  50                  0.00000     6.44924   
  1484. RY*(  14) O  50                  0.00000     6.31291   
  1485. RY*(  15) O  50                  0.00000     6.41127   
  1486. RY*(  16) O  50                  0.00000     2.02448   
  1487. RY*(  17) O  50                  0.00000     6.29120   
  1488. RY*(  18) O  50                  0.00000    41.26980   
  1489. RY*(  19) O  50                  0.00000     6.49867   
  1490. RY*(  20) O  50                  0.00000     5.40339   
  1491. RY*(  21) O  50                  0.00000     5.45080   
  1492. RY*(  22) O  50                  0.00000     5.36145   
  1493. RY*(  23) O  50                  0.00000     5.37715   
  1494. RY*(  24) O  50                  0.00000     5.37228   
  1495. RY*(  25) O  50                  0.00000     5.24604   
  1496. RY*(  26) O  50                  0.00000     5.13549   
  1527. RY*(   1) H  57                  0.00060     1.69620   
  1528. RY*(   2) H  57                  0.00049     1.32860   
  1529. RY*(   3) H  57                  0.00026     2.00776   
  1530. RY*(   4) H  57                  0.00006     1.50076   
  1531. RY*(   5) H  57                  0.00000     2.88447   
  1532. RY*(   1) H  58                  0.00208     2.26555   
  1533. RY*(   2) H  58                  0.00086     2.56293   
  1534. RY*(   3) H  58                  0.00069     2.57488   
  1535. RY*(   4) H  58                  0.00043     2.34022   
  1536. RY*(   5) H  58                  0.00013     3.33229   
  1803. BD*(   1) O  50 - H  57          0.00156     0.36140   
  1804. BD*(   1) O  50 - H  58          0.04029     0.34507   
       -------------------------------
              Total Lewis    4.86836  ( 98.9631%)
        Valence non-Lewis    0.04185  (  0.8507%)
        Rydberg non-Lewis    0.00916  (  0.1862%)
       -------------------------------
            Total unit  3    4.91937  (100.0000%)
           Charge unit  3    0.08063
 1\1\GINC-NODE544\SP\UPBE1PBE\def2TZVP\C38H40Fe1N6O5(1+,6)\ZHARTOVSKA\3
 0-Sep-2022\0\\# PBE1PBE/def2TZVP empiricaldispersion=GD3BJ scf=maxcycl
 e=999 geom=check pop=nbo\\1a6k_III_H\\1,6\C,0,9.492,29.440001,2.541\C,
 0,10.712,29.318001,3.393\N,0,11.007,30.238001,4.345\C,0,11.762,28.437,
 3.339\C,0,12.181,29.896999,4.878\N,0,12.674,28.809,4.311\Fe,0,14.594,2
 7.968,4.72\C,0,15.966,31.09,4.996\C,0,13.915,27.936001,8.079\C,0,13.41
 6,24.757,4.507\C,0,15.491,27.867001,1.465\N,0,14.946,29.202,6.28\C,0,1
 5.449,30.523001,6.183\C,0,15.363,31.157,7.454\C,0,14.82,30.256001,8.35
 3\C,0,14.534,29.1,7.582\C,0,14.555,30.398001,9.834\C,0,15.764,32.60300
 1,7.755\C,0,14.507,33.476002,7.966\C,0,13.62,33.509998,6.704\O,0,12.46
 6,33.068001,6.832\O,0,14.135,33.952,5.64\N,0,13.856,26.594999,6.046\C,
 0,13.58,26.785,7.394\C,0,12.943,25.636,7.942\C,0,12.796,24.715,6.966\C
 ,0,13.334,25.334,5.735\C,0,12.508,25.525,9.403\C,0,12.252,23.320999,7.
 02\C,0,12.407,22.542999,8.069\N,0,14.4,26.598,3.235\C,0,13.945,25.284,
 3.32\C,0,14.146,24.589001,2.11\C,0,14.75,25.464001,1.255\C,0,14.944,26
 .698999,1.957\C,0,13.788,23.136999,1.853\C,0,15.347,25.237,-0.099\C,0,
 15.181,24.205,-0.871\N,0,15.52,29.250999,3.447\C,0,15.745,29.018,2.123
 \C,0,16.482,30.193001,1.605\C,0,16.632,31.055,2.561\C,0,16.017,30.532,
 3.751\C,0,16.954,30.298,0.127\C,0,17.452999,32.355,2.535\C,0,18.951,32
 .058998,2.787\C,0,19.837,33.250999,2.699\O,0,20.240999,33.617001,1.585
 \O,0,20.27,33.77,3.722\O,0,16.525,27.106001,4.962\H,0,9.70419031,29.07
 10251,1.55930144\H,0,8.6969299,28.86864515,2.9726434\H,0,9.2005601,30.
 46776472,2.48046469\H,0,11.85852264,27.61061793,2.66618796\H,0,10.4474
 2499,31.02652513,4.60015781\H,0,12.66363881,30.43645646,5.6660009\H,0,
 17.37633133,27.54966188,4.962\H,0,15.82293541,27.76075691,4.962\H,0,13
 .31919088,22.57333311,8.62746902\H,0,11.62091384,21.87970286,8.3639691
 2\H,0,11.7171759,22.94372358,6.17352116\H,0,13.24401061,25.98321394,10
 .03007923\H,0,11.56896924,26.02088759,9.53421255\H,0,12.40648993,24.49
 319075,9.6675097\H,0,13.67346492,27.94519892,9.12134169\H,0,15.3525703
 5,30.94823716,10.28789613\H,0,13.63234209,30.91899322,9.98289421\H,0,1
 4.49245622,29.4273147,10.27982101\H,0,13.02291944,23.76433016,4.436329
 91\H,0,14.5528405,22.50482949,2.25335075\H,0,12.85486359,22.91075917,2
 .32519909\H,0,13.70385204,22.97152843,0.79922649\H,0,15.96027735,23.47
 813803,-0.96742868\H,0,14.26503471,24.0820867,-1.41025866\H,0,15.98229
 778,26.01230147,-0.47343873\H,0,15.74718928,27.85898664,0.42615313\H,0
 ,17.89469238,29.80015652,0.01677426\H,0,16.22981868,29.83773794,-0.512
 23411\H,0,17.06225553,31.32835166,-0.14049992\H,0,17.34203994,32.82298
 204,1.57918574\H,0,17.09142995,33.0155708,3.2951408\H,0,19.0522952,31.
 63334352,3.76345151\H,0,19.27958556,31.33914263,2.06676408\H,0,21.2173
 2679,33.8403419,3.86065054\H,0,16.36675141,32.0782105,5.08396762\H,0,1
 6.3636287,32.62654858,8.64088427\H,0,16.33029991,32.99104423,6.9342522
 6\H,0,14.81112463,34.47346653,8.20573469\H,0,13.93901555,33.07868159,8
 .78112585\H,0,15.08988726,33.98995872,5.54862466\\Version=ES64L-G16Rev
 A.03\State=6-A\HF=-3438.303636\S2=9.117916\S2-1=0.\S2A=8.765509\RMSD=1
 .827e-09\Dipole=-0.3323516,-1.7376146,-0.4089519\Quadrupole=-14.956686
 ,7.3228973,7.6337887,17.1988131,8.2898864,32.5509683\PG=C01 [X(C38H40F
 e1N6O5)]\\@


 IF YOU GET CONFUSED, LOGIC OUT YOUR DILEMMA

           --  PICKER X-RAY CORP.    DIGITAL PRINTER MANUAL CA. 1964
 Job cpu time:       2 days 23 hours 14 minutes 17.8 seconds.
 Elapsed time:       0 days 17 hours 51 minutes 17.9 seconds.
 File lengths (MBytes):  RWF=   2989 Int=      0 D2E=      0 Chk=    250 Scr=      1
 Normal termination of Gaussian 16 at Fri Sep 30 06:30:21 2022.
