 Entering Gaussian System, Link 0=g16
 Input=/net/homes/chemie/zhartovska/work/BioModel/Konrad/1a6m/1a6m12/1a6m16/1a6m16.com
 Output=/net/homes/chemie/zhartovska/work/BioModel/Konrad/1a6m/1a6m12/1a6m16/1a6m16.log
 Initial command:
 /afs/math/software/gaussian/g16.A03/g16/l1.exe "/scratch/zhartovska_gaussian.TAGOUWi/Gau-23389.inp" -scrdir="/scratch/zhartovska_gaussian.TAGOUWi/"
 Entering Link 1 = /afs/math/software/gaussian/g16.A03/g16/l1.exe PID=     23390.
  
 Copyright (c) 1988,1990,1992,1993,1995,1998,2003,2009,2016,
            Gaussian, Inc.  All Rights Reserved.
  
 This is part of the Gaussian(R) 16 program.  It is based on
 the Gaussian(R) 09 system (copyright 2009, Gaussian, Inc.),
 the Gaussian(R) 03 system (copyright 2003, Gaussian, Inc.),
 the Gaussian(R) 98 system (copyright 1998, Gaussian, Inc.),
 the Gaussian(R) 94 system (copyright 1995, Gaussian, Inc.),
 the Gaussian 92(TM) system (copyright 1992, Gaussian, Inc.),
 the Gaussian 90(TM) system (copyright 1990, Gaussian, Inc.),
 the Gaussian 88(TM) system (copyright 1988, Gaussian, Inc.),
 the Gaussian 86(TM) system (copyright 1986, Carnegie Mellon
 University), and the Gaussian 82(TM) system (copyright 1983,
 Carnegie Mellon University). Gaussian is a federally registered
 trademark of Gaussian, Inc.
  
 This software contains proprietary and confidential information,
 including trade secrets, belonging to Gaussian, Inc.
  
 This software is provided under written license and may be
 used, copied, transmitted, or stored only in accord with that
 written license.
  
 The following legend is applicable only to US Government
 contracts under FAR:
  
                    RESTRICTED RIGHTS LEGEND
  
 Use, reproduction and disclosure by the US Government is
 subject to restrictions as set forth in subparagraphs (a)
 and (c) of the Commercial Computer Software - Restricted
 Rights clause in FAR 52.227-19.
  
 Gaussian, Inc.
 340 Quinnipiac St., Bldg. 40, Wallingford CT 06492
  
  
 ---------------------------------------------------------------
 Warning -- This program may not be used in any manner that
 competes with the business of Gaussian, Inc. or will provide
 assistance to any competitor of Gaussian, Inc.  The licensee
 of this program is prohibited from giving any competitor of
 Gaussian, Inc. access to this program.  By using this program,
 the user acknowledges that Gaussian, Inc. is engaged in the
 business of creating and licensing software in the field of
 computational chemistry and represents and warrants to the
 licensee that it is not a competitor of Gaussian, Inc. and that
 it will not use this program in any manner prohibited above.
 ---------------------------------------------------------------
  

 Cite this work as:
 Gaussian 16, Revision A.03,
 M. J. Frisch, G. W. Trucks, H. B. Schlegel, G. E. Scuseria, 
 M. A. Robb, J. R. Cheeseman, G. Scalmani, V. Barone, 
 G. A. Petersson, H. Nakatsuji, X. Li, M. Caricato, A. V. Marenich, 
 J. Bloino, B. G. Janesko, R. Gomperts, B. Mennucci, H. P. Hratchian, 
 J. V. Ortiz, A. F. Izmaylov, J. L. Sonnenberg, D. Williams-Young, 
 F. Ding, F. Lipparini, F. Egidi, J. Goings, B. Peng, A. Petrone, 
 T. Henderson, D. Ranasinghe, V. G. Zakrzewski, J. Gao, N. Rega, 
 G. Zheng, W. Liang, M. Hada, M. Ehara, K. Toyota, R. Fukuda, 
 J. Hasegawa, M. Ishida, T. Nakajima, Y. Honda, O. Kitao, H. Nakai, 
 T. Vreven, K. Throssell, J. A. Montgomery, Jr., J. E. Peralta, 
 F. Ogliaro, M. J. Bearpark, J. J. Heyd, E. N. Brothers, K. N. Kudin, 
 V. N. Staroverov, T. A. Keith, R. Kobayashi, J. Normand, 
 K. Raghavachari, A. P. Rendell, J. C. Burant, S. S. Iyengar, 
 J. Tomasi, M. Cossi, J. M. Millam, M. Klene, C. Adamo, R. Cammi, 
 J. W. Ochterski, R. L. Martin, K. Morokuma, O. Farkas, 
 J. B. Foresman, and D. J. Fox, Gaussian, Inc., Wallingford CT, 2016.
 
 ******************************************
 Gaussian 16:  ES64L-G16RevA.03 25-Dec-2016
                 9-Sep-2022 
 ******************************************
 %nprocs=12
 Will use up to   12 processors via shared memory.
 %mem=16GB
 %oldchk=1a6m_III_D.chk
 %chk=1a6m_III_H.chk
 Copying data from "1a6m_III_D.chk" to current chk file "1a6m_III_H.chk"
 IOpt=  2 FromEx=T IUOpen= 4 IOptOp= 5 NList=   0 IFRang= 0 IUIn= 4 IUOut= 2.
 ----------------------------------------------------------------------
 # PBE1PBE/def2TZVP empiricaldispersion=GD3BJ scf=maxcycle=999 geom=che
 ck pop=nbo
 ----------------------------------------------------------------------
 1/29=2,38=1,172=1/1;
 2/12=2,40=1/2;
 3/5=44,7=101,11=2,14=-4,25=1,30=1,74=-13,124=41/1,2,3;
 4//1;
 5/5=2,7=999,38=5/2;
 6/7=2,8=2,9=2,10=2,28=1,40=1/1,7;
 99/5=1,9=1/99;
 ----------
 1a6m_III_H
 ----------
 Structure from the checkpoint file:  "1a6m_III_H.chk"
 Charge =  1 Multiplicity = 6
 Z-Matrix found in chk file.
 C,0,9.503,29.450001,2.528
 C,0,10.705,29.33,3.406
 N,0,10.972,30.184,4.45
 C,0,11.799,28.49,3.348
 C,0,12.167,29.837,4.966
 N,0,12.684,28.843,4.36
 Fe,0,14.515,27.975,4.75
 C,0,15.904,31.066,5.05
 C,0,13.782,28.006001,8.099
 C,0,13.251,24.816999,4.509
 C,0,15.381,27.908001,1.499
 N,0,14.784,29.263,6.257
 C,0,15.32,30.527,6.185
 C,0,15.292,31.177,7.5
 C,0,14.744,30.264,8.355
 C,0,14.411,29.112,7.593
 C,0,14.477,30.427999,9.835
 C,0,15.687,32.583,7.757
 C,0,14.458,33.523998,7.976
 C,0,13.561,33.534,6.775
 O,0,12.4,33.104,6.842
 O,0,14.05,33.974998,5.683
 N,0,13.664,26.679001,6.009
 C,0,13.423,26.879,7.368
 C,0,12.776,25.68,7.928
 C,0,12.644,24.799999,6.938
 C,0,13.185,25.434,5.76
 C,0,12.364,25.563999,9.367
 C,0,12.101,23.393,6.989
 C,0,12.33544484,22.61511205,8.07366262
 N,0,14.311,26.643999,3.267
 C,0,13.834,25.344,3.365
 C,0,14.05,24.629,2.134
 C,0,14.671,25.493,1.316
 C,0,14.805,26.752001,2.018
 C,0,13.686,23.193001,1.908
 C,0,15.24,25.292999,-0.044
 C,0,15.157,24.198999,-0.766
 N,0,15.389,29.280001,3.475
 C,0,15.682,29.076,2.164
 C,0,16.362,30.195,1.608
 C,0,16.57,31.069,2.646
 C,0,15.937,30.499001,3.808
 C,0,16.872,30.306,0.198
 C,0,17.386999,32.328999,2.587
 C,0,18.889,32.016998,2.859
 C,0,19.761999,33.226002,2.747
 O,0,20.186001,33.643002,1.646
 O,0,20.149,33.749001,3.83
 O,0,16.131001,27.289,5.175
 O,0,16.805,26.632,4.375
 H,0,11.94184704,27.69901919,2.64171105
 H,0,12.62895569,30.33883216,5.79041581
 H,0,10.38508529,30.92828811,4.76869474
 H,0,9.73434852,29.07413045,1.55326968
 H,0,8.69748747,28.88367956,2.94672377
 H,0,9.215918,30.478175,2.45491005
 H,0,11.53086522,23.00951256,6.16876606
 H,0,13.27179907,22.68136634,8.58722968
 H,0,11.58419761,21.93467384,8.4164912
 H,0,13.10623071,26.01994782,9.98837287
 H,0,11.42601091,26.05847705,9.51041517
 H,0,12.26612081,24.53089676,9.62780533
 H,0,13.54740649,28.00926417,9.14296132
 H,0,15.27398744,30.98498077,10.28163445
 H,0,13.55411414,30.95101626,9.97512362
 H,0,14.41405079,29.46399557,10.2950378
 H,0,12.8102471,23.84567497,4.42434476
 H,0,14.44685187,22.56317411,2.31948816
 H,0,12.75187891,22.98243469,2.38547212
 H,0,13.59936539,23.00806006,0.85767086
 H,0,15.97636758,23.51132912,-0.79143422
 H,0,14.27001464,23.99540787,-1.32876782
 H,0,15.76680459,26.11871544,-0.47477754
 H,0,15.61901743,27.88665359,0.45602733
 H,0,17.81483795,29.80622709,0.11936397
 H,0,16.17113032,29.85274244,-0.47150674
 H,0,16.99298414,31.338026,-0.05731388
 H,0,16.37558298,32.02047975,5.15713501
 H,0,17.28776525,32.76919021,1.6168019
 H,0,17.02978184,33.0164586,3.32503469
 H,0,19.2221061,31.28493154,2.15329537
 H,0,18.98394539,31.61366703,3.84551381
 H,0,21.08745141,33.83695656,4.01213394
 H,0,16.30498504,32.61373062,8.62995482
 H,0,16.25121482,32.94114726,6.92136122
 H,0,14.80676715,34.51848324,8.16109612
 H,0,13.90293047,33.18349889,8.82503367
 H,0,15.00189445,34.02161352,5.56757057
 Recover connectivity data from disk.
 Stoichiometry    C38H38FeN6O6(1+,6)
 Framework group  C1[X(C38H38FeN6O6)]
 Deg. of freedom   261
 Full point group                 C1      NOp   1
 Largest Abelian subgroup         C1      NOp   1
 Largest concise Abelian subgroup C1      NOp   1
                         Standard orientation:                         
 ---------------------------------------------------------------------
 Center     Atomic      Atomic             Coordinates (Angstroms)
 Number     Number       Type             X           Y           Z
 ---------------------------------------------------------------------
      1          6           0       -1.593213   -0.088727    5.340081
      2          6           0       -1.210641   -0.419821    3.935053
      3          7           0       -0.413737   -1.487716    3.595814
      4          6           0       -1.441400    0.240916    2.745104
      5          6           0       -0.206834   -1.436510    2.265679
      6          7           0       -0.798295   -0.447423    1.723055
      7         26           0       -0.747246    0.079337   -0.271439
      8          6           0        2.601930   -0.514834   -0.331246
      9          6           0       -1.318362   -3.193250   -1.118821
     10          6           0       -4.102281    0.682462   -0.364866
     11          6           0       -0.153927    3.320524    0.411293
     12          7           0        0.397979   -1.517917   -0.645063
     13          6           0        1.767803   -1.597516   -0.558918
     14          6           0        2.227035   -2.959048   -0.855304
     15          6           0        1.100999   -3.678989   -1.135708
     16          6           0       -0.011415   -2.808795   -0.981001
     17          6           0        1.007680   -5.144774   -1.498132
     18          6           0        3.631511   -3.421230   -0.742408
     19          6           0        3.876494   -4.300848    0.526503
     20          6           0        3.562988   -3.543008    1.781295
     21          8           0        2.640625   -3.900169    2.528952
     22          8           0        4.263272   -2.506631    2.029467
     23          7           0       -2.383006   -1.009151   -0.629741
     24          6           0       -2.423138   -2.366669   -0.946751
     25          6           0       -3.824717   -2.781388   -1.129494
     26          6           0       -4.586260   -1.707341   -0.933535
     27          6           0       -3.684827   -0.626366   -0.615362
     28          6           0       -4.229232   -4.187726   -1.464907
     29          6           0       -6.083968   -1.573614   -1.060357
     30          6           0       -6.746236   -2.258608   -2.024075
     31          7           0       -1.902207    1.689395    0.022240
     32          6           0       -3.278516    1.776034   -0.137126
     33          6           0       -3.714607    3.145839   -0.055265
     34          6           0       -2.600906    3.871333    0.130714
     35          6           0       -1.481495    2.956351    0.205343
     36          6           0       -5.133619    3.599088   -0.218469
     37          6           0       -2.408849    5.345745    0.181566
     38          6           0       -3.357406    6.253141    0.138206
     39          7           0        0.908348    1.187939    0.078615
     40          6           0        0.965306    2.521831    0.330951
     41          6           0        2.311213    2.965755    0.454090
     42          6           0        3.098928    1.877097    0.173174
     43          6           0        2.212654    0.761044   -0.038434
     44          6           0        2.754437    4.382048    0.695309
     45          6           0        4.594303    1.886263    0.023727
     46          6           0        4.993117    2.255747   -1.436329
     47          6           0        6.473491    2.345741   -1.628052
     48          8           0        7.123189    3.373545   -1.332453
     49          8           0        7.030659    1.372688   -2.210218
     50          8           0       -0.637735    0.450599   -2.035766
     51          8           0       -0.843930    1.580306   -2.490925
     52          1           0       -2.019051    1.134071    2.628943
     53          1           0        0.386354   -2.145429    1.726735
     54          1           0       -0.052907   -2.177782    4.223198
     55          1           0       -1.742578    0.966998    5.429717
     56          1           0       -2.498590   -0.599791    5.593077
     57          1           0       -0.812587   -0.396157    6.004167
     58          1           0       -6.623064   -0.937953   -0.389379
     59          1           0       -6.293984   -2.405808   -2.982564
     60          1           0       -7.721382   -2.652245   -1.826492
     61          1           0       -3.531093   -4.603214   -2.161234
     62          1           0       -4.237952   -4.778701   -0.572958
     63          1           0       -5.206954   -4.183579   -1.899582
     64          1           0       -1.504868   -4.213858   -1.380496
     65          1           0        1.833902   -5.410776   -2.123831
     66          1           0        1.031406   -5.734989   -0.605953
     67          1           0        0.091726   -5.325298   -2.020952
     68          1           0       -5.157456    0.859036   -0.346780
     69          1           0       -5.369356    3.665223   -1.260081
     70          1           0       -5.788951    2.895888    0.251584
     71          1           0       -5.255755    4.559782    0.236557
     72          1           0       -3.583319    6.747310   -0.783564
     73          1           0       -3.904263    6.498214    1.024652
     74          1           0       -1.402523    5.700567    0.260997
     75          1           0        0.018119    4.346232    0.662737
     76          1           0        2.755714    4.918006   -0.230783
     77          1           0        2.081547    4.854645    1.379978
     78          1           0        3.741481    4.381428    1.108401
     79          1           0        3.654766   -0.696229   -0.390693
     80          1           0        5.012124    2.605530    0.696765
     81          1           0        4.978844    0.916145    0.260157
     82          1           0        4.555524    3.200106   -1.684520
     83          1           0        4.604596    1.510590   -2.098667
     84          1           0        7.528691    1.517907   -3.017979
     85          1           0        3.877196   -3.994131   -1.612076
     86          1           0        4.273621   -2.566419   -0.698912
     87          1           0        4.901763   -4.606197    0.548527
     88          1           0        3.253164   -5.169105    0.476602
     89          1           0        4.754049   -2.078728    1.324033
 ---------------------------------------------------------------------
 Rotational constants (GHZ):           0.0699887           0.0509669           0.0377672
 Standard basis: def2TZVP (5D, 7F)
 There are  2080 symmetry adapted cartesian basis functions of A   symmetry.
 There are  1823 symmetry adapted basis functions of A   symmetry.
  1823 basis functions,  2956 primitive gaussians,  2080 cartesian basis functions
   193 alpha electrons      188 beta electrons
       nuclear repulsion energy      7976.7035712671 Hartrees.
 NAtoms=   89 NActive=   89 NUniq=   89 SFac= 1.00D+00 NAtFMM=   60 NAOKFM=T Big=T
 Integral buffers will be    131072 words long.
 Raffenetti 2 integral format.
 Two-electron integral symmetry is turned on.
 Nuclear repulsion after empirical dispersion term =     7976.5752894370 Hartrees.
 One-electron integrals computed using PRISM.
   1 Symmetry operations used in ECPInt.
 ECPInt:  NShTT=  257403 NPrTT=  800753 LenC2=  189247 LenP2D=  381000.
 LDataN:  DoStor=T MaxTD1= 6 Len=  172
 NBasis=  1823 RedAO= T EigKep=  2.91D-06  NBF=  1823
 NBsUse=  1823 1.00D-06 EigRej= -1.00D+00 NBFU=  1823
 ExpMin= 4.20D-02 ExpMax= 3.01D+05 ExpMxC= 2.91D+03 IAcc=3 IRadAn=         5 AccDes= 0.00D+00
 Harris functional with IExCor= 1009 and IRadAn=       5 diagonalized for initial guess.
 HarFok:  IExCor= 1009 AccDes= 0.00D+00 IRadAn=         5 IDoV= 1 UseB2=F ITyADJ=14
 ICtDFT=  3500011 ScaDFX=  1.000000  1.000000  1.000000  1.000000
 FoFCou: FMM=F IPFlag=           0 FMFlag=      100000 FMFlg1=        2001
         NFxFlg=           0 DoJE=T BraDBF=F KetDBF=T FulRan=T
         wScrn=  0.000000 ICntrl=       500 IOpCl=  0 I1Cent=   200000004 NGrid=           0
         NMat0=    1 NMatS0=      1 NMatT0=    0 NMatD0=    1 NMtDS0=    0 NMtDT0=    0
 Petite list used in FoFCou.
 Initial guess <Sx>= 0.0000 <Sy>= 0.0000 <Sz>= 2.5000 <S**2>= 8.7500 S= 2.5000
 Requested convergence on RMS density matrix=1.00D-08 within 999 cycles.
 Requested convergence on MAX density matrix=1.00D-06.
 Requested convergence on             energy=1.00D-06.
 No special actions if energy rises.
 EnCoef did     3 forward-backward iterations
 EnCoef did   100 forward-backward iterations
 EnCoef did     5 forward-backward iterations
 EnCoef did     2 forward-backward iterations
 EnCoef did   100 forward-backward iterations
 EnCoef did     4 forward-backward iterations
 Restarting incremental Fock formation.
 Restarting incremental Fock formation.
 Restarting incremental Fock formation.
 SCF Done:  E(UPBE1PBE) =  -3512.26535314     A.U. after   79 cycles
            NFock= 79  Conv=0.25D-08     -V/T= 2.0032
 <Sx>= 0.0000 <Sy>= 0.0000 <Sz>= 2.5000 <S**2>= 8.9372 S= 2.5310
 <L.S>= 0.000000000000E+00
 Annihilation of the first spin contaminant:
 S**2 before annihilation     8.9372,   after     8.7565

 **********************************************************************

            Population analysis using the SCF density.

 **********************************************************************

 Orbital symmetries:
 Alpha Orbitals:
       Occupied  (A) (A) (A) (A) (A) (A) (A) (A) (A) (A) (A) (A)
                 (A) (A) (A) (A) (A) (A) (A) (A) (A) (A) (A) (A)
                 (A) (A) (A) (A) (A) (A) (A) (A) (A) (A) (A) (A)
                 (A) (A) (A) (A) (A) (A) (A) (A) (A) (A) (A) (A)
                 (A) (A) (A) (A) (A) (A) (A) (A) (A) (A) (A) (A)
                 (A) (A) (A) (A) (A) (A) (A) (A) (A) (A) (A) (A)
                 (A) (A) (A) (A) (A) (A) (A) (A) (A) (A) (A) (A)
                 (A) (A) (A) (A) (A) (A) (A) (A) (A) (A) (A) (A)
                 (A) (A) (A) (A) (A) (A) (A) (A) (A) (A) (A) (A)
                 (A) (A) (A) (A) (A) (A) (A) (A) (A) (A) (A) (A)
                 (A) (A) (A) (A) (A) (A) (A) (A) (A) (A) (A) (A)
                 (A) (A) (A) (A) (A) (A) (A) (A) (A) (A) (A) (A)
                 (A) (A) (A) (A) (A) (A) (A) (A) (A) (A) (A) (A)
                 (A) (A) (A) (A) (A) (A) (A) (A) (A) (A) (A) (A)
                 (A) (A) (A) (A) (A) (A) (A) (A) (A) (A) (A) (A)
                 (A) (A) (A) (A) (A) (A) (A) (A) (A) (A) (A) (A)
                 (A)
       Virtual   (A) (A) (A) (A) (A) (A) (A) (A) (A) (A) (A) (A)
                 (A) (A) (A) (A) (A) (A) (A) (A) (A) (A) (A) (A)
                 (A) (A) (A) (A) (A) (A) (A) (A) (A) (A) (A) (A)
                 (A) (A) (A) (A) (A) (A) (A) (A) (A) (A) (A) (A)
                 (A) (A) (A) (A) (A) (A) (A) (A) (A) (A) (A) (A)
                 (A) (A) (A) (A) (A) (A) (A) (A) (A) (A) (A) (A)
                 (A) (A) (A) (A) (A) (A) (A) (A) (A) (A) (A) (A)
                 (A) (A) (A) (A) (A) (A) (A) (A) (A) (A) (A) (A)
                 (A) (A) (A) (A) (A) (A) (A) (A) (A) (A) (A) (A)
                 (A) (A) (A) (A) (A) (A) (A) (A) (A) (A) (A) (A)
                 (A) (A) (A) (A) (A) (A) (A) (A) (A) (A) (A) (A)
                 (A) (A) (A) (A) (A) (A) (A) (A) (A) (A) (A) (A)
                 (A) (A) (A) (A) (A) (A) (A) (A) (A) (A) (A) (A)
                 (A) (A) (A) (A) (A) (A) (A) (A) (A) (A) (A) (A)
                 (A) (A) (A) (A) (A) (A) (A) (A) (A) (A) (A) (A)
                 (A) (A) (A) (A) (A) (A) (A) (A) (A) (A) (A) (A)
                 (A) (A) (A) (A) (A) (A) (A) (A) (A) (A) (A) (A)
                 (A) (A) (A) (A) (A) (A) (A) (A) (A) (A) (A) (A)
                 (A) (A) (A) (A) (A) (A) (A) (A) (A) (A) (A) (A)
                 (A) (A) (A) (A) (A) (A) (A) (A) (A) (A) (A) (A)
                 (A) (A) (A) (A) (A) (A) (A) (A) (A) (A) (A) (A)
                 (A) (A) (A) (A) (A) (A) (A) (A) (A) (A) (A) (A)
                 (A) (A) (A) (A) (A) (A) (A) (A) (A) (A) (A) (A)
                 (A) (A) (A) (A) (A) (A) (A) (A) (A) (A) (A) (A)
                 (A) (A) (A) (A) (A) (A) (A) (A) (A) (A) (A) (A)
                 (A) (A) (A) (A) (A) (A) (A) (A) (A) (A) (A) (A)
                 (A) (A) (A) (A) (A) (A) (A) (A) (A) (A) (A) (A)
                 (A) (A) (A) (A) (A) (A) (A) (A) (A) (A) (A) (A)
                 (A) (A) (A) (A) (A) (A) (A) (A) (A) (A) (A) (A)
                 (A) (A) (A) (A) (A) (A) (A) (A) (A) (A) (A) (A)
                 (A) (A) (A) (A) (A) (A) (A) (A) (A) (A) (A) (A)
                 (A) (A) (A) (A) (A) (A) (A) (A) (A) (A) (A) (A)
                 (A) (A) (A) (A) (A) (A) (A) (A) (A) (A) (A) (A)
                 (A) (A) (A) (A) (A) (A) (A) (A) (A) (A) (A) (A)
                 (A) (A) (A) (A) (A) (A) (A) (A) (A) (A) (A) (A)
                 (A) (A) (A) (A) (A) (A) (A) (A) (A) (A) (A) (A)
                 (A) (A) (A) (A) (A) (A) (A) (A) (A) (A) (A) (A)
                 (A) (A) (A) (A) (A) (A) (A) (A) (A) (A) (A) (A)
                 (A) (A) (A) (A) (A) (A) (A) (A) (A) (A) (A) (A)
                 (A) (A) (A) (A) (A) (A) (A) (A) (A) (A) (A) (A)
                 (A) (A) (A) (A) (A) (A) (A) (A) (A) (A) (A) (A)
                 (A) (A) (A) (A) (A) (A) (A) (A) (A) (A) (A) (A)
                 (A) (A) (A) (A) (A) (A) (A) (A) (A) (A) (A) (A)
                 (A) (A) (A) (A) (A) (A) (A) (A) (A) (A) (A) (A)
                 (A) (A) (A) (A) (A) (A) (A) (A) (A) (A) (A) (A)
                 (A) (A) (A) (A) (A) (A) (A) (A) (A) (A) (A) (A)
                 (A) (A) (A) (A) (A) (A) (A) (A) (A) (A) (A) (A)
                 (A) (A) (A) (A) (A) (A) (A) (A) (A) (A) (A) (A)
                 (A) (A) (A) (A) (A) (A) (A) (A) (A) (A) (A) (A)
                 (A) (A) (A) (A) (A) (A) (A) (A) (A) (A) (A) (A)
                 (A) (A) (A) (A) (A) (A) (A) (A) (A) (A) (A) (A)
                 (A) (A) (A) (A) (A) (A) (A) (A) (A) (A) (A) (A)
                 (A) (A) (A) (A) (A) (A) (A) (A) (A) (A) (A) (A)
                 (A) (A) (A) (A) (A) (A) (A) (A) (A) (A) (A) (A)
                 (A) (A) (A) (A) (A) (A) (A) (A) (A) (A) (A) (A)
                 (A) (A) (A) (A) (A) (A) (A) (A) (A) (A) (A) (A)
                 (A) (A) (A) (A) (A) (A) (A) (A) (A) (A) (A) (A)
                 (A) (A) (A) (A) (A) (A) (A) (A) (A) (A) (A) (A)
                 (A) (A) (A) (A) (A) (A) (A) (A) (A) (A) (A) (A)
                 (A) (A) (A) (A) (A) (A) (A) (A) (A) (A) (A) (A)
                 (A) (A) (A) (A) (A) (A) (A) (A) (A) (A) (A) (A)
                 (A) (A) (A) (A) (A) (A) (A) (A) (A) (A) (A) (A)
                 (A) (A) (A) (A) (A) (A) (A) (A) (A) (A) (A) (A)
                 (A) (A) (A) (A) (A) (A) (A) (A) (A) (A) (A) (A)
                 (A) (A) (A) (A) (A) (A) (A) (A) (A) (A) (A) (A)
                 (A) (A) (A) (A) (A) (A) (A) (A) (A) (A) (A) (A)
                 (A) (A) (A) (A) (A) (A) (A) (A) (A) (A) (A) (A)
                 (A) (A) (A) (A) (A) (A) (A) (A) (A) (A) (A) (A)
                 (A) (A) (A) (A) (A) (A) (A) (A) (A) (A) (A) (A)
                 (A) (A) (A) (A) (A) (A) (A) (A) (A) (A) (A) (A)
                 (A) (A) (A) (A) (A) (A) (A) (A) (A) (A) (A) (A)
                 (A) (A) (A) (A) (A) (A) (A) (A) (A) (A) (A) (A)
                 (A) (A) (A) (A) (A) (A) (A) (A) (A) (A) (A) (A)
                 (A) (A) (A) (A) (A) (A) (A) (A) (A) (A) (A) (A)
                 (A) (A) (A) (A) (A) (A) (A) (A) (A) (A) (A) (A)
                 (A) (A) (A) (A) (A) (A) (A) (A) (A) (A) (A) (A)
                 (A) (A) (A) (A) (A) (A) (A) (A) (A) (A) (A) (A)
                 (A) (A) (A) (A) (A) (A) (A) (A) (A) (A) (A) (A)
                 (A) (A) (A) (A) (A) (A) (A) (A) (A) (A) (A) (A)
                 (A) (A) (A) (A) (A) (A) (A) (A) (A) (A) (A) (A)
                 (A) (A) (A) (A) (A) (A) (A) (A) (A) (A) (A) (A)
                 (A) (A) (A) (A) (A) (A) (A) (A) (A) (A) (A) (A)
                 (A) (A) (A) (A) (A) (A) (A) (A) (A) (A) (A) (A)
                 (A) (A) (A) (A) (A) (A) (A) (A) (A) (A) (A) (A)
                 (A) (A) (A) (A) (A) (A) (A) (A) (A) (A) (A) (A)
                 (A) (A) (A) (A) (A) (A) (A) (A) (A) (A) (A) (A)
                 (A) (A) (A) (A) (A) (A) (A) (A) (A) (A) (A) (A)
                 (A) (A) (A) (A) (A) (A) (A) (A) (A) (A) (A) (A)
                 (A) (A) (A) (A) (A) (A) (A) (A) (A) (A) (A) (A)
                 (A) (A) (A) (A) (A) (A) (A) (A) (A) (A) (A) (A)
                 (A) (A) (A) (A) (A) (A) (A) (A) (A) (A) (A) (A)
                 (A) (A) (A) (A) (A) (A) (A) (A) (A) (A) (A) (A)
                 (A) (A) (A) (A) (A) (A) (A) (A) (A) (A) (A) (A)
                 (A) (A) (A) (A) (A) (A) (A) (A) (A) (A) (A) (A)
                 (A) (A) (A) (A) (A) (A) (A) (A) (A) (A) (A) (A)
                 (A) (A) (A) (A) (A) (A) (A) (A) (A) (A) (A) (A)
                 (A) (A) (A) (A) (A) (A) (A) (A) (A) (A) (A) (A)
                 (A) (A) (A) (A) (A) (A) (A) (A) (A) (A) (A) (A)
                 (A) (A) (A) (A) (A) (A) (A) (A) (A) (A) (A) (A)
                 (A) (A) (A) (A) (A) (A) (A) (A) (A) (A) (A) (A)
                 (A) (A) (A) (A) (A) (A) (A) (A) (A) (A) (A) (A)
                 (A) (A) (A) (A) (A) (A) (A) (A) (A) (A) (A) (A)
                 (A) (A) (A) (A) (A) (A) (A) (A) (A) (A) (A) (A)
                 (A) (A) (A) (A) (A) (A) (A) (A) (A) (A) (A) (A)
                 (A) (A) (A) (A) (A) (A) (A) (A) (A) (A) (A) (A)
                 (A) (A) (A) (A) (A) (A) (A) (A) (A) (A) (A) (A)
                 (A) (A) (A) (A) (A) (A) (A) (A) (A) (A) (A) (A)
                 (A) (A) (A) (A) (A) (A) (A) (A) (A) (A) (A) (A)
                 (A) (A) (A) (A) (A) (A) (A) (A) (A) (A) (A) (A)
                 (A) (A) (A) (A) (A) (A) (A) (A) (A) (A) (A) (A)
                 (A) (A) (A) (A) (A) (A) (A) (A) (A) (A) (A) (A)
                 (A) (A) (A) (A) (A) (A) (A) (A) (A) (A) (A) (A)
                 (A) (A) (A) (A) (A) (A) (A) (A) (A) (A) (A) (A)
                 (A) (A) (A) (A) (A) (A) (A) (A) (A) (A) (A) (A)
                 (A) (A) (A) (A) (A) (A) (A) (A) (A) (A) (A) (A)
                 (A) (A) (A) (A) (A) (A) (A) (A) (A) (A) (A) (A)
                 (A) (A) (A) (A) (A) (A) (A) (A) (A) (A) (A) (A)
                 (A) (A) (A) (A) (A) (A) (A) (A) (A) (A) (A) (A)
                 (A) (A) (A) (A) (A) (A) (A) (A) (A) (A) (A) (A)
                 (A) (A) (A) (A) (A) (A) (A) (A) (A) (A) (A) (A)
                 (A) (A) (A) (A) (A) (A) (A) (A) (A) (A) (A) (A)
                 (A) (A) (A) (A) (A) (A) (A) (A) (A) (A) (A) (A)
                 (A) (A) (A) (A) (A) (A) (A) (A) (A) (A) (A) (A)
                 (A) (A) (A) (A) (A) (A) (A) (A) (A) (A) (A) (A)
                 (A) (A) (A) (A) (A) (A) (A) (A) (A) (A) (A) (A)
                 (A) (A) (A) (A) (A) (A) (A) (A) (A) (A) (A) (A)
                 (A) (A) (A) (A) (A) (A) (A) (A) (A) (A) (A) (A)
                 (A) (A) (A) (A) (A) (A) (A) (A) (A) (A) (A) (A)
                 (A) (A) (A) (A) (A) (A) (A) (A) (A) (A) (A) (A)
                 (A) (A) (A) (A) (A) (A) (A) (A) (A) (A) (A) (A)
                 (A) (A) (A) (A) (A) (A) (A) (A) (A) (A) (A) (A)
                 (A) (A) (A) (A) (A) (A) (A) (A) (A) (A) (A) (A)
                 (A) (A) (A) (A) (A) (A) (A) (A) (A) (A) (A) (A)
                 (A) (A) (A) (A) (A) (A) (A) (A) (A) (A) (A) (A)
                 (A) (A) (A) (A) (A) (A) (A) (A) (A) (A) (A) (A)
                 (A) (A) (A) (A) (A) (A) (A) (A) (A) (A)
 Beta  Orbitals:
       Occupied  (A) (A) (A) (A) (A) (A) (A) (A) (A) (A) (A) (A)
                 (A) (A) (A) (A) (A) (A) (A) (A) (A) (A) (A) (A)
                 (A) (A) (A) (A) (A) (A) (A) (A) (A) (A) (A) (A)
                 (A) (A) (A) (A) (A) (A) (A) (A) (A) (A) (A) (A)
                 (A) (A) (A) (A) (A) (A) (A) (A) (A) (A) (A) (A)
                 (A) (A) (A) (A) (A) (A) (A) (A) (A) (A) (A) (A)
                 (A) (A) (A) (A) (A) (A) (A) (A) (A) (A) (A) (A)
                 (A) (A) (A) (A) (A) (A) (A) (A) (A) (A) (A) (A)
                 (A) (A) (A) (A) (A) (A) (A) (A) (A) (A) (A) (A)
                 (A) (A) (A) (A) (A) (A) (A) (A) (A) (A) (A) (A)
                 (A) (A) (A) (A) (A) (A) (A) (A) (A) (A) (A) (A)
                 (A) (A) (A) (A) (A) (A) (A) (A) (A) (A) (A) (A)
                 (A) (A) (A) (A) (A) (A) (A) (A) (A) (A) (A) (A)
                 (A) (A) (A) (A) (A) (A) (A) (A) (A) (A) (A) (A)
                 (A) (A) (A) (A) (A) (A) (A) (A) (A) (A) (A) (A)
                 (A) (A) (A) (A) (A) (A) (A) (A)
       Virtual   (A) (A) (A) (A) (A) (A) (A) (A) (A) (A) (A) (A)
                 (A) (A) (A) (A) (A) (A) (A) (A) (A) (A) (A) (A)
                 (A) (A) (A) (A) (A) (A) (A) (A) (A) (A) (A) (A)
                 (A) (A) (A) (A) (A) (A) (A) (A) (A) (A) (A) (A)
                 (A) (A) (A) (A) (A) (A) (A) (A) (A) (A) (A) (A)
                 (A) (A) (A) (A) (A) (A) (A) (A) (A) (A) (A) (A)
                 (A) (A) (A) (A) (A) (A) (A) (A) (A) (A) (A) (A)
                 (A) (A) (A) (A) (A) (A) (A) (A) (A) (A) (A) (A)
                 (A) (A) (A) (A) (A) (A) (A) (A) (A) (A) (A) (A)
                 (A) (A) (A) (A) (A) (A) (A) (A) (A) (A) (A) (A)
                 (A) (A) (A) (A) (A) (A) (A) (A) (A) (A) (A) (A)
                 (A) (A) (A) (A) (A) (A) (A) (A) (A) (A) (A) (A)
                 (A) (A) (A) (A) (A) (A) (A) (A) (A) (A) (A) (A)
                 (A) (A) (A) (A) (A) (A) (A) (A) (A) (A) (A) (A)
                 (A) (A) (A) (A) (A) (A) (A) (A) (A) (A) (A) (A)
                 (A) (A) (A) (A) (A) (A) (A) (A) (A) (A) (A) (A)
                 (A) (A) (A) (A) (A) (A) (A) (A) (A) (A) (A) (A)
                 (A) (A) (A) (A) (A) (A) (A) (A) (A) (A) (A) (A)
                 (A) (A) (A) (A) (A) (A) (A) (A) (A) (A) (A) (A)
                 (A) (A) (A) (A) (A) (A) (A) (A) (A) (A) (A) (A)
                 (A) (A) (A) (A) (A) (A) (A) (A) (A) (A) (A) (A)
                 (A) (A) (A) (A) (A) (A) (A) (A) (A) (A) (A) (A)
                 (A) (A) (A) (A) (A) (A) (A) (A) (A) (A) (A) (A)
                 (A) (A) (A) (A) (A) (A) (A) (A) (A) (A) (A) (A)
                 (A) (A) (A) (A) (A) (A) (A) (A) (A) (A) (A) (A)
                 (A) (A) (A) (A) (A) (A) (A) (A) (A) (A) (A) (A)
                 (A) (A) (A) (A) (A) (A) (A) (A) (A) (A) (A) (A)
                 (A) (A) (A) (A) (A) (A) (A) (A) (A) (A) (A) (A)
                 (A) (A) (A) (A) (A) (A) (A) (A) (A) (A) (A) (A)
                 (A) (A) (A) (A) (A) (A) (A) (A) (A) (A) (A) (A)
                 (A) (A) (A) (A) (A) (A) (A) (A) (A) (A) (A) (A)
                 (A) (A) (A) (A) (A) (A) (A) (A) (A) (A) (A) (A)
                 (A) (A) (A) (A) (A) (A) (A) (A) (A) (A) (A) (A)
                 (A) (A) (A) (A) (A) (A) (A) (A) (A) (A) (A) (A)
                 (A) (A) (A) (A) (A) (A) (A) (A) (A) (A) (A) (A)
                 (A) (A) (A) (A) (A) (A) (A) (A) (A) (A) (A) (A)
                 (A) (A) (A) (A) (A) (A) (A) (A) (A) (A) (A) (A)
                 (A) (A) (A) (A) (A) (A) (A) (A) (A) (A) (A) (A)
                 (A) (A) (A) (A) (A) (A) (A) (A) (A) (A) (A) (A)
                 (A) (A) (A) (A) (A) (A) (A) (A) (A) (A) (A) (A)
                 (A) (A) (A) (A) (A) (A) (A) (A) (A) (A) (A) (A)
                 (A) (A) (A) (A) (A) (A) (A) (A) (A) (A) (A) (A)
                 (A) (A) (A) (A) (A) (A) (A) (A) (A) (A) (A) (A)
                 (A) (A) (A) (A) (A) (A) (A) (A) (A) (A) (A) (A)
                 (A) (A) (A) (A) (A) (A) (A) (A) (A) (A) (A) (A)
                 (A) (A) (A) (A) (A) (A) (A) (A) (A) (A) (A) (A)
                 (A) (A) (A) (A) (A) (A) (A) (A) (A) (A) (A) (A)
                 (A) (A) (A) (A) (A) (A) (A) (A) (A) (A) (A) (A)
                 (A) (A) (A) (A) (A) (A) (A) (A) (A) (A) (A) (A)
                 (A) (A) (A) (A) (A) (A) (A) (A) (A) (A) (A) (A)
                 (A) (A) (A) (A) (A) (A) (A) (A) (A) (A) (A) (A)
                 (A) (A) (A) (A) (A) (A) (A) (A) (A) (A) (A) (A)
                 (A) (A) (A) (A) (A) (A) (A) (A) (A) (A) (A) (A)
                 (A) (A) (A) (A) (A) (A) (A) (A) (A) (A) (A) (A)
                 (A) (A) (A) (A) (A) (A) (A) (A) (A) (A) (A) (A)
                 (A) (A) (A) (A) (A) (A) (A) (A) (A) (A) (A) (A)
                 (A) (A) (A) (A) (A) (A) (A) (A) (A) (A) (A) (A)
                 (A) (A) (A) (A) (A) (A) (A) (A) (A) (A) (A) (A)
                 (A) (A) (A) (A) (A) (A) (A) (A) (A) (A) (A) (A)
                 (A) (A) (A) (A) (A) (A) (A) (A) (A) (A) (A) (A)
                 (A) (A) (A) (A) (A) (A) (A) (A) (A) (A) (A) (A)
                 (A) (A) (A) (A) (A) (A) (A) (A) (A) (A) (A) (A)
                 (A) (A) (A) (A) (A) (A) (A) (A) (A) (A) (A) (A)
                 (A) (A) (A) (A) (A) (A) (A) (A) (A) (A) (A) (A)
                 (A) (A) (A) (A) (A) (A) (A) (A) (A) (A) (A) (A)
                 (A) (A) (A) (A) (A) (A) (A) (A) (A) (A) (A) (A)
                 (A) (A) (A) (A) (A) (A) (A) (A) (A) (A) (A) (A)
                 (A) (A) (A) (A) (A) (A) (A) (A) (A) (A) (A) (A)
                 (A) (A) (A) (A) (A) (A) (A) (A) (A) (A) (A) (A)
                 (A) (A) (A) (A) (A) (A) (A) (A) (A) (A) (A) (A)
                 (A) (A) (A) (A) (A) (A) (A) (A) (A) (A) (A) (A)
                 (A) (A) (A) (A) (A) (A) (A) (A) (A) (A) (A) (A)
                 (A) (A) (A) (A) (A) (A) (A) (A) (A) (A) (A) (A)
                 (A) (A) (A) (A) (A) (A) (A) (A) (A) (A) (A) (A)
                 (A) (A) (A) (A) (A) (A) (A) (A) (A) (A) (A) (A)
                 (A) (A) (A) (A) (A) (A) (A) (A) (A) (A) (A) (A)
                 (A) (A) (A) (A) (A) (A) (A) (A) (A) (A) (A) (A)
                 (A) (A) (A) (A) (A) (A) (A) (A) (A) (A) (A) (A)
                 (A) (A) (A) (A) (A) (A) (A) (A) (A) (A) (A) (A)
                 (A) (A) (A) (A) (A) (A) (A) (A) (A) (A) (A) (A)
                 (A) (A) (A) (A) (A) (A) (A) (A) (A) (A) (A) (A)
                 (A) (A) (A) (A) (A) (A) (A) (A) (A) (A) (A) (A)
                 (A) (A) (A) (A) (A) (A) (A) (A) (A) (A) (A) (A)
                 (A) (A) (A) (A) (A) (A) (A) (A) (A) (A) (A) (A)
                 (A) (A) (A) (A) (A) (A) (A) (A) (A) (A) (A) (A)
                 (A) (A) (A) (A) (A) (A) (A) (A) (A) (A) (A) (A)
                 (A) (A) (A) (A) (A) (A) (A) (A) (A) (A) (A) (A)
                 (A) (A) (A) (A) (A) (A) (A) (A) (A) (A) (A) (A)
                 (A) (A) (A) (A) (A) (A) (A) (A) (A) (A) (A) (A)
                 (A) (A) (A) (A) (A) (A) (A) (A) (A) (A) (A) (A)
                 (A) (A) (A) (A) (A) (A) (A) (A) (A) (A) (A) (A)
                 (A) (A) (A) (A) (A) (A) (A) (A) (A) (A) (A) (A)
                 (A) (A) (A) (A) (A) (A) (A) (A) (A) (A) (A) (A)
                 (A) (A) (A) (A) (A) (A) (A) (A) (A) (A) (A) (A)
                 (A) (A) (A) (A) (A) (A) (A) (A) (A) (A) (A) (A)
                 (A) (A) (A) (A) (A) (A) (A) (A) (A) (A) (A) (A)
                 (A) (A) (A) (A) (A) (A) (A) (A) (A) (A) (A) (A)
                 (A) (A) (A) (A) (A) (A) (A) (A) (A) (A) (A) (A)
                 (A) (A) (A) (A) (A) (A) (A) (A) (A) (A) (A) (A)
                 (A) (A) (A) (A) (A) (A) (A) (A) (A) (A) (A) (A)
                 (A) (A) (A) (A) (A) (A) (A) (A) (A) (A) (A) (A)
                 (A) (A) (A) (A) (A) (A) (A) (A) (A) (A) (A) (A)
                 (A) (A) (A) (A) (A) (A) (A) (A) (A) (A) (A) (A)
                 (A) (A) (A) (A) (A) (A) (A) (A) (A) (A) (A) (A)
                 (A) (A) (A) (A) (A) (A) (A) (A) (A) (A) (A) (A)
                 (A) (A) (A) (A) (A) (A) (A) (A) (A) (A) (A) (A)
                 (A) (A) (A) (A) (A) (A) (A) (A) (A) (A) (A) (A)
                 (A) (A) (A) (A) (A) (A) (A) (A) (A) (A) (A) (A)
                 (A) (A) (A) (A) (A) (A) (A) (A) (A) (A) (A) (A)
                 (A) (A) (A) (A) (A) (A) (A) (A) (A) (A) (A) (A)
                 (A) (A) (A) (A) (A) (A) (A) (A) (A) (A) (A) (A)
                 (A) (A) (A) (A) (A) (A) (A) (A) (A) (A) (A) (A)
                 (A) (A) (A) (A) (A) (A) (A) (A) (A) (A) (A) (A)
                 (A) (A) (A) (A) (A) (A) (A) (A) (A) (A) (A) (A)
                 (A) (A) (A) (A) (A) (A) (A) (A) (A) (A) (A) (A)
                 (A) (A) (A) (A) (A) (A) (A) (A) (A) (A) (A) (A)
                 (A) (A) (A) (A) (A) (A) (A) (A) (A) (A) (A) (A)
                 (A) (A) (A) (A) (A) (A) (A) (A) (A) (A) (A) (A)
                 (A) (A) (A) (A) (A) (A) (A) (A) (A) (A) (A) (A)
                 (A) (A) (A) (A) (A) (A) (A) (A) (A) (A) (A) (A)
                 (A) (A) (A) (A) (A) (A) (A) (A) (A) (A) (A) (A)
                 (A) (A) (A) (A) (A) (A) (A) (A) (A) (A) (A) (A)
                 (A) (A) (A) (A) (A) (A) (A) (A) (A) (A) (A) (A)
                 (A) (A) (A) (A) (A) (A) (A) (A) (A) (A) (A) (A)
                 (A) (A) (A) (A) (A) (A) (A) (A) (A) (A) (A) (A)
                 (A) (A) (A) (A) (A) (A) (A) (A) (A) (A) (A) (A)
                 (A) (A) (A) (A) (A) (A) (A) (A) (A) (A) (A) (A)
                 (A) (A) (A) (A) (A) (A) (A) (A) (A) (A) (A) (A)
                 (A) (A) (A) (A) (A) (A) (A) (A) (A) (A) (A) (A)
                 (A) (A) (A) (A) (A) (A) (A) (A) (A) (A) (A) (A)
                 (A) (A) (A) (A) (A) (A) (A) (A) (A) (A) (A) (A)
                 (A) (A) (A) (A) (A) (A) (A) (A) (A) (A) (A) (A)
                 (A) (A) (A) (A) (A) (A) (A) (A) (A) (A) (A) (A)
                 (A) (A) (A) (A) (A) (A) (A) (A) (A) (A) (A) (A)
                 (A) (A) (A) (A) (A) (A) (A) (A) (A) (A) (A) (A)
                 (A) (A) (A) (A) (A) (A) (A) (A) (A) (A) (A) (A)
                 (A) (A) (A)
 The electronic state is 6-A.
 Alpha  occ. eigenvalues -- -256.53513 -30.32461 -26.15600 -26.14838 -26.13772
 Alpha  occ. eigenvalues --  -19.46291 -19.45531 -19.35245 -19.32647 -19.26723
 Alpha  occ. eigenvalues --  -19.25345 -14.54604 -14.51408 -14.50202 -14.50188
 Alpha  occ. eigenvalues --  -14.49977 -14.49706 -10.44001 -10.42671 -10.38494
 Alpha  occ. eigenvalues --  -10.37167 -10.36849 -10.36748 -10.36576 -10.36476
 Alpha  occ. eigenvalues --  -10.36475 -10.36397 -10.36071 -10.36060 -10.34228
 Alpha  occ. eigenvalues --  -10.33716 -10.33509 -10.33368 -10.33365 -10.33359
 Alpha  occ. eigenvalues --  -10.33344 -10.33273 -10.33180 -10.33085 -10.33033
 Alpha  occ. eigenvalues --  -10.32993 -10.32901 -10.32828 -10.32732 -10.32631
 Alpha  occ. eigenvalues --  -10.32514 -10.32433 -10.31691 -10.31664 -10.30922
 Alpha  occ. eigenvalues --  -10.30920 -10.30512 -10.30441 -10.30387 -10.29835
 Alpha  occ. eigenvalues --   -3.68291  -2.45796  -2.43975  -2.41722  -1.41524
 Alpha  occ. eigenvalues --   -1.24791  -1.23419  -1.17063  -1.11989  -1.10567
 Alpha  occ. eigenvalues --   -1.09539  -1.09469  -1.09210  -1.08187  -1.02716
 Alpha  occ. eigenvalues --   -0.98752  -0.95389  -0.95179  -0.94601  -0.93917
 Alpha  occ. eigenvalues --   -0.93336  -0.92744  -0.92327  -0.90756  -0.90091
 Alpha  occ. eigenvalues --   -0.89122  -0.88895  -0.87028  -0.86944  -0.84842
 Alpha  occ. eigenvalues --   -0.83033  -0.82709  -0.82628  -0.82063  -0.80226
 Alpha  occ. eigenvalues --   -0.79211  -0.78761  -0.77190  -0.76870  -0.75854
 Alpha  occ. eigenvalues --   -0.74989  -0.73904  -0.72795  -0.72222  -0.70861
 Alpha  occ. eigenvalues --   -0.70689  -0.69745  -0.69527  -0.68054  -0.67207
 Alpha  occ. eigenvalues --   -0.67132  -0.66867  -0.65998  -0.65464  -0.65066
 Alpha  occ. eigenvalues --   -0.63917  -0.63441  -0.63323  -0.62353  -0.61172
 Alpha  occ. eigenvalues --   -0.60765  -0.59826  -0.59696  -0.58852  -0.58401
 Alpha  occ. eigenvalues --   -0.58248  -0.57636  -0.57510  -0.57174  -0.56926
 Alpha  occ. eigenvalues --   -0.56614  -0.56049  -0.55594  -0.55507  -0.55148
 Alpha  occ. eigenvalues --   -0.55014  -0.54891  -0.54454  -0.54213  -0.54164
 Alpha  occ. eigenvalues --   -0.53905  -0.53839  -0.53113  -0.53026  -0.52831
 Alpha  occ. eigenvalues --   -0.52699  -0.52668  -0.52183  -0.51827  -0.51652
 Alpha  occ. eigenvalues --   -0.51620  -0.51480  -0.51251  -0.51089  -0.50655
 Alpha  occ. eigenvalues --   -0.50268  -0.50018  -0.49872  -0.49456  -0.49292
 Alpha  occ. eigenvalues --   -0.49125  -0.48948  -0.48684  -0.48236  -0.48108
 Alpha  occ. eigenvalues --   -0.47599  -0.47478  -0.47139  -0.47027  -0.46657
 Alpha  occ. eigenvalues --   -0.46330  -0.46125  -0.45754  -0.44857  -0.44412
 Alpha  occ. eigenvalues --   -0.44010  -0.43628  -0.43328  -0.43051  -0.42676
 Alpha  occ. eigenvalues --   -0.41614  -0.41343  -0.40357  -0.40282  -0.40142
 Alpha  occ. eigenvalues --   -0.39858  -0.38414  -0.37550  -0.36826  -0.35430
 Alpha  occ. eigenvalues --   -0.34920  -0.34588  -0.34488  -0.32737  -0.31933
 Alpha  occ. eigenvalues --   -0.31151  -0.30920  -0.27525
 Alpha virt. eigenvalues --   -0.18771  -0.18012  -0.17129  -0.16318  -0.12675
 Alpha virt. eigenvalues --   -0.10121  -0.09288  -0.08567  -0.07858  -0.07796
 Alpha virt. eigenvalues --   -0.06681  -0.05709  -0.05346  -0.04264  -0.04128
 Alpha virt. eigenvalues --   -0.03879  -0.03472  -0.03152  -0.02470  -0.02277
 Alpha virt. eigenvalues --   -0.01810  -0.01350  -0.01150  -0.00921  -0.00759
 Alpha virt. eigenvalues --   -0.00137   0.00132   0.00469   0.00526   0.00915
 Alpha virt. eigenvalues --    0.01259   0.01533   0.01828   0.01973   0.02251
 Alpha virt. eigenvalues --    0.02359   0.02491   0.02973   0.03224   0.03587
 Alpha virt. eigenvalues --    0.03976   0.04128   0.04405   0.04458   0.04543
 Alpha virt. eigenvalues --    0.04894   0.05062   0.05230   0.05400   0.05492
 Alpha virt. eigenvalues --    0.05759   0.05947   0.06039   0.06260   0.06353
 Alpha virt. eigenvalues --    0.06595   0.06718   0.06982   0.07414   0.07545
 Alpha virt. eigenvalues --    0.07687   0.07815   0.08239   0.08583   0.08714
 Alpha virt. eigenvalues --    0.08879   0.09377   0.09483   0.09548   0.09888
 Alpha virt. eigenvalues --    0.10092   0.10370   0.10588   0.10768   0.10937
 Alpha virt. eigenvalues --    0.11430   0.11453   0.11653   0.11915   0.11969
 Alpha virt. eigenvalues --    0.12210   0.12482   0.12825   0.13059   0.13167
 Alpha virt. eigenvalues --    0.13444   0.13496   0.13703   0.14133   0.14372
 Alpha virt. eigenvalues --    0.14720   0.14849   0.14972   0.15374   0.15529
 Alpha virt. eigenvalues --    0.15725   0.15822   0.16071   0.16289   0.16380
 Alpha virt. eigenvalues --    0.16766   0.16902   0.17164   0.17271   0.17528
 Alpha virt. eigenvalues --    0.17835   0.18245   0.18506   0.18700   0.19080
 Alpha virt. eigenvalues --    0.19170   0.19483   0.19695   0.20048   0.20138
 Alpha virt. eigenvalues --    0.20255   0.20438   0.20870   0.21019   0.21140
 Alpha virt. eigenvalues --    0.21461   0.21542   0.21940   0.22005   0.22327
 Alpha virt. eigenvalues --    0.22452   0.22690   0.23072   0.23433   0.23685
 Alpha virt. eigenvalues --    0.23782   0.23887   0.24472   0.24534   0.24927
 Alpha virt. eigenvalues --    0.25103   0.25429   0.25598   0.25729   0.25972
 Alpha virt. eigenvalues --    0.26070   0.26596   0.26703   0.26965   0.27150
 Alpha virt. eigenvalues --    0.27651   0.27797   0.28035   0.28165   0.28397
 Alpha virt. eigenvalues --    0.28623   0.28965   0.29094   0.29206   0.29398
 Alpha virt. eigenvalues --    0.29789   0.30275   0.30374   0.30652   0.30670
 Alpha virt. eigenvalues --    0.30980   0.31162   0.31209   0.31502   0.31690
 Alpha virt. eigenvalues --    0.31892   0.32165   0.32397   0.32729   0.32774
 Alpha virt. eigenvalues --    0.32975   0.33122   0.33312   0.33439   0.33697
 Alpha virt. eigenvalues --    0.33974   0.34213   0.34488   0.34626   0.34864
 Alpha virt. eigenvalues --    0.35141   0.35279   0.35334   0.35551   0.35734
 Alpha virt. eigenvalues --    0.35771   0.35987   0.36279   0.36558   0.36571
 Alpha virt. eigenvalues --    0.36944   0.37083   0.37438   0.37469   0.37514
 Alpha virt. eigenvalues --    0.37653   0.37754   0.38177   0.38228   0.38540
 Alpha virt. eigenvalues --    0.38593   0.38897   0.39003   0.39106   0.39191
 Alpha virt. eigenvalues --    0.39529   0.39731   0.39865   0.40117   0.40176
 Alpha virt. eigenvalues --    0.40313   0.40396   0.40799   0.41106   0.41133
 Alpha virt. eigenvalues --    0.41316   0.41471   0.41836   0.42074   0.42268
 Alpha virt. eigenvalues --    0.42397   0.42503   0.42743   0.43043   0.43321
 Alpha virt. eigenvalues --    0.43508   0.43594   0.43915   0.44071   0.44262
 Alpha virt. eigenvalues --    0.44572   0.44869   0.45066   0.45188   0.45505
 Alpha virt. eigenvalues --    0.45685   0.45851   0.46128   0.46485   0.46677
 Alpha virt. eigenvalues --    0.46715   0.46977   0.47370   0.47579   0.47697
 Alpha virt. eigenvalues --    0.47964   0.48023   0.48218   0.48505   0.48845
 Alpha virt. eigenvalues --    0.49162   0.49285   0.49473   0.49562   0.50045
 Alpha virt. eigenvalues --    0.50338   0.50495   0.50814   0.51300   0.51372
 Alpha virt. eigenvalues --    0.51552   0.51709   0.52020   0.52360   0.52444
 Alpha virt. eigenvalues --    0.52656   0.52958   0.53271   0.53527   0.53692
 Alpha virt. eigenvalues --    0.53868   0.54131   0.54190   0.54345   0.54886
 Alpha virt. eigenvalues --    0.54973   0.55357   0.55470   0.55756   0.56132
 Alpha virt. eigenvalues --    0.56269   0.56424   0.56676   0.56817   0.57000
 Alpha virt. eigenvalues --    0.57143   0.57279   0.57868   0.58008   0.58325
 Alpha virt. eigenvalues --    0.58657   0.59064   0.59108   0.59495   0.59843
 Alpha virt. eigenvalues --    0.60059   0.60274   0.60752   0.60864   0.61265
 Alpha virt. eigenvalues --    0.61421   0.61608   0.62082   0.62310   0.62357
 Alpha virt. eigenvalues --    0.62643   0.63194   0.63326   0.63446   0.63866
 Alpha virt. eigenvalues --    0.64231   0.64357   0.64745   0.65041   0.65285
 Alpha virt. eigenvalues --    0.65524   0.65813   0.66062   0.66467   0.66685
 Alpha virt. eigenvalues --    0.67160   0.67542   0.67854   0.68285   0.68577
 Alpha virt. eigenvalues --    0.68737   0.68995   0.69212   0.69593   0.70416
 Alpha virt. eigenvalues --    0.70521   0.70686   0.70874   0.71095   0.71727
 Alpha virt. eigenvalues --    0.72105   0.72281   0.72591   0.72908   0.73269
 Alpha virt. eigenvalues --    0.73744   0.74210   0.74576   0.74688   0.74866
 Alpha virt. eigenvalues --    0.75107   0.75406   0.75794   0.75807   0.76219
 Alpha virt. eigenvalues --    0.76702   0.77022   0.77287   0.77659   0.77803
 Alpha virt. eigenvalues --    0.77985   0.78730   0.78883   0.79040   0.79587
 Alpha virt. eigenvalues --    0.79841   0.80270   0.80433   0.81157   0.81397
 Alpha virt. eigenvalues --    0.81532   0.81773   0.82134   0.82487   0.82720
 Alpha virt. eigenvalues --    0.83098   0.83706   0.83893   0.84022   0.84331
 Alpha virt. eigenvalues --    0.84497   0.84609   0.85017   0.85149   0.85341
 Alpha virt. eigenvalues --    0.85553   0.85908   0.86099   0.86649   0.86827
 Alpha virt. eigenvalues --    0.86945   0.87439   0.87534   0.87816   0.88058
 Alpha virt. eigenvalues --    0.88166   0.88374   0.88797   0.89060   0.89340
 Alpha virt. eigenvalues --    0.89477   0.89623   0.90188   0.90537   0.90600
 Alpha virt. eigenvalues --    0.90736   0.90947   0.91559   0.91908   0.92228
 Alpha virt. eigenvalues --    0.92934   0.93129   0.93227   0.93683   0.93989
 Alpha virt. eigenvalues --    0.94216   0.94672   0.94791   0.95248   0.95329
 Alpha virt. eigenvalues --    0.95487   0.95773   0.96408   0.96788   0.97129
 Alpha virt. eigenvalues --    0.97579   0.98268   0.98652   0.99142   0.99396
 Alpha virt. eigenvalues --    0.99531   0.99737   1.00056   1.00213   1.00438
 Alpha virt. eigenvalues --    1.00846   1.01185   1.01818   1.01956   1.02473
 Alpha virt. eigenvalues --    1.02707   1.03195   1.04004   1.04150   1.04556
 Alpha virt. eigenvalues --    1.04857   1.05116   1.05732   1.05835   1.05884
 Alpha virt. eigenvalues --    1.06343   1.06744   1.06917   1.07729   1.07952
 Alpha virt. eigenvalues --    1.08056   1.08292   1.08795   1.09527   1.09578
 Alpha virt. eigenvalues --    1.10182   1.10416   1.10656   1.11090   1.11346
 Alpha virt. eigenvalues --    1.11966   1.12327   1.12777   1.13744   1.14006
 Alpha virt. eigenvalues --    1.14116   1.14387   1.14869   1.15145   1.15478
 Alpha virt. eigenvalues --    1.15918   1.16197   1.16594   1.17040   1.17413
 Alpha virt. eigenvalues --    1.17861   1.18038   1.18168   1.18645   1.18971
 Alpha virt. eigenvalues --    1.19538   1.19947   1.20140   1.20413   1.20795
 Alpha virt. eigenvalues --    1.20888   1.21747   1.21786   1.22450   1.22970
 Alpha virt. eigenvalues --    1.23120   1.23322   1.23796   1.24490   1.24497
 Alpha virt. eigenvalues --    1.24962   1.25012   1.25784   1.25985   1.26262
 Alpha virt. eigenvalues --    1.26521   1.27053   1.27196   1.27579   1.27741
 Alpha virt. eigenvalues --    1.28592   1.28923   1.29459   1.29591   1.29997
 Alpha virt. eigenvalues --    1.30613   1.30825   1.31981   1.32077   1.32425
 Alpha virt. eigenvalues --    1.32864   1.33478   1.33599   1.33762   1.34272
 Alpha virt. eigenvalues --    1.34448   1.34670   1.35413   1.35879   1.36433
 Alpha virt. eigenvalues --    1.36497   1.37094   1.37217   1.37624   1.38036
 Alpha virt. eigenvalues --    1.38313   1.38636   1.38737   1.38978   1.39342
 Alpha virt. eigenvalues --    1.39637   1.39929   1.40146   1.40813   1.41562
 Alpha virt. eigenvalues --    1.41872   1.42259   1.42434   1.42766   1.42916
 Alpha virt. eigenvalues --    1.43391   1.43623   1.43906   1.44482   1.44646
 Alpha virt. eigenvalues --    1.45133   1.45342   1.45371   1.45638   1.45985
 Alpha virt. eigenvalues --    1.46288   1.46354   1.46663   1.46819   1.47223
 Alpha virt. eigenvalues --    1.47361   1.47401   1.47687   1.48100   1.48229
 Alpha virt. eigenvalues --    1.48868   1.49208   1.49355   1.49827   1.50042
 Alpha virt. eigenvalues --    1.50226   1.50629   1.50909   1.51033   1.51498
 Alpha virt. eigenvalues --    1.51782   1.52164   1.52200   1.52395   1.52870
 Alpha virt. eigenvalues --    1.53184   1.53292   1.53608   1.53721   1.54119
 Alpha virt. eigenvalues --    1.54473   1.54709   1.54785   1.54999   1.55099
 Alpha virt. eigenvalues --    1.55639   1.55847   1.56045   1.56249   1.57062
 Alpha virt. eigenvalues --    1.57342   1.57700   1.57751   1.58389   1.58526
 Alpha virt. eigenvalues --    1.58849   1.58980   1.59091   1.59778   1.60062
 Alpha virt. eigenvalues --    1.60134   1.60865   1.61152   1.61487   1.61816
 Alpha virt. eigenvalues --    1.62015   1.62410   1.62620   1.63151   1.63165
 Alpha virt. eigenvalues --    1.63394   1.63822   1.64191   1.64683   1.64820
 Alpha virt. eigenvalues --    1.65271   1.65420   1.65700   1.65764   1.66236
 Alpha virt. eigenvalues --    1.66438   1.66824   1.67452   1.67732   1.68007
 Alpha virt. eigenvalues --    1.68708   1.69018   1.69752   1.69866   1.70200
 Alpha virt. eigenvalues --    1.70735   1.71176   1.71531   1.71859   1.72396
 Alpha virt. eigenvalues --    1.72448   1.73235   1.73582   1.73836   1.74280
 Alpha virt. eigenvalues --    1.74811   1.75546   1.75664   1.76227   1.76572
 Alpha virt. eigenvalues --    1.76993   1.77391   1.77438   1.77773   1.78134
 Alpha virt. eigenvalues --    1.78296   1.78796   1.78923   1.79375   1.79632
 Alpha virt. eigenvalues --    1.80246   1.80607   1.80903   1.81323   1.81740
 Alpha virt. eigenvalues --    1.81988   1.82316   1.82933   1.83224   1.83465
 Alpha virt. eigenvalues --    1.83802   1.84012   1.84313   1.84933   1.85535
 Alpha virt. eigenvalues --    1.86201   1.86403   1.86720   1.87347   1.87884
 Alpha virt. eigenvalues --    1.87959   1.88341   1.88424   1.88894   1.89392
 Alpha virt. eigenvalues --    1.89703   1.89800   1.90357   1.90759   1.91271
 Alpha virt. eigenvalues --    1.91532   1.91788   1.91964   1.92478   1.92721
 Alpha virt. eigenvalues --    1.93591   1.94124   1.94439   1.94728   1.95438
 Alpha virt. eigenvalues --    1.95673   1.95776   1.96759   1.96895   1.97642
 Alpha virt. eigenvalues --    1.97904   1.98133   1.98352   1.98684   1.98975
 Alpha virt. eigenvalues --    1.99366   1.99815   2.00049   2.00586   2.01067
 Alpha virt. eigenvalues --    2.01403   2.02115   2.02149   2.02418   2.02869
 Alpha virt. eigenvalues --    2.02998   2.03283   2.03353   2.03784   2.04046
 Alpha virt. eigenvalues --    2.04565   2.05008   2.05607   2.06085   2.06156
 Alpha virt. eigenvalues --    2.06748   2.07419   2.07760   2.07949   2.08269
 Alpha virt. eigenvalues --    2.08578   2.09029   2.09373   2.09580   2.10028
 Alpha virt. eigenvalues --    2.10115   2.10587   2.10722   2.11134   2.11709
 Alpha virt. eigenvalues --    2.12104   2.12524   2.12613   2.12918   2.13642
 Alpha virt. eigenvalues --    2.13904   2.14479   2.15050   2.15386   2.15704
 Alpha virt. eigenvalues --    2.16217   2.16450   2.16579   2.17252   2.17845
 Alpha virt. eigenvalues --    2.18347   2.18782   2.19036   2.19603   2.19839
 Alpha virt. eigenvalues --    2.19936   2.20131   2.20458   2.21073   2.21797
 Alpha virt. eigenvalues --    2.22428   2.22630   2.23048   2.23165   2.23610
 Alpha virt. eigenvalues --    2.24198   2.24987   2.25017   2.25916   2.26378
 Alpha virt. eigenvalues --    2.26726   2.26900   2.27338   2.28112   2.28141
 Alpha virt. eigenvalues --    2.28803   2.29252   2.29486   2.29685   2.30299
 Alpha virt. eigenvalues --    2.30591   2.30967   2.31664   2.31736   2.32165
 Alpha virt. eigenvalues --    2.32457   2.32862   2.33232   2.33374   2.33688
 Alpha virt. eigenvalues --    2.34342   2.34596   2.34691   2.34953   2.35303
 Alpha virt. eigenvalues --    2.35392   2.35977   2.36171   2.36608   2.36936
 Alpha virt. eigenvalues --    2.37107   2.37708   2.38046   2.38621   2.38994
 Alpha virt. eigenvalues --    2.39395   2.39936   2.40125   2.40660   2.41217
 Alpha virt. eigenvalues --    2.42328   2.42587   2.42984   2.43786   2.43817
 Alpha virt. eigenvalues --    2.44442   2.44556   2.44750   2.45210   2.45453
 Alpha virt. eigenvalues --    2.45881   2.46497   2.46732   2.46909   2.47282
 Alpha virt. eigenvalues --    2.47338   2.47807   2.48374   2.48926   2.49190
 Alpha virt. eigenvalues --    2.49435   2.49716   2.49886   2.50079   2.50705
 Alpha virt. eigenvalues --    2.50863   2.51309   2.51533   2.51708   2.52174
 Alpha virt. eigenvalues --    2.52240   2.52445   2.52892   2.53670   2.53971
 Alpha virt. eigenvalues --    2.54151   2.54311   2.54571   2.54872   2.55007
 Alpha virt. eigenvalues --    2.55398   2.55713   2.55902   2.56681   2.56861
 Alpha virt. eigenvalues --    2.57294   2.57573   2.57847   2.58034   2.58417
 Alpha virt. eigenvalues --    2.58839   2.59137   2.59446   2.59578   2.60463
 Alpha virt. eigenvalues --    2.60736   2.61007   2.61240   2.61953   2.62194
 Alpha virt. eigenvalues --    2.62466   2.62673   2.62972   2.63522   2.64092
 Alpha virt. eigenvalues --    2.64470   2.64676   2.64801   2.65358   2.65595
 Alpha virt. eigenvalues --    2.65667   2.66491   2.66803   2.67038   2.67359
 Alpha virt. eigenvalues --    2.67819   2.68159   2.68244   2.69193   2.69283
 Alpha virt. eigenvalues --    2.69600   2.69871   2.70341   2.70493   2.70942
 Alpha virt. eigenvalues --    2.71140   2.71302   2.71609   2.72255   2.72789
 Alpha virt. eigenvalues --    2.73250   2.73480   2.74000   2.74713   2.74766
 Alpha virt. eigenvalues --    2.74811   2.75128   2.75925   2.76223   2.76504
 Alpha virt. eigenvalues --    2.77193   2.77436   2.77584   2.77813   2.78084
 Alpha virt. eigenvalues --    2.78391   2.79168   2.79253   2.79559   2.79815
 Alpha virt. eigenvalues --    2.80371   2.80525   2.81310   2.81491   2.81922
 Alpha virt. eigenvalues --    2.82058   2.82380   2.82629   2.82992   2.83259
 Alpha virt. eigenvalues --    2.83486   2.83645   2.84191   2.84416   2.84554
 Alpha virt. eigenvalues --    2.85200   2.85631   2.85752   2.85796   2.86233
 Alpha virt. eigenvalues --    2.86437   2.86789   2.87026   2.87450   2.87977
 Alpha virt. eigenvalues --    2.88262   2.88464   2.88865   2.89120   2.89502
 Alpha virt. eigenvalues --    2.89648   2.89755   2.90102   2.90523   2.90582
 Alpha virt. eigenvalues --    2.90986   2.91550   2.91747   2.91931   2.92194
 Alpha virt. eigenvalues --    2.92547   2.93022   2.93510   2.93654   2.93895
 Alpha virt. eigenvalues --    2.94270   2.94653   2.95056   2.95307   2.95445
 Alpha virt. eigenvalues --    2.95605   2.95747   2.96543   2.96666   2.96842
 Alpha virt. eigenvalues --    2.97605   2.97905   2.98199   2.98566   2.98696
 Alpha virt. eigenvalues --    2.98794   2.99301   2.99515   2.99819   2.99946
 Alpha virt. eigenvalues --    3.00089   3.00538   3.00843   3.01022   3.01372
 Alpha virt. eigenvalues --    3.02170   3.02556   3.02685   3.02897   3.03115
 Alpha virt. eigenvalues --    3.03260   3.03693   3.04087   3.04155   3.04419
 Alpha virt. eigenvalues --    3.05194   3.05343   3.05467   3.05706   3.06027
 Alpha virt. eigenvalues --    3.06394   3.06472   3.07190   3.07350   3.07620
 Alpha virt. eigenvalues --    3.07832   3.08337   3.08506   3.08769   3.08814
 Alpha virt. eigenvalues --    3.09077   3.09339   3.09930   3.10137   3.10339
 Alpha virt. eigenvalues --    3.10885   3.11197   3.11313   3.11806   3.11885
 Alpha virt. eigenvalues --    3.12298   3.12731   3.13041   3.13343   3.13453
 Alpha virt. eigenvalues --    3.13742   3.14387   3.14453   3.14654   3.15116
 Alpha virt. eigenvalues --    3.15348   3.15499   3.15606   3.15887   3.16095
 Alpha virt. eigenvalues --    3.16253   3.16543   3.16797   3.16896   3.17160
 Alpha virt. eigenvalues --    3.17390   3.17728   3.18430   3.18487   3.18866
 Alpha virt. eigenvalues --    3.18875   3.19271   3.19620   3.19904   3.20232
 Alpha virt. eigenvalues --    3.20625   3.20953   3.21162   3.21324   3.21510
 Alpha virt. eigenvalues --    3.21835   3.22021   3.22125   3.22333   3.23089
 Alpha virt. eigenvalues --    3.23443   3.23651   3.23851   3.24013   3.24370
 Alpha virt. eigenvalues --    3.24617   3.24671   3.24938   3.25152   3.25404
 Alpha virt. eigenvalues --    3.25695   3.26185   3.26584   3.27062   3.27229
 Alpha virt. eigenvalues --    3.27394   3.28045   3.28141   3.28424   3.28643
 Alpha virt. eigenvalues --    3.29032   3.29230   3.29500   3.29964   3.30163
 Alpha virt. eigenvalues --    3.30287   3.30595   3.30913   3.30950   3.31241
 Alpha virt. eigenvalues --    3.31611   3.31826   3.32331   3.32684   3.32881
 Alpha virt. eigenvalues --    3.33123   3.33448   3.34004   3.34067   3.34220
 Alpha virt. eigenvalues --    3.34700   3.34975   3.35193   3.35603   3.36040
 Alpha virt. eigenvalues --    3.36179   3.36646   3.36781   3.37323   3.37721
 Alpha virt. eigenvalues --    3.37968   3.38421   3.38501   3.39000   3.39144
 Alpha virt. eigenvalues --    3.39457   3.39554   3.40362   3.40444   3.40696
 Alpha virt. eigenvalues --    3.41157   3.41416   3.41679   3.42400   3.42789
 Alpha virt. eigenvalues --    3.43185   3.43288   3.43495   3.44316   3.44649
 Alpha virt. eigenvalues --    3.44918   3.45087   3.45512   3.45991   3.46074
 Alpha virt. eigenvalues --    3.46847   3.47448   3.47717   3.48010   3.48447
 Alpha virt. eigenvalues --    3.48492   3.48812   3.49150   3.49282   3.49616
 Alpha virt. eigenvalues --    3.50002   3.50479   3.51387   3.51537   3.51829
 Alpha virt. eigenvalues --    3.52154   3.52774   3.53228   3.53561   3.53972
 Alpha virt. eigenvalues --    3.54278   3.54610   3.54761   3.55490   3.55951
 Alpha virt. eigenvalues --    3.56338   3.56495   3.56778   3.57387   3.57774
 Alpha virt. eigenvalues --    3.58036   3.58408   3.58685   3.59219   3.59382
 Alpha virt. eigenvalues --    3.59740   3.60548   3.60939   3.61204   3.61442
 Alpha virt. eigenvalues --    3.62009   3.62320   3.62617   3.63074   3.63430
 Alpha virt. eigenvalues --    3.63805   3.63860   3.64151   3.64622   3.64972
 Alpha virt. eigenvalues --    3.65221   3.65837   3.66322   3.66609   3.67439
 Alpha virt. eigenvalues --    3.68038   3.68238   3.68927   3.69186   3.69307
 Alpha virt. eigenvalues --    3.70001   3.70151   3.71598   3.71877   3.72278
 Alpha virt. eigenvalues --    3.72964   3.73156   3.73515   3.74290   3.74381
 Alpha virt. eigenvalues --    3.74587   3.75158   3.75728   3.76258   3.76861
 Alpha virt. eigenvalues --    3.77408   3.77629   3.78451   3.79065   3.79494
 Alpha virt. eigenvalues --    3.80388   3.80823   3.81235   3.81718   3.82209
 Alpha virt. eigenvalues --    3.82350   3.82902   3.84047   3.84125   3.84852
 Alpha virt. eigenvalues --    3.84937   3.85210   3.86073   3.86875   3.87137
 Alpha virt. eigenvalues --    3.87481   3.87593   3.87956   3.88528   3.88902
 Alpha virt. eigenvalues --    3.89175   3.89705   3.90148   3.91322   3.91450
 Alpha virt. eigenvalues --    3.91938   3.92461   3.92877   3.93263   3.94073
 Alpha virt. eigenvalues --    3.94461   3.94666   3.95361   3.96121   3.96447
 Alpha virt. eigenvalues --    3.97018   3.98573   3.98831   3.99615   4.00013
 Alpha virt. eigenvalues --    4.00814   4.00965   4.01807   4.01952   4.02342
 Alpha virt. eigenvalues --    4.03016   4.03558   4.03967   4.04246   4.05126
 Alpha virt. eigenvalues --    4.05394   4.05885   4.06423   4.06861   4.07624
 Alpha virt. eigenvalues --    4.08290   4.08559   4.08740   4.09292   4.09819
 Alpha virt. eigenvalues --    4.10411   4.11088   4.11609   4.12377   4.12552
 Alpha virt. eigenvalues --    4.12972   4.13475   4.13965   4.14364   4.14683
 Alpha virt. eigenvalues --    4.15519   4.15745   4.16127   4.16335   4.16484
 Alpha virt. eigenvalues --    4.17769   4.18022   4.18630   4.18999   4.20332
 Alpha virt. eigenvalues --    4.20599   4.21099   4.21185   4.22138   4.23043
 Alpha virt. eigenvalues --    4.23586   4.24031   4.24684   4.25119   4.25660
 Alpha virt. eigenvalues --    4.26956   4.27009   4.27330   4.27847   4.28283
 Alpha virt. eigenvalues --    4.28976   4.29651   4.30328   4.30980   4.31643
 Alpha virt. eigenvalues --    4.32033   4.32681   4.32826   4.33084   4.33905
 Alpha virt. eigenvalues --    4.34464   4.34908   4.35935   4.35993   4.36372
 Alpha virt. eigenvalues --    4.37130   4.37715   4.38229   4.38409   4.38732
 Alpha virt. eigenvalues --    4.39274   4.40098   4.40856   4.41609   4.42031
 Alpha virt. eigenvalues --    4.42693   4.43395   4.44356   4.45766   4.46852
 Alpha virt. eigenvalues --    4.47638   4.48221   4.49137   4.49387   4.49968
 Alpha virt. eigenvalues --    4.51083   4.51610   4.52192   4.52836   4.53531
 Alpha virt. eigenvalues --    4.53974   4.54526   4.54603   4.55387   4.55742
 Alpha virt. eigenvalues --    4.56290   4.56424   4.57112   4.57775   4.57934
 Alpha virt. eigenvalues --    4.58717   4.59135   4.59551   4.60320   4.60790
 Alpha virt. eigenvalues --    4.61979   4.62230   4.63102   4.63941   4.64079
 Alpha virt. eigenvalues --    4.65042   4.65384   4.66316   4.66488   4.66995
 Alpha virt. eigenvalues --    4.67090   4.67911   4.68438   4.69407   4.69626
 Alpha virt. eigenvalues --    4.70929   4.71198   4.71423   4.72417   4.73920
 Alpha virt. eigenvalues --    4.74281   4.74398   4.74981   4.75881   4.76528
 Alpha virt. eigenvalues --    4.76978   4.77967   4.78317   4.78813   4.79864
 Alpha virt. eigenvalues --    4.80301   4.81311   4.81546   4.81768   4.82334
 Alpha virt. eigenvalues --    4.82603   4.84790   4.85081   4.85749   4.86307
 Alpha virt. eigenvalues --    4.86670   4.87588   4.88232   4.89300   4.89731
 Alpha virt. eigenvalues --    4.90122   4.90994   4.91914   4.92228   4.94038
 Alpha virt. eigenvalues --    4.94248   4.94422   4.95107   4.95383   4.95769
 Alpha virt. eigenvalues --    4.96682   4.96840   4.98712   4.99130   4.99894
 Alpha virt. eigenvalues --    5.01631   5.02521   5.03405   5.06358   5.06795
 Alpha virt. eigenvalues --    5.07454   5.08384   5.08944   5.09507   5.09971
 Alpha virt. eigenvalues --    5.10145   5.10880   5.11721   5.12954   5.13492
 Alpha virt. eigenvalues --    5.13722   5.14238   5.14304   5.14753   5.16565
 Alpha virt. eigenvalues --    5.17091   5.17849   5.18050   5.19074   5.19258
 Alpha virt. eigenvalues --    5.20695   5.21459   5.21876   5.22382   5.23880
 Alpha virt. eigenvalues --    5.25316   5.26445   5.27461   5.28199   5.28565
 Alpha virt. eigenvalues --    5.29030   5.30019   5.31742   5.32417   5.34041
 Alpha virt. eigenvalues --    5.35029   5.35714   5.37201   5.37302   5.38693
 Alpha virt. eigenvalues --    5.39275   5.39676   5.41320   5.42309   5.45152
 Alpha virt. eigenvalues --    5.46926   5.48639   5.49547   5.50401   5.50584
 Alpha virt. eigenvalues --    5.50898   5.51128   5.51553   5.53979   5.54976
 Alpha virt. eigenvalues --    5.55332   5.56285   5.57522   5.57737   5.58253
 Alpha virt. eigenvalues --    5.58976   5.61272   5.62137   5.66120   5.66388
 Alpha virt. eigenvalues --    5.66649   5.67899   5.70532   5.71042   5.73380
 Alpha virt. eigenvalues --    5.76879   5.77921   5.78896   5.82412   5.83345
 Alpha virt. eigenvalues --    5.84842   5.86213   5.86952   5.88825   5.89660
 Alpha virt. eigenvalues --    5.91990   5.92777   5.98488   5.99824   6.00245
 Alpha virt. eigenvalues --    6.01002   6.02195   6.03683   6.06746   6.07925
 Alpha virt. eigenvalues --    6.10660   6.12125   6.15420   6.17161   6.18075
 Alpha virt. eigenvalues --    6.20118   6.21481   6.21641   6.23591   6.25663
 Alpha virt. eigenvalues --    6.25933   6.27811   6.28538   6.30053   6.33539
 Alpha virt. eigenvalues --    6.35763   6.36976   6.37362   6.39627   6.41350
 Alpha virt. eigenvalues --    6.42519   6.46205   6.46299   6.48301   6.57362
 Alpha virt. eigenvalues --    6.64700   6.68512   6.69416   6.71631   6.76372
 Alpha virt. eigenvalues --    6.80507   6.84490   6.86712   6.87827   6.94989
 Alpha virt. eigenvalues --    7.03566   7.04470   7.05450   7.06167   7.07664
 Alpha virt. eigenvalues --    7.14560   7.21084   7.23301   7.41805   8.61063
 Alpha virt. eigenvalues --   22.26322  22.32544  22.42774  22.45848  22.46569
 Alpha virt. eigenvalues --   22.50628  22.53184  22.53951  22.54564  22.64147
 Alpha virt. eigenvalues --   22.66631  22.67531  22.70975  22.78860  22.79631
 Alpha virt. eigenvalues --   22.86099  22.87764  22.88797  22.89648  22.97533
 Alpha virt. eigenvalues --   22.99313  23.04786  23.09481  23.13697  23.17725
 Alpha virt. eigenvalues --   23.21491  23.23177  23.29737  23.34434  23.41623
 Alpha virt. eigenvalues --   23.43264  23.48597  23.49436  23.51558  23.65008
 Alpha virt. eigenvalues --   23.69819  23.70810  23.81456  32.37410  32.62689
 Alpha virt. eigenvalues --   32.84602  32.88083  32.92087  33.08913  43.71814
 Alpha virt. eigenvalues --   43.86919  43.88393  43.88934  44.02614  44.11483
  Beta  occ. eigenvalues -- -256.53470 -30.29980 -26.13121 -26.12707 -26.12124
  Beta  occ. eigenvalues --  -19.44020 -19.42496 -19.35246 -19.32647 -19.26723
  Beta  occ. eigenvalues --  -19.25344 -14.54602 -14.51464 -14.50171 -14.50136
  Beta  occ. eigenvalues --  -14.50048 -14.49729 -10.44001 -10.42671 -10.38474
  Beta  occ. eigenvalues --  -10.37038 -10.36755 -10.36747 -10.36583 -10.36567
  Beta  occ. eigenvalues --  -10.36502 -10.36300 -10.36050 -10.36027 -10.34236
  Beta  occ. eigenvalues --  -10.33716 -10.33602 -10.33425 -10.33353 -10.33340
  Beta  occ. eigenvalues --  -10.33260 -10.33093 -10.33005 -10.32941 -10.32866
  Beta  occ. eigenvalues --  -10.32765 -10.32763 -10.32718 -10.32631 -10.32515
  Beta  occ. eigenvalues --  -10.32439 -10.32169 -10.31689 -10.31665 -10.30923
  Beta  occ. eigenvalues --  -10.30506 -10.30444 -10.30383 -10.29834 -10.29533
  Beta  occ. eigenvalues --   -3.62262  -2.37991  -2.37385  -2.36665  -1.36434
  Beta  occ. eigenvalues --   -1.24792  -1.23419  -1.17066  -1.11989  -1.10401
  Beta  occ. eigenvalues --   -1.09535  -1.09341  -1.09122  -1.08113  -1.02736
  Beta  occ. eigenvalues --   -0.95248  -0.94628  -0.93951  -0.93474  -0.93194
  Beta  occ. eigenvalues --   -0.92443  -0.92170  -0.91076  -0.90750  -0.89481
  Beta  occ. eigenvalues --   -0.88875  -0.87379  -0.86884  -0.86564  -0.84535
  Beta  occ. eigenvalues --   -0.82972  -0.82667  -0.82454  -0.81933  -0.80146
  Beta  occ. eigenvalues --   -0.79182  -0.78741  -0.77018  -0.76763  -0.75798
  Beta  occ. eigenvalues --   -0.74982  -0.73873  -0.72220  -0.71020  -0.70597
  Beta  occ. eigenvalues --   -0.70217  -0.69457  -0.67121  -0.67032  -0.66059
  Beta  occ. eigenvalues --   -0.65853  -0.64667  -0.64337  -0.63819  -0.63383
  Beta  occ. eigenvalues --   -0.63158  -0.62271  -0.60889  -0.60764  -0.60464
  Beta  occ. eigenvalues --   -0.59731  -0.59345  -0.58769  -0.58542  -0.58283
  Beta  occ. eigenvalues --   -0.57956  -0.57598  -0.57402  -0.56909  -0.56537
  Beta  occ. eigenvalues --   -0.55929  -0.55555  -0.55330  -0.54780  -0.54616
  Beta  occ. eigenvalues --   -0.54365  -0.54236  -0.54138  -0.53926  -0.53839
  Beta  occ. eigenvalues --   -0.53431  -0.53174  -0.52989  -0.52853  -0.52579
  Beta  occ. eigenvalues --   -0.52509  -0.52152  -0.52038  -0.51685  -0.51509
  Beta  occ. eigenvalues --   -0.51206  -0.51056  -0.50875  -0.50762  -0.50137
  Beta  occ. eigenvalues --   -0.50077  -0.49720  -0.49658  -0.49274  -0.49141
  Beta  occ. eigenvalues --   -0.48722  -0.48521  -0.48193  -0.48019  -0.47488
  Beta  occ. eigenvalues --   -0.47164  -0.47060  -0.46936  -0.46470  -0.46271
  Beta  occ. eigenvalues --   -0.46065  -0.44561  -0.43928  -0.43862  -0.43440
  Beta  occ. eigenvalues --   -0.43321  -0.42120  -0.41612  -0.40348  -0.40155
  Beta  occ. eigenvalues --   -0.39832  -0.39290  -0.39022  -0.37502  -0.36951
  Beta  occ. eigenvalues --   -0.36615  -0.35426  -0.34916  -0.34490  -0.34342
  Beta  occ. eigenvalues --   -0.32476  -0.30751  -0.30063
  Beta virt. eigenvalues --   -0.26149  -0.22692  -0.19829  -0.18239  -0.17495
  Beta virt. eigenvalues --   -0.15674  -0.13937  -0.13696  -0.13039  -0.11919
  Beta virt. eigenvalues --   -0.09523  -0.09213  -0.08539  -0.07812  -0.07715
  Beta virt. eigenvalues --   -0.06275  -0.05593  -0.05231  -0.04040  -0.03858
  Beta virt. eigenvalues --   -0.03724  -0.03224  -0.02960  -0.02116  -0.02071
  Beta virt. eigenvalues --   -0.01689  -0.01086  -0.00933  -0.00630  -0.00251
  Beta virt. eigenvalues --    0.00062   0.00417   0.00643   0.00832   0.00987
  Beta virt. eigenvalues --    0.01524   0.01659   0.01918   0.02291   0.02376
  Beta virt. eigenvalues --    0.02571   0.02995   0.03224   0.03332   0.03765
  Beta virt. eigenvalues --    0.04058   0.04319   0.04564   0.04650   0.04739
  Beta virt. eigenvalues --    0.05041   0.05289   0.05442   0.05595   0.05825
  Beta virt. eigenvalues --    0.05979   0.06059   0.06336   0.06415   0.06624
  Beta virt. eigenvalues --    0.06783   0.07003   0.07360   0.07475   0.07827
  Beta virt. eigenvalues --    0.07914   0.08113   0.08311   0.08902   0.08964
  Beta virt. eigenvalues --    0.09171   0.09568   0.09697   0.09861   0.09966
  Beta virt. eigenvalues --    0.10320   0.10476   0.10860   0.10961   0.11106
  Beta virt. eigenvalues --    0.11581   0.11635   0.12064   0.12189   0.12359
  Beta virt. eigenvalues --    0.12627   0.12798   0.13111   0.13245   0.13320
  Beta virt. eigenvalues --    0.13654   0.13853   0.13901   0.14368   0.14522
  Beta virt. eigenvalues --    0.15013   0.15072   0.15413   0.15574   0.15680
  Beta virt. eigenvalues --    0.15871   0.16013   0.16230   0.16541   0.16605
  Beta virt. eigenvalues --    0.17000   0.17230   0.17511   0.17644   0.17855
  Beta virt. eigenvalues --    0.18324   0.18390   0.18901   0.19119   0.19435
  Beta virt. eigenvalues --    0.19479   0.19677   0.19798   0.20232   0.20443
  Beta virt. eigenvalues --    0.20530   0.21027   0.21073   0.21260   0.21596
  Beta virt. eigenvalues --    0.21812   0.21952   0.22173   0.22373   0.22550
  Beta virt. eigenvalues --    0.22930   0.23182   0.23570   0.23691   0.23942
  Beta virt. eigenvalues --    0.24065   0.24445   0.24940   0.25036   0.25142
  Beta virt. eigenvalues --    0.25408   0.25553   0.25833   0.25980   0.26270
  Beta virt. eigenvalues --    0.26429   0.26848   0.27234   0.27331   0.27571
  Beta virt. eigenvalues --    0.27979   0.28147   0.28316   0.28487   0.28671
  Beta virt. eigenvalues --    0.28891   0.29105   0.29261   0.29376   0.29636
  Beta virt. eigenvalues --    0.29984   0.30540   0.30611   0.30799   0.31011
  Beta virt. eigenvalues --    0.31085   0.31343   0.31692   0.31821   0.31919
  Beta virt. eigenvalues --    0.32110   0.32293   0.32577   0.32884   0.32953
  Beta virt. eigenvalues --    0.33208   0.33438   0.33536   0.33634   0.33996
  Beta virt. eigenvalues --    0.34171   0.34342   0.34637   0.34745   0.35070
  Beta virt. eigenvalues --    0.35251   0.35373   0.35515   0.35738   0.35878
  Beta virt. eigenvalues --    0.36024   0.36248   0.36547   0.36834   0.37186
  Beta virt. eigenvalues --    0.37243   0.37405   0.37619   0.37734   0.37908
  Beta virt. eigenvalues --    0.37959   0.38225   0.38428   0.38596   0.38751
  Beta virt. eigenvalues --    0.38819   0.39060   0.39136   0.39382   0.39567
  Beta virt. eigenvalues --    0.39840   0.39968   0.40103   0.40356   0.40497
  Beta virt. eigenvalues --    0.40655   0.40700   0.40946   0.41258   0.41306
  Beta virt. eigenvalues --    0.41737   0.42030   0.42259   0.42352   0.42550
  Beta virt. eigenvalues --    0.42574   0.42952   0.43009   0.43294   0.43503
  Beta virt. eigenvalues --    0.43801   0.44012   0.44195   0.44342   0.44556
  Beta virt. eigenvalues --    0.44900   0.45038   0.45260   0.45412   0.45733
  Beta virt. eigenvalues --    0.45919   0.46095   0.46396   0.46657   0.46824
  Beta virt. eigenvalues --    0.47059   0.47159   0.47654   0.47703   0.47848
  Beta virt. eigenvalues --    0.48145   0.48165   0.48469   0.48816   0.48989
  Beta virt. eigenvalues --    0.49285   0.49594   0.49713   0.49945   0.50346
  Beta virt. eigenvalues --    0.50551   0.50633   0.51139   0.51404   0.51570
  Beta virt. eigenvalues --    0.51766   0.52011   0.52310   0.52510   0.52842
  Beta virt. eigenvalues --    0.53039   0.53543   0.53636   0.53942   0.53995
  Beta virt. eigenvalues --    0.54060   0.54386   0.54481   0.54599   0.55131
  Beta virt. eigenvalues --    0.55301   0.55567   0.55813   0.56055   0.56297
  Beta virt. eigenvalues --    0.56532   0.56713   0.56858   0.57100   0.57309
  Beta virt. eigenvalues --    0.57369   0.57578   0.58122   0.58207   0.58531
  Beta virt. eigenvalues --    0.58971   0.59301   0.59505   0.59769   0.59992
  Beta virt. eigenvalues --    0.60274   0.60456   0.61044   0.61133   0.61488
  Beta virt. eigenvalues --    0.61692   0.61874   0.62378   0.62547   0.62764
  Beta virt. eigenvalues --    0.62923   0.63312   0.63690   0.63771   0.64141
  Beta virt. eigenvalues --    0.64407   0.64771   0.64953   0.65395   0.65461
  Beta virt. eigenvalues --    0.65736   0.66077   0.66430   0.66613   0.66951
  Beta virt. eigenvalues --    0.67600   0.67883   0.68097   0.68441   0.68755
  Beta virt. eigenvalues --    0.68922   0.69290   0.69435   0.69783   0.70642
  Beta virt. eigenvalues --    0.70845   0.70985   0.71114   0.71311   0.71970
  Beta virt. eigenvalues --    0.72404   0.72461   0.72951   0.73256   0.73430
  Beta virt. eigenvalues --    0.74042   0.74389   0.74735   0.74838   0.75071
  Beta virt. eigenvalues --    0.75450   0.75607   0.76071   0.76101   0.76588
  Beta virt. eigenvalues --    0.76814   0.77207   0.77434   0.77953   0.78111
  Beta virt. eigenvalues --    0.78245   0.78980   0.79143   0.79332   0.79832
  Beta virt. eigenvalues --    0.80207   0.80451   0.80662   0.81487   0.81527
  Beta virt. eigenvalues --    0.81713   0.82008   0.82452   0.82817   0.82962
  Beta virt. eigenvalues --    0.83309   0.83886   0.84165   0.84373   0.84621
  Beta virt. eigenvalues --    0.84812   0.84845   0.85232   0.85395   0.85735
  Beta virt. eigenvalues --    0.85850   0.86167   0.86283   0.86878   0.87097
  Beta virt. eigenvalues --    0.87109   0.87793   0.87905   0.88297   0.88374
  Beta virt. eigenvalues --    0.88502   0.88650   0.88998   0.89309   0.89658
  Beta virt. eigenvalues --    0.89795   0.90169   0.90571   0.90751   0.90878
  Beta virt. eigenvalues --    0.90982   0.91153   0.91958   0.92223   0.92513
  Beta virt. eigenvalues --    0.93044   0.93380   0.93568   0.93995   0.94401
  Beta virt. eigenvalues --    0.94526   0.95073   0.95221   0.95635   0.95774
  Beta virt. eigenvalues --    0.95944   0.95953   0.96626   0.96937   0.97510
  Beta virt. eigenvalues --    0.97749   0.98693   0.98921   0.99416   0.99609
  Beta virt. eigenvalues --    0.99891   0.99953   1.00351   1.00389   1.00610
  Beta virt. eigenvalues --    1.01139   1.01580   1.02073   1.02357   1.02782
  Beta virt. eigenvalues --    1.03012   1.03766   1.04143   1.04395   1.04783
  Beta virt. eigenvalues --    1.05159   1.05464   1.05924   1.06121   1.06278
  Beta virt. eigenvalues --    1.06695   1.07013   1.07205   1.08077   1.08328
  Beta virt. eigenvalues --    1.08445   1.08656   1.09285   1.09705   1.09867
  Beta virt. eigenvalues --    1.10352   1.10666   1.10975   1.11283   1.11449
  Beta virt. eigenvalues --    1.12220   1.12592   1.12973   1.13956   1.14164
  Beta virt. eigenvalues --    1.14306   1.14624   1.15102   1.15499   1.15738
  Beta virt. eigenvalues --    1.16136   1.16357   1.16834   1.17201   1.17605
  Beta virt. eigenvalues --    1.18284   1.18412   1.18424   1.19041   1.19345
  Beta virt. eigenvalues --    1.19814   1.20213   1.20570   1.20902   1.20966
  Beta virt. eigenvalues --    1.21684   1.22125   1.22197   1.22742   1.23151
  Beta virt. eigenvalues --    1.23440   1.23664   1.23979   1.24655   1.25055
  Beta virt. eigenvalues --    1.25213   1.25254   1.26276   1.26318   1.26449
  Beta virt. eigenvalues --    1.26905   1.27350   1.27433   1.27760   1.28047
  Beta virt. eigenvalues --    1.28898   1.29197   1.29738   1.29912   1.30207
  Beta virt. eigenvalues --    1.31054   1.31126   1.32315   1.32441   1.32811
  Beta virt. eigenvalues --    1.33227   1.33928   1.33981   1.34326   1.34798
  Beta virt. eigenvalues --    1.34900   1.35270   1.35691   1.36247   1.36954
  Beta virt. eigenvalues --    1.37020   1.37385   1.37649   1.38107   1.38420
  Beta virt. eigenvalues --    1.38837   1.38878   1.39090   1.39266   1.39780
  Beta virt. eigenvalues --    1.39937   1.40238   1.40630   1.41387   1.41849
  Beta virt. eigenvalues --    1.42095   1.42415   1.42690   1.42955   1.43439
  Beta virt. eigenvalues --    1.43793   1.44176   1.44331   1.44659   1.44976
  Beta virt. eigenvalues --    1.45270   1.45580   1.45666   1.46050   1.46086
  Beta virt. eigenvalues --    1.46423   1.46635   1.46874   1.46939   1.47608
  Beta virt. eigenvalues --    1.47684   1.47724   1.48168   1.48411   1.48774
  Beta virt. eigenvalues --    1.49288   1.49475   1.49834   1.50321   1.50402
  Beta virt. eigenvalues --    1.50626   1.50998   1.51107   1.51514   1.51688
  Beta virt. eigenvalues --    1.52092   1.52476   1.52559   1.52891   1.53228
  Beta virt. eigenvalues --    1.53483   1.53486   1.53906   1.53947   1.54332
  Beta virt. eigenvalues --    1.54612   1.54953   1.55199   1.55409   1.55730
  Beta virt. eigenvalues --    1.55853   1.56234   1.56314   1.56738   1.57265
  Beta virt. eigenvalues --    1.57620   1.57987   1.58093   1.58730   1.58871
  Beta virt. eigenvalues --    1.59065   1.59220   1.59880   1.60317   1.60402
  Beta virt. eigenvalues --    1.60790   1.61151   1.61456   1.61719   1.62088
  Beta virt. eigenvalues --    1.62460   1.62681   1.63163   1.63354   1.63473
  Beta virt. eigenvalues --    1.63695   1.64137   1.64531   1.64971   1.65126
  Beta virt. eigenvalues --    1.65462   1.65739   1.65994   1.66249   1.66494
  Beta virt. eigenvalues --    1.66764   1.67088   1.67694   1.68059   1.68307
  Beta virt. eigenvalues --    1.68943   1.69208   1.69990   1.70190   1.70601
  Beta virt. eigenvalues --    1.71099   1.71447   1.72051   1.72260   1.72637
  Beta virt. eigenvalues --    1.72766   1.73566   1.73930   1.74488   1.74732
  Beta virt. eigenvalues --    1.75129   1.75840   1.76073   1.76515   1.76867
  Beta virt. eigenvalues --    1.77254   1.77611   1.77806   1.77989   1.78376
  Beta virt. eigenvalues --    1.78621   1.78884   1.79297   1.79836   1.80274
  Beta virt. eigenvalues --    1.80492   1.80820   1.81067   1.81483   1.81925
  Beta virt. eigenvalues --    1.82258   1.82928   1.83327   1.83507   1.83579
[...]
  1726. BD*(   1)Fe   7 - N  23          0.04848     0.23242   
  1727. BD*(   1)Fe   7 - N  31          0.04439     0.23469   
  1728. BD*(   1)Fe   7 - N  39          0.04557     0.22757   
  1729. BD*(   1) C   8 - C  13          0.01077     0.45792   
  1730. BD*(   2) C   8 - C  13          0.18903    -0.06689  1801(v),1749(v),1746(v)
                                                    378(g),512(g),1724(r)
  1731. BD*(   1) C   8 - C  43          0.01049     0.48834   
  1732. BD*(   1) C   8 - H  79          0.00813     0.32958   
  1733. BD*(   1) C   9 - C  16          0.01035     0.48683   
  1734. BD*(   1) C   9 - C  24          0.00956     0.45530   
  1735. BD*(   1) C   9 - H  64          0.00700     0.34358   
  1736. BD*(   1) C  10 - C  27          0.01043     0.44926   
  1737. BD*(   1) C  10 - C  32          0.00976     0.45972   
  1738. BD*(   2) C  10 - C  32          0.17179    -0.06242  1788(v),185(v),1785(v)
                                                    431(g),1006(g)
  1739. BD*(   1) C  10 - H  68          0.00602     0.34510   
  1740. BD*(   1) C  11 - C  35          0.01067     0.45622   
  1741. BD*(   1) C  11 - C  40          0.01080     0.47742   
  1742. BD*(   2) C  11 - C  40          0.15871    -0.05577  1804(v),1785(v),1801(v)
                                                    456(g),1216(g)
  1743. BD*(   1) C  11 - H  75          0.00664     0.34424   
  1744. BD*(   1) N  12 - C  13          0.01301     0.37397   
  1745. BD*(   1) N  12 - C  16          0.01484     0.34922   
  1746. BD*(   2) N  12 - C  16          0.32865    -0.11674  178(v),1749(v),1730(v)
                                                    1767(r),587(g),483(g),405(v)
                                                    588(g),179(v),1821(r)
                                                    1823(r)
  1747. BD*(   1) C  13 - C  14          0.01733     0.35561   
  1748. BD*(   1) C  14 - C  15          0.01154     0.48847   
  1749. BD*(   2) C  14 - C  15          0.11742    -0.04140  1730(v),1746(v),1763(r)
                                                    1756(v),1754(v),1757(v)
  1750. BD*(   1) C  14 - C  18          0.01132     0.31802   
  1751. BD*(   1) C  15 - C  16          0.01557     0.41308   
  1752. BD*(   1) C  15 - C  17          0.00859     0.29260   
  1753. BD*(   1) C  17 - H  65          0.00307     0.31719   
  1754. BD*(   1) C  17 - H  66          0.00423     0.31569   
  1755. BD*(   1) C  17 - H  67          0.00287     0.31837   
  1756. BD*(   1) C  18 - C  19          0.00984     0.22030   
  1757. BD*(   1) C  18 - H  85          0.00755     0.31168   
  1758. BD*(   1) C  18 - H  86          0.00731     0.29565   
  1759. BD*(   1) C  19 - C  20          0.03596     0.26901   
  1760. BD*(   1) C  19 - H  87          0.00554     0.30078   
  1761. BD*(   1) C  19 - H  88          0.00529     0.31112   
  1762. BD*(   1) C  20 - O  21          0.02311     0.44106   
  1763. BD*(   2) C  20 - O  21          0.10372    -0.04468  1762(g),1749(r),1756(v)
                                                    1760(v),1765(v)
  1764. BD*(   1) C  20 - O  22          0.03976     0.36562   
  1765. BD*(   1) O  22 - H  89          0.00637     0.29277   
  1766. BD*(   1) N  23 - C  24          0.01368     0.34694   
  1767. BD*(   2) N  23 - C  24          0.32311    -0.11475  178(v),185(v),1771(v)
                                                    1746(r),796(g),405(v),773(g)
                                                    770(g),1721(r),1822(r)
  1768. BD*(   1) N  23 - C  27          0.01283     0.40139   
  1769. BD*(   1) C  24 - C  25          0.01697     0.35119   
  1770. BD*(   1) C  25 - C  26          0.01084     0.54444   
  1771. BD*(   2) C  25 - C  26          0.12092    -0.02775  1779(v),1767(v),185(v)
                                                    1776(v)
  1772. BD*(   1) C  25 - C  28          0.00855     0.31117   
  1773. BD*(   1) C  26 - C  27          0.01835     0.38803   
  1774. BD*(   1) C  26 - C  29          0.01390     0.32015   
  1775. BD*(   1) C  28 - H  61          0.00291     0.32019   
  1776. BD*(   1) C  28 - H  62          0.00470     0.32150   
  1777. BD*(   1) C  28 - H  63          0.00375     0.33718   
  1778. BD*(   1) C  29 - C  30          0.00240     0.50170   
  1779. BD*(   2) C  29 - C  30          0.02582    -0.04344   
  1780. BD*(   1) C  29 - H  58          0.00857     0.35396   
  1781. BD*(   1) C  30 - H  59          0.00400     0.35558   
  1782. BD*(   1) C  30 - H  60          0.00366     0.36165   
  1783. BD*(   1) N  31 - C  32          0.01467     0.35436   
  1784. BD*(   1) N  31 - C  35          0.01289     0.41307   
  1785. BD*(   2) N  31 - C  35          0.25316    -0.09883  1742(v),1738(v),1788(v)
                                                    1081(g),179(v),1082(g)
                                                    456(v),1084(g),1823(r)
  1786. BD*(   1) C  32 - C  33          0.01639     0.39040   
  1787. BD*(   1) C  33 - C  34          0.01075     0.53136   
  1788. BD*(   2) C  33 - C  34          0.11786    -0.02822  1738(v),186(v),1785(v)
                                                    1792(v)
  1789. BD*(   1) C  33 - C  36          0.00805     0.31335   
  1790. BD*(   1) C  34 - C  35          0.01563     0.37853   
  1791. BD*(   1) C  34 - C  37          0.01127     0.34965   
  1792. BD*(   1) C  36 - H  69          0.00325     0.32125   
  1793. BD*(   1) C  36 - H  70          0.00251     0.32020   
  1794. BD*(   1) C  36 - H  71          0.00253     0.32764   
  1795. BD*(   1) C  37 - C  38          0.00295     0.60386   
  1796. BD*(   1) C  37 - H  74          0.00393     0.35008   
  1797. BD*(   1) C  38 - H  72          0.00262     0.35779   
  1798. BD*(   1) C  38 - H  73          0.00246     0.35580   
  1799. BD*(   1) N  39 - C  40          0.01337     0.40312   
  1800. BD*(   1) N  39 - C  43          0.01425     0.37551   
  1801. BD*(   2) N  39 - C  43          0.29666    -0.10500  1730(v),1804(v),1742(v)
                                                    1290(g),178(v),179(v),378(v)
                                                    1186(g),1721(r),1823(r)
  1802. BD*(   1) C  40 - C  41          0.01640     0.41144   
  1803. BD*(   1) C  41 - C  42          0.01108     0.48031   
  1804. BD*(   2) C  41 - C  42          0.11075    -0.03997  1742(v),1801(v),1811(v)
                                                    1808(v)
  1805. BD*(   1) C  41 - C  44          0.00788     0.30607   
  1806. BD*(   1) C  42 - C  43          0.01652     0.38840   
  1807. BD*(   1) C  42 - C  45          0.01057     0.30710   
  1808. BD*(   1) C  44 - H  76          0.00442     0.31920   
  1809. BD*(   1) C  44 - H  77          0.00314     0.32002   
  1810. BD*(   1) C  44 - H  78          0.00297     0.32628   
  1811. BD*(   1) C  45 - C  46          0.00815     0.23267   
  1812. BD*(   1) C  45 - H  80          0.00686     0.32556   
  1813. BD*(   1) C  45 - H  81          0.00683     0.30867   
  1814. BD*(   1) C  46 - C  47          0.03374     0.28425   
  1815. BD*(   1) C  46 - H  82          0.00491     0.31401   
  1816. BD*(   1) C  46 - H  83          0.00582     0.31121   
  1817. BD*(   1) C  47 - O  48          0.02026     0.46937   
  1818. BD*(   2) C  47 - O  48          0.09471    -0.06689   
  1819. BD*(   1) C  47 - O  49          0.03694     0.40314   
  1820. BD*(   1) O  49 - H  84          0.00636     0.31453   
       -------------------------------
              Total Lewis  154.69607  ( 97.2422%)
        Valence non-Lewis    4.08183  (  2.5658%)
        Rydberg non-Lewis    0.30542  (  0.1920%)
       -------------------------------
            Total unit  2  159.08332  (100.0000%)
           Charge unit  2    1.91668

 Molecular unit  3  (O2)
   112. BD (   1) O  50 - O  51          0.99627    -0.93867  179(r),177(r),352(r),1823(g)
                                                    178(r),1728(r),357(r),353(r)
                                                    1725(r),486(r),358(r),325(r)
                                                    1726(r),368(r),328(r),355(r)
                                                    769(r),327(r),982(r),360(r)
                                                    1184(r)
   113. BD (   2) O  50 - O  51          0.98905    -0.78085  179(r),352(r),177(r),1726(r)
                                                    178(r),1727(r),353(r)
                                                    1728(r),357(r),374(r)
                                                    1725(r),356(r),327(r),772(r)
                                                    768(r),484(r),773(r),355(r)
                                                    328(r),776(r)
   114. BD (   3) O  50 - O  51          0.95540    -0.58044  177(r),179(r),1725(r)
                                                    1726(r),356(r),1823(g)
                                                    1727(r),355(r),979(r),770(r)
                                                    1728(r),1185(r),978(r)
                                                    178(r),1783(r),1800(r)
                                                    351(r),1187(r),483(r)
                                                    1801(r),984(r),1784(r)
                                                    771(r),977(r)
   172. CR (   1) O  50                  0.99978   -19.24127  179(r),177(r),178(r),1821(g)
                                                    1823(g),1727(r),1728(r)
                                                    1726(r),1725(r),359(r)
                                                    353(r)
   173. CR (   1) O  51                  0.99995   -19.27990  179(r),177(r),1472(v)
   192. LP (   1) O  50                  0.88635    -0.93957  177(r),179(r),178(r),1823(g)
                                                    359(r),1727(r),1473(g)
                                                    357(r),1185(r),1728(r)
                                                    770(r),978(r),352(r),484(r)
                                                    483(r),771(r),979(r),1187(r)
                                                    485(r),1744(r),1745(r)
                                                    1725(r),982(r),1768(r)
                                                    768(r),1766(r),331(r),332(r)
   193. LP (   1) O  51                  0.99200    -0.96629  179(r),177(r),1472(v),178(r)
                                                    1727(r),359(r),1790(r)
  1470. RY*(   1) O  50                  0.00240     0.95349   
  1471. RY*(   2) O  50                  0.00136     1.28325   
  1472. RY*(   3) O  50                  0.00079     1.26115   
  1473. RY*(   4) O  50                  0.00056     1.95446   
  1474. RY*(   5) O  50                  0.00023     2.26413   
  1475. RY*(   6) O  50                  0.00010     2.30911   
  1476. RY*(   7) O  50                  0.00004     2.64465   
  1477. RY*(   8) O  50                  0.00005     3.29395   
  1478. RY*(   9) O  50                  0.00004     4.40744   
  1479. RY*(  10) O  50                  0.00001     3.31273   
  1480. RY*(  11) O  50                  0.00000     6.30146   
  1481. RY*(  12) O  50                  0.00000    42.20833   
  1482. RY*(  13) O  50                  0.00000     6.37089   
  1483. RY*(  14) O  50                  0.00000     2.67662   
  1484. RY*(  15) O  50                  0.00000     6.50951   
  1485. RY*(  16) O  50                  0.00001     2.20187   
  1486. RY*(  17) O  50                  0.00000     6.34876   
  1487. RY*(  18) O  50                  0.00001     3.55577   
  1488. RY*(  19) O  50                  0.00000     6.43451   
  1489. RY*(  20) O  50                  0.00000     5.16638   
  1490. RY*(  21) O  50                  0.00000     5.00538   
  1491. RY*(  22) O  50                  0.00000     5.24427   
  1492. RY*(  23) O  50                  0.00000     5.34408   
  1493. RY*(  24) O  50                  0.00000     5.21652   
  1494. RY*(  25) O  50                  0.00000     5.34830   
  1495. RY*(  26) O  50                  0.00000     5.33007   
  1496. RY*(   1) O  51                  0.00203     0.86597   
  1497. RY*(   2) O  51                  0.00050     0.84307   
  1498. RY*(   3) O  51                  0.00017     2.25554   
  1499. RY*(   4) O  51                  0.00007     1.16576   
  1500. RY*(   5) O  51                  0.00005     1.84425   
  1501. RY*(   6) O  51                  0.00002     2.89981   
  1502. RY*(   7) O  51                  0.00001     2.16801   
  1503. RY*(   8) O  51                  0.00001     4.21622   
  1504. RY*(   9) O  51                  0.00001     3.42751   
  1505. RY*(  10) O  51                  0.00001     2.26316   
  1506. RY*(  11) O  51                  0.00001     2.17650   
  1507. RY*(  12) O  51                  0.00000     2.53508   
  1508. RY*(  13) O  51                  0.00000     5.94524   
  1509. RY*(  14) O  51                  0.00000    41.87894   
  1510. RY*(  15) O  51                  0.00000     6.26352   
  1511. RY*(  16) O  51                  0.00001     2.21389   
  1512. RY*(  17) O  51                  0.00000     6.12782   
  1513. RY*(  18) O  51                  0.00000     5.98940   
  1514. RY*(  19) O  51                  0.00000     6.03938   
  1515. RY*(  20) O  51                  0.00000     5.12562   
  1516. RY*(  21) O  51                  0.00000     5.00943   
  1517. RY*(  22) O  51                  0.00000     5.27035   
  1518. RY*(  23) O  51                  0.00000     5.32957   
  1519. RY*(  24) O  51                  0.00000     5.20809   
  1520. RY*(  25) O  51                  0.00000     5.39031   
  1521. RY*(  26) O  51                  0.00000     5.34511   
  1821. BD*(   1) O  50 - O  51          0.03117     0.04948   
  1822. BD*(   2) O  50 - O  51          0.03661    -0.04530   
  1823. BD*(   3) O  50 - O  51          0.22083    -0.24184  177(r),1496(g),1471(g)
                                                    179(r),1821(g),1474(g)
                                                    1500(g),178(r),1727(r)
                                                    1726(r),1785(r),1801(r)
                                                    1725(r),1746(r),357(r)
                                                    185(r),1728(r)
       -------------------------------
              Total Lewis    6.81880  ( 95.8246%)
        Valence non-Lewis    0.28861  (  4.0558%)
        Rydberg non-Lewis    0.00851  (  0.1196%)
       -------------------------------
            Total unit  3    7.11592  (100.0000%)
           Charge unit  3    0.88408

 Molecular unit  4  (H)
   194. LP (   1) H  54                  0.28084    -0.01336  1719(r),1533(g),9(r),1716(r)
                                                    247(r),1712(r),1724(r)
                                                    301(r),261(r),1534(g)
                                                    1536(g),305(r),1723(r)
                                                    1717(r),302(r),304(r),258(r)
                                                    221(r),264(r),1722(r),252(r)
                                                    270(r),256(r),195(r),230(r)
                                                    254(r),1718(r),257(r),255(r)
                                                    250(r),249(r),271(r),263(r)
                                                    313(r),269(r),307(r),177(r)
                                                    260(r)
  1532. RY*(   1) H  54                  0.00026     2.08267   
  1533. RY*(   2) H  54                  0.00021     2.05521   
  1534. RY*(   3) H  54                  0.00013     1.22988   
  1535. RY*(   4) H  54                  0.00011     2.30996   
  1536. RY*(   5) H  54                  0.00000     3.04518   
       -------------------------------
              Total Lewis    0.28084  ( 99.7476%)
        Valence non-Lewis    0.00000  (  0.0000%)
        Rydberg non-Lewis    0.00071  (  0.2524%)
       -------------------------------
            Total unit  4    0.28155  (100.0000%)
           Charge unit  4    0.21845
 1\1\GINC-NODE482\SP\UPBE1PBE\def2TZVP\C38H38Fe1N6O6(1+,6)\ZHARTOVSKA\1
 1-Sep-2022\0\\# PBE1PBE/def2TZVP empiricaldispersion=GD3BJ scf=maxcycl
 e=999 geom=check pop=nbo\\1a6m_III_H\\1,6\C,0,9.503,29.450001,2.528\C,
 0,10.705,29.33,3.406\N,0,10.972,30.184,4.45\C,0,11.799,28.49,3.348\C,0
 ,12.167,29.837,4.966\N,0,12.684,28.843,4.36\Fe,0,14.515,27.975,4.75\C,
 0,15.904,31.066,5.05\C,0,13.782,28.006001,8.099\C,0,13.251,24.816999,4
 .509\C,0,15.381,27.908001,1.499\N,0,14.784,29.263,6.257\C,0,15.32,30.5
 27,6.185\C,0,15.292,31.177,7.5\C,0,14.744,30.264,8.355\C,0,14.411,29.1
 12,7.593\C,0,14.477,30.427999,9.835\C,0,15.687,32.583,7.757\C,0,14.458
 ,33.523998,7.976\C,0,13.561,33.534,6.775\O,0,12.4,33.104,6.842\O,0,14.
 05,33.974998,5.683\N,0,13.664,26.679001,6.009\C,0,13.423,26.879,7.368\
 C,0,12.776,25.68,7.928\C,0,12.644,24.799999,6.938\C,0,13.185,25.434,5.
 76\C,0,12.364,25.563999,9.367\C,0,12.101,23.393,6.989\C,0,12.33544484,
 22.61511205,8.07366262\N,0,14.311,26.643999,3.267\C,0,13.834,25.344,3.
 365\C,0,14.05,24.629,2.134\C,0,14.671,25.493,1.316\C,0,14.805,26.75200
 1,2.018\C,0,13.686,23.193001,1.908\C,0,15.24,25.292999,-0.044\C,0,15.1
 57,24.198999,-0.766\N,0,15.389,29.280001,3.475\C,0,15.682,29.076,2.164
 \C,0,16.362,30.195,1.608\C,0,16.57,31.069,2.646\C,0,15.937,30.499001,3
 .808\C,0,16.872,30.306,0.198\C,0,17.386999,32.328999,2.587\C,0,18.889,
 32.016998,2.859\C,0,19.761999,33.226002,2.747\O,0,20.186001,33.643002,
 1.646\O,0,20.149,33.749001,3.83\O,0,16.131001,27.289,5.175\O,0,16.805,
 26.632,4.375\H,0,11.94184704,27.69901919,2.64171105\H,0,12.62895569,30
 .33883216,5.79041581\H,0,10.38508529,30.92828811,4.76869474\H,0,9.7343
 4852,29.07413045,1.55326968\H,0,8.69748747,28.88367956,2.94672377\H,0,
 9.215918,30.478175,2.45491005\H,0,11.53086522,23.00951256,6.16876606\H
 ,0,13.27179907,22.68136634,8.58722968\H,0,11.58419761,21.93467384,8.41
 64912\H,0,13.10623071,26.01994782,9.98837287\H,0,11.42601091,26.058477
 05,9.51041517\H,0,12.26612081,24.53089676,9.62780533\H,0,13.54740649,2
 8.00926417,9.14296132\H,0,15.27398744,30.98498077,10.28163445\H,0,13.5
 5411414,30.95101626,9.97512362\H,0,14.41405079,29.46399557,10.2950378\
 H,0,12.8102471,23.84567497,4.42434476\H,0,14.44685187,22.56317411,2.31
 948816\H,0,12.75187891,22.98243469,2.38547212\H,0,13.59936539,23.00806
 006,0.85767086\H,0,15.97636758,23.51132912,-0.79143422\H,0,14.27001464
 ,23.99540787,-1.32876782\H,0,15.76680459,26.11871544,-0.47477754\H,0,1
 5.61901743,27.88665359,0.45602733\H,0,17.81483795,29.80622709,0.119363
 97\H,0,16.17113032,29.85274244,-0.47150674\H,0,16.99298414,31.338026,-
 0.05731388\H,0,16.37558298,32.02047975,5.15713501\H,0,17.28776525,32.7
 6919021,1.6168019\H,0,17.02978184,33.0164586,3.32503469\H,0,19.2221061
 ,31.28493154,2.15329537\H,0,18.98394539,31.61366703,3.84551381\H,0,21.
 08745141,33.83695656,4.01213394\H,0,16.30498504,32.61373062,8.62995482
 \H,0,16.25121482,32.94114726,6.92136122\H,0,14.80676715,34.51848324,8.
 16109612\H,0,13.90293047,33.18349889,8.82503367\H,0,15.00189445,34.021
 61352,5.56757057\\Version=ES64L-G16RevA.03\State=6-A\HF=-3512.2653531\
 S2=8.93722\S2-1=0.\S2A=8.756487\RMSD=2.534e-09\Dipole=-0.9132446,-0.91
 14195,0.700026\Quadrupole=-8.68968,4.4698779,4.2198021,17.1330632,9.53
 12458,21.9205424\PG=C01 [X(C38H38Fe1N6O6)]\\@


 FRICTION IS A DRAG,
 AND ENTROPY AIN'T WHAT IT USED TO BE.
 Job cpu time:       6 days 16 hours 59 minutes 22.6 seconds.
 Elapsed time:       1 days 16 hours 23 minutes 42.9 seconds.
 File lengths (MBytes):  RWF=   3053 Int=      0 D2E=      0 Chk=    255 Scr=      1
 Normal termination of Gaussian 16 at Sun Sep 11 11:50:12 2022.
