 Initial command:
 /afs/math/software/gaussian/g16.A03/g16/l1.exe "/scratch/kleich_gaussian.s70RNhq/Gau-18837.inp" -scrdir="/scratch/kleich_gaussian.s70RNhq/"
 Entering Link 1 = /afs/math/software/gaussian/g16.A03/g16/l1.exe PID=     22268.
  
 Copyright (c) 1988,1990,1992,1993,1995,1998,2003,2009,2016,
            Gaussian, Inc.  All Rights Reserved.
  
 This is part of the Gaussian(R) 16 program.  It is based on
 the Gaussian(R) 09 system (copyright 2009, Gaussian, Inc.),
 the Gaussian(R) 03 system (copyright 2003, Gaussian, Inc.),
 the Gaussian(R) 98 system (copyright 1998, Gaussian, Inc.),
 the Gaussian(R) 94 system (copyright 1995, Gaussian, Inc.),
 the Gaussian 92(TM) system (copyright 1992, Gaussian, Inc.),
 the Gaussian 90(TM) system (copyright 1990, Gaussian, Inc.),
 the Gaussian 88(TM) system (copyright 1988, Gaussian, Inc.),
 the Gaussian 86(TM) system (copyright 1986, Carnegie Mellon
 University), and the Gaussian 82(TM) system (copyright 1983,
 Carnegie Mellon University). Gaussian is a federally registered
 trademark of Gaussian, Inc.
  
 This software contains proprietary and confidential information,
 including trade secrets, belonging to Gaussian, Inc.
  
 This software is provided under written license and may be
 used, copied, transmitted, or stored only in accord with that
 written license.
  
 The following legend is applicable only to US Government
 contracts under FAR:
  
                    RESTRICTED RIGHTS LEGEND
  
 Use, reproduction and disclosure by the US Government is
 subject to restrictions as set forth in subparagraphs (a)
 and (c) of the Commercial Computer Software - Restricted
 Rights clause in FAR 52.227-19.
  
 Gaussian, Inc.
 340 Quinnipiac St., Bldg. 40, Wallingford CT 06492
  
  
 ---------------------------------------------------------------
 Warning -- This program may not be used in any manner that
 competes with the business of Gaussian, Inc. or will provide
 assistance to any competitor of Gaussian, Inc.  The licensee
 of this program is prohibited from giving any competitor of
 Gaussian, Inc. access to this program.  By using this program,
 the user acknowledges that Gaussian, Inc. is engaged in the
 business of creating and licensing software in the field of
 computational chemistry and represents and warrants to the
 licensee that it is not a competitor of Gaussian, Inc. and that
 it will not use this program in any manner prohibited above.
 ---------------------------------------------------------------
  

 Cite this work as:
 Gaussian 16, Revision A.03,
 M. J. Frisch, G. W. Trucks, H. B. Schlegel, G. E. Scuseria, 
 M. A. Robb, J. R. Cheeseman, G. Scalmani, V. Barone, 
 G. A. Petersson, H. Nakatsuji, X. Li, M. Caricato, A. V. Marenich, 
 J. Bloino, B. G. Janesko, R. Gomperts, B. Mennucci, H. P. Hratchian, 
 J. V. Ortiz, A. F. Izmaylov, J. L. Sonnenberg, D. Williams-Young, 
 F. Ding, F. Lipparini, F. Egidi, J. Goings, B. Peng, A. Petrone, 
 T. Henderson, D. Ranasinghe, V. G. Zakrzewski, J. Gao, N. Rega, 
 G. Zheng, W. Liang, M. Hada, M. Ehara, K. Toyota, R. Fukuda, 
 J. Hasegawa, M. Ishida, T. Nakajima, Y. Honda, O. Kitao, H. Nakai, 
 T. Vreven, K. Throssell, J. A. Montgomery, Jr., J. E. Peralta, 
 F. Ogliaro, M. J. Bearpark, J. J. Heyd, E. N. Brothers, K. N. Kudin, 
 V. N. Staroverov, T. A. Keith, R. Kobayashi, J. Normand, 
 K. Raghavachari, A. P. Rendell, J. C. Burant, S. S. Iyengar, 
 J. Tomasi, M. Cossi, J. M. Millam, M. Klene, C. Adamo, R. Cammi, 
 J. W. Ochterski, R. L. Martin, K. Morokuma, O. Farkas, 
 J. B. Foresman, and D. J. Fox, Gaussian, Inc., Wallingford CT, 2016.
 
 ******************************************
 Gaussian 16:  ES64L-G16RevA.03 25-Dec-2016
                12-Oct-2022 
 ******************************************
 %nprocs=12
 Will use up to   12 processors via shared memory.
 %mem=16GB
 %chk=1aw3_II_S.chk
 ----------------------------------------------------------------------
 # PBE1PBE/def2TZVP empiricaldispersion=GD3BJ int=(grid=ultrafine) geom
 =check guess=read scrf=(smd,solvent=Chloroform)
 ----------------------------------------------------------------------
 1/29=2,38=1,172=1/1;
 2/12=2,40=1/2;
 3/5=44,7=101,11=2,14=-4,25=1,30=1,70=32201,72=7,74=-13,75=-5,116=-2,124=41/1,2,3;
 4/5=1/1;
 5/5=2,38=6,53=7/2;
 6/7=2,8=2,9=2,10=2,28=1/1;
 99/5=1,9=1/99;
 --------------
 1aw3_II_S_solv
 --------------
 Structure from the checkpoint file:  "1aw3_II_S.chk"
 Charge =  0 Multiplicity = 1
 Z-Matrix found in chk file.
 C,0,4.428,9.754,1.996
 C,0,3.012,9.72,2.522
 N,0,2.674,9.452,3.824
 C,0,1.843,9.805,1.81
 C,0,1.338,9.387,3.894
 N,0,0.779,9.575,2.689
 H,0,4.583,8.873,1.373
 H,0,5.099,9.671,2.852
 H,0,3.321,9.286,4.585
 H,0,1.751,9.989,0.755
 H,0,0.806,9.184,4.805
 C,0,-6.248,10.013,0.126
 C,0,-5.16,9.694,1.112
 N,0,-5.297,8.979,2.278
 C,0,-3.834,9.989,0.948
 C,0,-4.062,8.858,2.802
 N,0,-3.129,9.446,2.021
 H,0,-6.869,9.133,-0.016
 H,0,-5.763,10.207,-0.826
 H,0,-6.156,8.576,2.649
 H,0,-3.408,10.531,0.12
 H,0,-3.877,8.333,3.724
 C,0,-1.333,12.913,2.873
 C,0,-0.466,10.195,-1.128
 C,0,-1.143,6.149,1.56
 C,0,-1.72,8.874,5.632
 C,0,-1.123,12.495,1.558
 C,0,-1.063,13.397,0.434
 C,0,-0.748,12.656,-0.682
 C,0,-0.715,11.269,-0.274
 C,0,-0.515,13.218,-2.067
 C,0,-1.36,14.878,0.473
 C,0,-2.786,15.185,0.941
 C,0,-3.153,16.658,0.83
 O,0,-2.5,17.359,0.027
 O,0,-4.098,17.055,1.544
 C,0,-0.534,8.873,-0.708
 C,0,-0.314,7.74,-1.577
 C,0,-0.563,6.629,-0.812
 C,0,-0.863,7.033,0.532
 C,0,0.108,7.775,-3.026
 C,0,-0.44,5.191,-1.257
 C,0,-0.981,4.782,-2.415
 C,0,-1.347,6.551,2.877
 C,0,-1.673,5.652,3.954
 C,0,-1.699,6.409,5.097
 C,0,-1.571,7.799,4.746
 C,0,-1.997,4.189,3.838
 C,0,-2.042,5.893,6.476
 C,0,-1.558,4.719,6.939
 C,0,-1.672,10.215,5.225
 C,0,-1.869,11.355,6.093
 C,0,-1.72,12.494,5.327
 C,0,-1.482,12.058,3.967
 C,0,-2.221,11.305,7.561
 C,0,-1.929,13.933,5.773
 C,0,-1.24,14.359,7.076
 C,0,-1.561,15.812,7.393
 O,0,-0.742,16.674,7.011
 O,0,-2.63,16.031,8.002
 N,0,-0.975,11.234,1.077
 N,0,-0.821,8.393,0.554
 N,0,-1.332,7.823,3.394
 N,0,-1.461,10.7,3.968
 Fe,0,-1.148,9.534,2.257
 H,0,-0.257,10.379,-2.168
 H,0,-1.196,5.104,1.306
 H,0,-1.899,8.65,6.671
 H,0,-0.18,4.44,-0.536
 H,0,-2.635,6.508,7.131
 H,0,-1.347,13.973,3.044
 H,0,0.244,13.998,-2.019
 H,0,-0.176,12.464,-2.774
 H,0,-1.442,13.654,-2.439
 H,0,-0.665,15.381,1.137
 H,0,-1.23,15.299,-0.524
 H,0,-3.456,14.608,0.324
 H,0,-2.954,14.883,1.971
 H,0,0.921,8.486,-3.162
 H,0,0.467,6.797,-3.34
 H,0,-0.741,8.059,-3.645
 H,0,-1.84,5.341,-2.723
 H,0,-0.882,3.752,-2.724
 H,0,-1.096,3.595,3.995
 H,0,-2.746,3.95,4.592
 H,0,-2.42,3.965,2.862
 H,0,-0.823,4.169,6.371
 H,0,-1.719,4.449,7.972
 H,0,-1.321,11.466,8.155
 H,0,-2.959,12.076,7.784
 H,0,-2.658,10.349,7.838
 H,0,-1.535,14.623,5.031
 H,0,-3.002,14.12,5.836
 H,0,-1.564,13.767,7.925
 H,0,-0.163,14.253,6.971
 H,0,4.60592924,10.65110633,1.44062498
 H,0,-6.83464038,10.83913137,0.46988957
 H,0,-3.91740169,17.51318705,2.36804422
 H,0,0.20042932,16.50684755,7.08507452
 Recover connectivity data from disk.
 Center=     -1.33725943     10.20181083      2.41749125
 Residue   0                        charge    0.00000000 layers R        AvRTP=      7.20799197     94.37794463     71.31600884
 Residue   4                        charge    0.00000000 layers R        AvRTP=      0.00000000      0.00000000      0.00000000
 Residue   2 PDB Number    63_A HIS charge    0.00000000 layers R        AvRTP=      3.93924200    189.95149815    106.72305001
 Residue   3 PDB Number    96_A HEM charge    0.00000000 layers R        AvRTP=      0.09971393    164.60152012     41.54271360
 Residue   1 PDB Number    39_A HIS charge    0.00000000 layers R        AvRTP=      4.24209913    351.99191005     86.01719095
 Stoichiometry    C42H44FeN8O4
 Framework group  C1[X(C42H44FeN8O4)]
 Deg. of freedom   291
 Full point group                 C1      NOp   1
 Largest Abelian subgroup         C1      NOp   1
 Largest concise Abelian subgroup C1      NOp   1
                         Standard orientation:                         
 ---------------------------------------------------------------------
 Center     Atomic      Atomic             Coordinates (Angstroms)
 Number     Number       Type             X           Y           Z
 ---------------------------------------------------------------------
      1          6           0       -1.448354   -0.350397    5.649956
      2          6           0       -1.144289    0.176523    4.266920
      3          7           0       -0.956512    1.501253    3.965085
      4          6           0       -1.137778   -0.513185    3.081597
      5          6           0       -0.831320    1.603380    2.635455
      6          7           0       -0.954038    0.406028    2.042885
      7          1           0       -2.489932   -0.671197    5.672718
      8          1           0       -1.347314    0.481330    6.348445
      9          1           0       -0.959955    2.268689    4.625628
     10          1           0       -1.276016   -1.572094    2.959344
     11          1           0       -0.678031    2.538497    2.129280
     12          6           0       -0.457650   -2.085126   -5.006037
     13          6           0       -0.591051   -1.061441   -3.914261
     14          7           0       -0.891683    0.270313   -4.074272
     15          6           0       -0.526728   -1.324142   -2.572976
     16          6           0       -0.997935    0.791707   -2.836815
     17          7           0       -0.797563   -0.143860   -1.882478
     18          1           0       -1.255004   -1.940027   -5.729486
     19          1           0       -0.626189   -3.055884   -4.549542
     20          1           0       -1.052220    0.757896   -4.954285
     21          1           0       -0.321523   -2.284268   -2.129273
     22          1           0       -1.233793    1.828865   -2.667678
     23          6           0        2.513870   -0.429899    0.336577
     24          6           0       -1.384615   -3.400408    0.690272
     25          6           0       -4.296082    0.417483   -0.310159
     26          6           0       -0.405069    3.449967   -0.371803
     27          6           0        1.690452   -1.552756    0.432604
     28          6           0        2.189966   -2.901690    0.539583
     29          6           0        1.109689   -3.736413    0.712793
     30          6           0       -0.078477   -2.918785    0.607595
     31          6           0        1.186944   -5.230011    0.939850
     32          6           0        3.636446   -3.320494    0.415533
     33          6           0        4.245824   -2.954350   -0.941429
     34          6           0        5.647440   -3.512458   -1.143233
     35          8           0        5.982325   -4.500751   -0.454939
     36          8           0        6.357705   -2.945926   -2.000551
     37          6           0       -2.495274   -2.590365    0.492851
     38          6           0       -3.858112   -3.067615    0.539292
     39          6           0       -4.641538   -1.992955    0.203292
     40          6           0       -3.811326   -0.837148    0.017793
     41          6           0       -4.321228   -4.460794    0.890695
     42          6           0       -6.150339   -1.971430    0.139603
     43          6           0       -6.824352   -2.939161   -0.500811
     44          6           0       -3.487893    1.547135   -0.401957
     45          6           0       -3.966107    2.853530   -0.774851
     46          6           0       -2.898168    3.705621   -0.658143
     47          6           0       -1.709599    2.939389   -0.390043
     48          6           0       -5.342455    3.200724   -1.268738
     49          6           0       -2.920252    5.180519   -0.989404
     50          6           0       -3.946258    5.979166   -0.620114
     51          6           0        0.729977    2.646621   -0.191424
     52          6           0        2.096273    3.120484   -0.214294
     53          6           0        2.918178    2.037344    0.025620
     54          6           0        2.060522    0.876967    0.145165
     55          6           0        2.542403    4.535569   -0.497012
     56          6           0        4.438856    2.017453    0.004137
     57          6           0        5.155057    3.116043    0.800481
     58          6           0        6.663260    2.970472    0.663110
     59          8           0        7.258594    2.330543    1.555185
     60          8           0        7.188670    3.493825   -0.342698
     61          7           0        0.334591   -1.620636    0.412115
     62          7           0       -2.526151   -1.238501    0.215500
     63          7           0       -2.130761    1.643944   -0.216703
     64          7           0        0.776496    1.298837    0.011331
     65         26           0       -0.886986    0.030323    0.104848
     66          1           0       -1.555452   -4.448533    0.867429
     67          1           0       -5.353677    0.500726   -0.494311
     68          1           0       -0.276000    4.509201   -0.523800
     69          1           0       -6.670363   -1.056123    0.347517
     70          1           0       -2.065806    5.619291   -1.475511
     71          1           0        3.568470   -0.595922    0.451871
     72          1           0        1.844057   -5.435048    1.784212
     73          1           0        0.216757   -5.672174    1.155525
     74          1           0        1.599021   -5.708158    0.051382
     75          1           0        4.228779   -2.853302    1.195150
     76          1           0        3.712238   -4.400332    0.543420
     77          1           0        3.594959   -3.354201   -1.702358
     78          1           0        4.297157   -1.879608   -1.091840
     79          1           0       -3.792294   -4.819970    1.771722
     80          1           0       -5.384883   -4.460124    1.120038
     81          1           0       -4.137938   -5.127505    0.050148
     82          1           0       -6.284974   -3.395400   -1.304641
     83          1           0       -7.903426   -2.914609   -0.535136
     84          1           0       -5.966327    3.523788   -0.434653
     85          1           0       -5.244437    4.000263   -2.002065
     86          1           0       -5.800671    2.347269   -1.762029
     87          1           0       -4.730243    5.601300    0.018583
     88          1           0       -3.864668    7.046754   -0.759785
     89          1           0        2.765161    5.039916    0.443610
     90          1           0        3.429633    4.516965   -1.130488
     91          1           0        1.778970    5.100424   -1.025919
     92          1           0        4.814055    1.093549    0.437183
     93          1           0        4.767252    2.031736   -1.036160
     94          1           0        4.896491    4.110461    0.453326
     95          1           0        4.889749    3.036667    1.851909
     96          1           0       -0.793793   -1.158627    5.901383
     97          1           0        0.499954   -2.007654   -5.477092
     98          1           0        7.020348   -2.306755   -1.728586
     99          1           0        7.007068    2.441919    2.474930
 ---------------------------------------------------------------------
 Rotational constants (GHZ):           0.0609970           0.0416828           0.0332059
 Standard basis: def2TZVP (5D, 7F)
 There are  2260 symmetry adapted cartesian basis functions of A   symmetry.
 There are  1983 symmetry adapted basis functions of A   symmetry.
  1983 basis functions,  3208 primitive gaussians,  2260 cartesian basis functions
   205 alpha electrons      205 beta electrons
       nuclear repulsion energy      8826.4982644515 Hartrees.
 NAtoms=   99 NActive=   99 NUniq=   99 SFac= 1.00D+00 NAtFMM=   60 NAOKFM=T Big=T
 Integral buffers will be    131072 words long.
 Raffenetti 2 integral format.
 Two-electron integral symmetry is turned on.
 Nuclear repulsion after empirical dispersion term =     8826.3554469331 Hartrees.
 ------------------------------------------------------------------------------
 Polarizable Continuum Model (PCM)
 =================================
 Model                : PCM.
 Atomic radii         : SMD-Coulomb.
 Polarization charges : Total charges.
 Charge compensation  : None.
 Solution method      : On-the-fly selection.
 Cavity type          : VdW (van der Waals Surface) (Alpha=1.000).
 Cavity algorithm     : GePol (No added spheres)
                        Default sphere list used, NSphG=   99.
                        Lebedev-Laikov grids with approx.  5.0 points / Ang**2.
                        Smoothing algorithm: York/Karplus (Gamma=1.0000).
                        Polarization charges: spherical gaussians, with
                                              point-specific exponents (IZeta= 3).
                        Self-potential: point-specific (ISelfS= 7).
                        Self-field    : sphere-specific E.n sum rule (ISelfD= 2).
 Solvent              : Chloroform, Eps=   4.711300 Eps(inf)=   2.090627
 ------------------------------------------------------------------------------
 ------------------------------------------------------------------------------
 Atomic radii for non-electrostatic terms: SMD-CDS.
 ------------------------------------------------------------------------------
 Nuclear repulsion after PCM non-electrostatic terms =     8826.3323144843 Hartrees.
 One-electron integrals computed using PRISM.
   1 Symmetry operations used in ECPInt.
 ECPInt:  NShTT=  308505 NPrTT=  954269 LenC2=  223323 LenP2D=  444511.
 LDataN:  DoStor=T MaxTD1= 6 Len=  172
 NBasis=  1983 RedAO= T EigKep=  3.25D-06  NBF=  1983
 NBsUse=  1983 1.00D-06 EigRej= -1.00D+00 NBFU=  1983
 Initial guess from the checkpoint file:  "1aw3_II_S.chk"
 B after Tr=    -0.000000    0.000000   -0.000000
         Rot=    1.000000    0.000000    0.000000    0.000000 Ang=   0.00 deg.
 Requested convergence on RMS density matrix=1.00D-08 within 128 cycles.
 Requested convergence on MAX density matrix=1.00D-06.
 Requested convergence on             energy=1.00D-06.
 No special actions if energy rises.
 Inv3:  Mode=1 IEnd=   150209328.
 Iteration    1 A*A^-1 deviation from unit magnitude is 1.28D-14 for   7049.
 Iteration    1 A*A^-1 deviation from orthogonality  is 5.43D-15 for   5720   1763.
 Iteration    1 A^-1*A deviation from unit magnitude is 1.31D-14 for   7049.
 Iteration    1 A^-1*A deviation from orthogonality  is 3.43D-15 for   4693   4662.
 EnCoef did     6 forward-backward iterations
 Error on total polarization charges =  0.06347
 SCF Done:  E(RPBE1PBE) =  -3627.75500087     A.U. after   14 cycles
            NFock= 14  Conv=0.42D-08     -V/T= 2.0038
 SMD-CDS (non-electrostatic) energy       (kcal/mol) =     -14.52
 (included in total energy above)

 **********************************************************************

            Population analysis using the SCF density.

 **********************************************************************

 Orbital symmetries:
       Occupied  (A) (A) (A) (A) (A) (A) (A) (A) (A) (A) (A) (A)
                 (A) (A) (A) (A) (A) (A) (A) (A) (A) (A) (A) (A)
                 (A) (A) (A) (A) (A) (A) (A) (A) (A) (A) (A) (A)
                 (A) (A) (A) (A) (A) (A) (A) (A) (A) (A) (A) (A)
                 (A) (A) (A) (A) (A) (A) (A) (A) (A) (A) (A) (A)
                 (A) (A) (A) (A) (A) (A) (A) (A) (A) (A) (A) (A)
                 (A) (A) (A) (A) (A) (A) (A) (A) (A) (A) (A) (A)
                 (A) (A) (A) (A) (A) (A) (A) (A) (A) (A) (A) (A)
                 (A) (A) (A) (A) (A) (A) (A) (A) (A) (A) (A) (A)
                 (A) (A) (A) (A) (A) (A) (A) (A) (A) (A) (A) (A)
                 (A) (A) (A) (A) (A) (A) (A) (A) (A) (A) (A) (A)
                 (A) (A) (A) (A) (A) (A) (A) (A) (A) (A) (A) (A)
                 (A) (A) (A) (A) (A) (A) (A) (A) (A) (A) (A) (A)
                 (A) (A) (A) (A) (A) (A) (A) (A) (A) (A) (A) (A)
                 (A) (A) (A) (A) (A) (A) (A) (A) (A) (A) (A) (A)
                 (A) (A) (A) (A) (A) (A) (A) (A) (A) (A) (A) (A)
                 (A) (A) (A) (A) (A) (A) (A) (A) (A) (A) (A) (A)
                 (A)
       Virtual   (A) (A) (A) (A) (A) (A) (A) (A) (A) (A) (A) (A)
                 (A) (A) (A) (A) (A) (A) (A) (A) (A) (A) (A) (A)
                 (A) (A) (A) (A) (A) (A) (A) (A) (A) (A) (A) (A)
                 (A) (A) (A) (A) (A) (A) (A) (A) (A) (A) (A) (A)
                 (A) (A) (A) (A) (A) (A) (A) (A) (A) (A) (A) (A)
                 (A) (A) (A) (A) (A) (A) (A) (A) (A) (A) (A) (A)
                 (A) (A) (A) (A) (A) (A) (A) (A) (A) (A) (A) (A)
                 (A) (A) (A) (A) (A) (A) (A) (A) (A) (A) (A) (A)
                 (A) (A) (A) (A) (A) (A) (A) (A) (A) (A) (A) (A)
                 (A) (A) (A) (A) (A) (A) (A) (A) (A) (A) (A) (A)
                 (A) (A) (A) (A) (A) (A) (A) (A) (A) (A) (A) (A)
                 (A) (A) (A) (A) (A) (A) (A) (A) (A) (A) (A) (A)
                 (A) (A) (A) (A) (A) (A) (A) (A) (A) (A) (A) (A)
                 (A) (A) (A) (A) (A) (A) (A) (A) (A) (A) (A) (A)
                 (A) (A) (A) (A) (A) (A) (A) (A) (A) (A) (A) (A)
                 (A) (A) (A) (A) (A) (A) (A) (A) (A) (A) (A) (A)
                 (A) (A) (A) (A) (A) (A) (A) (A) (A) (A) (A) (A)
                 (A) (A) (A) (A) (A) (A) (A) (A) (A) (A) (A) (A)
                 (A) (A) (A) (A) (A) (A) (A) (A) (A) (A) (A) (A)
                 (A) (A) (A) (A) (A) (A) (A) (A) (A) (A) (A) (A)
                 (A) (A) (A) (A) (A) (A) (A) (A) (A) (A) (A) (A)
                 (A) (A) (A) (A) (A) (A) (A) (A) (A) (A) (A) (A)
                 (A) (A) (A) (A) (A) (A) (A) (A) (A) (A) (A) (A)
                 (A) (A) (A) (A) (A) (A) (A) (A) (A) (A) (A) (A)
                 (A) (A) (A) (A) (A) (A) (A) (A) (A) (A) (A) (A)
                 (A) (A) (A) (A) (A) (A) (A) (A) (A) (A) (A) (A)
                 (A) (A) (A) (A) (A) (A) (A) (A) (A) (A) (A) (A)
                 (A) (A) (A) (A) (A) (A) (A) (A) (A) (A) (A) (A)
                 (A) (A) (A) (A) (A) (A) (A) (A) (A) (A) (A) (A)
                 (A) (A) (A) (A) (A) (A) (A) (A) (A) (A) (A) (A)
                 (A) (A) (A) (A) (A) (A) (A) (A) (A) (A) (A) (A)
                 (A) (A) (A) (A) (A) (A) (A) (A) (A) (A) (A) (A)
                 (A) (A) (A) (A) (A) (A) (A) (A) (A) (A) (A) (A)
                 (A) (A) (A) (A) (A) (A) (A) (A) (A) (A) (A) (A)
                 (A) (A) (A) (A) (A) (A) (A) (A) (A) (A) (A) (A)
                 (A) (A) (A) (A) (A) (A) (A) (A) (A) (A) (A) (A)
                 (A) (A) (A) (A) (A) (A) (A) (A) (A) (A) (A) (A)
                 (A) (A) (A) (A) (A) (A) (A) (A) (A) (A) (A) (A)
                 (A) (A) (A) (A) (A) (A) (A) (A) (A) (A) (A) (A)
                 (A) (A) (A) (A) (A) (A) (A) (A) (A) (A) (A) (A)
                 (A) (A) (A) (A) (A) (A) (A) (A) (A) (A) (A) (A)
                 (A) (A) (A) (A) (A) (A) (A) (A) (A) (A) (A) (A)
                 (A) (A) (A) (A) (A) (A) (A) (A) (A) (A) (A) (A)
                 (A) (A) (A) (A) (A) (A) (A) (A) (A) (A) (A) (A)
                 (A) (A) (A) (A) (A) (A) (A) (A) (A) (A) (A) (A)
                 (A) (A) (A) (A) (A) (A) (A) (A) (A) (A) (A) (A)
                 (A) (A) (A) (A) (A) (A) (A) (A) (A) (A) (A) (A)
                 (A) (A) (A) (A) (A) (A) (A) (A) (A) (A) (A) (A)
                 (A) (A) (A) (A) (A) (A) (A) (A) (A) (A) (A) (A)
                 (A) (A) (A) (A) (A) (A) (A) (A) (A) (A) (A) (A)
                 (A) (A) (A) (A) (A) (A) (A) (A) (A) (A) (A) (A)
                 (A) (A) (A) (A) (A) (A) (A) (A) (A) (A) (A) (A)
                 (A) (A) (A) (A) (A) (A) (A) (A) (A) (A) (A) (A)
                 (A) (A) (A) (A) (A) (A) (A) (A) (A) (A) (A) (A)
                 (A) (A) (A) (A) (A) (A) (A) (A) (A) (A) (A) (A)
                 (A) (A) (A) (A) (A) (A) (A) (A) (A) (A) (A) (A)
                 (A) (A) (A) (A) (A) (A) (A) (A) (A) (A) (A) (A)
                 (A) (A) (A) (A) (A) (A) (A) (A) (A) (A) (A) (A)
                 (A) (A) (A) (A) (A) (A) (A) (A) (A) (A) (A) (A)
                 (A) (A) (A) (A) (A) (A) (A) (A) (A) (A) (A) (A)
                 (A) (A) (A) (A) (A) (A) (A) (A) (A) (A) (A) (A)
                 (A) (A) (A) (A) (A) (A) (A) (A) (A) (A) (A) (A)
                 (A) (A) (A) (A) (A) (A) (A) (A) (A) (A) (A) (A)
                 (A) (A) (A) (A) (A) (A) (A) (A) (A) (A) (A) (A)
                 (A) (A) (A) (A) (A) (A) (A) (A) (A) (A) (A) (A)
                 (A) (A) (A) (A) (A) (A) (A) (A) (A) (A) (A) (A)
                 (A) (A) (A) (A) (A) (A) (A) (A) (A) (A) (A) (A)
                 (A) (A) (A) (A) (A) (A) (A) (A) (A) (A) (A) (A)
                 (A) (A) (A) (A) (A) (A) (A) (A) (A) (A) (A) (A)
                 (A) (A) (A) (A) (A) (A) (A) (A) (A) (A) (A) (A)
                 (A) (A) (A) (A) (A) (A) (A) (A) (A) (A) (A) (A)
                 (A) (A) (A) (A) (A) (A) (A) (A) (A) (A) (A) (A)
                 (A) (A) (A) (A) (A) (A) (A) (A) (A) (A) (A) (A)
                 (A) (A) (A) (A) (A) (A) (A) (A) (A) (A) (A) (A)
                 (A) (A) (A) (A) (A) (A) (A) (A) (A) (A) (A) (A)
                 (A) (A) (A) (A) (A) (A) (A) (A) (A) (A) (A) (A)
                 (A) (A) (A) (A) (A) (A) (A) (A) (A) (A) (A) (A)
                 (A) (A) (A) (A) (A) (A) (A) (A) (A) (A) (A) (A)
                 (A) (A) (A) (A) (A) (A) (A) (A) (A) (A) (A) (A)
                 (A) (A) (A) (A) (A) (A) (A) (A) (A) (A) (A) (A)
                 (A) (A) (A) (A) (A) (A) (A) (A) (A) (A) (A) (A)
                 (A) (A) (A) (A) (A) (A) (A) (A) (A) (A) (A) (A)
                 (A) (A) (A) (A) (A) (A) (A) (A) (A) (A) (A) (A)
                 (A) (A) (A) (A) (A) (A) (A) (A) (A) (A) (A) (A)
                 (A) (A) (A) (A) (A) (A) (A) (A) (A) (A) (A) (A)
                 (A) (A) (A) (A) (A) (A) (A) (A) (A) (A) (A) (A)
                 (A) (A) (A) (A) (A) (A) (A) (A) (A) (A) (A) (A)
                 (A) (A) (A) (A) (A) (A) (A) (A) (A) (A) (A) (A)
                 (A) (A) (A) (A) (A) (A) (A) (A) (A) (A) (A) (A)
                 (A) (A) (A) (A) (A) (A) (A) (A) (A) (A) (A) (A)
                 (A) (A) (A) (A) (A) (A) (A) (A) (A) (A) (A) (A)
                 (A) (A) (A) (A) (A) (A) (A) (A) (A) (A) (A) (A)
                 (A) (A) (A) (A) (A) (A) (A) (A) (A) (A) (A) (A)
                 (A) (A) (A) (A) (A) (A) (A) (A) (A) (A) (A) (A)
                 (A) (A) (A) (A) (A) (A) (A) (A) (A) (A) (A) (A)
                 (A) (A) (A) (A) (A) (A) (A) (A) (A) (A) (A) (A)
                 (A) (A) (A) (A) (A) (A) (A) (A) (A) (A) (A) (A)
                 (A) (A) (A) (A) (A) (A) (A) (A) (A) (A) (A) (A)
                 (A) (A) (A) (A) (A) (A) (A) (A) (A) (A) (A) (A)
                 (A) (A) (A) (A) (A) (A) (A) (A) (A) (A) (A) (A)
                 (A) (A) (A) (A) (A) (A) (A) (A) (A) (A) (A) (A)
                 (A) (A) (A) (A) (A) (A) (A) (A) (A) (A) (A) (A)
                 (A) (A) (A) (A) (A) (A) (A) (A) (A) (A) (A) (A)
                 (A) (A) (A) (A) (A) (A) (A) (A) (A) (A) (A) (A)
                 (A) (A) (A) (A) (A) (A) (A) (A) (A) (A) (A) (A)
                 (A) (A) (A) (A) (A) (A) (A) (A) (A) (A) (A) (A)
                 (A) (A) (A) (A) (A) (A) (A) (A) (A) (A) (A) (A)
                 (A) (A) (A) (A) (A) (A) (A) (A) (A) (A) (A) (A)
                 (A) (A) (A) (A) (A) (A) (A) (A) (A) (A) (A) (A)
                 (A) (A) (A) (A) (A) (A) (A) (A) (A) (A) (A) (A)
                 (A) (A) (A) (A) (A) (A) (A) (A) (A) (A) (A) (A)
                 (A) (A) (A) (A) (A) (A) (A) (A) (A) (A) (A) (A)
                 (A) (A) (A) (A) (A) (A) (A) (A) (A) (A) (A) (A)
                 (A) (A) (A) (A) (A) (A) (A) (A) (A) (A) (A) (A)
                 (A) (A) (A) (A) (A) (A) (A) (A) (A) (A) (A) (A)
                 (A) (A) (A) (A) (A) (A) (A) (A) (A) (A) (A) (A)
                 (A) (A) (A) (A) (A) (A) (A) (A) (A) (A) (A) (A)
                 (A) (A) (A) (A) (A) (A) (A) (A) (A) (A) (A) (A)
                 (A) (A) (A) (A) (A) (A) (A) (A) (A) (A) (A) (A)
                 (A) (A) (A) (A) (A) (A) (A) (A) (A) (A) (A) (A)
                 (A) (A) (A) (A) (A) (A) (A) (A) (A) (A) (A) (A)
                 (A) (A) (A) (A) (A) (A) (A) (A) (A) (A) (A) (A)
                 (A) (A) (A) (A) (A) (A) (A) (A) (A) (A) (A) (A)
                 (A) (A) (A) (A) (A) (A) (A) (A) (A) (A) (A) (A)
                 (A) (A) (A) (A) (A) (A) (A) (A) (A) (A) (A) (A)
                 (A) (A) (A) (A) (A) (A) (A) (A) (A) (A) (A) (A)
                 (A) (A) (A) (A) (A) (A) (A) (A) (A) (A) (A) (A)
                 (A) (A) (A) (A) (A) (A) (A) (A) (A) (A) (A) (A)
                 (A) (A) (A) (A) (A) (A) (A) (A) (A) (A) (A) (A)
                 (A) (A) (A) (A) (A) (A) (A) (A) (A) (A) (A) (A)
                 (A) (A) (A) (A) (A) (A) (A) (A) (A) (A) (A) (A)
                 (A) (A) (A) (A) (A) (A) (A) (A) (A) (A) (A) (A)
                 (A) (A) (A) (A) (A) (A) (A) (A) (A) (A) (A) (A)
                 (A) (A) (A) (A) (A) (A) (A) (A) (A) (A) (A) (A)
                 (A) (A) (A) (A) (A) (A) (A) (A) (A) (A) (A) (A)
                 (A) (A) (A) (A) (A) (A) (A) (A) (A) (A) (A) (A)
                 (A) (A) (A) (A) (A) (A) (A) (A) (A) (A) (A) (A)
                 (A) (A) (A) (A) (A) (A) (A) (A) (A) (A) (A) (A)
                 (A) (A) (A) (A) (A) (A) (A) (A) (A) (A) (A) (A)
                 (A) (A) (A) (A) (A) (A) (A) (A) (A) (A) (A) (A)
                 (A) (A) (A) (A) (A) (A) (A) (A) (A) (A) (A) (A)
                 (A) (A) (A) (A) (A) (A) (A) (A) (A) (A) (A) (A)
                 (A) (A) (A) (A) (A) (A) (A) (A) (A) (A) (A) (A)
                 (A) (A) (A) (A) (A) (A) (A) (A) (A) (A) (A) (A)
                 (A) (A) (A) (A) (A) (A) (A) (A) (A) (A) (A) (A)
                 (A) (A) (A) (A) (A) (A) (A) (A) (A) (A) (A) (A)
                 (A) (A) (A) (A) (A) (A) (A) (A) (A) (A) (A) (A)
                 (A) (A) (A) (A) (A) (A) (A) (A) (A) (A) (A) (A)
                 (A) (A)
 The electronic state is 1-A.
 Alpha  occ. eigenvalues -- -256.30063 -30.06880 -25.89628 -25.89380 -25.89344
 Alpha  occ. eigenvalues --  -19.26560 -19.24933 -19.18559 -19.18387 -14.43797
 Alpha  occ. eigenvalues --  -14.43630 -14.38828 -14.38700 -14.36516 -14.36463
 Alpha  occ. eigenvalues --  -14.36217 -14.36096 -10.35467 -10.35377 -10.27327
 Alpha  occ. eigenvalues --  -10.26922 -10.25170 -10.25078 -10.24582 -10.24360
 Alpha  occ. eigenvalues --  -10.24249 -10.24239 -10.24231 -10.24192 -10.23904
 Alpha  occ. eigenvalues --  -10.23903 -10.23047 -10.22844 -10.22604 -10.22558
 Alpha  occ. eigenvalues --  -10.22552 -10.22424 -10.22401 -10.22084 -10.22000
 Alpha  occ. eigenvalues --  -10.21982 -10.21941 -10.21918 -10.21870 -10.21782
 Alpha  occ. eigenvalues --  -10.21745 -10.21741 -10.21688 -10.21509 -10.21481
 Alpha  occ. eigenvalues --  -10.21459 -10.21399 -10.21217 -10.20950 -10.20911
 Alpha  occ. eigenvalues --  -10.20680 -10.20674 -10.20587 -10.20559  -3.41367
 Alpha  occ. eigenvalues --   -2.17190  -2.16716  -2.16661  -1.16995  -1.16128
 Alpha  occ. eigenvalues --   -1.04407  -1.04141  -1.03459  -1.03158  -0.97372
 Alpha  occ. eigenvalues --   -0.96565  -0.96459  -0.95620  -0.89573  -0.89450
 Alpha  occ. eigenvalues --   -0.83295  -0.82622  -0.82189  -0.81873  -0.81702
 Alpha  occ. eigenvalues --   -0.80637  -0.80454  -0.79563  -0.79428  -0.78158
 Alpha  occ. eigenvalues --   -0.77579  -0.76771  -0.76174  -0.75286  -0.73394
 Alpha  occ. eigenvalues --   -0.71727  -0.71103  -0.70683  -0.70491  -0.70211
 Alpha  occ. eigenvalues --   -0.69057  -0.68966  -0.68496  -0.66112  -0.65595
 Alpha  occ. eigenvalues --   -0.64966  -0.63789  -0.63283  -0.63120  -0.60823
 Alpha  occ. eigenvalues --   -0.60798  -0.60407  -0.59662  -0.58604  -0.58161
 Alpha  occ. eigenvalues --   -0.55237  -0.54816  -0.54662  -0.54031  -0.53858
 Alpha  occ. eigenvalues --   -0.53245  -0.52589  -0.52505  -0.51891  -0.51335
 Alpha  occ. eigenvalues --   -0.51134  -0.49922  -0.49730  -0.49356  -0.49061
 Alpha  occ. eigenvalues --   -0.48732  -0.48170  -0.47450  -0.46831  -0.46533
 Alpha  occ. eigenvalues --   -0.46499  -0.46246  -0.45779  -0.45553  -0.45212
 Alpha  occ. eigenvalues --   -0.44766  -0.44601  -0.43823  -0.43682  -0.43622
 Alpha  occ. eigenvalues --   -0.43321  -0.43163  -0.43075  -0.42553  -0.42383
 Alpha  occ. eigenvalues --   -0.42315  -0.41991  -0.41824  -0.41754  -0.41593
 Alpha  occ. eigenvalues --   -0.41403  -0.41382  -0.40975  -0.40820  -0.40458
 Alpha  occ. eigenvalues --   -0.40314  -0.40022  -0.39943  -0.39794  -0.39626
 Alpha  occ. eigenvalues --   -0.39282  -0.39190  -0.38961  -0.38606  -0.38335
 Alpha  occ. eigenvalues --   -0.37939  -0.37773  -0.37412  -0.36814  -0.36654
 Alpha  occ. eigenvalues --   -0.36486  -0.36382  -0.35972  -0.35016  -0.34694
 Alpha  occ. eigenvalues --   -0.34366  -0.34277  -0.33933  -0.33113  -0.33083
 Alpha  occ. eigenvalues --   -0.32681  -0.32323  -0.32007  -0.31200  -0.31074
 Alpha  occ. eigenvalues --   -0.30326  -0.29415  -0.28911  -0.28329  -0.28260
 Alpha  occ. eigenvalues --   -0.28022  -0.27656  -0.27377  -0.26928  -0.23951
 Alpha  occ. eigenvalues --   -0.23603  -0.23103  -0.22883  -0.22447  -0.21983
 Alpha  occ. eigenvalues --   -0.19391  -0.19057  -0.18978  -0.17949  -0.17499
 Alpha virt. eigenvalues --   -0.07265  -0.07174  -0.02512  -0.00815  -0.00436
 Alpha virt. eigenvalues --    0.00148   0.01102   0.02330   0.02837   0.03319
 Alpha virt. eigenvalues --    0.03696   0.04118   0.04822   0.05171   0.05303
 Alpha virt. eigenvalues --    0.05468   0.05641   0.05798   0.06035   0.06199
 Alpha virt. eigenvalues --    0.06310   0.06986   0.07439   0.07498   0.07899
 Alpha virt. eigenvalues --    0.08015   0.08289   0.08392   0.08594   0.08781
 Alpha virt. eigenvalues --    0.09422   0.09808   0.10044   0.10306   0.10531
 Alpha virt. eigenvalues --    0.10848   0.10988   0.11163   0.11391   0.12025
 Alpha virt. eigenvalues --    0.12127   0.12298   0.12423   0.12512   0.12640
 Alpha virt. eigenvalues --    0.13000   0.13136   0.13370   0.13578   0.13816
 Alpha virt. eigenvalues --    0.14044   0.14194   0.14693   0.14703   0.14871
 Alpha virt. eigenvalues --    0.15154   0.15342   0.15395   0.15597   0.15612
 Alpha virt. eigenvalues --    0.15779   0.15873   0.15989   0.16150   0.16236
 Alpha virt. eigenvalues --    0.16351   0.16697   0.16983   0.17485   0.17522
 Alpha virt. eigenvalues --    0.17760   0.17917   0.18002   0.18216   0.18497
 Alpha virt. eigenvalues --    0.18680   0.18841   0.19236   0.19398   0.19752
 Alpha virt. eigenvalues --    0.20367   0.20500   0.20738   0.20813   0.21189
 Alpha virt. eigenvalues --    0.21333   0.21406   0.21495   0.21740   0.21898
 Alpha virt. eigenvalues --    0.22296   0.22583   0.22803   0.22848   0.23064
 Alpha virt. eigenvalues --    0.23226   0.23423   0.23448   0.23870   0.24166
 Alpha virt. eigenvalues --    0.24434   0.24790   0.24872   0.25069   0.25143
 Alpha virt. eigenvalues --    0.25441   0.25604   0.25835   0.25938   0.26168
 Alpha virt. eigenvalues --    0.26323   0.26382   0.26540   0.26782   0.27017
 Alpha virt. eigenvalues --    0.27214   0.27492   0.27752   0.27998   0.28027
 Alpha virt. eigenvalues --    0.28119   0.28397   0.28625   0.28848   0.29038
 Alpha virt. eigenvalues --    0.29360   0.29504   0.29642   0.29669   0.29874
 Alpha virt. eigenvalues --    0.30411   0.30466   0.30846   0.31115   0.31242
 Alpha virt. eigenvalues --    0.31406   0.31470   0.31853   0.32112   0.32474
 Alpha virt. eigenvalues --    0.32700   0.32807   0.33088   0.33257   0.33374
 Alpha virt. eigenvalues --    0.33675   0.34081   0.34372   0.34471   0.34852
 Alpha virt. eigenvalues --    0.35074   0.35160   0.35317   0.35433   0.35708
 Alpha virt. eigenvalues --    0.35867   0.36312   0.36574   0.36732   0.37032
 Alpha virt. eigenvalues --    0.37183   0.37513   0.37621   0.37791   0.37996
 Alpha virt. eigenvalues --    0.38069   0.38134   0.38518   0.38565   0.38859
 Alpha virt. eigenvalues --    0.38922   0.39322   0.39421   0.39537   0.39649
 Alpha virt. eigenvalues --    0.39890   0.39962   0.40165   0.40410   0.40621
 Alpha virt. eigenvalues --    0.40842   0.40876   0.40999   0.41119   0.41291
 Alpha virt. eigenvalues --    0.41544   0.41746   0.41858   0.41993   0.42230
 Alpha virt. eigenvalues --    0.42429   0.42740   0.42866   0.43159   0.43245
 Alpha virt. eigenvalues --    0.43476   0.43709   0.43811   0.43912   0.44100
 Alpha virt. eigenvalues --    0.44392   0.44457   0.44663   0.44915   0.45029
 Alpha virt. eigenvalues --    0.45384   0.45465   0.45580   0.45733   0.45963
 Alpha virt. eigenvalues --    0.46192   0.46344   0.46477   0.46778   0.46888
 Alpha virt. eigenvalues --    0.46960   0.46974   0.47202   0.47274   0.47653
 Alpha virt. eigenvalues --    0.47683   0.47851   0.47933   0.48256   0.48281
 Alpha virt. eigenvalues --    0.48504   0.48755   0.48967   0.49029   0.49095
 Alpha virt. eigenvalues --    0.49412   0.49521   0.49600   0.49744   0.49841
 Alpha virt. eigenvalues --    0.49938   0.50092   0.50427   0.50623   0.50751
 Alpha virt. eigenvalues --    0.50875   0.51083   0.51149   0.51478   0.51599
 Alpha virt. eigenvalues --    0.51862   0.52015   0.52244   0.52552   0.52611
 Alpha virt. eigenvalues --    0.52970   0.53053   0.53197   0.53342   0.53618
 Alpha virt. eigenvalues --    0.53854   0.54078   0.54250   0.54496   0.54662
 Alpha virt. eigenvalues --    0.54992   0.55117   0.55218   0.55583   0.55695
 Alpha virt. eigenvalues --    0.55819   0.56195   0.56350   0.56566   0.56941
 Alpha virt. eigenvalues --    0.57133   0.57157   0.57524   0.57750   0.57847
 Alpha virt. eigenvalues --    0.57909   0.58333   0.58456   0.58791   0.58913
 Alpha virt. eigenvalues --    0.59138   0.59263   0.59478   0.59583   0.60019
 Alpha virt. eigenvalues --    0.60175   0.60343   0.60470   0.60805   0.61094
 Alpha virt. eigenvalues --    0.61262   0.61678   0.61748   0.61962   0.62114
 Alpha virt. eigenvalues --    0.62494   0.62778   0.62976   0.63064   0.63477
 Alpha virt. eigenvalues --    0.63546   0.63744   0.64000   0.64086   0.64169
 Alpha virt. eigenvalues --    0.64682   0.64840   0.65123   0.65245   0.65696
 Alpha virt. eigenvalues --    0.66046   0.66226   0.66488   0.66713   0.66979
 Alpha virt. eigenvalues --    0.67075   0.67479   0.67919   0.68211   0.68365
 Alpha virt. eigenvalues --    0.68824   0.68905   0.69170   0.69288   0.69382
 Alpha virt. eigenvalues --    0.70024   0.70244   0.70683   0.70842   0.70957
 Alpha virt. eigenvalues --    0.71051   0.71717   0.71816   0.71873   0.72234
 Alpha virt. eigenvalues --    0.72617   0.72878   0.73061   0.73348   0.73809
 Alpha virt. eigenvalues --    0.73841   0.74191   0.74837   0.74963   0.75307
 Alpha virt. eigenvalues --    0.75684   0.75835   0.75961   0.76199   0.76615
 Alpha virt. eigenvalues --    0.76782   0.76964   0.77367   0.77522   0.78071
 Alpha virt. eigenvalues --    0.78187   0.78247   0.78747   0.78834   0.78996
 Alpha virt. eigenvalues --    0.79403   0.79622   0.79921   0.80183   0.80487
 Alpha virt. eigenvalues --    0.80769   0.81222   0.81334   0.81758   0.82135
 Alpha virt. eigenvalues --    0.82207   0.82469   0.83002   0.83320   0.83851
 Alpha virt. eigenvalues --    0.83977   0.84251   0.84536   0.84703   0.85058
 Alpha virt. eigenvalues --    0.85388   0.85774   0.86061   0.86189   0.86306
 Alpha virt. eigenvalues --    0.86541   0.86769   0.87165   0.87609   0.88080
 Alpha virt. eigenvalues --    0.88141   0.88513   0.89001   0.89257   0.89365
 Alpha virt. eigenvalues --    0.89768   0.90056   0.90445   0.90649   0.91075
 Alpha virt. eigenvalues --    0.91467   0.91618   0.91782   0.92036   0.92229
 Alpha virt. eigenvalues --    0.92389   0.93090   0.93261   0.93516   0.93581
 Alpha virt. eigenvalues --    0.93824   0.94026   0.94407   0.94709   0.95046
 Alpha virt. eigenvalues --    0.95282   0.95408   0.95710   0.95836   0.95875
 Alpha virt. eigenvalues --    0.96067   0.96357   0.96645   0.96876   0.97356
 Alpha virt. eigenvalues --    0.97450   0.97649   0.97968   0.98482   0.98792
 Alpha virt. eigenvalues --    0.98977   0.99229   0.99447   0.99705   1.00091
 Alpha virt. eigenvalues --    1.00297   1.00685   1.00891   1.01297   1.01444
 Alpha virt. eigenvalues --    1.01661   1.01841   1.02237   1.02309   1.02587
 Alpha virt. eigenvalues --    1.02797   1.03293   1.03413   1.03814   1.03940
 Alpha virt. eigenvalues --    1.04203   1.04483   1.04717   1.04891   1.05079
 Alpha virt. eigenvalues --    1.05487   1.05665   1.05957   1.06199   1.06438
 Alpha virt. eigenvalues --    1.06816   1.07575   1.07826   1.08049   1.08428
 Alpha virt. eigenvalues --    1.08581   1.08669   1.09076   1.09729   1.09954
 Alpha virt. eigenvalues --    1.10269   1.10666   1.10926   1.11366   1.11502
 Alpha virt. eigenvalues --    1.12220   1.12412   1.12430   1.13098   1.13227
 Alpha virt. eigenvalues --    1.13901   1.14379   1.14456   1.14781   1.15459
 Alpha virt. eigenvalues --    1.15588   1.15970   1.16178   1.16725   1.17040
 Alpha virt. eigenvalues --    1.17324   1.17780   1.18036   1.18272   1.18579
 Alpha virt. eigenvalues --    1.19044   1.19310   1.19500   1.19627   1.20189
 Alpha virt. eigenvalues --    1.20681   1.21146   1.21195   1.21405   1.21785
 Alpha virt. eigenvalues --    1.22084   1.22615   1.22790   1.22852   1.23267
 Alpha virt. eigenvalues --    1.23895   1.24106   1.24267   1.24584   1.24992
 Alpha virt. eigenvalues --    1.25263   1.25870   1.26114   1.26278   1.26393
 Alpha virt. eigenvalues --    1.26820   1.26950   1.27320   1.27594   1.27901
 Alpha virt. eigenvalues --    1.28058   1.28399   1.28797   1.29158   1.29511
 Alpha virt. eigenvalues --    1.29775   1.29977   1.30386   1.30774   1.30947
 Alpha virt. eigenvalues --    1.31461   1.31838   1.32380   1.32726   1.32943
 Alpha virt. eigenvalues --    1.33153   1.33797   1.33978   1.34060   1.34668
 Alpha virt. eigenvalues --    1.35549   1.35814   1.35893   1.35954   1.36590
 Alpha virt. eigenvalues --    1.36927   1.37193   1.37475   1.37872   1.38242
 Alpha virt. eigenvalues --    1.38473   1.38682   1.39327   1.39486   1.39611
 Alpha virt. eigenvalues --    1.40111   1.40399   1.40608   1.40960   1.41218
 Alpha virt. eigenvalues --    1.41674   1.41879   1.42308   1.42935   1.43008
 Alpha virt. eigenvalues --    1.43524   1.43957   1.44315   1.44939   1.45199
 Alpha virt. eigenvalues --    1.45488   1.45790   1.46401   1.46929   1.46988
 Alpha virt. eigenvalues --    1.47531   1.47801   1.47816   1.48237   1.48335
 Alpha virt. eigenvalues --    1.48477   1.48969   1.49282   1.49571   1.49746
 Alpha virt. eigenvalues --    1.50086   1.50236   1.50337   1.50545   1.50958
 Alpha virt. eigenvalues --    1.51629   1.51963   1.52325   1.52620   1.52669
 Alpha virt. eigenvalues --    1.53223   1.53518   1.53759   1.53863   1.54147
 Alpha virt. eigenvalues --    1.54162   1.54487   1.54839   1.55173   1.55404
 Alpha virt. eigenvalues --    1.55600   1.55715   1.56089   1.56485   1.56705
 Alpha virt. eigenvalues --    1.56751   1.56971   1.57293   1.57527   1.57840
 Alpha virt. eigenvalues --    1.57996   1.58109   1.58366   1.58776   1.59182
 Alpha virt. eigenvalues --    1.59215   1.59499   1.59688   1.59869   1.60159
 Alpha virt. eigenvalues --    1.60332   1.60670   1.60767   1.61076   1.61409
 Alpha virt. eigenvalues --    1.61702   1.61853   1.62238   1.62580   1.62684
 Alpha virt. eigenvalues --    1.62971   1.63206   1.63399   1.63638   1.63844
 Alpha virt. eigenvalues --    1.64173   1.64648   1.64818   1.65019   1.65193
 Alpha virt. eigenvalues --    1.65418   1.65593   1.66005   1.66455   1.66733
 Alpha virt. eigenvalues --    1.66946   1.67057   1.67323   1.67409   1.67821
 Alpha virt. eigenvalues --    1.68141   1.68452   1.68690   1.68914   1.69273
 Alpha virt. eigenvalues --    1.69449   1.69701   1.70125   1.70543   1.70797
 Alpha virt. eigenvalues --    1.71444   1.71659   1.71821   1.72159   1.72599
 Alpha virt. eigenvalues --    1.72686   1.72976   1.73090   1.73222   1.73547
 Alpha virt. eigenvalues --    1.73579   1.73942   1.74620   1.74887   1.75284
 Alpha virt. eigenvalues --    1.75502   1.75926   1.76302   1.77021   1.77043
 Alpha virt. eigenvalues --    1.77468   1.77583   1.77727   1.78645   1.79006
 Alpha virt. eigenvalues --    1.79335   1.79935   1.80288   1.80542   1.80731
 Alpha virt. eigenvalues --    1.80917   1.81422   1.81816   1.82177   1.82334
 Alpha virt. eigenvalues --    1.82840   1.83214   1.83568   1.83703   1.84075
 Alpha virt. eigenvalues --    1.84274   1.84664   1.84869   1.85261   1.85609
 Alpha virt. eigenvalues --    1.85911   1.86035   1.86064   1.86855   1.87089
 Alpha virt. eigenvalues --    1.87237   1.87757   1.88116   1.88622   1.89041
 Alpha virt. eigenvalues --    1.89482   1.89629   1.89721   1.89895   1.90824
 Alpha virt. eigenvalues --    1.91083   1.91503   1.91557   1.92010   1.92251
 Alpha virt. eigenvalues --    1.92447   1.93365   1.93594   1.93828   1.94276
 Alpha virt. eigenvalues --    1.94890   1.95226   1.95538   1.95996   1.96194
 Alpha virt. eigenvalues --    1.96404   1.97001   1.97238   1.97501   1.97855
 Alpha virt. eigenvalues --    1.98011   1.98309   1.98936   1.98966   1.99214
 Alpha virt. eigenvalues --    1.99890   2.00071   2.00535   2.00764   2.00950
 Alpha virt. eigenvalues --    2.01483   2.01946   2.02192   2.02284   2.02901
 Alpha virt. eigenvalues --    2.03147   2.03756   2.03890   2.04121   2.04531
 Alpha virt. eigenvalues --    2.04850   2.04921   2.05121   2.05855   2.06253
 Alpha virt. eigenvalues --    2.06832   2.06995   2.07375   2.07546   2.08268
 Alpha virt. eigenvalues --    2.08558   2.08886   2.09192   2.09331   2.09714
 Alpha virt. eigenvalues --    2.10026   2.10794   2.11023   2.11291   2.12014
 Alpha virt. eigenvalues --    2.12267   2.12396   2.12856   2.13130   2.13576
 Alpha virt. eigenvalues --    2.13626   2.14044   2.14401   2.14762   2.15474
 Alpha virt. eigenvalues --    2.15713   2.16256   2.16317   2.16588   2.16743
 Alpha virt. eigenvalues --    2.16996   2.17444   2.17560   2.18115   2.18536
 Alpha virt. eigenvalues --    2.18756   2.19107   2.19569   2.19810   2.20000
 Alpha virt. eigenvalues --    2.20379   2.20661   2.21182   2.21331   2.21776
 Alpha virt. eigenvalues --    2.22182   2.22379   2.22743   2.23213   2.23341
 Alpha virt. eigenvalues --    2.23575   2.24528   2.24703   2.25240   2.25637
 Alpha virt. eigenvalues --    2.26143   2.26224   2.26455   2.26936   2.27415
 Alpha virt. eigenvalues --    2.27722   2.27957   2.28399   2.28990   2.29181
 Alpha virt. eigenvalues --    2.29629   2.30253   2.30432   2.30719   2.31048
 Alpha virt. eigenvalues --    2.31173   2.31478   2.31753   2.32116   2.32365
 Alpha virt. eigenvalues --    2.32833   2.33262   2.33562   2.33848   2.34525
 Alpha virt. eigenvalues --    2.34660   2.34948   2.35346   2.35840   2.36299
 Alpha virt. eigenvalues --    2.36362   2.36667   2.37207   2.37431   2.37797
 Alpha virt. eigenvalues --    2.38143   2.38741   2.38828   2.38955   2.39601
 Alpha virt. eigenvalues --    2.39735   2.40262   2.40598   2.41017   2.41099
 Alpha virt. eigenvalues --    2.41335   2.41802   2.41864   2.42166   2.42343
 Alpha virt. eigenvalues --    2.42748   2.43058   2.43441   2.43920   2.44008
 Alpha virt. eigenvalues --    2.44194   2.45125   2.45804   2.46051   2.46388
 Alpha virt. eigenvalues --    2.46902   2.47049   2.47261   2.48280   2.48632
 Alpha virt. eigenvalues --    2.48882   2.48923   2.49616   2.50034   2.50090
 Alpha virt. eigenvalues --    2.50698   2.51000   2.51165   2.51642   2.52368
 Alpha virt. eigenvalues --    2.52788   2.52886   2.53263   2.53613   2.53841
 Alpha virt. eigenvalues --    2.54260   2.54461   2.54942   2.55135   2.55582
 Alpha virt. eigenvalues --    2.55832   2.56154   2.56455   2.56639   2.56873
 Alpha virt. eigenvalues --    2.57162   2.57530   2.57724   2.57927   2.58193
 Alpha virt. eigenvalues --    2.58432   2.58700   2.58859   2.59007   2.59135
 Alpha virt. eigenvalues --    2.59671   2.60087   2.60424   2.60524   2.60955
 Alpha virt. eigenvalues --    2.61145   2.61509   2.61845   2.62041   2.62420
 Alpha virt. eigenvalues --    2.62553   2.63137   2.63604   2.63855   2.64028
 Alpha virt. eigenvalues --    2.64142   2.64357   2.64734   2.65094   2.65221
 Alpha virt. eigenvalues --    2.65664   2.65967   2.66258   2.66724   2.66876
 Alpha virt. eigenvalues --    2.67315   2.67930   2.68116   2.68384   2.68854
 Alpha virt. eigenvalues --    2.69058   2.69309   2.69718   2.70179   2.70345
 Alpha virt. eigenvalues --    2.70639   2.70757   2.71096   2.71548   2.71705
 Alpha virt. eigenvalues --    2.71934   2.72332   2.72457   2.72774   2.73423
 Alpha virt. eigenvalues --    2.73447   2.73791   2.74437   2.74553   2.74895
 Alpha virt. eigenvalues --    2.75337   2.75558   2.76072   2.76181   2.76771
 Alpha virt. eigenvalues --    2.77210   2.77409   2.78109   2.78291   2.78640
 Alpha virt. eigenvalues --    2.78778   2.79114   2.79420   2.79527   2.79738
 Alpha virt. eigenvalues --    2.80296   2.80393   2.81068   2.81557   2.81864
 Alpha virt. eigenvalues --    2.82061   2.83081   2.83350   2.83586   2.84142
 Alpha virt. eigenvalues --    2.84602   2.84988   2.85107   2.85590   2.85862
 Alpha virt. eigenvalues --    2.85926   2.86230   2.87121   2.87367   2.87694
 Alpha virt. eigenvalues --    2.87915   2.88209   2.88554   2.88704   2.88996
 Alpha virt. eigenvalues --    2.89290   2.89618   2.90151   2.90453   2.90553
 Alpha virt. eigenvalues --    2.90650   2.91001   2.91260   2.91331   2.92098
 Alpha virt. eigenvalues --    2.92609   2.92688   2.92770   2.93059   2.93534
 Alpha virt. eigenvalues --    2.93744   2.94030   2.94148   2.94587   2.94698
 Alpha virt. eigenvalues --    2.95235   2.95668   2.95874   2.96281   2.96404
 Alpha virt. eigenvalues --    2.96654   2.97103   2.97506   2.97658   2.97944
 Alpha virt. eigenvalues --    2.98268   2.98695   2.98859   2.99144   2.99530
 Alpha virt. eigenvalues --    2.99876   3.00121   3.00231   3.00650   3.00762
 Alpha virt. eigenvalues --    3.01455   3.01652   3.01785   3.01876   3.02467
 Alpha virt. eigenvalues --    3.02576   3.03059   3.03313   3.03342   3.03746
 Alpha virt. eigenvalues --    3.03913   3.04539   3.04699   3.05067   3.05206
 Alpha virt. eigenvalues --    3.05278   3.05639   3.05996   3.06175   3.06427
 Alpha virt. eigenvalues --    3.06862   3.07016   3.07341   3.07422   3.07882
 Alpha virt. eigenvalues --    3.08168   3.08515   3.08924   3.09227   3.09508
 Alpha virt. eigenvalues --    3.09625   3.09864   3.10367   3.10704   3.10838
 Alpha virt. eigenvalues --    3.10960   3.11241   3.11416   3.11923   3.12174
 Alpha virt. eigenvalues --    3.12642   3.12697   3.12849   3.13126   3.13502
 Alpha virt. eigenvalues --    3.13618   3.13993   3.14151   3.14303   3.14538
 Alpha virt. eigenvalues --    3.15235   3.15425   3.15708   3.15918   3.15997
 Alpha virt. eigenvalues --    3.16058   3.16651   3.16900   3.17464   3.17842
 Alpha virt. eigenvalues --    3.17866   3.18048   3.18239   3.18283   3.18587
 Alpha virt. eigenvalues --    3.18753   3.19094   3.19350   3.19590   3.19810
 Alpha virt. eigenvalues --    3.19906   3.20204   3.20693   3.20811   3.20919
 Alpha virt. eigenvalues --    3.21001   3.21501   3.21693   3.21817   3.22164
 Alpha virt. eigenvalues --    3.22483   3.22828   3.23072   3.23103   3.23457
 Alpha virt. eigenvalues --    3.23784   3.23886   3.24178   3.24311   3.24773
 Alpha virt. eigenvalues --    3.25006   3.25142   3.25426   3.25805   3.25876
 Alpha virt. eigenvalues --    3.26070   3.26568   3.26682   3.26881   3.27058
 Alpha virt. eigenvalues --    3.27233   3.27297   3.27601   3.27751   3.28290
 Alpha virt. eigenvalues --    3.28465   3.28542   3.28894   3.29093   3.29372
 Alpha virt. eigenvalues --    3.29681   3.29839   3.30058   3.30451   3.30653
 Alpha virt. eigenvalues --    3.30761   3.31075   3.31257   3.31534   3.31888
 Alpha virt. eigenvalues --    3.31983   3.32236   3.32820   3.33081   3.33346
 Alpha virt. eigenvalues --    3.33424   3.33593   3.33846   3.33955   3.34593
 Alpha virt. eigenvalues --    3.34807   3.34971   3.35298   3.35585   3.35673
 Alpha virt. eigenvalues --    3.35857   3.36090   3.36233   3.36745   3.36785
 Alpha virt. eigenvalues --    3.37064   3.37150   3.37409   3.37715   3.38008
 Alpha virt. eigenvalues --    3.38236   3.38493   3.38703   3.38866   3.39291
 Alpha virt. eigenvalues --    3.39538   3.39702   3.39790   3.40144   3.40654
 Alpha virt. eigenvalues --    3.40919   3.41287   3.41430   3.41759   3.42003
 Alpha virt. eigenvalues --    3.42466   3.42579   3.42775   3.42895   3.43403
 Alpha virt. eigenvalues --    3.43535   3.43828   3.43887   3.44346   3.44938
 Alpha virt. eigenvalues --    3.45094   3.45242   3.45447   3.45553   3.45888
 Alpha virt. eigenvalues --    3.46070   3.46601   3.46985   3.47179   3.47495
 Alpha virt. eigenvalues --    3.47730   3.48043   3.48073   3.48428   3.48631
 Alpha virt. eigenvalues --    3.49047   3.49489   3.49604   3.49749   3.50208
 Alpha virt. eigenvalues --    3.50486   3.50759   3.50971   3.51344   3.51781
 Alpha virt. eigenvalues --    3.52144   3.52516   3.52633   3.52871   3.53045
 Alpha virt. eigenvalues --    3.53458   3.53940   3.54194   3.54337   3.54714
 Alpha virt. eigenvalues --    3.55056   3.55369   3.56013   3.56361   3.56585
 Alpha virt. eigenvalues --    3.57162   3.57250   3.57525   3.57779   3.58228
 Alpha virt. eigenvalues --    3.58304   3.58941   3.59392   3.59546   3.59719
 Alpha virt. eigenvalues --    3.60569   3.60793   3.61108   3.61722   3.61813
 Alpha virt. eigenvalues --    3.62201   3.62405   3.62654   3.63173   3.63355
 Alpha virt. eigenvalues --    3.63646   3.63924   3.64499   3.64900   3.65108
 Alpha virt. eigenvalues --    3.65529   3.65952   3.66280   3.66509   3.66853
 Alpha virt. eigenvalues --    3.67231   3.67444   3.67876   3.68134   3.68581
 Alpha virt. eigenvalues --    3.69307   3.69747   3.69889   3.70189   3.70627
 Alpha virt. eigenvalues --    3.70810   3.71223   3.71477   3.71905   3.72197
 Alpha virt. eigenvalues --    3.72421   3.72762   3.73403   3.73633   3.74041
 Alpha virt. eigenvalues --    3.74262   3.74686   3.74966   3.74997   3.75152
 Alpha virt. eigenvalues --    3.75320   3.75815   3.76205   3.76575   3.77008
 Alpha virt. eigenvalues --    3.77347   3.77498   3.78044   3.78185   3.78647
 Alpha virt. eigenvalues --    3.79222   3.80273   3.80561   3.81310   3.81543
 Alpha virt. eigenvalues --    3.82415   3.82987   3.84039   3.84686   3.84935
 Alpha virt. eigenvalues --    3.85542   3.85847   3.86186   3.86403   3.86744
 Alpha virt. eigenvalues --    3.87271   3.87674   3.88322   3.88808   3.89262
 Alpha virt. eigenvalues --    3.89692   3.89885   3.90422   3.90693   3.90910
 Alpha virt. eigenvalues --    3.91606   3.91872   3.92067   3.92638   3.92942
 Alpha virt. eigenvalues --    3.93387   3.93869   3.94314   3.94476   3.94565
 Alpha virt. eigenvalues --    3.95256   3.96025   3.96563   3.96943   3.97162
 Alpha virt. eigenvalues --    3.97712   3.97904   3.98501   3.98594   3.99134
 Alpha virt. eigenvalues --    3.99281   4.00044   4.00911   4.01742   4.01937
 Alpha virt. eigenvalues --    4.02946   4.03204   4.03347   4.03707   4.04407
 Alpha virt. eigenvalues --    4.05035   4.05837   4.06219   4.06627   4.07076
 Alpha virt. eigenvalues --    4.07537   4.07875   4.08711   4.08984   4.09848
 Alpha virt. eigenvalues --    4.10682   4.10897   4.11612   4.11733   4.12364
 Alpha virt. eigenvalues --    4.13054   4.13129   4.13495   4.14033   4.14537
 Alpha virt. eigenvalues --    4.15145   4.15708   4.16082   4.16840   4.17358
 Alpha virt. eigenvalues --    4.17694   4.17986   4.18701   4.19587   4.20010
 Alpha virt. eigenvalues --    4.20308   4.20590   4.21122   4.21322   4.21710
 Alpha virt. eigenvalues --    4.22037   4.22601   4.22899   4.23785   4.24353
 Alpha virt. eigenvalues --    4.24840   4.25572   4.26181   4.26524   4.27031
 Alpha virt. eigenvalues --    4.27170   4.27690   4.27862   4.28224   4.29010
 Alpha virt. eigenvalues --    4.29563   4.29978   4.30621   4.30893   4.31385
 Alpha virt. eigenvalues --    4.32040   4.32230   4.32283   4.32692   4.32922
 Alpha virt. eigenvalues --    4.33567   4.34198   4.34531   4.34642   4.34838
 Alpha virt. eigenvalues --    4.35437   4.36402   4.36686   4.36816   4.37278
 Alpha virt. eigenvalues --    4.37446   4.38523   4.38789   4.39050   4.39773
 Alpha virt. eigenvalues --    4.40558   4.40728   4.41296   4.41641   4.42614
 Alpha virt. eigenvalues --    4.43002   4.43565   4.43929   4.44941   4.45453
 Alpha virt. eigenvalues --    4.45689   4.46269   4.46527   4.46806   4.47692
 Alpha virt. eigenvalues --    4.47990   4.48417   4.49165   4.49475   4.49880
 Alpha virt. eigenvalues --    4.51071   4.51788   4.52487   4.53490   4.53569
 Alpha virt. eigenvalues --    4.54473   4.55522   4.56288   4.56433   4.57252
 Alpha virt. eigenvalues --    4.57513   4.58361   4.59027   4.59089   4.59495
 Alpha virt. eigenvalues --    4.60406   4.61053   4.61084   4.61358   4.61694
 Alpha virt. eigenvalues --    4.63276   4.63471   4.64113   4.64498   4.64730
 Alpha virt. eigenvalues --    4.66081   4.66693   4.67121   4.67837   4.68028
 Alpha virt. eigenvalues --    4.68681   4.68947   4.70254   4.70742   4.71374
 Alpha virt. eigenvalues --    4.71706   4.72230   4.72566   4.72834   4.73286
 Alpha virt. eigenvalues --    4.73660   4.74551   4.75572   4.76281   4.77183
 Alpha virt. eigenvalues --    4.77578   4.77920   4.78260   4.79086   4.79875
 Alpha virt. eigenvalues --    4.80234   4.81048   4.81487   4.81815   4.82401
 Alpha virt. eigenvalues --    4.82514   4.83563   4.84867   4.85429   4.85780
 Alpha virt. eigenvalues --    4.86059   4.86916   4.87547   4.87757   4.88271
 Alpha virt. eigenvalues --    4.88769   4.90046   4.90747   4.91189   4.91555
 Alpha virt. eigenvalues --    4.92936   4.93727   4.94509   4.94893   4.95385
 Alpha virt. eigenvalues --    4.95780   4.96125   4.96703   4.97256   4.98061
 Alpha virt. eigenvalues --    4.98453   4.99575   4.99643   5.00417   5.01080
 Alpha virt. eigenvalues --    5.01788   5.02525   5.03673   5.04018   5.04408
 Alpha virt. eigenvalues --    5.04989   5.05572   5.06673   5.06815   5.07062
 Alpha virt. eigenvalues --    5.08120   5.08954   5.10428   5.10587   5.12422
 Alpha virt. eigenvalues --    5.12633   5.13744   5.14781   5.15699   5.16327
 Alpha virt. eigenvalues --    5.17997   5.18663   5.18914   5.19804   5.19846
 Alpha virt. eigenvalues --    5.21081   5.21332   5.21445   5.22159   5.22520
 Alpha virt. eigenvalues --    5.23709   5.23795   5.24279   5.25023   5.25290
 Alpha virt. eigenvalues --    5.25510   5.26378   5.27337   5.27952   5.29529
 Alpha virt. eigenvalues --    5.30113   5.31328   5.32319   5.32970   5.33596
 Alpha virt. eigenvalues --    5.34166   5.35028   5.37562   5.37900   5.38377
 Alpha virt. eigenvalues --    5.38753   5.39603   5.40103   5.41373   5.41910
 Alpha virt. eigenvalues --    5.42465   5.43301   5.43725   5.43956   5.44852
 Alpha virt. eigenvalues --    5.45042   5.45802   5.46268   5.47028   5.48630
 Alpha virt. eigenvalues --    5.49910   5.51190   5.51726   5.51882   5.55169
 Alpha virt. eigenvalues --    5.55488   5.56786   5.57049   5.58294   5.58654
 Alpha virt. eigenvalues --    5.58988   5.59706   5.60793   5.61096   5.61429
 Alpha virt. eigenvalues --    5.63337   5.64303   5.65516   5.66551   5.68327
 Alpha virt. eigenvalues --    5.68553   5.69035   5.70803   5.71128   5.72260
 Alpha virt. eigenvalues --    5.72980   5.74117   5.75424   5.77336   5.80773
 Alpha virt. eigenvalues --    5.81638   5.82170   5.82299   5.84137   5.90795
 Alpha virt. eigenvalues --    5.92821   5.93446   5.96443   5.97175   5.98346
 Alpha virt. eigenvalues --    6.00636   6.02372   6.03065   6.03475   6.04698
 Alpha virt. eigenvalues --    6.06220   6.06381   6.07047   6.08385   6.09870
 Alpha virt. eigenvalues --    6.10272   6.11263   6.12962   6.14623   6.17546
 Alpha virt. eigenvalues --    6.18153   6.19629   6.22033   6.23280   6.27175
 Alpha virt. eigenvalues --    6.27698   6.31911   6.32749   6.33314   6.35724
 Alpha virt. eigenvalues --    6.39127   6.40502   6.41087   6.44392   6.47039
 Alpha virt. eigenvalues --    6.48766   6.50396   6.52727   6.66210   6.67724
 Alpha virt. eigenvalues --    6.74838   6.76732   6.84485   6.86118   6.93265
 Alpha virt. eigenvalues --    6.94517   6.98042   7.08009   7.12408   7.13907
 Alpha virt. eigenvalues --    7.18638   7.19055   7.26968   7.27933  22.29814
 Alpha virt. eigenvalues --   22.31259  22.47902  22.48184  22.51042  22.52349
 Alpha virt. eigenvalues --   22.53008  22.55860  22.60184  22.62481  22.66771
 Alpha virt. eigenvalues --   22.70392  22.71539  22.78156  22.78864  22.82447
 Alpha virt. eigenvalues --   22.90088  22.91611  22.94343  22.95889  22.98683
 Alpha virt. eigenvalues --   23.00412  23.02409  23.07810  23.08846  23.10201
 Alpha virt. eigenvalues --   23.26834  23.28878  23.30060  23.32206  23.34831
 Alpha virt. eigenvalues --   23.36667  23.46435  23.48122  23.51220  23.52745
 Alpha virt. eigenvalues --   23.57247  23.59852  23.65846  23.70912  23.72297
 Alpha virt. eigenvalues --   23.79881  32.45200  32.48388  32.74645  32.85336
 Alpha virt. eigenvalues --   32.98834  33.11999  33.17378  33.40370  43.93646
 Alpha virt. eigenvalues --   43.96699  43.97558  43.98228
          Condensed to atoms (all electrons):
 Mulliken charges:
               1
     1  C   -0.394548
     2  C    0.119149
     3  N   -0.209130
     4  C   -0.235497
     5  C   -0.021546
     6  N    0.110466
     7  H    0.155918
     8  H    0.139267
     9  H    0.281411
    10  H    0.173708
    11  H    0.196922
    12  C   -0.411479
    13  C    0.141704
    14  N   -0.211006
    15  C   -0.239393
    16  C   -0.017200
    17  N    0.079862
    18  H    0.142843
    19  H    0.159208
    20  H    0.287651
    21  H    0.169361
    22  H    0.187683
    23  C   -0.538055
    24  C   -0.628619
    25  C   -0.539546
    26  C   -0.620467
    27  C    0.221131
    28  C   -0.049361
    29  C   -0.014389
    30  C    0.261757
    31  C   -0.469412
    32  C   -0.300223
    33  C   -0.249321
    34  C    0.317035
    35  O   -0.387156
    36  O   -0.370456
    37  C    0.214299
    38  C   -0.098938
    39  C    0.024820
    40  C    0.244722
    41  C   -0.415431
    42  C   -0.272609
    43  C   -0.332528
    44  C    0.258008
    45  C   -0.145334
    46  C    0.106407
    47  C    0.120795
    48  C   -0.428936
    49  C   -0.285171
    50  C   -0.311608
    51  C    0.256536
    52  C   -0.059223
    53  C   -0.044564
    54  C    0.269679
    55  C   -0.466639
    56  C   -0.360998
    57  C   -0.238799
    58  C    0.338306
    59  O   -0.330398
    60  O   -0.417239
    61  N   -0.046433
    62  N   -0.030664
    63  N   -0.025052
    64  N   -0.042382
    65  Fe  -0.228172
    66  H    0.150326
    67  H    0.149333
    68  H    0.141500
    69  H    0.147961
    70  H    0.143369
    71  H    0.161249
    72  H    0.156358
    73  H    0.145441
    74  H    0.153179
    75  H    0.123739
    76  H    0.140130
    77  H    0.150343
    78  H    0.130617
    79  H    0.143863
    80  H    0.158836
    81  H    0.148036
    82  H    0.159934
    83  H    0.147444
    84  H    0.152496
    85  H    0.160801
    86  H    0.146099
    87  H    0.157827
    88  H    0.151961
    89  H    0.159564
    90  H    0.162586
    91  H    0.146936
    92  H    0.119089
    93  H    0.141093
    94  H    0.127747
    95  H    0.132980
    96  H    0.159125
    97  H    0.153354
    98  H    0.393697
    99  H    0.392259
 Sum of Mulliken charges =  -0.00000
 Mulliken charges with hydrogens summed into heavy atoms:
               1
     1  C    0.059762
     2  C    0.119149
     3  N    0.072281
     4  C   -0.061790
     5  C    0.175376
     6  N    0.110466
    12  C    0.043925
    13  C    0.141704
    14  N    0.076646
    15  C   -0.070032
    16  C    0.170483
    17  N    0.079862
    23  C   -0.376806
    24  C   -0.478293
    25  C   -0.390213
    26  C   -0.478967
    27  C    0.221131
    28  C   -0.049361
    29  C   -0.014389
    30  C    0.261757
    31  C   -0.014434
    32  C   -0.036353
    33  C    0.031638
    34  C    0.317035
    35  O   -0.387156
    36  O    0.023242
    37  C    0.214299
    38  C   -0.098938
    39  C    0.024820
    40  C    0.244722
    41  C    0.035304
    42  C   -0.124647
    43  C   -0.025150
    44  C    0.258008
    45  C   -0.145334
    46  C    0.106407
    47  C    0.120795
    48  C    0.030460
    49  C   -0.141802
    50  C   -0.001820
    51  C    0.256536
    52  C   -0.059223
    53  C   -0.044564
    54  C    0.269679
    55  C    0.002448
    56  C   -0.100816
    57  C    0.021929
    58  C    0.338306
    59  O    0.061861
    60  O   -0.417239
    61  N   -0.046433
    62  N   -0.030664
    63  N   -0.025052
    64  N   -0.042382
    65  Fe  -0.228172
 Electronic spatial extent (au):  <R**2>=          35289.5031
 Charge=              0.0000 electrons
 Dipole moment (field-independent basis, Debye):
    X=             -2.9824    Y=              4.8010    Z=              2.3229  Tot=              6.1106
 Quadrupole moment (field-independent basis, Debye-Ang):
   XX=           -361.0519   YY=           -334.9252   ZZ=           -255.5327
   XY=              6.4486   XZ=             23.9427   YZ=             20.0390
 Traceless Quadrupole moment (field-independent basis, Debye-Ang):
   XX=            -43.8819   YY=            -17.7553   ZZ=             61.6372
   XY=              6.4486   XZ=             23.9427   YZ=             20.0390
 Octapole moment (field-independent basis, Debye-Ang**2):
  XXX=           -256.9868  YYY=            109.2035  ZZZ=             20.6828  XYY=           -207.5077
  XXY=             34.2052  XXZ=            144.4029  XZZ=             28.8896  YZZ=             77.3393
  YYZ=             59.8352  XYZ=             69.1949
 Hexadecapole moment (field-independent basis, Debye-Ang**3):
 XXXX=         -26834.8046 YYYY=         -15829.9417 ZZZZ=          -5304.3215 XXXY=           -635.1334
 XXXZ=           1038.9227 YYYX=            630.5890 YYYZ=            152.5884 ZZZX=            157.5945
 ZZZY=            369.6543 XXYY=          -8551.0610 XXZZ=          -4868.9578 YYZZ=          -3545.5329
 XXYZ=            669.4088 YYXZ=            269.8847 ZZXY=            127.8243
 N-N= 8.826332314484D+03 E-N=-2.617575112827D+04  KE= 3.613950619466D+03
 1\1\GINC-NODE376\SP\RPBE1PBE\def2TZVP\C42H44Fe1N8O4\KLEICH\13-Oct-2022
 \0\\# PBE1PBE/def2TZVP empiricaldispersion=GD3BJ int=(grid=ultrafine) 
 geom=check guess=read scrf=(smd,solvent=Chloroform)\\1aw3_II_S_solv\\0
 ,1\C,0,4.428,9.754,1.996\C,0,3.012,9.72,2.522\N,0,2.674,9.452,3.824\C,
 0,1.843,9.805,1.81\C,0,1.338,9.387,3.894\N,0,0.779,9.575,2.689\H,0,4.5
 83,8.873,1.373\H,0,5.099,9.671,2.852\H,0,3.321,9.286,4.585\H,0,1.751,9
 .989,0.755\H,0,0.806,9.184,4.805\C,0,-6.248,10.013,0.126\C,0,-5.16,9.6
 94,1.112\N,0,-5.297,8.979,2.278\C,0,-3.834,9.989,0.948\C,0,-4.062,8.85
 8,2.802\N,0,-3.129,9.446,2.021\H,0,-6.869,9.133,-0.016\H,0,-5.763,10.2
 07,-0.826\H,0,-6.156,8.576,2.649\H,0,-3.408,10.531,0.12\H,0,-3.877,8.3
 33,3.724\C,0,-1.333,12.913,2.873\C,0,-0.466,10.195,-1.128\C,0,-1.143,6
 .149,1.56\C,0,-1.72,8.874,5.632\C,0,-1.123,12.495,1.558\C,0,-1.063,13.
 397,0.434\C,0,-0.748,12.656,-0.682\C,0,-0.715,11.269,-0.274\C,0,-0.515
 ,13.218,-2.067\C,0,-1.36,14.878,0.473\C,0,-2.786,15.185,0.941\C,0,-3.1
 53,16.658,0.83\O,0,-2.5,17.359,0.027\O,0,-4.098,17.055,1.544\C,0,-0.53
 4,8.873,-0.708\C,0,-0.314,7.74,-1.577\C,0,-0.563,6.629,-0.812\C,0,-0.8
 63,7.033,0.532\C,0,0.108,7.775,-3.026\C,0,-0.44,5.191,-1.257\C,0,-0.98
 1,4.782,-2.415\C,0,-1.347,6.551,2.877\C,0,-1.673,5.652,3.954\C,0,-1.69
 9,6.409,5.097\C,0,-1.571,7.799,4.746\C,0,-1.997,4.189,3.838\C,0,-2.042
 ,5.893,6.476\C,0,-1.558,4.719,6.939\C,0,-1.672,10.215,5.225\C,0,-1.869
 ,11.355,6.093\C,0,-1.72,12.494,5.327\C,0,-1.482,12.058,3.967\C,0,-2.22
 1,11.305,7.561\C,0,-1.929,13.933,5.773\C,0,-1.24,14.359,7.076\C,0,-1.5
 61,15.812,7.393\O,0,-0.742,16.674,7.011\O,0,-2.63,16.031,8.002\N,0,-0.
 975,11.234,1.077\N,0,-0.821,8.393,0.554\N,0,-1.332,7.823,3.394\N,0,-1.
 461,10.7,3.968\Fe,0,-1.148,9.534,2.257\H,0,-0.257,10.379,-2.168\H,0,-1
 .196,5.104,1.306\H,0,-1.899,8.65,6.671\H,0,-0.18,4.44,-0.536\H,0,-2.63
 5,6.508,7.131\H,0,-1.347,13.973,3.044\H,0,0.244,13.998,-2.019\H,0,-0.1
 76,12.464,-2.774\H,0,-1.442,13.654,-2.439\H,0,-0.665,15.381,1.137\H,0,
 -1.23,15.299,-0.524\H,0,-3.456,14.608,0.324\H,0,-2.954,14.883,1.971\H,
 0,0.921,8.486,-3.162\H,0,0.467,6.797,-3.34\H,0,-0.741,8.059,-3.645\H,0
 ,-1.84,5.341,-2.723\H,0,-0.882,3.752,-2.724\H,0,-1.096,3.595,3.995\H,0
 ,-2.746,3.95,4.592\H,0,-2.42,3.965,2.862\H,0,-0.823,4.169,6.371\H,0,-1
 .719,4.449,7.972\H,0,-1.321,11.466,8.155\H,0,-2.959,12.076,7.784\H,0,-
 2.658,10.349,7.838\H,0,-1.535,14.623,5.031\H,0,-3.002,14.12,5.836\H,0,
 -1.564,13.767,7.925\H,0,-0.163,14.253,6.971\H,0,4.60592924,10.65110633
 ,1.44062498\H,0,-6.83464038,10.83913137,0.46988957\H,0,-3.91740169,17.
 51318705,2.36804422\H,0,0.20042932,16.50684755,7.08507452\\Version=ES6
 4L-G16RevA.03\State=1-A\HF=-3627.7550009\RMSD=4.243e-09\Dipole=1.03002
 51,-1.5891417,1.4810248\Quadrupole=39.9269371,-29.7697536,-10.1571836,
 20.8862641,22.3872,1.3938929\PG=C01 [X(C42H44Fe1N8O4)]\\@


 The most important thing in communication is to hear what isn't being said.
 -- Peter F. Drucker
 Job cpu time:       1 days 17 hours 28 minutes 20.8 seconds.
 Elapsed time:       0 days 10 hours 25 minutes 22.3 seconds.
 File lengths (MBytes):  RWF=   2863 Int=      0 D2E=      0 Chk=    259 Scr=      1
 Normal termination of Gaussian 16 at Thu Oct 13 00:54:05 2022.
