 Initial command:
 /afs/math/software/gaussian/g16.A03/g16/l1.exe "/scratch/zhartovska_gaussian.pAR5QCW/Gau-14165.inp" -scrdir="/scratch/zhartovska_gaussian.pAR5QCW/"
 Entering Link 1 = /afs/math/software/gaussian/g16.A03/g16/l1.exe PID=     12285.
  
 Copyright (c) 1988,1990,1992,1993,1995,1998,2003,2009,2016,
            Gaussian, Inc.  All Rights Reserved.
  
 This is part of the Gaussian(R) 16 program.  It is based on
 the Gaussian(R) 09 system (copyright 2009, Gaussian, Inc.),
 the Gaussian(R) 03 system (copyright 2003, Gaussian, Inc.),
 the Gaussian(R) 98 system (copyright 1998, Gaussian, Inc.),
 the Gaussian(R) 94 system (copyright 1995, Gaussian, Inc.),
 the Gaussian 92(TM) system (copyright 1992, Gaussian, Inc.),
 the Gaussian 90(TM) system (copyright 1990, Gaussian, Inc.),
 the Gaussian 88(TM) system (copyright 1988, Gaussian, Inc.),
 the Gaussian 86(TM) system (copyright 1986, Carnegie Mellon
 University), and the Gaussian 82(TM) system (copyright 1983,
 Carnegie Mellon University). Gaussian is a federally registered
 trademark of Gaussian, Inc.
  
 This software contains proprietary and confidential information,
 including trade secrets, belonging to Gaussian, Inc.
  
 This software is provided under written license and may be
 used, copied, transmitted, or stored only in accord with that
 written license.
  
 The following legend is applicable only to US Government
 contracts under FAR:
  
                    RESTRICTED RIGHTS LEGEND
  
 Use, reproduction and disclosure by the US Government is
 subject to restrictions as set forth in subparagraphs (a)
 and (c) of the Commercial Computer Software - Restricted
 Rights clause in FAR 52.227-19.
  
 Gaussian, Inc.
 340 Quinnipiac St., Bldg. 40, Wallingford CT 06492
  
  
 ---------------------------------------------------------------
 Warning -- This program may not be used in any manner that
 competes with the business of Gaussian, Inc. or will provide
 assistance to any competitor of Gaussian, Inc.  The licensee
 of this program is prohibited from giving any competitor of
 Gaussian, Inc. access to this program.  By using this program,
 the user acknowledges that Gaussian, Inc. is engaged in the
 business of creating and licensing software in the field of
 computational chemistry and represents and warrants to the
 licensee that it is not a competitor of Gaussian, Inc. and that
 it will not use this program in any manner prohibited above.
 ---------------------------------------------------------------
  

 Cite this work as:
 Gaussian 16, Revision A.03,
 M. J. Frisch, G. W. Trucks, H. B. Schlegel, G. E. Scuseria, 
 M. A. Robb, J. R. Cheeseman, G. Scalmani, V. Barone, 
 G. A. Petersson, H. Nakatsuji, X. Li, M. Caricato, A. V. Marenich, 
 J. Bloino, B. G. Janesko, R. Gomperts, B. Mennucci, H. P. Hratchian, 
 J. V. Ortiz, A. F. Izmaylov, J. L. Sonnenberg, D. Williams-Young, 
 F. Ding, F. Lipparini, F. Egidi, J. Goings, B. Peng, A. Petrone, 
 T. Henderson, D. Ranasinghe, V. G. Zakrzewski, J. Gao, N. Rega, 
 G. Zheng, W. Liang, M. Hada, M. Ehara, K. Toyota, R. Fukuda, 
 J. Hasegawa, M. Ishida, T. Nakajima, Y. Honda, O. Kitao, H. Nakai, 
 T. Vreven, K. Throssell, J. A. Montgomery, Jr., J. E. Peralta, 
 F. Ogliaro, M. J. Bearpark, J. J. Heyd, E. N. Brothers, K. N. Kudin, 
 V. N. Staroverov, T. A. Keith, R. Kobayashi, J. Normand, 
 K. Raghavachari, A. P. Rendell, J. C. Burant, S. S. Iyengar, 
 J. Tomasi, M. Cossi, J. M. Millam, M. Klene, C. Adamo, R. Cammi, 
 J. W. Ochterski, R. L. Martin, K. Morokuma, O. Farkas, 
 J. B. Foresman, and D. J. Fox, Gaussian, Inc., Wallingford CT, 2016.
 
 ******************************************
 Gaussian 16:  ES64L-G16RevA.03 25-Dec-2016
                 5-Jan-2023 
 ******************************************
 %nprocs=12
 Will use up to   12 processors via shared memory.
 %mem=16GB
 %chk=1c75_III_H.chk
 ----------------------------------------------------------------------
 # PBE1PBE/def2TZVP empiricaldispersion=GD3BJ int=(grid=ultrafine) geom
 =check guess=read scrf=(smd,solvent=Chloroform)
 ----------------------------------------------------------------------
 1/29=2,38=1,172=1/1;
 2/12=2,40=1/2;
 3/5=44,7=101,11=2,14=-4,25=1,30=1,70=32201,72=7,74=-13,75=-5,116=-2,124=41/1,2,3;
 4/5=1/1;
 5/5=2,38=6,53=7/2;
 6/7=2,8=2,9=2,10=2,28=1/1;
 99/5=1,9=1/99;
 ---------------
 1c75_III_H_solv
 ---------------
 Structure from the checkpoint file:  "1c75_III_H.chk"
 Charge =  1 Multiplicity = 6
 Z-Matrix found in chk file.
 C,0,14.33,22.021,6.122
 C,0,13.799,22.662,4.866
 N,0,14.606,23.313,4.
 C,0,12.558,22.732,4.329
 C,0,13.866,23.798,2.987
 N,0,12.611,23.461,3.171
 H,0,13.51231112,21.67303303,6.71798983
 H,0,14.89576136,22.73956268,6.67741135
 H,0,15.457,23.402,4.083
 H,0,11.792,22.347,4.689
 H,0,14.191,24.293,2.27
 C,0,10.185,23.957,-2.066
 C,0,9.307,23.606,-0.895
 S,0,9.505,24.779,0.466
 C,0,7.878,24.65,1.219
 H,0,11.19513518,24.07229612,-1.73248281
 H,0,9.84698146,24.87322448,-2.50323696
 H,0,8.379,23.601,-1.18
 H,0,9.528,22.714,-0.584
 H,0,7.726,23.744,1.499
 H,0,7.831,25.232,1.98
 H,0,7.209,24.903,0.58
 Fe,0,11.14,24.004,1.938
 C,0,13.08,26.199,0.234
 C,0,10.285,26.45,4.144
 C,0,9.038,21.828,3.528
 C,0,12.199,21.455,-0.043
 N,0,11.604,25.933,2.157
 C,0,12.406,26.699,1.345
 C,0,12.449,28.063,1.797
 C,0,11.708,28.122,2.933
 C,0,11.159,26.792,3.132
 C,0,11.456,29.284,3.835
 C,0,13.219,29.185,1.129
 C,0,14.759,29.023,1.193
 C,0,15.299,28.908,2.489
 O,0,14.902,29.575,3.464
 O,0,16.211,28.005,2.635
 N,0,9.913,24.117,3.481
 C,0,9.685,25.205,4.291
 C,0,8.749,24.893,5.346
 C,0,8.34,23.617,5.135
 C,0,9.085,23.133,3.989
 C,0,8.382,25.85,6.444
 C,0,7.364,22.794,5.922
 C,0,5.937,23.397,5.937
 N,0,10.676,22.083,1.735
 C,0,9.779,21.33,2.504
 C,0,9.819,19.936,2.13
 C,0,10.695,19.85,1.125
 C,0,11.232,21.157,0.897
 C,0,9.046,18.849,2.831
 C,0,11.219,18.578,0.474
 C,0,10.056,17.739,-0.135
 N,0,12.383,23.864,0.416
 C,0,12.729,22.72,-0.275
 C,0,13.683,23.005,-1.331
 C,0,13.94,24.327,-1.237
 C,0,13.103,24.858,-0.158
 C,0,14.186,21.964,-2.273
 C,0,14.809,25.221,-2.071
 C,0,13.96,26.122,-3.063
 C,0,14.517,27.402,-3.223
 O,0,15.147,27.684,-4.29
 O,0,14.468,28.25,-2.292
 H,0,13.552,26.806,-0.29
 H,0,10.082,27.101,4.775
 H,0,8.451,21.245,3.953
 H,0,12.52,20.754,-0.563
 H,0,10.526,29.521,3.8
 H,0,11.692,29.047,4.735
 H,0,11.988,30.031,3.551
 H,0,12.977,30.024,1.551
 H,0,12.95,29.236,0.199
 H,0,15.006,28.234,0.686
 H,0,15.166,29.789,0.757
 H,0,16.531,28.058,3.389
 H,0,7.987,26.638,6.064
 H,0,7.753,25.431,7.036
 H,0,9.171,26.092,6.934
 H,0,7.31853251,21.81367103,5.49563418
 H,0,5.26818918,22.71850146,6.42406449
 H,0,5.94848736,24.32740143,6.46531925
 H,0,8.993,19.046,3.768
 H,0,8.16,18.799,2.464
 H,0,9.491,18.008,2.706
 H,0,11.90715192,18.83921912,-0.30260255
 H,0,9.32701362,17.53773829,0.62194953
 H,0,10.44227641,16.81541574,-0.51273356
 H,0,14.712,21.323,-1.791
 H,0,13.442,21.52,-2.687
 H,0,14.727,22.379,-2.949
 H,0,15.33,25.794,-1.487
 H,0,15.427,24.677,-2.583
 H,0,13.91,25.685,-3.927
 H,0,13.056,26.208,-2.721
 H,0,16.10698849,27.68520104,-4.29454437
 H,0,11.72705005,17.9907918,1.21018726
 H,0,9.59998839,18.28764013,-0.93246312
 H,0,7.71464718,22.71539962,6.92985343
 H,0,5.60875367,23.56156424,4.93197614
 H,0,14.9590038,21.19521428,5.8625156
 H,0,10.1370678,23.17501099,-2.79476312
 Recover connectivity data from disk.
 Stoichiometry    C41H50FeN6O4S(1+,6)
 Framework group  C1[X(C41H50FeN6O4S)]
 Deg. of freedom   303
 Full point group                 C1      NOp   1
 Largest Abelian subgroup         C1      NOp   1
 Largest concise Abelian subgroup C1      NOp   1
                         Standard orientation:                         
 ---------------------------------------------------------------------
 Center     Atomic      Atomic             Coordinates (Angstroms)
 Number     Number       Type             X           Y           Z
 ---------------------------------------------------------------------
      1          6           0        1.988514   -1.363995    5.135746
      2          6           0        1.309179   -0.922373    3.865371
      3          7           0        0.005782   -0.568227    3.838112
      4          6           0        1.756051   -0.761386    2.597404
      5          6           0       -0.335952   -0.240447    2.579235
      6          7           0        0.715961   -0.357934    1.803267
      7          1           0        2.974308   -1.713563    4.910108
      8          1           0        1.424313   -2.153895    5.585897
      9          1           0       -0.520717   -0.553825    4.517525
     10          1           0        2.629440   -0.902522    2.311305
     11          1           0       -1.182287    0.027172    2.302040
     12          6           0       -0.538977    2.854895   -2.850819
     13          6           0        0.743999    2.067983   -2.842584
     14         16           0        0.458144    0.324775   -2.459223
     15          6           0        1.848568   -0.410796   -3.328956
     16          1           0       -1.064358    2.690103   -1.933367
     17          1           0       -1.146958    2.537239   -3.672009
     18          1           0        1.168996    2.138248   -3.712570
     19          1           0        1.348256    2.445957   -2.184379
     20          1           0        2.669339   -0.059296   -2.975229
     21          1           0        1.831523   -1.362638   -3.211651
     22          1           0        1.788207   -0.201679   -4.263043
     23         26           0        0.669718   -0.018140   -0.161772
     24          6           0       -2.713399    0.144189   -0.277583
     25          6           0        0.540270   -3.380201   -0.671840
     26          6           0        4.084786   -0.133004   -0.236559
     27          6           0        0.848416    3.274303    0.657452
     28          7           0       -0.793312   -1.353772   -0.406581
     29          6           0       -2.146093   -1.114995   -0.454265
     30          6           0       -2.877517   -2.326387   -0.707635
     31          6           0       -1.965045   -3.330188   -0.760886
     32          6           0       -0.662602   -2.706960   -0.602356
     33          6           0       -2.183812   -4.793995   -0.952621
     34          6           0       -4.383827   -2.430037   -0.842890
     35          6           0       -5.159995   -2.131048    0.464821
     36          6           0       -4.818812   -2.940621    1.566014
     37          8           0       -4.588492   -4.162346    1.479615
     38          8           0       -4.691361   -2.323502    2.693573
     39          7           0        2.017936   -1.437479   -0.420487
     40          6           0        1.792795   -2.780983   -0.610582
     41          6           0        3.031816   -3.515482   -0.719231
     42          6           0        4.030271   -2.598608   -0.670152
     43          6           0        3.394405   -1.312418   -0.460420
     44          6           0        3.106396   -5.011587   -0.829910
     45          6           0        5.512963   -2.809285   -0.750856
     46          6           0        5.963607   -3.434159   -2.094961
     47          7           0        2.134629    1.300368    0.087860
     48          6           0        3.515668    1.070398    0.034713
     49          6           0        4.253078    2.255905    0.402831
     50          6           0        3.337668    3.200449    0.636623
     51          6           0        2.044600    2.611853    0.463037
     52          6           0        5.752708    2.311827    0.538780
     53          6           0        3.581766    4.590419    1.206500
     54          6           0        4.556243    5.404143    0.303384
     55          7           0       -0.660504    1.405443    0.129868
     56          6           0       -0.414291    2.714701    0.492022
     57          6           0       -1.646426    3.470204    0.624448
     58          6           0       -2.638221    2.587186    0.381157
     59          6           0       -2.009382    1.306271    0.048605
     60          6           0       -1.675237    4.925308    0.949865
     61          6           0       -4.126032    2.770340    0.328014
     62          6           0       -4.671151    2.796799   -1.161554
     63          6           0       -5.927392    2.177946   -1.276138
     64          8           0       -6.970381    2.892634   -1.403835
     65          8           0       -6.043991    0.927046   -1.176534
     66          1           0       -3.634535    0.218387   -0.386269
     67          1           0        0.511051   -4.303943   -0.766807
     68          1           0        5.013438   -0.166782   -0.275899
     69          1           0        0.891097    4.165906    0.918343
     70          1           0       -1.806272   -5.067098   -1.792366
     71          1           0       -1.759647   -5.276653   -0.239186
     72          1           0       -3.125639   -4.980108   -0.949012
     73          1           0       -4.609610   -3.325019   -1.140544
     74          1           0       -4.677892   -1.810106   -1.527780
     75          1           0       -5.008874   -1.204011    0.706366
     76          1           0       -6.108951   -2.235470    0.288526
     77          1           0       -4.576304   -2.870971    3.294210
     78          1           0        2.643552   -5.298239   -1.620463
     79          1           0        4.025894   -5.282644   -0.882036
     80          1           0        2.698208   -5.409909   -0.057960
     81          1           0        6.001492   -1.865054   -0.629750
     82          1           0        7.032465   -3.465567   -2.133100
     83          1           0        5.574521   -4.427722   -2.174606
     84          1           0        6.075426    1.475953    0.880472
     85          1           0        6.145827    2.479036   -0.321269
     86          1           0        5.993444    3.018033    1.142312
     87          1           0        2.649163    5.110599    1.274060
     88          1           0        5.464198    4.853535    0.171674
     89          1           0        4.772871    6.343324    0.768048
     90          1           0       -1.342105    5.061456    1.838891
     91          1           0       -1.124704    5.404267    0.325702
     92          1           0       -2.577784    5.247892    0.893025
     93          1           0       -4.553701    2.045972    0.810938
     94          1           0       -4.360564    3.601364    0.768919
     95          1           0       -4.739779    3.716793   -1.459659
     96          1           0       -4.038232    2.343435   -1.740735
     97          1           0       -7.542430    3.046284   -0.648353
     98          1           0        4.004329    4.499025    2.185268
     99          1           0        4.100909    5.574418   -0.649809
    100          1           0        5.812149   -3.456753    0.046748
    101          1           0        5.595075   -2.840761   -2.905493
    102          1           0        2.049333   -0.538135    5.813356
    103          1           0       -0.317703    3.896774   -2.952935
 ---------------------------------------------------------------------
 Rotational constants (GHZ):           0.0685102           0.0478643           0.0371508
 Standard basis: def2TZVP (5D, 7F)
 There are  2230 symmetry adapted cartesian basis functions of A   symmetry.
 There are  1963 symmetry adapted basis functions of A   symmetry.
  1963 basis functions,  3172 primitive gaussians,  2230 cartesian basis functions
   208 alpha electrons      203 beta electrons
       nuclear repulsion energy      9239.8544748853 Hartrees.
 NAtoms=  103 NActive=  103 NUniq=  103 SFac= 1.00D+00 NAtFMM=   60 NAOKFM=T Big=T
 Integral buffers will be    131072 words long.
 Raffenetti 2 integral format.
 Two-electron integral symmetry is turned on.
 Nuclear repulsion after empirical dispersion term =     9239.6981861257 Hartrees.
 ------------------------------------------------------------------------------
 Polarizable Continuum Model (PCM)
 =================================
 Model                : PCM.
 Atomic radii         : SMD-Coulomb.
 Polarization charges : Total charges.
 Charge compensation  : None.
 Solution method      : On-the-fly selection.
 Cavity type          : VdW (van der Waals Surface) (Alpha=1.000).
 Cavity algorithm     : GePol (No added spheres)
                        Default sphere list used, NSphG=  103.
                        Lebedev-Laikov grids with approx.  5.0 points / Ang**2.
                        Smoothing algorithm: York/Karplus (Gamma=1.0000).
                        Polarization charges: spherical gaussians, with
                                              point-specific exponents (IZeta= 3).
                        Self-potential: point-specific (ISelfS= 7).
                        Self-field    : sphere-specific E.n sum rule (ISelfD= 2).
 Solvent              : Chloroform, Eps=   4.711300 Eps(inf)=   2.090627
 ------------------------------------------------------------------------------
 ------------------------------------------------------------------------------
 Atomic radii for non-electrostatic terms: SMD-CDS.
 ------------------------------------------------------------------------------
 Nuclear repulsion after PCM non-electrostatic terms =     9239.6778193965 Hartrees.
 One-electron integrals computed using PRISM.
   1 Symmetry operations used in ECPInt.
 ECPInt:  NShTT=  311655 NPrTT=  958403 LenC2=  232720 LenP2D=  464538.
 LDataN:  DoStor=T MaxTD1= 6 Len=  172
 NBasis=  1963 RedAO= T EigKep=  2.72D-06  NBF=  1963
 NBsUse=  1963 1.00D-06 EigRej= -1.00D+00 NBFU=  1963
 Initial guess from the checkpoint file:  "1c75_III_H.chk"
 B after Tr=    -0.000000   -0.000000   -0.000000
         Rot=    1.000000   -0.000000   -0.000000   -0.000000 Ang=   0.00 deg.
 Initial guess <Sx>= 0.0000 <Sy>= 0.0000 <Sz>= 2.5000 <S**2>= 8.7601 S= 2.5017
 Requested convergence on RMS density matrix=1.00D-08 within 128 cycles.
 Requested convergence on MAX density matrix=1.00D-06.
 Requested convergence on             energy=1.00D-06.
 No special actions if energy rises.
 Inv3:  Mode=1 IEnd=   141755628.
 Iteration    1 A*A^-1 deviation from unit magnitude is 3.89D-15 for   3475.
 Iteration    1 A*A^-1 deviation from orthogonality  is 2.66D-15 for   3812    420.
 Iteration    1 A^-1*A deviation from unit magnitude is 3.77D-15 for   3475.
 Iteration    1 A^-1*A deviation from orthogonality  is 2.60D-15 for   3208   1223.
 Error on total polarization charges =  0.07517
 SCF Done:  E(UPBE1PBE) =  -3881.35716284     A.U. after   16 cycles
            NFock= 16  Conv=0.37D-08     -V/T= 2.0009
 <Sx>= 0.0000 <Sy>= 0.0000 <Sz>= 2.5000 <S**2>= 8.7599 S= 2.5016
 <L.S>= 0.000000000000E+00
 SMD-CDS (non-electrostatic) energy       (kcal/mol) =     -12.78
 (included in total energy above)
 Annihilation of the first spin contaminant:
 S**2 before annihilation     8.7599,   after     8.7500
 Hyperfine terms turned off by default for NAtoms > 100.

 **********************************************************************

            Population analysis using the SCF density.

 **********************************************************************

 Orbital symmetries:
 Alpha Orbitals:
       Occupied  (A) (A) (A) (A) (A) (A) (A) (A) (A) (A) (A) (A)
                 (A) (A) (A) (A) (A) (A) (A) (A) (A) (A) (A) (A)
                 (A) (A) (A) (A) (A) (A) (A) (A) (A) (A) (A) (A)
                 (A) (A) (A) (A) (A) (A) (A) (A) (A) (A) (A) (A)
                 (A) (A) (A) (A) (A) (A) (A) (A) (A) (A) (A) (A)
                 (A) (A) (A) (A) (A) (A) (A) (A) (A) (A) (A) (A)
                 (A) (A) (A) (A) (A) (A) (A) (A) (A) (A) (A) (A)
                 (A) (A) (A) (A) (A) (A) (A) (A) (A) (A) (A) (A)
                 (A) (A) (A) (A) (A) (A) (A) (A) (A) (A) (A) (A)
                 (A) (A) (A) (A) (A) (A) (A) (A) (A) (A) (A) (A)
                 (A) (A) (A) (A) (A) (A) (A) (A) (A) (A) (A) (A)
                 (A) (A) (A) (A) (A) (A) (A) (A) (A) (A) (A) (A)
                 (A) (A) (A) (A) (A) (A) (A) (A) (A) (A) (A) (A)
                 (A) (A) (A) (A) (A) (A) (A) (A) (A) (A) (A) (A)
                 (A) (A) (A) (A) (A) (A) (A) (A) (A) (A) (A) (A)
                 (A) (A) (A) (A) (A) (A) (A) (A) (A) (A) (A) (A)
                 (A) (A) (A) (A) (A) (A) (A) (A) (A) (A) (A) (A)
                 (A) (A) (A) (A)
       Virtual   (A) (A) (A) (A) (A) (A) (A) (A) (A) (A) (A) (A)
                 (A) (A) (A) (A) (A) (A) (A) (A) (A) (A) (A) (A)
                 (A) (A) (A) (A) (A) (A) (A) (A) (A) (A) (A) (A)
                 (A) (A) (A) (A) (A) (A) (A) (A) (A) (A) (A) (A)
                 (A) (A) (A) (A) (A) (A) (A) (A) (A) (A) (A) (A)
                 (A) (A) (A) (A) (A) (A) (A) (A) (A) (A) (A) (A)
                 (A) (A) (A) (A) (A) (A) (A) (A) (A) (A) (A) (A)
                 (A) (A) (A) (A) (A) (A) (A) (A) (A) (A) (A) (A)
                 (A) (A) (A) (A) (A) (A) (A) (A) (A) (A) (A) (A)
                 (A) (A) (A) (A) (A) (A) (A) (A) (A) (A) (A) (A)
                 (A) (A) (A) (A) (A) (A) (A) (A) (A) (A) (A) (A)
                 (A) (A) (A) (A) (A) (A) (A) (A) (A) (A) (A) (A)
                 (A) (A) (A) (A) (A) (A) (A) (A) (A) (A) (A) (A)
                 (A) (A) (A) (A) (A) (A) (A) (A) (A) (A) (A) (A)
                 (A) (A) (A) (A) (A) (A) (A) (A) (A) (A) (A) (A)
                 (A) (A) (A) (A) (A) (A) (A) (A) (A) (A) (A) (A)
                 (A) (A) (A) (A) (A) (A) (A) (A) (A) (A) (A) (A)
                 (A) (A) (A) (A) (A) (A) (A) (A) (A) (A) (A) (A)
                 (A) (A) (A) (A) (A) (A) (A) (A) (A) (A) (A) (A)
                 (A) (A) (A) (A) (A) (A) (A) (A) (A) (A) (A) (A)
                 (A) (A) (A) (A) (A) (A) (A) (A) (A) (A) (A) (A)
                 (A) (A) (A) (A) (A) (A) (A) (A) (A) (A) (A) (A)
                 (A) (A) (A) (A) (A) (A) (A) (A) (A) (A) (A) (A)
                 (A) (A) (A) (A) (A) (A) (A) (A) (A) (A) (A) (A)
                 (A) (A) (A) (A) (A) (A) (A) (A) (A) (A) (A) (A)
                 (A) (A) (A) (A) (A) (A) (A) (A) (A) (A) (A) (A)
                 (A) (A) (A) (A) (A) (A) (A) (A) (A) (A) (A) (A)
                 (A) (A) (A) (A) (A) (A) (A) (A) (A) (A) (A) (A)
                 (A) (A) (A) (A) (A) (A) (A) (A) (A) (A) (A) (A)
                 (A) (A) (A) (A) (A) (A) (A) (A) (A) (A) (A) (A)
                 (A) (A) (A) (A) (A) (A) (A) (A) (A) (A) (A) (A)
                 (A) (A) (A) (A) (A) (A) (A) (A) (A) (A) (A) (A)
                 (A) (A) (A) (A) (A) (A) (A) (A) (A) (A) (A) (A)
                 (A) (A) (A) (A) (A) (A) (A) (A) (A) (A) (A) (A)
                 (A) (A) (A) (A) (A) (A) (A) (A) (A) (A) (A) (A)
                 (A) (A) (A) (A) (A) (A) (A) (A) (A) (A) (A) (A)
                 (A) (A) (A) (A) (A) (A) (A) (A) (A) (A) (A) (A)
                 (A) (A) (A) (A) (A) (A) (A) (A) (A) (A) (A) (A)
                 (A) (A) (A) (A) (A) (A) (A) (A) (A) (A) (A) (A)
                 (A) (A) (A) (A) (A) (A) (A) (A) (A) (A) (A) (A)
                 (A) (A) (A) (A) (A) (A) (A) (A) (A) (A) (A) (A)
                 (A) (A) (A) (A) (A) (A) (A) (A) (A) (A) (A) (A)
                 (A) (A) (A) (A) (A) (A) (A) (A) (A) (A) (A) (A)
                 (A) (A) (A) (A) (A) (A) (A) (A) (A) (A) (A) (A)
                 (A) (A) (A) (A) (A) (A) (A) (A) (A) (A) (A) (A)
                 (A) (A) (A) (A) (A) (A) (A) (A) (A) (A) (A) (A)
                 (A) (A) (A) (A) (A) (A) (A) (A) (A) (A) (A) (A)
                 (A) (A) (A) (A) (A) (A) (A) (A) (A) (A) (A) (A)
                 (A) (A) (A) (A) (A) (A) (A) (A) (A) (A) (A) (A)
                 (A) (A) (A) (A) (A) (A) (A) (A) (A) (A) (A) (A)
                 (A) (A) (A) (A) (A) (A) (A) (A) (A) (A) (A) (A)
                 (A) (A) (A) (A) (A) (A) (A) (A) (A) (A) (A) (A)
                 (A) (A) (A) (A) (A) (A) (A) (A) (A) (A) (A) (A)
                 (A) (A) (A) (A) (A) (A) (A) (A) (A) (A) (A) (A)
                 (A) (A) (A) (A) (A) (A) (A) (A) (A) (A) (A) (A)
                 (A) (A) (A) (A) (A) (A) (A) (A) (A) (A) (A) (A)
                 (A) (A) (A) (A) (A) (A) (A) (A) (A) (A) (A) (A)
                 (A) (A) (A) (A) (A) (A) (A) (A) (A) (A) (A) (A)
                 (A) (A) (A) (A) (A) (A) (A) (A) (A) (A) (A) (A)
                 (A) (A) (A) (A) (A) (A) (A) (A) (A) (A) (A) (A)
                 (A) (A) (A) (A) (A) (A) (A) (A) (A) (A) (A) (A)
                 (A) (A) (A) (A) (A) (A) (A) (A) (A) (A) (A) (A)
                 (A) (A) (A) (A) (A) (A) (A) (A) (A) (A) (A) (A)
                 (A) (A) (A) (A) (A) (A) (A) (A) (A) (A) (A) (A)
                 (A) (A) (A) (A) (A) (A) (A) (A) (A) (A) (A) (A)
                 (A) (A) (A) (A) (A) (A) (A) (A) (A) (A) (A) (A)
                 (A) (A) (A) (A) (A) (A) (A) (A) (A) (A) (A) (A)
                 (A) (A) (A) (A) (A) (A) (A) (A) (A) (A) (A) (A)
                 (A) (A) (A) (A) (A) (A) (A) (A) (A) (A) (A) (A)
                 (A) (A) (A) (A) (A) (A) (A) (A) (A) (A) (A) (A)
                 (A) (A) (A) (A) (A) (A) (A) (A) (A) (A) (A) (A)
                 (A) (A) (A) (A) (A) (A) (A) (A) (A) (A) (A) (A)
                 (A) (A) (A) (A) (A) (A) (A) (A) (A) (A) (A) (A)
                 (A) (A) (A) (A) (A) (A) (A) (A) (A) (A) (A) (A)
                 (A) (A) (A) (A) (A) (A) (A) (A) (A) (A) (A) (A)
                 (A) (A) (A) (A) (A) (A) (A) (A) (A) (A) (A) (A)
                 (A) (A) (A) (A) (A) (A) (A) (A) (A) (A) (A) (A)
                 (A) (A) (A) (A) (A) (A) (A) (A) (A) (A) (A) (A)
                 (A) (A) (A) (A) (A) (A) (A) (A) (A) (A) (A) (A)
                 (A) (A) (A) (A) (A) (A) (A) (A) (A) (A) (A) (A)
                 (A) (A) (A) (A) (A) (A) (A) (A) (A) (A) (A) (A)
                 (A) (A) (A) (A) (A) (A) (A) (A) (A) (A) (A) (A)
                 (A) (A) (A) (A) (A) (A) (A) (A) (A) (A) (A) (A)
                 (A) (A) (A) (A) (A) (A) (A) (A) (A) (A) (A) (A)
                 (A) (A) (A) (A) (A) (A) (A) (A) (A) (A) (A) (A)
                 (A) (A) (A) (A) (A) (A) (A) (A) (A) (A) (A) (A)
                 (A) (A) (A) (A) (A) (A) (A) (A) (A) (A) (A) (A)
                 (A) (A) (A) (A) (A) (A) (A) (A) (A) (A) (A) (A)
                 (A) (A) (A) (A) (A) (A) (A) (A) (A) (A) (A) (A)
                 (A) (A) (A) (A) (A) (A) (A) (A) (A) (A) (A) (A)
                 (A) (A) (A) (A) (A) (A) (A) (A) (A) (A) (A) (A)
                 (A) (A) (A) (A) (A) (A) (A) (A) (A) (A) (A) (A)
                 (A) (A) (A) (A) (A) (A) (A) (A) (A) (A) (A) (A)
                 (A) (A) (A) (A) (A) (A) (A) (A) (A) (A) (A) (A)
                 (A) (A) (A) (A) (A) (A) (A) (A) (A) (A) (A) (A)
                 (A) (A) (A) (A) (A) (A) (A) (A) (A) (A) (A) (A)
                 (A) (A) (A) (A) (A) (A) (A) (A) (A) (A) (A) (A)
                 (A) (A) (A) (A) (A) (A) (A) (A) (A) (A) (A) (A)
                 (A) (A) (A) (A) (A) (A) (A) (A) (A) (A) (A) (A)
                 (A) (A) (A) (A) (A) (A) (A) (A) (A) (A) (A) (A)
                 (A) (A) (A) (A) (A) (A) (A) (A) (A) (A) (A) (A)
                 (A) (A) (A) (A) (A) (A) (A) (A) (A) (A) (A) (A)
                 (A) (A) (A) (A) (A) (A) (A) (A) (A) (A) (A) (A)
                 (A) (A) (A) (A) (A) (A) (A) (A) (A) (A) (A) (A)
                 (A) (A) (A) (A) (A) (A) (A) (A) (A) (A) (A) (A)
                 (A) (A) (A) (A) (A) (A) (A) (A) (A) (A) (A) (A)
                 (A) (A) (A) (A) (A) (A) (A) (A) (A) (A) (A) (A)
                 (A) (A) (A) (A) (A) (A) (A) (A) (A) (A) (A) (A)
                 (A) (A) (A) (A) (A) (A) (A) (A) (A) (A) (A) (A)
                 (A) (A) (A) (A) (A) (A) (A) (A) (A) (A) (A) (A)
                 (A) (A) (A) (A) (A) (A) (A) (A) (A) (A) (A) (A)
                 (A) (A) (A) (A) (A) (A) (A) (A) (A) (A) (A) (A)
                 (A) (A) (A) (A) (A) (A) (A) (A) (A) (A) (A) (A)
                 (A) (A) (A) (A) (A) (A) (A) (A) (A) (A) (A) (A)
                 (A) (A) (A) (A) (A) (A) (A) (A) (A) (A) (A) (A)
                 (A) (A) (A) (A) (A) (A) (A) (A) (A) (A) (A) (A)
                 (A) (A) (A) (A) (A) (A) (A) (A) (A) (A) (A) (A)
                 (A) (A) (A) (A) (A) (A) (A) (A) (A) (A) (A) (A)
                 (A) (A) (A) (A) (A) (A) (A) (A) (A) (A) (A) (A)
                 (A) (A) (A) (A) (A) (A) (A) (A) (A) (A) (A) (A)
                 (A) (A) (A) (A) (A) (A) (A) (A) (A) (A) (A) (A)
                 (A) (A) (A) (A) (A) (A) (A) (A) (A) (A) (A) (A)
                 (A) (A) (A) (A) (A) (A) (A) (A) (A) (A) (A) (A)
                 (A) (A) (A) (A) (A) (A) (A) (A) (A) (A) (A) (A)
                 (A) (A) (A) (A) (A) (A) (A) (A) (A) (A) (A) (A)
                 (A) (A) (A) (A) (A) (A) (A) (A) (A) (A) (A) (A)
                 (A) (A) (A) (A) (A) (A) (A) (A) (A) (A) (A) (A)
                 (A) (A) (A) (A) (A) (A) (A) (A) (A) (A) (A) (A)
                 (A) (A) (A) (A) (A) (A) (A) (A) (A) (A) (A) (A)
                 (A) (A) (A) (A) (A) (A) (A) (A) (A) (A) (A) (A)
                 (A) (A) (A) (A) (A) (A) (A) (A) (A) (A) (A) (A)
                 (A) (A) (A) (A) (A) (A) (A) (A) (A) (A) (A) (A)
                 (A) (A) (A) (A) (A) (A) (A) (A) (A) (A) (A) (A)
                 (A) (A) (A) (A) (A) (A) (A) (A) (A) (A) (A) (A)
                 (A) (A) (A) (A) (A) (A) (A) (A) (A) (A) (A) (A)
                 (A) (A) (A) (A) (A) (A) (A) (A) (A) (A) (A) (A)
                 (A) (A) (A) (A) (A) (A) (A) (A) (A) (A) (A) (A)
                 (A) (A) (A) (A) (A) (A) (A) (A) (A) (A) (A) (A)
                 (A) (A) (A) (A) (A) (A) (A) (A) (A) (A) (A) (A)
                 (A) (A) (A) (A) (A) (A) (A) (A) (A) (A) (A) (A)
                 (A) (A) (A) (A) (A) (A) (A) (A) (A) (A) (A) (A)
                 (A) (A) (A) (A) (A) (A) (A) (A) (A) (A) (A) (A)
                 (A) (A) (A) (A) (A) (A) (A) (A) (A) (A) (A) (A)
                 (A) (A) (A) (A) (A) (A) (A) (A) (A) (A) (A) (A)
                 (A) (A) (A) (A) (A) (A) (A) (A) (A) (A) (A) (A)
                 (A) (A) (A) (A) (A) (A) (A) (A) (A) (A) (A) (A)
                 (A) (A) (A)
 Beta  Orbitals:
       Occupied  (A) (A) (A) (A) (A) (A) (A) (A) (A) (A) (A) (A)
                 (A) (A) (A) (A) (A) (A) (A) (A) (A) (A) (A) (A)
                 (A) (A) (A) (A) (A) (A) (A) (A) (A) (A) (A) (A)
                 (A) (A) (A) (A) (A) (A) (A) (A) (A) (A) (A) (A)
                 (A) (A) (A) (A) (A) (A) (A) (A) (A) (A) (A) (A)
                 (A) (A) (A) (A) (A) (A) (A) (A) (A) (A) (A) (A)
                 (A) (A) (A) (A) (A) (A) (A) (A) (A) (A) (A) (A)
                 (A) (A) (A) (A) (A) (A) (A) (A) (A) (A) (A) (A)
                 (A) (A) (A) (A) (A) (A) (A) (A) (A) (A) (A) (A)
                 (A) (A) (A) (A) (A) (A) (A) (A) (A) (A) (A) (A)
                 (A) (A) (A) (A) (A) (A) (A) (A) (A) (A) (A) (A)
                 (A) (A) (A) (A) (A) (A) (A) (A) (A) (A) (A) (A)
                 (A) (A) (A) (A) (A) (A) (A) (A) (A) (A) (A) (A)
                 (A) (A) (A) (A) (A) (A) (A) (A) (A) (A) (A) (A)
                 (A) (A) (A) (A) (A) (A) (A) (A) (A) (A) (A) (A)
                 (A) (A) (A) (A) (A) (A) (A) (A) (A) (A) (A) (A)
                 (A) (A) (A) (A) (A) (A) (A) (A) (A) (A) (A)
       Virtual   (A) (A) (A) (A) (A) (A) (A) (A) (A) (A) (A) (A)
                 (A) (A) (A) (A) (A) (A) (A) (A) (A) (A) (A) (A)
                 (A) (A) (A) (A) (A) (A) (A) (A) (A) (A) (A) (A)
                 (A) (A) (A) (A) (A) (A) (A) (A) (A) (A) (A) (A)
                 (A) (A) (A) (A) (A) (A) (A) (A) (A) (A) (A) (A)
                 (A) (A) (A) (A) (A) (A) (A) (A) (A) (A) (A) (A)
                 (A) (A) (A) (A) (A) (A) (A) (A) (A) (A) (A) (A)
                 (A) (A) (A) (A) (A) (A) (A) (A) (A) (A) (A) (A)
                 (A) (A) (A) (A) (A) (A) (A) (A) (A) (A) (A) (A)
                 (A) (A) (A) (A) (A) (A) (A) (A) (A) (A) (A) (A)
                 (A) (A) (A) (A) (A) (A) (A) (A) (A) (A) (A) (A)
                 (A) (A) (A) (A) (A) (A) (A) (A) (A) (A) (A) (A)
                 (A) (A) (A) (A) (A) (A) (A) (A) (A) (A) (A) (A)
                 (A) (A) (A) (A) (A) (A) (A) (A) (A) (A) (A) (A)
                 (A) (A) (A) (A) (A) (A) (A) (A) (A) (A) (A) (A)
                 (A) (A) (A) (A) (A) (A) (A) (A) (A) (A) (A) (A)
                 (A) (A) (A) (A) (A) (A) (A) (A) (A) (A) (A) (A)
                 (A) (A) (A) (A) (A) (A) (A) (A) (A) (A) (A) (A)
                 (A) (A) (A) (A) (A) (A) (A) (A) (A) (A) (A) (A)
                 (A) (A) (A) (A) (A) (A) (A) (A) (A) (A) (A) (A)
                 (A) (A) (A) (A) (A) (A) (A) (A) (A) (A) (A) (A)
                 (A) (A) (A) (A) (A) (A) (A) (A) (A) (A) (A) (A)
                 (A) (A) (A) (A) (A) (A) (A) (A) (A) (A) (A) (A)
                 (A) (A) (A) (A) (A) (A) (A) (A) (A) (A) (A) (A)
                 (A) (A) (A) (A) (A) (A) (A) (A) (A) (A) (A) (A)
                 (A) (A) (A) (A) (A) (A) (A) (A) (A) (A) (A) (A)
                 (A) (A) (A) (A) (A) (A) (A) (A) (A) (A) (A) (A)
                 (A) (A) (A) (A) (A) (A) (A) (A) (A) (A) (A) (A)
                 (A) (A) (A) (A) (A) (A) (A) (A) (A) (A) (A) (A)
                 (A) (A) (A) (A) (A) (A) (A) (A) (A) (A) (A) (A)
                 (A) (A) (A) (A) (A) (A) (A) (A) (A) (A) (A) (A)
                 (A) (A) (A) (A) (A) (A) (A) (A) (A) (A) (A) (A)
                 (A) (A) (A) (A) (A) (A) (A) (A) (A) (A) (A) (A)
                 (A) (A) (A) (A) (A) (A) (A) (A) (A) (A) (A) (A)
                 (A) (A) (A) (A) (A) (A) (A) (A) (A) (A) (A) (A)
                 (A) (A) (A) (A) (A) (A) (A) (A) (A) (A) (A) (A)
                 (A) (A) (A) (A) (A) (A) (A) (A) (A) (A) (A) (A)
                 (A) (A) (A) (A) (A) (A) (A) (A) (A) (A) (A) (A)
                 (A) (A) (A) (A) (A) (A) (A) (A) (A) (A) (A) (A)
                 (A) (A) (A) (A) (A) (A) (A) (A) (A) (A) (A) (A)
                 (A) (A) (A) (A) (A) (A) (A) (A) (A) (A) (A) (A)
                 (A) (A) (A) (A) (A) (A) (A) (A) (A) (A) (A) (A)
                 (A) (A) (A) (A) (A) (A) (A) (A) (A) (A) (A) (A)
                 (A) (A) (A) (A) (A) (A) (A) (A) (A) (A) (A) (A)
                 (A) (A) (A) (A) (A) (A) (A) (A) (A) (A) (A) (A)
                 (A) (A) (A) (A) (A) (A) (A) (A) (A) (A) (A) (A)
                 (A) (A) (A) (A) (A) (A) (A) (A) (A) (A) (A) (A)
                 (A) (A) (A) (A) (A) (A) (A) (A) (A) (A) (A) (A)
                 (A) (A) (A) (A) (A) (A) (A) (A) (A) (A) (A) (A)
                 (A) (A) (A) (A) (A) (A) (A) (A) (A) (A) (A) (A)
                 (A) (A) (A) (A) (A) (A) (A) (A) (A) (A) (A) (A)
                 (A) (A) (A) (A) (A) (A) (A) (A) (A) (A) (A) (A)
                 (A) (A) (A) (A) (A) (A) (A) (A) (A) (A) (A) (A)
                 (A) (A) (A) (A) (A) (A) (A) (A) (A) (A) (A) (A)
                 (A) (A) (A) (A) (A) (A) (A) (A) (A) (A) (A) (A)
                 (A) (A) (A) (A) (A) (A) (A) (A) (A) (A) (A) (A)
                 (A) (A) (A) (A) (A) (A) (A) (A) (A) (A) (A) (A)
                 (A) (A) (A) (A) (A) (A) (A) (A) (A) (A) (A) (A)
                 (A) (A) (A) (A) (A) (A) (A) (A) (A) (A) (A) (A)
                 (A) (A) (A) (A) (A) (A) (A) (A) (A) (A) (A) (A)
                 (A) (A) (A) (A) (A) (A) (A) (A) (A) (A) (A) (A)
                 (A) (A) (A) (A) (A) (A) (A) (A) (A) (A) (A) (A)
                 (A) (A) (A) (A) (A) (A) (A) (A) (A) (A) (A) (A)
                 (A) (A) (A) (A) (A) (A) (A) (A) (A) (A) (A) (A)
                 (A) (A) (A) (A) (A) (A) (A) (A) (A) (A) (A) (A)
                 (A) (A) (A) (A) (A) (A) (A) (A) (A) (A) (A) (A)
                 (A) (A) (A) (A) (A) (A) (A) (A) (A) (A) (A) (A)
                 (A) (A) (A) (A) (A) (A) (A) (A) (A) (A) (A) (A)
                 (A) (A) (A) (A) (A) (A) (A) (A) (A) (A) (A) (A)
                 (A) (A) (A) (A) (A) (A) (A) (A) (A) (A) (A) (A)
                 (A) (A) (A) (A) (A) (A) (A) (A) (A) (A) (A) (A)
                 (A) (A) (A) (A) (A) (A) (A) (A) (A) (A) (A) (A)
                 (A) (A) (A) (A) (A) (A) (A) (A) (A) (A) (A) (A)
                 (A) (A) (A) (A) (A) (A) (A) (A) (A) (A) (A) (A)
                 (A) (A) (A) (A) (A) (A) (A) (A) (A) (A) (A) (A)
                 (A) (A) (A) (A) (A) (A) (A) (A) (A) (A) (A) (A)
                 (A) (A) (A) (A) (A) (A) (A) (A) (A) (A) (A) (A)
                 (A) (A) (A) (A) (A) (A) (A) (A) (A) (A) (A) (A)
                 (A) (A) (A) (A) (A) (A) (A) (A) (A) (A) (A) (A)
                 (A) (A) (A) (A) (A) (A) (A) (A) (A) (A) (A) (A)
                 (A) (A) (A) (A) (A) (A) (A) (A) (A) (A) (A) (A)
                 (A) (A) (A) (A) (A) (A) (A) (A) (A) (A) (A) (A)
                 (A) (A) (A) (A) (A) (A) (A) (A) (A) (A) (A) (A)
                 (A) (A) (A) (A) (A) (A) (A) (A) (A) (A) (A) (A)
                 (A) (A) (A) (A) (A) (A) (A) (A) (A) (A) (A) (A)
                 (A) (A) (A) (A) (A) (A) (A) (A) (A) (A) (A) (A)
                 (A) (A) (A) (A) (A) (A) (A) (A) (A) (A) (A) (A)
                 (A) (A) (A) (A) (A) (A) (A) (A) (A) (A) (A) (A)
                 (A) (A) (A) (A) (A) (A) (A) (A) (A) (A) (A) (A)
                 (A) (A) (A) (A) (A) (A) (A) (A) (A) (A) (A) (A)
                 (A) (A) (A) (A) (A) (A) (A) (A) (A) (A) (A) (A)
                 (A) (A) (A) (A) (A) (A) (A) (A) (A) (A) (A) (A)
                 (A) (A) (A) (A) (A) (A) (A) (A) (A) (A) (A) (A)
                 (A) (A) (A) (A) (A) (A) (A) (A) (A) (A) (A) (A)
                 (A) (A) (A) (A) (A) (A) (A) (A) (A) (A) (A) (A)
                 (A) (A) (A) (A) (A) (A) (A) (A) (A) (A) (A) (A)
                 (A) (A) (A) (A) (A) (A) (A) (A) (A) (A) (A) (A)
                 (A) (A) (A) (A) (A) (A) (A) (A) (A) (A) (A) (A)
                 (A) (A) (A) (A) (A) (A) (A) (A) (A) (A) (A) (A)
                 (A) (A) (A) (A) (A) (A) (A) (A) (A) (A) (A) (A)
                 (A) (A) (A) (A) (A) (A) (A) (A) (A) (A) (A) (A)
                 (A) (A) (A) (A) (A) (A) (A) (A) (A) (A) (A) (A)
                 (A) (A) (A) (A) (A) (A) (A) (A) (A) (A) (A) (A)
                 (A) (A) (A) (A) (A) (A) (A) (A) (A) (A) (A) (A)
                 (A) (A) (A) (A) (A) (A) (A) (A) (A) (A) (A) (A)
                 (A) (A) (A) (A) (A) (A) (A) (A) (A) (A) (A) (A)
                 (A) (A) (A) (A) (A) (A) (A) (A) (A) (A) (A) (A)
                 (A) (A) (A) (A) (A) (A) (A) (A) (A) (A) (A) (A)
                 (A) (A) (A) (A) (A) (A) (A) (A) (A) (A) (A) (A)
                 (A) (A) (A) (A) (A) (A) (A) (A) (A) (A) (A) (A)
                 (A) (A) (A) (A) (A) (A) (A) (A) (A) (A) (A) (A)
                 (A) (A) (A) (A) (A) (A) (A) (A) (A) (A) (A) (A)
                 (A) (A) (A) (A) (A) (A) (A) (A) (A) (A) (A) (A)
                 (A) (A) (A) (A) (A) (A) (A) (A) (A) (A) (A) (A)
                 (A) (A) (A) (A) (A) (A) (A) (A) (A) (A) (A) (A)
                 (A) (A) (A) (A) (A) (A) (A) (A) (A) (A) (A) (A)
                 (A) (A) (A) (A) (A) (A) (A) (A) (A) (A) (A) (A)
                 (A) (A) (A) (A) (A) (A) (A) (A) (A) (A) (A) (A)
                 (A) (A) (A) (A) (A) (A) (A) (A) (A) (A) (A) (A)
                 (A) (A) (A) (A) (A) (A) (A) (A) (A) (A) (A) (A)
                 (A) (A) (A) (A) (A) (A) (A) (A) (A) (A) (A) (A)
                 (A) (A) (A) (A) (A) (A) (A) (A) (A) (A) (A) (A)
                 (A) (A) (A) (A) (A) (A) (A) (A) (A) (A) (A) (A)
                 (A) (A) (A) (A) (A) (A) (A) (A) (A) (A) (A) (A)
                 (A) (A) (A) (A) (A) (A) (A) (A) (A) (A) (A) (A)
                 (A) (A) (A) (A) (A) (A) (A) (A) (A) (A) (A) (A)
                 (A) (A) (A) (A) (A) (A) (A) (A) (A) (A) (A) (A)
                 (A) (A) (A) (A) (A) (A) (A) (A) (A) (A) (A) (A)
                 (A) (A) (A) (A) (A) (A) (A) (A) (A) (A) (A) (A)
                 (A) (A) (A) (A) (A) (A) (A) (A) (A) (A) (A) (A)
                 (A) (A) (A) (A) (A) (A) (A) (A) (A) (A) (A) (A)
                 (A) (A) (A) (A) (A) (A) (A) (A) (A) (A) (A) (A)
                 (A) (A) (A) (A) (A) (A) (A) (A) (A) (A) (A) (A)
                 (A) (A) (A) (A) (A) (A) (A) (A) (A) (A) (A) (A)
                 (A) (A) (A) (A) (A) (A) (A) (A) (A) (A) (A) (A)
                 (A) (A) (A) (A) (A) (A) (A) (A) (A) (A) (A) (A)
                 (A) (A) (A) (A) (A) (A) (A) (A) (A) (A) (A) (A)
                 (A) (A) (A) (A) (A) (A) (A) (A) (A) (A) (A) (A)
                 (A) (A) (A) (A) (A) (A) (A) (A) (A) (A) (A) (A)
                 (A) (A) (A) (A) (A) (A) (A) (A) (A) (A) (A) (A)
                 (A) (A) (A) (A) (A) (A) (A) (A) (A) (A) (A) (A)
                 (A) (A) (A) (A) (A) (A) (A) (A) (A) (A) (A) (A)
                 (A) (A) (A) (A) (A) (A) (A) (A) (A) (A) (A) (A)
                 (A) (A) (A) (A) (A) (A) (A) (A) (A) (A) (A) (A)
                 (A) (A) (A) (A) (A) (A) (A) (A) (A) (A) (A) (A)
                 (A) (A) (A) (A) (A) (A) (A) (A) (A) (A) (A) (A)
                 (A) (A) (A) (A) (A) (A) (A) (A)
 The electronic state is 6-A.
 Alpha  occ. eigenvalues -- -256.45868 -89.04808 -30.28779 -26.10417 -26.10405
 Alpha  occ. eigenvalues --  -26.10355 -19.26264 -19.25436 -19.19545 -19.19426
 Alpha  occ. eigenvalues --  -14.44958 -14.41612 -14.40319 -14.39959 -14.39798
 Alpha  occ. eigenvalues --  -14.39644 -10.36222 -10.36045 -10.29185 -10.27900
 Alpha  occ. eigenvalues --  -10.27866 -10.27763 -10.27552 -10.27477 -10.27368
 Alpha  occ. eigenvalues --  -10.27285 -10.27225 -10.27203 -10.25104 -10.24980
 Alpha  occ. eigenvalues --  -10.24398 -10.24372 -10.24295 -10.24291 -10.24093
 Alpha  occ. eigenvalues --  -10.23998 -10.23924 -10.23465 -10.23429 -10.23286
 Alpha  occ. eigenvalues --  -10.23126 -10.22938 -10.22760 -10.22747 -10.22669
 Alpha  occ. eigenvalues --  -10.22530 -10.21597 -10.21489 -10.21459 -10.21437
 Alpha  occ. eigenvalues --  -10.21287 -10.21268 -10.21025 -10.19016 -10.18759
 Alpha  occ. eigenvalues --  -10.18513 -10.17960  -8.02869  -5.96462  -5.96212
 Alpha  occ. eigenvalues --   -5.95779  -3.71553  -2.47733  -2.47693  -2.47492
 Alpha  occ. eigenvalues --   -1.19822  -1.16474  -1.09535  -1.04742  -1.03560
 Alpha  occ. eigenvalues --   -1.01716  -1.00627  -1.00254  -0.99348  -0.95437
 Alpha  occ. eigenvalues --   -0.87599  -0.87280  -0.86988  -0.86671  -0.85537
 Alpha  occ. eigenvalues --   -0.85242  -0.84846  -0.84309  -0.83375  -0.83131
 Alpha  occ. eigenvalues --   -0.82623  -0.80549  -0.80207  -0.79329  -0.79140
 Alpha  occ. eigenvalues --   -0.77820  -0.77261  -0.75711  -0.75207  -0.74973
 Alpha  occ. eigenvalues --   -0.73648  -0.73343  -0.72558  -0.70874  -0.70051
 Alpha  occ. eigenvalues --   -0.69094  -0.68887  -0.67401  -0.67069  -0.66353
 Alpha  occ. eigenvalues --   -0.66072  -0.65778  -0.64822  -0.62885  -0.62129
 Alpha  occ. eigenvalues --   -0.60496  -0.59395  -0.58665  -0.58299  -0.57645
 Alpha  occ. eigenvalues --   -0.56462  -0.55858  -0.55456  -0.55071  -0.54724
 Alpha  occ. eigenvalues --   -0.54168  -0.53236  -0.52670  -0.52438  -0.52177
 Alpha  occ. eigenvalues --   -0.51748  -0.51647  -0.51253  -0.51233  -0.50893
 Alpha  occ. eigenvalues --   -0.50693  -0.50082  -0.49560  -0.49301  -0.48967
 Alpha  occ. eigenvalues --   -0.48702  -0.48573  -0.48455  -0.48249  -0.48161
 Alpha  occ. eigenvalues --   -0.47860  -0.47859  -0.47655  -0.47535  -0.47105
 Alpha  occ. eigenvalues --   -0.47005  -0.46825  -0.46680  -0.46240  -0.46011
 Alpha  occ. eigenvalues --   -0.45568  -0.45209  -0.45004  -0.44819  -0.44433
 Alpha  occ. eigenvalues --   -0.44310  -0.44059  -0.43899  -0.43836  -0.43734
 Alpha  occ. eigenvalues --   -0.43527  -0.43127  -0.42996  -0.42750  -0.42561
 Alpha  occ. eigenvalues --   -0.42409  -0.42303  -0.41928  -0.41868  -0.41381
 Alpha  occ. eigenvalues --   -0.41135  -0.40879  -0.40541  -0.40355  -0.39935
 Alpha  occ. eigenvalues --   -0.39374  -0.39025  -0.38892  -0.38667  -0.38196
 Alpha  occ. eigenvalues --   -0.38064  -0.37696  -0.37310  -0.37220  -0.36703
 Alpha  occ. eigenvalues --   -0.36381  -0.36106  -0.35975  -0.35505  -0.35384
 Alpha  occ. eigenvalues --   -0.35119  -0.34458  -0.34336  -0.33316  -0.31454
 Alpha  occ. eigenvalues --   -0.30821  -0.30645  -0.30066  -0.29616  -0.27674
 Alpha  occ. eigenvalues --   -0.27054  -0.26712  -0.26457  -0.26143  -0.24742
 Alpha  occ. eigenvalues --   -0.24455  -0.22156  -0.21580
 Alpha virt. eigenvalues --   -0.10110  -0.09887  -0.03879  -0.02605  -0.00628
 Alpha virt. eigenvalues --   -0.00421   0.00787   0.01381   0.02143   0.02790
 Alpha virt. eigenvalues --    0.03013   0.03304   0.03801   0.04369   0.04595
 Alpha virt. eigenvalues --    0.04884   0.04954   0.05318   0.05691   0.06118
 Alpha virt. eigenvalues --    0.06192   0.07166   0.07298   0.07350   0.07664
 Alpha virt. eigenvalues --    0.07819   0.08039   0.08326   0.08592   0.08643
 Alpha virt. eigenvalues --    0.09024   0.09136   0.09598   0.09656   0.10102
 Alpha virt. eigenvalues --    0.10304   0.10566   0.10710   0.10913   0.11050
 Alpha virt. eigenvalues --    0.11157   0.11756   0.11900   0.12056   0.12146
 Alpha virt. eigenvalues --    0.12302   0.12354   0.12552   0.13029   0.13121
 Alpha virt. eigenvalues --    0.13167   0.13299   0.13641   0.13755   0.13942
 Alpha virt. eigenvalues --    0.14135   0.14270   0.14428   0.14549   0.14862
 Alpha virt. eigenvalues --    0.14982   0.15188   0.15355   0.15637   0.15926
 Alpha virt. eigenvalues --    0.16132   0.16221   0.16318   0.16428   0.16602
 Alpha virt. eigenvalues --    0.16830   0.16906   0.17162   0.17298   0.17495
 Alpha virt. eigenvalues --    0.17706   0.18091   0.18266   0.18345   0.18542
 Alpha virt. eigenvalues --    0.18614   0.18874   0.19060   0.19347   0.19355
 Alpha virt. eigenvalues --    0.19655   0.19926   0.19995   0.20256   0.20377
 Alpha virt. eigenvalues --    0.20693   0.20901   0.20995   0.21173   0.21352
 Alpha virt. eigenvalues --    0.21476   0.21787   0.22091   0.22511   0.22585
 Alpha virt. eigenvalues --    0.22775   0.22951   0.23170   0.23350   0.23857
 Alpha virt. eigenvalues --    0.24013   0.24224   0.24279   0.24549   0.24625
 Alpha virt. eigenvalues --    0.25010   0.25074   0.25190   0.25457   0.25620
 Alpha virt. eigenvalues --    0.25873   0.26069   0.26126   0.26265   0.26557
 Alpha virt. eigenvalues --    0.26866   0.27379   0.27623   0.27833   0.27928
 Alpha virt. eigenvalues --    0.28195   0.28434   0.28490   0.28845   0.28937
 Alpha virt. eigenvalues --    0.29115   0.29248   0.29438   0.29859   0.30064
 Alpha virt. eigenvalues --    0.30236   0.30594   0.30716   0.31164   0.31244
 Alpha virt. eigenvalues --    0.31668   0.31753   0.32148   0.32402   0.32588
 Alpha virt. eigenvalues --    0.32760   0.32790   0.33108   0.33562   0.33601
 Alpha virt. eigenvalues --    0.34021   0.34159   0.34217   0.34403   0.34847
 Alpha virt. eigenvalues --    0.35168   0.35295   0.35577   0.35938   0.35979
 Alpha virt. eigenvalues --    0.36125   0.36520   0.36812   0.36924   0.37335
 Alpha virt. eigenvalues --    0.37460   0.37599   0.37724   0.37994   0.38160
 Alpha virt. eigenvalues --    0.38418   0.38727   0.38866   0.39054   0.39086
 Alpha virt. eigenvalues --    0.39342   0.39663   0.39701   0.39883   0.40175
 Alpha virt. eigenvalues --    0.40571   0.40661   0.40943   0.41232   0.41245
 Alpha virt. eigenvalues --    0.41352   0.41525   0.41719   0.41914   0.42087
 Alpha virt. eigenvalues --    0.42305   0.42492   0.42603   0.42714   0.42945
 Alpha virt. eigenvalues --    0.42999   0.43152   0.43305   0.43527   0.43615
 Alpha virt. eigenvalues --    0.43870   0.43949   0.44267   0.44412   0.44687
 Alpha virt. eigenvalues --    0.44839   0.44957   0.45048   0.45196   0.45280
 Alpha virt. eigenvalues --    0.45461   0.45717   0.45807   0.46004   0.46119
 Alpha virt. eigenvalues --    0.46249   0.46503   0.46828   0.46905   0.46998
 Alpha virt. eigenvalues --    0.47142   0.47418   0.47643   0.47844   0.48019
 Alpha virt. eigenvalues --    0.48144   0.48377   0.48581   0.48692   0.48866
 Alpha virt. eigenvalues --    0.49133   0.49234   0.49377   0.49528   0.49701
 Alpha virt. eigenvalues --    0.49848   0.50074   0.50140   0.50382   0.50644
 Alpha virt. eigenvalues --    0.50776   0.51114   0.51389   0.51527   0.51594
 Alpha virt. eigenvalues --    0.51912   0.51982   0.52052   0.52261   0.52677
 Alpha virt. eigenvalues --    0.52739   0.52892   0.53133   0.53320   0.53371
 Alpha virt. eigenvalues --    0.53753   0.54013   0.54083   0.54259   0.54550
 Alpha virt. eigenvalues --    0.54720   0.54901   0.55241   0.55348   0.55586
 Alpha virt. eigenvalues --    0.55855   0.56093   0.56288   0.56544   0.56657
 Alpha virt. eigenvalues --    0.56729   0.56951   0.57068   0.57357   0.57698
 Alpha virt. eigenvalues --    0.57883   0.58203   0.58331   0.58521   0.58723
 Alpha virt. eigenvalues --    0.58932   0.58943   0.59339   0.59612   0.59704
 Alpha virt. eigenvalues --    0.59794   0.60372   0.60755   0.60947   0.61083
 Alpha virt. eigenvalues --    0.61198   0.61304   0.61557   0.61635   0.61861
 Alpha virt. eigenvalues --    0.62179   0.62430   0.62589   0.62872   0.63063
 Alpha virt. eigenvalues --    0.63408   0.63740   0.63978   0.64321   0.64589
 Alpha virt. eigenvalues --    0.64753   0.64954   0.65151   0.65407   0.65671
 Alpha virt. eigenvalues --    0.65833   0.66125   0.66192   0.66596   0.67165
 Alpha virt. eigenvalues --    0.67246   0.67597   0.67867   0.68223   0.68261
 Alpha virt. eigenvalues --    0.68519   0.68729   0.68966   0.69262   0.69593
 Alpha virt. eigenvalues --    0.69892   0.70220   0.70261   0.70722   0.71071
 Alpha virt. eigenvalues --    0.71120   0.71407   0.71722   0.72298   0.72424
 Alpha virt. eigenvalues --    0.72623   0.72862   0.72874   0.73257   0.73704
 Alpha virt. eigenvalues --    0.74124   0.74365   0.74735   0.75023   0.75259
 Alpha virt. eigenvalues --    0.75462   0.75831   0.75887   0.76281   0.76593
 Alpha virt. eigenvalues --    0.76810   0.76908   0.77330   0.77589   0.77928
 Alpha virt. eigenvalues --    0.78215   0.78378   0.78670   0.79052   0.79118
 Alpha virt. eigenvalues --    0.79202   0.79600   0.79988   0.80184   0.80535
 Alpha virt. eigenvalues --    0.80834   0.81133   0.81351   0.81656   0.82093
 Alpha virt. eigenvalues --    0.82363   0.82709   0.82818   0.83263   0.83392
 Alpha virt. eigenvalues --    0.83729   0.83817   0.84192   0.84468   0.85052
 Alpha virt. eigenvalues --    0.85295   0.85429   0.85739   0.86070   0.86201
 Alpha virt. eigenvalues --    0.86597   0.86898   0.87255   0.87464   0.87628
 Alpha virt. eigenvalues --    0.88010   0.88136   0.88303   0.88672   0.88963
 Alpha virt. eigenvalues --    0.89073   0.89122   0.89639   0.89769   0.90059
 Alpha virt. eigenvalues --    0.90209   0.90596   0.91058   0.91235   0.91558
 Alpha virt. eigenvalues --    0.91630   0.91905   0.92172   0.92442   0.92565
 Alpha virt. eigenvalues --    0.92941   0.93421   0.93686   0.93833   0.94412
 Alpha virt. eigenvalues --    0.94547   0.94884   0.95171   0.95536   0.95648
 Alpha virt. eigenvalues --    0.95931   0.96282   0.96502   0.96662   0.97120
 Alpha virt. eigenvalues --    0.97448   0.97653   0.98208   0.98352   0.98692
 Alpha virt. eigenvalues --    0.98829   0.99018   0.99285   0.99646   0.99703
 Alpha virt. eigenvalues --    0.99865   1.00298   1.00358   1.00460   1.00766
 Alpha virt. eigenvalues --    1.01313   1.01457   1.01871   1.02250   1.02408
 Alpha virt. eigenvalues --    1.02801   1.03020   1.03222   1.03462   1.03912
 Alpha virt. eigenvalues --    1.04131   1.04247   1.04308   1.04440   1.04742
 Alpha virt. eigenvalues --    1.05301   1.05405   1.05667   1.05957   1.06265
 Alpha virt. eigenvalues --    1.06385   1.06871   1.07057   1.07690   1.07985
 Alpha virt. eigenvalues --    1.08088   1.08520   1.08581   1.08974   1.09181
 Alpha virt. eigenvalues --    1.09363   1.09460   1.09716   1.10147   1.10814
 Alpha virt. eigenvalues --    1.11086   1.11538   1.12064   1.12279   1.12489
 Alpha virt. eigenvalues --    1.12671   1.13184   1.13424   1.13767   1.14180
 Alpha virt. eigenvalues --    1.14749   1.14894   1.15183   1.15385   1.15882
 Alpha virt. eigenvalues --    1.16346   1.16511   1.16661   1.17219   1.17527
 Alpha virt. eigenvalues --    1.17732   1.18057   1.18600   1.18771   1.18869
 Alpha virt. eigenvalues --    1.19227   1.19343   1.19598   1.20268   1.20441
 Alpha virt. eigenvalues --    1.20937   1.21199   1.21492   1.21621   1.22294
 Alpha virt. eigenvalues --    1.22590   1.23117   1.23567   1.23851   1.24381
 Alpha virt. eigenvalues --    1.24611   1.24812   1.24994   1.25262   1.25599
 Alpha virt. eigenvalues --    1.25665   1.25965   1.26457   1.26575   1.26758
 Alpha virt. eigenvalues --    1.27466   1.27545   1.28395   1.28574   1.28697
 Alpha virt. eigenvalues --    1.29082   1.29376   1.29696   1.30016   1.30087
 Alpha virt. eigenvalues --    1.30494   1.30964   1.31224   1.31680   1.31811
 Alpha virt. eigenvalues --    1.32233   1.33191   1.33372   1.33528   1.33619
 Alpha virt. eigenvalues --    1.34086   1.34857   1.35052   1.35238   1.35588
 Alpha virt. eigenvalues --    1.35758   1.36262   1.36632   1.37459   1.37861
 Alpha virt. eigenvalues --    1.38430   1.38584   1.38968   1.39893   1.40045
 Alpha virt. eigenvalues --    1.40250   1.40926   1.41587   1.41856   1.42508
 Alpha virt. eigenvalues --    1.42655   1.42770   1.43508   1.44390   1.44562
 Alpha virt. eigenvalues --    1.45017   1.46047   1.46094   1.46376   1.46775
 Alpha virt. eigenvalues --    1.47022   1.47324   1.47471   1.47973   1.48060
 Alpha virt. eigenvalues --    1.48311   1.48722   1.48984   1.49176   1.49628
 Alpha virt. eigenvalues --    1.50045   1.50297   1.50424   1.51069   1.51110
 Alpha virt. eigenvalues --    1.51312   1.51441   1.51971   1.52499   1.52607
 Alpha virt. eigenvalues --    1.52841   1.53075   1.53128   1.53497   1.53812
 Alpha virt. eigenvalues --    1.53993   1.54134   1.54316   1.54404   1.54657
 Alpha virt. eigenvalues --    1.54968   1.55546   1.55712   1.55774   1.56103
 Alpha virt. eigenvalues --    1.56302   1.56692   1.56801   1.57136   1.57411
 Alpha virt. eigenvalues --    1.57527   1.57912   1.58017   1.58633   1.58840
 Alpha virt. eigenvalues --    1.59270   1.59380   1.59548   1.59874   1.60184
 Alpha virt. eigenvalues --    1.60309   1.60639   1.60972   1.61175   1.61569
 Alpha virt. eigenvalues --    1.61785   1.61914   1.62120   1.62448   1.62709
 Alpha virt. eigenvalues --    1.62944   1.63114   1.63269   1.63605   1.64149
 Alpha virt. eigenvalues --    1.64277   1.64358   1.64869   1.65102   1.65152
 Alpha virt. eigenvalues --    1.65430   1.65617   1.66083   1.66249   1.66441
 Alpha virt. eigenvalues --    1.66808   1.66952   1.67238   1.67451   1.67594
 Alpha virt. eigenvalues --    1.67988   1.68137   1.68148   1.68358   1.68870
 Alpha virt. eigenvalues --    1.69101   1.69359   1.69544   1.69853   1.70170
 Alpha virt. eigenvalues --    1.70477   1.70654   1.71225   1.71397   1.71971
 Alpha virt. eigenvalues --    1.72415   1.72487   1.72617   1.72866   1.73318
 Alpha virt. eigenvalues --    1.73420   1.73573   1.73815   1.74289   1.74451
 Alpha virt. eigenvalues --    1.74898   1.75136   1.75613   1.75907   1.76282
 Alpha virt. eigenvalues --    1.76451   1.76772   1.77003   1.77338   1.77511
 Alpha virt. eigenvalues --    1.77672   1.78207   1.78534   1.79093   1.79747
 Alpha virt. eigenvalues --    1.79962   1.80096   1.80288   1.80927   1.81147
 Alpha virt. eigenvalues --    1.81377   1.81809   1.82462   1.82628   1.83043
 Alpha virt. eigenvalues --    1.83255   1.83619   1.84083   1.84246   1.84538
 Alpha virt. eigenvalues --    1.84922   1.85126   1.85380   1.85619   1.85800
 Alpha virt. eigenvalues --    1.86027   1.86773   1.86886   1.87115   1.87279
 Alpha virt. eigenvalues --    1.87459   1.88177   1.88750   1.88947   1.89142
 Alpha virt. eigenvalues --    1.89535   1.90029   1.90313   1.91003   1.91405
 Alpha virt. eigenvalues --    1.91627   1.92392   1.92547   1.93099   1.93413
 Alpha virt. eigenvalues --    1.94085   1.94183   1.94433   1.94535   1.94702
 Alpha virt. eigenvalues --    1.95347   1.95536   1.95922   1.96498   1.96923
 Alpha virt. eigenvalues --    1.97012   1.97182   1.97895   1.98081   1.98507
 Alpha virt. eigenvalues --    1.98661   1.98877   1.99158   1.99429   1.99798
 Alpha virt. eigenvalues --    2.00649   2.00874   2.00963   2.01204   2.01682
 Alpha virt. eigenvalues --    2.02279   2.02776   2.03119   2.03416   2.03874
 Alpha virt. eigenvalues --    2.04311   2.04508   2.04682   2.05023   2.05410
 Alpha virt. eigenvalues --    2.05645   2.06391   2.06587   2.07149   2.07369
 Alpha virt. eigenvalues --    2.07681   2.08146   2.08788   2.09331   2.09579
 Alpha virt. eigenvalues --    2.10073   2.10252   2.10648   2.10861   2.11630
 Alpha virt. eigenvalues --    2.11859   2.11916   2.12325   2.12720   2.13043
 Alpha virt. eigenvalues --    2.13345   2.13614   2.13897   2.14008   2.14449
 Alpha virt. eigenvalues --    2.14673   2.14933   2.15093   2.15282   2.15678
 Alpha virt. eigenvalues --    2.15974   2.16695   2.17378   2.17585   2.17986
 Alpha virt. eigenvalues --    2.18365   2.18437   2.18819   2.18886   2.19362
 Alpha virt. eigenvalues --    2.19790   2.19866   2.20522   2.20854   2.21060
 Alpha virt. eigenvalues --    2.21499   2.21682   2.22000   2.22346   2.22790
 Alpha virt. eigenvalues --    2.23212   2.23564   2.24072   2.24277   2.24739
 Alpha virt. eigenvalues --    2.24875   2.25167   2.25525   2.25908   2.26146
 Alpha virt. eigenvalues --    2.26319   2.26740   2.27143   2.27484   2.28360
 Alpha virt. eigenvalues --    2.28798   2.29337   2.29404   2.29753   2.30333
 Alpha virt. eigenvalues --    2.30386   2.31245   2.31689   2.31884   2.32268
 Alpha virt. eigenvalues --    2.32443   2.33283   2.33563   2.33679   2.34077
 Alpha virt. eigenvalues --    2.34166   2.34415   2.34839   2.35199   2.35481
 Alpha virt. eigenvalues --    2.36116   2.36642   2.36797   2.36940   2.37069
 Alpha virt. eigenvalues --    2.37610   2.37912   2.38069   2.38608   2.38767
 Alpha virt. eigenvalues --    2.39274   2.39452   2.39719   2.40171   2.40427
 Alpha virt. eigenvalues --    2.40705   2.41036   2.41522   2.41811   2.42406
 Alpha virt. eigenvalues --    2.42617   2.43133   2.43512   2.43822   2.44315
 Alpha virt. eigenvalues --    2.44490   2.44761   2.44910   2.45316   2.45890
 Alpha virt. eigenvalues --    2.46493   2.47013   2.47377   2.47681   2.47882
 Alpha virt. eigenvalues --    2.48217   2.48437   2.48829   2.49359   2.49500
 Alpha virt. eigenvalues --    2.49707   2.50477   2.50587   2.51309   2.51473
 Alpha virt. eigenvalues --    2.51810   2.51837   2.52240   2.52500   2.52828
 Alpha virt. eigenvalues --    2.53384   2.53813   2.54074   2.54543   2.54908
 Alpha virt. eigenvalues --    2.55344   2.55556   2.55745   2.56117   2.56318
 Alpha virt. eigenvalues --    2.56991   2.57197   2.57226   2.58018   2.58075
 Alpha virt. eigenvalues --    2.58600   2.59023   2.59121   2.59373   2.60035
 Alpha virt. eigenvalues --    2.60469   2.60520   2.60935   2.61214   2.61598
 Alpha virt. eigenvalues --    2.62053   2.62357   2.62755   2.62948   2.63398
 Alpha virt. eigenvalues --    2.63788   2.63937   2.64079   2.64653   2.64921
 Alpha virt. eigenvalues --    2.65141   2.65203   2.65685   2.65919   2.66056
 Alpha virt. eigenvalues --    2.66563   2.66931   2.67392   2.67551   2.67959
 Alpha virt. eigenvalues --    2.68444   2.68659   2.68881   2.69432   2.69828
 Alpha virt. eigenvalues --    2.69842   2.70307   2.70584   2.70758   2.71482
 Alpha virt. eigenvalues --    2.71748   2.71757   2.72248   2.72837   2.72995
 Alpha virt. eigenvalues --    2.73347   2.73969   2.74235   2.74436   2.74625
 Alpha virt. eigenvalues --    2.74884   2.75195   2.75341   2.75662   2.75838
 Alpha virt. eigenvalues --    2.76294   2.76509   2.76831   2.77005   2.77062
 Alpha virt. eigenvalues --    2.77714   2.77972   2.78267   2.78482   2.78591
 Alpha virt. eigenvalues --    2.79293   2.79522   2.79783   2.80551   2.80689
 Alpha virt. eigenvalues --    2.80777   2.81333   2.81641   2.81889   2.82412
 Alpha virt. eigenvalues --    2.82573   2.82705   2.82813   2.83902   2.84000
 Alpha virt. eigenvalues --    2.84323   2.84575   2.84913   2.85328   2.85471
 Alpha virt. eigenvalues --    2.85601   2.86203   2.86282   2.86357   2.87017
 Alpha virt. eigenvalues --    2.87046   2.87550   2.87628   2.88007   2.88217
 Alpha virt. eigenvalues --    2.88507   2.88885   2.89072   2.89501   2.89797
 Alpha virt. eigenvalues --    2.90033   2.90317   2.90673   2.91050   2.91287
 Alpha virt. eigenvalues --    2.91319   2.91897   2.92051   2.92150   2.92392
 Alpha virt. eigenvalues --    2.92518   2.93162   2.93216   2.93408   2.93747
 Alpha virt. eigenvalues --    2.94264   2.94527   2.94627   2.95360   2.95553
 Alpha virt. eigenvalues --    2.95648   2.95743   2.96029   2.96306   2.96499
 Alpha virt. eigenvalues --    2.96973   2.97269   2.97325   2.97545   2.97748
 Alpha virt. eigenvalues --    2.98057   2.98198   2.98316   2.98766   2.99035
 Alpha virt. eigenvalues --    2.99268   2.99645   2.99915   2.99975   3.00269
 Alpha virt. eigenvalues --    3.00435   3.00654   3.00844   3.01270   3.01496
 Alpha virt. eigenvalues --    3.01883   3.02214   3.02827   3.03288   3.03375
 Alpha virt. eigenvalues --    3.03794   3.04226   3.04245   3.04778   3.05116
 Alpha virt. eigenvalues --    3.05493   3.05927   3.05942   3.06287   3.06601
 Alpha virt. eigenvalues --    3.07000   3.07360   3.07392   3.07946   3.08039
 Alpha virt. eigenvalues --    3.08246   3.08555   3.08660   3.09187   3.09488
 Alpha virt. eigenvalues --    3.09825   3.09999   3.10612   3.10936   3.11302
 Alpha virt. eigenvalues --    3.11363   3.11470   3.11661   3.12012   3.12270
 Alpha virt. eigenvalues --    3.12322   3.12580   3.13192   3.13522   3.13769
 Alpha virt. eigenvalues --    3.13909   3.14525   3.14611   3.14822   3.15050
 Alpha virt. eigenvalues --    3.15488   3.15591   3.15663   3.16090   3.16149
 Alpha virt. eigenvalues --    3.16339   3.16554   3.16745   3.17105   3.17233
 Alpha virt. eigenvalues --    3.17476   3.17856   3.18074   3.18240   3.18558
 Alpha virt. eigenvalues --    3.19071   3.19311   3.19574   3.20006   3.20535
 Alpha virt. eigenvalues --    3.20672   3.20914   3.20979   3.21373   3.21539
 Alpha virt. eigenvalues --    3.22048   3.22112   3.22511   3.22651   3.22924
 Alpha virt. eigenvalues --    3.22976   3.23613   3.23922   3.24041   3.24462
 Alpha virt. eigenvalues --    3.24761   3.25034   3.25394   3.25477   3.25608
 Alpha virt. eigenvalues --    3.26095   3.26285   3.26418   3.26856   3.27248
 Alpha virt. eigenvalues --    3.27503   3.27894   3.28072   3.28329   3.28794
 Alpha virt. eigenvalues --    3.28910   3.29256   3.29751   3.30137   3.30387
 Alpha virt. eigenvalues --    3.30668   3.30978   3.31078   3.31519   3.31739
 Alpha virt. eigenvalues --    3.31837   3.31981   3.32493   3.32645   3.33066
 Alpha virt. eigenvalues --    3.33496   3.33715   3.33862   3.34022   3.34321
 Alpha virt. eigenvalues --    3.34486   3.34933   3.35144   3.35365   3.35715
 Alpha virt. eigenvalues --    3.36042   3.36226   3.36365   3.36490   3.36745
 Alpha virt. eigenvalues --    3.36911   3.37182   3.37333   3.37343   3.37814
 Alpha virt. eigenvalues --    3.37889   3.38233   3.38537   3.38987   3.39151
 Alpha virt. eigenvalues --    3.39189   3.39520   3.39898   3.40147   3.40272
 Alpha virt. eigenvalues --    3.40451   3.40659   3.40859   3.40955   3.41033
 Alpha virt. eigenvalues --    3.41316   3.41758   3.41936   3.42114   3.42475
 Alpha virt. eigenvalues --    3.42689   3.43078   3.43440   3.43492   3.43629
 Alpha virt. eigenvalues --    3.44064   3.44115   3.44558   3.44756   3.45016
 Alpha virt. eigenvalues --    3.45303   3.45567   3.45758   3.45868   3.46365
 Alpha virt. eigenvalues --    3.46660   3.47065   3.47291   3.47422   3.47744
 Alpha virt. eigenvalues --    3.48006   3.48409   3.48734   3.49232   3.49656
 Alpha virt. eigenvalues --    3.49912   3.50296   3.50727   3.50839   3.51165
 Alpha virt. eigenvalues --    3.51245   3.51949   3.52090   3.52185   3.52431
 Alpha virt. eigenvalues --    3.52697   3.52980   3.53089   3.53616   3.53849
 Alpha virt. eigenvalues --    3.54259   3.54378   3.54741   3.54963   3.55175
 Alpha virt. eigenvalues --    3.55703   3.56201   3.56433   3.56762   3.56839
 Alpha virt. eigenvalues --    3.57235   3.57399   3.57909   3.58339   3.58344
 Alpha virt. eigenvalues --    3.58574   3.58922   3.59230   3.59385   3.59960
 Alpha virt. eigenvalues --    3.60080   3.60514   3.60784   3.61074   3.61350
 Alpha virt. eigenvalues --    3.61657   3.61746   3.62659   3.62882   3.63107
 Alpha virt. eigenvalues --    3.63517   3.64254   3.64636   3.65060   3.65124
 Alpha virt. eigenvalues --    3.65674   3.65913   3.66207   3.66715   3.67031
 Alpha virt. eigenvalues --    3.67253   3.67310   3.67885   3.68366   3.68659
 Alpha virt. eigenvalues --    3.69012   3.69228   3.69533   3.69956   3.70088
 Alpha virt. eigenvalues --    3.70781   3.71041   3.71524   3.72176   3.72607
 Alpha virt. eigenvalues --    3.73040   3.73328   3.73621   3.73760   3.74661
 Alpha virt. eigenvalues --    3.74851   3.75126   3.75611   3.76085   3.76217
 Alpha virt. eigenvalues --    3.76444   3.76844   3.77086   3.77252   3.77780
 Alpha virt. eigenvalues --    3.78347   3.79059   3.79375   3.79697   3.79789
 Alpha virt. eigenvalues --    3.80082   3.80256   3.80909   3.81429   3.81827
 Alpha virt. eigenvalues --    3.81927   3.82109   3.83094   3.83280   3.83617
 Alpha virt. eigenvalues --    3.84354   3.84556   3.84668   3.85226   3.85467
 Alpha virt. eigenvalues --    3.86052   3.86581   3.87117   3.87439   3.87638
 Alpha virt. eigenvalues --    3.88208   3.88676   3.89079   3.89560   3.89923
 Alpha virt. eigenvalues --    3.90240   3.91048   3.91196   3.91395   3.91974
 Alpha virt. eigenvalues --    3.92430   3.92774   3.92876   3.93486   3.93715
 Alpha virt. eigenvalues --    3.93922   3.94625   3.95168   3.96004   3.96183
 Alpha virt. eigenvalues --    3.96553   3.97061   3.97268   3.97871   3.98319
 Alpha virt. eigenvalues --    3.98640   3.99281   3.99458   3.99525   4.00126
 Alpha virt. eigenvalues --    4.00356   4.00975   4.01593   4.01999   4.02629
 Alpha virt. eigenvalues --    4.03050   4.03235   4.03657   4.04332   4.04817
 Alpha virt. eigenvalues --    4.04873   4.05781   4.06038   4.06210   4.06664
 Alpha virt. eigenvalues --    4.07366   4.08043   4.08631   4.08881   4.09390
 Alpha virt. eigenvalues --    4.10139   4.10358   4.11459   4.11704   4.12168
 Alpha virt. eigenvalues --    4.12335   4.13076   4.13421   4.13977   4.14692
 Alpha virt. eigenvalues --    4.15309   4.15979   4.16192   4.16931   4.17497
 Alpha virt. eigenvalues --    4.17743   4.18063   4.18864   4.19710   4.20058
 Alpha virt. eigenvalues --    4.20137   4.21063   4.21080   4.22224   4.22845
 Alpha virt. eigenvalues --    4.23444   4.24158   4.24475   4.24758   4.24853
 Alpha virt. eigenvalues --    4.25588   4.25744   4.26294   4.27154   4.27681
 Alpha virt. eigenvalues --    4.28228   4.28531   4.29329   4.29632   4.30588
 Alpha virt. eigenvalues --    4.30724   4.31906   4.32191   4.32730   4.33147
 Alpha virt. eigenvalues --    4.34438   4.34889   4.35919   4.36372   4.37396
 Alpha virt. eigenvalues --    4.38193   4.38206   4.39059   4.39776   4.39906
 Alpha virt. eigenvalues --    4.40014   4.40905   4.42164   4.42414   4.42874
 Alpha virt. eigenvalues --    4.43621   4.44249   4.44903   4.45713   4.46160
 Alpha virt. eigenvalues --    4.46683   4.47307   4.47550   4.48143   4.48675
 Alpha virt. eigenvalues --    4.48899   4.49325   4.50229   4.51042   4.51403
 Alpha virt. eigenvalues --    4.51651   4.52904   4.53365   4.54349   4.54549
 Alpha virt. eigenvalues --    4.55098   4.56002   4.56342   4.56672   4.57842
 Alpha virt. eigenvalues --    4.58179   4.59217   4.59269   4.59907   4.60745
 Alpha virt. eigenvalues --    4.61047   4.61535   4.62367   4.65050   4.65163
 Alpha virt. eigenvalues --    4.65444   4.65913   4.66245   4.67725   4.68173
 Alpha virt. eigenvalues --    4.68495   4.68902   4.69971   4.70526   4.70806
 Alpha virt. eigenvalues --    4.72097   4.72321   4.73179   4.73786   4.74007
 Alpha virt. eigenvalues --    4.74364   4.75298   4.75791   4.76772   4.77211
 Alpha virt. eigenvalues --    4.77663   4.77964   4.78504   4.78873   4.79445
 Alpha virt. eigenvalues --    4.80043   4.80442   4.80923   4.81418   4.81516
 Alpha virt. eigenvalues --    4.81992   4.82881   4.83135   4.84028   4.84492
 Alpha virt. eigenvalues --    4.84856   4.85369   4.85867   4.85960   4.86612
 Alpha virt. eigenvalues --    4.86971   4.87327   4.87565   4.88005   4.88310
 Alpha virt. eigenvalues --    4.88741   4.89448   4.89910   4.90344   4.90738
 Alpha virt. eigenvalues --    4.91024   4.91335   4.91919   4.92482   4.92828
 Alpha virt. eigenvalues --    4.93846   4.94272   4.94910   4.95273   4.95847
 Alpha virt. eigenvalues --    4.96451   4.96760   4.97398   4.98398   4.98729
 Alpha virt. eigenvalues --    4.99811   5.00052   5.00467   5.01352   5.02372
 Alpha virt. eigenvalues --    5.02448   5.03095   5.04146   5.04600   5.05173
 Alpha virt. eigenvalues --    5.06147   5.06922   5.08015   5.09207   5.10384
 Alpha virt. eigenvalues --    5.11886   5.12561   5.13471   5.15570   5.16184
 Alpha virt. eigenvalues --    5.16972   5.17187   5.18446   5.19344   5.20121
 Alpha virt. eigenvalues --    5.20460   5.20889   5.21818   5.22595   5.23149
 Alpha virt. eigenvalues --    5.23275   5.23767   5.24251   5.24916   5.26103
 Alpha virt. eigenvalues --    5.27413   5.27664   5.28910   5.29229   5.31000
 Alpha virt. eigenvalues --    5.31515   5.32668   5.33356   5.33835   5.34574
 Alpha virt. eigenvalues --    5.36022   5.36314   5.37350   5.38756   5.39957
 Alpha virt. eigenvalues --    5.42521   5.43447   5.44200   5.44685   5.45350
 Alpha virt. eigenvalues --    5.47093   5.48136   5.48588   5.49767   5.50866
 Alpha virt. eigenvalues --    5.51551   5.53194   5.55495   5.56802   5.57683
 Alpha virt. eigenvalues --    5.59153   5.59893   5.61100   5.61734   5.63238
 Alpha virt. eigenvalues --    5.63354   5.63559   5.64513   5.64815   5.64848
 Alpha virt. eigenvalues --    5.66042   5.67779   5.68652   5.70479   5.74320
 Alpha virt. eigenvalues --    5.75383   5.77459   5.77631   5.79076   5.80296
 Alpha virt. eigenvalues --    5.84361   5.87647   5.88758   5.90060   5.94041
 Alpha virt. eigenvalues --    5.95573   5.95844   5.96966   5.97585   5.98280
 Alpha virt. eigenvalues --    5.99152   5.99467   6.00697   6.03006   6.04676
 Alpha virt. eigenvalues --    6.08655   6.11676   6.14962   6.16050   6.16094
 Alpha virt. eigenvalues --    6.16744   6.17504   6.23044   6.23947   6.26794
 Alpha virt. eigenvalues --    6.27866   6.29470   6.30956   6.32731   6.34895
 Alpha virt. eigenvalues --    6.36223   6.36576   6.41485   6.47073   6.48817
 Alpha virt. eigenvalues --    6.52031   6.52311   6.53712   6.57251   6.66394
 Alpha virt. eigenvalues --    6.73772   6.77610   6.79400   6.85147   6.87447
 Alpha virt. eigenvalues --    6.93215   6.95341   7.01694   7.07857   7.11818
 Alpha virt. eigenvalues --    7.13081   7.16596   7.19865   7.24962   7.52855
 Alpha virt. eigenvalues --    9.29742   9.49952   9.61049  20.15819  22.49137
 Alpha virt. eigenvalues --   22.49397  22.51899  22.58652  22.63266  22.66653
 Alpha virt. eigenvalues --   22.83637  22.91034  22.92965  22.94710  22.95086
 Alpha virt. eigenvalues --   22.99744  23.00261  23.01084  23.03549  23.05773
 Alpha virt. eigenvalues --   23.06829  23.12356  23.14624  23.17862  23.18926
 Alpha virt. eigenvalues --   23.20324  23.27901  23.28610  23.29517  23.33922
 Alpha virt. eigenvalues --   23.35638  23.41560  23.43571  23.43994  23.44383
 Alpha virt. eigenvalues --   23.50361  23.52906  23.56326  23.58839  23.60204
 Alpha virt. eigenvalues --   23.64594  23.76779  23.80852  23.83602  23.93284
 Alpha virt. eigenvalues --   32.66170  32.85723  32.97848  33.05916  33.08357
 Alpha virt. eigenvalues --   33.17553  43.91902  43.98938  44.00135  44.01509
  Beta  occ. eigenvalues -- -256.45723 -89.04704 -30.19033 -26.02241 -26.02181
  Beta  occ. eigenvalues --  -26.02178 -19.26264 -19.25436 -19.19544 -19.19426
  Beta  occ. eigenvalues --  -14.44943 -14.41297 -14.40018 -14.39648 -14.39491
  Beta  occ. eigenvalues --  -14.39339 -10.36222 -10.36044 -10.29168 -10.27885
  Beta  occ. eigenvalues --  -10.27838 -10.27732 -10.27522 -10.27452 -10.27342
  Beta  occ. eigenvalues --  -10.27253 -10.27200 -10.27174 -10.25077 -10.24949
  Beta  occ. eigenvalues --  -10.24363 -10.24345 -10.24263 -10.24259 -10.24065
  Beta  occ. eigenvalues --  -10.23993 -10.23896 -10.23465 -10.23426 -10.23285
  Beta  occ. eigenvalues --  -10.23125 -10.22937 -10.22769 -10.22756 -10.22676
  Beta  occ. eigenvalues --  -10.22536 -10.21593 -10.21488 -10.21457 -10.21436
  Beta  occ. eigenvalues --  -10.21285 -10.21267 -10.21024 -10.19015 -10.18757
  Beta  occ. eigenvalues --  -10.18512 -10.17958  -8.02761  -5.96389  -5.96083
  Beta  occ. eigenvalues --   -5.95552  -3.48416  -2.22995  -2.22736  -2.22682
  Beta  occ. eigenvalues --   -1.19822  -1.16474  -1.09383  -1.04742  -1.03559
  Beta  occ. eigenvalues --   -1.01348  -1.00262  -0.99909  -0.98967  -0.95116
  Beta  occ. eigenvalues --   -0.87397  -0.87169  -0.86901  -0.86595  -0.85359
  Beta  occ. eigenvalues --   -0.85067  -0.84783  -0.84214  -0.83322  -0.83040
  Beta  occ. eigenvalues --   -0.82524  -0.80489  -0.80170  -0.79293  -0.79097
  Beta  occ. eigenvalues --   -0.77758  -0.77223  -0.75563  -0.75040  -0.74900
  Beta  occ. eigenvalues --   -0.73526  -0.73179  -0.72460  -0.70610  -0.69761
  Beta  occ. eigenvalues --   -0.69009  -0.68804  -0.67379  -0.67023  -0.66265
  Beta  occ. eigenvalues --   -0.65978  -0.65699  -0.64569  -0.62541  -0.61939
  Beta  occ. eigenvalues --   -0.60298  -0.59275  -0.58494  -0.58155  -0.57056
  Beta  occ. eigenvalues --   -0.56266  -0.55666  -0.55270  -0.54575  -0.54120
  Beta  occ. eigenvalues --   -0.53232  -0.52441  -0.52129  -0.51781  -0.51604
  Beta  occ. eigenvalues --   -0.51374  -0.51359  -0.50856  -0.50760  -0.50534
  Beta  occ. eigenvalues --   -0.50219  -0.49643  -0.48888  -0.48535  -0.48492
  Beta  occ. eigenvalues --   -0.48381  -0.48109  -0.48022  -0.47797  -0.47710
  Beta  occ. eigenvalues --   -0.47541  -0.47199  -0.46912  -0.46176  -0.45956
  Beta  occ. eigenvalues --   -0.45549  -0.45295  -0.45190  -0.44834  -0.44656
  Beta  occ. eigenvalues --   -0.44568  -0.44340  -0.44074  -0.43921  -0.43695
  Beta  occ. eigenvalues --   -0.43576  -0.43384  -0.43207  -0.43174  -0.42623
  Beta  occ. eigenvalues --   -0.42552  -0.42338  -0.41952  -0.41867  -0.41719
  Beta  occ. eigenvalues --   -0.41197  -0.41007  -0.40727  -0.40382  -0.40235
  Beta  occ. eigenvalues --   -0.39531  -0.39424  -0.38924  -0.38865  -0.38482
  Beta  occ. eigenvalues --   -0.38352  -0.38013  -0.37937  -0.37644  -0.37027
  Beta  occ. eigenvalues --   -0.36696  -0.36253  -0.36000  -0.35962  -0.35628
  Beta  occ. eigenvalues --   -0.35361  -0.35076  -0.34584  -0.34330  -0.34108
  Beta  occ. eigenvalues --   -0.33170  -0.30836  -0.30692  -0.30066  -0.29667
  Beta  occ. eigenvalues --   -0.29606  -0.27944  -0.27060  -0.26529  -0.26361
  Beta  occ. eigenvalues --   -0.25884  -0.21987  -0.21428
  Beta virt. eigenvalues --   -0.12444  -0.12214  -0.10087  -0.08109  -0.07925
  Beta virt. eigenvalues --   -0.03823  -0.03542  -0.02542  -0.01432  -0.00423
  Beta virt. eigenvalues --   -0.00119   0.01340   0.01449   0.02435   0.02879
  Beta virt. eigenvalues --    0.03129   0.03483   0.04111   0.04600   0.04851
  Beta virt. eigenvalues --    0.04925   0.05132   0.05566   0.05945   0.06248
  Beta virt. eigenvalues --    0.06279   0.07262   0.07357   0.07418   0.07704
  Beta virt. eigenvalues --    0.07858   0.08091   0.08421   0.08626   0.08686
  Beta virt. eigenvalues --    0.09064   0.09214   0.09671   0.09723   0.10157
  Beta virt. eigenvalues --    0.10399   0.10604   0.10779   0.11038   0.11276
  Beta virt. eigenvalues --    0.11405   0.11842   0.11948   0.12090   0.12197
  Beta virt. eigenvalues --    0.12357   0.12475   0.12620   0.13094   0.13176
  Beta virt. eigenvalues --    0.13235   0.13359   0.13719   0.13815   0.14019
  Beta virt. eigenvalues --    0.14186   0.14299   0.14475   0.14607   0.14920
  Beta virt. eigenvalues --    0.15037   0.15265   0.15403   0.15690   0.15947
  Beta virt. eigenvalues --    0.16200   0.16276   0.16410   0.16551   0.16669
  Beta virt. eigenvalues --    0.16871   0.17012   0.17251   0.17392   0.17589
  Beta virt. eigenvalues --    0.17748   0.18198   0.18366   0.18407   0.18594
  Beta virt. eigenvalues --    0.18691   0.18949   0.19178   0.19417   0.19487
  Beta virt. eigenvalues --    0.19698   0.20021   0.20260   0.20352   0.20478
  Beta virt. eigenvalues --    0.20749   0.21023   0.21058   0.21343   0.21521
  Beta virt. eigenvalues --    0.21787   0.21966   0.22176   0.22591   0.22683
  Beta virt. eigenvalues --    0.22868   0.23040   0.23427   0.23636   0.23983
  Beta virt. eigenvalues --    0.24211   0.24308   0.24494   0.24700   0.24857
  Beta virt. eigenvalues --    0.25167   0.25207   0.25321   0.25731   0.25970
  Beta virt. eigenvalues --    0.26035   0.26167   0.26328   0.26486   0.26634
  Beta virt. eigenvalues --    0.26980   0.27514   0.27793   0.27958   0.28151
  Beta virt. eigenvalues --    0.28326   0.28536   0.28596   0.28943   0.29106
  Beta virt. eigenvalues --    0.29256   0.29376   0.29544   0.29955   0.30165
  Beta virt. eigenvalues --    0.30353   0.30724   0.30943   0.31361   0.31394
  Beta virt. eigenvalues --    0.31807   0.31885   0.32258   0.32517   0.32697
  Beta virt. eigenvalues --    0.32909   0.33195   0.33411   0.33640   0.33794
  Beta virt. eigenvalues --    0.34132   0.34282   0.34419   0.34524   0.34928
  Beta virt. eigenvalues --    0.35273   0.35447   0.35681   0.36043   0.36125
  Beta virt. eigenvalues --    0.36197   0.36693   0.36911   0.37072   0.37480
  Beta virt. eigenvalues --    0.37573   0.37697   0.37862   0.38075   0.38287
  Beta virt. eigenvalues --    0.38640   0.38954   0.39016   0.39165   0.39234
  Beta virt. eigenvalues --    0.39548   0.39786   0.39866   0.40135   0.40258
  Beta virt. eigenvalues --    0.40692   0.40788   0.41048   0.41303   0.41361
  Beta virt. eigenvalues --    0.41431   0.41613   0.41856   0.42011   0.42233
  Beta virt. eigenvalues --    0.42500   0.42584   0.42820   0.42886   0.43103
  Beta virt. eigenvalues --    0.43163   0.43316   0.43406   0.43663   0.43773
  Beta virt. eigenvalues --    0.43939   0.44128   0.44426   0.44513   0.44766
  Beta virt. eigenvalues --    0.44954   0.45057   0.45169   0.45283   0.45415
  Beta virt. eigenvalues --    0.45651   0.45829   0.45866   0.46117   0.46174
  Beta virt. eigenvalues --    0.46421   0.46593   0.46919   0.46981   0.47117
  Beta virt. eigenvalues --    0.47257   0.47481   0.47713   0.47914   0.48170
  Beta virt. eigenvalues --    0.48237   0.48451   0.48692   0.48743   0.48913
  Beta virt. eigenvalues --    0.49217   0.49295   0.49446   0.49599   0.49756
  Beta virt. eigenvalues --    0.49904   0.50173   0.50265   0.50498   0.50777
  Beta virt. eigenvalues --    0.50877   0.51215   0.51442   0.51623   0.51659
  Beta virt. eigenvalues --    0.51966   0.52060   0.52139   0.52424   0.52746
  Beta virt. eigenvalues --    0.52814   0.52998   0.53199   0.53379   0.53546
  Beta virt. eigenvalues --    0.53849   0.54145   0.54242   0.54444   0.54625
  Beta virt. eigenvalues --    0.54786   0.54998   0.55303   0.55465   0.55679
  Beta virt. eigenvalues --    0.55961   0.56195   0.56378   0.56631   0.56781
  Beta virt. eigenvalues --    0.56805   0.57133   0.57161   0.57416   0.57790
  Beta virt. eigenvalues --    0.58014   0.58299   0.58407   0.58753   0.58828
  Beta virt. eigenvalues --    0.59035   0.59055   0.59494   0.59784   0.59830
  Beta virt. eigenvalues --    0.59917   0.60474   0.60824   0.61041   0.61248
  Beta virt. eigenvalues --    0.61290   0.61421   0.61709   0.61834   0.61954
  Beta virt. eigenvalues --    0.62303   0.62570   0.62736   0.63041   0.63127
  Beta virt. eigenvalues --    0.63579   0.63855   0.64098   0.64434   0.64690
  Beta virt. eigenvalues --    0.64897   0.65090   0.65270   0.65550   0.65777
[...]
  Beta virt. eigenvalues --    3.29018   3.29434   3.29841   3.30278   3.30482
  Beta virt. eigenvalues --    3.30818   3.31123   3.31196   3.31613   3.31841
  Beta virt. eigenvalues --    3.31916   3.32091   3.32619   3.32721   3.33166
  Beta virt. eigenvalues --    3.33600   3.33813   3.33970   3.34163   3.34432
  Beta virt. eigenvalues --    3.34599   3.35034   3.35274   3.35481   3.35810
  Beta virt. eigenvalues --    3.36141   3.36346   3.36474   3.36567   3.36878
  Beta virt. eigenvalues --    3.37037   3.37256   3.37424   3.37471   3.37910
  Beta virt. eigenvalues --    3.37999   3.38347   3.38644   3.39094   3.39225
  Beta virt. eigenvalues --    3.39331   3.39639   3.39966   3.40242   3.40398
  Beta virt. eigenvalues --    3.40540   3.40767   3.41016   3.41067   3.41167
  Beta virt. eigenvalues --    3.41399   3.41865   3.42044   3.42212   3.42555
  Beta virt. eigenvalues --    3.42821   3.43216   3.43529   3.43607   3.43802
  Beta virt. eigenvalues --    3.44142   3.44219   3.44647   3.44905   3.45133
  Beta virt. eigenvalues --    3.45398   3.45672   3.45825   3.45974   3.46423
  Beta virt. eigenvalues --    3.46781   3.47129   3.47405   3.47556   3.47840
  Beta virt. eigenvalues --    3.48112   3.48533   3.48881   3.49346   3.49829
  Beta virt. eigenvalues --    3.50038   3.50453   3.50867   3.51023   3.51347
  Beta virt. eigenvalues --    3.51367   3.52048   3.52158   3.52327   3.52566
  Beta virt. eigenvalues --    3.52890   3.53133   3.53320   3.53744   3.53984
  Beta virt. eigenvalues --    3.54393   3.54529   3.54908   3.55130   3.55414
  Beta virt. eigenvalues --    3.55860   3.56344   3.56539   3.56915   3.57034
  Beta virt. eigenvalues --    3.57385   3.57605   3.58020   3.58454   3.58630
  Beta virt. eigenvalues --    3.58741   3.59028   3.59426   3.59549   3.60099
  Beta virt. eigenvalues --    3.60276   3.60662   3.60972   3.61263   3.61532
  Beta virt. eigenvalues --    3.61852   3.61927   3.62823   3.63047   3.63344
  Beta virt. eigenvalues --    3.63722   3.64390   3.64898   3.65183   3.65416
  Beta virt. eigenvalues --    3.66040   3.66138   3.66447   3.66870   3.67152
  Beta virt. eigenvalues --    3.67465   3.67695   3.68204   3.68527   3.68821
  Beta virt. eigenvalues --    3.69176   3.69431   3.69693   3.70134   3.70267
  Beta virt. eigenvalues --    3.71042   3.71213   3.71883   3.72386   3.72887
  Beta virt. eigenvalues --    3.73248   3.73528   3.73896   3.74096   3.74914
  Beta virt. eigenvalues --    3.75091   3.75321   3.75793   3.76165   3.76409
  Beta virt. eigenvalues --    3.76844   3.77039   3.77432   3.77530   3.77935
  Beta virt. eigenvalues --    3.78562   3.79288   3.79553   3.80031   3.80111
  Beta virt. eigenvalues --    3.80330   3.80722   3.81328   3.81883   3.82039
  Beta virt. eigenvalues --    3.82613   3.82688   3.83486   3.83763   3.83884
  Beta virt. eigenvalues --    3.84636   3.84982   3.85320   3.85653   3.85951
  Beta virt. eigenvalues --    3.86399   3.87327   3.87768   3.88146   3.88587
  Beta virt. eigenvalues --    3.89071   3.89422   3.90190   3.90390   3.90750
  Beta virt. eigenvalues --    3.91262   3.91769   3.91907   3.92117   3.92382
  Beta virt. eigenvalues --    3.92992   3.93534   3.93646   3.94109   3.94335
  Beta virt. eigenvalues --    3.95386   3.95751   3.96051   3.96629   3.97590
  Beta virt. eigenvalues --    3.97807   3.98357   3.98751   3.98884   3.99263
  Beta virt. eigenvalues --    3.99494   4.00215   4.00320   4.01264   4.01431
  Beta virt. eigenvalues --    4.02077   4.02594   4.03109   4.03363   4.03742
  Beta virt. eigenvalues --    4.04634   4.04770   4.05137   4.05492   4.06183
  Beta virt. eigenvalues --    4.06419   4.06664   4.07162   4.07481   4.08603
  Beta virt. eigenvalues --    4.09350   4.09966   4.10173   4.10402   4.11012
  Beta virt. eigenvalues --    4.11544   4.12135   4.12695   4.13212   4.13518
  Beta virt. eigenvalues --    4.14580   4.14722   4.15355   4.15607   4.15853
  Beta virt. eigenvalues --    4.16205   4.17053   4.17439   4.18419   4.18669
  Beta virt. eigenvalues --    4.18909   4.19313   4.19829   4.20815   4.21018
  Beta virt. eigenvalues --    4.21745   4.22050   4.22454   4.23240   4.23700
  Beta virt. eigenvalues --    4.24410   4.24984   4.25384   4.25545   4.25985
  Beta virt. eigenvalues --    4.26585   4.26734   4.27315   4.28861   4.29079
  Beta virt. eigenvalues --    4.29579   4.30294   4.31033   4.31297   4.32118
  Beta virt. eigenvalues --    4.32856   4.33347   4.33832   4.34832   4.34978
  Beta virt. eigenvalues --    4.35505   4.36067   4.36489   4.36672   4.37513
  Beta virt. eigenvalues --    4.38869   4.39090   4.39471   4.39914   4.40521
  Beta virt. eigenvalues --    4.40958   4.41586   4.42865   4.43584   4.44377
  Beta virt. eigenvalues --    4.44667   4.45344   4.46197   4.46434   4.47185
  Beta virt. eigenvalues --    4.47458   4.47714   4.48535   4.48578   4.49009
  Beta virt. eigenvalues --    4.49403   4.50367   4.50996   4.51570   4.51845
  Beta virt. eigenvalues --    4.51955   4.53267   4.54102   4.54581   4.54772
  Beta virt. eigenvalues --    4.55530   4.56195   4.56723   4.56865   4.57970
  Beta virt. eigenvalues --    4.58293   4.59350   4.59598   4.60091   4.60987
  Beta virt. eigenvalues --    4.61373   4.61822   4.62590   4.65347   4.65399
  Beta virt. eigenvalues --    4.65760   4.66233   4.66498   4.67954   4.68387
  Beta virt. eigenvalues --    4.68719   4.69259   4.70094   4.70684   4.71278
  Beta virt. eigenvalues --    4.72245   4.72563   4.73557   4.73912   4.74184
  Beta virt. eigenvalues --    4.74614   4.75467   4.76033   4.76858   4.77329
  Beta virt. eigenvalues --    4.77813   4.78269   4.78806   4.79325   4.79652
  Beta virt. eigenvalues --    4.80218   4.80717   4.81073   4.81584   4.81765
  Beta virt. eigenvalues --    4.82218   4.83007   4.83348   4.84162   4.84798
  Beta virt. eigenvalues --    4.85054   4.85542   4.86063   4.86229   4.86786
  Beta virt. eigenvalues --    4.87126   4.87525   4.87698   4.88227   4.88484
  Beta virt. eigenvalues --    4.88967   4.89610   4.90118   4.90469   4.90863
  Beta virt. eigenvalues --    4.91302   4.91531   4.92276   4.92869   4.93172
  Beta virt. eigenvalues --    4.94291   4.94468   4.95022   4.95712   4.96069
  Beta virt. eigenvalues --    4.96668   4.97053   4.97551   4.98560   4.99046
  Beta virt. eigenvalues --    5.00123   5.00290   5.00886   5.01517   5.02684
  Beta virt. eigenvalues --    5.02707   5.03325   5.04433   5.04999   5.05488
  Beta virt. eigenvalues --    5.06447   5.07100   5.08261   5.09438   5.10904
  Beta virt. eigenvalues --    5.12147   5.12848   5.13642   5.15704   5.16250
  Beta virt. eigenvalues --    5.17042   5.17316   5.19020   5.19511   5.20202
  Beta virt. eigenvalues --    5.20871   5.20970   5.21944   5.22711   5.23172
  Beta virt. eigenvalues --    5.23320   5.23909   5.24722   5.25321   5.26500
  Beta virt. eigenvalues --    5.28070   5.28221   5.29545   5.29842   5.31055
  Beta virt. eigenvalues --    5.31884   5.32816   5.33824   5.34231   5.35011
  Beta virt. eigenvalues --    5.36546   5.36767   5.37721   5.39023   5.40366
  Beta virt. eigenvalues --    5.42699   5.43618   5.44213   5.44976   5.45431
  Beta virt. eigenvalues --    5.47345   5.48476   5.48921   5.50124   5.51283
  Beta virt. eigenvalues --    5.51571   5.53491   5.55758   5.57148   5.57691
  Beta virt. eigenvalues --    5.59244   5.60003   5.61493   5.62083   5.63439
  Beta virt. eigenvalues --    5.63689   5.63870   5.64621   5.64936   5.65281
  Beta virt. eigenvalues --    5.66539   5.68225   5.69090   5.70762   5.74736
  Beta virt. eigenvalues --    5.75812   5.77478   5.78018   5.79376   5.80520
  Beta virt. eigenvalues --    5.84833   5.87950   5.88799   5.90390   5.94408
  Beta virt. eigenvalues --    5.95849   5.95932   5.96977   5.97625   5.98682
  Beta virt. eigenvalues --    5.99569   5.99884   6.01165   6.03502   6.05043
  Beta virt. eigenvalues --    6.08662   6.12400   6.15827   6.16307   6.17029
  Beta virt. eigenvalues --    6.17434   6.17802   6.23299   6.24172   6.26807
  Beta virt. eigenvalues --    6.28333   6.29471   6.31156   6.32939   6.34898
  Beta virt. eigenvalues --    6.36282   6.36662   6.41486   6.47074   6.48817
  Beta virt. eigenvalues --    6.52032   6.52383   6.53719   6.57252   6.66394
  Beta virt. eigenvalues --    6.73773   6.77611   6.79400   6.85148   6.87448
  Beta virt. eigenvalues --    6.93215   6.95341   7.01694   7.07857   7.11818
  Beta virt. eigenvalues --    7.13081   7.16596   7.19865   7.24962   7.52855
  Beta virt. eigenvalues --    9.30010   9.50240   9.61200  20.16005  22.49139
  Beta virt. eigenvalues --   22.49399  22.51901  22.58654  22.63269  22.66656
  Beta virt. eigenvalues --   22.83643  22.91056  22.92993  22.94734  22.95107
  Beta virt. eigenvalues --   22.99750  23.00273  23.01092  23.03555  23.05784
  Beta virt. eigenvalues --   23.06837  23.12358  23.14626  23.17865  23.18929
  Beta virt. eigenvalues --   23.20326  23.27919  23.28637  23.29542  23.33934
  Beta virt. eigenvalues --   23.35649  23.41570  23.43590  23.44015  23.44405
  Beta virt. eigenvalues --   23.50385  23.52938  23.56356  23.58839  23.60236
  Beta virt. eigenvalues --   23.64596  23.76811  23.80885  23.83634  23.93320
  Beta virt. eigenvalues --   32.66190  32.86044  32.98161  33.06225  33.08669
  Beta virt. eigenvalues --   33.17874  43.91902  43.98938  44.00135  44.01509
          Condensed to atoms (all electrons):
          Atomic-Atomic Spin Densities.
 Mulliken charges and spin densities:
               1          2
     1  C   -0.398269   0.001035
     2  C    0.208754   0.007235
     3  N   -0.149046   0.004482
     4  C   -0.286379   0.001247
     5  C    0.005816   0.011540
     6  N    0.072763   0.055061
     7  H    0.160575   0.000013
     8  H    0.157763   0.000280
     9  H    0.197405   0.000771
    10  H    0.170402   0.000577
    11  H    0.209162   0.000093
    12  C   -0.351751  -0.001636
    13  C   -0.174083   0.001894
    14  S   -0.009990   0.112196
    15  C   -0.376058   0.001814
    16  H    0.115697   0.000382
    17  H    0.133430   0.000736
    18  H    0.158463   0.001834
    19  H    0.139770   0.002105
    20  H    0.157760   0.001221
    21  H    0.165047  -0.000258
    22  H    0.186557   0.002207
    23  Fe  -0.319456   4.363435
    24  C   -0.481288  -0.027995
    25  C   -0.549815  -0.022442
    26  C   -0.596317  -0.020012
    27  C   -0.574178  -0.025738
    28  N    0.009849   0.040977
    29  C    0.253145   0.026405
    30  C   -0.183296   0.017174
    31  C   -0.057942   0.017056
    32  C    0.241254   0.021990
    33  C   -0.366385   0.000108
    34  C   -0.185684  -0.000237
    35  C   -0.152071   0.000764
    36  C    0.289999  -0.000024
    37  O   -0.424913  -0.000014
    38  O   -0.281457   0.000029
    39  N    0.003092   0.049376
    40  C    0.238458   0.022993
    41  C   -0.093249   0.021445
    42  C   -0.021084   0.021090
    43  C    0.313380   0.021803
    44  C   -0.354540  -0.000328
    45  C   -0.251120  -0.000231
    46  C   -0.390998   0.000790
    47  N   -0.000712   0.042221
    48  C    0.286020   0.018132
    49  C   -0.101649   0.020043
    50  C   -0.076110   0.016110
    51  C    0.318681   0.029552
    52  C   -0.406198   0.000128
    53  C   -0.217124   0.000043
    54  C   -0.399174   0.000515
    55  N   -0.015726   0.041804
    56  C    0.274146   0.023099
    57  C   -0.125982   0.015532
    58  C    0.039189   0.020460
    59  C    0.161814   0.028955
    60  C   -0.376494  -0.000029
    61  C   -0.303616  -0.000626
    62  C   -0.163764   0.000742
    63  C    0.288777   0.000039
    64  O   -0.394403   0.000002
    65  O   -0.403070   0.000137
    66  H    0.257302   0.000074
    67  H    0.184236   0.000246
    68  H    0.158430   0.000429
    69  H    0.173806   0.000341
    70  H    0.154420   0.000472
    71  H    0.146154   0.000379
    72  H    0.149208   0.000275
    73  H    0.142667   0.000316
    74  H    0.137591   0.000301
    75  H    0.114702  -0.000053
    76  H    0.152009   0.000036
    77  H    0.273905   0.000004
    78  H    0.153134   0.000584
    79  H    0.149847   0.000281
    80  H    0.156223   0.000579
    81  H    0.121413   0.000009
    82  H    0.139754   0.000253
    83  H    0.133378  -0.000042
    84  H    0.153524   0.000193
    85  H    0.166907   0.000614
    86  H    0.162474   0.000349
    87  H    0.121672   0.000009
    88  H    0.136644  -0.000028
    89  H    0.137434   0.000210
    90  H    0.155504   0.000471
    91  H    0.156572   0.000326
    92  H    0.152082   0.000276
    93  H    0.162013   0.000326
    94  H    0.157149   0.000334
    95  H    0.130686  -0.000006
    96  H    0.158770   0.000043
    97  H    0.388318   0.000018
    98  H    0.131132   0.000725
    99  H    0.131876   0.000043
   100  H    0.131732   0.000771
   101  H    0.130740   0.000053
   102  H    0.158769   0.000254
   103  H    0.134047   0.000431
 Sum of Mulliken charges =   1.00000   5.00000
 Mulliken charges and spin densities with hydrogens summed into heavy atoms:
               1          2
     1  C    0.078838   0.001582
     2  C    0.208754   0.007235
     3  N    0.048358   0.005253
     4  C   -0.115977   0.001823
     5  C    0.214977   0.011633
     6  N    0.072763   0.055061
    12  C    0.031423  -0.000086
    13  C    0.124150   0.005833
    14  S   -0.009990   0.112196
    15  C    0.133306   0.004983
    23  Fe  -0.319456   4.363435
    24  C   -0.223986  -0.027921
    25  C   -0.365579  -0.022196
    26  C   -0.437887  -0.019583
    27  C   -0.400372  -0.025397
    28  N    0.009849   0.040977
    29  C    0.253145   0.026405
    30  C   -0.183296   0.017174
    31  C   -0.057942   0.017056
    32  C    0.241254   0.021990
    33  C    0.083397   0.001233
    34  C    0.094574   0.000380
    35  C    0.114640   0.000747
    36  C    0.289999  -0.000024
    37  O   -0.424913  -0.000014
    38  O   -0.007552   0.000033
    39  N    0.003092   0.049376
    40  C    0.238458   0.022993
    41  C   -0.093249   0.021445
    42  C   -0.021084   0.021090
    43  C    0.313380   0.021803
    44  C    0.104664   0.001117
    45  C    0.002026   0.000549
    46  C    0.012874   0.001055
    47  N   -0.000712   0.042221
    48  C    0.286020   0.018132
    49  C   -0.101649   0.020043
    50  C   -0.076110   0.016110
    51  C    0.318681   0.029552
    52  C    0.076708   0.001285
    53  C    0.035680   0.000777
    54  C    0.006781   0.000739
    55  N   -0.015726   0.041804
    56  C    0.274146   0.023099
    57  C   -0.125982   0.015532
    58  C    0.039189   0.020460
    59  C    0.161814   0.028955
    60  C    0.087664   0.001043
    61  C    0.015547   0.000035
    62  C    0.125692   0.000779
    63  C    0.288777   0.000039
    64  O   -0.006086   0.000019
    65  O   -0.403070   0.000137
 Electronic spatial extent (au):  <R**2>=          31700.1605
 Charge=              1.0000 electrons
 Dipole moment (field-independent basis, Debye):
    X=              4.2430    Y=              5.7384    Z=              5.7217  Tot=              9.1471
 Quadrupole moment (field-independent basis, Debye-Ang):
   XX=           -247.8654   YY=           -267.3287   ZZ=           -267.4483
   XY=            -34.4154   XZ=            -16.0755   YZ=              2.7801
 Traceless Quadrupole moment (field-independent basis, Debye-Ang):
   XX=             13.0154   YY=             -6.4479   ZZ=             -6.5675
   XY=            -34.4154   XZ=            -16.0755   YZ=              2.7801
 Octapole moment (field-independent basis, Debye-Ang**2):
  XXX=            -28.7302  YYY=            127.4689  ZZZ=            178.1270  XYY=             22.0707
  XXY=            163.6995  XXZ=            101.3433  XZZ=              7.8137  YZZ=            -41.0140
  YYZ=            -15.8760  XYZ=            -12.5422
 Hexadecapole moment (field-independent basis, Debye-Ang**3):
 XXXX=         -18661.9084 YYYY=         -13236.4526 ZZZZ=          -4694.2872 XXXY=          -1169.7857
 XXXZ=           -615.9978 YYYX=           -792.7398 YYYZ=            310.0238 ZZZX=           -176.3133
 ZZZY=           -403.5472 XXYY=          -5194.6866 XXZZ=          -4500.2035 YYZZ=          -3203.5247
 XXYZ=            212.6363 YYXZ=             75.3031 ZZXY=             98.9814
 N-N= 9.239677819397D+03 E-N=-2.757160180025D+04  KE= 3.877951001741D+03
 1\1\GINC-NODE652\SP\UPBE1PBE\def2TZVP\C41H50Fe1N6O4S1(1+,6)\ZHARTOVSKA
 \05-Jan-2023\0\\# PBE1PBE/def2TZVP empiricaldispersion=GD3BJ int=(grid
 =ultrafine) geom=check guess=read scrf=(smd,solvent=Chloroform)\\1c75_
 III_H_solv\\1,6\C,0,14.33,22.021,6.122\C,0,13.799,22.662,4.866\N,0,14.
 606,23.313,4.\C,0,12.558,22.732,4.329\C,0,13.866,23.798,2.987\N,0,12.6
 11,23.461,3.171\H,0,13.51231112,21.67303303,6.71798983\H,0,14.89576136
 ,22.73956268,6.67741135\H,0,15.457,23.402,4.083\H,0,11.792,22.347,4.68
 9\H,0,14.191,24.293,2.27\C,0,10.185,23.957,-2.066\C,0,9.307,23.606,-0.
 895\S,0,9.505,24.779,0.466\C,0,7.878,24.65,1.219\H,0,11.19513518,24.07
 229612,-1.73248281\H,0,9.84698146,24.87322448,-2.50323696\H,0,8.379,23
 .601,-1.18\H,0,9.528,22.714,-0.584\H,0,7.726,23.744,1.499\H,0,7.831,25
 .232,1.98\H,0,7.209,24.903,0.58\Fe,0,11.14,24.004,1.938\C,0,13.08,26.1
 99,0.234\C,0,10.285,26.45,4.144\C,0,9.038,21.828,3.528\C,0,12.199,21.4
 55,-0.043\N,0,11.604,25.933,2.157\C,0,12.406,26.699,1.345\C,0,12.449,2
 8.063,1.797\C,0,11.708,28.122,2.933\C,0,11.159,26.792,3.132\C,0,11.456
 ,29.284,3.835\C,0,13.219,29.185,1.129\C,0,14.759,29.023,1.193\C,0,15.2
 99,28.908,2.489\O,0,14.902,29.575,3.464\O,0,16.211,28.005,2.635\N,0,9.
 913,24.117,3.481\C,0,9.685,25.205,4.291\C,0,8.749,24.893,5.346\C,0,8.3
 4,23.617,5.135\C,0,9.085,23.133,3.989\C,0,8.382,25.85,6.444\C,0,7.364,
 22.794,5.922\C,0,5.937,23.397,5.937\N,0,10.676,22.083,1.735\C,0,9.779,
 21.33,2.504\C,0,9.819,19.936,2.13\C,0,10.695,19.85,1.125\C,0,11.232,21
 .157,0.897\C,0,9.046,18.849,2.831\C,0,11.219,18.578,0.474\C,0,10.056,1
 7.739,-0.135\N,0,12.383,23.864,0.416\C,0,12.729,22.72,-0.275\C,0,13.68
 3,23.005,-1.331\C,0,13.94,24.327,-1.237\C,0,13.103,24.858,-0.158\C,0,1
 4.186,21.964,-2.273\C,0,14.809,25.221,-2.071\C,0,13.96,26.122,-3.063\C
 ,0,14.517,27.402,-3.223\O,0,15.147,27.684,-4.29\O,0,14.468,28.25,-2.29
 2\H,0,13.552,26.806,-0.29\H,0,10.082,27.101,4.775\H,0,8.451,21.245,3.9
 53\H,0,12.52,20.754,-0.563\H,0,10.526,29.521,3.8\H,0,11.692,29.047,4.7
 35\H,0,11.988,30.031,3.551\H,0,12.977,30.024,1.551\H,0,12.95,29.236,0.
 199\H,0,15.006,28.234,0.686\H,0,15.166,29.789,0.757\H,0,16.531,28.058,
 3.389\H,0,7.987,26.638,6.064\H,0,7.753,25.431,7.036\H,0,9.171,26.092,6
 .934\H,0,7.31853251,21.81367103,5.49563418\H,0,5.26818918,22.71850146,
 6.42406449\H,0,5.94848736,24.32740143,6.46531925\H,0,8.993,19.046,3.76
 8\H,0,8.16,18.799,2.464\H,0,9.491,18.008,2.706\H,0,11.90715192,18.8392
 1912,-0.30260255\H,0,9.32701362,17.53773829,0.62194953\H,0,10.44227641
 ,16.81541574,-0.51273356\H,0,14.712,21.323,-1.791\H,0,13.442,21.52,-2.
 687\H,0,14.727,22.379,-2.949\H,0,15.33,25.794,-1.487\H,0,15.427,24.677
 ,-2.583\H,0,13.91,25.685,-3.927\H,0,13.056,26.208,-2.721\H,0,16.106988
 49,27.68520104,-4.29454437\H,0,11.72705005,17.9907918,1.21018726\H,0,9
 .59998839,18.28764013,-0.93246312\H,0,7.71464718,22.71539962,6.9298534
 3\H,0,5.60875367,23.56156424,4.93197614\H,0,14.9590038,21.19521428,5.8
 625156\H,0,10.1370678,23.17501099,-2.79476312\\Version=ES64L-G16RevA.0
 3\State=6-A\HF=-3881.3571628\S2=8.759887\S2-1=0.\S2A=8.750029\RMSD=3.6
 85e-09\Dipole=1.1431651,-3.4084625,0.163114\Quadrupole=16.7178974,-25.
 3394422,8.6215448,1.1269786,-18.925252,-3.8276339\PG=C01 [X(C41H50Fe1N
 6O4S1)]\\@


 COMMON SENSE IS NOT SO COMMON.   -- VOLTAIRE
 Job cpu time:       1 days 12 hours 11 minutes 14.2 seconds.
 Elapsed time:       0 days  9 hours  4 minutes 25.0 seconds.
 File lengths (MBytes):  RWF=   4363 Int=      0 D2E=      0 Chk=    298 Scr=      1
 Normal termination of Gaussian 16 at Thu Jan  5 14:02:20 2023.
