 Entering Gaussian System, Link 0=g16
 Input=/net/work/kleich/bench/splitthejobs/1ccc/gfcfail/1ccc/1ccc12/1ccc16/1ccc16.com
 Output=/net/work/kleich/bench/splitthejobs/1ccc/gfcfail/1ccc/1ccc12/1ccc16/1ccc16.log
 Initial command:
 /afs/math/software/gaussian/g16.A03/g16/l1.exe "/scratch/kleich_gaussian.uqrmiuJ/Gau-12064.inp" -scrdir="/scratch/kleich_gaussian.uqrmiuJ/"
 Entering Link 1 = /afs/math/software/gaussian/g16.A03/g16/l1.exe PID=     12065.
  
 Copyright (c) 1988,1990,1992,1993,1995,1998,2003,2009,2016,
            Gaussian, Inc.  All Rights Reserved.
  
 This is part of the Gaussian(R) 16 program.  It is based on
 the Gaussian(R) 09 system (copyright 2009, Gaussian, Inc.),
 the Gaussian(R) 03 system (copyright 2003, Gaussian, Inc.),
 the Gaussian(R) 98 system (copyright 1998, Gaussian, Inc.),
 the Gaussian(R) 94 system (copyright 1995, Gaussian, Inc.),
 the Gaussian 92(TM) system (copyright 1992, Gaussian, Inc.),
 the Gaussian 90(TM) system (copyright 1990, Gaussian, Inc.),
 the Gaussian 88(TM) system (copyright 1988, Gaussian, Inc.),
 the Gaussian 86(TM) system (copyright 1986, Carnegie Mellon
 University), and the Gaussian 82(TM) system (copyright 1983,
 Carnegie Mellon University). Gaussian is a federally registered
 trademark of Gaussian, Inc.
  
 This software contains proprietary and confidential information,
 including trade secrets, belonging to Gaussian, Inc.
  
 This software is provided under written license and may be
 used, copied, transmitted, or stored only in accord with that
 written license.
  
 The following legend is applicable only to US Government
 contracts under FAR:
  
                    RESTRICTED RIGHTS LEGEND
  
 Use, reproduction and disclosure by the US Government is
 subject to restrictions as set forth in subparagraphs (a)
 and (c) of the Commercial Computer Software - Restricted
 Rights clause in FAR 52.227-19.
  
 Gaussian, Inc.
 340 Quinnipiac St., Bldg. 40, Wallingford CT 06492
  
  
 ---------------------------------------------------------------
 Warning -- This program may not be used in any manner that
 competes with the business of Gaussian, Inc. or will provide
 assistance to any competitor of Gaussian, Inc.  The licensee
 of this program is prohibited from giving any competitor of
 Gaussian, Inc. access to this program.  By using this program,
 the user acknowledges that Gaussian, Inc. is engaged in the
 business of creating and licensing software in the field of
 computational chemistry and represents and warrants to the
 licensee that it is not a competitor of Gaussian, Inc. and that
 it will not use this program in any manner prohibited above.
 ---------------------------------------------------------------
  

 Cite this work as:
 Gaussian 16, Revision A.03,
 M. J. Frisch, G. W. Trucks, H. B. Schlegel, G. E. Scuseria, 
 M. A. Robb, J. R. Cheeseman, G. Scalmani, V. Barone, 
 G. A. Petersson, H. Nakatsuji, X. Li, M. Caricato, A. V. Marenich, 
 J. Bloino, B. G. Janesko, R. Gomperts, B. Mennucci, H. P. Hratchian, 
 J. V. Ortiz, A. F. Izmaylov, J. L. Sonnenberg, D. Williams-Young, 
 F. Ding, F. Lipparini, F. Egidi, J. Goings, B. Peng, A. Petrone, 
 T. Henderson, D. Ranasinghe, V. G. Zakrzewski, J. Gao, N. Rega, 
 G. Zheng, W. Liang, M. Hada, M. Ehara, K. Toyota, R. Fukuda, 
 J. Hasegawa, M. Ishida, T. Nakajima, Y. Honda, O. Kitao, H. Nakai, 
 T. Vreven, K. Throssell, J. A. Montgomery, Jr., J. E. Peralta, 
 F. Ogliaro, M. J. Bearpark, J. J. Heyd, E. N. Brothers, K. N. Kudin, 
 V. N. Staroverov, T. A. Keith, R. Kobayashi, J. Normand, 
 K. Raghavachari, A. P. Rendell, J. C. Burant, S. S. Iyengar, 
 J. Tomasi, M. Cossi, J. M. Millam, M. Klene, C. Adamo, R. Cammi, 
 J. W. Ochterski, R. L. Martin, K. Morokuma, O. Farkas, 
 J. B. Foresman, and D. J. Fox, Gaussian, Inc., Wallingford CT, 2016.
 
 ******************************************
 Gaussian 16:  ES64L-G16RevA.03 25-Dec-2016
                30-Sep-2022 
 ******************************************
 %nprocs=12
 Will use up to   12 processors via shared memory.
 %mem=16GB
 %oldchk=1ccc_III_D.chk
 %chk=1ccc_III_H.chk
 Copying data from "1ccc_III_D.chk" to current chk file "1ccc_III_H.chk"
 IOpt=  2 FromEx=T IUOpen= 4 IOptOp= 5 NList=   0 IFRang= 0 IUIn= 4 IUOut= 2.
 ----------------------------------------------------------------------
 # PBE1PBE/def2TZVP empiricaldispersion=GD3BJ int=(grid=ultrafine) geom
 =check pop=nbo
 ----------------------------------------------------------------------
 1/29=2,38=1,172=1/1;
 2/12=2,40=1/2;
 3/5=44,7=101,11=2,14=-4,25=1,30=1,74=-13,75=-5,124=41/1,2,3;
 4//1;
 5/5=2,38=5/2;
 6/7=2,8=2,9=2,10=2,28=1,40=1/1,7;
 99/5=1,9=1/99;
 ----------
 1ccc_III_H
 ----------
 Structure from the checkpoint file:  "1ccc_III_H.chk"
 Charge =  1 Multiplicity = 6
 Z-Matrix found in chk file.
 C,0,-9.179,55.032,107.752
 C,0,-8.656,55.674,109.047
 N,0,-9.337,56.251,110.028
 C,0,-7.346,55.781,109.43
 C,0,-8.517,56.656,110.967
 N,0,-7.296,56.371,110.601
 H,0,-10.269,56.52,109.992
 C,0,-5.551,53.892,112.957
 C,0,-7.582,57.995,114.479
 C,0,-6.051,60.051,110.455
 C,0,-3.606,56.143,109.236
 C,0,-6.256,54.818,113.741
 C,0,-6.747,54.522,114.978
 C,0,-7.371,55.7,115.428
 C,0,-7.164,56.651,114.442
 C,0,-8.086,55.956,116.762
 C,0,-6.553,53.157,115.632
 C,0,-5.476,53.072,116.681
 C,0,-5.338,51.676,117.3
 O,0,-6.184,51.244,118.071
 O,0,-4.374,50.963,117.069
 C,0,-7.439,58.947,113.445
 C,0,-8.009,60.231,113.431
 C,0,-7.608,60.79,112.216
 C,0,-6.791,59.833,111.615
 C,0,-8.955,60.766,114.492
 C,0,-7.873,62.019,111.592
 C,0,-8.696,63.097,112.034
 C,0,-5.174,59.214,109.761
 C,0,-4.391,59.621,108.681
 C,0,-3.586,58.503,108.416
 C,0,-4.037,57.471,109.254
 C,0,-4.411,61.018,108.022
 C,0,-2.583,58.321,107.461
 C,0,-2.38,59.068,106.226
 C,0,-3.969,55.112,110.1
 C,0,-3.707,53.769,109.892
 C,0,-4.284,53.11,110.969
 C,0,-4.859,54.103,111.761
 C,0,-2.951,53.119,108.756
 C,0,-4.239,51.602,111.251
 C,0,-3.022,51.189,112.088
 C,0,-3.017,49.736,112.53
 O,0,-2.521,49.411,113.591
 O,0,-3.525,48.903,111.799
 N,0,-6.505,56.102,113.416
 N,0,-6.791,58.703,112.305
 N,0,-4.982,57.915,110.076
 N,0,-4.679,55.3,111.215
 Fe,0,-5.764,57.006,111.726
 O,0,-4.379,57.565,112.833
 H,0,-8.35221418,54.70205231,107.15831681
 H,0,-9.74843124,55.75169565,107.20183071
 H,0,-9.80042008,54.19534946,107.99439011
 H,0,-6.50222091,55.43985069,108.86736868
 H,0,-8.80002549,57.13850381,111.87913302
 H,0,-6.46626491,56.56837267,111.1230955
 H,0,-5.54191748,52.88729231,113.32494017
 H,0,-8.0546801,58.32828693,115.3792185
 H,0,-6.17518396,61.02216626,110.02335843
 H,0,-2.91158813,55.88546597,108.46375109
 H,0,-8.06544698,57.00282325,116.98254174
 H,0,-9.10146998,55.62624303,116.69142337
 H,0,-7.58947722,55.41737975,117.54190599
 H,0,-6.23223956,52.50842686,114.84373252
 H,0,-7.46833274,52.95825756,116.14926919
 H,0,-5.78874862,53.71625337,117.47600056
 H,0,-4.55408588,53.25983125,116.17139842
 H,0,-8.59840514,61.71152394,114.84374506
 H,0,-9.93123472,60.88714947,114.07106227
 H,0,-9.00180482,60.07622713,115.30865335
 H,0,-7.38829785,62.16872181,110.64990276
 H,0,-9.21573368,63.02576938,112.96657874
 H,0,-8.79360744,63.97684997,111.4329702
 H,0,-4.24617281,61.32907016,107.01157071
 H,0,-3.36917314,60.79140974,107.93170244
 H,0,-5.2741464,60.58800982,107.55833337
 H,0,-1.87950984,57.53968958,107.65988598
 H,0,-1.39199029,59.47865043,106.21584894
 H,0,-3.09632064,59.86063763,106.16675208
 H,0,-2.27070695,52.39293861,109.14961938
 H,0,-3.64273715,52.63865513,108.0959481
 H,0,-2.40436718,53.86525723,108.2182336
 H,0,-4.11918378,51.12654952,110.29995273
 H,0,-5.09797137,51.3875604,111.85190253
 H,0,-3.08266803,51.76404687,112.98830022
 H,0,-2.17690898,51.296339,111.44054381
 H,0,-3.70734244,58.00580102,112.30748066
 H,0,-5.91534555,50.79349188,118.87503185
 H,0,-2.9692385,48.31464982,111.2826927
 Recover connectivity data from disk.
 Center=     -5.85324016     56.16773611    111.77333763
 Residue   0                        charge    0.00000000 layers R        AvRTP=      7.52713996    282.04284757     63.95049946
 Residue   4                        charge    0.00000000 layers R        AvRTP=      0.00000000      0.00000000      0.00000000
 Residue   2 PDB Number   295_A HEM charge    0.00000000 layers R        AvRTP=      0.52842070     26.93410448     53.75405076
 Residue   3 PDB Number   313_A HOH charge    0.00000000 layers R        AvRTP=      2.55504239     41.78726127     71.82658372
 Residue   1 PDB Number   175_A HIS charge    0.00000000 layers R        AvRTP=      3.56400997    186.84021222    132.01665650
 Stoichiometry    C38H40FeN6O5(1+,6)
 Framework group  C1[X(C38H40FeN6O5)]
 Deg. of freedom   264
 Full point group                 C1      NOp   1
 Largest Abelian subgroup         C1      NOp   1
 Largest concise Abelian subgroup C1      NOp   1
                         Standard orientation:                         
 ---------------------------------------------------------------------
 Center     Atomic      Atomic             Coordinates (Angstroms)
 Number     Number       Type             X           Y           Z
 ---------------------------------------------------------------------
      1          6           0       -1.547530   -1.837054    4.949256
      2          6           0       -1.462943   -0.893093    3.739090
      3          7           0       -1.679353    0.414183    3.682111
      4          6           0       -1.149798   -1.245063    2.453674
      5          6           0       -1.482546    0.849800    2.461598
      6          7           0       -1.160336   -0.166263    1.706734
      7          1           0       -2.105947    0.950743    4.369426
      8          6           0        2.365700    0.117175    0.214107
      9          6           0       -0.987526    3.552141   -0.268529
     10          6           0       -4.245136    0.086681   -0.645663
     11          6           0       -0.857484   -3.268428   -0.704938
     12          6           0        1.751825    1.376080    0.127651
     13          6           0        2.452341    2.545737    0.134488
     14          6           0        1.487584    3.563920    0.024458
     15          6           0        0.262684    2.927896   -0.096125
     16          6           0        1.699946    5.083216   -0.029930
     17          6           0        3.975586    2.588636    0.214874
     18          6           0        4.700572    2.840813   -1.080640
     19          6           0        6.225813    2.876431   -0.927693
     20          8           0        6.780855    3.820675   -0.382614
     21          8           0        6.936509    1.984812   -1.364673
     22          6           0       -2.245782    2.911520   -0.316536
     23          6           0       -3.493064    3.558074   -0.319238
     24          6           0       -4.433426    2.526747   -0.359110
     25          6           0       -3.692890    1.347268   -0.429632
     26          6           0       -3.687338    5.057385   -0.173680
     27          6           0       -5.836771    2.507417   -0.342000
     28          6           0       -6.753546    3.596043   -0.246116
     29          6           0       -3.639398   -1.165648   -0.772504
     30          6           0       -4.316472   -2.331932   -1.128158
     31          6           0       -3.291824   -3.280040   -1.267304
     32          6           0       -2.104107   -2.657063   -0.852700
     33          6           0       -5.837794   -2.461509   -1.362844
     34          6           0       -3.353638   -4.625829   -1.636344
     35          6           0       -4.505618   -5.516625   -1.574151
     36          6           0        0.356856   -2.670600   -0.374476
     37          6           0        1.503889   -3.349832   -0.002299
     38          6           0        2.440799   -2.364601    0.278161
     39          6           0        1.795289   -1.149020    0.055414
     40          6           0        1.732368   -4.841441    0.083919
     41          6           0        3.903353   -2.581971    0.689622
     42          6           0        4.853533   -2.665186   -0.511402
     43          6           0        6.328586   -2.717643   -0.153539
     44          8           0        7.162869   -2.216921   -0.881969
     45          8           0        6.657365   -3.269643    0.882567
     46          7           0        0.430962    1.603852   -0.012781
     47          7           0       -2.398077    1.586678   -0.291281
     48          7           0       -2.320157   -1.375634   -0.575019
     49          7           0        0.536421   -1.348815   -0.316954
     50         26           0       -0.954770    0.108135   -0.267683
     51          8           0       -0.717058    0.424262   -2.084194
     52          1           0       -1.356462   -2.841069    4.632480
     53          1           0       -2.525535   -1.778773    5.379383
     54          1           0       -0.819474   -1.548419    5.678313
     55          1           0       -0.932359   -2.236198    2.114157
     56          1           0       -1.570908    1.865962    2.138325
     57          1           0       -0.956802   -0.128542    0.728393
     58          1           0        3.413405    0.127998    0.431125
     59          1           0       -0.984329    4.616968   -0.373570
     60          1           0       -5.311889    0.075917   -0.728263
     61          1           0       -0.831584   -4.326042   -0.865192
     62          1           0        0.872706    5.541280   -0.530680
     63          1           0        1.772419    5.469079    0.965438
     64          1           0        2.602743    5.298323   -0.562459
     65          1           0        4.270881    1.605841    0.517883
     66          1           0        4.202759    3.430541    0.834946
     67          1           0        4.413472    3.823597   -1.391460
     68          1           0        4.487556    1.998563   -1.705251
     69          1           0       -4.306292    5.415759   -0.969521
     70          1           0       -4.156395    5.266792    0.764955
     71          1           0       -2.736189    5.545849   -0.213928
     72          1           0       -6.282743    1.537217   -0.410717
     73          1           0       -6.387568    4.598906   -0.173827
     74          1           0       -7.807208    3.409769   -0.246482
     75          1           0       -6.515196   -3.273287   -1.198397
     76          1           0       -5.482399   -3.145513   -2.104957
     77          1           0       -5.816828   -2.499529   -0.293725
     78          1           0       -2.446765   -5.054033   -2.009334
     79          1           0       -4.689316   -5.930344   -2.543683
     80          1           0       -5.365052   -4.966335   -1.252507
     81          1           0        2.669530   -5.085604   -0.371066
     82          1           0        1.745573   -5.141471    1.110909
     83          1           0        0.943745   -5.353189   -0.427049
     84          1           0        3.938450   -3.541531    1.161759
     85          1           0        4.190727   -1.706918    1.234231
     86          1           0        4.719628   -1.749769   -1.048972
     87          1           0        4.638323   -3.600177   -0.985087
     88          1           0       -1.207105   -0.228570   -2.589433
     89          1           0        7.573708    4.199646   -0.769092
     90          1           0        7.059662   -4.140864    0.855550
 ---------------------------------------------------------------------
 Rotational constants (GHZ):           0.0767057           0.0458410           0.0337690
 Standard basis: def2TZVP (5D, 7F)
 There are  2056 symmetry adapted cartesian basis functions of A   symmetry.
 There are  1804 symmetry adapted basis functions of A   symmetry.
  1804 basis functions,  2921 primitive gaussians,  2056 cartesian basis functions
   190 alpha electrons      185 beta electrons
       nuclear repulsion energy      7641.5492129217 Hartrees.
 NAtoms=   90 NActive=   90 NUniq=   90 SFac= 1.00D+00 NAtFMM=   60 NAOKFM=T Big=T
 Integral buffers will be    131072 words long.
 Raffenetti 2 integral format.
 Two-electron integral symmetry is turned on.
 Nuclear repulsion after empirical dispersion term =     7641.4223718964 Hartrees.
 One-electron integrals computed using PRISM.
   1 Symmetry operations used in ECPInt.
 ECPInt:  NShTT=  255255 NPrTT=  790653 LenC2=  185510 LenP2D=  373270.
 LDataN:  DoStor=T MaxTD1= 6 Len=  172
 NBasis=  1804 RedAO= T EigKep=  3.00D-06  NBF=  1804
 NBsUse=  1804 1.00D-06 EigRej= -1.00D+00 NBFU=  1804
 ExpMin= 4.20D-02 ExpMax= 3.01D+05 ExpMxC= 2.91D+03 IAcc=3 IRadAn=         5 AccDes= 0.00D+00
 Harris functional with IExCor= 1009 and IRadAn=       5 diagonalized for initial guess.
 HarFok:  IExCor= 1009 AccDes= 0.00D+00 IRadAn=         5 IDoV= 1 UseB2=F ITyADJ=14
 ICtDFT=  3500011 ScaDFX=  1.000000  1.000000  1.000000  1.000000
 FoFCou: FMM=F IPFlag=           0 FMFlag=      100000 FMFlg1=        2001
         NFxFlg=           0 DoJE=T BraDBF=F KetDBF=T FulRan=T
         wScrn=  0.000000 ICntrl=       500 IOpCl=  0 I1Cent=   200000004 NGrid=           0
         NMat0=    1 NMatS0=      1 NMatT0=    0 NMatD0=    1 NMtDS0=    0 NMtDT0=    0
 Petite list used in FoFCou.
 Initial guess <Sx>= 0.0000 <Sy>= 0.0000 <Sz>= 2.5000 <S**2>= 8.7500 S= 2.5000
 Requested convergence on RMS density matrix=1.00D-08 within 128 cycles.
 Requested convergence on MAX density matrix=1.00D-06.
 Requested convergence on             energy=1.00D-06.
 No special actions if energy rises.
 EnCoef did   100 forward-backward iterations
 EnCoef did   100 forward-backward iterations
 EnCoef did     3 forward-backward iterations
 EnCoef did     2 forward-backward iterations
 EnCoef did    20 forward-backward iterations
 EnCoef did     4 forward-backward iterations
 Restarting incremental Fock formation.
 Restarting incremental Fock formation.
 SCF Done:  E(UPBE1PBE) =  -3437.87759122     A.U. after   47 cycles
            NFock= 47  Conv=0.24D-08     -V/T= 2.0022
 <Sx>= 0.0000 <Sy>= 0.0000 <Sz>= 2.5000 <S**2>= 8.7901 S= 2.5067
 <L.S>= 0.000000000000E+00
 Annihilation of the first spin contaminant:
 S**2 before annihilation     8.7901,   after     8.7504

 **********************************************************************

            Population analysis using the SCF density.

 **********************************************************************

 Orbital symmetries:
 Alpha Orbitals:
       Occupied  (A) (A) (A) (A) (A) (A) (A) (A) (A) (A) (A) (A)
                 (A) (A) (A) (A) (A) (A) (A) (A) (A) (A) (A) (A)
                 (A) (A) (A) (A) (A) (A) (A) (A) (A) (A) (A) (A)
                 (A) (A) (A) (A) (A) (A) (A) (A) (A) (A) (A) (A)
                 (A) (A) (A) (A) (A) (A) (A) (A) (A) (A) (A) (A)
                 (A) (A) (A) (A) (A) (A) (A) (A) (A) (A) (A) (A)
                 (A) (A) (A) (A) (A) (A) (A) (A) (A) (A) (A) (A)
                 (A) (A) (A) (A) (A) (A) (A) (A) (A) (A) (A) (A)
                 (A) (A) (A) (A) (A) (A) (A) (A) (A) (A) (A) (A)
                 (A) (A) (A) (A) (A) (A) (A) (A) (A) (A) (A) (A)
                 (A) (A) (A) (A) (A) (A) (A) (A) (A) (A) (A) (A)
                 (A) (A) (A) (A) (A) (A) (A) (A) (A) (A) (A) (A)
                 (A) (A) (A) (A) (A) (A) (A) (A) (A) (A) (A) (A)
                 (A) (A) (A) (A) (A) (A) (A) (A) (A) (A) (A) (A)
                 (A) (A) (A) (A) (A) (A) (A) (A) (A) (A) (A) (A)
                 (A) (A) (A) (A) (A) (A) (A) (A) (A) (A)
       Virtual   (A) (A) (A) (A) (A) (A) (A) (A) (A) (A) (A) (A)
                 (A) (A) (A) (A) (A) (A) (A) (A) (A) (A) (A) (A)
                 (A) (A) (A) (A) (A) (A) (A) (A) (A) (A) (A) (A)
                 (A) (A) (A) (A) (A) (A) (A) (A) (A) (A) (A) (A)
                 (A) (A) (A) (A) (A) (A) (A) (A) (A) (A) (A) (A)
                 (A) (A) (A) (A) (A) (A) (A) (A) (A) (A) (A) (A)
                 (A) (A) (A) (A) (A) (A) (A) (A) (A) (A) (A) (A)
                 (A) (A) (A) (A) (A) (A) (A) (A) (A) (A) (A) (A)
                 (A) (A) (A) (A) (A) (A) (A) (A) (A) (A) (A) (A)
                 (A) (A) (A) (A) (A) (A) (A) (A) (A) (A) (A) (A)
                 (A) (A) (A) (A) (A) (A) (A) (A) (A) (A) (A) (A)
                 (A) (A) (A) (A) (A) (A) (A) (A) (A) (A) (A) (A)
                 (A) (A) (A) (A) (A) (A) (A) (A) (A) (A) (A) (A)
                 (A) (A) (A) (A) (A) (A) (A) (A) (A) (A) (A) (A)
                 (A) (A) (A) (A) (A) (A) (A) (A) (A) (A) (A) (A)
                 (A) (A) (A) (A) (A) (A) (A) (A) (A) (A) (A) (A)
                 (A) (A) (A) (A) (A) (A) (A) (A) (A) (A) (A) (A)
                 (A) (A) (A) (A) (A) (A) (A) (A) (A) (A) (A) (A)
                 (A) (A) (A) (A) (A) (A) (A) (A) (A) (A) (A) (A)
                 (A) (A) (A) (A) (A) (A) (A) (A) (A) (A) (A) (A)
                 (A) (A) (A) (A) (A) (A) (A) (A) (A) (A) (A) (A)
                 (A) (A) (A) (A) (A) (A) (A) (A) (A) (A) (A) (A)
                 (A) (A) (A) (A) (A) (A) (A) (A) (A) (A) (A) (A)
                 (A) (A) (A) (A) (A) (A) (A) (A) (A) (A) (A) (A)
                 (A) (A) (A) (A) (A) (A) (A) (A) (A) (A) (A) (A)
                 (A) (A) (A) (A) (A) (A) (A) (A) (A) (A) (A) (A)
                 (A) (A) (A) (A) (A) (A) (A) (A) (A) (A) (A) (A)
                 (A) (A) (A) (A) (A) (A) (A) (A) (A) (A) (A) (A)
                 (A) (A) (A) (A) (A) (A) (A) (A) (A) (A) (A) (A)
                 (A) (A) (A) (A) (A) (A) (A) (A) (A) (A) (A) (A)
                 (A) (A) (A) (A) (A) (A) (A) (A) (A) (A) (A) (A)
                 (A) (A) (A) (A) (A) (A) (A) (A) (A) (A) (A) (A)
                 (A) (A) (A) (A) (A) (A) (A) (A) (A) (A) (A) (A)
                 (A) (A) (A) (A) (A) (A) (A) (A) (A) (A) (A) (A)
                 (A) (A) (A) (A) (A) (A) (A) (A) (A) (A) (A) (A)
                 (A) (A) (A) (A) (A) (A) (A) (A) (A) (A) (A) (A)
                 (A) (A) (A) (A) (A) (A) (A) (A) (A) (A) (A) (A)
                 (A) (A) (A) (A) (A) (A) (A) (A) (A) (A) (A) (A)
                 (A) (A) (A) (A) (A) (A) (A) (A) (A) (A) (A) (A)
                 (A) (A) (A) (A) (A) (A) (A) (A) (A) (A) (A) (A)
                 (A) (A) (A) (A) (A) (A) (A) (A) (A) (A) (A) (A)
                 (A) (A) (A) (A) (A) (A) (A) (A) (A) (A) (A) (A)
                 (A) (A) (A) (A) (A) (A) (A) (A) (A) (A) (A) (A)
                 (A) (A) (A) (A) (A) (A) (A) (A) (A) (A) (A) (A)
                 (A) (A) (A) (A) (A) (A) (A) (A) (A) (A) (A) (A)
                 (A) (A) (A) (A) (A) (A) (A) (A) (A) (A) (A) (A)
                 (A) (A) (A) (A) (A) (A) (A) (A) (A) (A) (A) (A)
                 (A) (A) (A) (A) (A) (A) (A) (A) (A) (A) (A) (A)
                 (A) (A) (A) (A) (A) (A) (A) (A) (A) (A) (A) (A)
                 (A) (A) (A) (A) (A) (A) (A) (A) (A) (A) (A) (A)
                 (A) (A) (A) (A) (A) (A) (A) (A) (A) (A) (A) (A)
                 (A) (A) (A) (A) (A) (A) (A) (A) (A) (A) (A) (A)
                 (A) (A) (A) (A) (A) (A) (A) (A) (A) (A) (A) (A)
                 (A) (A) (A) (A) (A) (A) (A) (A) (A) (A) (A) (A)
                 (A) (A) (A) (A) (A) (A) (A) (A) (A) (A) (A) (A)
                 (A) (A) (A) (A) (A) (A) (A) (A) (A) (A) (A) (A)
                 (A) (A) (A) (A) (A) (A) (A) (A) (A) (A) (A) (A)
                 (A) (A) (A) (A) (A) (A) (A) (A) (A) (A) (A) (A)
                 (A) (A) (A) (A) (A) (A) (A) (A) (A) (A) (A) (A)
                 (A) (A) (A) (A) (A) (A) (A) (A) (A) (A) (A) (A)
                 (A) (A) (A) (A) (A) (A) (A) (A) (A) (A) (A) (A)
                 (A) (A) (A) (A) (A) (A) (A) (A) (A) (A) (A) (A)
                 (A) (A) (A) (A) (A) (A) (A) (A) (A) (A) (A) (A)
                 (A) (A) (A) (A) (A) (A) (A) (A) (A) (A) (A) (A)
                 (A) (A) (A) (A) (A) (A) (A) (A) (A) (A) (A) (A)
                 (A) (A) (A) (A) (A) (A) (A) (A) (A) (A) (A) (A)
                 (A) (A) (A) (A) (A) (A) (A) (A) (A) (A) (A) (A)
                 (A) (A) (A) (A) (A) (A) (A) (A) (A) (A) (A) (A)
                 (A) (A) (A) (A) (A) (A) (A) (A) (A) (A) (A) (A)
                 (A) (A) (A) (A) (A) (A) (A) (A) (A) (A) (A) (A)
                 (A) (A) (A) (A) (A) (A) (A) (A) (A) (A) (A) (A)
                 (A) (A) (A) (A) (A) (A) (A) (A) (A) (A) (A) (A)
                 (A) (A) (A) (A) (A) (A) (A) (A) (A) (A) (A) (A)
                 (A) (A) (A) (A) (A) (A) (A) (A) (A) (A) (A) (A)
                 (A) (A) (A) (A) (A) (A) (A) (A) (A) (A) (A) (A)
                 (A) (A) (A) (A) (A) (A) (A) (A) (A) (A) (A) (A)
                 (A) (A) (A) (A) (A) (A) (A) (A) (A) (A) (A) (A)
                 (A) (A) (A) (A) (A) (A) (A) (A) (A) (A) (A) (A)
                 (A) (A) (A) (A) (A) (A) (A) (A) (A) (A) (A) (A)
                 (A) (A) (A) (A) (A) (A) (A) (A) (A) (A) (A) (A)
                 (A) (A) (A) (A) (A) (A) (A) (A) (A) (A) (A) (A)
                 (A) (A) (A) (A) (A) (A) (A) (A) (A) (A) (A) (A)
                 (A) (A) (A) (A) (A) (A) (A) (A) (A) (A) (A) (A)
                 (A) (A) (A) (A) (A) (A) (A) (A) (A) (A) (A) (A)
                 (A) (A) (A) (A) (A) (A) (A) (A) (A) (A) (A) (A)
                 (A) (A) (A) (A) (A) (A) (A) (A) (A) (A) (A) (A)
                 (A) (A) (A) (A) (A) (A) (A) (A) (A) (A) (A) (A)
                 (A) (A) (A) (A) (A) (A) (A) (A) (A) (A) (A) (A)
                 (A) (A) (A) (A) (A) (A) (A) (A) (A) (A) (A) (A)
                 (A) (A) (A) (A) (A) (A) (A) (A) (A) (A) (A) (A)
                 (A) (A) (A) (A) (A) (A) (A) (A) (A) (A) (A) (A)
                 (A) (A) (A) (A) (A) (A) (A) (A) (A) (A) (A) (A)
                 (A) (A) (A) (A) (A) (A) (A) (A) (A) (A) (A) (A)
                 (A) (A) (A) (A) (A) (A) (A) (A) (A) (A) (A) (A)
                 (A) (A) (A) (A) (A) (A) (A) (A) (A) (A) (A) (A)
                 (A) (A) (A) (A) (A) (A) (A) (A) (A) (A) (A) (A)
                 (A) (A) (A) (A) (A) (A) (A) (A) (A) (A) (A) (A)
                 (A) (A) (A) (A) (A) (A) (A) (A) (A) (A) (A) (A)
                 (A) (A) (A) (A) (A) (A) (A) (A) (A) (A) (A) (A)
                 (A) (A) (A) (A) (A) (A) (A) (A) (A) (A) (A) (A)
                 (A) (A) (A) (A) (A) (A) (A) (A) (A) (A) (A) (A)
                 (A) (A) (A) (A) (A) (A) (A) (A) (A) (A) (A) (A)
                 (A) (A) (A) (A) (A) (A) (A) (A) (A) (A) (A) (A)
                 (A) (A) (A) (A) (A) (A) (A) (A) (A) (A) (A) (A)
                 (A) (A) (A) (A) (A) (A) (A) (A) (A) (A) (A) (A)
                 (A) (A) (A) (A) (A) (A) (A) (A) (A) (A) (A) (A)
                 (A) (A) (A) (A) (A) (A) (A) (A) (A) (A) (A) (A)
                 (A) (A) (A) (A) (A) (A) (A) (A) (A) (A) (A) (A)
                 (A) (A) (A) (A) (A) (A) (A) (A) (A) (A) (A) (A)
                 (A) (A) (A) (A) (A) (A) (A) (A) (A) (A) (A) (A)
                 (A) (A) (A) (A) (A) (A) (A) (A) (A) (A) (A) (A)
                 (A) (A) (A) (A) (A) (A) (A) (A) (A) (A) (A) (A)
                 (A) (A) (A) (A) (A) (A) (A) (A) (A) (A) (A) (A)
                 (A) (A) (A) (A) (A) (A) (A) (A) (A) (A) (A) (A)
                 (A) (A) (A) (A) (A) (A) (A) (A) (A) (A) (A) (A)
                 (A) (A) (A) (A) (A) (A) (A) (A) (A) (A) (A) (A)
                 (A) (A) (A) (A) (A) (A) (A) (A) (A) (A) (A) (A)
                 (A) (A) (A) (A) (A) (A) (A) (A) (A) (A) (A) (A)
                 (A) (A) (A) (A) (A) (A) (A) (A) (A) (A) (A) (A)
                 (A) (A) (A) (A) (A) (A) (A) (A) (A) (A) (A) (A)
                 (A) (A) (A) (A) (A) (A) (A) (A) (A) (A) (A) (A)
                 (A) (A) (A) (A) (A) (A) (A) (A) (A) (A) (A) (A)
                 (A) (A) (A) (A) (A) (A) (A) (A) (A) (A) (A) (A)
                 (A) (A) (A) (A) (A) (A) (A) (A) (A) (A) (A) (A)
                 (A) (A) (A) (A) (A) (A) (A) (A) (A) (A) (A) (A)
                 (A) (A) (A) (A) (A) (A) (A) (A) (A) (A) (A) (A)
                 (A) (A) (A) (A) (A) (A) (A) (A) (A) (A) (A) (A)
                 (A) (A) (A) (A) (A) (A) (A) (A) (A) (A) (A) (A)
                 (A) (A) (A) (A) (A) (A) (A) (A) (A) (A) (A) (A)
                 (A) (A) (A) (A) (A) (A) (A) (A) (A) (A) (A) (A)
                 (A) (A) (A) (A) (A) (A) (A) (A) (A) (A) (A) (A)
                 (A) (A) (A) (A) (A) (A) (A) (A) (A) (A) (A) (A)
                 (A) (A) (A) (A) (A) (A) (A) (A) (A) (A) (A) (A)
                 (A) (A) (A) (A) (A) (A) (A) (A) (A) (A) (A) (A)
                 (A) (A) (A) (A) (A) (A)
 Beta  Orbitals:
       Occupied  (A) (A) (A) (A) (A) (A) (A) (A) (A) (A) (A) (A)
                 (A) (A) (A) (A) (A) (A) (A) (A) (A) (A) (A) (A)
                 (A) (A) (A) (A) (A) (A) (A) (A) (A) (A) (A) (A)
                 (A) (A) (A) (A) (A) (A) (A) (A) (A) (A) (A) (A)
                 (A) (A) (A) (A) (A) (A) (A) (A) (A) (A) (A) (A)
                 (A) (A) (A) (A) (A) (A) (A) (A) (A) (A) (A) (A)
                 (A) (A) (A) (A) (A) (A) (A) (A) (A) (A) (A) (A)
                 (A) (A) (A) (A) (A) (A) (A) (A) (A) (A) (A) (A)
                 (A) (A) (A) (A) (A) (A) (A) (A) (A) (A) (A) (A)
                 (A) (A) (A) (A) (A) (A) (A) (A) (A) (A) (A) (A)
                 (A) (A) (A) (A) (A) (A) (A) (A) (A) (A) (A) (A)
                 (A) (A) (A) (A) (A) (A) (A) (A) (A) (A) (A) (A)
                 (A) (A) (A) (A) (A) (A) (A) (A) (A) (A) (A) (A)
                 (A) (A) (A) (A) (A) (A) (A) (A) (A) (A) (A) (A)
                 (A) (A) (A) (A) (A) (A) (A) (A) (A) (A) (A) (A)
                 (A) (A) (A) (A) (A)
       Virtual   (A) (A) (A) (A) (A) (A) (A) (A) (A) (A) (A) (A)
                 (A) (A) (A) (A) (A) (A) (A) (A) (A) (A) (A) (A)
                 (A) (A) (A) (A) (A) (A) (A) (A) (A) (A) (A) (A)
                 (A) (A) (A) (A) (A) (A) (A) (A) (A) (A) (A) (A)
                 (A) (A) (A) (A) (A) (A) (A) (A) (A) (A) (A) (A)
                 (A) (A) (A) (A) (A) (A) (A) (A) (A) (A) (A) (A)
                 (A) (A) (A) (A) (A) (A) (A) (A) (A) (A) (A) (A)
                 (A) (A) (A) (A) (A) (A) (A) (A) (A) (A) (A) (A)
                 (A) (A) (A) (A) (A) (A) (A) (A) (A) (A) (A) (A)
                 (A) (A) (A) (A) (A) (A) (A) (A) (A) (A) (A) (A)
                 (A) (A) (A) (A) (A) (A) (A) (A) (A) (A) (A) (A)
                 (A) (A) (A) (A) (A) (A) (A) (A) (A) (A) (A) (A)
                 (A) (A) (A) (A) (A) (A) (A) (A) (A) (A) (A) (A)
                 (A) (A) (A) (A) (A) (A) (A) (A) (A) (A) (A) (A)
                 (A) (A) (A) (A) (A) (A) (A) (A) (A) (A) (A) (A)
                 (A) (A) (A) (A) (A) (A) (A) (A) (A) (A) (A) (A)
                 (A) (A) (A) (A) (A) (A) (A) (A) (A) (A) (A) (A)
                 (A) (A) (A) (A) (A) (A) (A) (A) (A) (A) (A) (A)
                 (A) (A) (A) (A) (A) (A) (A) (A) (A) (A) (A) (A)
                 (A) (A) (A) (A) (A) (A) (A) (A) (A) (A) (A) (A)
                 (A) (A) (A) (A) (A) (A) (A) (A) (A) (A) (A) (A)
                 (A) (A) (A) (A) (A) (A) (A) (A) (A) (A) (A) (A)
                 (A) (A) (A) (A) (A) (A) (A) (A) (A) (A) (A) (A)
                 (A) (A) (A) (A) (A) (A) (A) (A) (A) (A) (A) (A)
                 (A) (A) (A) (A) (A) (A) (A) (A) (A) (A) (A) (A)
                 (A) (A) (A) (A) (A) (A) (A) (A) (A) (A) (A) (A)
                 (A) (A) (A) (A) (A) (A) (A) (A) (A) (A) (A) (A)
                 (A) (A) (A) (A) (A) (A) (A) (A) (A) (A) (A) (A)
                 (A) (A) (A) (A) (A) (A) (A) (A) (A) (A) (A) (A)
                 (A) (A) (A) (A) (A) (A) (A) (A) (A) (A) (A) (A)
                 (A) (A) (A) (A) (A) (A) (A) (A) (A) (A) (A) (A)
                 (A) (A) (A) (A) (A) (A) (A) (A) (A) (A) (A) (A)
                 (A) (A) (A) (A) (A) (A) (A) (A) (A) (A) (A) (A)
                 (A) (A) (A) (A) (A) (A) (A) (A) (A) (A) (A) (A)
                 (A) (A) (A) (A) (A) (A) (A) (A) (A) (A) (A) (A)
                 (A) (A) (A) (A) (A) (A) (A) (A) (A) (A) (A) (A)
                 (A) (A) (A) (A) (A) (A) (A) (A) (A) (A) (A) (A)
                 (A) (A) (A) (A) (A) (A) (A) (A) (A) (A) (A) (A)
                 (A) (A) (A) (A) (A) (A) (A) (A) (A) (A) (A) (A)
                 (A) (A) (A) (A) (A) (A) (A) (A) (A) (A) (A) (A)
                 (A) (A) (A) (A) (A) (A) (A) (A) (A) (A) (A) (A)
                 (A) (A) (A) (A) (A) (A) (A) (A) (A) (A) (A) (A)
                 (A) (A) (A) (A) (A) (A) (A) (A) (A) (A) (A) (A)
                 (A) (A) (A) (A) (A) (A) (A) (A) (A) (A) (A) (A)
                 (A) (A) (A) (A) (A) (A) (A) (A) (A) (A) (A) (A)
                 (A) (A) (A) (A) (A) (A) (A) (A) (A) (A) (A) (A)
                 (A) (A) (A) (A) (A) (A) (A) (A) (A) (A) (A) (A)
                 (A) (A) (A) (A) (A) (A) (A) (A) (A) (A) (A) (A)
                 (A) (A) (A) (A) (A) (A) (A) (A) (A) (A) (A) (A)
                 (A) (A) (A) (A) (A) (A) (A) (A) (A) (A) (A) (A)
                 (A) (A) (A) (A) (A) (A) (A) (A) (A) (A) (A) (A)
                 (A) (A) (A) (A) (A) (A) (A) (A) (A) (A) (A) (A)
                 (A) (A) (A) (A) (A) (A) (A) (A) (A) (A) (A) (A)
                 (A) (A) (A) (A) (A) (A) (A) (A) (A) (A) (A) (A)
                 (A) (A) (A) (A) (A) (A) (A) (A) (A) (A) (A) (A)
                 (A) (A) (A) (A) (A) (A) (A) (A) (A) (A) (A) (A)
                 (A) (A) (A) (A) (A) (A) (A) (A) (A) (A) (A) (A)
                 (A) (A) (A) (A) (A) (A) (A) (A) (A) (A) (A) (A)
                 (A) (A) (A) (A) (A) (A) (A) (A) (A) (A) (A) (A)
                 (A) (A) (A) (A) (A) (A) (A) (A) (A) (A) (A) (A)
                 (A) (A) (A) (A) (A) (A) (A) (A) (A) (A) (A) (A)
                 (A) (A) (A) (A) (A) (A) (A) (A) (A) (A) (A) (A)
                 (A) (A) (A) (A) (A) (A) (A) (A) (A) (A) (A) (A)
                 (A) (A) (A) (A) (A) (A) (A) (A) (A) (A) (A) (A)
                 (A) (A) (A) (A) (A) (A) (A) (A) (A) (A) (A) (A)
                 (A) (A) (A) (A) (A) (A) (A) (A) (A) (A) (A) (A)
                 (A) (A) (A) (A) (A) (A) (A) (A) (A) (A) (A) (A)
                 (A) (A) (A) (A) (A) (A) (A) (A) (A) (A) (A) (A)
                 (A) (A) (A) (A) (A) (A) (A) (A) (A) (A) (A) (A)
                 (A) (A) (A) (A) (A) (A) (A) (A) (A) (A) (A) (A)
                 (A) (A) (A) (A) (A) (A) (A) (A) (A) (A) (A) (A)
                 (A) (A) (A) (A) (A) (A) (A) (A) (A) (A) (A) (A)
                 (A) (A) (A) (A) (A) (A) (A) (A) (A) (A) (A) (A)
                 (A) (A) (A) (A) (A) (A) (A) (A) (A) (A) (A) (A)
                 (A) (A) (A) (A) (A) (A) (A) (A) (A) (A) (A) (A)
                 (A) (A) (A) (A) (A) (A) (A) (A) (A) (A) (A) (A)
                 (A) (A) (A) (A) (A) (A) (A) (A) (A) (A) (A) (A)
                 (A) (A) (A) (A) (A) (A) (A) (A) (A) (A) (A) (A)
                 (A) (A) (A) (A) (A) (A) (A) (A) (A) (A) (A) (A)
                 (A) (A) (A) (A) (A) (A) (A) (A) (A) (A) (A) (A)
                 (A) (A) (A) (A) (A) (A) (A) (A) (A) (A) (A) (A)
                 (A) (A) (A) (A) (A) (A) (A) (A) (A) (A) (A) (A)
                 (A) (A) (A) (A) (A) (A) (A) (A) (A) (A) (A) (A)
                 (A) (A) (A) (A) (A) (A) (A) (A) (A) (A) (A) (A)
                 (A) (A) (A) (A) (A) (A) (A) (A) (A) (A) (A) (A)
                 (A) (A) (A) (A) (A) (A) (A) (A) (A) (A) (A) (A)
                 (A) (A) (A) (A) (A) (A) (A) (A) (A) (A) (A) (A)
                 (A) (A) (A) (A) (A) (A) (A) (A) (A) (A) (A) (A)
                 (A) (A) (A) (A) (A) (A) (A) (A) (A) (A) (A) (A)
                 (A) (A) (A) (A) (A) (A) (A) (A) (A) (A) (A) (A)
                 (A) (A) (A) (A) (A) (A) (A) (A) (A) (A) (A) (A)
                 (A) (A) (A) (A) (A) (A) (A) (A) (A) (A) (A) (A)
                 (A) (A) (A) (A) (A) (A) (A) (A) (A) (A) (A) (A)
                 (A) (A) (A) (A) (A) (A) (A) (A) (A) (A) (A) (A)
                 (A) (A) (A) (A) (A) (A) (A) (A) (A) (A) (A) (A)
                 (A) (A) (A) (A) (A) (A) (A) (A) (A) (A) (A) (A)
                 (A) (A) (A) (A) (A) (A) (A) (A) (A) (A) (A) (A)
                 (A) (A) (A) (A) (A) (A) (A) (A) (A) (A) (A) (A)
                 (A) (A) (A) (A) (A) (A) (A) (A) (A) (A) (A) (A)
                 (A) (A) (A) (A) (A) (A) (A) (A) (A) (A) (A) (A)
                 (A) (A) (A) (A) (A) (A) (A) (A) (A) (A) (A) (A)
                 (A) (A) (A) (A) (A) (A) (A) (A) (A) (A) (A) (A)
                 (A) (A) (A) (A) (A) (A) (A) (A) (A) (A) (A) (A)
                 (A) (A) (A) (A) (A) (A) (A) (A) (A) (A) (A) (A)
                 (A) (A) (A) (A) (A) (A) (A) (A) (A) (A) (A) (A)
                 (A) (A) (A) (A) (A) (A) (A) (A) (A) (A) (A) (A)
                 (A) (A) (A) (A) (A) (A) (A) (A) (A) (A) (A) (A)
                 (A) (A) (A) (A) (A) (A) (A) (A) (A) (A) (A) (A)
                 (A) (A) (A) (A) (A) (A) (A) (A) (A) (A) (A) (A)
                 (A) (A) (A) (A) (A) (A) (A) (A) (A) (A) (A) (A)
                 (A) (A) (A) (A) (A) (A) (A) (A) (A) (A) (A) (A)
                 (A) (A) (A) (A) (A) (A) (A) (A) (A) (A) (A) (A)
                 (A) (A) (A) (A) (A) (A) (A) (A) (A) (A) (A) (A)
                 (A) (A) (A) (A) (A) (A) (A) (A) (A) (A) (A) (A)
                 (A) (A) (A) (A) (A) (A) (A) (A) (A) (A) (A) (A)
                 (A) (A) (A) (A) (A) (A) (A) (A) (A) (A) (A) (A)
                 (A) (A) (A) (A) (A) (A) (A) (A) (A) (A) (A) (A)
                 (A) (A) (A) (A) (A) (A) (A) (A) (A) (A) (A) (A)
                 (A) (A) (A) (A) (A) (A) (A) (A) (A) (A) (A) (A)
                 (A) (A) (A) (A) (A) (A) (A) (A) (A) (A) (A) (A)
                 (A) (A) (A) (A) (A) (A) (A) (A) (A) (A) (A) (A)
                 (A) (A) (A) (A) (A) (A) (A) (A) (A) (A) (A) (A)
                 (A) (A) (A) (A) (A) (A) (A) (A) (A) (A) (A) (A)
                 (A) (A) (A) (A) (A) (A) (A) (A) (A) (A) (A) (A)
                 (A) (A) (A) (A) (A) (A) (A) (A) (A) (A) (A) (A)
                 (A) (A) (A) (A) (A) (A) (A) (A) (A) (A) (A) (A)
                 (A) (A) (A) (A) (A) (A) (A) (A) (A) (A) (A) (A)
                 (A) (A) (A) (A) (A) (A) (A) (A) (A) (A) (A) (A)
                 (A) (A) (A) (A) (A) (A) (A) (A) (A) (A) (A) (A)
                 (A) (A) (A) (A) (A) (A) (A) (A) (A) (A) (A) (A)
                 (A) (A) (A) (A) (A) (A) (A) (A) (A) (A) (A) (A)
                 (A) (A) (A) (A) (A) (A) (A) (A) (A) (A) (A) (A)
                 (A) (A) (A) (A) (A) (A) (A) (A) (A) (A) (A) (A)
                 (A) (A) (A) (A) (A) (A) (A) (A) (A) (A) (A) (A)
                 (A) (A) (A) (A) (A) (A) (A) (A) (A) (A) (A)
 The electronic state is 6-A.
 Alpha  occ. eigenvalues -- -256.53604 -30.35226 -26.17423 -26.16876 -26.16696
 Alpha  occ. eigenvalues --  -19.31520 -19.31300 -19.29977 -19.23598 -19.22853
 Alpha  occ. eigenvalues --  -14.61881 -14.61755 -14.49145 -14.47787 -14.47473
 Alpha  occ. eigenvalues --  -14.47421 -10.46174 -10.42481 -10.40497 -10.40484
 Alpha  occ. eigenvalues --  -10.40465 -10.38410 -10.36281 -10.36213 -10.36045
 Alpha  occ. eigenvalues --  -10.35427 -10.35133 -10.35075 -10.35006 -10.34958
 Alpha  occ. eigenvalues --  -10.34801 -10.33827 -10.33450 -10.33003 -10.32941
 Alpha  occ. eigenvalues --  -10.32914 -10.32887 -10.32883 -10.32587 -10.32326
 Alpha  occ. eigenvalues --  -10.32147 -10.32101 -10.31948 -10.31861 -10.31377
 Alpha  occ. eigenvalues --  -10.31292 -10.31100 -10.30969 -10.30759 -10.30474
 Alpha  occ. eigenvalues --  -10.30445 -10.30423 -10.30135 -10.29461  -3.79194
 Alpha  occ. eigenvalues --   -2.57313  -2.55294  -2.53967  -1.28252  -1.24459
 Alpha  occ. eigenvalues --   -1.24340  -1.15367  -1.12300  -1.11204  -1.10987
 Alpha  occ. eigenvalues --   -1.10052  -1.09767  -1.09726  -1.08706  -0.97842
 Alpha  occ. eigenvalues --   -0.96431  -0.95189  -0.93606  -0.93251  -0.93099
 Alpha  occ. eigenvalues --   -0.92471  -0.92370  -0.92192  -0.89701  -0.88427
 Alpha  occ. eigenvalues --   -0.88249  -0.88138  -0.86397  -0.86274  -0.84487
 Alpha  occ. eigenvalues --   -0.84070  -0.82327  -0.81800  -0.81611  -0.80702
 Alpha  occ. eigenvalues --   -0.78111  -0.77941  -0.77173  -0.76847  -0.76792
 Alpha  occ. eigenvalues --   -0.74064  -0.73808  -0.73411  -0.73068  -0.72102
 Alpha  occ. eigenvalues --   -0.70219  -0.69995  -0.67552  -0.67215  -0.66720
 Alpha  occ. eigenvalues --   -0.65716  -0.65411  -0.64710  -0.63907  -0.63624
 Alpha  occ. eigenvalues --   -0.63098  -0.62037  -0.61283  -0.60743  -0.60532
 Alpha  occ. eigenvalues --   -0.60149  -0.60035  -0.59490  -0.58897  -0.58763
 Alpha  occ. eigenvalues --   -0.58225  -0.58114  -0.57842  -0.57216  -0.56993
 Alpha  occ. eigenvalues --   -0.56729  -0.56591  -0.56432  -0.56004  -0.55661
 Alpha  occ. eigenvalues --   -0.55360  -0.54881  -0.54436  -0.54347  -0.54326
 Alpha  occ. eigenvalues --   -0.54137  -0.53995  -0.53850  -0.53512  -0.53290
 Alpha  occ. eigenvalues --   -0.52917  -0.52776  -0.52247  -0.51869  -0.51596
 Alpha  occ. eigenvalues --   -0.51445  -0.51099  -0.51016  -0.50792  -0.50415
 Alpha  occ. eigenvalues --   -0.50373  -0.50134  -0.49860  -0.49095  -0.48354
 Alpha  occ. eigenvalues --   -0.48014  -0.47797  -0.47737  -0.47483  -0.46934
 Alpha  occ. eigenvalues --   -0.46420  -0.46389  -0.45853  -0.45381  -0.45212
 Alpha  occ. eigenvalues --   -0.44777  -0.44227  -0.43750  -0.43691  -0.42444
 Alpha  occ. eigenvalues --   -0.41719  -0.41404  -0.40979  -0.40804  -0.40343
 Alpha  occ. eigenvalues --   -0.39394  -0.39111  -0.38503  -0.38250  -0.37087
 Alpha  occ. eigenvalues --   -0.35305  -0.34796  -0.34112  -0.33851  -0.33331
 Alpha  occ. eigenvalues --   -0.33050  -0.31878  -0.30802  -0.30076  -0.29428
 Alpha virt. eigenvalues --   -0.19695  -0.18691  -0.15581  -0.15128  -0.11754
 Alpha virt. eigenvalues --   -0.11005  -0.10714  -0.09303  -0.08844  -0.07284
 Alpha virt. eigenvalues --   -0.06293  -0.05949  -0.05230  -0.04809  -0.04601
 Alpha virt. eigenvalues --   -0.04070  -0.03731  -0.03427  -0.03099  -0.02394
 Alpha virt. eigenvalues --   -0.02020  -0.01933  -0.01480  -0.01327  -0.01248
 Alpha virt. eigenvalues --   -0.00759  -0.00385  -0.00092   0.00066   0.00359
 Alpha virt. eigenvalues --    0.00620   0.00650   0.01099   0.01326   0.01788
 Alpha virt. eigenvalues --    0.01953   0.02251   0.02436   0.02958   0.03051
 Alpha virt. eigenvalues --    0.03528   0.03814   0.03923   0.04414   0.04508
 Alpha virt. eigenvalues --    0.04813   0.05094   0.05314   0.05521   0.05777
 Alpha virt. eigenvalues --    0.06310   0.06471   0.06608   0.06615   0.06894
 Alpha virt. eigenvalues --    0.07161   0.07411   0.07587   0.07822   0.07922
 Alpha virt. eigenvalues --    0.08216   0.08351   0.08561   0.08798   0.09128
 Alpha virt. eigenvalues --    0.09210   0.09405   0.09425   0.09724   0.09886
 Alpha virt. eigenvalues --    0.09946   0.10340   0.10592   0.11274   0.11294
 Alpha virt. eigenvalues --    0.11626   0.11883   0.11931   0.12297   0.12466
 Alpha virt. eigenvalues --    0.12579   0.13001   0.13148   0.13395   0.13636
 Alpha virt. eigenvalues --    0.13766   0.13894   0.14178   0.14252   0.14429
 Alpha virt. eigenvalues --    0.14529   0.14925   0.15044   0.15452   0.15560
 Alpha virt. eigenvalues --    0.15835   0.15852   0.16133   0.16238   0.16645
 Alpha virt. eigenvalues --    0.16904   0.17406   0.17524   0.17587   0.17793
 Alpha virt. eigenvalues --    0.17993   0.18232   0.18296   0.18590   0.18665
 Alpha virt. eigenvalues --    0.19040   0.19301   0.19426   0.19588   0.19858
 Alpha virt. eigenvalues --    0.20129   0.20541   0.20649   0.21022   0.21044
 Alpha virt. eigenvalues --    0.21519   0.21741   0.22036   0.22112   0.22240
 Alpha virt. eigenvalues --    0.22312   0.22946   0.23012   0.23247   0.23472
 Alpha virt. eigenvalues --    0.23694   0.24082   0.24245   0.24468   0.24772
 Alpha virt. eigenvalues --    0.25000   0.25166   0.25399   0.25820   0.26260
 Alpha virt. eigenvalues --    0.26330   0.26666   0.26918   0.27179   0.27329
 Alpha virt. eigenvalues --    0.27610   0.27830   0.28058   0.28171   0.28326
 Alpha virt. eigenvalues --    0.28779   0.29101   0.29419   0.29588   0.29694
 Alpha virt. eigenvalues --    0.29865   0.30109   0.30283   0.30427   0.30563
 Alpha virt. eigenvalues --    0.30651   0.30902   0.31050   0.31183   0.31359
 Alpha virt. eigenvalues --    0.31604   0.32033   0.32156   0.32321   0.32669
 Alpha virt. eigenvalues --    0.32965   0.33040   0.33239   0.33482   0.33710
 Alpha virt. eigenvalues --    0.33783   0.33911   0.34202   0.34525   0.34719
 Alpha virt. eigenvalues --    0.34917   0.35266   0.35358   0.35641   0.35735
 Alpha virt. eigenvalues --    0.35888   0.36312   0.36624   0.36683   0.36879
 Alpha virt. eigenvalues --    0.37143   0.37312   0.37619   0.37772   0.37998
 Alpha virt. eigenvalues --    0.38202   0.38399   0.38611   0.38806   0.39019
 Alpha virt. eigenvalues --    0.39247   0.39466   0.39544   0.39703   0.39899
 Alpha virt. eigenvalues --    0.40085   0.40189   0.40539   0.40759   0.40787
 Alpha virt. eigenvalues --    0.40907   0.41114   0.41311   0.41526   0.41612
 Alpha virt. eigenvalues --    0.41937   0.41966   0.42242   0.42566   0.42725
 Alpha virt. eigenvalues --    0.42845   0.43059   0.43368   0.43802   0.43868
 Alpha virt. eigenvalues --    0.44120   0.44432   0.44620   0.44696   0.44800
 Alpha virt. eigenvalues --    0.44921   0.45286   0.45350   0.45553   0.45966
 Alpha virt. eigenvalues --    0.45985   0.46126   0.46763   0.46803   0.47098
 Alpha virt. eigenvalues --    0.47342   0.47631   0.47742   0.48080   0.48175
 Alpha virt. eigenvalues --    0.48310   0.48895   0.48945   0.49037   0.49318
 Alpha virt. eigenvalues --    0.49532   0.49769   0.50013   0.50213   0.50432
 Alpha virt. eigenvalues --    0.50665   0.51221   0.51508   0.51725   0.51895
 Alpha virt. eigenvalues --    0.52180   0.52270   0.52728   0.52753   0.52915
 Alpha virt. eigenvalues --    0.53338   0.53517   0.53645   0.53817   0.54143
 Alpha virt. eigenvalues --    0.54371   0.54649   0.54806   0.54966   0.55310
 Alpha virt. eigenvalues --    0.55445   0.55564   0.55733   0.56370   0.56813
 Alpha virt. eigenvalues --    0.56984   0.57202   0.57448   0.57717   0.58025
 Alpha virt. eigenvalues --    0.58484   0.58708   0.58829   0.59181   0.59379
 Alpha virt. eigenvalues --    0.59532   0.59636   0.59778   0.59992   0.60106
 Alpha virt. eigenvalues --    0.60307   0.60445   0.60853   0.61103   0.61414
 Alpha virt. eigenvalues --    0.61697   0.61843   0.62250   0.62535   0.62769
 Alpha virt. eigenvalues --    0.63019   0.63181   0.63513   0.63696   0.64178
 Alpha virt. eigenvalues --    0.64249   0.64826   0.65281   0.65508   0.65609
 Alpha virt. eigenvalues --    0.65924   0.66426   0.66497   0.66851   0.67267
 Alpha virt. eigenvalues --    0.67613   0.67696   0.67873   0.68102   0.68197
 Alpha virt. eigenvalues --    0.68906   0.69251   0.69606   0.70040   0.70337
 Alpha virt. eigenvalues --    0.70492   0.70841   0.71387   0.71772   0.71967
 Alpha virt. eigenvalues --    0.72201   0.72389   0.72491   0.73199   0.73540
 Alpha virt. eigenvalues --    0.73875   0.73986   0.74416   0.74703   0.75190
 Alpha virt. eigenvalues --    0.75572   0.75609   0.75826   0.76167   0.76447
 Alpha virt. eigenvalues --    0.76869   0.76997   0.77300   0.77358   0.77733
 Alpha virt. eigenvalues --    0.78152   0.78665   0.79045   0.79530   0.79695
 Alpha virt. eigenvalues --    0.80055   0.80570   0.80661   0.80822   0.80940
 Alpha virt. eigenvalues --    0.81329   0.81715   0.82063   0.82227   0.82635
 Alpha virt. eigenvalues --    0.82918   0.83508   0.83726   0.83946   0.83990
 Alpha virt. eigenvalues --    0.84682   0.84857   0.85062   0.85479   0.85661
 Alpha virt. eigenvalues --    0.86025   0.86632   0.86824   0.86896   0.87347
 Alpha virt. eigenvalues --    0.87720   0.88278   0.88679   0.88901   0.89475
 Alpha virt. eigenvalues --    0.89580   0.89691   0.89863   0.90362   0.90518
 Alpha virt. eigenvalues --    0.90670   0.90860   0.91044   0.91408   0.91944
 Alpha virt. eigenvalues --    0.92100   0.92378   0.92577   0.93018   0.93308
 Alpha virt. eigenvalues --    0.93397   0.93973   0.94016   0.94432   0.94754
 Alpha virt. eigenvalues --    0.94905   0.95352   0.95491   0.96006   0.96114
 Alpha virt. eigenvalues --    0.96648   0.96893   0.97119   0.97626   0.97977
 Alpha virt. eigenvalues --    0.98491   0.98722   0.98764   0.99226   0.99664
 Alpha virt. eigenvalues --    1.00013   1.00158   1.00777   1.01147   1.01298
 Alpha virt. eigenvalues --    1.01394   1.01733   1.01934   1.02398   1.02482
 Alpha virt. eigenvalues --    1.03225   1.03372   1.04062   1.04263   1.04797
 Alpha virt. eigenvalues --    1.04919   1.05167   1.05426   1.05452   1.05992
 Alpha virt. eigenvalues --    1.06370   1.07019   1.07274   1.07602   1.07753
 Alpha virt. eigenvalues --    1.07992   1.08398   1.09212   1.09363   1.09641
 Alpha virt. eigenvalues --    1.09778   1.10159   1.10573   1.10873   1.11335
 Alpha virt. eigenvalues --    1.11671   1.12537   1.12783   1.12876   1.13182
 Alpha virt. eigenvalues --    1.13405   1.13913   1.14426   1.14766   1.15305
 Alpha virt. eigenvalues --    1.15586   1.16291   1.17098   1.17290   1.17638
 Alpha virt. eigenvalues --    1.17931   1.18018   1.18293   1.19113   1.19629
 Alpha virt. eigenvalues --    1.19994   1.20897   1.21320   1.21797   1.22013
 Alpha virt. eigenvalues --    1.22160   1.22315   1.22887   1.23089   1.23928
 Alpha virt. eigenvalues --    1.24035   1.24460   1.25064   1.25302   1.25745
 Alpha virt. eigenvalues --    1.25859   1.26480   1.26682   1.27295   1.27583
 Alpha virt. eigenvalues --    1.27981   1.28248   1.28585   1.28934   1.29655
 Alpha virt. eigenvalues --    1.29775   1.29840   1.30674   1.31228   1.31326
 Alpha virt. eigenvalues --    1.31990   1.32150   1.32339   1.32694   1.33104
 Alpha virt. eigenvalues --    1.33928   1.34052   1.34355   1.34767   1.35008
 Alpha virt. eigenvalues --    1.35186   1.35650   1.35982   1.36516   1.36924
 Alpha virt. eigenvalues --    1.36997   1.37621   1.38036   1.38587   1.38790
 Alpha virt. eigenvalues --    1.38858   1.39212   1.39325   1.39615   1.39905
 Alpha virt. eigenvalues --    1.40118   1.40411   1.40657   1.41045   1.41353
 Alpha virt. eigenvalues --    1.41657   1.41909   1.42058   1.42428   1.42542
 Alpha virt. eigenvalues --    1.43024   1.43314   1.43919   1.44004   1.44511
 Alpha virt. eigenvalues --    1.44672   1.45113   1.45338   1.45538   1.45895
 Alpha virt. eigenvalues --    1.46524   1.46606   1.47334   1.47665   1.47820
 Alpha virt. eigenvalues --    1.48254   1.48584   1.49037   1.49099   1.49306
 Alpha virt. eigenvalues --    1.49521   1.49788   1.49894   1.50094   1.50609
 Alpha virt. eigenvalues --    1.50649   1.51133   1.51206   1.51740   1.52211
 Alpha virt. eigenvalues --    1.52283   1.52384   1.52645   1.52722   1.52922
 Alpha virt. eigenvalues --    1.53384   1.53625   1.53925   1.54419   1.54993
 Alpha virt. eigenvalues --    1.55052   1.55364   1.55793   1.55973   1.56319
 Alpha virt. eigenvalues --    1.56553   1.57061   1.57381   1.57636   1.57890
 Alpha virt. eigenvalues --    1.58101   1.58298   1.58547   1.59049   1.59774
 Alpha virt. eigenvalues --    1.59888   1.60294   1.60652   1.60688   1.61029
 Alpha virt. eigenvalues --    1.61472   1.61962   1.62290   1.62657   1.62738
 Alpha virt. eigenvalues --    1.63700   1.63919   1.64306   1.64478   1.64781
 Alpha virt. eigenvalues --    1.64923   1.65469   1.65806   1.65975   1.66070
 Alpha virt. eigenvalues --    1.66134   1.66948   1.67217   1.67541   1.67629
 Alpha virt. eigenvalues --    1.68048   1.68814   1.69163   1.69466   1.69714
 Alpha virt. eigenvalues --    1.70018   1.70258   1.70685   1.70827   1.71107
 Alpha virt. eigenvalues --    1.71996   1.72360   1.73209   1.73431   1.73725
 Alpha virt. eigenvalues --    1.73991   1.74059   1.74702   1.74850   1.75298
 Alpha virt. eigenvalues --    1.75346   1.75860   1.76406   1.76595   1.76854
 Alpha virt. eigenvalues --    1.77462   1.77828   1.77938   1.78737   1.78844
 Alpha virt. eigenvalues --    1.79611   1.79921   1.80255   1.80882   1.81242
 Alpha virt. eigenvalues --    1.81389   1.81944   1.82321   1.82765   1.83037
 Alpha virt. eigenvalues --    1.83222   1.83636   1.84192   1.84465   1.85364
 Alpha virt. eigenvalues --    1.85713   1.85854   1.85971   1.86158   1.86326
 Alpha virt. eigenvalues --    1.86789   1.87188   1.87362   1.88012   1.88561
 Alpha virt. eigenvalues --    1.88714   1.88893   1.89106   1.89398   1.89914
 Alpha virt. eigenvalues --    1.90130   1.90833   1.91013   1.91682   1.92059
 Alpha virt. eigenvalues --    1.92175   1.92727   1.92919   1.93402   1.93820
 Alpha virt. eigenvalues --    1.94085   1.94362   1.95193   1.95325   1.95958
 Alpha virt. eigenvalues --    1.96404   1.96616   1.97329   1.97773   1.98031
 Alpha virt. eigenvalues --    1.98617   1.98893   1.99120   1.99506   1.99927
 Alpha virt. eigenvalues --    2.00454   2.00580   2.01074   2.01640   2.01765
 Alpha virt. eigenvalues --    2.02020   2.02736   2.02998   2.03080   2.03362
 Alpha virt. eigenvalues --    2.03685   2.04182   2.04671   2.04895   2.05171
 Alpha virt. eigenvalues --    2.05654   2.06161   2.06457   2.06725   2.07051
 Alpha virt. eigenvalues --    2.07509   2.07643   2.08553   2.08750   2.09039
 Alpha virt. eigenvalues --    2.09284   2.09827   2.10056   2.10288   2.10507
 Alpha virt. eigenvalues --    2.11197   2.11767   2.12072   2.12452   2.12918
 Alpha virt. eigenvalues --    2.13330   2.13734   2.13894   2.14379   2.14869
 Alpha virt. eigenvalues --    2.15353   2.16255   2.16671   2.17046   2.17208
 Alpha virt. eigenvalues --    2.17485   2.17986   2.18685   2.19006   2.19591
 Alpha virt. eigenvalues --    2.19856   2.20103   2.20413   2.21044   2.21422
 Alpha virt. eigenvalues --    2.21775   2.21942   2.22670   2.22880   2.23159
 Alpha virt. eigenvalues --    2.23823   2.24165   2.24334   2.24571   2.25226
 Alpha virt. eigenvalues --    2.25953   2.26222   2.26622   2.26801   2.27195
 Alpha virt. eigenvalues --    2.27747   2.28013   2.28416   2.28800   2.29538
 Alpha virt. eigenvalues --    2.30113   2.30130   2.30448   2.30868   2.31173
 Alpha virt. eigenvalues --    2.31283   2.31495   2.31828   2.32464   2.33009
 Alpha virt. eigenvalues --    2.33468   2.34032   2.34232   2.34563   2.34661
 Alpha virt. eigenvalues --    2.35491   2.35669   2.35946   2.36298   2.36659
 Alpha virt. eigenvalues --    2.37319   2.37849   2.38173   2.38596   2.39061
 Alpha virt. eigenvalues --    2.39607   2.40091   2.40147   2.40578   2.41046
 Alpha virt. eigenvalues --    2.41366   2.42045   2.42639   2.43474   2.43808
 Alpha virt. eigenvalues --    2.43906   2.44267   2.44593   2.44808   2.45230
 Alpha virt. eigenvalues --    2.45622   2.45905   2.46126   2.46648   2.46839
 Alpha virt. eigenvalues --    2.47394   2.47830   2.47955   2.48325   2.48432
 Alpha virt. eigenvalues --    2.48633   2.49064   2.49476   2.49828   2.50016
 Alpha virt. eigenvalues --    2.50304   2.50552   2.51348   2.51475   2.51597
 Alpha virt. eigenvalues --    2.52085   2.52207   2.52462   2.52760   2.53139
 Alpha virt. eigenvalues --    2.53542   2.53802   2.53994   2.54337   2.55100
 Alpha virt. eigenvalues --    2.55201   2.55575   2.55995   2.56400   2.56742
 Alpha virt. eigenvalues --    2.56932   2.57307   2.57989   2.58189   2.58512
 Alpha virt. eigenvalues --    2.58870   2.59082   2.59572   2.59674   2.60588
 Alpha virt. eigenvalues --    2.61035   2.61096   2.61467   2.61786   2.62083
 Alpha virt. eigenvalues --    2.62261   2.62632   2.63145   2.63779   2.63814
 Alpha virt. eigenvalues --    2.64351   2.64390   2.64566   2.65269   2.65420
 Alpha virt. eigenvalues --    2.65510   2.66010   2.66187   2.66981   2.67351
 Alpha virt. eigenvalues --    2.67543   2.67703   2.68103   2.68261   2.68826
 Alpha virt. eigenvalues --    2.69418   2.69465   2.69769   2.70381   2.70554
 Alpha virt. eigenvalues --    2.70912   2.71551   2.72087   2.72170   2.72995
 Alpha virt. eigenvalues --    2.73055   2.73771   2.74123   2.74585   2.74660
 Alpha virt. eigenvalues --    2.74981   2.75528   2.75802   2.76085   2.76727
 Alpha virt. eigenvalues --    2.76988   2.77215   2.77662   2.77754   2.77951
 Alpha virt. eigenvalues --    2.78411   2.78855   2.79012   2.79710   2.80056
 Alpha virt. eigenvalues --    2.80340   2.80659   2.81202   2.81333   2.81879
 Alpha virt. eigenvalues --    2.82127   2.82687   2.82765   2.83142   2.83552
 Alpha virt. eigenvalues --    2.83777   2.84290   2.84661   2.84817   2.85249
 Alpha virt. eigenvalues --    2.85798   2.85897   2.86140   2.86470   2.86551
 Alpha virt. eigenvalues --    2.86941   2.87701   2.87862   2.88064   2.88358
 Alpha virt. eigenvalues --    2.88573   2.89137   2.89345   2.89791   2.90061
 Alpha virt. eigenvalues --    2.90315   2.90539   2.90795   2.91153   2.91372
 Alpha virt. eigenvalues --    2.91764   2.92085   2.92313   2.92442   2.92615
 Alpha virt. eigenvalues --    2.93171   2.93246   2.93436   2.93720   2.94039
 Alpha virt. eigenvalues --    2.94483   2.94849   2.95460   2.95801   2.96312
 Alpha virt. eigenvalues --    2.96518   2.96996   2.97041   2.97372   2.97481
 Alpha virt. eigenvalues --    2.97777   2.98101   2.98499   2.98674   2.99025
 Alpha virt. eigenvalues --    2.99330   2.99631   2.99863   3.00010   3.00240
 Alpha virt. eigenvalues --    3.00467   3.00956   3.01031   3.01464   3.01710
 Alpha virt. eigenvalues --    3.02080   3.02155   3.02599   3.02847   3.03358
 Alpha virt. eigenvalues --    3.03677   3.03866   3.04116   3.04400   3.04553
 Alpha virt. eigenvalues --    3.04874   3.05185   3.05559   3.05734   3.06055
 Alpha virt. eigenvalues --    3.06273   3.06760   3.06913   3.07169   3.07334
 Alpha virt. eigenvalues --    3.07638   3.07836   3.08462   3.08827   3.09094
 Alpha virt. eigenvalues --    3.09542   3.09907   3.09973   3.10280   3.11199
 Alpha virt. eigenvalues --    3.11337   3.11740   3.11965   3.12307   3.12600
 Alpha virt. eigenvalues --    3.12661   3.13235   3.13587   3.13840   3.14162
 Alpha virt. eigenvalues --    3.14384   3.14881   3.15098   3.15628   3.15922
 Alpha virt. eigenvalues --    3.15982   3.16137   3.16421   3.16734   3.17204
 Alpha virt. eigenvalues --    3.17426   3.17682   3.18091   3.18302   3.18577
 Alpha virt. eigenvalues --    3.18828   3.19251   3.19337   3.19934   3.20042
 Alpha virt. eigenvalues --    3.20311   3.20596   3.20815   3.20855   3.20956
 Alpha virt. eigenvalues --    3.21840   3.21892   3.22039   3.22257   3.22453
 Alpha virt. eigenvalues --    3.22806   3.23004   3.23148   3.23449   3.23662
 Alpha virt. eigenvalues --    3.24053   3.24179   3.24734   3.25015   3.25217
 Alpha virt. eigenvalues --    3.25629   3.25689   3.25960   3.26272   3.26426
 Alpha virt. eigenvalues --    3.26635   3.26857   3.26961   3.27498   3.27715
 Alpha virt. eigenvalues --    3.27914   3.28108   3.28669   3.28738   3.29092
 Alpha virt. eigenvalues --    3.29212   3.29362   3.29534   3.29731   3.30192
 Alpha virt. eigenvalues --    3.30583   3.30717   3.31251   3.31508   3.31932
 Alpha virt. eigenvalues --    3.32100   3.32520   3.32642   3.32963   3.33349
 Alpha virt. eigenvalues --    3.34051   3.34333   3.34502   3.35008   3.35576
 Alpha virt. eigenvalues --    3.35807   3.35906   3.36271   3.36812   3.36988
 Alpha virt. eigenvalues --    3.37160   3.37710   3.38100   3.38252   3.39235
 Alpha virt. eigenvalues --    3.39489   3.39609   3.40005   3.40305   3.40633
 Alpha virt. eigenvalues --    3.40821   3.41217   3.41265   3.41887   3.41946
 Alpha virt. eigenvalues --    3.42433   3.42565   3.42788   3.43305   3.43908
 Alpha virt. eigenvalues --    3.44218   3.44607   3.44834   3.45579   3.45656
 Alpha virt. eigenvalues --    3.46007   3.46147   3.47000   3.47118   3.47335
 Alpha virt. eigenvalues --    3.47801   3.47920   3.48195   3.48801   3.49649
 Alpha virt. eigenvalues --    3.49874   3.50190   3.50264   3.50943   3.51072
 Alpha virt. eigenvalues --    3.51637   3.51949   3.52046   3.52445   3.52982
 Alpha virt. eigenvalues --    3.53410   3.53658   3.54079   3.54693   3.55093
 Alpha virt. eigenvalues --    3.55707   3.56028   3.56056   3.56072   3.56698
 Alpha virt. eigenvalues --    3.56891   3.57196   3.57560   3.57894   3.58376
 Alpha virt. eigenvalues --    3.58734   3.59117   3.59269   3.59502   3.59586
 Alpha virt. eigenvalues --    3.60029   3.60230   3.60775   3.61117   3.61434
 Alpha virt. eigenvalues --    3.61765   3.62222   3.62827   3.63133   3.63314
 Alpha virt. eigenvalues --    3.63745   3.64101   3.64642   3.64975   3.65252
 Alpha virt. eigenvalues --    3.65302   3.66035   3.66470   3.67040   3.67088
 Alpha virt. eigenvalues --    3.67370   3.67800   3.68153   3.69089   3.69133
 Alpha virt. eigenvalues --    3.69626   3.70093   3.70475   3.70874   3.71181
 Alpha virt. eigenvalues --    3.71295   3.71927   3.72478   3.72860   3.73756
 Alpha virt. eigenvalues --    3.73995   3.74968   3.75374   3.75469   3.75947
 Alpha virt. eigenvalues --    3.76392   3.76867   3.77147   3.77900   3.78220
 Alpha virt. eigenvalues --    3.78982   3.79265   3.80374   3.80816   3.81752
 Alpha virt. eigenvalues --    3.82064   3.82513   3.83205   3.83456   3.84136
 Alpha virt. eigenvalues --    3.84276   3.85346   3.85523   3.85771   3.86013
 Alpha virt. eigenvalues --    3.86464   3.87320   3.87980   3.88809   3.89294
 Alpha virt. eigenvalues --    3.89629   3.89948   3.90356   3.90950   3.91113
 Alpha virt. eigenvalues --    3.91374   3.92158   3.92637   3.92868   3.93279
 Alpha virt. eigenvalues --    3.93936   3.94353   3.94736   3.95265   3.95597
 Alpha virt. eigenvalues --    3.96552   3.96960   3.97502   3.97613   3.98773
 Alpha virt. eigenvalues --    3.98810   4.00087   4.00251   4.00931   4.01348
 Alpha virt. eigenvalues --    4.02028   4.02153   4.02877   4.03254   4.03843
 Alpha virt. eigenvalues --    4.04524   4.04957   4.05579   4.06060   4.06351
 Alpha virt. eigenvalues --    4.06761   4.07043   4.07940   4.08406   4.09228
 Alpha virt. eigenvalues --    4.09682   4.09950   4.10213   4.11271   4.11637
 Alpha virt. eigenvalues --    4.11865   4.12881   4.13174   4.13571   4.14133
 Alpha virt. eigenvalues --    4.14765   4.15016   4.15577   4.15914   4.16138
 Alpha virt. eigenvalues --    4.16601   4.16949   4.17477   4.17759   4.18784
 Alpha virt. eigenvalues --    4.19381   4.19707   4.20222   4.20976   4.21354
 Alpha virt. eigenvalues --    4.21961   4.22347   4.23643   4.23759   4.24794
 Alpha virt. eigenvalues --    4.25394   4.26172   4.26472   4.27022   4.27397
 Alpha virt. eigenvalues --    4.28057   4.28312   4.28924   4.29280   4.30067
 Alpha virt. eigenvalues --    4.30660   4.31315   4.32151   4.32570   4.33002
 Alpha virt. eigenvalues --    4.33817   4.34276   4.35742   4.35974   4.36553
 Alpha virt. eigenvalues --    4.37223   4.37507   4.38125   4.38434   4.39639
 Alpha virt. eigenvalues --    4.41237   4.42003   4.42312   4.43072   4.43422
 Alpha virt. eigenvalues --    4.44141   4.44880   4.45293   4.45741   4.46456
 Alpha virt. eigenvalues --    4.47610   4.48648   4.49053   4.49586   4.50785
 Alpha virt. eigenvalues --    4.51342   4.51567   4.52620   4.53633   4.53906
 Alpha virt. eigenvalues --    4.54682   4.55753   4.56719   4.57076   4.57499
 Alpha virt. eigenvalues --    4.58229   4.58906   4.60196   4.60674   4.61215
 Alpha virt. eigenvalues --    4.61889   4.62487   4.62951   4.63734   4.64639
 Alpha virt. eigenvalues --    4.65339   4.66676   4.67205   4.67751   4.68917
 Alpha virt. eigenvalues --    4.69990   4.70195   4.70938   4.71058   4.71405
 Alpha virt. eigenvalues --    4.72140   4.72313   4.73368   4.73755   4.74575
 Alpha virt. eigenvalues --    4.75462   4.75726   4.75992   4.77450   4.78128
 Alpha virt. eigenvalues --    4.78957   4.79533   4.80432   4.80650   4.81543
 Alpha virt. eigenvalues --    4.82339   4.82652   4.83535   4.85279   4.85780
 Alpha virt. eigenvalues --    4.86525   4.87113   4.87467   4.87685   4.88142
 Alpha virt. eigenvalues --    4.88688   4.89843   4.90420   4.91606   4.92137
 Alpha virt. eigenvalues --    4.92429   4.93485   4.94995   4.95273   4.96955
 Alpha virt. eigenvalues --    4.97552   4.98348   4.98840   4.99172   4.99587
 Alpha virt. eigenvalues --    5.00809   5.01312   5.01795   5.02531   5.03417
 Alpha virt. eigenvalues --    5.04593   5.04837   5.06421   5.07084   5.08173
 Alpha virt. eigenvalues --    5.08591   5.09486   5.10340   5.10701   5.10915
 Alpha virt. eigenvalues --    5.11740   5.11965   5.12831   5.14063   5.14460
 Alpha virt. eigenvalues --    5.14700   5.15580   5.16222   5.17074   5.17977
 Alpha virt. eigenvalues --    5.18611   5.18876   5.19778   5.21089   5.21421
 Alpha virt. eigenvalues --    5.22376   5.22738   5.24964   5.25506   5.27863
 Alpha virt. eigenvalues --    5.28401   5.28570   5.29081   5.30115   5.30950
 Alpha virt. eigenvalues --    5.31710   5.32489   5.33395   5.33955   5.34715
 Alpha virt. eigenvalues --    5.35265   5.37785   5.37858   5.38860   5.40625
 Alpha virt. eigenvalues --    5.41068   5.41369   5.42629   5.43464   5.44937
 Alpha virt. eigenvalues --    5.45515   5.47772   5.48701   5.50344   5.50673
 Alpha virt. eigenvalues --    5.51692   5.53533   5.54479   5.54601   5.55916
 Alpha virt. eigenvalues --    5.56495   5.57317   5.58252   5.58502   5.60277
 Alpha virt. eigenvalues --    5.61284   5.62258   5.62783   5.65493   5.66076
 Alpha virt. eigenvalues --    5.66283   5.68813   5.71495   5.72715   5.74003
 Alpha virt. eigenvalues --    5.74098   5.78004   5.79955   5.81371   5.82447
 Alpha virt. eigenvalues --    5.87303   5.89755   5.92518   5.93269   5.93839
 Alpha virt. eigenvalues --    5.94201   5.96441   6.00913   6.02811   6.03891
 Alpha virt. eigenvalues --    6.06556   6.06991   6.07868   6.13106   6.14249
 Alpha virt. eigenvalues --    6.15025   6.20842   6.21498   6.22134   6.28013
 Alpha virt. eigenvalues --    6.29559   6.30157   6.30802   6.33700   6.34724
 Alpha virt. eigenvalues --    6.36717   6.39171   6.39831   6.40563   6.41978
 Alpha virt. eigenvalues --    6.42087   6.48114   6.48328   6.49991   6.50406
 Alpha virt. eigenvalues --    6.54002   6.59527   6.62503   6.72950   6.74206
 Alpha virt. eigenvalues --    6.77402   6.80064   6.81214   6.87737   6.92923
 Alpha virt. eigenvalues --    6.93835   6.98250   7.02699   7.03815   7.07107
 Alpha virt. eigenvalues --    7.12126   7.15468   7.15875   7.22834   7.28666
 Alpha virt. eigenvalues --   22.19507  22.28992  22.32494  22.33700  22.42202
 Alpha virt. eigenvalues --   22.46938  22.47449  22.52458  22.53887  22.61083
 Alpha virt. eigenvalues --   22.62551  22.67418  22.74692  22.76627  22.84640
 Alpha virt. eigenvalues --   22.85030  22.87319  22.90993  22.95127  22.97936
 Alpha virt. eigenvalues --   23.02685  23.07326  23.08373  23.19344  23.23780
 Alpha virt. eigenvalues --   23.29045  23.35052  23.39262  23.41496  23.45201
 Alpha virt. eigenvalues --   23.48656  23.52060  23.67098  23.70635  23.73402
 Alpha virt. eigenvalues --   23.83492  23.86940  23.95961  32.35292  32.86665
 Alpha virt. eigenvalues --   32.92238  32.96373  32.99373  33.10292  43.88148
 Alpha virt. eigenvalues --   43.91499  43.93450  43.94340  44.07695
  Beta  occ. eigenvalues -- -256.53465 -30.26660 -26.10040 -26.09787 -26.09536
  Beta  occ. eigenvalues --  -19.31520 -19.31300 -19.28189 -19.23598 -19.22852
  Beta  occ. eigenvalues --  -14.61870 -14.61307 -14.48845 -14.47446 -14.47131
  Beta  occ. eigenvalues --  -14.47077 -10.46172 -10.42457 -10.40497 -10.40483
  Beta  occ. eigenvalues --  -10.40465 -10.38433 -10.36278 -10.36196 -10.36055
  Beta  occ. eigenvalues --  -10.35425 -10.35136 -10.35073 -10.35000 -10.34960
  Beta  occ. eigenvalues --  -10.34791 -10.33963 -10.33445 -10.32991 -10.32902
  Beta  occ. eigenvalues --  -10.32858 -10.32853 -10.32832 -10.32592 -10.32307
  Beta  occ. eigenvalues --  -10.32135 -10.32073 -10.31942 -10.31856 -10.31375
  Beta  occ. eigenvalues --  -10.31290 -10.31106 -10.30757 -10.30754 -10.30473
  Beta  occ. eigenvalues --  -10.30443 -10.30421 -10.30135 -10.29441  -3.58884
  Beta  occ. eigenvalues --   -2.37450  -2.31871  -2.31761  -1.27886  -1.24458
  Beta  occ. eigenvalues --   -1.24340  -1.14640  -1.11932  -1.10845  -1.10641
  Beta  occ. eigenvalues --   -1.09726  -1.09644  -1.08705  -1.05332  -0.97647
  Beta  occ. eigenvalues --   -0.96326  -0.95137  -0.93520  -0.93094  -0.92959
  Beta  occ. eigenvalues --   -0.92353  -0.92083  -0.90607  -0.89633  -0.88361
  Beta  occ. eigenvalues --   -0.88115  -0.87978  -0.86348  -0.86222  -0.84269
  Beta  occ. eigenvalues --   -0.83974  -0.82241  -0.81679  -0.81343  -0.80571
  Beta  occ. eigenvalues --   -0.77993  -0.77858  -0.77115  -0.76781  -0.75532
  Beta  occ. eigenvalues --   -0.73964  -0.73383  -0.73074  -0.72979  -0.71978
  Beta  occ. eigenvalues --   -0.70150  -0.69726  -0.67283  -0.66800  -0.66483
  Beta  occ. eigenvalues --   -0.65429  -0.64964  -0.64474  -0.63601  -0.63469
  Beta  occ. eigenvalues --   -0.62913  -0.60926  -0.60721  -0.60452  -0.60073
  Beta  occ. eigenvalues --   -0.59872  -0.59227  -0.58459  -0.58220  -0.58001
  Beta  occ. eigenvalues --   -0.57512  -0.57262  -0.57069  -0.56851  -0.56531
  Beta  occ. eigenvalues --   -0.56061  -0.55677  -0.55464  -0.55234  -0.54970
  Beta  occ. eigenvalues --   -0.54567  -0.54043  -0.53871  -0.53840  -0.53384
  Beta  occ. eigenvalues --   -0.53344  -0.53230  -0.52850  -0.52381  -0.52096
  Beta  occ. eigenvalues --   -0.51507  -0.51421  -0.51249  -0.51083  -0.50561
  Beta  occ. eigenvalues --   -0.50397  -0.50155  -0.50032  -0.49214  -0.48662
  Beta  occ. eigenvalues --   -0.48270  -0.47998  -0.47786  -0.47484  -0.47134
  Beta  occ. eigenvalues --   -0.46681  -0.46317  -0.45947  -0.45495  -0.45299
  Beta  occ. eigenvalues --   -0.45185  -0.44147  -0.43694  -0.43481  -0.42768
  Beta  occ. eigenvalues --   -0.42533  -0.42139  -0.41593  -0.41344  -0.40748
  Beta  occ. eigenvalues --   -0.40271  -0.39576  -0.39381  -0.38547  -0.38460
  Beta  occ. eigenvalues --   -0.37515  -0.34667  -0.34349  -0.34033  -0.33119
  Beta  occ. eigenvalues --   -0.33022  -0.31464  -0.30553  -0.30015  -0.29191
  Beta virt. eigenvalues --   -0.23746  -0.22876  -0.19289  -0.18793  -0.18239
  Beta virt. eigenvalues --   -0.17093  -0.14920  -0.14428  -0.11833  -0.11665
  Beta virt. eigenvalues --   -0.10805  -0.10427  -0.09154  -0.08758  -0.07280
  Beta virt. eigenvalues --   -0.06261  -0.05887  -0.05136  -0.04717  -0.04471
  Beta virt. eigenvalues --   -0.03973  -0.03700  -0.03341  -0.02948  -0.02323
  Beta virt. eigenvalues --   -0.01930  -0.01786  -0.01439  -0.01228  -0.01127
  Beta virt. eigenvalues --   -0.00595  -0.00272  -0.00039   0.00190   0.00409
  Beta virt. eigenvalues --    0.00677   0.00716   0.01126   0.01358   0.01953
  Beta virt. eigenvalues --    0.02047   0.02291   0.02475   0.03053   0.03179
  Beta virt. eigenvalues --    0.03587   0.03928   0.04083   0.04500   0.04591
  Beta virt. eigenvalues --    0.04910   0.05155   0.05391   0.05667   0.05925
  Beta virt. eigenvalues --    0.06351   0.06531   0.06692   0.06752   0.06920
  Beta virt. eigenvalues --    0.07251   0.07496   0.07735   0.07922   0.08069
  Beta virt. eigenvalues --    0.08350   0.08423   0.08836   0.09073   0.09226
  Beta virt. eigenvalues --    0.09297   0.09473   0.09697   0.09919   0.10027
  Beta virt. eigenvalues --    0.10132   0.10467   0.10716   0.11493   0.11577
  Beta virt. eigenvalues --    0.11803   0.12127   0.12145   0.12510   0.12626
  Beta virt. eigenvalues --    0.12965   0.13181   0.13300   0.13626   0.13842
  Beta virt. eigenvalues --    0.13889   0.14015   0.14312   0.14356   0.14552
  Beta virt. eigenvalues --    0.14629   0.15067   0.15193   0.15597   0.15638
  Beta virt. eigenvalues --    0.15997   0.16065   0.16195   0.16374   0.16906
  Beta virt. eigenvalues --    0.17090   0.17573   0.17690   0.17912   0.17929
  Beta virt. eigenvalues --    0.18140   0.18462   0.18587   0.18677   0.18903
  Beta virt. eigenvalues --    0.19139   0.19458   0.19631   0.19757   0.19918
  Beta virt. eigenvalues --    0.20549   0.20751   0.20854   0.21117   0.21188
  Beta virt. eigenvalues --    0.21643   0.21824   0.22129   0.22323   0.22429
  Beta virt. eigenvalues --    0.22581   0.23042   0.23125   0.23420   0.23569
  Beta virt. eigenvalues --    0.23826   0.24264   0.24461   0.24582   0.24914
  Beta virt. eigenvalues --    0.25207   0.25326   0.25552   0.25978   0.26334
  Beta virt. eigenvalues --    0.26517   0.26794   0.27031   0.27393   0.27529
  Beta virt. eigenvalues --    0.27702   0.28018   0.28186   0.28356   0.28514
  Beta virt. eigenvalues --    0.28855   0.29189   0.29523   0.29679   0.29803
  Beta virt. eigenvalues --    0.29965   0.30173   0.30425   0.30556   0.30636
  Beta virt. eigenvalues --    0.30821   0.30987   0.31183   0.31282   0.31478
  Beta virt. eigenvalues --    0.31714   0.32093   0.32280   0.32449   0.32802
  Beta virt. eigenvalues --    0.33087   0.33121   0.33315   0.33605   0.33911
  Beta virt. eigenvalues --    0.34003   0.34054   0.34362   0.34712   0.34814
  Beta virt. eigenvalues --    0.35063   0.35399   0.35498   0.35701   0.35803
  Beta virt. eigenvalues --    0.36120   0.36574   0.36703   0.36797   0.37091
  Beta virt. eigenvalues --    0.37226   0.37519   0.37714   0.37877   0.38171
  Beta virt. eigenvalues --    0.38309   0.38563   0.38696   0.38958   0.39144
  Beta virt. eigenvalues --    0.39365   0.39569   0.39654   0.39816   0.40080
  Beta virt. eigenvalues --    0.40160   0.40296   0.40621   0.40859   0.40885
  Beta virt. eigenvalues --    0.40998   0.41214   0.41367   0.41699   0.41842
  Beta virt. eigenvalues --    0.41994   0.42092   0.42408   0.42760   0.42886
  Beta virt. eigenvalues --    0.43046   0.43258   0.43512   0.43880   0.44022
  Beta virt. eigenvalues --    0.44317   0.44598   0.44674   0.44784   0.44900
  Beta virt. eigenvalues --    0.45001   0.45384   0.45425   0.45693   0.46056
  Beta virt. eigenvalues --    0.46109   0.46241   0.46852   0.46920   0.47256
  Beta virt. eigenvalues --    0.47472   0.47744   0.48009   0.48205   0.48293
  Beta virt. eigenvalues --    0.48490   0.49040   0.49105   0.49341   0.49437
  Beta virt. eigenvalues --    0.49662   0.49888   0.50247   0.50378   0.50533
  Beta virt. eigenvalues --    0.50875   0.51340   0.51633   0.51883   0.51971
  Beta virt. eigenvalues --    0.52322   0.52457   0.52837   0.52914   0.53030
  Beta virt. eigenvalues --    0.53477   0.53664   0.53873   0.54025   0.54323
  Beta virt. eigenvalues --    0.54503   0.54768   0.54945   0.55126   0.55426
  Beta virt. eigenvalues --    0.55652   0.55769   0.55938   0.56500   0.57009
  Beta virt. eigenvalues --    0.57177   0.57381   0.57615   0.57926   0.58138
  Beta virt. eigenvalues --    0.58597   0.58829   0.58923   0.59295   0.59458
  Beta virt. eigenvalues --    0.59692   0.59814   0.59912   0.60126   0.60367
  Beta virt. eigenvalues --    0.60504   0.60568   0.60981   0.61257   0.61561
  Beta virt. eigenvalues --    0.61899   0.61969   0.62310   0.62629   0.62866
  Beta virt. eigenvalues --    0.63143   0.63337   0.63678   0.63816   0.64331
  Beta virt. eigenvalues --    0.64389   0.64967   0.65432   0.65631   0.65711
  Beta virt. eigenvalues --    0.66020   0.66560   0.66628   0.67022   0.67368
  Beta virt. eigenvalues --    0.67699   0.67917   0.67973   0.68273   0.68340
  Beta virt. eigenvalues --    0.69069   0.69408   0.69738   0.70107   0.70596
  Beta virt. eigenvalues --    0.70633   0.70986   0.71531   0.71868   0.72135
  Beta virt. eigenvalues --    0.72314   0.72540   0.72656   0.73378   0.73719
  Beta virt. eigenvalues --    0.73976   0.74172   0.74633   0.74817   0.75430
  Beta virt. eigenvalues --    0.75681   0.75744   0.75976   0.76255   0.76644
  Beta virt. eigenvalues --    0.76983   0.77093   0.77440   0.77564   0.77945
  Beta virt. eigenvalues --    0.78269   0.78910   0.79284   0.79633   0.79980
  Beta virt. eigenvalues --    0.80159   0.80656   0.80754   0.80949   0.81101
  Beta virt. eigenvalues --    0.81482   0.81896   0.82159   0.82344   0.82815
  Beta virt. eigenvalues --    0.83083   0.83671   0.83873   0.84056   0.84257
  Beta virt. eigenvalues --    0.84769   0.84962   0.85223   0.85546   0.85816
  Beta virt. eigenvalues --    0.86126   0.86730   0.86952   0.87093   0.87495
  Beta virt. eigenvalues --    0.87825   0.88474   0.89011   0.89095   0.89549
  Beta virt. eigenvalues --    0.89791   0.89856   0.90052   0.90455   0.90801
  Beta virt. eigenvalues --    0.90994   0.91154   0.91193   0.91595   0.92084
  Beta virt. eigenvalues --    0.92376   0.92522   0.92688   0.93168   0.93533
  Beta virt. eigenvalues --    0.93584   0.94154   0.94235   0.94527   0.94918
  Beta virt. eigenvalues --    0.95196   0.95441   0.95669   0.96270   0.96418
  Beta virt. eigenvalues --    0.96810   0.97107   0.97620   0.97732   0.98257
  Beta virt. eigenvalues --    0.98574   0.98890   0.98928   0.99423   0.99892
  Beta virt. eigenvalues --    1.00225   1.00406   1.00929   1.01324   1.01405
  Beta virt. eigenvalues --    1.01638   1.02000   1.02141   1.02473   1.02595
  Beta virt. eigenvalues --    1.03299   1.03598   1.04254   1.04472   1.04927
  Beta virt. eigenvalues --    1.05056   1.05325   1.05588   1.05800   1.06235
  Beta virt. eigenvalues --    1.06501   1.07196   1.07464   1.07806   1.07896
  Beta virt. eigenvalues --    1.08309   1.08545   1.09388   1.09537   1.09797
  Beta virt. eigenvalues --    1.10023   1.10317   1.10752   1.11182   1.11570
  Beta virt. eigenvalues --    1.11835   1.12703   1.13002   1.13292   1.13493
  Beta virt. eigenvalues --    1.13557   1.14161   1.14699   1.15156   1.15516
  Beta virt. eigenvalues --    1.15708   1.16430   1.17412   1.17467   1.17771
  Beta virt. eigenvalues --    1.18148   1.18285   1.18397   1.19262   1.19897
  Beta virt. eigenvalues --    1.20198   1.21092   1.21527   1.22056   1.22278
  Beta virt. eigenvalues --    1.22358   1.22674   1.23131   1.23210   1.24194
  Beta virt. eigenvalues --    1.24320   1.24721   1.25438   1.25550   1.25949
  Beta virt. eigenvalues --    1.26178   1.26690   1.26947   1.27405   1.27786
  Beta virt. eigenvalues --    1.28149   1.28593   1.29012   1.29055   1.29785
  Beta virt. eigenvalues --    1.29838   1.29982   1.30939   1.31378   1.31549
  Beta virt. eigenvalues --    1.32176   1.32441   1.32572   1.32986   1.33238
  Beta virt. eigenvalues --    1.34016   1.34261   1.34493   1.34939   1.35088
  Beta virt. eigenvalues --    1.35362   1.35784   1.36162   1.36629   1.37079
  Beta virt. eigenvalues --    1.37137   1.37905   1.38169   1.38713   1.38893
  Beta virt. eigenvalues --    1.38985   1.39316   1.39471   1.39703   1.40074
  Beta virt. eigenvalues --    1.40273   1.40609   1.40892   1.41153   1.41422
  Beta virt. eigenvalues --    1.41893   1.42080   1.42296   1.42525   1.42694
  Beta virt. eigenvalues --    1.43239   1.43423   1.44046   1.44176   1.44746
  Beta virt. eigenvalues --    1.44839   1.45244   1.45455   1.45741   1.46037
  Beta virt. eigenvalues --    1.46713   1.46823   1.47451   1.47773   1.48076
  Beta virt. eigenvalues --    1.48425   1.48686   1.49096   1.49212   1.49440
  Beta virt. eigenvalues --    1.49665   1.49913   1.49985   1.50163   1.50711
  Beta virt. eigenvalues --    1.50740   1.51205   1.51285   1.51827   1.52287
  Beta virt. eigenvalues --    1.52439   1.52490   1.52752   1.52902   1.52988
  Beta virt. eigenvalues --    1.53486   1.53763   1.54031   1.54554   1.55057
  Beta virt. eigenvalues --    1.55146   1.55516   1.55949   1.56113   1.56409
  Beta virt. eigenvalues --    1.56694   1.57210   1.57461   1.57749   1.57980
  Beta virt. eigenvalues --    1.58178   1.58371   1.58682   1.59159   1.59861
  Beta virt. eigenvalues --    1.60035   1.60385   1.60791   1.60904   1.61194
  Beta virt. eigenvalues --    1.61566   1.62109   1.62423   1.62863   1.62879
  Beta virt. eigenvalues --    1.63860   1.64057   1.64525   1.64630   1.64875
  Beta virt. eigenvalues --    1.65120   1.65577   1.65946   1.66084   1.66199
  Beta virt. eigenvalues --    1.66271   1.67032   1.67301   1.67658   1.67743
  Beta virt. eigenvalues --    1.68134   1.68997   1.69397   1.69613   1.69911
  Beta virt. eigenvalues --    1.70144   1.70476   1.70827   1.70929   1.71198
  Beta virt. eigenvalues --    1.72094   1.72534   1.73311   1.73536   1.73823
  Beta virt. eigenvalues --    1.74128   1.74192   1.74811   1.74909   1.75464
  Beta virt. eigenvalues --    1.75555   1.75992   1.76503   1.76708   1.76972
[...]
  1584. RY*(   2) H  69                  0.00009     1.69863   
  1585. RY*(   3) H  69                  0.00003     1.99833   
  1586. RY*(   4) H  69                  0.00003     2.08194   
  1587. RY*(   5) H  69                  0.00000     2.93583   
  1588. RY*(   1) H  70                  0.00049     0.80736   
  1589. RY*(   2) H  70                  0.00009     1.68251   
  1590. RY*(   3) H  70                  0.00003     2.10034   
  1591. RY*(   4) H  70                  0.00003     2.00511   
  1592. RY*(   5) H  70                  0.00000     2.88365   
  1593. RY*(   1) H  71                  0.00021     1.35387   
  1594. RY*(   2) H  71                  0.00008     1.85912   
  1595. RY*(   3) H  71                  0.00003     2.01173   
  1596. RY*(   4) H  71                  0.00001     2.18414   
  1597. RY*(   5) H  71                  0.00000     2.36277   
  1598. RY*(   1) H  72                  0.00042     0.74553   
  1599. RY*(   2) H  72                  0.00016     2.21460   
  1600. RY*(   3) H  72                  0.00007     1.98203   
  1601. RY*(   4) H  72                  0.00005     2.27253   
  1602. RY*(   5) H  72                  0.00001     3.02832   
  1603. RY*(   1) H  73                  0.00033     0.97945   
  1604. RY*(   2) H  73                  0.00008     1.42915   
  1605. RY*(   3) H  73                  0.00008     1.89054   
  1606. RY*(   4) H  73                  0.00003     2.20680   
  1607. RY*(   5) H  73                  0.00001     2.80325   
  1608. RY*(   1) H  74                  0.00016     1.59816   
  1609. RY*(   2) H  74                  0.00006     1.11056   
  1610. RY*(   3) H  74                  0.00006     1.89544   
  1611. RY*(   4) H  74                  0.00000     1.61368   
  1612. RY*(   5) H  74                  0.00001     2.90125   
  1613. RY*(   1) H  75                  0.00025     1.45691   
  1614. RY*(   2) H  75                  0.00019     2.23752   
  1615. RY*(   3) H  75                  0.00014     2.21994   
  1616. RY*(   4) H  75                  0.00002     1.03909   
  1617. RY*(   5) H  75                  0.00001     2.97524   
  1623. RY*(   1) H  77                  0.00067     1.39057   
  1624. RY*(   2) H  77                  0.00016     2.20222   
  1625. RY*(   3) H  77                  0.00009     2.36541   
  1626. RY*(   4) H  77                  0.00003     1.35839   
  1627. RY*(   5) H  77                  0.00000     2.74510   
  1628. RY*(   1) H  78                  0.00040     1.36031   
  1629. RY*(   2) H  78                  0.00011     1.58621   
  1630. RY*(   3) H  78                  0.00005     2.15018   
  1631. RY*(   4) H  78                  0.00003     2.46858   
  1632. RY*(   5) H  78                  0.00000     3.04452   
  1633. RY*(   1) H  79                  0.00043     1.39089   
  1634. RY*(   2) H  79                  0.00010     1.17158   
  1635. RY*(   3) H  79                  0.00005     2.13569   
  1636. RY*(   4) H  79                  0.00002     2.20160   
  1637. RY*(   5) H  79                  0.00001     2.65718   
  1638. RY*(   1) H  80                  0.00095     1.25380   
  1639. RY*(   2) H  80                  0.00008     1.47683   
  1640. RY*(   3) H  80                  0.00007     2.17217   
  1641. RY*(   4) H  80                  0.00004     2.30121   
  1642. RY*(   5) H  80                  0.00001     2.82114   
  1643. RY*(   1) H  81                  0.00042     0.87839   
  1644. RY*(   2) H  81                  0.00008     1.74889   
  1645. RY*(   3) H  81                  0.00004     2.02141   
  1646. RY*(   4) H  81                  0.00003     2.11352   
  1647. RY*(   5) H  81                  0.00000     2.84658   
  1648. RY*(   1) H  82                  0.00038     1.00725   
  1649. RY*(   2) H  82                  0.00008     1.60632   
  1650. RY*(   3) H  82                  0.00003     2.04962   
  1651. RY*(   4) H  82                  0.00002     1.91718   
  1652. RY*(   5) H  82                  0.00000     2.90115   
  1653. RY*(   1) H  83                  0.00022     1.31331   
  1654. RY*(   2) H  83                  0.00008     1.80368   
  1655. RY*(   3) H  83                  0.00003     2.06245   
  1656. RY*(   4) H  83                  0.00001     2.14672   
  1657. RY*(   5) H  83                  0.00000     2.38248   
  1658. RY*(   1) H  84                  0.00051     1.58373   
  1659. RY*(   2) H  84                  0.00009     2.64238   
  1660. RY*(   3) H  84                  0.00005     1.40663   
  1661. RY*(   4) H  84                  0.00004     2.36809   
  1662. RY*(   5) H  84                  0.00000     2.88068   
  1663. RY*(   1) H  85                  0.00047     1.49331   
  1664. RY*(   2) H  85                  0.00009     2.52387   
  1665. RY*(   3) H  85                  0.00006     1.51436   
  1666. RY*(   4) H  85                  0.00005     2.37509   
  1667. RY*(   5) H  85                  0.00000     2.91103   
  1668. RY*(   1) H  86                  0.00050     1.13333   
  1669. RY*(   2) H  86                  0.00007     1.51127   
  1670. RY*(   3) H  86                  0.00006     2.48525   
  1671. RY*(   4) H  86                  0.00003     2.34912   
  1672. RY*(   5) H  86                  0.00001     3.03250   
  1673. RY*(   1) H  87                  0.00047     1.09909   
  1674. RY*(   2) H  87                  0.00007     2.26076   
  1675. RY*(   3) H  87                  0.00005     1.58017   
  1676. RY*(   4) H  87                  0.00003     2.38007   
  1677. RY*(   5) H  87                  0.00000     2.93923   
  1678. RY*(   1) H  88                  0.00075     1.52136   
  1679. RY*(   2) H  88                  0.00037     2.04624   
  1680. RY*(   3) H  88                  0.00032     1.17095   
  1681. RY*(   4) H  88                  0.00009     2.32864   
  1682. RY*(   5) H  88                  0.00001     2.93357   
  1683. RY*(   1) H  89                  0.00062     0.92676   
  1684. RY*(   2) H  89                  0.00033     2.05726   
  1685. RY*(   3) H  89                  0.00022     1.68322   
  1686. RY*(   4) H  89                  0.00011     2.09200   
  1687. RY*(   5) H  89                  0.00000     3.12133   
  1688. RY*(   1) H  90                  0.00045     0.96076   
  1689. RY*(   2) H  90                  0.00040     1.73823   
  1690. RY*(   3) H  90                  0.00022     1.92923   
  1691. RY*(   4) H  90                  0.00011     2.13043   
  1692. RY*(   5) H  90                  0.00000     3.14848   
  1708. BD*(   1) C   8 - C  12          0.01178     0.44318   
  1709. BD*(   1) C   8 - C  39          0.01188     0.45240   
  1710. BD*(   1) C   8 - H  58          0.00702     0.35641   
  1711. BD*(   1) C   9 - C  15          0.01110     0.43513   
  1712. BD*(   1) C   9 - C  22          0.01087     0.42713   
  1713. BD*(   1) C   9 - H  59          0.00579     0.35193   
  1714. BD*(   1) C  10 - C  25          0.01138     0.45679   
  1715. BD*(   1) C  10 - C  29          0.01181     0.44832   
  1716. BD*(   1) C  10 - H  60          0.00795     0.36409   
  1717. BD*(   1) C  11 - C  32          0.01097     0.44585   
  1718. BD*(   1) C  11 - C  36          0.01160     0.45511   
  1719. BD*(   2) C  11 - C  36          0.21219    -0.06724  1779(v),1784(v),181(v)
                                                    431(g)
  1720. BD*(   1) C  11 - H  61          0.00650     0.34596   
  1721. BD*(   1) C  12 - C  13          0.01387     0.49437   
  1722. BD*(   1) C  12 - N  46          0.01465     0.43149   
  1723. BD*(   2) C  12 - N  46          0.32961    -0.09235  1725(v),1784(r),175(v)
                                                    187(v),1342(g),458(g),459(g)
                                                    353(v),188(v),537(v)
  1724. BD*(   1) C  13 - C  14          0.01193     0.44618   
  1725. BD*(   2) C  13 - C  14          0.14407    -0.04449  1723(v),175(v),1733(v)
                                                    1731(v),1732(v),1735(v)
  1726. BD*(   1) C  13 - C  17          0.01241     0.29538   
  1727. BD*(   1) C  14 - C  15          0.01413     0.46497   
  1728. BD*(   1) C  14 - C  16          0.00793     0.27722   
  1729. BD*(   1) C  15 - N  46          0.01346     0.44626   
  1730. BD*(   1) C  16 - H  62          0.00234     0.32431   
  1731. BD*(   1) C  16 - H  63          0.00412     0.31977   
  1732. BD*(   1) C  16 - H  64          0.00287     0.32474   
  1733. BD*(   1) C  17 - C  18          0.00779     0.29705   
  1734. BD*(   1) C  17 - H  65          0.00779     0.32536   
  1735. BD*(   1) C  17 - H  66          0.00731     0.32049   
  1736. BD*(   1) C  18 - C  19          0.03784     0.26654   
  1737. BD*(   1) C  18 - H  67          0.00623     0.31227   
  1738. BD*(   1) C  18 - H  68          0.00496     0.32701   
  1739. BD*(   1) C  19 - O  20          0.03402     0.49026   
  1740. BD*(   1) C  19 - O  21          0.02014     0.54542   
  1741. BD*(   2) C  19 - O  21          0.10207    -0.03570  1740(g),1742(v),1733(v)
  1742. BD*(   1) O  20 - H  89          0.00724     0.32234   
  1743. BD*(   1) C  22 - C  23          0.01452     0.43727   
  1744. BD*(   1) C  22 - N  47          0.01368     0.44367   
  1745. BD*(   2) C  22 - N  47          0.32523    -0.09589  1747(v),180(v),1803(v)
                                                    719(g),1367(g),188(v),718(g)
                                                    1371(g),1706(r),171(r)
  1746. BD*(   1) C  23 - C  24          0.01389     0.46262   
  1747. BD*(   2) C  23 - C  24          0.16269    -0.04429  1756(v),1745(v),180(v)
                                                    1753(v),1752(v),771(g)
  1748. BD*(   1) C  23 - C  26          0.00731     0.29162   
  1749. BD*(   1) C  24 - C  25          0.01553     0.45891   
  1750. BD*(   1) C  24 - C  27          0.01168     0.45835   
  1751. BD*(   1) C  25 - N  47          0.01402     0.46219   
  1752. BD*(   1) C  26 - H  69          0.00433     0.32325   
  1753. BD*(   1) C  26 - H  70          0.00441     0.31856   
  1754. BD*(   1) C  26 - H  71          0.00280     0.32758   
  1755. BD*(   1) C  27 - C  28          0.00353     0.42299   
  1756. BD*(   2) C  27 - C  28          0.05041    -0.06037   
  1757. BD*(   1) C  27 - H  72          0.00766     0.37034   
  1758. BD*(   1) C  28 - H  73          0.00348     0.36253   
  1759. BD*(   1) C  28 - H  74          0.00201     0.36769   
  1760. BD*(   1) C  29 - C  30          0.02122     0.42182   
  1761. BD*(   1) C  29 - N  48          0.01411     0.41046   
  1762. BD*(   2) C  29 - N  48          0.35004    -0.11233  1764(v),181(v),187(v),900(g)
                                                    1394(g),406(v),191(r),188(v)
                                                    899(g),1397(g)
  1763. BD*(   1) C  30 - C  31          0.02515     0.42268   
  1764. BD*(   2) C  30 - C  31          0.20413    -0.07709  1772(v),1762(v),181(v)
                                                    191(r),953(g)
  1765. BD*(   1) C  30 - C  33          0.01523     0.23713   
  1766. BD*(   1) C  31 - C  32          0.01786     0.43567   
  1767. BD*(   1) C  31 - C  34          0.01203     0.44293   
  1768. BD*(   1) C  32 - N  48          0.01333     0.44472   
  1769. BD*(   1) C  33 - H  75          0.02227     0.27930   
  1770. BD*(   1) C  33 - H  77          0.02580     0.25078   
  1771. BD*(   1) C  34 - C  35          0.00371     0.37138   
  1772. BD*(   2) C  34 - C  35          0.06334    -0.09478   
  1773. BD*(   1) C  34 - H  78          0.00922     0.35376   
  1774. BD*(   1) C  35 - H  79          0.00303     0.34267   
  1775. BD*(   1) C  35 - H  80          0.00607     0.34790   
  1776. BD*(   1) C  36 - C  37          0.01585     0.46841   
  1777. BD*(   1) C  36 - N  49          0.01370     0.44619   
  1778. BD*(   1) C  37 - C  38          0.01131     0.46647   
  1779. BD*(   2) C  37 - C  38          0.13362    -0.04165  1719(v),1784(v),1788(v)
                                                    1786(v),1785(v)
  1780. BD*(   1) C  37 - C  40          0.00817     0.29814   
  1781. BD*(   1) C  38 - C  39          0.01597     0.45377   
  1782. BD*(   1) C  38 - C  41          0.01164     0.28774   
  1783. BD*(   1) C  39 - N  49          0.01349     0.45851   
  1784. BD*(   2) C  39 - N  49          0.32463    -0.09323  1719(v),1779(v),1723(r)
                                                    1161(g),1802(v),1803(v)
                                                    353(v),1420(g),1424(g)
                                                    1707(r)
  1785. BD*(   1) C  40 - H  81          0.00359     0.31803   
  1786. BD*(   1) C  40 - H  82          0.00431     0.31459   
  1787. BD*(   1) C  40 - H  83          0.00249     0.32286   
  1788. BD*(   1) C  41 - C  42          0.00891     0.27417   
  1789. BD*(   1) C  41 - H  84          0.00583     0.32181   
  1790. BD*(   1) C  41 - H  85          0.00635     0.32022   
  1791. BD*(   1) C  42 - C  43          0.04280     0.28386   
  1792. BD*(   1) C  42 - H  86          0.00504     0.32683   
  1793. BD*(   1) C  42 - H  87          0.00554     0.30829   
  1794. BD*(   1) C  43 - O  44          0.01976     0.56273   
  1795. BD*(   2) C  43 - O  44          0.08659    -0.04413   
  1796. BD*(   1) C  43 - O  45          0.03593     0.49658   
  1797. BD*(   1) O  45 - H  90          0.00748     0.30854   
  1798. BD*(   1) N  46 -Fe  50          0.04677     0.21899   
  1799. BD*(   1) N  47 -Fe  50          0.04265     0.21208   
  1800. BD*(   1) N  48 -Fe  50          0.04260     0.21735   
  1801. BD*(   1) N  49 -Fe  50          0.03477     0.21951   
  1802. BD*(   1)Fe  50 - O  51          0.05733     0.04523   
  1803. BD*(   2)Fe  50 - O  51          0.06203    -0.07825   
  1804. BD*(   1) O  51 - H  88          0.00284     0.38938   
       -------------------------------
              Total Lewis  157.98500  ( 97.0612%)
        Valence non-Lewis    4.47551  (  2.7496%)
        Rydberg non-Lewis    0.30796  (  0.1892%)
       -------------------------------
            Total unit  2  162.76848  (100.0000%)
           Charge unit  2    2.23152

 Molecular unit  3  (H)
   191. LP*(   1) H  76                  0.28343    -0.05501  1770(r),1618(g),1769(r)
                                                    1765(r),1764(r),1760(r)
                                                    1008(r),1621(g),1619(g)
                                                    1003(r),1004(r),1772(r)
                                                    1762(r),1005(r),1017(r)
                                                    1766(r),1018(r),1014(r)
                                                    1006(r),1775(r),1716(r)
                                                    1016(r),1773(r),1012(r)
                                                    953(r),1011(r),899(r),951(r)
                                                    1019(r),1021(r),928(r)
                                                    1015(r),1026(r),929(r)
                                                    1020(r),1613(r),1024(r)
                                                    1714(r),181(r),1030(r)
                                                    1626(r),1715(r)
  1618. RY*(   1) H  76                  0.00182     0.95795   
  1619. RY*(   2) H  76                  0.00024     2.01084   
  1620. RY*(   3) H  76                  0.00008     2.52159   
  1621. RY*(   4) H  76                  0.00004     1.74315   
  1622. RY*(   5) H  76                  0.00001     2.93986   
       -------------------------------
              Total Lewis    0.00000  (  0.0000%)
        Valence non-Lewis    0.28343  ( 99.2300%)
        Rydberg non-Lewis    0.00220  (  0.7700%)
       -------------------------------
            Total unit  3    0.28563  (100.0000%)
           Charge unit  3    0.21437
 1\1\GINC-NODE637\SP\UPBE1PBE\def2TZVP\C38H40Fe1N6O5(1+,6)\KLEICH\01-Oc
 t-2022\0\\# PBE1PBE/def2TZVP empiricaldispersion=GD3BJ int=(grid=ultra
 fine) geom=check pop=nbo\\1ccc_III_H\\1,6\C,0,-9.179,55.032,107.752\C,
 0,-8.656,55.674,109.047\N,0,-9.337,56.251,110.028\C,0,-7.346,55.781,10
 9.43\C,0,-8.517,56.656,110.967\N,0,-7.296,56.371,110.601\H,0,-10.269,5
 6.52,109.992\C,0,-5.551,53.892,112.957\C,0,-7.582,57.995,114.479\C,0,-
 6.051,60.051,110.455\C,0,-3.606,56.143,109.236\C,0,-6.256,54.818,113.7
 41\C,0,-6.747,54.522,114.978\C,0,-7.371,55.7,115.428\C,0,-7.164,56.651
 ,114.442\C,0,-8.086,55.956,116.762\C,0,-6.553,53.157,115.632\C,0,-5.47
 6,53.072,116.681\C,0,-5.338,51.676,117.3\O,0,-6.184,51.244,118.071\O,0
 ,-4.374,50.963,117.069\C,0,-7.439,58.947,113.445\C,0,-8.009,60.231,113
 .431\C,0,-7.608,60.79,112.216\C,0,-6.791,59.833,111.615\C,0,-8.955,60.
 766,114.492\C,0,-7.873,62.019,111.592\C,0,-8.696,63.097,112.034\C,0,-5
 .174,59.214,109.761\C,0,-4.391,59.621,108.681\C,0,-3.586,58.503,108.41
 6\C,0,-4.037,57.471,109.254\C,0,-4.411,61.018,108.022\C,0,-2.583,58.32
 1,107.461\C,0,-2.38,59.068,106.226\C,0,-3.969,55.112,110.1\C,0,-3.707,
 53.769,109.892\C,0,-4.284,53.11,110.969\C,0,-4.859,54.103,111.761\C,0,
 -2.951,53.119,108.756\C,0,-4.239,51.602,111.251\C,0,-3.022,51.189,112.
 088\C,0,-3.017,49.736,112.53\O,0,-2.521,49.411,113.591\O,0,-3.525,48.9
 03,111.799\N,0,-6.505,56.102,113.416\N,0,-6.791,58.703,112.305\N,0,-4.
 982,57.915,110.076\N,0,-4.679,55.3,111.215\Fe,0,-5.764,57.006,111.726\
 O,0,-4.379,57.565,112.833\H,0,-8.35221418,54.70205231,107.15831681\H,0
 ,-9.74843124,55.75169565,107.20183071\H,0,-9.80042008,54.19534946,107.
 99439011\H,0,-6.50222091,55.43985069,108.86736868\H,0,-8.80002549,57.1
 3850381,111.87913302\H,0,-6.46626491,56.56837267,111.1230955\H,0,-5.54
 191748,52.88729231,113.32494017\H,0,-8.0546801,58.32828693,115.3792185
 \H,0,-6.17518396,61.02216626,110.02335843\H,0,-2.91158813,55.88546597,
 108.46375109\H,0,-8.06544698,57.00282325,116.98254174\H,0,-9.10146998,
 55.62624303,116.69142337\H,0,-7.58947722,55.41737975,117.54190599\H,0,
 -6.23223956,52.50842686,114.84373252\H,0,-7.46833274,52.95825756,116.1
 4926919\H,0,-5.78874862,53.71625337,117.47600056\H,0,-4.55408588,53.25
 983125,116.17139842\H,0,-8.59840514,61.71152394,114.84374506\H,0,-9.93
 123472,60.88714947,114.07106227\H,0,-9.00180482,60.07622713,115.308653
 35\H,0,-7.38829785,62.16872181,110.64990276\H,0,-9.21573368,63.0257693
 8,112.96657874\H,0,-8.79360744,63.97684997,111.4329702\H,0,-4.24617281
 ,61.32907016,107.01157071\H,0,-3.36917314,60.79140974,107.93170244\H,0
 ,-5.2741464,60.58800982,107.55833337\H,0,-1.87950984,57.53968958,107.6
 5988598\H,0,-1.39199029,59.47865043,106.21584894\H,0,-3.09632064,59.86
 063763,106.16675208\H,0,-2.27070695,52.39293861,109.14961938\H,0,-3.64
 273715,52.63865513,108.0959481\H,0,-2.40436718,53.86525723,108.2182336
 \H,0,-4.11918378,51.12654952,110.29995273\H,0,-5.09797137,51.3875604,1
 11.85190253\H,0,-3.08266803,51.76404687,112.98830022\H,0,-2.17690898,5
 1.296339,111.44054381\H,0,-3.70734244,58.00580102,112.30748066\H,0,-5.
 91534555,50.79349188,118.87503185\H,0,-2.9692385,48.31464982,111.28269
 27\\Version=ES64L-G16RevA.03\State=6-A\HF=-3437.8775912\S2=8.790059\S2
 -1=0.\S2A=8.750426\RMSD=2.450e-09\Dipole=-4.5367323,0.8520065,-3.63419
 28\Quadrupole=-0.3254048,-16.7800687,17.1054734,-4.6768063,-13.7177442
 ,8.5484923\PG=C01 [X(C38H40Fe1N6O5)]\\@


 THE MORE ACCURATE THE CALCULATIONS BECOME, THE MORE THE CONCEPTS
 TEND TO VANISH INTO THIN AIR.
     -- R.S. MULLIKEN, J.C.P. 43,S2(1965)
 Job cpu time:       3 days  5 hours 57 minutes 45.4 seconds.
 Elapsed time:       0 days 19 hours 32 minutes 37.8 seconds.
 File lengths (MBytes):  RWF=   2989 Int=      0 D2E=      0 Chk=    252 Scr=      1
 Normal termination of Gaussian 16 at Sat Oct  1 06:12:08 2022.
