 Initial command:
 /afs/math/software/gaussian/g16.A03/g16/l1.exe "/scratch/kleich_gaussian.LfSUdnS/Gau-21824.inp" -scrdir="/scratch/kleich_gaussian.LfSUdnS/"
 Entering Link 1 = /afs/math/software/gaussian/g16.A03/g16/l1.exe PID=     25512.
  
 Copyright (c) 1988,1990,1992,1993,1995,1998,2003,2009,2016,
            Gaussian, Inc.  All Rights Reserved.
  
 This is part of the Gaussian(R) 16 program.  It is based on
 the Gaussian(R) 09 system (copyright 2009, Gaussian, Inc.),
 the Gaussian(R) 03 system (copyright 2003, Gaussian, Inc.),
 the Gaussian(R) 98 system (copyright 1998, Gaussian, Inc.),
 the Gaussian(R) 94 system (copyright 1995, Gaussian, Inc.),
 the Gaussian 92(TM) system (copyright 1992, Gaussian, Inc.),
 the Gaussian 90(TM) system (copyright 1990, Gaussian, Inc.),
 the Gaussian 88(TM) system (copyright 1988, Gaussian, Inc.),
 the Gaussian 86(TM) system (copyright 1986, Carnegie Mellon
 University), and the Gaussian 82(TM) system (copyright 1983,
 Carnegie Mellon University). Gaussian is a federally registered
 trademark of Gaussian, Inc.
  
 This software contains proprietary and confidential information,
 including trade secrets, belonging to Gaussian, Inc.
  
 This software is provided under written license and may be
 used, copied, transmitted, or stored only in accord with that
 written license.
  
 The following legend is applicable only to US Government
 contracts under FAR:
  
                    RESTRICTED RIGHTS LEGEND
  
 Use, reproduction and disclosure by the US Government is
 subject to restrictions as set forth in subparagraphs (a)
 and (c) of the Commercial Computer Software - Restricted
 Rights clause in FAR 52.227-19.
  
 Gaussian, Inc.
 340 Quinnipiac St., Bldg. 40, Wallingford CT 06492
  
  
 ---------------------------------------------------------------
 Warning -- This program may not be used in any manner that
 competes with the business of Gaussian, Inc. or will provide
 assistance to any competitor of Gaussian, Inc.  The licensee
 of this program is prohibited from giving any competitor of
 Gaussian, Inc. access to this program.  By using this program,
 the user acknowledges that Gaussian, Inc. is engaged in the
 business of creating and licensing software in the field of
 computational chemistry and represents and warrants to the
 licensee that it is not a competitor of Gaussian, Inc. and that
 it will not use this program in any manner prohibited above.
 ---------------------------------------------------------------
  

 Cite this work as:
 Gaussian 16, Revision A.03,
 M. J. Frisch, G. W. Trucks, H. B. Schlegel, G. E. Scuseria, 
 M. A. Robb, J. R. Cheeseman, G. Scalmani, V. Barone, 
 G. A. Petersson, H. Nakatsuji, X. Li, M. Caricato, A. V. Marenich, 
 J. Bloino, B. G. Janesko, R. Gomperts, B. Mennucci, H. P. Hratchian, 
 J. V. Ortiz, A. F. Izmaylov, J. L. Sonnenberg, D. Williams-Young, 
 F. Ding, F. Lipparini, F. Egidi, J. Goings, B. Peng, A. Petrone, 
 T. Henderson, D. Ranasinghe, V. G. Zakrzewski, J. Gao, N. Rega, 
 G. Zheng, W. Liang, M. Hada, M. Ehara, K. Toyota, R. Fukuda, 
 J. Hasegawa, M. Ishida, T. Nakajima, Y. Honda, O. Kitao, H. Nakai, 
 T. Vreven, K. Throssell, J. A. Montgomery, Jr., J. E. Peralta, 
 F. Ogliaro, M. J. Bearpark, J. J. Heyd, E. N. Brothers, K. N. Kudin, 
 V. N. Staroverov, T. A. Keith, R. Kobayashi, J. Normand, 
 K. Raghavachari, A. P. Rendell, J. C. Burant, S. S. Iyengar, 
 J. Tomasi, M. Cossi, J. M. Millam, M. Klene, C. Adamo, R. Cammi, 
 J. W. Ochterski, R. L. Martin, K. Morokuma, O. Farkas, 
 J. B. Foresman, and D. J. Fox, Gaussian, Inc., Wallingford CT, 2016.
 
 ******************************************
 Gaussian 16:  ES64L-G16RevA.03 25-Dec-2016
                21-Sep-2022 
 ******************************************
 %nprocs=12
 Will use up to   12 processors via shared memory.
 %mem=16GB
 %chk=1ccc_III_D.chk
 ----------------------------------------------------------------------
 # PBE1PBE/def2TZVP empiricaldispersion=GD3BJ int=(grid=ultrafine) geom
 =check guess=read scrf=(smd,solvent=Chloroform)
 ----------------------------------------------------------------------
 1/29=2,38=1,172=1/1;
 2/12=2,40=1/2;
 3/5=44,7=101,11=2,14=-4,25=1,30=1,70=32201,72=7,74=-13,75=-5,116=-2,124=41/1,2,3;
 4/5=1/1;
 5/5=2,38=6,53=7/2;
 6/7=2,8=2,9=2,10=2,28=1/1;
 99/5=1,9=1/99;
 ---------------
 1ccc_III_D_solv
 ---------------
 Structure from the checkpoint file:  "1ccc_III_D.chk"
 Charge =  1 Multiplicity = 2
 Z-Matrix found in chk file.
 C,0,-9.179,55.032,107.752
 C,0,-8.656,55.674,109.047
 N,0,-9.337,56.251,110.028
 C,0,-7.346,55.781,109.43
 C,0,-8.517,56.656,110.967
 N,0,-7.296,56.371,110.601
 H,0,-10.269,56.52,109.992
 C,0,-5.551,53.892,112.957
 C,0,-7.582,57.995,114.479
 C,0,-6.051,60.051,110.455
 C,0,-3.606,56.143,109.236
 C,0,-6.256,54.818,113.741
 C,0,-6.747,54.522,114.978
 C,0,-7.371,55.7,115.428
 C,0,-7.164,56.651,114.442
 C,0,-8.086,55.956,116.762
 C,0,-6.553,53.157,115.632
 C,0,-5.476,53.072,116.681
 C,0,-5.338,51.676,117.3
 O,0,-6.184,51.244,118.071
 O,0,-4.374,50.963,117.069
 C,0,-7.439,58.947,113.445
 C,0,-8.009,60.231,113.431
 C,0,-7.608,60.79,112.216
 C,0,-6.791,59.833,111.615
 C,0,-8.955,60.766,114.492
 C,0,-7.873,62.019,111.592
 C,0,-8.696,63.097,112.034
 C,0,-5.174,59.214,109.761
 C,0,-4.391,59.621,108.681
 C,0,-3.586,58.503,108.416
 C,0,-4.037,57.471,109.254
 C,0,-4.411,61.018,108.022
 C,0,-2.583,58.321,107.461
 C,0,-2.38,59.068,106.226
 C,0,-3.969,55.112,110.1
 C,0,-3.707,53.769,109.892
 C,0,-4.284,53.11,110.969
 C,0,-4.859,54.103,111.761
 C,0,-2.951,53.119,108.756
 C,0,-4.239,51.602,111.251
 C,0,-3.022,51.189,112.088
 C,0,-3.017,49.736,112.53
 O,0,-2.521,49.411,113.591
 O,0,-3.525,48.903,111.799
 N,0,-6.505,56.102,113.416
 N,0,-6.791,58.703,112.305
 N,0,-4.982,57.915,110.076
 N,0,-4.679,55.3,111.215
 Fe,0,-5.764,57.006,111.726
 O,0,-4.379,57.565,112.833
 H,0,-8.35221418,54.70205231,107.15831681
 H,0,-9.74843124,55.75169565,107.20183071
 H,0,-9.80042008,54.19534946,107.99439011
 H,0,-6.50222091,55.43985069,108.86736868
 H,0,-8.80002549,57.13850381,111.87913302
 H,0,-6.46626491,56.56837267,111.1230955
 H,0,-5.54191748,52.88729231,113.32494017
 H,0,-8.0546801,58.32828693,115.3792185
 H,0,-6.17518396,61.02216626,110.02335843
 H,0,-2.91158813,55.88546597,108.46375109
 H,0,-8.06544698,57.00282325,116.98254174
 H,0,-9.10146998,55.62624303,116.69142337
 H,0,-7.58947722,55.41737975,117.54190599
 H,0,-6.23223956,52.50842686,114.84373252
 H,0,-7.46833274,52.95825756,116.14926919
 H,0,-5.78874862,53.71625337,117.47600056
 H,0,-4.55408588,53.25983125,116.17139842
 H,0,-8.59840514,61.71152394,114.84374506
 H,0,-9.93123472,60.88714947,114.07106227
 H,0,-9.00180482,60.07622713,115.30865335
 H,0,-7.38829785,62.16872181,110.64990276
 H,0,-9.21573368,63.02576938,112.96657874
 H,0,-8.79360744,63.97684997,111.4329702
 H,0,-4.24617281,61.32907016,107.01157071
 H,0,-3.36917314,60.79140974,107.93170244
 H,0,-5.2741464,60.58800982,107.55833337
 H,0,-1.87950984,57.53968958,107.65988598
 H,0,-1.39199029,59.47865043,106.21584894
 H,0,-3.09632064,59.86063763,106.16675208
 H,0,-2.27070695,52.39293861,109.14961938
 H,0,-3.64273715,52.63865513,108.0959481
 H,0,-2.40436718,53.86525723,108.2182336
 H,0,-4.11918378,51.12654952,110.29995273
 H,0,-5.09797137,51.3875604,111.85190253
 H,0,-3.08266803,51.76404687,112.98830022
 H,0,-2.17690898,51.296339,111.44054381
 H,0,-3.70734244,58.00580102,112.30748066
 H,0,-5.91534555,50.79349188,118.87503185
 H,0,-2.9692385,48.31464982,111.2826927
 Recover connectivity data from disk.
 Center=     -5.85324016     56.16773611    111.77333763
 Residue   0                        charge    0.00000000 layers R        AvRTP=      7.52713996    282.04284757     63.95049946
 Residue   4                        charge    0.00000000 layers R        AvRTP=      0.00000000      0.00000000      0.00000000
 Residue   2 PDB Number   295_A HEM charge    0.00000000 layers R        AvRTP=      0.52842070     26.93410448     53.75405076
 Residue   3 PDB Number   313_A HOH charge    0.00000000 layers R        AvRTP=      2.55504239     41.78726127     71.82658372
 Residue   1 PDB Number   175_A HIS charge    0.00000000 layers R        AvRTP=      3.56400997    186.84021222    132.01665650
 Stoichiometry    C38H40FeN6O5(1+,2)
 Framework group  C1[X(C38H40FeN6O5)]
 Deg. of freedom   264
 Full point group                 C1      NOp   1
 Largest Abelian subgroup         C1      NOp   1
 Largest concise Abelian subgroup C1      NOp   1
                         Standard orientation:                         
 ---------------------------------------------------------------------
 Center     Atomic      Atomic             Coordinates (Angstroms)
 Number     Number       Type             X           Y           Z
 ---------------------------------------------------------------------
      1          6           0       -1.547530   -1.837054    4.949256
      2          6           0       -1.462943   -0.893093    3.739090
      3          7           0       -1.679353    0.414183    3.682111
      4          6           0       -1.149798   -1.245063    2.453674
      5          6           0       -1.482546    0.849800    2.461598
      6          7           0       -1.160336   -0.166263    1.706734
      7          1           0       -2.105947    0.950743    4.369426
      8          6           0        2.365700    0.117175    0.214107
      9          6           0       -0.987526    3.552141   -0.268529
     10          6           0       -4.245136    0.086681   -0.645663
     11          6           0       -0.857484   -3.268428   -0.704938
     12          6           0        1.751825    1.376080    0.127651
     13          6           0        2.452341    2.545737    0.134488
     14          6           0        1.487584    3.563920    0.024458
     15          6           0        0.262684    2.927896   -0.096125
     16          6           0        1.699946    5.083216   -0.029930
     17          6           0        3.975586    2.588636    0.214874
     18          6           0        4.700572    2.840813   -1.080640
     19          6           0        6.225813    2.876431   -0.927693
     20          8           0        6.780855    3.820675   -0.382614
     21          8           0        6.936509    1.984812   -1.364673
     22          6           0       -2.245782    2.911520   -0.316536
     23          6           0       -3.493064    3.558074   -0.319238
     24          6           0       -4.433426    2.526747   -0.359110
     25          6           0       -3.692890    1.347268   -0.429632
     26          6           0       -3.687338    5.057385   -0.173680
     27          6           0       -5.836771    2.507417   -0.342000
     28          6           0       -6.753546    3.596043   -0.246116
     29          6           0       -3.639398   -1.165648   -0.772504
     30          6           0       -4.316472   -2.331932   -1.128158
     31          6           0       -3.291824   -3.280040   -1.267304
     32          6           0       -2.104107   -2.657063   -0.852700
     33          6           0       -5.837794   -2.461509   -1.362844
     34          6           0       -3.353638   -4.625829   -1.636344
     35          6           0       -4.505618   -5.516625   -1.574151
     36          6           0        0.356856   -2.670600   -0.374476
     37          6           0        1.503889   -3.349832   -0.002299
     38          6           0        2.440799   -2.364601    0.278161
     39          6           0        1.795289   -1.149020    0.055414
     40          6           0        1.732368   -4.841441    0.083919
     41          6           0        3.903353   -2.581971    0.689622
     42          6           0        4.853533   -2.665186   -0.511402
     43          6           0        6.328586   -2.717643   -0.153539
     44          8           0        7.162869   -2.216921   -0.881969
     45          8           0        6.657365   -3.269643    0.882567
     46          7           0        0.430962    1.603852   -0.012781
     47          7           0       -2.398077    1.586678   -0.291281
     48          7           0       -2.320157   -1.375634   -0.575019
     49          7           0        0.536421   -1.348815   -0.316954
     50         26           0       -0.954770    0.108135   -0.267683
     51          8           0       -0.717058    0.424262   -2.084194
     52          1           0       -1.356462   -2.841069    4.632480
     53          1           0       -2.525535   -1.778773    5.379383
     54          1           0       -0.819474   -1.548419    5.678313
     55          1           0       -0.932359   -2.236198    2.114157
     56          1           0       -1.570908    1.865962    2.138325
     57          1           0       -0.956802   -0.128542    0.728393
     58          1           0        3.413405    0.127998    0.431125
     59          1           0       -0.984329    4.616968   -0.373570
     60          1           0       -5.311889    0.075917   -0.728263
     61          1           0       -0.831584   -4.326042   -0.865192
     62          1           0        0.872706    5.541280   -0.530680
     63          1           0        1.772419    5.469079    0.965438
     64          1           0        2.602743    5.298323   -0.562459
     65          1           0        4.270881    1.605841    0.517883
     66          1           0        4.202759    3.430541    0.834946
     67          1           0        4.413472    3.823597   -1.391460
     68          1           0        4.487556    1.998563   -1.705251
     69          1           0       -4.306292    5.415759   -0.969521
     70          1           0       -4.156395    5.266792    0.764955
     71          1           0       -2.736189    5.545849   -0.213928
     72          1           0       -6.282743    1.537217   -0.410717
     73          1           0       -6.387568    4.598906   -0.173827
     74          1           0       -7.807208    3.409769   -0.246482
     75          1           0       -6.515196   -3.273287   -1.198397
     76          1           0       -5.482399   -3.145513   -2.104957
     77          1           0       -5.816828   -2.499529   -0.293725
     78          1           0       -2.446765   -5.054033   -2.009334
     79          1           0       -4.689316   -5.930344   -2.543683
     80          1           0       -5.365052   -4.966335   -1.252507
     81          1           0        2.669530   -5.085604   -0.371066
     82          1           0        1.745573   -5.141471    1.110909
     83          1           0        0.943745   -5.353189   -0.427049
     84          1           0        3.938450   -3.541531    1.161759
     85          1           0        4.190727   -1.706918    1.234231
     86          1           0        4.719628   -1.749769   -1.048972
     87          1           0        4.638323   -3.600177   -0.985087
     88          1           0       -1.207105   -0.228570   -2.589433
     89          1           0        7.573708    4.199646   -0.769092
     90          1           0        7.059662   -4.140864    0.855550
 ---------------------------------------------------------------------
 Rotational constants (GHZ):           0.0767057           0.0458410           0.0337690
 Standard basis: def2TZVP (5D, 7F)
 There are  2056 symmetry adapted cartesian basis functions of A   symmetry.
 There are  1804 symmetry adapted basis functions of A   symmetry.
  1804 basis functions,  2921 primitive gaussians,  2056 cartesian basis functions
   188 alpha electrons      187 beta electrons
       nuclear repulsion energy      7641.5492129217 Hartrees.
 NAtoms=   90 NActive=   90 NUniq=   90 SFac= 1.00D+00 NAtFMM=   60 NAOKFM=T Big=T
 Integral buffers will be    131072 words long.
 Raffenetti 2 integral format.
 Two-electron integral symmetry is turned on.
 Nuclear repulsion after empirical dispersion term =     7641.4223718964 Hartrees.
 ------------------------------------------------------------------------------
 Polarizable Continuum Model (PCM)
 =================================
 Model                : PCM.
 Atomic radii         : SMD-Coulomb.
 Polarization charges : Total charges.
 Charge compensation  : None.
 Solution method      : On-the-fly selection.
 Cavity type          : VdW (van der Waals Surface) (Alpha=1.000).
 Cavity algorithm     : GePol (No added spheres)
                        Default sphere list used, NSphG=   90.
                        Lebedev-Laikov grids with approx.  5.0 points / Ang**2.
                        Smoothing algorithm: York/Karplus (Gamma=1.0000).
                        Polarization charges: spherical gaussians, with
                                              point-specific exponents (IZeta= 3).
                        Self-potential: point-specific (ISelfS= 7).
                        Self-field    : sphere-specific E.n sum rule (ISelfD= 2).
 Solvent              : Chloroform, Eps=   4.711300 Eps(inf)=   2.090627
 ------------------------------------------------------------------------------
 ------------------------------------------------------------------------------
 Atomic radii for non-electrostatic terms: SMD-CDS.
 ------------------------------------------------------------------------------
 Nuclear repulsion after PCM non-electrostatic terms =     7641.4039945836 Hartrees.
 One-electron integrals computed using PRISM.
   1 Symmetry operations used in ECPInt.
 ECPInt:  NShTT=  255255 NPrTT=  790653 LenC2=  185510 LenP2D=  373270.
 LDataN:  DoStor=T MaxTD1= 6 Len=  172
 NBasis=  1804 RedAO= T EigKep=  3.00D-06  NBF=  1804
 NBsUse=  1804 1.00D-06 EigRej= -1.00D+00 NBFU=  1804
 Initial guess from the checkpoint file:  "1ccc_III_D.chk"
 B after Tr=    -0.000000    0.000000    0.000000
         Rot=    1.000000   -0.000000    0.000000    0.000000 Ang=   0.00 deg.
 Initial guess <Sx>= 0.0000 <Sy>= 0.0000 <Sz>= 0.5000 <S**2>= 0.8907 S= 0.5680
 Requested convergence on RMS density matrix=1.00D-08 within 128 cycles.
 Requested convergence on MAX density matrix=1.00D-06.
 Requested convergence on             energy=1.00D-06.
 No special actions if energy rises.
 Inv3:  Mode=1 IEnd=   121196208.
 Iteration    1 A*A^-1 deviation from unit magnitude is 1.89D-14 for    776.
 Iteration    1 A*A^-1 deviation from orthogonality  is 8.07D-15 for    778    751.
 Iteration    1 A^-1*A deviation from unit magnitude is 1.29D-14 for    776.
 Iteration    1 A^-1*A deviation from orthogonality  is 3.04D-15 for   6354   6351.
 EnCoef did     3 forward-backward iterations
 Restarting incremental Fock formation.
 Restarting incremental Fock formation.
 Error on total polarization charges =  0.08024
 SCF Done:  E(UPBE1PBE) =  -3438.02707759     A.U. after   52 cycles
            NFock= 52  Conv=0.17D-08     -V/T= 2.0025
 <Sx>= 0.0000 <Sy>= 0.0000 <Sz>= 0.5000 <S**2>= 0.8282 S= 0.5384
 <L.S>= 0.000000000000E+00
 SMD-CDS (non-electrostatic) energy       (kcal/mol) =     -11.53
 (included in total energy above)
 Annihilation of the first spin contaminant:
 S**2 before annihilation     0.8282,   after     0.7527

 **********************************************************************

            Population analysis using the SCF density.

 **********************************************************************

 Orbital symmetries:
 Alpha Orbitals:
       Occupied  (A) (A) (A) (A) (A) (A) (A) (A) (A) (A) (A) (A)
                 (A) (A) (A) (A) (A) (A) (A) (A) (A) (A) (A) (A)
                 (A) (A) (A) (A) (A) (A) (A) (A) (A) (A) (A) (A)
                 (A) (A) (A) (A) (A) (A) (A) (A) (A) (A) (A) (A)
                 (A) (A) (A) (A) (A) (A) (A) (A) (A) (A) (A) (A)
                 (A) (A) (A) (A) (A) (A) (A) (A) (A) (A) (A) (A)
                 (A) (A) (A) (A) (A) (A) (A) (A) (A) (A) (A) (A)
                 (A) (A) (A) (A) (A) (A) (A) (A) (A) (A) (A) (A)
                 (A) (A) (A) (A) (A) (A) (A) (A) (A) (A) (A) (A)
                 (A) (A) (A) (A) (A) (A) (A) (A) (A) (A) (A) (A)
                 (A) (A) (A) (A) (A) (A) (A) (A) (A) (A) (A) (A)
                 (A) (A) (A) (A) (A) (A) (A) (A) (A) (A) (A) (A)
                 (A) (A) (A) (A) (A) (A) (A) (A) (A) (A) (A) (A)
                 (A) (A) (A) (A) (A) (A) (A) (A) (A) (A) (A) (A)
                 (A) (A) (A) (A) (A) (A) (A) (A) (A) (A) (A) (A)
                 (A) (A) (A) (A) (A) (A) (A) (A)
       Virtual   (A) (A) (A) (A) (A) (A) (A) (A) (A) (A) (A) (A)
                 (A) (A) (A) (A) (A) (A) (A) (A) (A) (A) (A) (A)
                 (A) (A) (A) (A) (A) (A) (A) (A) (A) (A) (A) (A)
                 (A) (A) (A) (A) (A) (A) (A) (A) (A) (A) (A) (A)
                 (A) (A) (A) (A) (A) (A) (A) (A) (A) (A) (A) (A)
                 (A) (A) (A) (A) (A) (A) (A) (A) (A) (A) (A) (A)
                 (A) (A) (A) (A) (A) (A) (A) (A) (A) (A) (A) (A)
                 (A) (A) (A) (A) (A) (A) (A) (A) (A) (A) (A) (A)
                 (A) (A) (A) (A) (A) (A) (A) (A) (A) (A) (A) (A)
                 (A) (A) (A) (A) (A) (A) (A) (A) (A) (A) (A) (A)
                 (A) (A) (A) (A) (A) (A) (A) (A) (A) (A) (A) (A)
                 (A) (A) (A) (A) (A) (A) (A) (A) (A) (A) (A) (A)
                 (A) (A) (A) (A) (A) (A) (A) (A) (A) (A) (A) (A)
                 (A) (A) (A) (A) (A) (A) (A) (A) (A) (A) (A) (A)
                 (A) (A) (A) (A) (A) (A) (A) (A) (A) (A) (A) (A)
                 (A) (A) (A) (A) (A) (A) (A) (A) (A) (A) (A) (A)
                 (A) (A) (A) (A) (A) (A) (A) (A) (A) (A) (A) (A)
                 (A) (A) (A) (A) (A) (A) (A) (A) (A) (A) (A) (A)
                 (A) (A) (A) (A) (A) (A) (A) (A) (A) (A) (A) (A)
                 (A) (A) (A) (A) (A) (A) (A) (A) (A) (A) (A) (A)
                 (A) (A) (A) (A) (A) (A) (A) (A) (A) (A) (A) (A)
                 (A) (A) (A) (A) (A) (A) (A) (A) (A) (A) (A) (A)
                 (A) (A) (A) (A) (A) (A) (A) (A) (A) (A) (A) (A)
                 (A) (A) (A) (A) (A) (A) (A) (A) (A) (A) (A) (A)
                 (A) (A) (A) (A) (A) (A) (A) (A) (A) (A) (A) (A)
                 (A) (A) (A) (A) (A) (A) (A) (A) (A) (A) (A) (A)
                 (A) (A) (A) (A) (A) (A) (A) (A) (A) (A) (A) (A)
                 (A) (A) (A) (A) (A) (A) (A) (A) (A) (A) (A) (A)
                 (A) (A) (A) (A) (A) (A) (A) (A) (A) (A) (A) (A)
                 (A) (A) (A) (A) (A) (A) (A) (A) (A) (A) (A) (A)
                 (A) (A) (A) (A) (A) (A) (A) (A) (A) (A) (A) (A)
                 (A) (A) (A) (A) (A) (A) (A) (A) (A) (A) (A) (A)
                 (A) (A) (A) (A) (A) (A) (A) (A) (A) (A) (A) (A)
                 (A) (A) (A) (A) (A) (A) (A) (A) (A) (A) (A) (A)
                 (A) (A) (A) (A) (A) (A) (A) (A) (A) (A) (A) (A)
                 (A) (A) (A) (A) (A) (A) (A) (A) (A) (A) (A) (A)
                 (A) (A) (A) (A) (A) (A) (A) (A) (A) (A) (A) (A)
                 (A) (A) (A) (A) (A) (A) (A) (A) (A) (A) (A) (A)
                 (A) (A) (A) (A) (A) (A) (A) (A) (A) (A) (A) (A)
                 (A) (A) (A) (A) (A) (A) (A) (A) (A) (A) (A) (A)
                 (A) (A) (A) (A) (A) (A) (A) (A) (A) (A) (A) (A)
                 (A) (A) (A) (A) (A) (A) (A) (A) (A) (A) (A) (A)
                 (A) (A) (A) (A) (A) (A) (A) (A) (A) (A) (A) (A)
                 (A) (A) (A) (A) (A) (A) (A) (A) (A) (A) (A) (A)
                 (A) (A) (A) (A) (A) (A) (A) (A) (A) (A) (A) (A)
                 (A) (A) (A) (A) (A) (A) (A) (A) (A) (A) (A) (A)
                 (A) (A) (A) (A) (A) (A) (A) (A) (A) (A) (A) (A)
                 (A) (A) (A) (A) (A) (A) (A) (A) (A) (A) (A) (A)
                 (A) (A) (A) (A) (A) (A) (A) (A) (A) (A) (A) (A)
                 (A) (A) (A) (A) (A) (A) (A) (A) (A) (A) (A) (A)
                 (A) (A) (A) (A) (A) (A) (A) (A) (A) (A) (A) (A)
                 (A) (A) (A) (A) (A) (A) (A) (A) (A) (A) (A) (A)
                 (A) (A) (A) (A) (A) (A) (A) (A) (A) (A) (A) (A)
                 (A) (A) (A) (A) (A) (A) (A) (A) (A) (A) (A) (A)
                 (A) (A) (A) (A) (A) (A) (A) (A) (A) (A) (A) (A)
                 (A) (A) (A) (A) (A) (A) (A) (A) (A) (A) (A) (A)
                 (A) (A) (A) (A) (A) (A) (A) (A) (A) (A) (A) (A)
                 (A) (A) (A) (A) (A) (A) (A) (A) (A) (A) (A) (A)
                 (A) (A) (A) (A) (A) (A) (A) (A) (A) (A) (A) (A)
                 (A) (A) (A) (A) (A) (A) (A) (A) (A) (A) (A) (A)
                 (A) (A) (A) (A) (A) (A) (A) (A) (A) (A) (A) (A)
                 (A) (A) (A) (A) (A) (A) (A) (A) (A) (A) (A) (A)
                 (A) (A) (A) (A) (A) (A) (A) (A) (A) (A) (A) (A)
                 (A) (A) (A) (A) (A) (A) (A) (A) (A) (A) (A) (A)
                 (A) (A) (A) (A) (A) (A) (A) (A) (A) (A) (A) (A)
                 (A) (A) (A) (A) (A) (A) (A) (A) (A) (A) (A) (A)
                 (A) (A) (A) (A) (A) (A) (A) (A) (A) (A) (A) (A)
                 (A) (A) (A) (A) (A) (A) (A) (A) (A) (A) (A) (A)
                 (A) (A) (A) (A) (A) (A) (A) (A) (A) (A) (A) (A)
                 (A) (A) (A) (A) (A) (A) (A) (A) (A) (A) (A) (A)
                 (A) (A) (A) (A) (A) (A) (A) (A) (A) (A) (A) (A)
                 (A) (A) (A) (A) (A) (A) (A) (A) (A) (A) (A) (A)
                 (A) (A) (A) (A) (A) (A) (A) (A) (A) (A) (A) (A)
                 (A) (A) (A) (A) (A) (A) (A) (A) (A) (A) (A) (A)
                 (A) (A) (A) (A) (A) (A) (A) (A) (A) (A) (A) (A)
                 (A) (A) (A) (A) (A) (A) (A) (A) (A) (A) (A) (A)
                 (A) (A) (A) (A) (A) (A) (A) (A) (A) (A) (A) (A)
                 (A) (A) (A) (A) (A) (A) (A) (A) (A) (A) (A) (A)
                 (A) (A) (A) (A) (A) (A) (A) (A) (A) (A) (A) (A)
                 (A) (A) (A) (A) (A) (A) (A) (A) (A) (A) (A) (A)
                 (A) (A) (A) (A) (A) (A) (A) (A) (A) (A) (A) (A)
                 (A) (A) (A) (A) (A) (A) (A) (A) (A) (A) (A) (A)
                 (A) (A) (A) (A) (A) (A) (A) (A) (A) (A) (A) (A)
                 (A) (A) (A) (A) (A) (A) (A) (A) (A) (A) (A) (A)
                 (A) (A) (A) (A) (A) (A) (A) (A) (A) (A) (A) (A)
                 (A) (A) (A) (A) (A) (A) (A) (A) (A) (A) (A) (A)
                 (A) (A) (A) (A) (A) (A) (A) (A) (A) (A) (A) (A)
                 (A) (A) (A) (A) (A) (A) (A) (A) (A) (A) (A) (A)
                 (A) (A) (A) (A) (A) (A) (A) (A) (A) (A) (A) (A)
                 (A) (A) (A) (A) (A) (A) (A) (A) (A) (A) (A) (A)
                 (A) (A) (A) (A) (A) (A) (A) (A) (A) (A) (A) (A)
                 (A) (A) (A) (A) (A) (A) (A) (A) (A) (A) (A) (A)
                 (A) (A) (A) (A) (A) (A) (A) (A) (A) (A) (A) (A)
                 (A) (A) (A) (A) (A) (A) (A) (A) (A) (A) (A) (A)
                 (A) (A) (A) (A) (A) (A) (A) (A) (A) (A) (A) (A)
                 (A) (A) (A) (A) (A) (A) (A) (A) (A) (A) (A) (A)
                 (A) (A) (A) (A) (A) (A) (A) (A) (A) (A) (A) (A)
                 (A) (A) (A) (A) (A) (A) (A) (A) (A) (A) (A) (A)
                 (A) (A) (A) (A) (A) (A) (A) (A) (A) (A) (A) (A)
                 (A) (A) (A) (A) (A) (A) (A) (A) (A) (A) (A) (A)
                 (A) (A) (A) (A) (A) (A) (A) (A) (A) (A) (A) (A)
                 (A) (A) (A) (A) (A) (A) (A) (A) (A) (A) (A) (A)
                 (A) (A) (A) (A) (A) (A) (A) (A) (A) (A) (A) (A)
                 (A) (A) (A) (A) (A) (A) (A) (A) (A) (A) (A) (A)
                 (A) (A) (A) (A) (A) (A) (A) (A) (A) (A) (A) (A)
                 (A) (A) (A) (A) (A) (A) (A) (A) (A) (A) (A) (A)
                 (A) (A) (A) (A) (A) (A) (A) (A) (A) (A) (A) (A)
                 (A) (A) (A) (A) (A) (A) (A) (A) (A) (A) (A) (A)
                 (A) (A) (A) (A) (A) (A) (A) (A) (A) (A) (A) (A)
                 (A) (A) (A) (A) (A) (A) (A) (A) (A) (A) (A) (A)
                 (A) (A) (A) (A) (A) (A) (A) (A) (A) (A) (A) (A)
                 (A) (A) (A) (A) (A) (A) (A) (A) (A) (A) (A) (A)
                 (A) (A) (A) (A) (A) (A) (A) (A) (A) (A) (A) (A)
                 (A) (A) (A) (A) (A) (A) (A) (A) (A) (A) (A) (A)
                 (A) (A) (A) (A) (A) (A) (A) (A) (A) (A) (A) (A)
                 (A) (A) (A) (A) (A) (A) (A) (A) (A) (A) (A) (A)
                 (A) (A) (A) (A) (A) (A) (A) (A) (A) (A) (A) (A)
                 (A) (A) (A) (A) (A) (A) (A) (A) (A) (A) (A) (A)
                 (A) (A) (A) (A) (A) (A) (A) (A) (A) (A) (A) (A)
                 (A) (A) (A) (A) (A) (A) (A) (A) (A) (A) (A) (A)
                 (A) (A) (A) (A) (A) (A) (A) (A) (A) (A) (A) (A)
                 (A) (A) (A) (A) (A) (A) (A) (A) (A) (A) (A) (A)
                 (A) (A) (A) (A) (A) (A) (A) (A) (A) (A) (A) (A)
                 (A) (A) (A) (A) (A) (A) (A) (A) (A) (A) (A) (A)
                 (A) (A) (A) (A) (A) (A) (A) (A) (A) (A) (A) (A)
                 (A) (A) (A) (A) (A) (A) (A) (A) (A) (A) (A) (A)
                 (A) (A) (A) (A) (A) (A) (A) (A) (A) (A) (A) (A)
                 (A) (A) (A) (A) (A) (A) (A) (A) (A) (A) (A) (A)
                 (A) (A) (A) (A) (A) (A) (A) (A) (A) (A) (A) (A)
                 (A) (A) (A) (A) (A) (A) (A) (A) (A) (A) (A) (A)
                 (A) (A) (A) (A) (A) (A) (A) (A) (A) (A) (A) (A)
                 (A) (A) (A) (A) (A) (A) (A) (A) (A) (A) (A) (A)
                 (A) (A) (A) (A) (A) (A) (A) (A) (A) (A) (A) (A)
                 (A) (A) (A) (A) (A) (A) (A) (A) (A) (A) (A) (A)
                 (A) (A) (A) (A) (A) (A) (A) (A)
 Beta  Orbitals:
       Occupied  (A) (A) (A) (A) (A) (A) (A) (A) (A) (A) (A) (A)
                 (A) (A) (A) (A) (A) (A) (A) (A) (A) (A) (A) (A)
                 (A) (A) (A) (A) (A) (A) (A) (A) (A) (A) (A) (A)
                 (A) (A) (A) (A) (A) (A) (A) (A) (A) (A) (A) (A)
                 (A) (A) (A) (A) (A) (A) (A) (A) (A) (A) (A) (A)
                 (A) (A) (A) (A) (A) (A) (A) (A) (A) (A) (A) (A)
                 (A) (A) (A) (A) (A) (A) (A) (A) (A) (A) (A) (A)
                 (A) (A) (A) (A) (A) (A) (A) (A) (A) (A) (A) (A)
                 (A) (A) (A) (A) (A) (A) (A) (A) (A) (A) (A) (A)
                 (A) (A) (A) (A) (A) (A) (A) (A) (A) (A) (A) (A)
                 (A) (A) (A) (A) (A) (A) (A) (A) (A) (A) (A) (A)
                 (A) (A) (A) (A) (A) (A) (A) (A) (A) (A) (A) (A)
                 (A) (A) (A) (A) (A) (A) (A) (A) (A) (A) (A) (A)
                 (A) (A) (A) (A) (A) (A) (A) (A) (A) (A) (A) (A)
                 (A) (A) (A) (A) (A) (A) (A) (A) (A) (A) (A) (A)
                 (A) (A) (A) (A) (A) (A) (A)
       Virtual   (A) (A) (A) (A) (A) (A) (A) (A) (A) (A) (A) (A)
                 (A) (A) (A) (A) (A) (A) (A) (A) (A) (A) (A) (A)
                 (A) (A) (A) (A) (A) (A) (A) (A) (A) (A) (A) (A)
                 (A) (A) (A) (A) (A) (A) (A) (A) (A) (A) (A) (A)
                 (A) (A) (A) (A) (A) (A) (A) (A) (A) (A) (A) (A)
                 (A) (A) (A) (A) (A) (A) (A) (A) (A) (A) (A) (A)
                 (A) (A) (A) (A) (A) (A) (A) (A) (A) (A) (A) (A)
                 (A) (A) (A) (A) (A) (A) (A) (A) (A) (A) (A) (A)
                 (A) (A) (A) (A) (A) (A) (A) (A) (A) (A) (A) (A)
                 (A) (A) (A) (A) (A) (A) (A) (A) (A) (A) (A) (A)
                 (A) (A) (A) (A) (A) (A) (A) (A) (A) (A) (A) (A)
                 (A) (A) (A) (A) (A) (A) (A) (A) (A) (A) (A) (A)
                 (A) (A) (A) (A) (A) (A) (A) (A) (A) (A) (A) (A)
                 (A) (A) (A) (A) (A) (A) (A) (A) (A) (A) (A) (A)
                 (A) (A) (A) (A) (A) (A) (A) (A) (A) (A) (A) (A)
                 (A) (A) (A) (A) (A) (A) (A) (A) (A) (A) (A) (A)
                 (A) (A) (A) (A) (A) (A) (A) (A) (A) (A) (A) (A)
                 (A) (A) (A) (A) (A) (A) (A) (A) (A) (A) (A) (A)
                 (A) (A) (A) (A) (A) (A) (A) (A) (A) (A) (A) (A)
                 (A) (A) (A) (A) (A) (A) (A) (A) (A) (A) (A) (A)
                 (A) (A) (A) (A) (A) (A) (A) (A) (A) (A) (A) (A)
                 (A) (A) (A) (A) (A) (A) (A) (A) (A) (A) (A) (A)
                 (A) (A) (A) (A) (A) (A) (A) (A) (A) (A) (A) (A)
                 (A) (A) (A) (A) (A) (A) (A) (A) (A) (A) (A) (A)
                 (A) (A) (A) (A) (A) (A) (A) (A) (A) (A) (A) (A)
                 (A) (A) (A) (A) (A) (A) (A) (A) (A) (A) (A) (A)
                 (A) (A) (A) (A) (A) (A) (A) (A) (A) (A) (A) (A)
                 (A) (A) (A) (A) (A) (A) (A) (A) (A) (A) (A) (A)
                 (A) (A) (A) (A) (A) (A) (A) (A) (A) (A) (A) (A)
                 (A) (A) (A) (A) (A) (A) (A) (A) (A) (A) (A) (A)
                 (A) (A) (A) (A) (A) (A) (A) (A) (A) (A) (A) (A)
                 (A) (A) (A) (A) (A) (A) (A) (A) (A) (A) (A) (A)
                 (A) (A) (A) (A) (A) (A) (A) (A) (A) (A) (A) (A)
                 (A) (A) (A) (A) (A) (A) (A) (A) (A) (A) (A) (A)
                 (A) (A) (A) (A) (A) (A) (A) (A) (A) (A) (A) (A)
                 (A) (A) (A) (A) (A) (A) (A) (A) (A) (A) (A) (A)
                 (A) (A) (A) (A) (A) (A) (A) (A) (A) (A) (A) (A)
                 (A) (A) (A) (A) (A) (A) (A) (A) (A) (A) (A) (A)
                 (A) (A) (A) (A) (A) (A) (A) (A) (A) (A) (A) (A)
                 (A) (A) (A) (A) (A) (A) (A) (A) (A) (A) (A) (A)
                 (A) (A) (A) (A) (A) (A) (A) (A) (A) (A) (A) (A)
                 (A) (A) (A) (A) (A) (A) (A) (A) (A) (A) (A) (A)
                 (A) (A) (A) (A) (A) (A) (A) (A) (A) (A) (A) (A)
                 (A) (A) (A) (A) (A) (A) (A) (A) (A) (A) (A) (A)
                 (A) (A) (A) (A) (A) (A) (A) (A) (A) (A) (A) (A)
                 (A) (A) (A) (A) (A) (A) (A) (A) (A) (A) (A) (A)
                 (A) (A) (A) (A) (A) (A) (A) (A) (A) (A) (A) (A)
                 (A) (A) (A) (A) (A) (A) (A) (A) (A) (A) (A) (A)
                 (A) (A) (A) (A) (A) (A) (A) (A) (A) (A) (A) (A)
                 (A) (A) (A) (A) (A) (A) (A) (A) (A) (A) (A) (A)
                 (A) (A) (A) (A) (A) (A) (A) (A) (A) (A) (A) (A)
                 (A) (A) (A) (A) (A) (A) (A) (A) (A) (A) (A) (A)
                 (A) (A) (A) (A) (A) (A) (A) (A) (A) (A) (A) (A)
                 (A) (A) (A) (A) (A) (A) (A) (A) (A) (A) (A) (A)
                 (A) (A) (A) (A) (A) (A) (A) (A) (A) (A) (A) (A)
                 (A) (A) (A) (A) (A) (A) (A) (A) (A) (A) (A) (A)
                 (A) (A) (A) (A) (A) (A) (A) (A) (A) (A) (A) (A)
                 (A) (A) (A) (A) (A) (A) (A) (A) (A) (A) (A) (A)
                 (A) (A) (A) (A) (A) (A) (A) (A) (A) (A) (A) (A)
                 (A) (A) (A) (A) (A) (A) (A) (A) (A) (A) (A) (A)
                 (A) (A) (A) (A) (A) (A) (A) (A) (A) (A) (A) (A)
                 (A) (A) (A) (A) (A) (A) (A) (A) (A) (A) (A) (A)
                 (A) (A) (A) (A) (A) (A) (A) (A) (A) (A) (A) (A)
                 (A) (A) (A) (A) (A) (A) (A) (A) (A) (A) (A) (A)
                 (A) (A) (A) (A) (A) (A) (A) (A) (A) (A) (A) (A)
                 (A) (A) (A) (A) (A) (A) (A) (A) (A) (A) (A) (A)
                 (A) (A) (A) (A) (A) (A) (A) (A) (A) (A) (A) (A)
                 (A) (A) (A) (A) (A) (A) (A) (A) (A) (A) (A) (A)
                 (A) (A) (A) (A) (A) (A) (A) (A) (A) (A) (A) (A)
                 (A) (A) (A) (A) (A) (A) (A) (A) (A) (A) (A) (A)
                 (A) (A) (A) (A) (A) (A) (A) (A) (A) (A) (A) (A)
                 (A) (A) (A) (A) (A) (A) (A) (A) (A) (A) (A) (A)
                 (A) (A) (A) (A) (A) (A) (A) (A) (A) (A) (A) (A)
                 (A) (A) (A) (A) (A) (A) (A) (A) (A) (A) (A) (A)
                 (A) (A) (A) (A) (A) (A) (A) (A) (A) (A) (A) (A)
                 (A) (A) (A) (A) (A) (A) (A) (A) (A) (A) (A) (A)
                 (A) (A) (A) (A) (A) (A) (A) (A) (A) (A) (A) (A)
                 (A) (A) (A) (A) (A) (A) (A) (A) (A) (A) (A) (A)
                 (A) (A) (A) (A) (A) (A) (A) (A) (A) (A) (A) (A)
                 (A) (A) (A) (A) (A) (A) (A) (A) (A) (A) (A) (A)
                 (A) (A) (A) (A) (A) (A) (A) (A) (A) (A) (A) (A)
                 (A) (A) (A) (A) (A) (A) (A) (A) (A) (A) (A) (A)
                 (A) (A) (A) (A) (A) (A) (A) (A) (A) (A) (A) (A)
                 (A) (A) (A) (A) (A) (A) (A) (A) (A) (A) (A) (A)
                 (A) (A) (A) (A) (A) (A) (A) (A) (A) (A) (A) (A)
                 (A) (A) (A) (A) (A) (A) (A) (A) (A) (A) (A) (A)
                 (A) (A) (A) (A) (A) (A) (A) (A) (A) (A) (A) (A)
                 (A) (A) (A) (A) (A) (A) (A) (A) (A) (A) (A) (A)
                 (A) (A) (A) (A) (A) (A) (A) (A) (A) (A) (A) (A)
                 (A) (A) (A) (A) (A) (A) (A) (A) (A) (A) (A) (A)
                 (A) (A) (A) (A) (A) (A) (A) (A) (A) (A) (A) (A)
                 (A) (A) (A) (A) (A) (A) (A) (A) (A) (A) (A) (A)
                 (A) (A) (A) (A) (A) (A) (A) (A) (A) (A) (A) (A)
                 (A) (A) (A) (A) (A) (A) (A) (A) (A) (A) (A) (A)
                 (A) (A) (A) (A) (A) (A) (A) (A) (A) (A) (A) (A)
                 (A) (A) (A) (A) (A) (A) (A) (A) (A) (A) (A) (A)
                 (A) (A) (A) (A) (A) (A) (A) (A) (A) (A) (A) (A)
                 (A) (A) (A) (A) (A) (A) (A) (A) (A) (A) (A) (A)
                 (A) (A) (A) (A) (A) (A) (A) (A) (A) (A) (A) (A)
                 (A) (A) (A) (A) (A) (A) (A) (A) (A) (A) (A) (A)
                 (A) (A) (A) (A) (A) (A) (A) (A) (A) (A) (A) (A)
                 (A) (A) (A) (A) (A) (A) (A) (A) (A) (A) (A) (A)
                 (A) (A) (A) (A) (A) (A) (A) (A) (A) (A) (A) (A)
                 (A) (A) (A) (A) (A) (A) (A) (A) (A) (A) (A) (A)
                 (A) (A) (A) (A) (A) (A) (A) (A) (A) (A) (A) (A)
                 (A) (A) (A) (A) (A) (A) (A) (A) (A) (A) (A) (A)
                 (A) (A) (A) (A) (A) (A) (A) (A) (A) (A) (A) (A)
                 (A) (A) (A) (A) (A) (A) (A) (A) (A) (A) (A) (A)
                 (A) (A) (A) (A) (A) (A) (A) (A) (A) (A) (A) (A)
                 (A) (A) (A) (A) (A) (A) (A) (A) (A) (A) (A) (A)
                 (A) (A) (A) (A) (A) (A) (A) (A) (A) (A) (A) (A)
                 (A) (A) (A) (A) (A) (A) (A) (A) (A) (A) (A) (A)
                 (A) (A) (A) (A) (A) (A) (A) (A) (A) (A) (A) (A)
                 (A) (A) (A) (A) (A) (A) (A) (A) (A) (A) (A) (A)
                 (A) (A) (A) (A) (A) (A) (A) (A) (A) (A) (A) (A)
                 (A) (A) (A) (A) (A) (A) (A) (A) (A) (A) (A) (A)
                 (A) (A) (A) (A) (A) (A) (A) (A) (A) (A) (A) (A)
                 (A) (A) (A) (A) (A) (A) (A) (A) (A) (A) (A) (A)
                 (A) (A) (A) (A) (A) (A) (A) (A) (A) (A) (A) (A)
                 (A) (A) (A) (A) (A) (A) (A) (A) (A) (A) (A) (A)
                 (A) (A) (A) (A) (A) (A) (A) (A) (A) (A) (A) (A)
                 (A) (A) (A) (A) (A) (A) (A) (A) (A) (A) (A) (A)
                 (A) (A) (A) (A) (A) (A) (A) (A) (A) (A) (A) (A)
                 (A) (A) (A) (A) (A) (A) (A) (A) (A) (A) (A) (A)
                 (A) (A) (A) (A) (A) (A) (A) (A) (A) (A) (A) (A)
                 (A) (A) (A) (A) (A) (A) (A) (A) (A) (A) (A) (A)
                 (A) (A) (A) (A) (A) (A) (A) (A) (A) (A) (A) (A)
                 (A) (A) (A) (A) (A) (A) (A) (A) (A) (A) (A) (A)
                 (A) (A) (A) (A) (A) (A) (A) (A) (A) (A) (A) (A)
                 (A) (A) (A) (A) (A) (A) (A) (A) (A) (A) (A) (A)
                 (A) (A) (A) (A) (A) (A) (A) (A) (A) (A) (A) (A)
                 (A) (A) (A) (A) (A) (A) (A) (A) (A) (A) (A) (A)
                 (A) (A) (A) (A) (A) (A) (A) (A) (A) (A) (A) (A)
                 (A) (A) (A) (A) (A) (A) (A) (A) (A) (A) (A) (A)
                 (A) (A) (A) (A) (A) (A) (A) (A) (A)
 The electronic state is 2-A.
 Alpha  occ. eigenvalues -- -256.44563 -30.22912 -26.06232 -26.05937 -26.03502
 Alpha  occ. eigenvalues --  -19.25986 -19.25519 -19.18934 -19.18830 -19.18096
 Alpha  occ. eigenvalues --  -14.53587 -14.51037 -14.42898 -14.41856 -14.41485
 Alpha  occ. eigenvalues --  -14.41470 -10.35857 -10.35436 -10.35380 -10.32283
 Alpha  occ. eigenvalues --  -10.31053 -10.30486 -10.29001 -10.28884 -10.28428
 Alpha  occ. eigenvalues --  -10.28056 -10.28038 -10.27980 -10.27918 -10.27700
 Alpha  occ. eigenvalues --  -10.26797 -10.26136 -10.25961 -10.25749 -10.25683
 Alpha  occ. eigenvalues --  -10.25524 -10.25460 -10.25425 -10.25419 -10.25315
 Alpha  occ. eigenvalues --  -10.25091 -10.24972 -10.24923 -10.24789 -10.24243
 Alpha  occ. eigenvalues --  -10.24237 -10.24223 -10.23868 -10.23536 -10.23238
 Alpha  occ. eigenvalues --  -10.23009 -10.22975 -10.22858 -10.21817  -3.61096
 Alpha  occ. eigenvalues --   -2.38238  -2.37123  -2.35654  -1.18945  -1.18880
 Alpha  occ. eigenvalues --   -1.18053  -1.05263  -1.04924  -1.04490  -1.04077
 Alpha  occ. eigenvalues --   -1.03904  -1.03784  -1.02868  -0.97041  -0.88868
 Alpha  occ. eigenvalues --   -0.87936  -0.87464  -0.86421  -0.86120  -0.85967
 Alpha  occ. eigenvalues --   -0.85192  -0.84932  -0.82371  -0.81416  -0.81146
 Alpha  occ. eigenvalues --   -0.80910  -0.79302  -0.78981  -0.77898  -0.77116
 Alpha  occ. eigenvalues --   -0.76863  -0.74959  -0.74581  -0.73313  -0.71363
 Alpha  occ. eigenvalues --   -0.71169  -0.71002  -0.70209  -0.69897  -0.67485
 Alpha  occ. eigenvalues --   -0.66766  -0.66117  -0.65700  -0.65100  -0.62909
 Alpha  occ. eigenvalues --   -0.62845  -0.62632  -0.60058  -0.59277  -0.58388
 Alpha  occ. eigenvalues --   -0.57669  -0.57030  -0.56565  -0.56385  -0.55794
 Alpha  occ. eigenvalues --   -0.54388  -0.53815  -0.53498  -0.52958  -0.52587
 Alpha  occ. eigenvalues --   -0.52521  -0.51997  -0.51938  -0.51777  -0.51208
 Alpha  occ. eigenvalues --   -0.50936  -0.50867  -0.49358  -0.48931  -0.48876
 Alpha  occ. eigenvalues --   -0.48661  -0.48403  -0.47827  -0.47647  -0.47220
 Alpha  occ. eigenvalues --   -0.47084  -0.47031  -0.46713  -0.46432  -0.46329
 Alpha  occ. eigenvalues --   -0.45878  -0.45568  -0.45027  -0.44654  -0.44392
 Alpha  occ. eigenvalues --   -0.44273  -0.44063  -0.43900  -0.43591  -0.43290
 Alpha  occ. eigenvalues --   -0.43036  -0.42757  -0.42574  -0.42254  -0.41646
 Alpha  occ. eigenvalues --   -0.41584  -0.41270  -0.40929  -0.40661  -0.40327
 Alpha  occ. eigenvalues --   -0.40267  -0.39513  -0.39159  -0.38962  -0.38930
 Alpha  occ. eigenvalues --   -0.38662  -0.38325  -0.38160  -0.37285  -0.36885
 Alpha  occ. eigenvalues --   -0.36634  -0.36370  -0.36260  -0.36111  -0.35403
 Alpha  occ. eigenvalues --   -0.34203  -0.33842  -0.33477  -0.33053  -0.32961
 Alpha  occ. eigenvalues --   -0.31673  -0.31107  -0.30508  -0.29340  -0.28667
 Alpha  occ. eigenvalues --   -0.28331  -0.27705  -0.26789  -0.26378  -0.24918
 Alpha  occ. eigenvalues --   -0.23619  -0.22946  -0.22319
 Alpha virt. eigenvalues --   -0.13465  -0.12361  -0.11519  -0.10967  -0.07938
 Alpha virt. eigenvalues --   -0.05232  -0.04738  -0.02580  -0.01910  -0.01207
 Alpha virt. eigenvalues --   -0.00724  -0.00428   0.01056   0.02539   0.02787
 Alpha virt. eigenvalues --    0.03114   0.03164   0.03898   0.04162   0.04453
 Alpha virt. eigenvalues --    0.05070   0.05448   0.05547   0.05673   0.06021
 Alpha virt. eigenvalues --    0.06483   0.06664   0.06926   0.07446   0.07507
 Alpha virt. eigenvalues --    0.07743   0.07818   0.08175   0.08560   0.09247
 Alpha virt. eigenvalues --    0.09333   0.09744   0.10095   0.10237   0.10670
 Alpha virt. eigenvalues --    0.11015   0.11176   0.11294   0.11547   0.11627
 Alpha virt. eigenvalues --    0.11764   0.12000   0.12328   0.12632   0.12759
 Alpha virt. eigenvalues --    0.13078   0.13263   0.13665   0.13852   0.14003
 Alpha virt. eigenvalues --    0.14206   0.14449   0.14553   0.14813   0.15133
 Alpha virt. eigenvalues --    0.15216   0.15257   0.15585   0.15909   0.16071
 Alpha virt. eigenvalues --    0.16341   0.16388   0.16809   0.16955   0.17165
 Alpha virt. eigenvalues --    0.17424   0.17511   0.17712   0.17968   0.18509
 Alpha virt. eigenvalues --    0.18678   0.18873   0.19184   0.19312   0.19439
 Alpha virt. eigenvalues --    0.19582   0.19626   0.20115   0.20521   0.20644
 Alpha virt. eigenvalues --    0.20709   0.20829   0.21058   0.21292   0.21521
 Alpha virt. eigenvalues --    0.21718   0.21763   0.21968   0.22336   0.22385
 Alpha virt. eigenvalues --    0.22605   0.22686   0.22987   0.23071   0.23442
 Alpha virt. eigenvalues --    0.23790   0.23816   0.24202   0.24458   0.24744
 Alpha virt. eigenvalues --    0.24830   0.25042   0.25420   0.25534   0.25623
 Alpha virt. eigenvalues --    0.25772   0.25963   0.26249   0.26538   0.26765
 Alpha virt. eigenvalues --    0.27132   0.27463   0.27536   0.27663   0.27852
 Alpha virt. eigenvalues --    0.28170   0.28212   0.28751   0.28790   0.29049
 Alpha virt. eigenvalues --    0.29312   0.29649   0.29901   0.30138   0.30326
 Alpha virt. eigenvalues --    0.30499   0.30697   0.30814   0.31304   0.31670
 Alpha virt. eigenvalues --    0.31899   0.32201   0.32537   0.32660   0.32792
 Alpha virt. eigenvalues --    0.33169   0.33606   0.33891   0.34161   0.34421
 Alpha virt. eigenvalues --    0.34605   0.34751   0.35139   0.35273   0.35344
 Alpha virt. eigenvalues --    0.35866   0.36137   0.36405   0.36728   0.36905
 Alpha virt. eigenvalues --    0.36991   0.37041   0.37252   0.37351   0.37592
 Alpha virt. eigenvalues --    0.37863   0.37958   0.38256   0.38273   0.38901
 Alpha virt. eigenvalues --    0.39021   0.39061   0.39305   0.39450   0.39500
 Alpha virt. eigenvalues --    0.39664   0.40143   0.40430   0.40548   0.40790
 Alpha virt. eigenvalues --    0.40853   0.40973   0.41209   0.41745   0.41827
 Alpha virt. eigenvalues --    0.41904   0.42101   0.42221   0.42757   0.42884
 Alpha virt. eigenvalues --    0.42999   0.43200   0.43422   0.43469   0.43972
 Alpha virt. eigenvalues --    0.44019   0.44407   0.44554   0.44874   0.45083
 Alpha virt. eigenvalues --    0.45234   0.45271   0.45705   0.45873   0.46043
 Alpha virt. eigenvalues --    0.46148   0.46408   0.46501   0.46630   0.46989
 Alpha virt. eigenvalues --    0.47168   0.47367   0.47450   0.47582   0.47673
 Alpha virt. eigenvalues --    0.47940   0.47963   0.48180   0.48364   0.48660
 Alpha virt. eigenvalues --    0.48972   0.49037   0.49244   0.49565   0.49765
 Alpha virt. eigenvalues --    0.49927   0.50069   0.50425   0.50644   0.50770
 Alpha virt. eigenvalues --    0.50997   0.51184   0.51237   0.51333   0.51770
 Alpha virt. eigenvalues --    0.51973   0.52054   0.52318   0.52468   0.52703
 Alpha virt. eigenvalues --    0.53122   0.53230   0.53355   0.53767   0.53817
 Alpha virt. eigenvalues --    0.54184   0.54550   0.54645   0.54873   0.54945
 Alpha virt. eigenvalues --    0.55184   0.55681   0.55848   0.56104   0.56141
 Alpha virt. eigenvalues --    0.56667   0.56757   0.56782   0.56979   0.57314
 Alpha virt. eigenvalues --    0.57543   0.57669   0.58156   0.58347   0.58498
 Alpha virt. eigenvalues --    0.58894   0.58972   0.59356   0.59680   0.59879
 Alpha virt. eigenvalues --    0.60067   0.60352   0.60451   0.60773   0.61128
 Alpha virt. eigenvalues --    0.61178   0.61411   0.61656   0.61896   0.62217
 Alpha virt. eigenvalues --    0.62455   0.62540   0.63011   0.63048   0.63092
 Alpha virt. eigenvalues --    0.63589   0.63773   0.64237   0.64496   0.64835
 Alpha virt. eigenvalues --    0.65162   0.65398   0.65754   0.65923   0.66291
 Alpha virt. eigenvalues --    0.66463   0.66596   0.66700   0.66882   0.67295
 Alpha virt. eigenvalues --    0.67458   0.67721   0.67771   0.68026   0.68123
 Alpha virt. eigenvalues --    0.68733   0.68877   0.69131   0.69574   0.69795
 Alpha virt. eigenvalues --    0.70009   0.70349   0.70599   0.70742   0.71095
 Alpha virt. eigenvalues --    0.71399   0.71551   0.71840   0.72143   0.72519
 Alpha virt. eigenvalues --    0.73064   0.73091   0.73480   0.73577   0.74051
 Alpha virt. eigenvalues --    0.74470   0.74711   0.74965   0.75108   0.75411
 Alpha virt. eigenvalues --    0.75521   0.75874   0.76162   0.76664   0.77112
 Alpha virt. eigenvalues --    0.77168   0.77895   0.78088   0.78339   0.78994
 Alpha virt. eigenvalues --    0.79099   0.79471   0.79593   0.79697   0.80243
 Alpha virt. eigenvalues --    0.80533   0.80898   0.81223   0.81640   0.81744
 Alpha virt. eigenvalues --    0.81942   0.82587   0.82918   0.82979   0.83123
 Alpha virt. eigenvalues --    0.83344   0.83601   0.83839   0.84554   0.84866
 Alpha virt. eigenvalues --    0.85178   0.85290   0.86000   0.86197   0.86578
 Alpha virt. eigenvalues --    0.86960   0.87154   0.87362   0.87811   0.88083
 Alpha virt. eigenvalues --    0.88450   0.88563   0.88750   0.89428   0.89480
 Alpha virt. eigenvalues --    0.89869   0.90176   0.90521   0.90841   0.91191
 Alpha virt. eigenvalues --    0.91322   0.91650   0.91939   0.92284   0.92656
 Alpha virt. eigenvalues --    0.92898   0.93162   0.93831   0.93944   0.94146
 Alpha virt. eigenvalues --    0.94843   0.95025   0.95357   0.95603   0.96021
 Alpha virt. eigenvalues --    0.96531   0.96839   0.96985   0.97222   0.97345
 Alpha virt. eigenvalues --    0.97757   0.98184   0.98324   0.98751   0.98841
 Alpha virt. eigenvalues --    0.99022   0.99356   0.99889   0.99922   1.00099
 Alpha virt. eigenvalues --    1.00544   1.01017   1.01145   1.01179   1.01492
 Alpha virt. eigenvalues --    1.01833   1.02089   1.02512   1.02869   1.03111
 Alpha virt. eigenvalues --    1.03413   1.03893   1.04165   1.04385   1.04919
 Alpha virt. eigenvalues --    1.05009   1.05344   1.05506   1.05934   1.06238
 Alpha virt. eigenvalues --    1.06811   1.07232   1.07703   1.08223   1.08285
 Alpha virt. eigenvalues --    1.08465   1.08692   1.08968   1.09296   1.09799
 Alpha virt. eigenvalues --    1.10355   1.10559   1.10783   1.11272   1.11477
 Alpha virt. eigenvalues --    1.11713   1.12108   1.12489   1.12803   1.13027
 Alpha virt. eigenvalues --    1.13365   1.13635   1.14111   1.14539   1.14715
 Alpha virt. eigenvalues --    1.15079   1.15178   1.16183   1.16365   1.16633
 Alpha virt. eigenvalues --    1.16893   1.16981   1.17587   1.17835   1.18190
 Alpha virt. eigenvalues --    1.18810   1.19048   1.19434   1.20278   1.20404
 Alpha virt. eigenvalues --    1.20677   1.20914   1.21140   1.21713   1.21844
 Alpha virt. eigenvalues --    1.22119   1.22707   1.23052   1.23618   1.24557
 Alpha virt. eigenvalues --    1.24658   1.25283   1.25413   1.25644   1.26083
 Alpha virt. eigenvalues --    1.26692   1.27238   1.27737   1.28452   1.28771
 Alpha virt. eigenvalues --    1.29097   1.29608   1.29806   1.30391   1.30499
 Alpha virt. eigenvalues --    1.31109   1.31612   1.32099   1.32349   1.32940
 Alpha virt. eigenvalues --    1.33254   1.33669   1.33739   1.34192   1.34372
 Alpha virt. eigenvalues --    1.34743   1.35252   1.35673   1.35795   1.35911
 Alpha virt. eigenvalues --    1.36511   1.37017   1.37419   1.37587   1.38437
 Alpha virt. eigenvalues --    1.38799   1.39041   1.39232   1.39627   1.39831
 Alpha virt. eigenvalues --    1.40306   1.41040   1.41377   1.41765   1.42050
 Alpha virt. eigenvalues --    1.42246   1.42507   1.42753   1.42981   1.43747
 Alpha virt. eigenvalues --    1.44073   1.44514   1.44627   1.44959   1.45576
 Alpha virt. eigenvalues --    1.45838   1.46074   1.46177   1.46511   1.46652
 Alpha virt. eigenvalues --    1.46815   1.47336   1.47821   1.48157   1.48302
 Alpha virt. eigenvalues --    1.48672   1.49003   1.49600   1.49672   1.49881
 Alpha virt. eigenvalues --    1.49946   1.50842   1.51113   1.51337   1.51749
 Alpha virt. eigenvalues --    1.51893   1.52268   1.52670   1.52710   1.53180
 Alpha virt. eigenvalues --    1.53294   1.53523   1.54293   1.54439   1.54917
 Alpha virt. eigenvalues --    1.55457   1.55618   1.55965   1.56187   1.56294
 Alpha virt. eigenvalues --    1.56816   1.56880   1.57079   1.57407   1.57630
 Alpha virt. eigenvalues --    1.57820   1.58147   1.58224   1.58947   1.59255
 Alpha virt. eigenvalues --    1.59543   1.59874   1.59926   1.60063   1.60234
 Alpha virt. eigenvalues --    1.60630   1.60834   1.61100   1.61599   1.61769
 Alpha virt. eigenvalues --    1.61997   1.62354   1.62487   1.63263   1.63537
 Alpha virt. eigenvalues --    1.63664   1.64162   1.64278   1.64668   1.65094
 Alpha virt. eigenvalues --    1.65390   1.65450   1.65567   1.65924   1.66074
 Alpha virt. eigenvalues --    1.66666   1.67010   1.67393   1.67709   1.68332
 Alpha virt. eigenvalues --    1.68511   1.69007   1.69101   1.69373   1.69934
 Alpha virt. eigenvalues --    1.70449   1.70548   1.71198   1.71400   1.71995
 Alpha virt. eigenvalues --    1.72321   1.72442   1.72724   1.72881   1.73184
 Alpha virt. eigenvalues --    1.73354   1.73609   1.74077   1.74359   1.74595
 Alpha virt. eigenvalues --    1.74987   1.75631   1.75995   1.76404   1.76915
 Alpha virt. eigenvalues --    1.77199   1.77451   1.77942   1.78041   1.78481
 Alpha virt. eigenvalues --    1.78560   1.79032   1.79784   1.80123   1.80354
 Alpha virt. eigenvalues --    1.80878   1.80928   1.81239   1.81595   1.81792
 Alpha virt. eigenvalues --    1.82346   1.82916   1.82991   1.83340   1.83846
 Alpha virt. eigenvalues --    1.84163   1.84365   1.84769   1.85389   1.85791
 Alpha virt. eigenvalues --    1.86120   1.86737   1.87119   1.87452   1.87877
 Alpha virt. eigenvalues --    1.88369   1.88666   1.88985   1.89258   1.89712
 Alpha virt. eigenvalues --    1.90220   1.90600   1.90905   1.91315   1.92075
 Alpha virt. eigenvalues --    1.92152   1.92976   1.93077   1.93274   1.93656
 Alpha virt. eigenvalues --    1.93857   1.93997   1.94247   1.94698   1.95008
 Alpha virt. eigenvalues --    1.95449   1.95902   1.96232   1.96767   1.97119
 Alpha virt. eigenvalues --    1.97363   1.97610   1.97927   1.98287   1.98782
 Alpha virt. eigenvalues --    1.99474   1.99631   1.99790   2.00369   2.00613
 Alpha virt. eigenvalues --    2.01148   2.01235   2.01614   2.01690   2.02379
 Alpha virt. eigenvalues --    2.03284   2.03789   2.04229   2.04352   2.04965
 Alpha virt. eigenvalues --    2.04992   2.05446   2.06007   2.06418   2.06687
 Alpha virt. eigenvalues --    2.06859   2.07311   2.07808   2.08579   2.08646
 Alpha virt. eigenvalues --    2.09172   2.09534   2.09953   2.10441   2.10870
 Alpha virt. eigenvalues --    2.10962   2.11157   2.11512   2.11608   2.12256
 Alpha virt. eigenvalues --    2.12751   2.12923   2.13570   2.13791   2.14242
 Alpha virt. eigenvalues --    2.14506   2.14778   2.15225   2.15409   2.16088
 Alpha virt. eigenvalues --    2.16606   2.16871   2.16962   2.17489   2.17761
 Alpha virt. eigenvalues --    2.17810   2.18198   2.18681   2.19396   2.19522
 Alpha virt. eigenvalues --    2.19934   2.20676   2.20831   2.21222   2.21506
 Alpha virt. eigenvalues --    2.21935   2.22328   2.22957   2.23121   2.24066
 Alpha virt. eigenvalues --    2.24403   2.25049   2.25165   2.25540   2.25970
 Alpha virt. eigenvalues --    2.26384   2.26940   2.27292   2.27700   2.27971
 Alpha virt. eigenvalues --    2.28452   2.28941   2.29424   2.30043   2.30461
 Alpha virt. eigenvalues --    2.30529   2.31176   2.31596   2.31680   2.31922
 Alpha virt. eigenvalues --    2.32176   2.32593   2.33561   2.33974   2.34302
 Alpha virt. eigenvalues --    2.34509   2.35252   2.35531   2.35752   2.35978
 Alpha virt. eigenvalues --    2.36694   2.37020   2.37177   2.37596   2.37857
 Alpha virt. eigenvalues --    2.38086   2.38667   2.39102   2.39515   2.39878
 Alpha virt. eigenvalues --    2.40232   2.40735   2.41316   2.41404   2.42071
 Alpha virt. eigenvalues --    2.42192   2.42305   2.43076   2.43439   2.43896
 Alpha virt. eigenvalues --    2.44295   2.44587   2.45178   2.45728   2.46059
 Alpha virt. eigenvalues --    2.46664   2.46872   2.47223   2.47700   2.47897
 Alpha virt. eigenvalues --    2.48543   2.48770   2.49085   2.49399   2.50080
 Alpha virt. eigenvalues --    2.50831   2.51261   2.51749   2.51964   2.52377
 Alpha virt. eigenvalues --    2.52597   2.53182   2.53253   2.53812   2.54183
 Alpha virt. eigenvalues --    2.54416   2.54643   2.54819   2.55227   2.55627
 Alpha virt. eigenvalues --    2.55666   2.55931   2.56229   2.56926   2.57109
 Alpha virt. eigenvalues --    2.57592   2.57665   2.58181   2.58344   2.58640
 Alpha virt. eigenvalues --    2.59071   2.59234   2.59289   2.59714   2.60442
 Alpha virt. eigenvalues --    2.60608   2.60708   2.61196   2.61514   2.61818
 Alpha virt. eigenvalues --    2.62508   2.62738   2.63055   2.63268   2.63607
 Alpha virt. eigenvalues --    2.64345   2.64556   2.64941   2.65355   2.65730
 Alpha virt. eigenvalues --    2.66025   2.66320   2.66503   2.66846   2.67144
 Alpha virt. eigenvalues --    2.67507   2.67807   2.68350   2.68919   2.69031
 Alpha virt. eigenvalues --    2.69419   2.69512   2.69932   2.70198   2.70689
 Alpha virt. eigenvalues --    2.71125   2.71405   2.71866   2.72071   2.72625
 Alpha virt. eigenvalues --    2.72750   2.72854   2.73156   2.73826   2.74344
 Alpha virt. eigenvalues --    2.74701   2.74835   2.74910   2.75401   2.75571
 Alpha virt. eigenvalues --    2.75734   2.76798   2.76964   2.77264   2.77564
 Alpha virt. eigenvalues --    2.77909   2.78566   2.79026   2.79611   2.79903
 Alpha virt. eigenvalues --    2.80241   2.80570   2.80714   2.81067   2.81668
 Alpha virt. eigenvalues --    2.81882   2.82252   2.82564   2.82934   2.83473
 Alpha virt. eigenvalues --    2.83558   2.83793   2.84872   2.84994   2.85339
 Alpha virt. eigenvalues --    2.85928   2.86079   2.86405   2.86644   2.87156
 Alpha virt. eigenvalues --    2.87458   2.87879   2.88130   2.88496   2.88917
 Alpha virt. eigenvalues --    2.89082   2.89512   2.90177   2.90217   2.90504
 Alpha virt. eigenvalues --    2.90639   2.91197   2.91608   2.91978   2.92276
 Alpha virt. eigenvalues --    2.92406   2.92935   2.93257   2.93585   2.93749
 Alpha virt. eigenvalues --    2.93927   2.94370   2.94727   2.95089   2.95195
 Alpha virt. eigenvalues --    2.95683   2.95794   2.96316   2.96673   2.96913
 Alpha virt. eigenvalues --    2.97237   2.97488   2.97825   2.98248   2.98339
 Alpha virt. eigenvalues --    2.98406   2.98842   2.99102   2.99518   2.99853
 Alpha virt. eigenvalues --    3.00141   3.00406   3.00724   3.00827   3.00871
 Alpha virt. eigenvalues --    3.01367   3.01715   3.02007   3.02697   3.03125
 Alpha virt. eigenvalues --    3.03376   3.03533   3.03911   3.04419   3.04654
 Alpha virt. eigenvalues --    3.04966   3.04990   3.05305   3.05880   3.06118
 Alpha virt. eigenvalues --    3.06297   3.06556   3.06580   3.07353   3.07612
 Alpha virt. eigenvalues --    3.07767   3.08173   3.08469   3.08676   3.08777
 Alpha virt. eigenvalues --    3.08996   3.09440   3.09662   3.09966   3.10171
 Alpha virt. eigenvalues --    3.10846   3.11015   3.11130   3.11604   3.11650
 Alpha virt. eigenvalues --    3.11804   3.12019   3.12444   3.12780   3.13003
 Alpha virt. eigenvalues --    3.13123   3.13391   3.14028   3.14208   3.14544
 Alpha virt. eigenvalues --    3.14713   3.14914   3.15241   3.15991   3.16020
 Alpha virt. eigenvalues --    3.16303   3.16589   3.17220   3.17407   3.17606
 Alpha virt. eigenvalues --    3.18192   3.18437   3.19104   3.19218   3.19283
 Alpha virt. eigenvalues --    3.19910   3.20184   3.20569   3.20925   3.21046
 Alpha virt. eigenvalues --    3.21404   3.22000   3.22236   3.22480   3.22661
 Alpha virt. eigenvalues --    3.22903   3.23057   3.23430   3.23670   3.23961
 Alpha virt. eigenvalues --    3.24398   3.24777   3.24956   3.25300   3.25511
 Alpha virt. eigenvalues --    3.25932   3.26031   3.26290   3.26618   3.27003
 Alpha virt. eigenvalues --    3.27262   3.27478   3.27775   3.27871   3.28389
 Alpha virt. eigenvalues --    3.28505   3.28817   3.28997   3.29100   3.29334
 Alpha virt. eigenvalues --    3.29511   3.29930   3.30228   3.30364   3.30763
 Alpha virt. eigenvalues --    3.31277   3.31408   3.31719   3.32203   3.32262
 Alpha virt. eigenvalues --    3.32535   3.32879   3.33106   3.33193   3.33472
 Alpha virt. eigenvalues --    3.33579   3.33815   3.34248   3.34350   3.34602
 Alpha virt. eigenvalues --    3.34816   3.35199   3.35302   3.35518   3.35820
 Alpha virt. eigenvalues --    3.36241   3.36518   3.36826   3.36935   3.37187
 Alpha virt. eigenvalues --    3.37306   3.37595   3.37917   3.38048   3.38638
 Alpha virt. eigenvalues --    3.39175   3.39504   3.39599   3.39840   3.39917
 Alpha virt. eigenvalues --    3.40559   3.40781   3.41544   3.41979   3.42326
 Alpha virt. eigenvalues --    3.42405   3.42805   3.43038   3.43568   3.44157
 Alpha virt. eigenvalues --    3.44377   3.44460   3.44981   3.45391   3.45483
 Alpha virt. eigenvalues --    3.45732   3.46606   3.46975   3.47225   3.47519
 Alpha virt. eigenvalues --    3.47860   3.48096   3.48392   3.48684   3.49118
 Alpha virt. eigenvalues --    3.49210   3.49444   3.49896   3.50127   3.50571
 Alpha virt. eigenvalues --    3.50871   3.51026   3.51501   3.51916   3.52431
 Alpha virt. eigenvalues --    3.52668   3.52923   3.53362   3.53978   3.54308
 Alpha virt. eigenvalues --    3.54615   3.54882   3.55330   3.55609   3.55782
 Alpha virt. eigenvalues --    3.56213   3.57224   3.57342   3.57509   3.57992
 Alpha virt. eigenvalues --    3.58293   3.58860   3.59133   3.59569   3.59808
 Alpha virt. eigenvalues --    3.60275   3.60918   3.61316   3.61536   3.62076
 Alpha virt. eigenvalues --    3.62226   3.62891   3.63019   3.63330   3.63617
 Alpha virt. eigenvalues --    3.64053   3.64093   3.64776   3.64817   3.65307
 Alpha virt. eigenvalues --    3.65599   3.66105   3.66274   3.66431   3.66869
 Alpha virt. eigenvalues --    3.66944   3.67132   3.67626   3.67997   3.68357
 Alpha virt. eigenvalues --    3.68651   3.69514   3.69687   3.70151   3.70429
 Alpha virt. eigenvalues --    3.70561   3.70865   3.71342   3.71968   3.72204
 Alpha virt. eigenvalues --    3.72436   3.72793   3.72985   3.73685   3.74199
 Alpha virt. eigenvalues --    3.74278   3.74738   3.74773   3.75709   3.76035
 Alpha virt. eigenvalues --    3.76430   3.77130   3.77315   3.77829   3.78183
 Alpha virt. eigenvalues --    3.78399   3.78624   3.79265   3.79778   3.80015
 Alpha virt. eigenvalues --    3.81009   3.81157   3.81883   3.82669   3.83079
 Alpha virt. eigenvalues --    3.83174   3.83692   3.84188   3.84350   3.84754
 Alpha virt. eigenvalues --    3.85289   3.85921   3.86414   3.87277   3.87911
 Alpha virt. eigenvalues --    3.88929   3.89240   3.89623   3.90672   3.91323
 Alpha virt. eigenvalues --    3.91617   3.91947   3.92406   3.93029   3.93627
 Alpha virt. eigenvalues --    3.94131   3.94561   3.95088   3.95377   3.96042
 Alpha virt. eigenvalues --    3.96807   3.97176   3.97611   3.98424   3.98857
 Alpha virt. eigenvalues --    3.98943   3.99417   4.00058   4.00516   4.00636
 Alpha virt. eigenvalues --    4.01068   4.01731   4.01927   4.02360   4.02809
 Alpha virt. eigenvalues --    4.03553   4.04330   4.04689   4.04772   4.05265
 Alpha virt. eigenvalues --    4.05827   4.06121   4.07318   4.07768   4.08064
 Alpha virt. eigenvalues --    4.08474   4.09213   4.09666   4.10066   4.10880
 Alpha virt. eigenvalues --    4.11071   4.11868   4.12200   4.12775   4.13497
 Alpha virt. eigenvalues --    4.13864   4.14227   4.14583   4.15128   4.15573
 Alpha virt. eigenvalues --    4.16176   4.16711   4.17490   4.17780   4.18042
 Alpha virt. eigenvalues --    4.18956   4.19608   4.19657   4.20712   4.21272
 Alpha virt. eigenvalues --    4.21517   4.22182   4.22488   4.23002   4.23340
 Alpha virt. eigenvalues --    4.23794   4.24400   4.24498   4.24979   4.25615
 Alpha virt. eigenvalues --    4.26524   4.27080   4.27268   4.27940   4.28039
 Alpha virt. eigenvalues --    4.28677   4.29416   4.29874   4.30783   4.31110
 Alpha virt. eigenvalues --    4.31881   4.32510   4.32912   4.33471   4.34214
 Alpha virt. eigenvalues --    4.34715   4.34997   4.35331   4.35957   4.37477
 Alpha virt. eigenvalues --    4.38058   4.38289   4.38455   4.39049   4.40018
 Alpha virt. eigenvalues --    4.40235   4.41350   4.41665   4.42503   4.43124
 Alpha virt. eigenvalues --    4.43437   4.44199   4.45058   4.45737   4.45888
 Alpha virt. eigenvalues --    4.46987   4.47569   4.48706   4.49426   4.50372
 Alpha virt. eigenvalues --    4.50724   4.51238   4.51560   4.52283   4.53099
 Alpha virt. eigenvalues --    4.53505   4.54668   4.55932   4.56074   4.56382
 Alpha virt. eigenvalues --    4.56943   4.58013   4.58556   4.58785   4.60310
 Alpha virt. eigenvalues --    4.60522   4.61452   4.62906   4.63687   4.64457
 Alpha virt. eigenvalues --    4.64711   4.65347   4.65745   4.66239   4.67566
 Alpha virt. eigenvalues --    4.68665   4.69162   4.69349   4.70251   4.71279
 Alpha virt. eigenvalues --    4.71518   4.72202   4.73853   4.74233   4.74679
 Alpha virt. eigenvalues --    4.76134   4.76868   4.77299   4.77887   4.78133
 Alpha virt. eigenvalues --    4.78755   4.78828   4.79709   4.80752   4.80927
 Alpha virt. eigenvalues --    4.81779   4.82635   4.82960   4.83446   4.84522
 Alpha virt. eigenvalues --    4.85914   4.86302   4.86703   4.87510   4.87541
 Alpha virt. eigenvalues --    4.88280   4.88980   4.89871   4.90169   4.91076
 Alpha virt. eigenvalues --    4.92835   4.93533   4.94257   4.94707   4.95201
 Alpha virt. eigenvalues --    4.95649   4.96349   4.96740   4.97670   4.98128
 Alpha virt. eigenvalues --    4.99333   4.99980   5.00630   5.02609   5.03502
 Alpha virt. eigenvalues --    5.03877   5.05261   5.05660   5.06051   5.06660
 Alpha virt. eigenvalues --    5.07277   5.07803   5.08630   5.09443   5.09804
 Alpha virt. eigenvalues --    5.10737   5.11104   5.12237   5.13062   5.14957
 Alpha virt. eigenvalues --    5.15578   5.15930   5.16185   5.16587   5.17457
 Alpha virt. eigenvalues --    5.18183   5.18945   5.19267   5.19589   5.20062
 Alpha virt. eigenvalues --    5.20517   5.21713   5.21978   5.23082   5.23836
 Alpha virt. eigenvalues --    5.23948   5.25729   5.26111   5.26677   5.26962
 Alpha virt. eigenvalues --    5.27770   5.28806   5.30793   5.31463   5.33659
 Alpha virt. eigenvalues --    5.34116   5.35427   5.35797   5.36941   5.37516
 Alpha virt. eigenvalues --    5.38510   5.38719   5.39685   5.40524   5.40883
 Alpha virt. eigenvalues --    5.41821   5.42656   5.42805   5.45580   5.46337
 Alpha virt. eigenvalues --    5.46700   5.48391   5.48929   5.50261   5.51451
 Alpha virt. eigenvalues --    5.52297   5.52985   5.54720   5.56507   5.57451
 Alpha virt. eigenvalues --    5.58260   5.59098   5.59644   5.60018   5.60965
 Alpha virt. eigenvalues --    5.62288   5.63511   5.64168   5.65080   5.65464
 Alpha virt. eigenvalues --    5.66416   5.66782   5.68184   5.69249   5.71028
 Alpha virt. eigenvalues --    5.71253   5.71667   5.73183   5.75920   5.78725
 Alpha virt. eigenvalues --    5.79921   5.81599   5.81692   5.85260   5.86680
 Alpha virt. eigenvalues --    5.87505   5.87716   5.94699   5.97017   5.97636
 Alpha virt. eigenvalues --    6.00530   6.01248   6.01804   6.04064   6.08679
 Alpha virt. eigenvalues --    6.10343   6.11250   6.12081   6.12129   6.14950
 Alpha virt. eigenvalues --    6.21691   6.22227   6.23780   6.25909   6.27236
 Alpha virt. eigenvalues --    6.32707   6.33143   6.34636   6.37611   6.39528
 Alpha virt. eigenvalues --    6.40803   6.41192   6.41982   6.44229   6.45047
 Alpha virt. eigenvalues --    6.47350   6.47756   6.52834   6.53514   6.54649
 Alpha virt. eigenvalues --    6.54878   6.63357   6.64926   6.66440   6.68107
 Alpha virt. eigenvalues --    6.78218   6.82587   6.84565   6.85671   6.86716
 Alpha virt. eigenvalues --    6.98024   6.98960   7.00515   7.03104   7.07880
 Alpha virt. eigenvalues --    7.12180   7.14770   7.16943   7.20674   7.20765
 Alpha virt. eigenvalues --    7.28164   7.33973  22.27197  22.35851  22.40071
 Alpha virt. eigenvalues --   22.44216  22.49660  22.54256  22.55026  22.59107
 Alpha virt. eigenvalues --   22.60502  22.68290  22.69767  22.74546  22.83095
 Alpha virt. eigenvalues --   22.85063  22.91936  22.92257  22.94606  22.98156
 Alpha virt. eigenvalues --   23.02575  23.05184  23.10134  23.14528  23.18125
 Alpha virt. eigenvalues --   23.29530  23.31095  23.36284  23.42088  23.46413
 Alpha virt. eigenvalues --   23.48655  23.52347  23.55953  23.59126  23.72832
 Alpha virt. eigenvalues --   23.76490  23.79517  23.90609  23.93960  24.03044
 Alpha virt. eigenvalues --   32.46148  32.92855  32.98326  33.03540  33.05715
 Alpha virt. eigenvalues --   33.17360  43.93040  43.96255  43.99032  43.99826
 Alpha virt. eigenvalues --   44.18599
  Beta  occ. eigenvalues -- -256.44528 -30.20319 -26.03439 -26.03431 -26.02283
  Beta  occ. eigenvalues --  -19.25986 -19.25519 -19.19411 -19.18830 -19.18096
  Beta  occ. eigenvalues --  -14.53480 -14.51036 -14.42975 -14.41955 -14.41549
  Beta  occ. eigenvalues --  -14.41548 -10.35861 -10.35436 -10.35380 -10.32277
  Beta  occ. eigenvalues --  -10.31050 -10.30488 -10.28998 -10.28872 -10.28425
  Beta  occ. eigenvalues --  -10.28052 -10.28031 -10.27980 -10.27911 -10.27691
  Beta  occ. eigenvalues --  -10.26791 -10.26139 -10.25966 -10.25748 -10.25693
  Beta  occ. eigenvalues --  -10.25532 -10.25455 -10.25426 -10.25424 -10.25315
  Beta  occ. eigenvalues --  -10.25094 -10.24972 -10.24926 -10.24791 -10.24243
  Beta  occ. eigenvalues --  -10.24237 -10.24223 -10.23868 -10.23535 -10.23246
  Beta  occ. eigenvalues --  -10.23009 -10.22975 -10.22858 -10.21816  -3.54726
  Beta  occ. eigenvalues --   -2.32595  -2.29019  -2.28792  -1.18946  -1.18880
  Beta  occ. eigenvalues --   -1.17970  -1.05267  -1.04924  -1.04407  -1.04146
  Beta  occ. eigenvalues --   -1.03904  -1.03821  -1.02914  -0.98304  -0.88880
  Beta  occ. eigenvalues --   -0.87938  -0.87431  -0.86427  -0.86146  -0.85988
  Beta  occ. eigenvalues --   -0.85197  -0.84948  -0.82376  -0.81391  -0.81151
  Beta  occ. eigenvalues --   -0.80562  -0.79308  -0.78999  -0.77862  -0.77122
  Beta  occ. eigenvalues --   -0.76877  -0.74964  -0.74602  -0.73322  -0.71374
  Beta  occ. eigenvalues --   -0.71174  -0.70958  -0.70213  -0.69901  -0.67488
  Beta  occ. eigenvalues --   -0.66769  -0.66122  -0.65521  -0.65066  -0.62912
  Beta  occ. eigenvalues --   -0.62704  -0.62549  -0.60047  -0.59270  -0.58383
  Beta  occ. eigenvalues --   -0.57652  -0.56932  -0.56566  -0.56400  -0.55808
  Beta  occ. eigenvalues --   -0.54326  -0.53815  -0.53504  -0.52964  -0.52602
  Beta  occ. eigenvalues --   -0.52497  -0.51997  -0.51937  -0.51774  -0.51216
  Beta  occ. eigenvalues --   -0.50936  -0.50838  -0.49318  -0.48875  -0.48818
  Beta  occ. eigenvalues --   -0.48588  -0.48352  -0.47826  -0.47623  -0.47234
  Beta  occ. eigenvalues --   -0.47094  -0.47011  -0.46685  -0.46418  -0.46319
  Beta  occ. eigenvalues --   -0.45963  -0.45506  -0.44960  -0.44542  -0.44370
  Beta  occ. eigenvalues --   -0.44233  -0.44026  -0.43885  -0.43492  -0.43209
  Beta  occ. eigenvalues --   -0.43043  -0.42735  -0.42156  -0.42094  -0.41506
  Beta  occ. eigenvalues --   -0.41220  -0.40941  -0.40836  -0.40484  -0.40247
  Beta  occ. eigenvalues --   -0.39783  -0.39187  -0.39031  -0.38829  -0.38574
  Beta  occ. eigenvalues --   -0.38413  -0.37493  -0.37046  -0.36908  -0.36742
  Beta  occ. eigenvalues --   -0.36370  -0.36138  -0.35681  -0.35269  -0.34126
  Beta  occ. eigenvalues --   -0.33841  -0.33468  -0.33190  -0.32471  -0.31626
  Beta  occ. eigenvalues --   -0.31064  -0.30390  -0.29342  -0.28670  -0.28082
  Beta  occ. eigenvalues --   -0.27706  -0.26826  -0.26329  -0.24949  -0.23602
  Beta  occ. eigenvalues --   -0.22957  -0.22345
  Beta virt. eigenvalues --   -0.12625  -0.12227  -0.11363  -0.10093  -0.08226
  Beta virt. eigenvalues --   -0.07923  -0.05072  -0.04735  -0.02566  -0.01900
  Beta virt. eigenvalues --   -0.01206  -0.00666  -0.00428   0.01070   0.02531
  Beta virt. eigenvalues --    0.02767   0.03115   0.03155   0.03918   0.04166
  Beta virt. eigenvalues --    0.04441   0.05083   0.05461   0.05555   0.05680
  Beta virt. eigenvalues --    0.06043   0.06496   0.06663   0.06938   0.07453
  Beta virt. eigenvalues --    0.07522   0.07744   0.07821   0.08174   0.08566
  Beta virt. eigenvalues --    0.09249   0.09333   0.09749   0.10097   0.10276
  Beta virt. eigenvalues --    0.10677   0.11028   0.11179   0.11306   0.11552
  Beta virt. eigenvalues --    0.11627   0.11773   0.12005   0.12335   0.12636
  Beta virt. eigenvalues --    0.12761   0.13087   0.13266   0.13671   0.13853
  Beta virt. eigenvalues --    0.14012   0.14220   0.14450   0.14552   0.14818
  Beta virt. eigenvalues --    0.15133   0.15214   0.15257   0.15583   0.15914
  Beta virt. eigenvalues --    0.16095   0.16343   0.16381   0.16813   0.16948
  Beta virt. eigenvalues --    0.17232   0.17463   0.17566   0.17740   0.17972
  Beta virt. eigenvalues --    0.18521   0.18688   0.18880   0.19241   0.19317
  Beta virt. eigenvalues --    0.19514   0.19623   0.19847   0.20128   0.20545
  Beta virt. eigenvalues --    0.20691   0.20796   0.20928   0.21088   0.21360
  Beta virt. eigenvalues --    0.21548   0.21758   0.21801   0.22026   0.22351
  Beta virt. eigenvalues --    0.22418   0.22647   0.22730   0.22987   0.23157
  Beta virt. eigenvalues --    0.23460   0.23799   0.23867   0.24235   0.24510
  Beta virt. eigenvalues --    0.24759   0.24853   0.25046   0.25484   0.25526
  Beta virt. eigenvalues --    0.25658   0.25822   0.26069   0.26267   0.26561
  Beta virt. eigenvalues --    0.26810   0.27151   0.27479   0.27582   0.27714
  Beta virt. eigenvalues --    0.27854   0.28182   0.28438   0.28785   0.28810
  Beta virt. eigenvalues --    0.29060   0.29339   0.29670   0.29913   0.30200
  Beta virt. eigenvalues --    0.30382   0.30566   0.30756   0.30841   0.31358
  Beta virt. eigenvalues --    0.31706   0.31963   0.32200   0.32549   0.32709
  Beta virt. eigenvalues --    0.32807   0.33207   0.33628   0.33898   0.34210
  Beta virt. eigenvalues --    0.34452   0.34663   0.34777   0.35161   0.35312
  Beta virt. eigenvalues --    0.35347   0.35882   0.36166   0.36424   0.36734
  Beta virt. eigenvalues --    0.36922   0.36996   0.37055   0.37268   0.37362
  Beta virt. eigenvalues --    0.37595   0.37877   0.37980   0.38282   0.38305
  Beta virt. eigenvalues --    0.38913   0.39042   0.39097   0.39321   0.39459
  Beta virt. eigenvalues --    0.39503   0.39686   0.40220   0.40439   0.40575
  Beta virt. eigenvalues --    0.40793   0.40869   0.41014   0.41213   0.41827
  Beta virt. eigenvalues --    0.41850   0.41912   0.42140   0.42232   0.42771
  Beta virt. eigenvalues --    0.42913   0.43018   0.43242   0.43432   0.43476
  Beta virt. eigenvalues --    0.43985   0.44089   0.44430   0.44604   0.44878
  Beta virt. eigenvalues --    0.45117   0.45258   0.45300   0.45715   0.45885
  Beta virt. eigenvalues --    0.46087   0.46183   0.46420   0.46504   0.46670
  Beta virt. eigenvalues --    0.47000   0.47173   0.47371   0.47457   0.47574
  Beta virt. eigenvalues --    0.47707   0.47956   0.48009   0.48199   0.48390
  Beta virt. eigenvalues --    0.48665   0.48967   0.49052   0.49250   0.49577
  Beta virt. eigenvalues --    0.49764   0.49931   0.50092   0.50437   0.50627
  Beta virt. eigenvalues --    0.50789   0.50984   0.51217   0.51289   0.51366
  Beta virt. eigenvalues --    0.51768   0.51976   0.52064   0.52330   0.52460
  Beta virt. eigenvalues --    0.52725   0.53139   0.53240   0.53360   0.53780
  Beta virt. eigenvalues --    0.53818   0.54212   0.54585   0.54658   0.54875
  Beta virt. eigenvalues --    0.54957   0.55196   0.55699   0.55863   0.56111
  Beta virt. eigenvalues --    0.56152   0.56676   0.56758   0.56857   0.56989
  Beta virt. eigenvalues --    0.57336   0.57561   0.57668   0.58172   0.58355
  Beta virt. eigenvalues --    0.58509   0.58930   0.58984   0.59370   0.59678
  Beta virt. eigenvalues --    0.59893   0.60089   0.60343   0.60465   0.60793
  Beta virt. eigenvalues --    0.61149   0.61190   0.61420   0.61699   0.61897
  Beta virt. eigenvalues --    0.62213   0.62474   0.62552   0.62999   0.63082
  Beta virt. eigenvalues --    0.63115   0.63601   0.63769   0.64273   0.64512
  Beta virt. eigenvalues --    0.64840   0.65166   0.65392   0.65754   0.65940
  Beta virt. eigenvalues --    0.66307   0.66494   0.66611   0.66700   0.66901
  Beta virt. eigenvalues --    0.67324   0.67472   0.67728   0.67848   0.68066
  Beta virt. eigenvalues --    0.68127   0.68749   0.68905   0.69153   0.69624
  Beta virt. eigenvalues --    0.69808   0.70026   0.70357   0.70598   0.70762
  Beta virt. eigenvalues --    0.71104   0.71452   0.71564   0.71865   0.72156
  Beta virt. eigenvalues --    0.72541   0.73071   0.73105   0.73491   0.73592
  Beta virt. eigenvalues --    0.74075   0.74486   0.74725   0.74956   0.75119
  Beta virt. eigenvalues --    0.75429   0.75539   0.75883   0.76177   0.76706
  Beta virt. eigenvalues --    0.77139   0.77166   0.77897   0.78109   0.78354
  Beta virt. eigenvalues --    0.79017   0.79119   0.79472   0.79603   0.79731
  Beta virt. eigenvalues --    0.80260   0.80578   0.80907   0.81265   0.81664
  Beta virt. eigenvalues --    0.81776   0.81967   0.82593   0.82951   0.83000
  Beta virt. eigenvalues --    0.83134   0.83382   0.83613   0.83977   0.84554
  Beta virt. eigenvalues --    0.84895   0.85239   0.85311   0.86005   0.86212
  Beta virt. eigenvalues --    0.86617   0.86974   0.87179   0.87432   0.87817
  Beta virt. eigenvalues --    0.88092   0.88496   0.88593   0.88758   0.89445
  Beta virt. eigenvalues --    0.89509   0.89891   0.90173   0.90549   0.90859
  Beta virt. eigenvalues --    0.91215   0.91334   0.91675   0.91951   0.92307
  Beta virt. eigenvalues --    0.92716   0.92908   0.93160   0.93842   0.93951
  Beta virt. eigenvalues --    0.94178   0.94851   0.95031   0.95379   0.95625
  Beta virt. eigenvalues --    0.96040   0.96547   0.96878   0.97012   0.97300
  Beta virt. eigenvalues --    0.97388   0.97777   0.98230   0.98343   0.98790
  Beta virt. eigenvalues --    0.98892   0.99080   0.99389   0.99913   0.99929
  Beta virt. eigenvalues --    1.00219   1.00578   1.01084   1.01159   1.01218
  Beta virt. eigenvalues --    1.01541   1.01843   1.02103   1.02586   1.02892
  Beta virt. eigenvalues --    1.03126   1.03433   1.03918   1.04193   1.04538
  Beta virt. eigenvalues --    1.04924   1.05070   1.05432   1.05555   1.05978
  Beta virt. eigenvalues --    1.06289   1.06900   1.07335   1.07763   1.08257
  Beta virt. eigenvalues --    1.08345   1.08546   1.08743   1.08976   1.09372
  Beta virt. eigenvalues --    1.09855   1.10368   1.10567   1.10805   1.11313
  Beta virt. eigenvalues --    1.11496   1.11722   1.12113   1.12521   1.12840
  Beta virt. eigenvalues --    1.13071   1.13389   1.13678   1.14137   1.14657
  Beta virt. eigenvalues --    1.14749   1.15096   1.15229   1.16209   1.16382
  Beta virt. eigenvalues --    1.16651   1.16947   1.17026   1.17673   1.17844
  Beta virt. eigenvalues --    1.18224   1.18864   1.19139   1.19449   1.20339
  Beta virt. eigenvalues --    1.20480   1.20688   1.21038   1.21200   1.21735
  Beta virt. eigenvalues --    1.21930   1.22375   1.22715   1.23102   1.23694
  Beta virt. eigenvalues --    1.24589   1.24719   1.25324   1.25428   1.25714
  Beta virt. eigenvalues --    1.26103   1.26696   1.27279   1.27770   1.28467
  Beta virt. eigenvalues --    1.28817   1.29106   1.29611   1.29858   1.30454
  Beta virt. eigenvalues --    1.30566   1.31128   1.31625   1.32173   1.32358
  Beta virt. eigenvalues --    1.32994   1.33358   1.33657   1.33761   1.34206
  Beta virt. eigenvalues --    1.34409   1.34750   1.35260   1.35704   1.35833
  Beta virt. eigenvalues --    1.36004   1.36554   1.37044   1.37428   1.37641
  Beta virt. eigenvalues --    1.38463   1.38815   1.39050   1.39295   1.39642
  Beta virt. eigenvalues --    1.39860   1.40337   1.41053   1.41397   1.41791
  Beta virt. eigenvalues --    1.42062   1.42281   1.42551   1.42772   1.43000
  Beta virt. eigenvalues --    1.43762   1.44083   1.44535   1.44645   1.44983
  Beta virt. eigenvalues --    1.45586   1.45851   1.46089   1.46254   1.46510
  Beta virt. eigenvalues --    1.46649   1.46833   1.47364   1.47834   1.48170
  Beta virt. eigenvalues --    1.48310   1.48698   1.49115   1.49647   1.49681
  Beta virt. eigenvalues --    1.49921   1.49984   1.50851   1.51144   1.51355
  Beta virt. eigenvalues --    1.51769   1.51888   1.52299   1.52708   1.52828
  Beta virt. eigenvalues --    1.53184   1.53321   1.53531   1.54383   1.54481
  Beta virt. eigenvalues --    1.54940   1.55470   1.55723   1.55969   1.56189
  Beta virt. eigenvalues --    1.56301   1.56816   1.56898   1.57064   1.57425
  Beta virt. eigenvalues --    1.57627   1.57833   1.58147   1.58215   1.58951
  Beta virt. eigenvalues --    1.59253   1.59532   1.59888   1.59923   1.60059
  Beta virt. eigenvalues --    1.60243   1.60647   1.60851   1.61113   1.61600
  Beta virt. eigenvalues --    1.61779   1.62004   1.62345   1.62505   1.63266
  Beta virt. eigenvalues --    1.63541   1.63663   1.64156   1.64283   1.64667
[...]
    29 C(13)  Bbb    -0.0061    -0.825    -0.294    -0.275 -0.3457  0.9208 -0.1803
              Bcc     0.0134     1.796     0.641     0.599  0.8796  0.3850  0.2795
 
              Baa    -0.0042    -0.562    -0.201    -0.188 -0.4861  0.8703  0.0790
    30 C(13)  Bbb     0.0011     0.144     0.051     0.048  0.8562  0.4924 -0.1566
              Bcc     0.0031     0.418     0.149     0.139  0.1752  0.0084  0.9845
 
              Baa    -0.0032    -0.423    -0.151    -0.141  0.4265 -0.1997  0.8822
    31 C(13)  Bbb    -0.0005    -0.069    -0.025    -0.023  0.7583 -0.4528 -0.4691
              Bcc     0.0037     0.492     0.175     0.164  0.4931  0.8690 -0.0417
 
              Baa    -0.0092    -1.238    -0.442    -0.413  0.9360 -0.3403 -0.0898
    32 C(13)  Bbb    -0.0043    -0.573    -0.205    -0.191  0.1230  0.0772  0.9894
              Bcc     0.0135     1.811     0.646     0.604  0.3297  0.9372 -0.1141
 
              Baa    -0.0015    -0.202    -0.072    -0.067 -0.4142  0.6357  0.6514
    33 C(13)  Bbb    -0.0002    -0.026    -0.009    -0.009  0.2362  0.7663 -0.5976
              Bcc     0.0017     0.228     0.081     0.076  0.8790  0.0936  0.4675
 
              Baa    -0.0025    -0.339    -0.121    -0.113  0.8878 -0.2927 -0.3551
    34 C(13)  Bbb    -0.0007    -0.092    -0.033    -0.031  0.3140  0.9494  0.0024
              Bcc     0.0032     0.431     0.154     0.144  0.3365 -0.1137  0.9348
 
              Baa    -0.0058    -0.779    -0.278    -0.260 -0.1788  0.7373 -0.6515
    35 C(13)  Bbb     0.0022     0.298     0.106     0.099  0.7626 -0.3145 -0.5653
              Bcc     0.0036     0.481     0.171     0.160  0.6217  0.5979  0.5060
 
              Baa    -0.0080    -1.079    -0.385    -0.360  0.8837  0.4680 -0.0067
    36 C(13)  Bbb    -0.0036    -0.480    -0.171    -0.160  0.1676 -0.3030  0.9381
              Bcc     0.0116     1.559     0.556     0.520 -0.4371  0.8301  0.3462
 
              Baa    -0.0021    -0.283    -0.101    -0.094  0.8925  0.4118  0.1839
    37 C(13)  Bbb    -0.0003    -0.045    -0.016    -0.015 -0.1224 -0.1712  0.9776
              Bcc     0.0024     0.328     0.117     0.109 -0.4341  0.8950  0.1024
 
              Baa    -0.0030    -0.397    -0.142    -0.132  0.3920  0.8949  0.2133
    38 C(13)  Bbb     0.0011     0.153     0.055     0.051  0.5625 -0.4166  0.7142
              Bcc     0.0018     0.244     0.087     0.081  0.7280 -0.1600 -0.6667
 
              Baa    -0.0078    -1.043    -0.372    -0.348  0.3780  0.8850  0.2719
    39 C(13)  Bbb    -0.0034    -0.454    -0.162    -0.152 -0.0265 -0.2832  0.9587
              Bcc     0.0112     1.498     0.534     0.500  0.9254 -0.3696 -0.0836
 
              Baa    -0.0007    -0.099    -0.035    -0.033  0.5689  0.3070  0.7630
    40 C(13)  Bbb    -0.0007    -0.089    -0.032    -0.030  0.6715  0.3621 -0.6465
              Bcc     0.0014     0.188     0.067     0.063 -0.4747  0.8801 -0.0001
 
              Baa    -0.0007    -0.096    -0.034    -0.032  0.4740  0.8616 -0.1816
    41 C(13)  Bbb    -0.0006    -0.078    -0.028    -0.026 -0.0109  0.2120  0.9772
              Bcc     0.0013     0.174     0.062     0.058  0.8804 -0.4613  0.1099
 
              Baa    -0.0007    -0.088    -0.031    -0.029  0.4206  0.8923  0.1642
    42 C(13)  Bbb    -0.0006    -0.077    -0.028    -0.026  0.0702 -0.2125  0.9746
              Bcc     0.0012     0.165     0.059     0.055  0.9045 -0.3984 -0.1520
 
              Baa    -0.0003    -0.043    -0.015    -0.014 -0.0850 -0.2767  0.9572
    43 C(13)  Bbb    -0.0003    -0.041    -0.015    -0.014  0.3429  0.8939  0.2888
              Bcc     0.0006     0.084     0.030     0.028  0.9355 -0.3527 -0.0189
 
              Baa    -0.0003     0.020     0.007     0.007 -0.0266 -0.5211  0.8531
    44 O(17)  Bbb    -0.0002     0.014     0.005     0.005  0.2497  0.8228  0.5105
              Bcc     0.0005    -0.034    -0.012    -0.011  0.9680 -0.2266 -0.1083
 
              Baa    -0.0003     0.020     0.007     0.007 -0.2269 -0.2504  0.9412
    45 O(17)  Bbb    -0.0002     0.018     0.006     0.006  0.3356  0.8871  0.3169
              Bcc     0.0005    -0.038    -0.014    -0.013  0.9143 -0.3878  0.1172
 
              Baa    -0.0427    -1.648    -0.588    -0.550  0.6036  0.5076  0.6148
    46 N(14)  Bbb     0.0103     0.397     0.142     0.132 -0.3994  0.8599 -0.3179
              Bcc     0.0325     1.252     0.447     0.417 -0.6901 -0.0537  0.7218
 
              Baa    -0.0425    -1.640    -0.585    -0.547  0.7093 -0.5718 -0.4123
    47 N(14)  Bbb     0.0143     0.550     0.196     0.183  0.2691 -0.3209  0.9081
              Bcc     0.0283     1.090     0.389     0.364  0.6515  0.7550  0.0737
 
              Baa    -0.0408    -1.573    -0.561    -0.525  0.6040  0.6649 -0.4394
    48 N(14)  Bbb     0.0140     0.541     0.193     0.180  0.7937 -0.4522  0.4068
              Bcc     0.0268     1.032     0.368     0.344 -0.0718  0.5945  0.8009
 
              Baa    -0.0346    -1.336    -0.477    -0.445 -0.5156  0.6083 -0.6034
    49 N(14)  Bbb     0.0144     0.554     0.198     0.185 -0.2426  0.5718  0.7837
              Bcc     0.0203     0.781     0.279     0.261  0.8217  0.5505 -0.1473
 
              Baa    -2.3248   -40.249   -14.362   -13.426  0.2004 -0.2918  0.9352
    50 Fe(57) Bbb     0.8347    14.452     5.157     4.821 -0.1370  0.9369  0.3217
              Bcc     1.4901    25.797     9.205     8.605  0.9701  0.1926 -0.1477
 
              Baa    -0.7291    52.761    18.826    17.599 -0.2452 -0.4175  0.8750
    51 O(17)  Bbb     0.3484   -25.211    -8.996    -8.409 -0.1716  0.9070  0.3846
              Bcc     0.3807   -27.550    -9.831    -9.190  0.9542  0.0558  0.2941
 
              Baa    -0.0009    -0.501    -0.179    -0.167  0.9829  0.1127  0.1457
    52 H(1)   Bbb    -0.0009    -0.469    -0.167    -0.157 -0.1738  0.8296  0.5307
              Bcc     0.0018     0.970     0.346     0.324 -0.0611 -0.5469  0.8350
 
              Baa    -0.0008    -0.411    -0.147    -0.137  0.1894  0.9090  0.3712
    53 H(1)   Bbb    -0.0007    -0.387    -0.138    -0.129  0.9437 -0.2729  0.1868
              Bcc     0.0015     0.799     0.285     0.266 -0.2711 -0.3149  0.9096
 
              Baa    -0.0008    -0.409    -0.146    -0.136 -0.5636  0.7881  0.2473
    54 H(1)   Bbb    -0.0007    -0.380    -0.135    -0.127  0.8250  0.5523  0.1202
              Bcc     0.0015     0.789     0.281     0.263  0.0418 -0.2717  0.9615
 
              Baa    -0.0047    -2.520    -0.899    -0.840  0.9981 -0.0264 -0.0558
    55 H(1)   Bbb    -0.0045    -2.404    -0.858    -0.802  0.0587  0.6860  0.7252
              Bcc     0.0092     4.924     1.757     1.642 -0.0192  0.7271 -0.6862
 
              Baa    -0.0062    -3.332    -1.189    -1.111  0.9720  0.0374  0.2321
    56 H(1)   Bbb    -0.0061    -3.273    -1.168    -1.092  0.1115  0.7958 -0.5953
              Bcc     0.0124     6.605     2.357     2.203 -0.2069  0.6045  0.7693
 
              Baa    -0.1366   -72.882   -26.006   -24.311 -0.0050  0.9670  0.2547
    57 H(1)   Bbb    -0.1303   -69.521   -24.807   -23.190  0.9991  0.0157 -0.0397
              Bcc     0.2669   142.402    50.813    47.500  0.0424 -0.2543  0.9662
 
              Baa    -0.0019    -1.020    -0.364    -0.340 -0.0971 -0.1030  0.9899
    58 H(1)   Bbb    -0.0014    -0.762    -0.272    -0.254 -0.0084  0.9947  0.1026
              Bcc     0.0033     1.782     0.636     0.594  0.9952 -0.0016  0.0975
 
              Baa    -0.0017    -0.899    -0.321    -0.300 -0.2629  0.0867  0.9609
    59 H(1)   Bbb    -0.0015    -0.820    -0.293    -0.273  0.9648  0.0276  0.2615
              Bcc     0.0032     1.719     0.613     0.573 -0.0038  0.9959 -0.0909
 
              Baa    -0.0019    -1.025    -0.366    -0.342  0.0934  0.8818 -0.4623
    60 H(1)   Bbb    -0.0019    -1.008    -0.360    -0.336 -0.1488  0.4715  0.8692
              Bcc     0.0038     2.034     0.726     0.678  0.9844 -0.0124  0.1753
 
              Baa    -0.0018    -0.973    -0.347    -0.325 -0.1236 -0.1769  0.9764
    61 H(1)   Bbb    -0.0014    -0.754    -0.269    -0.251  0.9910  0.0291  0.1307
              Bcc     0.0032     1.727     0.616     0.576 -0.0515  0.9838  0.1717
 
              Baa    -0.0008    -0.442    -0.158    -0.147  0.1909  0.0477  0.9804
    62 H(1)   Bbb    -0.0007    -0.397    -0.141    -0.132  0.9320 -0.3225 -0.1658
              Bcc     0.0016     0.838     0.299     0.280  0.3082  0.9454 -0.1060
 
              Baa    -0.0007    -0.377    -0.134    -0.126 -0.0577 -0.1580  0.9857
    63 H(1)   Bbb    -0.0007    -0.353    -0.126    -0.118  0.9011 -0.4332 -0.0167
              Bcc     0.0014     0.730     0.260     0.244  0.4297  0.8873  0.1674
 
              Baa    -0.0007    -0.354    -0.126    -0.118 -0.3247  0.3259  0.8879
    64 H(1)   Bbb    -0.0006    -0.316    -0.113    -0.105  0.7678 -0.4574  0.4487
              Bcc     0.0013     0.671     0.239     0.224  0.5523  0.8274 -0.1017
 
              Baa    -0.0010    -0.513    -0.183    -0.171 -0.0623 -0.1296  0.9896
    65 H(1)   Bbb    -0.0009    -0.477    -0.170    -0.159 -0.2888  0.9514  0.1065
              Bcc     0.0019     0.990     0.353     0.330  0.9554  0.2792  0.0967
 
              Baa    -0.0007    -0.361    -0.129    -0.121 -0.0700 -0.1403  0.9876
    66 H(1)   Bbb    -0.0006    -0.317    -0.113    -0.106 -0.5438  0.8354  0.0801
              Bcc     0.0013     0.679     0.242     0.226  0.8363  0.5315  0.1348
 
              Baa    -0.0005    -0.282    -0.101    -0.094  0.3679 -0.1559  0.9167
    67 H(1)   Bbb    -0.0005    -0.266    -0.095    -0.089 -0.4692  0.8201  0.3277
              Bcc     0.0010     0.548     0.196     0.183  0.8028  0.5506 -0.2286
 
              Baa    -0.0007    -0.393    -0.140    -0.131  0.3358 -0.0491  0.9406
    68 H(1)   Bbb    -0.0007    -0.359    -0.128    -0.120 -0.2797  0.9484  0.1494
              Bcc     0.0014     0.753     0.269     0.251  0.8994  0.3132 -0.3048
 
              Baa    -0.0006    -0.322    -0.115    -0.108  0.0983  0.2372  0.9665
    69 H(1)   Bbb    -0.0005    -0.285    -0.102    -0.095  0.8470  0.4899 -0.2064
              Bcc     0.0011     0.608     0.217     0.203 -0.5225  0.8389 -0.1527
 
              Baa    -0.0007    -0.356    -0.127    -0.119 -0.0001 -0.1229  0.9924
    70 H(1)   Bbb    -0.0006    -0.320    -0.114    -0.107  0.8523  0.5191  0.0644
              Bcc     0.0013     0.675     0.241     0.225 -0.5231  0.8458  0.1046
 
              Baa    -0.0008    -0.426    -0.152    -0.142  0.9341  0.3410  0.1055
    71 H(1)   Bbb    -0.0008    -0.413    -0.148    -0.138 -0.1151  0.0081  0.9933
              Bcc     0.0016     0.839     0.299     0.280 -0.3378  0.9400 -0.0468
 
              Baa    -0.0009    -0.495    -0.177    -0.165  0.3051  0.9364 -0.1735
    72 H(1)   Bbb    -0.0009    -0.483    -0.173    -0.161 -0.0175  0.1877  0.9821
              Bcc     0.0018     0.979     0.349     0.326  0.9522 -0.2966  0.0737
 
              Baa    -0.0004    -0.227    -0.081    -0.076  0.6402  0.7414 -0.2012
    73 H(1)   Bbb    -0.0004    -0.219    -0.078    -0.073  0.0993  0.1798  0.9787
              Bcc     0.0008     0.446     0.159     0.149  0.7618 -0.6465  0.0415
 
              Baa    -0.0003    -0.183    -0.065    -0.061  0.3762  0.7671  0.5196
    74 H(1)   Bbb    -0.0003    -0.175    -0.063    -0.058 -0.2704 -0.4455  0.8535
              Bcc     0.0007     0.359     0.128     0.120  0.8862 -0.4615  0.0398
 
              Baa    -0.0006    -0.345    -0.123    -0.115 -0.5346  0.6979  0.4766
    75 H(1)   Bbb    -0.0005    -0.273    -0.098    -0.091  0.1148 -0.4987  0.8591
              Bcc     0.0012     0.619     0.221     0.206  0.8372  0.5140  0.1865
 
              Baa    -0.0009    -0.463    -0.165    -0.155  0.0001 -0.5873  0.8093
    76 H(1)   Bbb    -0.0007    -0.373    -0.133    -0.124  0.6351 -0.6251 -0.4537
              Bcc     0.0016     0.836     0.298     0.279  0.7724  0.5141  0.3730
 
              Baa    -0.0011    -0.568    -0.203    -0.190 -0.3988  0.8156 -0.4193
    77 H(1)   Bbb    -0.0008    -0.443    -0.158    -0.148 -0.2362  0.3504  0.9063
              Bcc     0.0019     1.012     0.361     0.337  0.8861  0.4605  0.0529
 
              Baa    -0.0009    -0.462    -0.165    -0.154 -0.3718 -0.3003  0.8784
    78 H(1)   Bbb    -0.0007    -0.357    -0.127    -0.119  0.9094 -0.3076  0.2798
              Bcc     0.0015     0.819     0.292     0.273  0.1862  0.9029  0.3875
 
              Baa    -0.0006    -0.319    -0.114    -0.106  0.0241 -0.2272  0.9736
    79 H(1)   Bbb    -0.0002    -0.095    -0.034    -0.032  0.7580 -0.6308 -0.1660
              Bcc     0.0008     0.414     0.148     0.138  0.6519  0.7419  0.1570
 
              Baa    -0.0009    -0.458    -0.164    -0.153  0.7566 -0.5677 -0.3245
    80 H(1)   Bbb    -0.0005    -0.245    -0.087    -0.082  0.1030 -0.3866  0.9165
              Bcc     0.0013     0.703     0.251     0.234  0.6458  0.7268  0.2341
 
              Baa    -0.0006    -0.336    -0.120    -0.112 -0.5009 -0.4015  0.7667
    81 H(1)   Bbb    -0.0006    -0.312    -0.111    -0.104  0.6471  0.4145  0.6399
              Bcc     0.0012     0.648     0.231     0.216 -0.5748  0.8167  0.0522
 
              Baa    -0.0007    -0.385    -0.137    -0.128 -0.4658 -0.0523  0.8833
    82 H(1)   Bbb    -0.0007    -0.365    -0.130    -0.122  0.7589  0.4896  0.4293
              Bcc     0.0014     0.750     0.268     0.250 -0.4550  0.8704 -0.1884
 
              Baa    -0.0008    -0.425    -0.152    -0.142  0.8075  0.2624  0.5284
    83 H(1)   Bbb    -0.0008    -0.420    -0.150    -0.140 -0.4790 -0.2312  0.8468
              Bcc     0.0016     0.845     0.302     0.282 -0.3443  0.9369  0.0610
 
              Baa    -0.0007    -0.355    -0.127    -0.119  0.5811  0.6215 -0.5255
    84 H(1)   Bbb    -0.0006    -0.329    -0.117    -0.110  0.1883  0.5255  0.8297
              Bcc     0.0013     0.684     0.244     0.228  0.7918 -0.5811  0.1883
 
              Baa    -0.0009    -0.469    -0.167    -0.156  0.0159  0.6029  0.7976
    85 H(1)   Bbb    -0.0008    -0.451    -0.161    -0.151  0.3911  0.7304 -0.5599
              Bcc     0.0017     0.920     0.328     0.307  0.9202 -0.3209  0.2242
 
              Baa    -0.0007    -0.376    -0.134    -0.125  0.2211  0.1213  0.9677
    86 H(1)   Bbb    -0.0007    -0.359    -0.128    -0.120  0.2601  0.9490 -0.1784
              Bcc     0.0014     0.735     0.262     0.245  0.9399 -0.2911 -0.1783
 
              Baa    -0.0005    -0.273    -0.097    -0.091 -0.0991 -0.4051  0.9089
    87 H(1)   Bbb    -0.0005    -0.255    -0.091    -0.085  0.5563  0.7347  0.3882
              Bcc     0.0010     0.528     0.188     0.176  0.8250 -0.5441 -0.1526
 
              Baa    -0.0357   -19.031    -6.791    -6.348  0.5913  0.7896  0.1640
    88 H(1)   Bbb     0.0121     6.438     2.297     2.148  0.7962 -0.6039  0.0372
              Bcc     0.0236    12.593     4.493     4.201 -0.1284 -0.1085  0.9858
 
              Baa    -0.0002    -0.094    -0.034    -0.031  0.1667 -0.1348  0.9768
    89 H(1)   Bbb    -0.0002    -0.092    -0.033    -0.031 -0.4087  0.8921  0.1928
              Bcc     0.0003     0.186     0.066     0.062  0.8973  0.4314 -0.0936
 
              Baa    -0.0002    -0.107    -0.038    -0.036 -0.2139 -0.2193  0.9519
    90 H(1)   Bbb    -0.0002    -0.106    -0.038    -0.035  0.4192  0.8596  0.2922
              Bcc     0.0004     0.213     0.076     0.071  0.8823 -0.4616  0.0920
 

 ---------------------------------------------------------------------------------

 1\1\GINC-NODE383\SP\UPBE1PBE\def2TZVP\C38H40Fe1N6O5(1+,2)\KLEICH\23-Se
 p-2022\0\\# PBE1PBE/def2TZVP empiricaldispersion=GD3BJ int=(grid=ultra
 fine) geom=check guess=read scrf=(smd,solvent=Chloroform)\\1ccc_III_D_
 solv\\1,2\C,0,-9.179,55.032,107.752\C,0,-8.656,55.674,109.047\N,0,-9.3
 37,56.251,110.028\C,0,-7.346,55.781,109.43\C,0,-8.517,56.656,110.967\N
 ,0,-7.296,56.371,110.601\H,0,-10.269,56.52,109.992\C,0,-5.551,53.892,1
 12.957\C,0,-7.582,57.995,114.479\C,0,-6.051,60.051,110.455\C,0,-3.606,
 56.143,109.236\C,0,-6.256,54.818,113.741\C,0,-6.747,54.522,114.978\C,0
 ,-7.371,55.7,115.428\C,0,-7.164,56.651,114.442\C,0,-8.086,55.956,116.7
 62\C,0,-6.553,53.157,115.632\C,0,-5.476,53.072,116.681\C,0,-5.338,51.6
 76,117.3\O,0,-6.184,51.244,118.071\O,0,-4.374,50.963,117.069\C,0,-7.43
 9,58.947,113.445\C,0,-8.009,60.231,113.431\C,0,-7.608,60.79,112.216\C,
 0,-6.791,59.833,111.615\C,0,-8.955,60.766,114.492\C,0,-7.873,62.019,11
 1.592\C,0,-8.696,63.097,112.034\C,0,-5.174,59.214,109.761\C,0,-4.391,5
 9.621,108.681\C,0,-3.586,58.503,108.416\C,0,-4.037,57.471,109.254\C,0,
 -4.411,61.018,108.022\C,0,-2.583,58.321,107.461\C,0,-2.38,59.068,106.2
 26\C,0,-3.969,55.112,110.1\C,0,-3.707,53.769,109.892\C,0,-4.284,53.11,
 110.969\C,0,-4.859,54.103,111.761\C,0,-2.951,53.119,108.756\C,0,-4.239
 ,51.602,111.251\C,0,-3.022,51.189,112.088\C,0,-3.017,49.736,112.53\O,0
 ,-2.521,49.411,113.591\O,0,-3.525,48.903,111.799\N,0,-6.505,56.102,113
 .416\N,0,-6.791,58.703,112.305\N,0,-4.982,57.915,110.076\N,0,-4.679,55
 .3,111.215\Fe,0,-5.764,57.006,111.726\O,0,-4.379,57.565,112.833\H,0,-8
 .35221418,54.70205231,107.15831681\H,0,-9.74843124,55.75169565,107.201
 83071\H,0,-9.80042008,54.19534946,107.99439011\H,0,-6.50222091,55.4398
 5069,108.86736868\H,0,-8.80002549,57.13850381,111.87913302\H,0,-6.4662
 6491,56.56837267,111.1230955\H,0,-5.54191748,52.88729231,113.32494017\
 H,0,-8.0546801,58.32828693,115.3792185\H,0,-6.17518396,61.02216626,110
 .02335843\H,0,-2.91158813,55.88546597,108.46375109\H,0,-8.06544698,57.
 00282325,116.98254174\H,0,-9.10146998,55.62624303,116.69142337\H,0,-7.
 58947722,55.41737975,117.54190599\H,0,-6.23223956,52.50842686,114.8437
 3252\H,0,-7.46833274,52.95825756,116.14926919\H,0,-5.78874862,53.71625
 337,117.47600056\H,0,-4.55408588,53.25983125,116.17139842\H,0,-8.59840
 514,61.71152394,114.84374506\H,0,-9.93123472,60.88714947,114.07106227\
 H,0,-9.00180482,60.07622713,115.30865335\H,0,-7.38829785,62.16872181,1
 10.64990276\H,0,-9.21573368,63.02576938,112.96657874\H,0,-8.79360744,6
 3.97684997,111.4329702\H,0,-4.24617281,61.32907016,107.01157071\H,0,-3
 .36917314,60.79140974,107.93170244\H,0,-5.2741464,60.58800982,107.5583
 3337\H,0,-1.87950984,57.53968958,107.65988598\H,0,-1.39199029,59.47865
 043,106.21584894\H,0,-3.09632064,59.86063763,106.16675208\H,0,-2.27070
 695,52.39293861,109.14961938\H,0,-3.64273715,52.63865513,108.0959481\H
 ,0,-2.40436718,53.86525723,108.2182336\H,0,-4.11918378,51.12654952,110
 .29995273\H,0,-5.09797137,51.3875604,111.85190253\H,0,-3.08266803,51.7
 6404687,112.98830022\H,0,-2.17690898,51.296339,111.44054381\H,0,-3.707
 34244,58.00580102,112.30748066\H,0,-5.91534555,50.79349188,118.8750318
 5\H,0,-2.9692385,48.31464982,111.2826927\\Version=ES64L-G16RevA.03\Sta
 te=2-A\HF=-3438.0270776\S2=0.828249\S2-1=0.\S2A=0.752693\RMSD=1.653e-0
 9\Dipole=-5.8582503,0.425134,-4.2824489\Quadrupole=5.245727,-25.013574
 9,19.7678479,-4.5139241,-15.1117378,16.1105831\PG=C01 [X(C38H40Fe1N6O5
 )]\\@


 LORD, MAN... WERE YE BUT WHYLES WHERE I AM, 
 THE GENTILES YE WAD NE'ER ENVY 'EM.        
 IT'S TRUE, THEY NEEDNA STARVE OR SWEAT,     
 THRO' WINTER'S CAULD OR SIMMER'S HEAT...  
 THEY'VE NAE SAIR WARK TO CRAZE THEIR BANES, 
 AND FILL AULD AGE WITH GRIPS AN' GRANES...  
                                             
 BUT HUMAN BODIES ARE SIC FOOLS              
 FOR A' THEIR COLLEGES AND SCHOOLS,           
 THAT WHEN NAE REAL ILLS PERPLEX THEM,       
 THEY MAK ENOW THEMSELVES TO VEX THEM,       
 AN' AYE THE LESS THEY HAE TO STURT THEM,    
 IN LIKE PROPORTION LESS WILL HURT THEM....  
                                             
                (ROBERT BURNS 'THE TWA DOGS')
 Job cpu time:       6 days  3 hours 33 minutes 58.8 seconds.
 Elapsed time:       1 days 13 hours  3 minutes 51.2 seconds.
 File lengths (MBytes):  RWF=   3695 Int=      0 D2E=      0 Chk=    262 Scr=      1
 Normal termination of Gaussian 16 at Fri Sep 23 08:44:53 2022.
