 Entering Gaussian System, Link 0=g16
 Input=/net/work/kleich/bench/splitthejobs/1ccc/gfcfail/1ccc/1ccc01/1ccc01.com
 Output=/net/work/kleich/bench/splitthejobs/1ccc/gfcfail/1ccc/1ccc01/1ccc01.log
 Initial command:
 /afs/math/software/gaussian/g16.A03/g16/l1.exe "/scratch/kleich_gaussian.jOg7KBy/Gau-11337.inp" -scrdir="/scratch/kleich_gaussian.jOg7KBy/"
 Entering Link 1 = /afs/math/software/gaussian/g16.A03/g16/l1.exe PID=     11338.
  
 Copyright (c) 1988,1990,1992,1993,1995,1998,2003,2009,2016,
            Gaussian, Inc.  All Rights Reserved.
  
 This is part of the Gaussian(R) 16 program.  It is based on
 the Gaussian(R) 09 system (copyright 2009, Gaussian, Inc.),
 the Gaussian(R) 03 system (copyright 2003, Gaussian, Inc.),
 the Gaussian(R) 98 system (copyright 1998, Gaussian, Inc.),
 the Gaussian(R) 94 system (copyright 1995, Gaussian, Inc.),
 the Gaussian 92(TM) system (copyright 1992, Gaussian, Inc.),
 the Gaussian 90(TM) system (copyright 1990, Gaussian, Inc.),
 the Gaussian 88(TM) system (copyright 1988, Gaussian, Inc.),
 the Gaussian 86(TM) system (copyright 1986, Carnegie Mellon
 University), and the Gaussian 82(TM) system (copyright 1983,
 Carnegie Mellon University). Gaussian is a federally registered
 trademark of Gaussian, Inc.
  
 This software contains proprietary and confidential information,
 including trade secrets, belonging to Gaussian, Inc.
  
 This software is provided under written license and may be
 used, copied, transmitted, or stored only in accord with that
 written license.
  
 The following legend is applicable only to US Government
 contracts under FAR:
  
                    RESTRICTED RIGHTS LEGEND
  
 Use, reproduction and disclosure by the US Government is
 subject to restrictions as set forth in subparagraphs (a)
 and (c) of the Commercial Computer Software - Restricted
 Rights clause in FAR 52.227-19.
  
 Gaussian, Inc.
 340 Quinnipiac St., Bldg. 40, Wallingford CT 06492
  
  
 ---------------------------------------------------------------
 Warning -- This program may not be used in any manner that
 competes with the business of Gaussian, Inc. or will provide
 assistance to any competitor of Gaussian, Inc.  The licensee
 of this program is prohibited from giving any competitor of
 Gaussian, Inc. access to this program.  By using this program,
 the user acknowledges that Gaussian, Inc. is engaged in the
 business of creating and licensing software in the field of
 computational chemistry and represents and warrants to the
 licensee that it is not a competitor of Gaussian, Inc. and that
 it will not use this program in any manner prohibited above.
 ---------------------------------------------------------------
  

 Cite this work as:
 Gaussian 16, Revision A.03,
 M. J. Frisch, G. W. Trucks, H. B. Schlegel, G. E. Scuseria, 
 M. A. Robb, J. R. Cheeseman, G. Scalmani, V. Barone, 
 G. A. Petersson, H. Nakatsuji, X. Li, M. Caricato, A. V. Marenich, 
 J. Bloino, B. G. Janesko, R. Gomperts, B. Mennucci, H. P. Hratchian, 
 J. V. Ortiz, A. F. Izmaylov, J. L. Sonnenberg, D. Williams-Young, 
 F. Ding, F. Lipparini, F. Egidi, J. Goings, B. Peng, A. Petrone, 
 T. Henderson, D. Ranasinghe, V. G. Zakrzewski, J. Gao, N. Rega, 
 G. Zheng, W. Liang, M. Hada, M. Ehara, K. Toyota, R. Fukuda, 
 J. Hasegawa, M. Ishida, T. Nakajima, Y. Honda, O. Kitao, H. Nakai, 
 T. Vreven, K. Throssell, J. A. Montgomery, Jr., J. E. Peralta, 
 F. Ogliaro, M. J. Bearpark, J. J. Heyd, E. N. Brothers, K. N. Kudin, 
 V. N. Staroverov, T. A. Keith, R. Kobayashi, J. Normand, 
 K. Raghavachari, A. P. Rendell, J. C. Burant, S. S. Iyengar, 
 J. Tomasi, M. Cossi, J. M. Millam, M. Klene, C. Adamo, R. Cammi, 
 J. W. Ochterski, R. L. Martin, K. Morokuma, O. Farkas, 
 J. B. Foresman, and D. J. Fox, Gaussian, Inc., Wallingford CT, 2016.
 
 ******************************************
 Gaussian 16:  ES64L-G16RevA.03 25-Dec-2016
                19-Sep-2022 
 ******************************************
 %nprocs=12
 Will use up to   12 processors via shared memory.
 %mem=16GB
 %chk=1ccc_II_S.chk
 ----------------------------------------------------------------------
 # PBE1PBE/def2TZVP empiricaldispersion=GD3BJ int=(grid=ultrafine) geom
 =check guess=read pop=nbo
 ----------------------------------------------------------------------
 1/29=2,38=1,172=1/1;
 2/12=2,40=1/2;
 3/5=44,7=101,11=2,14=-4,25=1,30=1,74=-13,75=-5,116=-2,124=41/1,2,3;
 4/5=1/1;
 5/5=2,38=6/2;
 6/7=2,8=2,9=2,10=2,28=1,40=1/1,7;
 99/5=1,9=1/99;
 -------------
 1ccc_II_S_nbo
 -------------
 Structure from the checkpoint file:  "1ccc_II_S.chk"
 Charge =  0 Multiplicity = 1
 Z-Matrix found in chk file.
 C,0,-9.179,55.032,107.752
 C,0,-8.656,55.674,109.047
 N,0,-9.337,56.251,110.028
 C,0,-7.346,55.781,109.43
 C,0,-8.517,56.656,110.967
 N,0,-7.296,56.371,110.601
 H,0,-10.269,56.52,109.992
 C,0,-5.551,53.892,112.957
 C,0,-7.582,57.995,114.479
 C,0,-6.051,60.051,110.455
 C,0,-3.606,56.143,109.236
 C,0,-6.256,54.818,113.741
 C,0,-6.747,54.522,114.978
 C,0,-7.371,55.7,115.428
 C,0,-7.164,56.651,114.442
 C,0,-8.086,55.956,116.762
 C,0,-6.553,53.157,115.632
 C,0,-5.476,53.072,116.681
 C,0,-5.338,51.676,117.3
 O,0,-6.184,51.244,118.071
 O,0,-4.374,50.963,117.069
 C,0,-7.439,58.947,113.445
 C,0,-8.009,60.231,113.431
 C,0,-7.608,60.79,112.216
 C,0,-6.791,59.833,111.615
 C,0,-8.955,60.766,114.492
 C,0,-7.873,62.019,111.592
 C,0,-8.696,63.097,112.034
 C,0,-5.174,59.214,109.761
 C,0,-4.391,59.621,108.681
 C,0,-3.586,58.503,108.416
 C,0,-4.037,57.471,109.254
 C,0,-4.411,61.018,108.022
 C,0,-2.583,58.321,107.461
 C,0,-2.38,59.068,106.226
 C,0,-3.969,55.112,110.1
 C,0,-3.707,53.769,109.892
 C,0,-4.284,53.11,110.969
 C,0,-4.859,54.103,111.761
 C,0,-2.951,53.119,108.756
 C,0,-4.239,51.602,111.251
 C,0,-3.022,51.189,112.088
 C,0,-3.017,49.736,112.53
 O,0,-2.521,49.411,113.591
 O,0,-3.525,48.903,111.799
 N,0,-6.505,56.102,113.416
 N,0,-6.791,58.703,112.305
 N,0,-4.982,57.915,110.076
 N,0,-4.679,55.3,111.215
 Fe,0,-5.764,57.006,111.726
 O,0,-4.379,57.565,112.833
 H,0,-8.35221418,54.70205231,107.15831681
 H,0,-9.74843124,55.75169565,107.20183071
 H,0,-9.80042008,54.19534946,107.99439011
 H,0,-6.50222091,55.43985069,108.86736868
 H,0,-8.80002549,57.13850381,111.87913302
 H,0,-6.46626491,56.56837267,111.1230955
 H,0,-5.54191748,52.88729231,113.32494017
 H,0,-8.0546801,58.32828693,115.3792185
 H,0,-6.17518396,61.02216626,110.02335843
 H,0,-2.91158813,55.88546597,108.46375109
 H,0,-8.06544698,57.00282325,116.98254174
 H,0,-9.10146998,55.62624303,116.69142337
 H,0,-7.58947722,55.41737975,117.54190599
 H,0,-6.23223956,52.50842686,114.84373252
 H,0,-7.46833274,52.95825756,116.14926919
 H,0,-5.78874862,53.71625337,117.47600056
 H,0,-4.55408588,53.25983125,116.17139842
 H,0,-8.59840514,61.71152394,114.84374506
 H,0,-9.93123472,60.88714947,114.07106227
 H,0,-9.00180482,60.07622713,115.30865335
 H,0,-7.38829785,62.16872181,110.64990276
 H,0,-9.21573368,63.02576938,112.96657874
 H,0,-8.79360744,63.97684997,111.4329702
 H,0,-4.24617281,61.32907016,107.01157071
 H,0,-3.36917314,60.79140974,107.93170244
 H,0,-5.2741464,60.58800982,107.55833337
 H,0,-1.87950984,57.53968958,107.65988598
 H,0,-1.39199029,59.47865043,106.21584894
 H,0,-3.09632064,59.86063763,106.16675208
 H,0,-2.27070695,52.39293861,109.14961938
 H,0,-3.64273715,52.63865513,108.0959481
 H,0,-2.40436718,53.86525723,108.2182336
 H,0,-4.11918378,51.12654952,110.29995273
 H,0,-5.09797137,51.3875604,111.85190253
 H,0,-3.08266803,51.76404687,112.98830022
 H,0,-2.17690898,51.296339,111.44054381
 H,0,-3.70734244,58.00580102,112.30748066
 H,0,-5.91534555,50.79349188,118.87503185
 H,0,-2.9692385,48.31464982,111.2826927
 Recover connectivity data from disk.
 Center=     -5.85324016     56.16773611    111.77333763
 Residue   0                        charge    0.00000000 layers R        AvRTP=      7.52713996    282.04284757     63.95049946
 Residue   4                        charge    0.00000000 layers R        AvRTP=      0.00000000      0.00000000      0.00000000
 Residue   2 PDB Number   295_A HEM charge    0.00000000 layers R        AvRTP=      0.52842070     26.93410448     53.75405076
 Residue   3 PDB Number   313_A HOH charge    0.00000000 layers R        AvRTP=      2.55504239     41.78726127     71.82658372
 Residue   1 PDB Number   175_A HIS charge    0.00000000 layers R        AvRTP=      3.56400997    186.84021222    132.01665650
 Stoichiometry    C38H40FeN6O5
 Framework group  C1[X(C38H40FeN6O5)]
 Deg. of freedom   264
 Full point group                 C1      NOp   1
 Largest Abelian subgroup         C1      NOp   1
 Largest concise Abelian subgroup C1      NOp   1
                         Standard orientation:                         
 ---------------------------------------------------------------------
 Center     Atomic      Atomic             Coordinates (Angstroms)
 Number     Number       Type             X           Y           Z
 ---------------------------------------------------------------------
      1          6           0       -1.547530   -1.837054    4.949256
      2          6           0       -1.462943   -0.893093    3.739090
      3          7           0       -1.679353    0.414183    3.682111
      4          6           0       -1.149798   -1.245063    2.453674
      5          6           0       -1.482546    0.849800    2.461598
      6          7           0       -1.160336   -0.166263    1.706734
      7          1           0       -2.105947    0.950743    4.369426
      8          6           0        2.365700    0.117175    0.214107
      9          6           0       -0.987526    3.552141   -0.268529
     10          6           0       -4.245136    0.086681   -0.645663
     11          6           0       -0.857484   -3.268428   -0.704938
     12          6           0        1.751825    1.376080    0.127651
     13          6           0        2.452341    2.545737    0.134488
     14          6           0        1.487584    3.563920    0.024458
     15          6           0        0.262684    2.927896   -0.096125
     16          6           0        1.699946    5.083216   -0.029930
     17          6           0        3.975586    2.588636    0.214874
     18          6           0        4.700572    2.840813   -1.080640
     19          6           0        6.225813    2.876431   -0.927693
     20          8           0        6.780855    3.820675   -0.382614
     21          8           0        6.936509    1.984812   -1.364673
     22          6           0       -2.245782    2.911520   -0.316536
     23          6           0       -3.493064    3.558074   -0.319238
     24          6           0       -4.433426    2.526747   -0.359110
     25          6           0       -3.692890    1.347268   -0.429632
     26          6           0       -3.687338    5.057385   -0.173680
     27          6           0       -5.836771    2.507417   -0.342000
     28          6           0       -6.753546    3.596043   -0.246116
     29          6           0       -3.639398   -1.165648   -0.772504
     30          6           0       -4.316472   -2.331932   -1.128158
     31          6           0       -3.291824   -3.280040   -1.267304
     32          6           0       -2.104107   -2.657063   -0.852700
     33          6           0       -5.837794   -2.461509   -1.362844
     34          6           0       -3.353638   -4.625829   -1.636344
     35          6           0       -4.505618   -5.516625   -1.574151
     36          6           0        0.356856   -2.670600   -0.374476
     37          6           0        1.503889   -3.349832   -0.002299
     38          6           0        2.440799   -2.364601    0.278161
     39          6           0        1.795289   -1.149020    0.055414
     40          6           0        1.732368   -4.841441    0.083919
     41          6           0        3.903353   -2.581971    0.689622
     42          6           0        4.853533   -2.665186   -0.511402
     43          6           0        6.328586   -2.717643   -0.153539
     44          8           0        7.162869   -2.216921   -0.881969
     45          8           0        6.657365   -3.269643    0.882567
     46          7           0        0.430962    1.603852   -0.012781
     47          7           0       -2.398077    1.586678   -0.291281
     48          7           0       -2.320157   -1.375634   -0.575019
     49          7           0        0.536421   -1.348815   -0.316954
     50         26           0       -0.954770    0.108135   -0.267683
     51          8           0       -0.717058    0.424262   -2.084194
     52          1           0       -1.356462   -2.841069    4.632480
     53          1           0       -2.525535   -1.778773    5.379383
     54          1           0       -0.819474   -1.548419    5.678313
     55          1           0       -0.932359   -2.236198    2.114157
     56          1           0       -1.570908    1.865962    2.138325
     57          1           0       -0.956802   -0.128542    0.728393
     58          1           0        3.413405    0.127998    0.431125
     59          1           0       -0.984329    4.616968   -0.373570
     60          1           0       -5.311889    0.075917   -0.728263
     61          1           0       -0.831584   -4.326042   -0.865192
     62          1           0        0.872706    5.541280   -0.530680
     63          1           0        1.772419    5.469079    0.965438
     64          1           0        2.602743    5.298323   -0.562459
     65          1           0        4.270881    1.605841    0.517883
     66          1           0        4.202759    3.430541    0.834946
     67          1           0        4.413472    3.823597   -1.391460
     68          1           0        4.487556    1.998563   -1.705251
     69          1           0       -4.306292    5.415759   -0.969521
     70          1           0       -4.156395    5.266792    0.764955
     71          1           0       -2.736189    5.545849   -0.213928
     72          1           0       -6.282743    1.537217   -0.410717
     73          1           0       -6.387568    4.598906   -0.173827
     74          1           0       -7.807208    3.409769   -0.246482
     75          1           0       -6.515196   -3.273287   -1.198397
     76          1           0       -5.482399   -3.145513   -2.104957
     77          1           0       -5.816828   -2.499529   -0.293725
     78          1           0       -2.446765   -5.054033   -2.009334
     79          1           0       -4.689316   -5.930344   -2.543683
     80          1           0       -5.365052   -4.966335   -1.252507
     81          1           0        2.669530   -5.085604   -0.371066
     82          1           0        1.745573   -5.141471    1.110909
     83          1           0        0.943745   -5.353189   -0.427049
     84          1           0        3.938450   -3.541531    1.161759
     85          1           0        4.190727   -1.706918    1.234231
     86          1           0        4.719628   -1.749769   -1.048972
     87          1           0        4.638323   -3.600177   -0.985087
     88          1           0       -1.207105   -0.228570   -2.589433
     89          1           0        7.573708    4.199646   -0.769092
     90          1           0        7.059662   -4.140864    0.855550
 ---------------------------------------------------------------------
 Rotational constants (GHZ):           0.0767057           0.0458410           0.0337690
 Standard basis: def2TZVP (5D, 7F)
 There are  2056 symmetry adapted cartesian basis functions of A   symmetry.
 There are  1804 symmetry adapted basis functions of A   symmetry.
  1804 basis functions,  2921 primitive gaussians,  2056 cartesian basis functions
   188 alpha electrons      188 beta electrons
       nuclear repulsion energy      7641.5492129217 Hartrees.
 NAtoms=   90 NActive=   90 NUniq=   90 SFac= 1.00D+00 NAtFMM=   60 NAOKFM=T Big=T
 Integral buffers will be    131072 words long.
 Raffenetti 2 integral format.
 Two-electron integral symmetry is turned on.
 Nuclear repulsion after empirical dispersion term =     7641.4223718964 Hartrees.
 One-electron integrals computed using PRISM.
   1 Symmetry operations used in ECPInt.
 ECPInt:  NShTT=  255255 NPrTT=  790653 LenC2=  185510 LenP2D=  373270.
 LDataN:  DoStor=T MaxTD1= 6 Len=  172
 NBasis=  1804 RedAO= T EigKep=  3.00D-06  NBF=  1804
 NBsUse=  1804 1.00D-06 EigRej= -1.00D+00 NBFU=  1804
 Initial guess from the checkpoint file:  "1ccc_II_S.chk"
 B after Tr=    -0.000000    0.000000    0.000000
         Rot=    1.000000    0.000000    0.000000    0.000000 Ang=   0.00 deg.
 Requested convergence on RMS density matrix=1.00D-08 within 128 cycles.
 Requested convergence on MAX density matrix=1.00D-06.
 Requested convergence on             energy=1.00D-06.
 No special actions if energy rises.
 SCF Done:  E(RPBE1PBE) =  -3438.10478427     A.U. after   18 cycles
            NFock= 18  Conv=0.63D-08     -V/T= 2.0024

 **********************************************************************

            Population analysis using the SCF density.

 **********************************************************************

 Orbital symmetries:
       Occupied  (A) (A) (A) (A) (A) (A) (A) (A) (A) (A) (A) (A)
                 (A) (A) (A) (A) (A) (A) (A) (A) (A) (A) (A) (A)
                 (A) (A) (A) (A) (A) (A) (A) (A) (A) (A) (A) (A)
                 (A) (A) (A) (A) (A) (A) (A) (A) (A) (A) (A) (A)
                 (A) (A) (A) (A) (A) (A) (A) (A) (A) (A) (A) (A)
                 (A) (A) (A) (A) (A) (A) (A) (A) (A) (A) (A) (A)
                 (A) (A) (A) (A) (A) (A) (A) (A) (A) (A) (A) (A)
                 (A) (A) (A) (A) (A) (A) (A) (A) (A) (A) (A) (A)
                 (A) (A) (A) (A) (A) (A) (A) (A) (A) (A) (A) (A)
                 (A) (A) (A) (A) (A) (A) (A) (A) (A) (A) (A) (A)
                 (A) (A) (A) (A) (A) (A) (A) (A) (A) (A) (A) (A)
                 (A) (A) (A) (A) (A) (A) (A) (A) (A) (A) (A) (A)
                 (A) (A) (A) (A) (A) (A) (A) (A) (A) (A) (A) (A)
                 (A) (A) (A) (A) (A) (A) (A) (A) (A) (A) (A) (A)
                 (A) (A) (A) (A) (A) (A) (A) (A) (A) (A) (A) (A)
                 (A) (A) (A) (A) (A) (A) (A) (A)
       Virtual   (A) (A) (A) (A) (A) (A) (A) (A) (A) (A) (A) (A)
                 (A) (A) (A) (A) (A) (A) (A) (A) (A) (A) (A) (A)
                 (A) (A) (A) (A) (A) (A) (A) (A) (A) (A) (A) (A)
                 (A) (A) (A) (A) (A) (A) (A) (A) (A) (A) (A) (A)
                 (A) (A) (A) (A) (A) (A) (A) (A) (A) (A) (A) (A)
                 (A) (A) (A) (A) (A) (A) (A) (A) (A) (A) (A) (A)
                 (A) (A) (A) (A) (A) (A) (A) (A) (A) (A) (A) (A)
                 (A) (A) (A) (A) (A) (A) (A) (A) (A) (A) (A) (A)
                 (A) (A) (A) (A) (A) (A) (A) (A) (A) (A) (A) (A)
                 (A) (A) (A) (A) (A) (A) (A) (A) (A) (A) (A) (A)
                 (A) (A) (A) (A) (A) (A) (A) (A) (A) (A) (A) (A)
                 (A) (A) (A) (A) (A) (A) (A) (A) (A) (A) (A) (A)
                 (A) (A) (A) (A) (A) (A) (A) (A) (A) (A) (A) (A)
                 (A) (A) (A) (A) (A) (A) (A) (A) (A) (A) (A) (A)
                 (A) (A) (A) (A) (A) (A) (A) (A) (A) (A) (A) (A)
                 (A) (A) (A) (A) (A) (A) (A) (A) (A) (A) (A) (A)
                 (A) (A) (A) (A) (A) (A) (A) (A) (A) (A) (A) (A)
                 (A) (A) (A) (A) (A) (A) (A) (A) (A) (A) (A) (A)
                 (A) (A) (A) (A) (A) (A) (A) (A) (A) (A) (A) (A)
                 (A) (A) (A) (A) (A) (A) (A) (A) (A) (A) (A) (A)
                 (A) (A) (A) (A) (A) (A) (A) (A) (A) (A) (A) (A)
                 (A) (A) (A) (A) (A) (A) (A) (A) (A) (A) (A) (A)
                 (A) (A) (A) (A) (A) (A) (A) (A) (A) (A) (A) (A)
                 (A) (A) (A) (A) (A) (A) (A) (A) (A) (A) (A) (A)
                 (A) (A) (A) (A) (A) (A) (A) (A) (A) (A) (A) (A)
                 (A) (A) (A) (A) (A) (A) (A) (A) (A) (A) (A) (A)
                 (A) (A) (A) (A) (A) (A) (A) (A) (A) (A) (A) (A)
                 (A) (A) (A) (A) (A) (A) (A) (A) (A) (A) (A) (A)
                 (A) (A) (A) (A) (A) (A) (A) (A) (A) (A) (A) (A)
                 (A) (A) (A) (A) (A) (A) (A) (A) (A) (A) (A) (A)
                 (A) (A) (A) (A) (A) (A) (A) (A) (A) (A) (A) (A)
                 (A) (A) (A) (A) (A) (A) (A) (A) (A) (A) (A) (A)
                 (A) (A) (A) (A) (A) (A) (A) (A) (A) (A) (A) (A)
                 (A) (A) (A) (A) (A) (A) (A) (A) (A) (A) (A) (A)
                 (A) (A) (A) (A) (A) (A) (A) (A) (A) (A) (A) (A)
                 (A) (A) (A) (A) (A) (A) (A) (A) (A) (A) (A) (A)
                 (A) (A) (A) (A) (A) (A) (A) (A) (A) (A) (A) (A)
                 (A) (A) (A) (A) (A) (A) (A) (A) (A) (A) (A) (A)
                 (A) (A) (A) (A) (A) (A) (A) (A) (A) (A) (A) (A)
                 (A) (A) (A) (A) (A) (A) (A) (A) (A) (A) (A) (A)
                 (A) (A) (A) (A) (A) (A) (A) (A) (A) (A) (A) (A)
                 (A) (A) (A) (A) (A) (A) (A) (A) (A) (A) (A) (A)
                 (A) (A) (A) (A) (A) (A) (A) (A) (A) (A) (A) (A)
                 (A) (A) (A) (A) (A) (A) (A) (A) (A) (A) (A) (A)
                 (A) (A) (A) (A) (A) (A) (A) (A) (A) (A) (A) (A)
                 (A) (A) (A) (A) (A) (A) (A) (A) (A) (A) (A) (A)
                 (A) (A) (A) (A) (A) (A) (A) (A) (A) (A) (A) (A)
                 (A) (A) (A) (A) (A) (A) (A) (A) (A) (A) (A) (A)
                 (A) (A) (A) (A) (A) (A) (A) (A) (A) (A) (A) (A)
                 (A) (A) (A) (A) (A) (A) (A) (A) (A) (A) (A) (A)
                 (A) (A) (A) (A) (A) (A) (A) (A) (A) (A) (A) (A)
                 (A) (A) (A) (A) (A) (A) (A) (A) (A) (A) (A) (A)
                 (A) (A) (A) (A) (A) (A) (A) (A) (A) (A) (A) (A)
                 (A) (A) (A) (A) (A) (A) (A) (A) (A) (A) (A) (A)
                 (A) (A) (A) (A) (A) (A) (A) (A) (A) (A) (A) (A)
                 (A) (A) (A) (A) (A) (A) (A) (A) (A) (A) (A) (A)
                 (A) (A) (A) (A) (A) (A) (A) (A) (A) (A) (A) (A)
                 (A) (A) (A) (A) (A) (A) (A) (A) (A) (A) (A) (A)
                 (A) (A) (A) (A) (A) (A) (A) (A) (A) (A) (A) (A)
                 (A) (A) (A) (A) (A) (A) (A) (A) (A) (A) (A) (A)
                 (A) (A) (A) (A) (A) (A) (A) (A) (A) (A) (A) (A)
                 (A) (A) (A) (A) (A) (A) (A) (A) (A) (A) (A) (A)
                 (A) (A) (A) (A) (A) (A) (A) (A) (A) (A) (A) (A)
                 (A) (A) (A) (A) (A) (A) (A) (A) (A) (A) (A) (A)
                 (A) (A) (A) (A) (A) (A) (A) (A) (A) (A) (A) (A)
                 (A) (A) (A) (A) (A) (A) (A) (A) (A) (A) (A) (A)
                 (A) (A) (A) (A) (A) (A) (A) (A) (A) (A) (A) (A)
                 (A) (A) (A) (A) (A) (A) (A) (A) (A) (A) (A) (A)
                 (A) (A) (A) (A) (A) (A) (A) (A) (A) (A) (A) (A)
                 (A) (A) (A) (A) (A) (A) (A) (A) (A) (A) (A) (A)
                 (A) (A) (A) (A) (A) (A) (A) (A) (A) (A) (A) (A)
                 (A) (A) (A) (A) (A) (A) (A) (A) (A) (A) (A) (A)
                 (A) (A) (A) (A) (A) (A) (A) (A) (A) (A) (A) (A)
                 (A) (A) (A) (A) (A) (A) (A) (A) (A) (A) (A) (A)
                 (A) (A) (A) (A) (A) (A) (A) (A) (A) (A) (A) (A)
                 (A) (A) (A) (A) (A) (A) (A) (A) (A) (A) (A) (A)
                 (A) (A) (A) (A) (A) (A) (A) (A) (A) (A) (A) (A)
                 (A) (A) (A) (A) (A) (A) (A) (A) (A) (A) (A) (A)
                 (A) (A) (A) (A) (A) (A) (A) (A) (A) (A) (A) (A)
                 (A) (A) (A) (A) (A) (A) (A) (A) (A) (A) (A) (A)
                 (A) (A) (A) (A) (A) (A) (A) (A) (A) (A) (A) (A)
                 (A) (A) (A) (A) (A) (A) (A) (A) (A) (A) (A) (A)
                 (A) (A) (A) (A) (A) (A) (A) (A) (A) (A) (A) (A)
                 (A) (A) (A) (A) (A) (A) (A) (A) (A) (A) (A) (A)
                 (A) (A) (A) (A) (A) (A) (A) (A) (A) (A) (A) (A)
                 (A) (A) (A) (A) (A) (A) (A) (A) (A) (A) (A) (A)
                 (A) (A) (A) (A) (A) (A) (A) (A) (A) (A) (A) (A)
                 (A) (A) (A) (A) (A) (A) (A) (A) (A) (A) (A) (A)
                 (A) (A) (A) (A) (A) (A) (A) (A) (A) (A) (A) (A)
                 (A) (A) (A) (A) (A) (A) (A) (A) (A) (A) (A) (A)
                 (A) (A) (A) (A) (A) (A) (A) (A) (A) (A) (A) (A)
                 (A) (A) (A) (A) (A) (A) (A) (A) (A) (A) (A) (A)
                 (A) (A) (A) (A) (A) (A) (A) (A) (A) (A) (A) (A)
                 (A) (A) (A) (A) (A) (A) (A) (A) (A) (A) (A) (A)
                 (A) (A) (A) (A) (A) (A) (A) (A) (A) (A) (A) (A)
                 (A) (A) (A) (A) (A) (A) (A) (A) (A) (A) (A) (A)
                 (A) (A) (A) (A) (A) (A) (A) (A) (A) (A) (A) (A)
                 (A) (A) (A) (A) (A) (A) (A) (A) (A) (A) (A) (A)
                 (A) (A) (A) (A) (A) (A) (A) (A) (A) (A) (A) (A)
                 (A) (A) (A) (A) (A) (A) (A) (A) (A) (A) (A) (A)
                 (A) (A) (A) (A) (A) (A) (A) (A) (A) (A) (A) (A)
                 (A) (A) (A) (A) (A) (A) (A) (A) (A) (A) (A) (A)
                 (A) (A) (A) (A) (A) (A) (A) (A) (A) (A) (A) (A)
                 (A) (A) (A) (A) (A) (A) (A) (A) (A) (A) (A) (A)
                 (A) (A) (A) (A) (A) (A) (A) (A) (A) (A) (A) (A)
                 (A) (A) (A) (A) (A) (A) (A) (A) (A) (A) (A) (A)
                 (A) (A) (A) (A) (A) (A) (A) (A) (A) (A) (A) (A)
                 (A) (A) (A) (A) (A) (A) (A) (A) (A) (A) (A) (A)
                 (A) (A) (A) (A) (A) (A) (A) (A) (A) (A) (A) (A)
                 (A) (A) (A) (A) (A) (A) (A) (A) (A) (A) (A) (A)
                 (A) (A) (A) (A) (A) (A) (A) (A) (A) (A) (A) (A)
                 (A) (A) (A) (A) (A) (A) (A) (A) (A) (A) (A) (A)
                 (A) (A) (A) (A) (A) (A) (A) (A) (A) (A) (A) (A)
                 (A) (A) (A) (A) (A) (A) (A) (A) (A) (A) (A) (A)
                 (A) (A) (A) (A) (A) (A) (A) (A) (A) (A) (A) (A)
                 (A) (A) (A) (A) (A) (A) (A) (A) (A) (A) (A) (A)
                 (A) (A) (A) (A) (A) (A) (A) (A) (A) (A) (A) (A)
                 (A) (A) (A) (A) (A) (A) (A) (A) (A) (A) (A) (A)
                 (A) (A) (A) (A) (A) (A) (A) (A) (A) (A) (A) (A)
                 (A) (A) (A) (A) (A) (A) (A) (A) (A) (A) (A) (A)
                 (A) (A) (A) (A) (A) (A) (A) (A) (A) (A) (A) (A)
                 (A) (A) (A) (A) (A) (A) (A) (A) (A) (A) (A) (A)
                 (A) (A) (A) (A) (A) (A) (A) (A) (A) (A) (A) (A)
                 (A) (A) (A) (A) (A) (A) (A) (A) (A) (A) (A) (A)
                 (A) (A) (A) (A) (A) (A) (A) (A) (A) (A) (A) (A)
                 (A) (A) (A) (A) (A) (A) (A) (A) (A) (A) (A) (A)
                 (A) (A) (A) (A) (A) (A) (A) (A) (A) (A) (A) (A)
                 (A) (A) (A) (A) (A) (A) (A) (A) (A) (A) (A) (A)
                 (A) (A) (A) (A) (A) (A) (A) (A) (A) (A) (A) (A)
                 (A) (A) (A) (A) (A) (A) (A) (A) (A) (A) (A) (A)
                 (A) (A) (A) (A) (A) (A) (A) (A) (A) (A) (A) (A)
                 (A) (A) (A) (A) (A) (A) (A) (A) (A) (A) (A) (A)
                 (A) (A) (A) (A) (A) (A) (A) (A) (A) (A) (A) (A)
                 (A) (A) (A) (A) (A) (A) (A) (A) (A) (A) (A) (A)
                 (A) (A) (A) (A) (A) (A) (A) (A)
 The electronic state is 1-A.
 Alpha  occ. eigenvalues -- -256.30888 -30.07257 -25.90083 -25.89836 -25.89642
 Alpha  occ. eigenvalues --  -19.24833 -19.24609 -19.16717 -19.15876 -19.09597
 Alpha  occ. eigenvalues --  -14.51090 -14.50998 -14.37644 -14.36436 -14.36078
 Alpha  occ. eigenvalues --  -14.35863 -10.34401 -10.33462 -10.33328 -10.31993
 Alpha  occ. eigenvalues --  -10.29698 -10.27906 -10.27558 -10.24935 -10.24736
 Alpha  occ. eigenvalues --  -10.24435 -10.24359 -10.24013 -10.23908 -10.23849
 Alpha  occ. eigenvalues --  -10.23842 -10.23488 -10.22920 -10.22755 -10.22739
 Alpha  occ. eigenvalues --  -10.22704 -10.22406 -10.22343 -10.22274 -10.22203
 Alpha  occ. eigenvalues --  -10.22182 -10.22115 -10.22042 -10.22019 -10.21885
 Alpha  occ. eigenvalues --  -10.21876 -10.21856 -10.21802 -10.21553 -10.21527
 Alpha  occ. eigenvalues --  -10.21486 -10.21424 -10.20821 -10.19687  -3.44065
 Alpha  occ. eigenvalues --   -2.22788  -2.18657  -2.18297  -1.17715  -1.17579
 Alpha  occ. eigenvalues --   -1.16763  -1.03238  -1.02897  -1.01787  -1.00544
 Alpha  occ. eigenvalues --   -0.99650  -0.99402  -0.98354  -0.88647  -0.87097
 Alpha  occ. eigenvalues --   -0.85925  -0.84504  -0.83732  -0.83567  -0.82844
 Alpha  occ. eigenvalues --   -0.81926  -0.81599  -0.79698  -0.79504  -0.78929
 Alpha  occ. eigenvalues --   -0.78455  -0.77300  -0.76586  -0.75464  -0.74297
 Alpha  occ. eigenvalues --   -0.73913  -0.72894  -0.72014  -0.70680  -0.70568
 Alpha  occ. eigenvalues --   -0.69592  -0.69482  -0.67102  -0.66927  -0.65631
 Alpha  occ. eigenvalues --   -0.64809  -0.64407  -0.63142  -0.62088  -0.61749
 Alpha  occ. eigenvalues --   -0.59604  -0.58802  -0.56929  -0.56000  -0.55917
 Alpha  occ. eigenvalues --   -0.55218  -0.54549  -0.53592  -0.53383  -0.53196
 Alpha  occ. eigenvalues --   -0.53026  -0.51642  -0.51191  -0.51028  -0.50335
 Alpha  occ. eigenvalues --   -0.50203  -0.50110  -0.49870  -0.49781  -0.49273
 Alpha  occ. eigenvalues --   -0.49133  -0.48504  -0.48358  -0.47795  -0.46447
 Alpha  occ. eigenvalues --   -0.45957  -0.45813  -0.45638  -0.45377  -0.45347
 Alpha  occ. eigenvalues --   -0.44853  -0.44667  -0.44547  -0.43970  -0.43808
 Alpha  occ. eigenvalues --   -0.43477  -0.42897  -0.42711  -0.42406  -0.42072
 Alpha  occ. eigenvalues --   -0.41876  -0.41385  -0.41082  -0.40872  -0.40643
 Alpha  occ. eigenvalues --   -0.40077  -0.39601  -0.39486  -0.39271  -0.38670
 Alpha  occ. eigenvalues --   -0.38364  -0.38110  -0.37975  -0.37427  -0.37026
 Alpha  occ. eigenvalues --   -0.36943  -0.36706  -0.36555  -0.36034  -0.35775
 Alpha  occ. eigenvalues --   -0.35461  -0.34489  -0.34275  -0.33227  -0.32438
 Alpha  occ. eigenvalues --   -0.32288  -0.31524  -0.31284  -0.31092  -0.30833
 Alpha  occ. eigenvalues --   -0.30026  -0.29912  -0.28722  -0.28061  -0.27123
 Alpha  occ. eigenvalues --   -0.26492  -0.26309  -0.26152  -0.24516  -0.23582
 Alpha  occ. eigenvalues --   -0.22766  -0.21285  -0.21125  -0.20719  -0.20032
 Alpha  occ. eigenvalues --   -0.19391  -0.18871  -0.18310
 Alpha virt. eigenvalues --   -0.08935  -0.08054  -0.04999  -0.04312  -0.02295
 Alpha virt. eigenvalues --   -0.01759  -0.01292  -0.00492  -0.00427   0.00121
 Alpha virt. eigenvalues --    0.00836   0.01085   0.02961   0.03503   0.03813
 Alpha virt. eigenvalues --    0.04196   0.04406   0.04620   0.05028   0.05466
 Alpha virt. eigenvalues --    0.06022   0.06394   0.06547   0.06722   0.07545
 Alpha virt. eigenvalues --    0.07728   0.08058   0.08182   0.08664   0.09027
 Alpha virt. eigenvalues --    0.09214   0.09262   0.09563   0.09985   0.10037
 Alpha virt. eigenvalues --    0.10152   0.10518   0.10807   0.11098   0.11447
 Alpha virt. eigenvalues --    0.11851   0.12124   0.12628   0.12904   0.13165
 Alpha virt. eigenvalues --    0.13410   0.13768   0.13998   0.14220   0.14419
 Alpha virt. eigenvalues --    0.14629   0.14974   0.15181   0.15268   0.15479
 Alpha virt. eigenvalues --    0.15644   0.15870   0.16042   0.16419   0.16498
 Alpha virt. eigenvalues --    0.16754   0.17015   0.17143   0.17533   0.17847
 Alpha virt. eigenvalues --    0.18111   0.18268   0.18510   0.18654   0.19073
 Alpha virt. eigenvalues --    0.19164   0.19399   0.19602   0.19778   0.20244
 Alpha virt. eigenvalues --    0.20400   0.20765   0.20893   0.21035   0.21195
 Alpha virt. eigenvalues --    0.21501   0.21959   0.22093   0.22258   0.22424
 Alpha virt. eigenvalues --    0.22787   0.22942   0.23184   0.23351   0.23423
 Alpha virt. eigenvalues --    0.23701   0.23816   0.23959   0.24290   0.24435
 Alpha virt. eigenvalues --    0.24746   0.24784   0.25108   0.25274   0.25480
 Alpha virt. eigenvalues --    0.25623   0.25999   0.26214   0.26609   0.26871
 Alpha virt. eigenvalues --    0.27081   0.27319   0.27466   0.27815   0.27959
 Alpha virt. eigenvalues --    0.28298   0.28462   0.28491   0.28890   0.29005
 Alpha virt. eigenvalues --    0.29284   0.29484   0.29593   0.29726   0.30149
 Alpha virt. eigenvalues --    0.30317   0.30405   0.30945   0.31065   0.31135
 Alpha virt. eigenvalues --    0.31592   0.31906   0.32186   0.32392   0.32593
 Alpha virt. eigenvalues --    0.32944   0.33126   0.33171   0.33762   0.33954
 Alpha virt. eigenvalues --    0.34178   0.34463   0.34701   0.34754   0.35201
 Alpha virt. eigenvalues --    0.35458   0.35817   0.36060   0.36290   0.36619
 Alpha virt. eigenvalues --    0.36725   0.36888   0.37140   0.37302   0.37535
 Alpha virt. eigenvalues --    0.37848   0.38167   0.38407   0.38742   0.38913
 Alpha virt. eigenvalues --    0.38966   0.39199   0.39408   0.39457   0.39573
 Alpha virt. eigenvalues --    0.39994   0.40060   0.40222   0.40353   0.40576
 Alpha virt. eigenvalues --    0.40881   0.41078   0.41283   0.41297   0.41489
 Alpha virt. eigenvalues --    0.41911   0.42035   0.42344   0.42554   0.42738
 Alpha virt. eigenvalues --    0.42809   0.42922   0.43149   0.43565   0.43647
 Alpha virt. eigenvalues --    0.43856   0.43912   0.44147   0.44383   0.44614
 Alpha virt. eigenvalues --    0.44839   0.45022   0.45147   0.45340   0.45501
 Alpha virt. eigenvalues --    0.45871   0.46177   0.46267   0.46616   0.46692
 Alpha virt. eigenvalues --    0.47133   0.47363   0.47493   0.47575   0.47683
 Alpha virt. eigenvalues --    0.47857   0.48241   0.48490   0.48788   0.48842
 Alpha virt. eigenvalues --    0.48987   0.49168   0.49297   0.49492   0.49566
 Alpha virt. eigenvalues --    0.49744   0.49994   0.50171   0.50499   0.50550
 Alpha virt. eigenvalues --    0.50678   0.50971   0.51145   0.51514   0.51708
 Alpha virt. eigenvalues --    0.51825   0.52096   0.52426   0.52557   0.52944
 Alpha virt. eigenvalues --    0.53124   0.53192   0.53498   0.53576   0.53716
 Alpha virt. eigenvalues --    0.53933   0.54152   0.54357   0.54521   0.54700
 Alpha virt. eigenvalues --    0.55125   0.55253   0.55447   0.55604   0.55843
 Alpha virt. eigenvalues --    0.56187   0.56281   0.56659   0.56826   0.57098
 Alpha virt. eigenvalues --    0.57530   0.57556   0.57961   0.58286   0.58611
 Alpha virt. eigenvalues --    0.58718   0.59098   0.59174   0.59292   0.59732
 Alpha virt. eigenvalues --    0.59857   0.60149   0.60499   0.60645   0.60941
 Alpha virt. eigenvalues --    0.61161   0.61364   0.61682   0.62013   0.62238
 Alpha virt. eigenvalues --    0.62290   0.62565   0.63037   0.63456   0.63538
 Alpha virt. eigenvalues --    0.63731   0.63905   0.64156   0.64498   0.64729
 Alpha virt. eigenvalues --    0.64892   0.65367   0.65606   0.65733   0.65909
 Alpha virt. eigenvalues --    0.66180   0.66404   0.67142   0.67284   0.67350
 Alpha virt. eigenvalues --    0.67463   0.67924   0.68160   0.68448   0.68641
 Alpha virt. eigenvalues --    0.68913   0.69208   0.69487   0.69669   0.69957
 Alpha virt. eigenvalues --    0.70030   0.70212   0.70428   0.70608   0.71001
 Alpha virt. eigenvalues --    0.71118   0.71466   0.71660   0.71855   0.72250
 Alpha virt. eigenvalues --    0.72538   0.72577   0.73029   0.73158   0.73518
 Alpha virt. eigenvalues --    0.73890   0.74078   0.74582   0.74764   0.74943
 Alpha virt. eigenvalues --    0.75549   0.75776   0.75963   0.76136   0.76803
 Alpha virt. eigenvalues --    0.77036   0.77223   0.77450   0.77716   0.78191
 Alpha virt. eigenvalues --    0.78317   0.78605   0.78875   0.79304   0.79790
 Alpha virt. eigenvalues --    0.79836   0.80330   0.80647   0.80987   0.81485
 Alpha virt. eigenvalues --    0.81643   0.82062   0.82333   0.82512   0.82561
 Alpha virt. eigenvalues --    0.83134   0.83334   0.83777   0.83874   0.83969
 Alpha virt. eigenvalues --    0.84501   0.84816   0.85183   0.85464   0.85613
 Alpha virt. eigenvalues --    0.85833   0.86123   0.86493   0.87097   0.87393
 Alpha virt. eigenvalues --    0.87580   0.88062   0.88190   0.88507   0.89066
 Alpha virt. eigenvalues --    0.89449   0.89706   0.90029   0.90173   0.90484
 Alpha virt. eigenvalues --    0.90646   0.91355   0.91374   0.91708   0.92022
 Alpha virt. eigenvalues --    0.92163   0.92877   0.93037   0.93608   0.93749
 Alpha virt. eigenvalues --    0.93800   0.94111   0.94499   0.94641   0.95145
 Alpha virt. eigenvalues --    0.95401   0.95648   0.95915   0.96041   0.96577
 Alpha virt. eigenvalues --    0.96929   0.97508   0.97799   0.98062   0.98386
 Alpha virt. eigenvalues --    0.99006   0.99159   0.99276   0.99582   0.99919
 Alpha virt. eigenvalues --    1.00022   1.00589   1.00915   1.01075   1.01203
 Alpha virt. eigenvalues --    1.01713   1.01839   1.02385   1.02454   1.02811
 Alpha virt. eigenvalues --    1.03059   1.03369   1.03609   1.03812   1.03885
 Alpha virt. eigenvalues --    1.04167   1.04589   1.05026   1.05271   1.05549
 Alpha virt. eigenvalues --    1.05802   1.06063   1.06531   1.06872   1.07283
 Alpha virt. eigenvalues --    1.07537   1.07886   1.08123   1.08519   1.08733
 Alpha virt. eigenvalues --    1.09065   1.09811   1.09995   1.10379   1.10553
 Alpha virt. eigenvalues --    1.11038   1.11164   1.11453   1.11739   1.12237
 Alpha virt. eigenvalues --    1.12354   1.12637   1.12854   1.13608   1.13870
 Alpha virt. eigenvalues --    1.14148   1.14378   1.14968   1.15133   1.15383
 Alpha virt. eigenvalues --    1.15762   1.15963   1.16539   1.17266   1.17403
 Alpha virt. eigenvalues --    1.17531   1.17903   1.18416   1.18617   1.18996
 Alpha virt. eigenvalues --    1.19451   1.19688   1.20193   1.20463   1.20786
 Alpha virt. eigenvalues --    1.21412   1.21830   1.22054   1.22705   1.23024
 Alpha virt. eigenvalues --    1.23171   1.23574   1.24017   1.24228   1.24524
 Alpha virt. eigenvalues --    1.25250   1.25394   1.25999   1.26668   1.27157
 Alpha virt. eigenvalues --    1.27736   1.28062   1.28344   1.28512   1.28858
 Alpha virt. eigenvalues --    1.29467   1.29772   1.30578   1.30863   1.31313
 Alpha virt. eigenvalues --    1.31958   1.32400   1.32729   1.33225   1.33413
 Alpha virt. eigenvalues --    1.33719   1.34482   1.34562   1.34960   1.35509
 Alpha virt. eigenvalues --    1.35821   1.36124   1.36545   1.36692   1.36941
 Alpha virt. eigenvalues --    1.37405   1.37882   1.38062   1.38382   1.38714
 Alpha virt. eigenvalues --    1.39259   1.39651   1.39895   1.40216   1.40566
 Alpha virt. eigenvalues --    1.41246   1.41771   1.42048   1.42329   1.42681
 Alpha virt. eigenvalues --    1.42822   1.43421   1.43921   1.44146   1.44482
 Alpha virt. eigenvalues --    1.44734   1.44891   1.45361   1.45979   1.46183
 Alpha virt. eigenvalues --    1.46487   1.46908   1.47281   1.47525   1.48129
 Alpha virt. eigenvalues --    1.48384   1.48530   1.48757   1.48876   1.49095
 Alpha virt. eigenvalues --    1.49486   1.49956   1.50020   1.50090   1.50281
 Alpha virt. eigenvalues --    1.50732   1.51070   1.51352   1.51778   1.52014
 Alpha virt. eigenvalues --    1.52296   1.53049   1.53100   1.53372   1.53664
 Alpha virt. eigenvalues --    1.54159   1.54744   1.54933   1.55157   1.55414
 Alpha virt. eigenvalues --    1.55655   1.55872   1.56402   1.56807   1.57140
 Alpha virt. eigenvalues --    1.57300   1.57727   1.57973   1.58114   1.58512
 Alpha virt. eigenvalues --    1.58755   1.59081   1.59347   1.59396   1.59775
 Alpha virt. eigenvalues --    1.60278   1.60365   1.60622   1.60834   1.61156
 Alpha virt. eigenvalues --    1.61438   1.61726   1.62077   1.62224   1.62490
 Alpha virt. eigenvalues --    1.62643   1.63227   1.63525   1.63852   1.64269
 Alpha virt. eigenvalues --    1.64422   1.64871   1.64990   1.65317   1.65807
 Alpha virt. eigenvalues --    1.66045   1.66274   1.66507   1.66681   1.67023
 Alpha virt. eigenvalues --    1.67342   1.67550   1.68034   1.68136   1.68593
 Alpha virt. eigenvalues --    1.68779   1.69560   1.69881   1.70132   1.70731
 Alpha virt. eigenvalues --    1.70865   1.71094   1.71489   1.71994   1.72446
 Alpha virt. eigenvalues --    1.72693   1.72810   1.73627   1.74041   1.74532
 Alpha virt. eigenvalues --    1.74644   1.74812   1.74981   1.75283   1.75581
 Alpha virt. eigenvalues --    1.75698   1.76194   1.76306   1.76421   1.76954
 Alpha virt. eigenvalues --    1.77240   1.77704   1.78257   1.79104   1.79437
 Alpha virt. eigenvalues --    1.79650   1.79998   1.80380   1.80668   1.81045
 Alpha virt. eigenvalues --    1.81071   1.81509   1.81639   1.82295   1.82486
 Alpha virt. eigenvalues --    1.83206   1.83523   1.83784   1.84090   1.84381
 Alpha virt. eigenvalues --    1.84910   1.85081   1.85470   1.85933   1.86060
 Alpha virt. eigenvalues --    1.86545   1.86933   1.87090   1.88036   1.88161
 Alpha virt. eigenvalues --    1.88620   1.89277   1.89734   1.90061   1.90382
 Alpha virt. eigenvalues --    1.90701   1.91187   1.91609   1.91741   1.92061
 Alpha virt. eigenvalues --    1.92720   1.92780   1.93433   1.93807   1.93829
 Alpha virt. eigenvalues --    1.94647   1.94991   1.95226   1.95592   1.96044
 Alpha virt. eigenvalues --    1.96179   1.96661   1.96947   1.97297   1.97535
 Alpha virt. eigenvalues --    1.97926   1.98205   1.98925   1.99031   1.99432
 Alpha virt. eigenvalues --    1.99948   2.00389   2.01018   2.01055   2.01601
 Alpha virt. eigenvalues --    2.02056   2.02368   2.02873   2.03052   2.03297
 Alpha virt. eigenvalues --    2.03556   2.03709   2.04145   2.04190   2.04899
 Alpha virt. eigenvalues --    2.05658   2.06224   2.06781   2.06985   2.07335
 Alpha virt. eigenvalues --    2.07687   2.08060   2.08483   2.08901   2.09432
 Alpha virt. eigenvalues --    2.09575   2.09850   2.10250   2.10925   2.11350
 Alpha virt. eigenvalues --    2.11889   2.12116   2.12792   2.13039   2.13474
 Alpha virt. eigenvalues --    2.13778   2.13921   2.14008   2.14471   2.14537
 Alpha virt. eigenvalues --    2.14944   2.15245   2.15430   2.16046   2.16280
 Alpha virt. eigenvalues --    2.16816   2.17128   2.17670   2.17958   2.18324
 Alpha virt. eigenvalues --    2.18773   2.19534   2.19672   2.19927   2.20172
 Alpha virt. eigenvalues --    2.20437   2.21223   2.21926   2.22014   2.22196
 Alpha virt. eigenvalues --    2.22715   2.23220   2.23608   2.23802   2.24206
 Alpha virt. eigenvalues --    2.24590   2.25086   2.25682   2.26003   2.26816
 Alpha virt. eigenvalues --    2.26996   2.27687   2.27943   2.28121   2.28631
 Alpha virt. eigenvalues --    2.28857   2.29509   2.29677   2.29841   2.30272
 Alpha virt. eigenvalues --    2.30933   2.31459   2.31861   2.32217   2.32598
 Alpha virt. eigenvalues --    2.33295   2.33531   2.33842   2.34346   2.34548
 Alpha virt. eigenvalues --    2.34760   2.35076   2.35619   2.35788   2.36265
 Alpha virt. eigenvalues --    2.36449   2.36930   2.37760   2.37839   2.38315
 Alpha virt. eigenvalues --    2.38629   2.38810   2.38908   2.39299   2.39733
 Alpha virt. eigenvalues --    2.40336   2.40578   2.41083   2.42054   2.42235
 Alpha virt. eigenvalues --    2.42365   2.42828   2.43654   2.44129   2.44443
 Alpha virt. eigenvalues --    2.44727   2.44845   2.45250   2.46151   2.46288
 Alpha virt. eigenvalues --    2.46726   2.47366   2.47484   2.48363   2.48654
 Alpha virt. eigenvalues --    2.49017   2.49412   2.50006   2.50183   2.50333
 Alpha virt. eigenvalues --    2.51143   2.51577   2.51876   2.52077   2.52950
 Alpha virt. eigenvalues --    2.53315   2.53337   2.53750   2.54040   2.54988
 Alpha virt. eigenvalues --    2.55101   2.55239   2.55362   2.55711   2.56301
 Alpha virt. eigenvalues --    2.56645   2.56792   2.57070   2.57486   2.57958
 Alpha virt. eigenvalues --    2.58046   2.58155   2.58496   2.59393   2.59467
 Alpha virt. eigenvalues --    2.59684   2.60118   2.60305   2.60931   2.61103
 Alpha virt. eigenvalues --    2.61371   2.61569   2.61730   2.62281   2.62468
 Alpha virt. eigenvalues --    2.62672   2.63246   2.63744   2.63865   2.64196
 Alpha virt. eigenvalues --    2.64486   2.64916   2.65134   2.65716   2.66277
 Alpha virt. eigenvalues --    2.66658   2.66858   2.67267   2.67657   2.67945
 Alpha virt. eigenvalues --    2.68224   2.68460   2.69072   2.69233   2.69544
 Alpha virt. eigenvalues --    2.69983   2.70146   2.70675   2.71187   2.71396
 Alpha virt. eigenvalues --    2.71590   2.71843   2.72264   2.72409   2.72931
 Alpha virt. eigenvalues --    2.73311   2.73395   2.73681   2.74092   2.74600
 Alpha virt. eigenvalues --    2.75142   2.75324   2.75805   2.75954   2.76633
 Alpha virt. eigenvalues --    2.76739   2.77183   2.77551   2.77874   2.78210
 Alpha virt. eigenvalues --    2.78807   2.79169   2.79960   2.80025   2.80306
 Alpha virt. eigenvalues --    2.80729   2.81412   2.81602   2.81982   2.82345
 Alpha virt. eigenvalues --    2.82869   2.83338   2.83627   2.83924   2.84303
 Alpha virt. eigenvalues --    2.84584   2.84856   2.85197   2.85389   2.86029
 Alpha virt. eigenvalues --    2.86160   2.86570   2.86988   2.87552   2.87995
 Alpha virt. eigenvalues --    2.88104   2.88783   2.89054   2.89454   2.89504
 Alpha virt. eigenvalues --    2.89921   2.90385   2.90687   2.91186   2.91448
 Alpha virt. eigenvalues --    2.91733   2.91960   2.92728   2.92825   2.92973
 Alpha virt. eigenvalues --    2.93321   2.93995   2.94424   2.94569   2.94835
 Alpha virt. eigenvalues --    2.95047   2.95265   2.95786   2.96144   2.96212
 Alpha virt. eigenvalues --    2.96314   2.96600   2.96962   2.97489   2.97821
 Alpha virt. eigenvalues --    2.98111   2.98578   2.98807   2.98974   2.99436
 Alpha virt. eigenvalues --    2.99866   3.00055   3.00081   3.00703   3.01098
 Alpha virt. eigenvalues --    3.01291   3.01604   3.01796   3.02152   3.02364
 Alpha virt. eigenvalues --    3.02679   3.03084   3.03308   3.03463   3.03558
 Alpha virt. eigenvalues --    3.04036   3.04102   3.04688   3.05154   3.05281
 Alpha virt. eigenvalues --    3.05754   3.06347   3.06523   3.06775   3.06901
 Alpha virt. eigenvalues --    3.07211   3.07754   3.07962   3.08138   3.08511
 Alpha virt. eigenvalues --    3.08979   3.09030   3.09269   3.09609   3.09913
 Alpha virt. eigenvalues --    3.10243   3.10392   3.10559   3.10940   3.11195
 Alpha virt. eigenvalues --    3.11537   3.11737   3.12131   3.12554   3.12952
 Alpha virt. eigenvalues --    3.13430   3.13517   3.13801   3.13960   3.14125
 Alpha virt. eigenvalues --    3.14316   3.14703   3.15235   3.15419   3.15647
 Alpha virt. eigenvalues --    3.15925   3.16171   3.16536   3.16701   3.17177
 Alpha virt. eigenvalues --    3.17506   3.17666   3.17889   3.18025   3.18552
 Alpha virt. eigenvalues --    3.18864   3.19346   3.19900   3.20045   3.20377
 Alpha virt. eigenvalues --    3.20589   3.21168   3.21476   3.21789   3.22021
 Alpha virt. eigenvalues --    3.22500   3.22652   3.23112   3.23488   3.23609
 Alpha virt. eigenvalues --    3.24099   3.24368   3.24683   3.25076   3.25172
 Alpha virt. eigenvalues --    3.25333   3.25687   3.26009   3.26228   3.26366
 Alpha virt. eigenvalues --    3.26846   3.27383   3.27564   3.27811   3.28044
 Alpha virt. eigenvalues --    3.28442   3.28597   3.28950   3.29046   3.29400
 Alpha virt. eigenvalues --    3.29598   3.29866   3.30326   3.30471   3.30738
 Alpha virt. eigenvalues --    3.30815   3.31057   3.31377   3.31701   3.32178
 Alpha virt. eigenvalues --    3.32284   3.32589   3.32765   3.33120   3.33250
 Alpha virt. eigenvalues --    3.33618   3.33995   3.34420   3.34553   3.34883
 Alpha virt. eigenvalues --    3.35020   3.35366   3.35670   3.35909   3.36092
 Alpha virt. eigenvalues --    3.36215   3.36648   3.36736   3.36986   3.37074
 Alpha virt. eigenvalues --    3.37319   3.37805   3.38073   3.38171   3.38434
 Alpha virt. eigenvalues --    3.38664   3.39086   3.39388   3.39597   3.39787
 Alpha virt. eigenvalues --    3.39855   3.40220   3.40380   3.40597   3.41458
 Alpha virt. eigenvalues --    3.41760   3.41849   3.42172   3.42269   3.42681
 Alpha virt. eigenvalues --    3.43225   3.43566   3.44258   3.44432   3.44960
 Alpha virt. eigenvalues --    3.45062   3.45296   3.45711   3.46159   3.46758
 Alpha virt. eigenvalues --    3.47042   3.47207   3.47361   3.47737   3.48010
 Alpha virt. eigenvalues --    3.48283   3.49059   3.49356   3.49501   3.50054
 Alpha virt. eigenvalues --    3.50218   3.50463   3.50985   3.51114   3.51588
 Alpha virt. eigenvalues --    3.51849   3.52123   3.52145   3.52477   3.53063
 Alpha virt. eigenvalues --    3.53236   3.53909   3.54192   3.54704   3.54800
 Alpha virt. eigenvalues --    3.55317   3.55849   3.55994   3.56970   3.57058
 Alpha virt. eigenvalues --    3.57304   3.57619   3.57811   3.58284   3.58678
 Alpha virt. eigenvalues --    3.59254   3.59807   3.60174   3.60441   3.60698
 Alpha virt. eigenvalues --    3.60880   3.61189   3.61719   3.61992   3.62246
 Alpha virt. eigenvalues --    3.62794   3.62878   3.63904   3.64140   3.64654
 Alpha virt. eigenvalues --    3.64983   3.65337   3.65696   3.65964   3.66313
 Alpha virt. eigenvalues --    3.66781   3.67039   3.67331   3.67419   3.67568
 Alpha virt. eigenvalues --    3.68127   3.68750   3.68999   3.69105   3.69220
 Alpha virt. eigenvalues --    3.69746   3.69900   3.70519   3.70606   3.70788
 Alpha virt. eigenvalues --    3.71334   3.71658   3.71911   3.72638   3.73209
 Alpha virt. eigenvalues --    3.73296   3.73768   3.74148   3.74508   3.74744
 Alpha virt. eigenvalues --    3.75355   3.75538   3.75650   3.76294   3.76673
 Alpha virt. eigenvalues --    3.76904   3.77513   3.77921   3.78302   3.78695
 Alpha virt. eigenvalues --    3.79011   3.79383   3.79995   3.80224   3.80954
 Alpha virt. eigenvalues --    3.81094   3.81350   3.81872   3.82268   3.83147
 Alpha virt. eigenvalues --    3.83403   3.83706   3.84531   3.85055   3.85531
 Alpha virt. eigenvalues --    3.85878   3.86124   3.86356   3.87033   3.87348
 Alpha virt. eigenvalues --    3.88243   3.89033   3.89280   3.90232   3.90780
 Alpha virt. eigenvalues --    3.92153   3.92382   3.92869   3.93875   3.94343
 Alpha virt. eigenvalues --    3.94933   3.95132   3.95577   3.96105   3.97055
 Alpha virt. eigenvalues --    3.97450   3.97951   3.98190   3.98815   3.99121
 Alpha virt. eigenvalues --    3.99273   3.99767   4.00434   4.01483   4.01735
 Alpha virt. eigenvalues --    4.02574   4.02905   4.03275   4.04111   4.04203
 Alpha virt. eigenvalues --    4.04726   4.05069   4.05200   4.06316   4.06885
 Alpha virt. eigenvalues --    4.07136   4.08090   4.08454   4.08995   4.09082
 Alpha virt. eigenvalues --    4.09422   4.10714   4.10934   4.11538   4.12355
 Alpha virt. eigenvalues --    4.12573   4.13111   4.13670   4.14074   4.15147
 Alpha virt. eigenvalues --    4.15541   4.16397   4.16567   4.16640   4.17424
 Alpha virt. eigenvalues --    4.17522   4.18203   4.18574   4.19399   4.19532
 Alpha virt. eigenvalues --    4.20049   4.20885   4.21167   4.21428   4.22091
 Alpha virt. eigenvalues --    4.22401   4.22807   4.23141   4.23757   4.24066
 Alpha virt. eigenvalues --    4.24193   4.24959   4.25749   4.26042   4.26635
 Alpha virt. eigenvalues --    4.26934   4.27558   4.28543   4.28697   4.29473
 Alpha virt. eigenvalues --    4.29895   4.30096   4.30976   4.31110   4.32104
 Alpha virt. eigenvalues --    4.32855   4.32970   4.33796   4.34138   4.34404
 Alpha virt. eigenvalues --    4.35288   4.35426   4.35795   4.36831   4.37256
 Alpha virt. eigenvalues --    4.37937   4.38316   4.38660   4.38802   4.40374
 Alpha virt. eigenvalues --    4.40538   4.41609   4.41883   4.42527   4.42895
 Alpha virt. eigenvalues --    4.43970   4.44633   4.44786   4.45650   4.46291
 Alpha virt. eigenvalues --    4.47153   4.47411   4.48750   4.48827   4.49255
 Alpha virt. eigenvalues --    4.50287   4.51511   4.51768   4.52181   4.52971
 Alpha virt. eigenvalues --    4.53341   4.53541   4.54276   4.54668   4.56003
 Alpha virt. eigenvalues --    4.56463   4.57617   4.58067   4.58924   4.59199
 Alpha virt. eigenvalues --    4.60161   4.60641   4.60924   4.61569   4.62567
 Alpha virt. eigenvalues --    4.63442   4.63728   4.65750   4.66859   4.67355
 Alpha virt. eigenvalues --    4.68082   4.68468   4.69107   4.69450   4.70904
 Alpha virt. eigenvalues --    4.71620   4.71822   4.72615   4.72824   4.73930
 Alpha virt. eigenvalues --    4.74464   4.75243   4.76133   4.76805   4.77053
 Alpha virt. eigenvalues --    4.78745   4.79128   4.79924   4.80404   4.80852
 Alpha virt. eigenvalues --    4.81269   4.81934   4.83041   4.83326   4.83480
 Alpha virt. eigenvalues --    4.84002   4.85520   4.85776   4.86209   4.87015
 Alpha virt. eigenvalues --    4.88676   4.89180   4.89210   4.90007   4.90910
 Alpha virt. eigenvalues --    4.91300   4.92355   4.92911   4.93910   4.94620
 Alpha virt. eigenvalues --    4.96165   4.97284   4.97721   4.98674   4.99039
 Alpha virt. eigenvalues --    4.99787   4.99916   5.00557   5.01448   5.01949
 Alpha virt. eigenvalues --    5.02755   5.03130   5.03632   5.04989   5.06459
 Alpha virt. eigenvalues --    5.06828   5.08671   5.09262   5.09916   5.10130
 Alpha virt. eigenvalues --    5.10818   5.11256   5.12358   5.13298   5.13515
 Alpha virt. eigenvalues --    5.14269   5.14540   5.15500   5.16747   5.17589
 Alpha virt. eigenvalues --    5.18607   5.18799   5.19419   5.20550   5.21236
 Alpha virt. eigenvalues --    5.21370   5.22248   5.22808   5.23089   5.24391
 Alpha virt. eigenvalues --    5.25379   5.25439   5.25651   5.26513   5.26861
 Alpha virt. eigenvalues --    5.27764   5.28082   5.29628   5.30658   5.31666
 Alpha virt. eigenvalues --    5.32616   5.34127   5.34715   5.35452   5.36086
 Alpha virt. eigenvalues --    5.38802   5.39605   5.39884   5.40716   5.41746
 Alpha virt. eigenvalues --    5.42366   5.43515   5.43976   5.44805   5.45187
 Alpha virt. eigenvalues --    5.46112   5.47031   5.47664   5.47845   5.49373
 Alpha virt. eigenvalues --    5.50741   5.52338   5.53083   5.54905   5.55709
 Alpha virt. eigenvalues --    5.56042   5.57016   5.57921   5.60010   5.61429
 Alpha virt. eigenvalues --    5.61635   5.62270   5.62913   5.63830   5.64795
 Alpha virt. eigenvalues --    5.65809   5.67642   5.67807   5.68653   5.69052
 Alpha virt. eigenvalues --    5.69798   5.70064   5.71816   5.72543   5.72975
 Alpha virt. eigenvalues --    5.74402   5.74917   5.76956   5.79985   5.82973
 Alpha virt. eigenvalues --    5.84298   5.85769   5.86284   5.88151   5.89225
 Alpha virt. eigenvalues --    5.89893   5.91812   5.99395   5.99833   6.01778
 Alpha virt. eigenvalues --    6.03191   6.04736   6.05428   6.06215   6.13606
 Alpha virt. eigenvalues --    6.13885   6.14016   6.15786   6.16795   6.19999
 Alpha virt. eigenvalues --    6.25361   6.26654   6.27109   6.27718   6.28947
 Alpha virt. eigenvalues --    6.34846   6.36314   6.41051   6.41589   6.42092
 Alpha virt. eigenvalues --    6.43427   6.45182   6.45502   6.46042   6.46616
 Alpha virt. eigenvalues --    6.48804   6.52023   6.54858   6.55125   6.56914
 Alpha virt. eigenvalues --    6.63620   6.66240   6.69191   6.71897   6.74950
 Alpha virt. eigenvalues --    6.79691   6.84170   6.86896   6.88026   6.95170
 Alpha virt. eigenvalues --    6.99657   7.00572   7.05081   7.08426   7.09426
 Alpha virt. eigenvalues --    7.13995   7.18948   7.22240   7.22646   7.23446
 Alpha virt. eigenvalues --    7.29566   7.35408  22.29612  22.38262  22.42241
 Alpha virt. eigenvalues --   22.42474  22.51260  22.55930  22.56358  22.60605
 Alpha virt. eigenvalues --   22.61894  22.70005  22.71455  22.76993  22.85160
 Alpha virt. eigenvalues --   22.86290  22.95235  22.95891  22.98221  23.01660
 Alpha virt. eigenvalues --   23.05821  23.08578  23.13362  23.17846  23.19709
 Alpha virt. eigenvalues --   23.29961  23.34484  23.39790  23.45555  23.49896
 Alpha virt. eigenvalues --   23.52224  23.55621  23.59487  23.62768  23.75265
 Alpha virt. eigenvalues --   23.78811  23.82663  23.94457  23.97834  24.07012
 Alpha virt. eigenvalues --   32.46137  32.98200  33.03837  33.07638  33.10944
 Alpha virt. eigenvalues --   33.21626  43.95025  43.98377  44.00170  44.01077
 Alpha virt. eigenvalues --   44.27875
          Condensed to atoms (all electrons):
 Mulliken charges:
               1
     1  C   -0.358996
     2  C    0.165473
     3  N   -0.183701
     4  C   -0.192059
     5  C    0.059109
     6  N    0.216923
     7  H    0.243335
     8  C   -0.436541
     9  C   -0.457644
    10  C   -0.524813
    11  C   -0.499699
    12  C    0.303785
    13  C    0.048551
    14  C   -0.072286
    15  C    0.274857
    16  C   -0.403030
    17  C   -0.432344
    18  C   -0.063706
    19  C    0.214557
    20  O   -0.328484
    21  O   -0.340276
    22  C    0.244943
    23  C   -0.108489
    24  C    0.030921
    25  C    0.316337
    26  C   -0.399467
    27  C   -0.144868
    28  C   -0.302461
    29  C    0.185075
    30  C   -0.214134
    31  C    0.080510
    32  C    0.225250
    33  C   -0.571091
    34  C   -0.164943
    35  C   -0.343752
    36  C    0.184275
    37  C   -0.044753
    38  C    0.026498
    39  C    0.243460
    40  C   -0.403783
    41  C   -0.353136
    42  C   -0.150179
    43  C    0.217274
    44  O   -0.295064
    45  O   -0.336464
    46  N    0.017281
    47  N   -0.005684
    48  N   -0.030995
    49  N    0.050333
    50  Fe  -0.395387
    51  O   -0.552274
    52  H    0.159545
    53  H    0.146971
    54  H    0.153519
    55  H    0.184941
    56  H    0.217331
    57  H   -0.027237
    58  H    0.084177
    59  H    0.082023
    60  H    0.161757
    61  H    0.087949
    62  H    0.132680
    63  H    0.139957
    64  H    0.125752
    65  H    0.115274
    66  H    0.118982
    67  H    0.092091
    68  H    0.137618
    69  H    0.149196
    70  H    0.137688
    71  H    0.121838
    72  H    0.088033
    73  H    0.126661
    74  H    0.133427
    75  H    0.260883
    76  H    0.229807
    77  H    0.242796
    78  H    0.122608
    79  H    0.140447
    80  H    0.054478
    81  H    0.127142
    82  H    0.138256
    83  H    0.134264
    84  H    0.101815
    85  H    0.118111
    86  H    0.133756
    87  H    0.105411
    88  H    0.275760
    89  H    0.353390
    90  H    0.352652
 Sum of Mulliken charges =  -0.00000
 Mulliken charges with hydrogens summed into heavy atoms:
               1
     1  C    0.101039
     2  C    0.165473
     3  N    0.059635
     4  C   -0.007118
     5  C    0.276440
     6  N    0.189686
     8  C   -0.352364
     9  C   -0.375621
    10  C   -0.363056
    11  C   -0.411751
    12  C    0.303785
    13  C    0.048551
    14  C   -0.072286
    15  C    0.274857
    16  C   -0.004641
    17  C   -0.198087
    18  C    0.166003
    19  C    0.214557
    20  O    0.024906
    21  O   -0.340276
    22  C    0.244943
    23  C   -0.108489
    24  C    0.030921
    25  C    0.316337
    26  C    0.009255
    27  C   -0.056835
    28  C   -0.042373
    29  C    0.185075
    30  C   -0.214134
    31  C    0.080510
    32  C    0.225250
    33  C    0.162396
    34  C   -0.042335
    35  C   -0.148827
    36  C    0.184275
    37  C   -0.044753
    38  C    0.026498
    39  C    0.243460
    40  C   -0.004121
    41  C   -0.133209
    42  C    0.088988
    43  C    0.217274
    44  O   -0.295064
    45  O    0.016188
    46  N    0.017281
    47  N   -0.005684
    48  N   -0.030995
    49  N    0.050333
    50  Fe  -0.395387
    51  O   -0.276514
 Electronic spatial extent (au):  <R**2>=          32223.0722
 Charge=              0.0000 electrons
 Dipole moment (field-independent basis, Debye):
    X=             -2.6345    Y=             -0.2415    Z=             13.9463  Tot=             14.1950
 Quadrupole moment (field-independent basis, Debye-Ang):
   XX=           -331.8526   YY=           -257.3402   ZZ=           -274.0113
   XY=              0.6956   XZ=             -9.8455   YZ=             -4.1555
 Traceless Quadrupole moment (field-independent basis, Debye-Ang):
   XX=            -44.1179   YY=             30.3945   ZZ=             13.7234
   XY=              0.6956   XZ=             -9.8455   YZ=             -4.1555
 Octapole moment (field-independent basis, Debye-Ang**2):
  XXX=            -66.8069  YYY=            121.4141  ZZZ=            205.2773  XYY=            298.3424
  XXY=             34.8291  XXZ=            172.0417  XZZ=            -49.1848  YZZ=            -19.6392
  YYZ=             -1.4963  XYZ=            -63.1909
 Hexadecapole moment (field-independent basis, Debye-Ang**3):
 XXXX=         -27019.8716 YYYY=         -14216.2502 ZZZZ=          -2983.5591 XXXY=            802.5420
 XXXZ=            399.3567 YYYX=           -727.9673 YYYZ=           -255.8962 ZZZX=           -439.7692
 ZZZY=            -48.4950 XXYY=          -4958.1168 XXZZ=          -4993.6896 YYZZ=          -2943.9613
 XXYZ=           -404.6126 YYXZ=            -94.8644 ZZXY=             97.2691
 N-N= 7.641422371896D+03 E-N=-2.336392392406D+04  KE= 3.429794065491D+03
 ******************************Gaussian NBO Version 3.1******************************
             N A T U R A L   A T O M I C   O R B I T A L   A N D
          N A T U R A L   B O N D   O R B I T A L   A N A L Y S I S
 ******************************Gaussian NBO Version 3.1******************************
       /RESON  / : Allow strongly delocalized NBO set

 Analyzing the SCF density

 Job title: 1ccc_II_S_nbo                                                   

 Storage needed:   9789442 in NPA,  13031221 in NBO (2147441708 available)
 GSVD:  LWork=     1403536 too small for GESVD, short by     2289584 words or     2289584 for optimal perf.


 NATURAL POPULATIONS:  Natural atomic orbital occupancies 
                                                          
   NAO  Atom  No  lang   Type(AO)    Occupancy      Energy
 ----------------------------------------------------------
     1    C    1  S      Cor( 1S)     1.99938     -10.12553
     2    C    1  S      Val( 2S)     1.11369      -0.35549
     3    C    1  S      Ryd( 3S)     0.00063       0.97008
     4    C    1  S      Ryd( 4S)     0.00012       1.78848
     5    C    1  S      Ryd( 5S)     0.00000      21.64432
     6    C    1  px     Val( 2p)     1.23143      -0.16242
     7    C    1  px     Ryd( 3p)     0.00018       0.84355
     8    C    1  px     Ryd( 4p)     0.00007       1.23652
     9    C    1  py     Val( 2p)     1.16836      -0.16153
    10    C    1  py     Ryd( 3p)     0.00080       0.84677
    11    C    1  py     Ryd( 4p)     0.00014       1.20340
    12    C    1  pz     Val( 2p)     1.11331      -0.15519
    13    C    1  pz     Ryd( 3p)     0.00036       0.81476
    14    C    1  pz     Ryd( 4p)     0.00023       1.16213
    15    C    1  dxy    Ryd( 4d)     0.00028       2.49029
    16    C    1  dxy    Ryd( 3d)     0.00018       2.13692
    17    C    1  dxz    Ryd( 4d)     0.00074       2.85695
    18    C    1  dxz    Ryd( 3d)     0.00005       2.12058
    19    C    1  dyz    Ryd( 4d)     0.00073       3.20521
    20    C    1  dyz    Ryd( 3d)     0.00002       2.52851
    21    C    1  dx2y2  Ryd( 4d)     0.00071       2.97446
    22    C    1  dx2y2  Ryd( 3d)     0.00005       2.27246
    23    C    1  dz2    Ryd( 4d)     0.00033       2.83519
    24    C    1  dz2    Ryd( 3d)     0.00005       2.41051
    25    C    1  f(0)   Ryd( 4f)     0.00002       3.36292
    26    C    1  f(C1)  Ryd( 4f)     0.00003       3.30271
    27    C    1  f(S1)  Ryd( 4f)     0.00007       3.37385
    28    C    1  f(C2)  Ryd( 4f)     0.00015       3.69461
    29    C    1  f(S2)  Ryd( 4f)     0.00003       3.27056
    30    C    1  f(C3)  Ryd( 4f)     0.00005       3.29459
    31    C    1  f(S3)  Ryd( 4f)     0.00003       3.31818

    32    C    2  S      Cor( 1S)     1.99915     -10.17508
    33    C    2  S      Val( 2S)     0.88931      -0.25724
    34    C    2  S      Ryd( 3S)     0.00124       1.26930
    35    C    2  S      Ryd( 4S)     0.00008       1.47658
    36    C    2  S      Ryd( 5S)     0.00000      21.63389
    37    C    2  px     Val( 2p)     1.04357      -0.17446
    38    C    2  px     Ryd( 3p)     0.00259       0.81814
    39    C    2  px     Ryd( 4p)     0.00050       1.16566
    40    C    2  py     Val( 2p)     0.86238      -0.08886
    41    C    2  py     Ryd( 3p)     0.00329       1.27216
    42    C    2  py     Ryd( 4p)     0.00021       1.49673
    43    C    2  pz     Val( 2p)     1.06270      -0.13397
    44    C    2  pz     Ryd( 3p)     0.00344       1.32999
    45    C    2  pz     Ryd( 4p)     0.00027       1.71200
    46    C    2  dxy    Ryd( 4d)     0.00064       3.14977
    47    C    2  dxy    Ryd( 3d)     0.00010       2.36152
    48    C    2  dxz    Ryd( 4d)     0.00070       3.00926
    49    C    2  dxz    Ryd( 3d)     0.00015       2.45585
    50    C    2  dyz    Ryd( 4d)     0.00056       3.58984
    51    C    2  dyz    Ryd( 3d)     0.00007       3.56502
    52    C    2  dx2y2  Ryd( 4d)     0.00041       3.79888
    53    C    2  dx2y2  Ryd( 3d)     0.00021       2.85618
    54    C    2  dz2    Ryd( 4d)     0.00083       3.64368
    55    C    2  dz2    Ryd( 3d)     0.00011       3.14997
    56    C    2  f(0)   Ryd( 4f)     0.00008       3.90959
    57    C    2  f(C1)  Ryd( 4f)     0.00015       3.48024
    58    C    2  f(S1)  Ryd( 4f)     0.00017       4.08432
    59    C    2  f(C2)  Ryd( 4f)     0.00012       3.77297
    60    C    2  f(S2)  Ryd( 4f)     0.00004       3.44649
    61    C    2  f(C3)  Ryd( 4f)     0.00008       3.44102
    62    C    2  f(S3)  Ryd( 4f)     0.00007       3.48256

    63    N    3  S      Cor( 1S)     1.99929     -14.29143
    64    N    3  S      Val( 2S)     1.20950      -0.63299
    65    N    3  S      Ryd( 3S)     0.00043       1.61566
    66    N    3  S      Ryd( 4S)     0.00009       2.35501
    67    N    3  S      Ryd( 5S)     0.00000      30.87847
    68    N    3  px     Val( 2p)     1.50632      -0.34691
    69    N    3  px     Ryd( 3p)     0.00166       0.69618
    70    N    3  px     Ryd( 4p)     0.00033       2.18738
    71    N    3  py     Val( 2p)     1.34086      -0.33767
    72    N    3  py     Ryd( 3p)     0.00190       1.04685
    73    N    3  py     Ryd( 4p)     0.00021       2.47261
    74    N    3  pz     Val( 2p)     1.36893      -0.34177
    75    N    3  pz     Ryd( 3p)     0.00207       1.00470
    76    N    3  pz     Ryd( 4p)     0.00033       2.92490
    77    N    3  dxy    Ryd( 3d)     0.00152       1.29800
    78    N    3  dxy    Ryd( 4d)     0.00010       4.50348
    79    N    3  dxz    Ryd( 3d)     0.00208       1.33050
    80    N    3  dxz    Ryd( 4d)     0.00011       4.52616
    81    N    3  dyz    Ryd( 3d)     0.00149       1.62652
    82    N    3  dyz    Ryd( 4d)     0.00025       4.88291
    83    N    3  dx2y2  Ryd( 3d)     0.00304       1.52907
    84    N    3  dx2y2  Ryd( 4d)     0.00005       4.70486
    85    N    3  dz2    Ryd( 3d)     0.00388       1.62295
    86    N    3  dz2    Ryd( 4d)     0.00009       4.82793
    87    N    3  f(0)   Ryd( 4f)     0.00016       4.79925
    88    N    3  f(C1)  Ryd( 4f)     0.00023       4.52564
    89    N    3  f(S1)  Ryd( 4f)     0.00015       5.09248
    90    N    3  f(C2)  Ryd( 4f)     0.00017       4.51157
    91    N    3  f(S2)  Ryd( 4f)     0.00017       4.64090
    92    N    3  f(C3)  Ryd( 4f)     0.00025       4.46464
    93    N    3  f(S3)  Ryd( 4f)     0.00021       4.55707

    94    C    4  S      Cor( 1S)     1.99900     -10.14384
    95    C    4  S      Val( 2S)     0.93286      -0.24262
    96    C    4  S      Ryd( 3S)     0.00137       1.42462
    97    C    4  S      Ryd( 4S)     0.00013       1.48685
    98    C    4  S      Ryd( 5S)     0.00000      21.77969
    99    C    4  px     Val( 2p)     1.05234      -0.17012
   100    C    4  px     Ryd( 3p)     0.00257       0.81323
   101    C    4  px     Ryd( 4p)     0.00086       1.18291
   102    C    4  py     Val( 2p)     1.07225      -0.10287
   103    C    4  py     Ryd( 3p)     0.00243       1.26403
   104    C    4  py     Ryd( 4p)     0.00117       1.37886
   105    C    4  pz     Val( 2p)     0.96868      -0.11180
   106    C    4  pz     Ryd( 3p)     0.00296       1.15512
   107    C    4  pz     Ryd( 4p)     0.00074       1.52603
   108    C    4  dxy    Ryd( 3d)     0.00134       1.25729
   109    C    4  dxy    Ryd( 4d)     0.00009       3.09418
   110    C    4  dxz    Ryd( 3d)     0.00096       1.25607
   111    C    4  dxz    Ryd( 4d)     0.00025       3.19920
   112    C    4  dyz    Ryd( 3d)     0.00139       1.80094
   113    C    4  dyz    Ryd( 4d)     0.00055       3.73411
   114    C    4  dx2y2  Ryd( 3d)     0.00074       1.57890
   115    C    4  dx2y2  Ryd( 4d)     0.00019       3.63178
   116    C    4  dz2    Ryd( 3d)     0.00102       1.62114
   117    C    4  dz2    Ryd( 4d)     0.00033       3.56619
   118    C    4  f(0)   Ryd( 4f)     0.00011       3.91445
   119    C    4  f(C1)  Ryd( 4f)     0.00014       3.48296
   120    C    4  f(S1)  Ryd( 4f)     0.00006       4.19603
   121    C    4  f(C2)  Ryd( 4f)     0.00013       3.73277
   122    C    4  f(S2)  Ryd( 4f)     0.00006       3.57670
   123    C    4  f(C3)  Ryd( 4f)     0.00012       3.52630
   124    C    4  f(S3)  Ryd( 4f)     0.00011       3.70418

   125    C    5  S      Cor( 1S)     1.99938     -10.20655
   126    C    5  S      Val( 2S)     0.89946      -0.25359
   127    C    5  S      Ryd( 3S)     0.00191       1.30203
   128    C    5  S      Ryd( 4S)     0.00012       1.53254
   129    C    5  S      Ryd( 5S)     0.00001      21.48589
   130    C    5  px     Val( 2p)     0.95807      -0.18711
   131    C    5  px     Ryd( 3p)     0.00356       0.82529
   132    C    5  px     Ryd( 4p)     0.00071       1.09876
   133    C    5  py     Val( 2p)     1.09141      -0.13214
   134    C    5  py     Ryd( 3p)     0.00260       1.26474
   135    C    5  py     Ryd( 4p)     0.00110       1.34023
   136    C    5  pz     Val( 2p)     0.80632      -0.09630
   137    C    5  pz     Ryd( 3p)     0.00463       1.17937
   138    C    5  pz     Ryd( 4p)     0.00077       1.35789
   139    C    5  dxy    Ryd( 4d)     0.00038       3.16296
   140    C    5  dxy    Ryd( 3d)     0.00024       2.26902
   141    C    5  dxz    Ryd( 4d)     0.00073       3.28598
   142    C    5  dxz    Ryd( 3d)     0.00013       2.38264
   143    C    5  dyz    Ryd( 4d)     0.00055       4.00053
   144    C    5  dyz    Ryd( 3d)     0.00026       2.67315
   145    C    5  dx2y2  Ryd( 4d)     0.00037       3.79012
   146    C    5  dx2y2  Ryd( 3d)     0.00014       2.76142
   147    C    5  dz2    Ryd( 4d)     0.00065       3.92603
   148    C    5  dz2    Ryd( 3d)     0.00011       2.62761
   149    C    5  f(0)   Ryd( 4f)     0.00007       3.90694
   150    C    5  f(C1)  Ryd( 4f)     0.00004       3.50222
   151    C    5  f(S1)  Ryd( 4f)     0.00006       4.06903
   152    C    5  f(C2)  Ryd( 4f)     0.00009       3.75862
   153    C    5  f(S2)  Ryd( 4f)     0.00006       3.42955
   154    C    5  f(C3)  Ryd( 4f)     0.00009       3.32249
   155    C    5  f(S3)  Ryd( 4f)     0.00013       3.66627

   156    N    6  S      Cor( 1S)     1.99921     -14.29594
   157    N    6  S      Val( 2S)     1.16130      -0.58665
   158    N    6  S      Ryd( 3S)     0.00332       1.95062
   159    N    6  S      Ryd( 4S)     0.00013       3.64161
   160    N    6  S      Ryd( 5S)     0.00000      30.57340
   161    N    6  px     Val( 2p)     1.44496      -0.32839
   162    N    6  px     Ryd( 3p)     0.00372       0.79474
   163    N    6  px     Ryd( 4p)     0.00029       2.33715
   164    N    6  py     Val( 2p)     1.29560      -0.32471
   165    N    6  py     Ryd( 3p)     0.00413       1.36208
   166    N    6  py     Ryd( 4p)     0.00012       3.26080
   167    N    6  pz     Val( 2p)     1.31716      -0.31727
   168    N    6  pz     Ryd( 3p)     0.00647       1.54746
   169    N    6  pz     Ryd( 4p)     0.00025       3.29401
   170    N    6  dxy    Ryd( 3d)     0.00099       1.41834
   171    N    6  dxy    Ryd( 4d)     0.00018       4.66550
   172    N    6  dxz    Ryd( 3d)     0.00312       1.48374
   173    N    6  dxz    Ryd( 4d)     0.00009       4.70266
   174    N    6  dyz    Ryd( 3d)     0.00499       1.89928
   175    N    6  dyz    Ryd( 4d)     0.00013       5.10060
   176    N    6  dx2y2  Ryd( 3d)     0.00250       1.61451
   177    N    6  dx2y2  Ryd( 4d)     0.00010       4.80433
   178    N    6  dz2    Ryd( 3d)     0.00165       1.94931
   179    N    6  dz2    Ryd( 4d)     0.00026       5.08276
   180    N    6  f(0)   Ryd( 4f)     0.00028       5.26301
   181    N    6  f(C1)  Ryd( 4f)     0.00020       4.56793
   182    N    6  f(S1)  Ryd( 4f)     0.00007       5.04021
   183    N    6  f(C2)  Ryd( 4f)     0.00025       4.85486
   184    N    6  f(S2)  Ryd( 4f)     0.00006       4.63113
   185    N    6  f(C3)  Ryd( 4f)     0.00025       4.48482
   186    N    6  f(S3)  Ryd( 4f)     0.00019       4.52877

   187    H    7  S      Val( 1S)     0.57287       0.03373
   188    H    7  S      Ryd( 3S)     0.00044       1.43476
   189    H    7  S      Ryd( 2S)     0.00036       1.25690
   190    H    7  px     Ryd( 2p)     0.00044       2.36361
   191    H    7  py     Ryd( 2p)     0.00024       2.76016
   192    H    7  pz     Ryd( 2p)     0.00027       2.81909

   193    C    8  S      Cor( 1S)     1.99911     -10.06113
   194    C    8  S      Val( 2S)     0.95422      -0.19338
   195    C    8  S      Ryd( 3S)     0.00077       1.50280
   196    C    8  S      Ryd( 4S)     0.00001       1.74077
   197    C    8  S      Ryd( 5S)     0.00000      21.29104
   198    C    8  px     Val( 2p)     1.14808      -0.04577
   199    C    8  px     Ryd( 3p)     0.00273       1.01284
   200    C    8  px     Ryd( 4p)     0.00050       1.85933
   201    C    8  py     Val( 2p)     1.03721      -0.02825
   202    C    8  py     Ryd( 3p)     0.00149       1.08853
   203    C    8  py     Ryd( 4p)     0.00034       2.03668
   204    C    8  pz     Val( 2p)     1.03295      -0.10639
   205    C    8  pz     Ryd( 3p)     0.00369       0.56248
   206    C    8  pz     Ryd( 4p)     0.00025       1.52070
   207    C    8  dxy    Ryd( 4d)     0.00046       4.01937
   208    C    8  dxy    Ryd( 3d)     0.00004       3.62411
   209    C    8  dxz    Ryd( 4d)     0.00013       3.03163
   210    C    8  dxz    Ryd( 3d)     0.00005       2.50424
   211    C    8  dyz    Ryd( 4d)     0.00048       3.20080
   212    C    8  dyz    Ryd( 3d)     0.00009       2.61740
   213    C    8  dx2y2  Ryd( 4d)     0.00062       3.81861
   214    C    8  dx2y2  Ryd( 3d)     0.00004       3.80971
   215    C    8  dz2    Ryd( 4d)     0.00026       3.69906
   216    C    8  dz2    Ryd( 3d)     0.00004       3.22680
   217    C    8  f(0)   Ryd( 4f)     0.00022       3.42806
   218    C    8  f(C1)  Ryd( 4f)     0.00011       3.48768
   219    C    8  f(S1)  Ryd( 4f)     0.00007       3.94388
   220    C    8  f(C2)  Ryd( 4f)     0.00002       3.61106
   221    C    8  f(S2)  Ryd( 4f)     0.00001       3.45040
   222    C    8  f(C3)  Ryd( 4f)     0.00010       4.49239
   223    C    8  f(S3)  Ryd( 4f)     0.00002       4.30379

   224    C    9  S      Cor( 1S)     1.99910     -10.06926
   225    C    9  S      Val( 2S)     0.96418      -0.20292
   226    C    9  S      Ryd( 3S)     0.00087       1.63155
   227    C    9  S      Ryd( 4S)     0.00001       1.63257
   228    C    9  S      Ryd( 5S)     0.00000      21.50984
   229    C    9  px     Val( 2p)     1.02925      -0.03185
   230    C    9  px     Ryd( 3p)     0.00154       1.06722
   231    C    9  px     Ryd( 4p)     0.00033       2.02772
   232    C    9  py     Val( 2p)     1.15688      -0.04445
   233    C    9  py     Ryd( 3p)     0.00249       1.01917
   234    C    9  py     Ryd( 4p)     0.00038       1.90191
   235    C    9  pz     Val( 2p)     1.02354      -0.11080
   236    C    9  pz     Ryd( 3p)     0.00339       0.56738
   237    C    9  pz     Ryd( 4p)     0.00019       1.44110
   238    C    9  dxy    Ryd( 3d)     0.00165       2.25712
   239    C    9  dxy    Ryd( 4d)     0.00022       3.79716
   240    C    9  dxz    Ryd( 3d)     0.00066       1.63264
   241    C    9  dxz    Ryd( 4d)     0.00010       3.09044
   242    C    9  dyz    Ryd( 3d)     0.00035       1.46065
   243    C    9  dyz    Ryd( 4d)     0.00010       2.84681
   244    C    9  dx2y2  Ryd( 3d)     0.00082       2.57066
   245    C    9  dx2y2  Ryd( 4d)     0.00030       4.08478
   246    C    9  dz2    Ryd( 3d)     0.00106       1.92728
   247    C    9  dz2    Ryd( 4d)     0.00005       3.52260
   248    C    9  f(0)   Ryd( 4f)     0.00020       3.45768
   249    C    9  f(C1)  Ryd( 4f)     0.00009       4.02968
   250    C    9  f(S1)  Ryd( 4f)     0.00008       3.73741
   251    C    9  f(C2)  Ryd( 4f)     0.00001       3.51279
   252    C    9  f(S2)  Ryd( 4f)     0.00002       3.55207
   253    C    9  f(C3)  Ryd( 4f)     0.00002       4.26962
   254    C    9  f(S3)  Ryd( 4f)     0.00015       4.39572

   255    C   10  S      Cor( 1S)     1.99909     -10.05546
   256    C   10  S      Val( 2S)     0.95244      -0.18870
   257    C   10  S      Ryd( 3S)     0.00087       1.51286
   258    C   10  S      Ryd( 4S)     0.00064       2.46948
   259    C   10  S      Ryd( 5S)     0.00001      19.37889
   260    C   10  px     Val( 2p)     1.17537      -0.04533
   261    C   10  px     Ryd( 3p)     0.00283       1.09975
   262    C   10  px     Ryd( 4p)     0.00030       2.00843
   263    C   10  py     Val( 2p)     1.03509      -0.02229
   264    C   10  py     Ryd( 3p)     0.00190       1.13692
   265    C   10  py     Ryd( 4p)     0.00035       2.06831
   266    C   10  pz     Val( 2p)     1.00404      -0.10317
   267    C   10  pz     Ryd( 3p)     0.00317       0.60934
   268    C   10  pz     Ryd( 4p)     0.00021       1.45366
   269    C   10  dxy    Ryd( 3d)     0.00163       2.29278
   270    C   10  dxy    Ryd( 4d)     0.00021       3.79086
   271    C   10  dxz    Ryd( 3d)     0.00032       1.46093
   272    C   10  dxz    Ryd( 4d)     0.00010       2.87091
   273    C   10  dyz    Ryd( 3d)     0.00066       1.69635
   274    C   10  dyz    Ryd( 4d)     0.00013       3.19009
   275    C   10  dx2y2  Ryd( 3d)     0.00100       2.65176
   276    C   10  dx2y2  Ryd( 4d)     0.00029       4.13208
   277    C   10  dz2    Ryd( 3d)     0.00119       1.91126
   278    C   10  dz2    Ryd( 4d)     0.00006       3.50945
   279    C   10  f(0)   Ryd( 4f)     0.00019       3.48768
   280    C   10  f(C1)  Ryd( 4f)     0.00008       3.70809
   281    C   10  f(S1)  Ryd( 4f)     0.00010       4.09065
   282    C   10  f(C2)  Ryd( 4f)     0.00002       3.59874
   283    C   10  f(S2)  Ryd( 4f)     0.00002       3.58705
   284    C   10  f(C3)  Ryd( 4f)     0.00014       4.48970
   285    C   10  f(S3)  Ryd( 4f)     0.00002       4.27438

   286    C   11  S      Cor( 1S)     1.99908     -10.05896
   287    C   11  S      Val( 2S)     0.95051      -0.19325
   288    C   11  S      Ryd( 3S)     0.00096       1.79190
   289    C   11  S      Ryd( 4S)     0.00062       2.95280
   290    C   11  S      Ryd( 5S)     0.00003      18.29392
   291    C   11  px     Val( 2p)     1.03752      -0.03469
   292    C   11  px     Ryd( 3p)     0.00181       1.08172
   293    C   11  px     Ryd( 4p)     0.00036       2.00548
   294    C   11  py     Val( 2p)     1.16164      -0.04786
   295    C   11  py     Ryd( 3p)     0.00264       1.08826
   296    C   11  py     Ryd( 4p)     0.00032       2.06844
   297    C   11  pz     Val( 2p)     1.05215      -0.10917
   298    C   11  pz     Ryd( 3p)     0.00344       0.62695
   299    C   11  pz     Ryd( 4p)     0.00024       1.50645
   300    C   11  dxy    Ryd( 3d)     0.00159       2.29416
   301    C   11  dxy    Ryd( 4d)     0.00019       3.73737
   302    C   11  dxz    Ryd( 3d)     0.00066       1.77816
   303    C   11  dxz    Ryd( 4d)     0.00010       3.23576
   304    C   11  dyz    Ryd( 3d)     0.00045       1.54289
   305    C   11  dyz    Ryd( 4d)     0.00010       2.90585
   306    C   11  dx2y2  Ryd( 3d)     0.00088       2.54548
   307    C   11  dx2y2  Ryd( 4d)     0.00028       4.06114
   308    C   11  dz2    Ryd( 3d)     0.00109       1.89652
   309    C   11  dz2    Ryd( 4d)     0.00005       3.40351
   310    C   11  f(0)   Ryd( 4f)     0.00018       3.58732
   311    C   11  f(C1)  Ryd( 4f)     0.00012       3.98054
[...]
  1735. BD*(   1) C  17 - C  18          0.01728     0.38179   
  1736. BD*(   1) C  17 - H  65          0.01604     0.41385   
  1737. BD*(   1) C  17 - H  66          0.01553     0.40286   
  1738. BD*(   1) C  18 - C  19          0.07382     0.34317   
  1739. BD*(   1) C  18 - H  67          0.01283     0.39101   
  1740. BD*(   1) C  18 - H  68          0.01029     0.40871   
  1741. BD*(   1) C  19 - O  20          0.06848     0.55943   
  1742. BD*(   1) C  19 - O  21          0.03994     0.61626   
  1743. BD*(   2) C  19 - O  21          0.20399     0.03427  1744(v),1742(g),1735(v)
                                                    651(g)
  1744. BD*(   1) O  20 - H  89          0.01517     0.38405   
  1745. BD*(   1) C  22 - C  23          0.03012     0.54191   
  1746. BD*(   1) C  22 - N  47          0.02649     0.55244   
  1747. BD*(   1) C  23 - C  24          0.02751     0.56273   
  1748. BD*(   2) C  23 - C  24          0.33680     0.05489  1758(v),1753(v),178(v)
                                                    1755(v),1754(v),774(g)
  1749. BD*(   1) C  23 - C  26          0.01588     0.38498   
  1750. BD*(   1) C  24 - C  25          0.03191     0.56496   
  1751. BD*(   1) C  24 - C  27          0.02367     0.55492   
  1752. BD*(   1) C  25 - N  47          0.02703     0.57153   
  1753. BD*(   2) C  25 - N  47          0.58919     0.02244  1748(v),171(v),178(v),800(g)
                                                    1786(r),1370(g),409(v)
                                                    798(g),190(v)
  1754. BD*(   1) C  26 - H  69          0.00968     0.40851   
  1755. BD*(   1) C  26 - H  70          0.00991     0.40426   
  1756. BD*(   1) C  26 - H  71          0.00617     0.41563   
  1757. BD*(   1) C  27 - C  28          0.00764     0.51383   
  1758. BD*(   2) C  27 - C  28          0.12389     0.02807  1748(v),877(g)
  1759. BD*(   1) C  27 - H  72          0.01568     0.46298   
  1760. BD*(   1) C  28 - H  73          0.00748     0.44943   
  1761. BD*(   1) C  28 - H  74          0.00446     0.45155   
  1762. BD*(   1) C  29 - C  30          0.04274     0.53026   
  1763. BD*(   1) C  29 - N  48          0.02704     0.52572   
  1764. BD*(   1) C  30 - C  31          0.05012     0.52596   
  1765. BD*(   2) C  30 - C  31          0.41217     0.02607  1770(v),1774(v),179(v)
                                                    194(r),956(g)
  1766. BD*(   1) C  30 - C  33          0.03281     0.33654   
  1767. BD*(   1) C  31 - C  32          0.03569     0.54447   
  1768. BD*(   1) C  31 - C  34          0.02486     0.54521   
  1769. BD*(   1) C  32 - N  48          0.02557     0.56069   
  1770. BD*(   2) C  32 - N  48          0.58226     0.01353  1765(v),172(v),179(v),982(g)
                                                    1396(g),190(v),194(r)
  1771. BD*(   1) C  33 - H  75          0.04495     0.37481   
  1772. BD*(   1) C  33 - H  77          0.05235     0.34724   
  1773. BD*(   1) C  34 - C  35          0.00870     0.46680   
  1774. BD*(   2) C  34 - C  35          0.18613    -0.00345  1765(v),1776(g),194(r)
  1775. BD*(   1) C  34 - H  78          0.02002     0.44915   
  1776. BD*(   1) C  35 - H  79          0.00942     0.43097   
  1777. BD*(   1) C  35 - H  80          0.01288     0.44163   
  1778. BD*(   1) C  36 - C  37          0.03240     0.57502   
  1779. BD*(   1) C  36 - N  49          0.02652     0.56020   
  1780. BD*(   1) C  37 - C  38          0.02238     0.56723   
  1781. BD*(   2) C  37 - C  38          0.28180     0.05730  1786(v),181(v),1790(v)
                                                    1788(v),1787(v)
  1782. BD*(   1) C  37 - C  40          0.01763     0.39209   
  1783. BD*(   1) C  38 - C  39          0.03217     0.56031   
  1784. BD*(   1) C  38 - C  41          0.02394     0.38088   
  1785. BD*(   1) C  39 - N  49          0.02586     0.57134   
  1786. BD*(   2) C  39 - N  49          0.61538     0.02205  1781(v),169(v),181(v)
                                                    1164(g),1753(r),356(v)
                                                    1422(g),1710(r)
  1787. BD*(   1) C  40 - H  81          0.00804     0.40276   
  1788. BD*(   1) C  40 - H  82          0.00996     0.40029   
  1789. BD*(   1) C  40 - H  83          0.00548     0.41097   
  1790. BD*(   1) C  41 - C  42          0.01898     0.35721   
  1791. BD*(   1) C  41 - H  84          0.01211     0.40518   
  1792. BD*(   1) C  41 - H  85          0.01306     0.40615   
  1793. BD*(   1) C  42 - C  43          0.08353     0.35932   
  1794. BD*(   1) C  42 - H  86          0.01025     0.40741   
  1795. BD*(   1) C  42 - H  87          0.01125     0.38510   
  1796. BD*(   1) C  43 - O  44          0.03926     0.63248   
  1797. BD*(   2) C  43 - O  44          0.17415     0.02460  1799(v),1795(v)
  1798. BD*(   1) C  43 - O  45          0.07206     0.56521   
  1799. BD*(   1) O  45 - H  90          0.01522     0.37094   
  1800. BD*(   1) N  46 -Fe  50          0.12063     0.35524  1802(g),189(g),1801(g)
                                                    1803(g),1346(g),1371(v)
                                                    1423(v),190(g),329(r)
                                                    1398(v),1347(g),1710(r)
                                                    327(r),1526(r),1703(r)
                                                    328(r),1804(r),325(r)
                                                    1529(r),326(r),1476(r)
                                                    1683(r),300(r),1475(r)
                                                    193(r),1481(r),1479(r)
                                                    1477(r),1480(r),168(r)
                                                    1706(r),1698(r),1709(r)
  1801. BD*(   1) N  47 -Fe  50          0.11460     0.35291  1803(g),1800(g),189(g)
                                                    1802(g),1710(r),328(r)
                                                    1372(g),1345(v),1424(v)
                                                    1398(v),1397(v),190(g)
                                                    1703(r),1526(r),327(r)
                                                    1481(r),329(r),325(r)
                                                    1701(r),1706(r),1529(r)
                                                    193(r),1804(r),1475(r)
                                                    1477(r),300(r)
  1802. BD*(   1) N  48 -Fe  50          0.10293     0.35400  1800(g),189(g),1801(g)
                                                    1803(g),190(g),1398(g)
                                                    1710(r),1423(v),327(r)
                                                    1372(v),1346(v),1399(g)
                                                    329(r),1526(r),325(r)
                                                    1478(r),1477(r),1529(r)
                                                    1701(r),330(r),1703(r)
                                                    1708(r),193(r),1698(r)
                                                    1480(r),1684(r),1476(r)
  1803. BD*(   1) N  49 -Fe  50          0.11584     0.34636  1801(g),189(g),1802(g)
                                                    190(g),1800(g),1424(g)
                                                    1397(v),1346(v),1372(v)
                                                    1422(g),1526(r),325(r)
                                                    327(r),326(r),328(r),1701(r)
                                                    329(r),1703(r),1529(r)
                                                    1477(r),1708(r),1479(r)
                                                    1478(r),330(r),1804(r)
                                                    1706(r),193(r),1476(r)
                                                    1481(r)
       -------------------------------
              Total Lewis  311.23427  ( 96.6349%)
        Valence non-Lewis   10.19905  (  3.1667%)
        Rydberg non-Lewis    0.63887  (  0.1984%)
       -------------------------------
            Total unit  2  322.07220  (100.0000%)
           Charge unit  2   -1.07220

 Molecular unit  3  (HO)
   109. BD (   1) O  51 - H  88          1.98240    -0.63122  193(g),189(r),190(r),1449(r)
                                                    1450(r),1800(r),1451(r)
                                                    1348(r),1347(r),1453(r)
                                                    1710(r),1454(r),1455(r)
                                                    1422(r),1802(r),326(r)
                                                    1526(r),1349(r),1370(r)
                                                    1344(r),1467(r),328(r)
                                                    1457(r),1346(r),1361(r)
                                                    1459(r),1371(r),325(r)
                                                    1350(r)
   167. CR (   1) O  51                  1.99984   -18.85648  193(g),189(r),190(r),1684(v)
                                                    1802(r),1803(r),1454(r)
                                                    1801(r),1800(r)
   191. LP (   1) O  51                  1.96696    -0.22163  193(g),1801(r),1803(r)
                                                    189(r),1681(v),190(r)
                                                    1802(r),1452(r),1448(r)
                                                    1753(r),1800(r),1451(r)
                                                    1786(r),1397(r),1450(r)
                                                    328(r),1372(r),1424(r)
                                                    1770(r),168(r),1458(r)
                                                    1731(r)
   192. LP (   2) O  51                  1.94202    -0.58536  193(g),189(r),190(r),1802(r)
                                                    1800(r),1453(r),1451(r)
                                                    1682(v),1803(r),1710(r)
                                                    1396(r),1801(r),1422(r)
                                                    1449(r),1344(r),1370(r)
                                                    1452(r),1346(r),1459(r)
                                                    1372(r),1526(r),1374(r)
                                                    1462(r),1373(r),1456(r)
                                                    1371(r),1347(r),1423(r)
                                                    1448(r),1348(r),1770(r)
                                                    1345(r),1463(r),1464(r)
                                                    327(r)
   193. LP (   3) O  51                  1.44536    -0.32273  189(r),190(r),1802(r)
                                                    1801(r),1800(r),1422(r)
                                                    1803(r),1455(r),1370(r)
                                                    1399(r),1396(r),1344(r)
                                                    1347(r),1459(r),1373(r)
                                                    1372(r),1398(r),1452(r)
                                                    1454(r),1453(r),1424(r)
                                                    1346(r),1462(r),332(r)
                                                    1746(r),1730(r),1451(r)
                                                    1769(r),325(r),1724(r)
                                                    1785(r),1426(r),1763(r)
                                                    1425(r),1779(r),1374(r)
                                                    328(r),1752(r),1348(r)
                                                    1530(r),1457(r),168(r)
                                                    1450(r),1731(r),1169(r)
                                                    1770(r)
  1475. RY*(   1) O  51                  0.00184     1.03935   
  1476. RY*(   2) O  51                  0.00175     0.99074   
  1477. RY*(   3) O  51                  0.00044     1.80631   
  1478. RY*(   4) O  51                  0.00013     1.69110   
  1479. RY*(   5) O  51                  0.00005     2.65135   
  1480. RY*(   6) O  51                  0.00003     2.54718   
  1481. RY*(   7) O  51                  0.00004     2.67195   
  1482. RY*(   8) O  51                  0.00001     3.11855   
  1483. RY*(   9) O  51                  0.00001     3.19608   
  1484. RY*(  10) O  51                  0.00001     5.18664   
  1485. RY*(  11) O  51                  0.00000     6.59829   
  1486. RY*(  12) O  51                  0.00001     3.21093   
  1487. RY*(  13) O  51                  0.00000     6.61311   
  1488. RY*(  14) O  51                  0.00000    42.62641   
  1489. RY*(  15) O  51                  0.00000     6.55389   
  1490. RY*(  16) O  51                  0.00001     2.15550   
  1491. RY*(  17) O  51                  0.00000     6.47914   
  1492. RY*(  18) O  51                  0.00001     2.37210   
  1493. RY*(  19) O  51                  0.00000     6.66825   
  1494. RY*(  20) O  51                  0.00000     5.39652   
  1495. RY*(  21) O  51                  0.00000     5.30513   
  1496. RY*(  22) O  51                  0.00000     5.40635   
  1497. RY*(  23) O  51                  0.00000     5.35920   
  1498. RY*(  24) O  51                  0.00000     5.66238   
  1499. RY*(  25) O  51                  0.00000     5.47209   
  1500. RY*(  26) O  51                  0.00000     5.37005   
  1681. RY*(   1) H  88                  0.00135     2.18513   
  1682. RY*(   2) H  88                  0.00086     2.10417   
  1683. RY*(   3) H  88                  0.00042     1.14083   
  1684. RY*(   4) H  88                  0.00031     2.52480   
  1685. RY*(   5) H  88                  0.00001     3.04573   
  1804. BD*(   1) O  51 - H  88          0.00426     0.56572   
       -------------------------------
              Total Lewis    9.33657  ( 99.8765%)
        Valence non-Lewis    0.00426  (  0.0456%)
        Rydberg non-Lewis    0.00728  (  0.0779%)
       -------------------------------
            Total unit  3    9.34811  (100.0000%)
           Charge unit  3   -0.34811

 Molecular unit  4  (H)
   194. LP*(   1) H  76                  0.56677     0.04173  1772(r),1621(g),1771(r)
                                                    1766(r),1765(r),1762(r)
                                                    1011(r),1624(g),1622(g)
                                                    1006(r),1007(r),1008(r)
                                                    1021(r),1767(r),1013(r)
                                                    1009(r),1020(r),1774(r)
                                                    179(r),1017(r),1770(r)
                                                    1777(r),956(r),1719(r)
                                                    1775(r),1022(r),1027(r)
                                                    1010(r),1015(r),1030(r)
                                                    954(r),933(r),1029(r)
                                                    1033(r),902(r),931(r)
                                                    1061(r),1023(r),1629(r)
                                                    1616(r),1717(r),1718(r)
  1621. RY*(   1) H  76                  0.00395     1.02399   
  1622. RY*(   2) H  76                  0.00048     2.10282   
  1623. RY*(   3) H  76                  0.00017     2.59700   
  1624. RY*(   4) H  76                  0.00009     1.85134   
  1625. RY*(   5) H  76                  0.00003     3.05891   
       -------------------------------
              Total Lewis    0.00000  (  0.0000%)
        Valence non-Lewis    0.56677  ( 99.1738%)
        Rydberg non-Lewis    0.00472  (  0.8262%)
       -------------------------------
            Total unit  4    0.57149  (100.0000%)
           Charge unit  4    0.42851
 1\1\GINC-NODE341\SP\RPBE1PBE\def2TZVP\C38H40Fe1N6O5\KLEICH\19-Sep-2022
 \0\\# PBE1PBE/def2TZVP empiricaldispersion=GD3BJ int=(grid=ultrafine) 
 geom=check guess=read pop=nbo\\1ccc_II_S_nbo\\0,1\C,0,-9.179,55.032,10
 7.752\C,0,-8.656,55.674,109.047\N,0,-9.337,56.251,110.028\C,0,-7.346,5
 5.781,109.43\C,0,-8.517,56.656,110.967\N,0,-7.296,56.371,110.601\H,0,-
 10.269,56.52,109.992\C,0,-5.551,53.892,112.957\C,0,-7.582,57.995,114.4
 79\C,0,-6.051,60.051,110.455\C,0,-3.606,56.143,109.236\C,0,-6.256,54.8
 18,113.741\C,0,-6.747,54.522,114.978\C,0,-7.371,55.7,115.428\C,0,-7.16
 4,56.651,114.442\C,0,-8.086,55.956,116.762\C,0,-6.553,53.157,115.632\C
 ,0,-5.476,53.072,116.681\C,0,-5.338,51.676,117.3\O,0,-6.184,51.244,118
 .071\O,0,-4.374,50.963,117.069\C,0,-7.439,58.947,113.445\C,0,-8.009,60
 .231,113.431\C,0,-7.608,60.79,112.216\C,0,-6.791,59.833,111.615\C,0,-8
 .955,60.766,114.492\C,0,-7.873,62.019,111.592\C,0,-8.696,63.097,112.03
 4\C,0,-5.174,59.214,109.761\C,0,-4.391,59.621,108.681\C,0,-3.586,58.50
 3,108.416\C,0,-4.037,57.471,109.254\C,0,-4.411,61.018,108.022\C,0,-2.5
 83,58.321,107.461\C,0,-2.38,59.068,106.226\C,0,-3.969,55.112,110.1\C,0
 ,-3.707,53.769,109.892\C,0,-4.284,53.11,110.969\C,0,-4.859,54.103,111.
 761\C,0,-2.951,53.119,108.756\C,0,-4.239,51.602,111.251\C,0,-3.022,51.
 189,112.088\C,0,-3.017,49.736,112.53\O,0,-2.521,49.411,113.591\O,0,-3.
 525,48.903,111.799\N,0,-6.505,56.102,113.416\N,0,-6.791,58.703,112.305
 \N,0,-4.982,57.915,110.076\N,0,-4.679,55.3,111.215\Fe,0,-5.764,57.006,
 111.726\O,0,-4.379,57.565,112.833\H,0,-8.35221418,54.70205231,107.1583
 1681\H,0,-9.74843124,55.75169565,107.20183071\H,0,-9.80042008,54.19534
 946,107.99439011\H,0,-6.50222091,55.43985069,108.86736868\H,0,-8.80002
 549,57.13850381,111.87913302\H,0,-6.46626491,56.56837267,111.1230955\H
 ,0,-5.54191748,52.88729231,113.32494017\H,0,-8.0546801,58.32828693,115
 .3792185\H,0,-6.17518396,61.02216626,110.02335843\H,0,-2.91158813,55.8
 8546597,108.46375109\H,0,-8.06544698,57.00282325,116.98254174\H,0,-9.1
 0146998,55.62624303,116.69142337\H,0,-7.58947722,55.41737975,117.54190
 599\H,0,-6.23223956,52.50842686,114.84373252\H,0,-7.46833274,52.958257
 56,116.14926919\H,0,-5.78874862,53.71625337,117.47600056\H,0,-4.554085
 88,53.25983125,116.17139842\H,0,-8.59840514,61.71152394,114.84374506\H
 ,0,-9.93123472,60.88714947,114.07106227\H,0,-9.00180482,60.07622713,11
 5.30865335\H,0,-7.38829785,62.16872181,110.64990276\H,0,-9.21573368,63
 .02576938,112.96657874\H,0,-8.79360744,63.97684997,111.4329702\H,0,-4.
 24617281,61.32907016,107.01157071\H,0,-3.36917314,60.79140974,107.9317
 0244\H,0,-5.2741464,60.58800982,107.55833337\H,0,-1.87950984,57.539689
 58,107.65988598\H,0,-1.39199029,59.47865043,106.21584894\H,0,-3.096320
 64,59.86063763,106.16675208\H,0,-2.27070695,52.39293861,109.14961938\H
 ,0,-3.64273715,52.63865513,108.0959481\H,0,-2.40436718,53.86525723,108
 .2182336\H,0,-4.11918378,51.12654952,110.29995273\H,0,-5.09797137,51.3
 875604,111.85190253\H,0,-3.08266803,51.76404687,112.98830022\H,0,-2.17
 690898,51.296339,111.44054381\H,0,-3.70734244,58.00580102,112.30748066
 \H,0,-5.91534555,50.79349188,118.87503185\H,0,-2.9692385,48.31464982,1
 11.2826927\\Version=ES64L-G16RevA.03\State=1-A\HF=-3438.1047843\RMSD=6
 .341e-09\Dipole=-4.6952826,-1.1672983,-2.7894961\Quadrupole=11.6084745
 ,-26.9157187,15.3072441,0.7657945,-4.1545472,18.5498771\PG=C01 [X(C38H
 40Fe1N6O5)]\\@


 WHERE THERE IS MUCH DESIRE TO LEARN, THERE OF NECESSITY WILL BE
 MUCH ARGUING, MUCH WRITING, MANY OPINIONS; FOR OPINION IN GOOD MEN
 IS BUT KNOWLEDGE IN THE MAKING. -- JOHN MILTON.
 Job cpu time:       1 days 12 hours 58 minutes 33.8 seconds.
 Elapsed time:       0 days  9 hours 17 minutes  8.2 seconds.
 File lengths (MBytes):  RWF=   1673 Int=      0 D2E=      0 Chk=    215 Scr=      1
 Normal termination of Gaussian 16 at Mon Sep 19 21:21:04 2022.
