 Initial command:
 /afs/math/software/gaussian/g16.A03/g16/l1.exe "/scratch/kleich_gaussian.B7Fwtcn/Gau-3738.inp" -scrdir="/scratch/kleich_gaussian.B7Fwtcn/"
 Entering Link 1 = /afs/math/software/gaussian/g16.A03/g16/l1.exe PID=     21514.
  
 Copyright (c) 1988,1990,1992,1993,1995,1998,2003,2009,2016,
            Gaussian, Inc.  All Rights Reserved.
  
 This is part of the Gaussian(R) 16 program.  It is based on
 the Gaussian(R) 09 system (copyright 2009, Gaussian, Inc.),
 the Gaussian(R) 03 system (copyright 2003, Gaussian, Inc.),
 the Gaussian(R) 98 system (copyright 1998, Gaussian, Inc.),
 the Gaussian(R) 94 system (copyright 1995, Gaussian, Inc.),
 the Gaussian 92(TM) system (copyright 1992, Gaussian, Inc.),
 the Gaussian 90(TM) system (copyright 1990, Gaussian, Inc.),
 the Gaussian 88(TM) system (copyright 1988, Gaussian, Inc.),
 the Gaussian 86(TM) system (copyright 1986, Carnegie Mellon
 University), and the Gaussian 82(TM) system (copyright 1983,
 Carnegie Mellon University). Gaussian is a federally registered
 trademark of Gaussian, Inc.
  
 This software contains proprietary and confidential information,
 including trade secrets, belonging to Gaussian, Inc.
  
 This software is provided under written license and may be
 used, copied, transmitted, or stored only in accord with that
 written license.
  
 The following legend is applicable only to US Government
 contracts under FAR:
  
                    RESTRICTED RIGHTS LEGEND
  
 Use, reproduction and disclosure by the US Government is
 subject to restrictions as set forth in subparagraphs (a)
 and (c) of the Commercial Computer Software - Restricted
 Rights clause in FAR 52.227-19.
  
 Gaussian, Inc.
 340 Quinnipiac St., Bldg. 40, Wallingford CT 06492
  
  
 ---------------------------------------------------------------
 Warning -- This program may not be used in any manner that
 competes with the business of Gaussian, Inc. or will provide
 assistance to any competitor of Gaussian, Inc.  The licensee
 of this program is prohibited from giving any competitor of
 Gaussian, Inc. access to this program.  By using this program,
 the user acknowledges that Gaussian, Inc. is engaged in the
 business of creating and licensing software in the field of
 computational chemistry and represents and warrants to the
 licensee that it is not a competitor of Gaussian, Inc. and that
 it will not use this program in any manner prohibited above.
 ---------------------------------------------------------------
  

 Cite this work as:
 Gaussian 16, Revision A.03,
 M. J. Frisch, G. W. Trucks, H. B. Schlegel, G. E. Scuseria, 
 M. A. Robb, J. R. Cheeseman, G. Scalmani, V. Barone, 
 G. A. Petersson, H. Nakatsuji, X. Li, M. Caricato, A. V. Marenich, 
 J. Bloino, B. G. Janesko, R. Gomperts, B. Mennucci, H. P. Hratchian, 
 J. V. Ortiz, A. F. Izmaylov, J. L. Sonnenberg, D. Williams-Young, 
 F. Ding, F. Lipparini, F. Egidi, J. Goings, B. Peng, A. Petrone, 
 T. Henderson, D. Ranasinghe, V. G. Zakrzewski, J. Gao, N. Rega, 
 G. Zheng, W. Liang, M. Hada, M. Ehara, K. Toyota, R. Fukuda, 
 J. Hasegawa, M. Ishida, T. Nakajima, Y. Honda, O. Kitao, H. Nakai, 
 T. Vreven, K. Throssell, J. A. Montgomery, Jr., J. E. Peralta, 
 F. Ogliaro, M. J. Bearpark, J. J. Heyd, E. N. Brothers, K. N. Kudin, 
 V. N. Staroverov, T. A. Keith, R. Kobayashi, J. Normand, 
 K. Raghavachari, A. P. Rendell, J. C. Burant, S. S. Iyengar, 
 J. Tomasi, M. Cossi, J. M. Millam, M. Klene, C. Adamo, R. Cammi, 
 J. W. Ochterski, R. L. Martin, K. Morokuma, O. Farkas, 
 J. B. Foresman, and D. J. Fox, Gaussian, Inc., Wallingford CT, 2016.
 
 ******************************************
 Gaussian 16:  AM64L-G16RevA.03 25-Dec-2016
                18-Sep-2022 
 ******************************************
 %nprocs=12
 Will use up to   12 processors via shared memory.
 %mem=16GB
 %chk=1cce_II_Q.chk
 ----------------------------------------------------------------------
 # PBE1PBE/def2TZVP empiricaldispersion=GD3BJ int=(grid=ultrafine) geom
 =check guess=read scrf=(smd,solvent=Chloroform)
 ----------------------------------------------------------------------
 1/29=2,38=1,172=1/1;
 2/12=2,40=1/2;
 3/5=44,7=101,11=2,14=-4,25=1,30=1,70=32201,72=7,74=-13,75=-5,116=-2,124=41/1,2,3;
 4/5=1/1;
 5/5=2,38=6,53=7/2;
 6/7=2,8=2,9=2,10=2,28=1/1;
 99/5=1,9=1/99;
 --------------
 1cce_II_Q_solv
 --------------
 Structure from the checkpoint file:  "1cce_II_Q.chk"
 Charge =  0 Multiplicity = 5
 Z-Matrix found in chk file.
 C,0,-5.48,53.62,113.148
 C,0,-7.571,57.663,114.65
 C,0,-6.212,59.774,110.58
 C,0,-3.759,55.864,109.383
 C,0,-6.201,54.529,113.94
 C,0,-6.717,54.212,115.182
 C,0,-7.392,55.377,115.614
 C,0,-7.138,56.332,114.631
 C,0,-8.283,55.562,116.835
 C,0,-6.584,52.826,115.8
 C,0,-5.521,52.715,116.871
 C,0,-5.378,51.363,117.57
 O,0,-6.217,50.989,118.381
 O,0,-4.403,50.646,117.362
 C,0,-7.47,58.618,113.624
 C,0,-8.124,59.862,113.625
 C,0,-7.763,60.457,112.409
 C,0,-6.911,59.538,111.776
 C,0,-9.109,60.337,114.701
 C,0,-8.111,61.69,111.839
 C,0,-8.971,62.736,112.366
 C,0,-5.303,58.954,109.91
 C,0,-4.54,59.325,108.805
 C,0,-3.794,58.17,108.484
 C,0,-4.196,57.199,109.399
 C,0,-4.519,60.709,108.176
 C,0,-2.842,57.879,107.491
 C,0,-2.374,58.685,106.381
 C,0,-3.977,54.842,110.284
 C,0,-3.64,53.509,110.086
 C,0,-4.164,52.855,111.174
 C,0,-4.755,53.841,111.963
 C,0,-2.888,52.827,108.948
 C,0,-4.093,51.352,111.4
 C,0,-3.176,51.046,112.555
 C,0,-2.982,49.599,112.903
 O,0,-2.36,49.336,113.93
 O,0,-3.445,48.727,112.182
 N,0,-6.448,55.803,113.62
 N,0,-6.816,58.405,112.482
 N,0,-5.033,57.698,110.293
 N,0,-4.582,55.057,111.445
 Fe,0,-5.719,56.734,111.941
 O,0,-4.284,57.394,113.195
 O,0,-7.101,55.961,110.708
 H,0,-5.48270944,52.60896755,113.49829422
 H,0,-8.03524361,57.99339133,115.55565967
 H,0,-6.40448998,60.71877956,110.11606123
 H,0,-3.16139901,55.59694099,108.5365648
 H,0,-8.36891296,56.60472598,117.05914613
 H,0,-9.2535454,55.15955328,116.6325691
 H,0,-7.85260181,55.05171079,117.67121906
 H,0,-6.26267678,52.18481752,115.00593676
 H,0,-7.51406047,52.63955831,116.29510304
 H,0,-5.82540006,53.39559646,117.63848228
 H,0,-4.59286539,52.86505729,116.36016837
 H,0,-8.77788362,61.27326601,115.09933139
 H,0,-10.07993397,60.45711609,114.26768792
 H,0,-9.15617378,59.61190816,115.48644029
 H,0,-7.68211721,61.88898932,110.87912355
 H,0,-9.61039298,63.44231863,111.87897781
 H,0,-9.71396272,62.06975701,111.97996027
 H,0,-4.33953601,61.02979666,107.17112082
 H,0,-3.48301127,60.45600158,108.08871229
 H,0,-5.390304,60.30877178,107.70108241
 H,0,-2.39264453,56.91087831,107.56663101
 H,0,-1.53288319,59.26802394,106.69325886
 H,0,-3.15887185,59.3361707,106.05719003
 H,0,-2.17243963,52.14237926,109.35317626
 H,0,-3.58132302,52.29459616,108.33095109
 H,0,-2.3826099,53.56551138,108.36141514
 H,0,-3.63788041,50.93188344,110.52749313
 H,0,-5.07286653,51.03970224,111.69535012
 H,0,-3.65009218,51.4786957,113.41110223
 H,0,-2.21158769,51.39132073,112.24586815
 H,0,-3.53292348,57.99189971,113.195
 H,0,-3.97065359,56.48657836,113.195
 H,0,-6.34992348,56.55889971,110.708
 H,0,-6.78765359,55.05357836,110.708
 H,0,-2.85733077,48.14197171,111.69827821
 H,0,-3.51645184,50.99970047,117.46460767
 Recover connectivity data from disk.
 Center=     -5.48322662     55.92056561    112.29845634
 Residue   0                        charge    0.00000000 layers R        AvRTP=      7.12770992    289.88216988     71.31909166
 Residue   4                        charge    0.00000000 layers R        AvRTP=      0.00000000      0.00000000      0.00000000
 Residue   2 PDB Number   313_A HOH charge    0.00000000 layers R        AvRTP=      2.25752666     41.40404323     66.60078230
 Residue   3 PDB Number   387_A HOH charge    0.00000000 layers R        AvRTP=      2.03188830    182.84391009    141.51286530
 Residue   1 PDB Number     1_A HEM charge    0.00000000 layers R        AvRTP=      0.14567071    121.91288658    103.50989736
 Stoichiometry    C34H36FeN4O6(5)
 Framework group  C1[X(C34H36FeN4O6)]
 Deg. of freedom   237
 Full point group                 C1      NOp   1
 Largest Abelian subgroup         C1      NOp   1
 Largest concise Abelian subgroup C1      NOp   1
                         Standard orientation:                         
 ---------------------------------------------------------------------
 Center     Atomic      Atomic             Coordinates (Angstroms)
 Number     Number       Type             X           Y           Z
 ---------------------------------------------------------------------
      1          6           0        2.215484   -0.034313   -0.468490
      2          6           0       -1.124328   -3.435501    0.033210
      3          6           0       -4.473291   -0.021934    0.043667
      4          6           0       -1.062382    3.310246    0.023569
      5          6           0        1.611099   -1.296830   -0.349515
      6          6           0        2.323720   -2.480111   -0.313105
      7          6           0        1.348523   -3.500464   -0.227404
      8          6           0        0.129757   -2.832754   -0.119690
      9          6           0        1.539919   -5.008531   -0.317125
     10          6           0        3.841227   -2.531964   -0.435963
     11          6           0        4.570689   -2.742716    0.872777
     12          6           0        6.093415   -2.861194    0.807805
     13          8           0        6.621235   -3.874269    0.364406
     14          8           0        6.814177   -1.962617    1.233293
     15          6           0       -2.387413   -2.820475   -0.002318
     16          6           0       -3.609475   -3.511460   -0.068331
     17          6           0       -4.585953   -2.507799   -0.114796
     18          6           0       -3.883671   -1.293382   -0.058715
     19          6           0       -3.753549   -5.033739   -0.192963
     20          6           0       -5.983958   -2.575512   -0.200172
     21          6           0       -6.845188   -3.744108   -0.264294
     22          6           0       -3.864962    1.228138    0.165479
     23          6           0       -4.525987    2.429559    0.411385
     24          6           0       -3.501120    3.400403    0.437684
     25          6           0       -2.321978    2.706560    0.173346
     26          6           0       -6.019771    2.577510    0.652748
     27          6           0       -3.492219    4.791514    0.642049
     28          6           0       -4.594230    5.718064    0.808893
     29          6           0        0.188112    2.744433   -0.117602
     30          6           0        1.352683    3.433818   -0.430946
     31          6           0        2.300255    2.453684   -0.596719
     32          6           0        1.648320    1.247063   -0.345634
     33          6           0        1.615391    4.926534   -0.599629
     34          6           0        3.747742    2.704319   -0.993064
     35          6           0        4.661098    2.395575    0.164091
     36          6           0        6.130769    2.605574   -0.056171
     37          8           0        6.901481    2.219508    0.820036
     38          8           0        6.527814    3.134318   -1.084460
     39          7           0        0.298328   -1.514080   -0.223336
     40          7           0       -2.561667   -1.500946   -0.077988
     41          7           0       -2.537976    1.404342    0.093476
     42          7           0        0.376959    1.437161    0.007086
     43         26           0       -1.107873   -0.026320   -0.060815
     44          8           0       -0.925722   -0.369372    1.918194
     45          8           0       -1.171312    0.359346   -2.029312
     46          1           0        3.263285   -0.049652   -0.684771
     47          1           0       -1.120817   -4.492881    0.197024
     48          1           0       -5.543079   -0.010633    0.025623
     49          1           0       -1.074684    4.380161    0.018084
     50          1           0        0.688487   -5.501752    0.103227
     51          1           0        1.647199   -5.294051   -1.342732
     52          1           0        2.418556   -5.289430    0.225086
     53          1           0        4.136965   -1.562601   -0.779147
     54          1           0        4.054099   -3.397188   -1.028391
     55          1           0        4.231602   -3.691851    1.232030
     56          1           0        4.383375   -1.856862    1.442932
     57          1           0       -4.365410   -5.400570    0.604509
     58          1           0       -4.208955   -5.273278   -1.131114
     59          1           0       -2.786767   -5.489089   -0.139210
     60          1           0       -6.488480   -1.632156   -0.221085
     61          1           0       -7.788874   -3.905549   -0.742095
     62          1           0       -6.540043   -3.689126   -1.288385
     63          1           0       -6.694727    3.383886    0.455028
     64          1           0       -5.652036    3.296195    1.355002
     65          1           0       -6.011176    2.561077   -0.417092
     66          1           0       -2.519527    5.235700    0.680405
     67          1           0       -4.839037    5.797816    1.847455
     68          1           0       -5.445616    5.360749    0.268182
     69          1           0        2.518659    5.189551   -0.089895
     70          1           0        1.713207    5.156124   -1.640119
     71          1           0        0.798631    5.481266   -0.187225
     72          1           0        3.836551    3.753702   -1.182294
     73          1           0        3.980888    2.000036   -1.764121
     74          1           0        4.550947    1.345094    0.335138
     75          1           0        4.390074    3.093417    0.928592
     76          1           0       -1.329726   -0.099500    2.746173
     77          1           0       -0.062202    0.041647    1.834548
     78          1           0       -1.575316    0.629218   -1.201333
     79          1           0       -0.307792    0.770365   -2.112958
     80          1           0        6.948956    3.996294   -1.049296
     81          1           0        6.694223   -1.633694    2.127173
 ---------------------------------------------------------------------
 Rotational constants (GHZ):           0.0921782           0.0514608           0.0344033
 Standard basis: def2TZVP (5D, 7F)
 There are  1852 symmetry adapted cartesian basis functions of A   symmetry.
 There are  1625 symmetry adapted basis functions of A   symmetry.
  1625 basis functions,  2634 primitive gaussians,  1852 cartesian basis functions
   173 alpha electrons      169 beta electrons
       nuclear repulsion energy      6425.8624552670 Hartrees.
 NAtoms=   81 NActive=   81 NUniq=   81 SFac= 1.00D+00 NAtFMM=   60 NAOKFM=T Big=T
 Integral buffers will be    131072 words long.
 Raffenetti 2 integral format.
 Two-electron integral symmetry is turned on.
 Nuclear repulsion after empirical dispersion term =     6425.7519075358 Hartrees.
 ------------------------------------------------------------------------------
 Polarizable Continuum Model (PCM)
 =================================
 Model                : PCM.
 Atomic radii         : SMD-Coulomb.
 Polarization charges : Total charges.
 Charge compensation  : None.
 Solution method      : On-the-fly selection.
 Cavity type          : VdW (van der Waals Surface) (Alpha=1.000).
 Cavity algorithm     : GePol (No added spheres)
                        Default sphere list used, NSphG=   81.
                        Lebedev-Laikov grids with approx.  5.0 points / Ang**2.
                        Smoothing algorithm: York/Karplus (Gamma=1.0000).
                        Polarization charges: spherical gaussians, with
                                              point-specific exponents (IZeta= 3).
                        Self-potential: point-specific (ISelfS= 7).
                        Self-field    : sphere-specific E.n sum rule (ISelfD= 2).
 Solvent              : Chloroform, Eps=   4.711300 Eps(inf)=   2.090627
 ------------------------------------------------------------------------------
 ------------------------------------------------------------------------------
 Atomic radii for non-electrostatic terms: SMD-CDS.
 ------------------------------------------------------------------------------
 Nuclear repulsion after PCM non-electrostatic terms =     6425.7367537795 Hartrees.
 One-electron integrals computed using PRISM.
   1 Symmetry operations used in ECPInt.
 ECPInt:  NShTT=  207046 NPrTT=  642413 LenC2=  150115 LenP2D=  305059.
 LDataN:  DoStor=T MaxTD1= 6 Len=  172
 NBasis=  1625 RedAO= T EigKep=  3.11D-06  NBF=  1625
 NBsUse=  1625 1.00D-06 EigRej= -1.00D+00 NBFU=  1625
 Initial guess from the checkpoint file:  "1cce_II_Q.chk"
 B after Tr=    -0.000000    0.000000    0.000000
         Rot=    1.000000    0.000000   -0.000000    0.000000 Ang=   0.00 deg.
 Initial guess <Sx>= 0.0000 <Sy>= 0.0000 <Sz>= 2.0000 <S**2>= 6.5582 S= 2.1092
 Requested convergence on RMS density matrix=1.00D-08 within 128 cycles.
 Requested convergence on MAX density matrix=1.00D-06.
 Requested convergence on             energy=1.00D-06.
 No special actions if energy rises.
 Inv3:  Mode=1 IEnd=   100155852.
 Iteration    1 A*A^-1 deviation from unit magnitude is 4.00D-15 for     61.
 Iteration    1 A*A^-1 deviation from orthogonality  is 1.96D-15 for   4096   1245.
 Iteration    1 A^-1*A deviation from unit magnitude is 3.55D-15 for    361.
 Iteration    1 A^-1*A deviation from orthogonality  is 2.15D-15 for   4361   4076.
 Restarting incremental Fock formation.
 Error on total polarization charges =  0.06412
 SCF Done:  E(UPBE1PBE) =  -3249.26082580     A.U. after   33 cycles
            NFock= 33  Conv=0.37D-08     -V/T= 2.0024
 <Sx>= 0.0000 <Sy>= 0.0000 <Sz>= 2.0000 <S**2>= 6.5028 S= 2.0986
 <L.S>= 0.000000000000E+00
 SMD-CDS (non-electrostatic) energy       (kcal/mol) =      -9.51
 (included in total energy above)
 Annihilation of the first spin contaminant:
 S**2 before annihilation     6.5028,   after     6.0345

 **********************************************************************

            Population analysis using the SCF density.

 **********************************************************************

 Orbital symmetries:
 Alpha Orbitals:
       Occupied  (A) (A) (A) (A) (A) (A) (A) (A) (A) (A) (A) (A)
                 (A) (A) (A) (A) (A) (A) (A) (A) (A) (A) (A) (A)
                 (A) (A) (A) (A) (A) (A) (A) (A) (A) (A) (A) (A)
                 (A) (A) (A) (A) (A) (A) (A) (A) (A) (A) (A) (A)
                 (A) (A) (A) (A) (A) (A) (A) (A) (A) (A) (A) (A)
                 (A) (A) (A) (A) (A) (A) (A) (A) (A) (A) (A) (A)
                 (A) (A) (A) (A) (A) (A) (A) (A) (A) (A) (A) (A)
                 (A) (A) (A) (A) (A) (A) (A) (A) (A) (A) (A) (A)
                 (A) (A) (A) (A) (A) (A) (A) (A) (A) (A) (A) (A)
                 (A) (A) (A) (A) (A) (A) (A) (A) (A) (A) (A) (A)
                 (A) (A) (A) (A) (A) (A) (A) (A) (A) (A) (A) (A)
                 (A) (A) (A) (A) (A) (A) (A) (A) (A) (A) (A) (A)
                 (A) (A) (A) (A) (A) (A) (A) (A) (A) (A) (A) (A)
                 (A) (A) (A) (A) (A) (A) (A) (A) (A) (A) (A) (A)
                 (A) (A) (A) (A) (A)
       Virtual   (A) (A) (A) (A) (A) (A) (A) (A) (A) (A) (A) (A)
                 (A) (A) (A) (A) (A) (A) (A) (A) (A) (A) (A) (A)
                 (A) (A) (A) (A) (A) (A) (A) (A) (A) (A) (A) (A)
                 (A) (A) (A) (A) (A) (A) (A) (A) (A) (A) (A) (A)
                 (A) (A) (A) (A) (A) (A) (A) (A) (A) (A) (A) (A)
                 (A) (A) (A) (A) (A) (A) (A) (A) (A) (A) (A) (A)
                 (A) (A) (A) (A) (A) (A) (A) (A) (A) (A) (A) (A)
                 (A) (A) (A) (A) (A) (A) (A) (A) (A) (A) (A) (A)
                 (A) (A) (A) (A) (A) (A) (A) (A) (A) (A) (A) (A)
                 (A) (A) (A) (A) (A) (A) (A) (A) (A) (A) (A) (A)
                 (A) (A) (A) (A) (A) (A) (A) (A) (A) (A) (A) (A)
                 (A) (A) (A) (A) (A) (A) (A) (A) (A) (A) (A) (A)
                 (A) (A) (A) (A) (A) (A) (A) (A) (A) (A) (A) (A)
                 (A) (A) (A) (A) (A) (A) (A) (A) (A) (A) (A) (A)
                 (A) (A) (A) (A) (A) (A) (A) (A) (A) (A) (A) (A)
                 (A) (A) (A) (A) (A) (A) (A) (A) (A) (A) (A) (A)
                 (A) (A) (A) (A) (A) (A) (A) (A) (A) (A) (A) (A)
                 (A) (A) (A) (A) (A) (A) (A) (A) (A) (A) (A) (A)
                 (A) (A) (A) (A) (A) (A) (A) (A) (A) (A) (A) (A)
                 (A) (A) (A) (A) (A) (A) (A) (A) (A) (A) (A) (A)
                 (A) (A) (A) (A) (A) (A) (A) (A) (A) (A) (A) (A)
                 (A) (A) (A) (A) (A) (A) (A) (A) (A) (A) (A) (A)
                 (A) (A) (A) (A) (A) (A) (A) (A) (A) (A) (A) (A)
                 (A) (A) (A) (A) (A) (A) (A) (A) (A) (A) (A) (A)
                 (A) (A) (A) (A) (A) (A) (A) (A) (A) (A) (A) (A)
                 (A) (A) (A) (A) (A) (A) (A) (A) (A) (A) (A) (A)
                 (A) (A) (A) (A) (A) (A) (A) (A) (A) (A) (A) (A)
                 (A) (A) (A) (A) (A) (A) (A) (A) (A) (A) (A) (A)
                 (A) (A) (A) (A) (A) (A) (A) (A) (A) (A) (A) (A)
                 (A) (A) (A) (A) (A) (A) (A) (A) (A) (A) (A) (A)
                 (A) (A) (A) (A) (A) (A) (A) (A) (A) (A) (A) (A)
                 (A) (A) (A) (A) (A) (A) (A) (A) (A) (A) (A) (A)
                 (A) (A) (A) (A) (A) (A) (A) (A) (A) (A) (A) (A)
                 (A) (A) (A) (A) (A) (A) (A) (A) (A) (A) (A) (A)
                 (A) (A) (A) (A) (A) (A) (A) (A) (A) (A) (A) (A)
                 (A) (A) (A) (A) (A) (A) (A) (A) (A) (A) (A) (A)
                 (A) (A) (A) (A) (A) (A) (A) (A) (A) (A) (A) (A)
                 (A) (A) (A) (A) (A) (A) (A) (A) (A) (A) (A) (A)
                 (A) (A) (A) (A) (A) (A) (A) (A) (A) (A) (A) (A)
                 (A) (A) (A) (A) (A) (A) (A) (A) (A) (A) (A) (A)
                 (A) (A) (A) (A) (A) (A) (A) (A) (A) (A) (A) (A)
                 (A) (A) (A) (A) (A) (A) (A) (A) (A) (A) (A) (A)
                 (A) (A) (A) (A) (A) (A) (A) (A) (A) (A) (A) (A)
                 (A) (A) (A) (A) (A) (A) (A) (A) (A) (A) (A) (A)
                 (A) (A) (A) (A) (A) (A) (A) (A) (A) (A) (A) (A)
                 (A) (A) (A) (A) (A) (A) (A) (A) (A) (A) (A) (A)
                 (A) (A) (A) (A) (A) (A) (A) (A) (A) (A) (A) (A)
                 (A) (A) (A) (A) (A) (A) (A) (A) (A) (A) (A) (A)
                 (A) (A) (A) (A) (A) (A) (A) (A) (A) (A) (A) (A)
                 (A) (A) (A) (A) (A) (A) (A) (A) (A) (A) (A) (A)
                 (A) (A) (A) (A) (A) (A) (A) (A) (A) (A) (A) (A)
                 (A) (A) (A) (A) (A) (A) (A) (A) (A) (A) (A) (A)
                 (A) (A) (A) (A) (A) (A) (A) (A) (A) (A) (A) (A)
                 (A) (A) (A) (A) (A) (A) (A) (A) (A) (A) (A) (A)
                 (A) (A) (A) (A) (A) (A) (A) (A) (A) (A) (A) (A)
                 (A) (A) (A) (A) (A) (A) (A) (A) (A) (A) (A) (A)
                 (A) (A) (A) (A) (A) (A) (A) (A) (A) (A) (A) (A)
                 (A) (A) (A) (A) (A) (A) (A) (A) (A) (A) (A) (A)
                 (A) (A) (A) (A) (A) (A) (A) (A) (A) (A) (A) (A)
                 (A) (A) (A) (A) (A) (A) (A) (A) (A) (A) (A) (A)
                 (A) (A) (A) (A) (A) (A) (A) (A) (A) (A) (A) (A)
                 (A) (A) (A) (A) (A) (A) (A) (A) (A) (A) (A) (A)
                 (A) (A) (A) (A) (A) (A) (A) (A) (A) (A) (A) (A)
                 (A) (A) (A) (A) (A) (A) (A) (A) (A) (A) (A) (A)
                 (A) (A) (A) (A) (A) (A) (A) (A) (A) (A) (A) (A)
                 (A) (A) (A) (A) (A) (A) (A) (A) (A) (A) (A) (A)
                 (A) (A) (A) (A) (A) (A) (A) (A) (A) (A) (A) (A)
                 (A) (A) (A) (A) (A) (A) (A) (A) (A) (A) (A) (A)
                 (A) (A) (A) (A) (A) (A) (A) (A) (A) (A) (A) (A)
                 (A) (A) (A) (A) (A) (A) (A) (A) (A) (A) (A) (A)
                 (A) (A) (A) (A) (A) (A) (A) (A) (A) (A) (A) (A)
                 (A) (A) (A) (A) (A) (A) (A) (A) (A) (A) (A) (A)
                 (A) (A) (A) (A) (A) (A) (A) (A) (A) (A) (A) (A)
                 (A) (A) (A) (A) (A) (A) (A) (A) (A) (A) (A) (A)
                 (A) (A) (A) (A) (A) (A) (A) (A) (A) (A) (A) (A)
                 (A) (A) (A) (A) (A) (A) (A) (A) (A) (A) (A) (A)
                 (A) (A) (A) (A) (A) (A) (A) (A) (A) (A) (A) (A)
                 (A) (A) (A) (A) (A) (A) (A) (A) (A) (A) (A) (A)
                 (A) (A) (A) (A) (A) (A) (A) (A) (A) (A) (A) (A)
                 (A) (A) (A) (A) (A) (A) (A) (A) (A) (A) (A) (A)
                 (A) (A) (A) (A) (A) (A) (A) (A) (A) (A) (A) (A)
                 (A) (A) (A) (A) (A) (A) (A) (A) (A) (A) (A) (A)
                 (A) (A) (A) (A) (A) (A) (A) (A) (A) (A) (A) (A)
                 (A) (A) (A) (A) (A) (A) (A) (A) (A) (A) (A) (A)
                 (A) (A) (A) (A) (A) (A) (A) (A) (A) (A) (A) (A)
                 (A) (A) (A) (A) (A) (A) (A) (A) (A) (A) (A) (A)
                 (A) (A) (A) (A) (A) (A) (A) (A) (A) (A) (A) (A)
                 (A) (A) (A) (A) (A) (A) (A) (A) (A) (A) (A) (A)
                 (A) (A) (A) (A) (A) (A) (A) (A) (A) (A) (A) (A)
                 (A) (A) (A) (A) (A) (A) (A) (A) (A) (A) (A) (A)
                 (A) (A) (A) (A) (A) (A) (A) (A) (A) (A) (A) (A)
                 (A) (A) (A) (A) (A) (A) (A) (A) (A) (A) (A) (A)
                 (A) (A) (A) (A) (A) (A) (A) (A) (A) (A) (A) (A)
                 (A) (A) (A) (A) (A) (A) (A) (A) (A) (A) (A) (A)
                 (A) (A) (A) (A) (A) (A) (A) (A) (A) (A) (A) (A)
                 (A) (A) (A) (A) (A) (A) (A) (A) (A) (A) (A) (A)
                 (A) (A) (A) (A) (A) (A) (A) (A) (A) (A) (A) (A)
                 (A) (A) (A) (A) (A) (A) (A) (A) (A) (A) (A) (A)
                 (A) (A) (A) (A) (A) (A) (A) (A) (A) (A) (A) (A)
                 (A) (A) (A) (A) (A) (A) (A) (A) (A) (A) (A) (A)
                 (A) (A) (A) (A) (A) (A) (A) (A) (A) (A) (A) (A)
                 (A) (A) (A) (A) (A) (A) (A) (A) (A) (A) (A) (A)
                 (A) (A) (A) (A) (A) (A) (A) (A) (A) (A) (A) (A)
                 (A) (A) (A) (A) (A) (A) (A) (A) (A) (A) (A) (A)
                 (A) (A) (A) (A) (A) (A) (A) (A) (A) (A) (A) (A)
                 (A) (A) (A) (A) (A) (A) (A) (A) (A) (A) (A) (A)
                 (A) (A) (A) (A) (A) (A) (A) (A) (A) (A) (A) (A)
                 (A) (A) (A) (A) (A) (A) (A) (A) (A) (A) (A) (A)
                 (A) (A) (A) (A) (A) (A) (A) (A) (A) (A) (A) (A)
                 (A) (A) (A) (A) (A) (A) (A) (A) (A) (A) (A) (A)
                 (A) (A) (A) (A) (A) (A) (A) (A) (A) (A) (A) (A)
                 (A) (A) (A) (A) (A) (A) (A) (A) (A) (A) (A) (A)
                 (A) (A) (A) (A) (A) (A) (A) (A) (A) (A) (A) (A)
                 (A) (A) (A) (A) (A) (A) (A) (A) (A) (A) (A) (A)
                 (A) (A) (A) (A) (A) (A) (A) (A) (A) (A) (A) (A)
                 (A) (A) (A) (A) (A) (A) (A) (A) (A) (A) (A) (A)
                 (A) (A) (A) (A) (A) (A) (A) (A) (A) (A) (A) (A)
                 (A) (A) (A) (A) (A) (A) (A) (A) (A) (A) (A) (A)
                 (A) (A) (A) (A) (A) (A) (A) (A) (A) (A) (A) (A)
                 (A) (A) (A) (A) (A) (A) (A) (A) (A) (A) (A) (A)
                 (A) (A) (A) (A) (A) (A) (A) (A) (A) (A) (A) (A)
 Beta  Orbitals:
       Occupied  (A) (A) (A) (A) (A) (A) (A) (A) (A) (A) (A) (A)
                 (A) (A) (A) (A) (A) (A) (A) (A) (A) (A) (A) (A)
                 (A) (A) (A) (A) (A) (A) (A) (A) (A) (A) (A) (A)
                 (A) (A) (A) (A) (A) (A) (A) (A) (A) (A) (A) (A)
                 (A) (A) (A) (A) (A) (A) (A) (A) (A) (A) (A) (A)
                 (A) (A) (A) (A) (A) (A) (A) (A) (A) (A) (A) (A)
                 (A) (A) (A) (A) (A) (A) (A) (A) (A) (A) (A) (A)
                 (A) (A) (A) (A) (A) (A) (A) (A) (A) (A) (A) (A)
                 (A) (A) (A) (A) (A) (A) (A) (A) (A) (A) (A) (A)
                 (A) (A) (A) (A) (A) (A) (A) (A) (A) (A) (A) (A)
                 (A) (A) (A) (A) (A) (A) (A) (A) (A) (A) (A) (A)
                 (A) (A) (A) (A) (A) (A) (A) (A) (A) (A) (A) (A)
                 (A) (A) (A) (A) (A) (A) (A) (A) (A) (A) (A) (A)
                 (A) (A) (A) (A) (A) (A) (A) (A) (A) (A) (A) (A)
                 (A)
       Virtual   (A) (A) (A) (A) (A) (A) (A) (A) (A) (A) (A) (A)
                 (A) (A) (A) (A) (A) (A) (A) (A) (A) (A) (A) (A)
                 (A) (A) (A) (A) (A) (A) (A) (A) (A) (A) (A) (A)
                 (A) (A) (A) (A) (A) (A) (A) (A) (A) (A) (A) (A)
                 (A) (A) (A) (A) (A) (A) (A) (A) (A) (A) (A) (A)
                 (A) (A) (A) (A) (A) (A) (A) (A) (A) (A) (A) (A)
                 (A) (A) (A) (A) (A) (A) (A) (A) (A) (A) (A) (A)
                 (A) (A) (A) (A) (A) (A) (A) (A) (A) (A) (A) (A)
                 (A) (A) (A) (A) (A) (A) (A) (A) (A) (A) (A) (A)
                 (A) (A) (A) (A) (A) (A) (A) (A) (A) (A) (A) (A)
                 (A) (A) (A) (A) (A) (A) (A) (A) (A) (A) (A) (A)
                 (A) (A) (A) (A) (A) (A) (A) (A) (A) (A) (A) (A)
                 (A) (A) (A) (A) (A) (A) (A) (A) (A) (A) (A) (A)
                 (A) (A) (A) (A) (A) (A) (A) (A) (A) (A) (A) (A)
                 (A) (A) (A) (A) (A) (A) (A) (A) (A) (A) (A) (A)
                 (A) (A) (A) (A) (A) (A) (A) (A) (A) (A) (A) (A)
                 (A) (A) (A) (A) (A) (A) (A) (A) (A) (A) (A) (A)
                 (A) (A) (A) (A) (A) (A) (A) (A) (A) (A) (A) (A)
                 (A) (A) (A) (A) (A) (A) (A) (A) (A) (A) (A) (A)
                 (A) (A) (A) (A) (A) (A) (A) (A) (A) (A) (A) (A)
                 (A) (A) (A) (A) (A) (A) (A) (A) (A) (A) (A) (A)
                 (A) (A) (A) (A) (A) (A) (A) (A) (A) (A) (A) (A)
                 (A) (A) (A) (A) (A) (A) (A) (A) (A) (A) (A) (A)
                 (A) (A) (A) (A) (A) (A) (A) (A) (A) (A) (A) (A)
                 (A) (A) (A) (A) (A) (A) (A) (A) (A) (A) (A) (A)
                 (A) (A) (A) (A) (A) (A) (A) (A) (A) (A) (A) (A)
                 (A) (A) (A) (A) (A) (A) (A) (A) (A) (A) (A) (A)
                 (A) (A) (A) (A) (A) (A) (A) (A) (A) (A) (A) (A)
                 (A) (A) (A) (A) (A) (A) (A) (A) (A) (A) (A) (A)
                 (A) (A) (A) (A) (A) (A) (A) (A) (A) (A) (A) (A)
                 (A) (A) (A) (A) (A) (A) (A) (A) (A) (A) (A) (A)
                 (A) (A) (A) (A) (A) (A) (A) (A) (A) (A) (A) (A)
                 (A) (A) (A) (A) (A) (A) (A) (A) (A) (A) (A) (A)
                 (A) (A) (A) (A) (A) (A) (A) (A) (A) (A) (A) (A)
                 (A) (A) (A) (A) (A) (A) (A) (A) (A) (A) (A) (A)
                 (A) (A) (A) (A) (A) (A) (A) (A) (A) (A) (A) (A)
                 (A) (A) (A) (A) (A) (A) (A) (A) (A) (A) (A) (A)
                 (A) (A) (A) (A) (A) (A) (A) (A) (A) (A) (A) (A)
                 (A) (A) (A) (A) (A) (A) (A) (A) (A) (A) (A) (A)
                 (A) (A) (A) (A) (A) (A) (A) (A) (A) (A) (A) (A)
                 (A) (A) (A) (A) (A) (A) (A) (A) (A) (A) (A) (A)
                 (A) (A) (A) (A) (A) (A) (A) (A) (A) (A) (A) (A)
                 (A) (A) (A) (A) (A) (A) (A) (A) (A) (A) (A) (A)
                 (A) (A) (A) (A) (A) (A) (A) (A) (A) (A) (A) (A)
                 (A) (A) (A) (A) (A) (A) (A) (A) (A) (A) (A) (A)
                 (A) (A) (A) (A) (A) (A) (A) (A) (A) (A) (A) (A)
                 (A) (A) (A) (A) (A) (A) (A) (A) (A) (A) (A) (A)
                 (A) (A) (A) (A) (A) (A) (A) (A) (A) (A) (A) (A)
                 (A) (A) (A) (A) (A) (A) (A) (A) (A) (A) (A) (A)
                 (A) (A) (A) (A) (A) (A) (A) (A) (A) (A) (A) (A)
                 (A) (A) (A) (A) (A) (A) (A) (A) (A) (A) (A) (A)
                 (A) (A) (A) (A) (A) (A) (A) (A) (A) (A) (A) (A)
                 (A) (A) (A) (A) (A) (A) (A) (A) (A) (A) (A) (A)
                 (A) (A) (A) (A) (A) (A) (A) (A) (A) (A) (A) (A)
                 (A) (A) (A) (A) (A) (A) (A) (A) (A) (A) (A) (A)
                 (A) (A) (A) (A) (A) (A) (A) (A) (A) (A) (A) (A)
                 (A) (A) (A) (A) (A) (A) (A) (A) (A) (A) (A) (A)
                 (A) (A) (A) (A) (A) (A) (A) (A) (A) (A) (A) (A)
                 (A) (A) (A) (A) (A) (A) (A) (A) (A) (A) (A) (A)
                 (A) (A) (A) (A) (A) (A) (A) (A) (A) (A) (A) (A)
                 (A) (A) (A) (A) (A) (A) (A) (A) (A) (A) (A) (A)
                 (A) (A) (A) (A) (A) (A) (A) (A) (A) (A) (A) (A)
                 (A) (A) (A) (A) (A) (A) (A) (A) (A) (A) (A) (A)
                 (A) (A) (A) (A) (A) (A) (A) (A) (A) (A) (A) (A)
                 (A) (A) (A) (A) (A) (A) (A) (A) (A) (A) (A) (A)
                 (A) (A) (A) (A) (A) (A) (A) (A) (A) (A) (A) (A)
                 (A) (A) (A) (A) (A) (A) (A) (A) (A) (A) (A) (A)
                 (A) (A) (A) (A) (A) (A) (A) (A) (A) (A) (A) (A)
                 (A) (A) (A) (A) (A) (A) (A) (A) (A) (A) (A) (A)
                 (A) (A) (A) (A) (A) (A) (A) (A) (A) (A) (A) (A)
                 (A) (A) (A) (A) (A) (A) (A) (A) (A) (A) (A) (A)
                 (A) (A) (A) (A) (A) (A) (A) (A) (A) (A) (A) (A)
                 (A) (A) (A) (A) (A) (A) (A) (A) (A) (A) (A) (A)
                 (A) (A) (A) (A) (A) (A) (A) (A) (A) (A) (A) (A)
                 (A) (A) (A) (A) (A) (A) (A) (A) (A) (A) (A) (A)
                 (A) (A) (A) (A) (A) (A) (A) (A) (A) (A) (A) (A)
                 (A) (A) (A) (A) (A) (A) (A) (A) (A) (A) (A) (A)
                 (A) (A) (A) (A) (A) (A) (A) (A) (A) (A) (A) (A)
                 (A) (A) (A) (A) (A) (A) (A) (A) (A) (A) (A) (A)
                 (A) (A) (A) (A) (A) (A) (A) (A) (A) (A) (A) (A)
                 (A) (A) (A) (A) (A) (A) (A) (A) (A) (A) (A) (A)
                 (A) (A) (A) (A) (A) (A) (A) (A) (A) (A) (A) (A)
                 (A) (A) (A) (A) (A) (A) (A) (A) (A) (A) (A) (A)
                 (A) (A) (A) (A) (A) (A) (A) (A) (A) (A) (A) (A)
                 (A) (A) (A) (A) (A) (A) (A) (A) (A) (A) (A) (A)
                 (A) (A) (A) (A) (A) (A) (A) (A) (A) (A) (A) (A)
                 (A) (A) (A) (A) (A) (A) (A) (A) (A) (A) (A) (A)
                 (A) (A) (A) (A) (A) (A) (A) (A) (A) (A) (A) (A)
                 (A) (A) (A) (A) (A) (A) (A) (A) (A) (A) (A) (A)
                 (A) (A) (A) (A) (A) (A) (A) (A) (A) (A) (A) (A)
                 (A) (A) (A) (A) (A) (A) (A) (A) (A) (A) (A) (A)
                 (A) (A) (A) (A) (A) (A) (A) (A) (A) (A) (A) (A)
                 (A) (A) (A) (A) (A) (A) (A) (A) (A) (A) (A) (A)
                 (A) (A) (A) (A) (A) (A) (A) (A) (A) (A) (A) (A)
                 (A) (A) (A) (A) (A) (A) (A) (A) (A) (A) (A) (A)
                 (A) (A) (A) (A) (A) (A) (A) (A) (A) (A) (A) (A)
                 (A) (A) (A) (A) (A) (A) (A) (A) (A) (A) (A) (A)
                 (A) (A) (A) (A) (A) (A) (A) (A) (A) (A) (A) (A)
                 (A) (A) (A) (A) (A) (A) (A) (A) (A) (A) (A) (A)
                 (A) (A) (A) (A) (A) (A) (A) (A) (A) (A) (A) (A)
                 (A) (A) (A) (A) (A) (A) (A) (A) (A) (A) (A) (A)
                 (A) (A) (A) (A) (A) (A) (A) (A) (A) (A) (A) (A)
                 (A) (A) (A) (A) (A) (A) (A) (A) (A) (A) (A) (A)
                 (A) (A) (A) (A) (A) (A) (A) (A) (A) (A) (A) (A)
                 (A) (A) (A) (A) (A) (A) (A) (A) (A) (A) (A) (A)
                 (A) (A) (A) (A) (A) (A) (A) (A) (A) (A) (A) (A)
                 (A) (A) (A) (A) (A) (A) (A) (A) (A) (A) (A) (A)
                 (A) (A) (A) (A) (A) (A) (A) (A) (A) (A) (A) (A)
                 (A) (A) (A) (A) (A) (A) (A) (A) (A) (A) (A) (A)
                 (A) (A) (A) (A) (A) (A) (A) (A) (A) (A) (A) (A)
                 (A) (A) (A) (A) (A) (A) (A) (A) (A) (A) (A) (A)
                 (A) (A) (A) (A) (A) (A) (A) (A) (A) (A) (A) (A)
                 (A) (A) (A) (A) (A) (A) (A) (A) (A) (A) (A) (A)
                 (A) (A) (A) (A) (A) (A) (A) (A) (A) (A) (A) (A)
                 (A) (A) (A) (A) (A) (A) (A) (A) (A) (A) (A) (A)
                 (A) (A) (A) (A) (A) (A) (A) (A) (A) (A) (A) (A)
                 (A) (A) (A) (A) (A) (A) (A) (A) (A) (A) (A) (A)
                 (A) (A) (A) (A) (A) (A) (A) (A) (A) (A) (A) (A)
                 (A) (A) (A) (A) (A) (A) (A) (A) (A) (A) (A) (A)
                 (A) (A) (A) (A) (A) (A) (A) (A) (A) (A) (A) (A)
                 (A) (A) (A) (A) (A) (A) (A) (A) (A) (A) (A) (A)
                 (A) (A) (A) (A)
 The electronic state is 5-A.
 Alpha  occ. eigenvalues -- -256.33032 -30.11599 -25.94659 -25.94121 -25.92752
 Alpha  occ. eigenvalues --  -19.25257 -19.25051 -19.22678 -19.20125 -19.17942
 Alpha  occ. eigenvalues --  -19.17402 -14.39136 -14.37290 -14.37165 -14.36732
 Alpha  occ. eigenvalues --  -10.34819 -10.34400 -10.27354 -10.26113 -10.25554
 Alpha  occ. eigenvalues --  -10.25396 -10.25390 -10.25360 -10.24908 -10.24597
 Alpha  occ. eigenvalues --  -10.24537 -10.24366 -10.24282 -10.23905 -10.23046
 Alpha  occ. eigenvalues --  -10.22704 -10.22677 -10.22571 -10.22556 -10.22515
 Alpha  occ. eigenvalues --  -10.22389 -10.22330 -10.22270 -10.22198 -10.22169
 Alpha  occ. eigenvalues --  -10.22157 -10.22135 -10.22094 -10.21804 -10.21563
 Alpha  occ. eigenvalues --  -10.21347 -10.20813 -10.20728 -10.19326  -3.51043
 Alpha  occ. eigenvalues --   -2.29531  -2.28108  -2.23654  -1.17981  -1.17421
 Alpha  occ. eigenvalues --   -1.06971  -1.06116  -1.03728  -1.03337  -1.01791
 Alpha  occ. eigenvalues --   -1.00856  -1.00196  -0.99287  -0.86160  -0.85982
 Alpha  occ. eigenvalues --   -0.85018  -0.84440  -0.83760  -0.82381  -0.81862
 Alpha  occ. eigenvalues --   -0.80185  -0.79566  -0.79399  -0.78451  -0.75838
 Alpha  occ. eigenvalues --   -0.75420  -0.74568  -0.73029  -0.72605  -0.70815
 Alpha  occ. eigenvalues --   -0.70152  -0.68928  -0.67498  -0.67470  -0.66305
 Alpha  occ. eigenvalues --   -0.65813  -0.65077  -0.63599  -0.60006  -0.59823
 Alpha  occ. eigenvalues --   -0.59253  -0.58466  -0.57246  -0.56327  -0.56140
 Alpha  occ. eigenvalues --   -0.54885  -0.53954  -0.53916  -0.53257  -0.52326
 Alpha  occ. eigenvalues --   -0.52001  -0.51647  -0.51239  -0.50365  -0.50106
 Alpha  occ. eigenvalues --   -0.49835  -0.49628  -0.49554  -0.48959  -0.47361
 Alpha  occ. eigenvalues --   -0.47061  -0.46978  -0.46582  -0.46304  -0.45497
 Alpha  occ. eigenvalues --   -0.45321  -0.45083  -0.44772  -0.44542  -0.43878
 Alpha  occ. eigenvalues --   -0.43761  -0.43175  -0.42933  -0.42863  -0.42042
 Alpha  occ. eigenvalues --   -0.41838  -0.41763  -0.41278  -0.40995  -0.40870
 Alpha  occ. eigenvalues --   -0.40512  -0.40090  -0.39950  -0.39632  -0.39291
 Alpha  occ. eigenvalues --   -0.38985  -0.38726  -0.38351  -0.38171  -0.37967
 Alpha  occ. eigenvalues --   -0.37652  -0.37469  -0.37339  -0.37148  -0.36869
 Alpha  occ. eigenvalues --   -0.36529  -0.35920  -0.34907  -0.34221  -0.33938
 Alpha  occ. eigenvalues --   -0.33397  -0.32953  -0.32840  -0.32131  -0.31292
 Alpha  occ. eigenvalues --   -0.30225  -0.30082  -0.29609  -0.28721  -0.28507
 Alpha  occ. eigenvalues --   -0.28193  -0.27767  -0.26994  -0.26745  -0.26022
 Alpha  occ. eigenvalues --   -0.25185  -0.24500  -0.22969  -0.22265  -0.20598
 Alpha  occ. eigenvalues --   -0.20402  -0.19784  -0.15953
 Alpha virt. eigenvalues --   -0.09931  -0.07069  -0.05419  -0.02136  -0.00888
 Alpha virt. eigenvalues --   -0.00404   0.00069   0.00300   0.02295   0.03340
 Alpha virt. eigenvalues --    0.04657   0.05112   0.05256   0.05698   0.05804
 Alpha virt. eigenvalues --    0.06119   0.06549   0.06932   0.07537   0.07942
 Alpha virt. eigenvalues --    0.08311   0.08696   0.08802   0.09106   0.09260
 Alpha virt. eigenvalues --    0.09599   0.09881   0.10417   0.10741   0.11333
 Alpha virt. eigenvalues --    0.11558   0.11716   0.11978   0.12713   0.12957
 Alpha virt. eigenvalues --    0.13149   0.13341   0.13689   0.13989   0.14190
 Alpha virt. eigenvalues --    0.14292   0.14616   0.15057   0.15293   0.15713
 Alpha virt. eigenvalues --    0.15999   0.16036   0.16262   0.16590   0.16765
 Alpha virt. eigenvalues --    0.16976   0.17245   0.17447   0.17920   0.18134
 Alpha virt. eigenvalues --    0.18368   0.18498   0.18622   0.18946   0.19363
 Alpha virt. eigenvalues --    0.19715   0.19768   0.20166   0.20222   0.20537
 Alpha virt. eigenvalues --    0.20824   0.21034   0.21119   0.21378   0.21746
 Alpha virt. eigenvalues --    0.21856   0.21934   0.22106   0.22299   0.22685
 Alpha virt. eigenvalues --    0.22807   0.22842   0.23553   0.23664   0.23822
 Alpha virt. eigenvalues --    0.24121   0.24374   0.24530   0.24779   0.25219
 Alpha virt. eigenvalues --    0.25294   0.25414   0.25962   0.26267   0.26359
 Alpha virt. eigenvalues --    0.26633   0.26944   0.27022   0.27168   0.27418
 Alpha virt. eigenvalues --    0.27866   0.27998   0.28243   0.28523   0.28703
 Alpha virt. eigenvalues --    0.28978   0.29110   0.29491   0.29525   0.29670
 Alpha virt. eigenvalues --    0.30024   0.30126   0.30606   0.30746   0.31145
 Alpha virt. eigenvalues --    0.31292   0.31334   0.31694   0.31828   0.31994
 Alpha virt. eigenvalues --    0.32673   0.32810   0.33282   0.33433   0.34213
 Alpha virt. eigenvalues --    0.34520   0.34767   0.35100   0.35330   0.35458
 Alpha virt. eigenvalues --    0.35866   0.35958   0.36030   0.36410   0.36595
 Alpha virt. eigenvalues --    0.36848   0.37302   0.37592   0.37886   0.38034
 Alpha virt. eigenvalues --    0.38367   0.38593   0.38716   0.38813   0.39009
 Alpha virt. eigenvalues --    0.39340   0.39544   0.39634   0.39917   0.40321
 Alpha virt. eigenvalues --    0.40600   0.40716   0.40764   0.41132   0.41546
 Alpha virt. eigenvalues --    0.41653   0.41806   0.42197   0.42322   0.42589
 Alpha virt. eigenvalues --    0.42765   0.42996   0.43039   0.43436   0.43735
 Alpha virt. eigenvalues --    0.43925   0.44151   0.44478   0.44700   0.45031
 Alpha virt. eigenvalues --    0.45201   0.45372   0.45506   0.45661   0.46020
 Alpha virt. eigenvalues --    0.46237   0.46367   0.46687   0.46747   0.47091
 Alpha virt. eigenvalues --    0.47360   0.47478   0.47647   0.47733   0.48145
 Alpha virt. eigenvalues --    0.48446   0.48842   0.49053   0.49231   0.49373
 Alpha virt. eigenvalues --    0.49572   0.49685   0.49959   0.50191   0.50514
 Alpha virt. eigenvalues --    0.50622   0.50777   0.51149   0.51370   0.51439
 Alpha virt. eigenvalues --    0.51547   0.51866   0.52314   0.52585   0.52669
 Alpha virt. eigenvalues --    0.52865   0.53071   0.53568   0.53641   0.54064
 Alpha virt. eigenvalues --    0.54338   0.54516   0.54897   0.55202   0.55233
 Alpha virt. eigenvalues --    0.55487   0.55763   0.56056   0.56224   0.56724
 Alpha virt. eigenvalues --    0.56975   0.57079   0.57164   0.57605   0.58111
 Alpha virt. eigenvalues --    0.58270   0.58691   0.58780   0.59033   0.59224
 Alpha virt. eigenvalues --    0.59550   0.59743   0.60018   0.60531   0.60753
 Alpha virt. eigenvalues --    0.60856   0.60962   0.61312   0.61428   0.61817
 Alpha virt. eigenvalues --    0.62193   0.62389   0.62447   0.63034   0.63219
 Alpha virt. eigenvalues --    0.63538   0.63912   0.64024   0.64429   0.64596
 Alpha virt. eigenvalues --    0.64882   0.65214   0.65422   0.65539   0.66049
 Alpha virt. eigenvalues --    0.66185   0.66560   0.66993   0.67201   0.67432
 Alpha virt. eigenvalues --    0.67622   0.67937   0.68248   0.68350   0.68688
 Alpha virt. eigenvalues --    0.68887   0.69574   0.69815   0.69994   0.70100
 Alpha virt. eigenvalues --    0.70267   0.70723   0.71089   0.71355   0.71541
 Alpha virt. eigenvalues --    0.71768   0.71944   0.72295   0.72649   0.72878
 Alpha virt. eigenvalues --    0.73569   0.73608   0.74170   0.74205   0.74361
 Alpha virt. eigenvalues --    0.74605   0.75135   0.75679   0.75863   0.76107
 Alpha virt. eigenvalues --    0.76397   0.76677   0.77101   0.77468   0.77695
 Alpha virt. eigenvalues --    0.77906   0.78279   0.78501   0.78999   0.79093
 Alpha virt. eigenvalues --    0.79464   0.79815   0.80016   0.80754   0.81049
 Alpha virt. eigenvalues --    0.81311   0.82076   0.82172   0.82638   0.83009
 Alpha virt. eigenvalues --    0.83156   0.83469   0.83669   0.83893   0.84161
 Alpha virt. eigenvalues --    0.84606   0.84716   0.85091   0.85407   0.85611
 Alpha virt. eigenvalues --    0.86204   0.86443   0.87134   0.87406   0.87444
 Alpha virt. eigenvalues --    0.88111   0.88587   0.88802   0.89057   0.89303
 Alpha virt. eigenvalues --    0.89680   0.90292   0.90698   0.90947   0.91172
 Alpha virt. eigenvalues --    0.91769   0.92111   0.92316   0.92557   0.92938
 Alpha virt. eigenvalues --    0.93354   0.93618   0.93803   0.94202   0.94589
 Alpha virt. eigenvalues --    0.95007   0.95717   0.95811   0.96196   0.96499
 Alpha virt. eigenvalues --    0.96550   0.96776   0.97292   0.98004   0.98155
 Alpha virt. eigenvalues --    0.98610   0.98839   0.99201   0.99305   0.99726
 Alpha virt. eigenvalues --    1.00059   1.00653   1.00756   1.01377   1.01678
 Alpha virt. eigenvalues --    1.01955   1.02182   1.02544   1.02851   1.03074
 Alpha virt. eigenvalues --    1.03773   1.04224   1.04344   1.04718   1.04975
 Alpha virt. eigenvalues --    1.05240   1.05632   1.05905   1.06146   1.06911
 Alpha virt. eigenvalues --    1.07167   1.07268   1.07763   1.08047   1.08218
 Alpha virt. eigenvalues --    1.08546   1.08987   1.09596   1.09936   1.10118
 Alpha virt. eigenvalues --    1.10437   1.10855   1.11274   1.11667   1.12550
 Alpha virt. eigenvalues --    1.12695   1.13216   1.13702   1.13792   1.14008
 Alpha virt. eigenvalues --    1.14751   1.15094   1.15540   1.16143   1.16520
 Alpha virt. eigenvalues --    1.16740   1.17067   1.17626   1.17989   1.18685
 Alpha virt. eigenvalues --    1.19149   1.19448   1.19617   1.19937   1.20531
 Alpha virt. eigenvalues --    1.21078   1.21450   1.21876   1.22304   1.22828
 Alpha virt. eigenvalues --    1.23011   1.23522   1.23783   1.24354   1.25043
 Alpha virt. eigenvalues --    1.25657   1.25885   1.26223   1.26567   1.26700
 Alpha virt. eigenvalues --    1.26908   1.27461   1.28017   1.28351   1.29455
 Alpha virt. eigenvalues --    1.29740   1.29988   1.30359   1.30840   1.31040
 Alpha virt. eigenvalues --    1.31330   1.31602   1.32277   1.32730   1.33153
 Alpha virt. eigenvalues --    1.33722   1.34032   1.34524   1.35025   1.35213
 Alpha virt. eigenvalues --    1.35753   1.36224   1.36751   1.36913   1.37320
 Alpha virt. eigenvalues --    1.37944   1.38337   1.38707   1.39256   1.39832
 Alpha virt. eigenvalues --    1.40384   1.40734   1.41728   1.41989   1.42651
 Alpha virt. eigenvalues --    1.42668   1.43612   1.44143   1.44149   1.44439
 Alpha virt. eigenvalues --    1.44826   1.45307   1.45774   1.45958   1.46327
 Alpha virt. eigenvalues --    1.46772   1.47112   1.47381   1.47791   1.48079
 Alpha virt. eigenvalues --    1.48293   1.49046   1.49251   1.49695   1.49781
 Alpha virt. eigenvalues --    1.49994   1.50707   1.50952   1.51395   1.51600
 Alpha virt. eigenvalues --    1.52052   1.52359   1.52735   1.53371   1.53510
 Alpha virt. eigenvalues --    1.54504   1.54833   1.55065   1.55249   1.55460
 Alpha virt. eigenvalues --    1.55612   1.56434   1.56960   1.57462   1.57640
 Alpha virt. eigenvalues --    1.57811   1.58223   1.58497   1.58775   1.58799
 Alpha virt. eigenvalues --    1.59451   1.59604   1.59891   1.60062   1.60538
 Alpha virt. eigenvalues --    1.60601   1.60971   1.61371   1.61587   1.61643
 Alpha virt. eigenvalues --    1.61853   1.62050   1.62337   1.62888   1.63257
 Alpha virt. eigenvalues --    1.63494   1.63822   1.64342   1.64448   1.65103
 Alpha virt. eigenvalues --    1.65458   1.65681   1.66140   1.66294   1.66538
 Alpha virt. eigenvalues --    1.66858   1.67135   1.68077   1.68276   1.68706
 Alpha virt. eigenvalues --    1.69005   1.69427   1.69934   1.70331   1.70812
 Alpha virt. eigenvalues --    1.71185   1.71368   1.71701   1.72068   1.72445
 Alpha virt. eigenvalues --    1.72634   1.72917   1.73186   1.73747   1.73847
 Alpha virt. eigenvalues --    1.74244   1.74570   1.75597   1.75879   1.76032
 Alpha virt. eigenvalues --    1.76709   1.77035   1.77232   1.77959   1.78239
 Alpha virt. eigenvalues --    1.78369   1.78550   1.78868   1.79551   1.79719
 Alpha virt. eigenvalues --    1.80001   1.80508   1.80690   1.81105   1.81523
 Alpha virt. eigenvalues --    1.82248   1.82476   1.82907   1.83520   1.83957
 Alpha virt. eigenvalues --    1.83979   1.84604   1.85377   1.85698   1.86384
 Alpha virt. eigenvalues --    1.86501   1.86872   1.87516   1.88184   1.88200
 Alpha virt. eigenvalues --    1.88672   1.89294   1.89518   1.89573   1.90297
 Alpha virt. eigenvalues --    1.90591   1.90762   1.91049   1.91310   1.91628
 Alpha virt. eigenvalues --    1.92743   1.93142   1.93692   1.93894   1.94041
 Alpha virt. eigenvalues --    1.94289   1.95017   1.95851   1.96347   1.96435
 Alpha virt. eigenvalues --    1.96847   1.96990   1.97239   1.97552   1.97934
 Alpha virt. eigenvalues --    1.98215   1.98717   1.98918   1.99552   2.00346
 Alpha virt. eigenvalues --    2.00534   2.00946   2.01276   2.01640   2.01928
 Alpha virt. eigenvalues --    2.02167   2.02765   2.03617   2.03943   2.04474
 Alpha virt. eigenvalues --    2.04635   2.05158   2.05454   2.05718   2.06168
 Alpha virt. eigenvalues --    2.06895   2.07340   2.07609   2.07912   2.08465
 Alpha virt. eigenvalues --    2.09469   2.09841   2.10331   2.11004   2.11334
 Alpha virt. eigenvalues --    2.11622   2.11960   2.12242   2.12822   2.13024
 Alpha virt. eigenvalues --    2.13660   2.14076   2.14254   2.14720   2.15048
 Alpha virt. eigenvalues --    2.15888   2.15967   2.16700   2.17008   2.17046
 Alpha virt. eigenvalues --    2.17732   2.18105   2.18868   2.19441   2.19732
 Alpha virt. eigenvalues --    2.19924   2.20223   2.20830   2.20972   2.21053
 Alpha virt. eigenvalues --    2.21921   2.22308   2.22682   2.23045   2.23311
 Alpha virt. eigenvalues --    2.24319   2.24671   2.25044   2.25801   2.26140
 Alpha virt. eigenvalues --    2.26646   2.26714   2.27405   2.28109   2.28712
 Alpha virt. eigenvalues --    2.29024   2.29172   2.29537   2.29995   2.30633
 Alpha virt. eigenvalues --    2.30902   2.31619   2.31965   2.32433   2.32961
 Alpha virt. eigenvalues --    2.33742   2.34108   2.34636   2.35013   2.35497
 Alpha virt. eigenvalues --    2.35898   2.36274   2.36581   2.36847   2.37281
 Alpha virt. eigenvalues --    2.37881   2.38198   2.38712   2.38901   2.39230
 Alpha virt. eigenvalues --    2.39716   2.39944   2.40115   2.40502   2.41356
 Alpha virt. eigenvalues --    2.41925   2.42133   2.42504   2.42984   2.43221
 Alpha virt. eigenvalues --    2.43878   2.44315   2.44596   2.45371   2.46128
 Alpha virt. eigenvalues --    2.46395   2.46665   2.47391   2.48075   2.48278
 Alpha virt. eigenvalues --    2.49396   2.49680   2.49943   2.50409   2.50676
 Alpha virt. eigenvalues --    2.51195   2.52066   2.52243   2.52579   2.52981
 Alpha virt. eigenvalues --    2.53329   2.53953   2.54306   2.54571   2.55042
 Alpha virt. eigenvalues --    2.55677   2.55890   2.56120   2.56360   2.56666
 Alpha virt. eigenvalues --    2.57357   2.57555   2.57594   2.57817   2.58268
 Alpha virt. eigenvalues --    2.59104   2.59304   2.59735   2.59799   2.60320
 Alpha virt. eigenvalues --    2.60641   2.61110   2.61304   2.61582   2.61921
 Alpha virt. eigenvalues --    2.62042   2.63029   2.63074   2.63852   2.64074
 Alpha virt. eigenvalues --    2.64390   2.64738   2.64915   2.65477   2.65644
 Alpha virt. eigenvalues --    2.65920   2.66402   2.67514   2.67722   2.68029
 Alpha virt. eigenvalues --    2.68534   2.68706   2.69000   2.69249   2.69852
 Alpha virt. eigenvalues --    2.70322   2.70727   2.70993   2.71081   2.71551
 Alpha virt. eigenvalues --    2.71962   2.72631   2.72735   2.73143   2.73942
 Alpha virt. eigenvalues --    2.74100   2.74774   2.75044   2.75162   2.75592
 Alpha virt. eigenvalues --    2.75781   2.76124   2.76421   2.76647   2.77572
 Alpha virt. eigenvalues --    2.77910   2.78490   2.78504   2.78958   2.79319
 Alpha virt. eigenvalues --    2.79575   2.80151   2.80515   2.81125   2.81301
 Alpha virt. eigenvalues --    2.81939   2.82323   2.82643   2.83187   2.83471
 Alpha virt. eigenvalues --    2.83774   2.84036   2.84142   2.84548   2.84919
 Alpha virt. eigenvalues --    2.85250   2.85607   2.86381   2.86895   2.87496
 Alpha virt. eigenvalues --    2.87648   2.87869   2.88287   2.88458   2.89143
 Alpha virt. eigenvalues --    2.89451   2.89692   2.90110   2.90270   2.90625
 Alpha virt. eigenvalues --    2.91593   2.91817   2.92028   2.92463   2.92686
 Alpha virt. eigenvalues --    2.92855   2.93168   2.93535   2.94159   2.94451
 Alpha virt. eigenvalues --    2.94685   2.95398   2.95644   2.96168   2.96549
 Alpha virt. eigenvalues --    2.96663   2.97002   2.97423   2.97739   2.98388
 Alpha virt. eigenvalues --    2.98695   2.98847   2.99648   2.99696   2.99905
 Alpha virt. eigenvalues --    3.00207   3.00766   3.01044   3.01317   3.02024
 Alpha virt. eigenvalues --    3.02148   3.02466   3.02986   3.03367   3.03575
 Alpha virt. eigenvalues --    3.04481   3.04808   3.05106   3.05390   3.05634
 Alpha virt. eigenvalues --    3.05835   3.06256   3.06663   3.06953   3.07571
 Alpha virt. eigenvalues --    3.08055   3.08483   3.08817   3.08878   3.09578
 Alpha virt. eigenvalues --    3.09909   3.10011   3.10468   3.10890   3.11489
 Alpha virt. eigenvalues --    3.11910   3.12171   3.12383   3.12639   3.12906
 Alpha virt. eigenvalues --    3.13281   3.13659   3.13894   3.14530   3.14596
 Alpha virt. eigenvalues --    3.14845   3.15055   3.15507   3.15746   3.15804
 Alpha virt. eigenvalues --    3.16230   3.16607   3.17046   3.17503   3.17909
 Alpha virt. eigenvalues --    3.18044   3.18841   3.19194   3.19558   3.19691
 Alpha virt. eigenvalues --    3.19814   3.20508   3.20567   3.21038   3.21261
 Alpha virt. eigenvalues --    3.21794   3.22448   3.22693   3.23243   3.23552
 Alpha virt. eigenvalues --    3.23866   3.24195   3.24552   3.24796   3.25126
 Alpha virt. eigenvalues --    3.25477   3.25714   3.25847   3.26352   3.26449
 Alpha virt. eigenvalues --    3.26881   3.27098   3.27316   3.27553   3.27580
 Alpha virt. eigenvalues --    3.28164   3.28421   3.28725   3.28910   3.29329
 Alpha virt. eigenvalues --    3.29701   3.29989   3.30216   3.30455   3.30761
 Alpha virt. eigenvalues --    3.31273   3.31340   3.31826   3.32217   3.32404
 Alpha virt. eigenvalues --    3.32840   3.32981   3.33142   3.33624   3.33716
 Alpha virt. eigenvalues --    3.33946   3.34128   3.34205   3.34546   3.35197
 Alpha virt. eigenvalues --    3.35666   3.35885   3.36050   3.36710   3.37088
 Alpha virt. eigenvalues --    3.37350   3.37474   3.37945   3.37982   3.38276
 Alpha virt. eigenvalues --    3.38545   3.38891   3.39214   3.39306   3.39869
 Alpha virt. eigenvalues --    3.40066   3.40383   3.40852   3.41074   3.41566
 Alpha virt. eigenvalues --    3.41774   3.42167   3.42755   3.43070   3.43427
 Alpha virt. eigenvalues --    3.43534   3.44305   3.44367   3.44685   3.45234
 Alpha virt. eigenvalues --    3.45490   3.45893   3.46006   3.46452   3.46988
 Alpha virt. eigenvalues --    3.47440   3.47839   3.48294   3.48346   3.49232
 Alpha virt. eigenvalues --    3.49452   3.49776   3.49918   3.50113   3.50970
 Alpha virt. eigenvalues --    3.51341   3.51836   3.52230   3.52407   3.52813
 Alpha virt. eigenvalues --    3.53090   3.53837   3.53925   3.54621   3.54704
 Alpha virt. eigenvalues --    3.55285   3.55588   3.56037   3.56297   3.56760
 Alpha virt. eigenvalues --    3.57473   3.57981   3.58389   3.58719   3.58932
 Alpha virt. eigenvalues --    3.59402   3.59975   3.60444   3.60551   3.61158
 Alpha virt. eigenvalues --    3.61265   3.61676   3.62309   3.62462   3.63308
 Alpha virt. eigenvalues --    3.63724   3.63794   3.64228   3.64518   3.65184
 Alpha virt. eigenvalues --    3.65680   3.66028   3.66622   3.66740   3.67274
 Alpha virt. eigenvalues --    3.67768   3.68322   3.68729   3.69050   3.69701
 Alpha virt. eigenvalues --    3.69743   3.70201   3.70974   3.71478   3.71896
 Alpha virt. eigenvalues --    3.72365   3.72662   3.73638   3.73679   3.73759
 Alpha virt. eigenvalues --    3.74054   3.74766   3.75073   3.75450   3.76075
 Alpha virt. eigenvalues --    3.76413   3.76627   3.77197   3.77437   3.77822
 Alpha virt. eigenvalues --    3.78926   3.78988   3.79331   3.79998   3.80550
 Alpha virt. eigenvalues --    3.81201   3.81523   3.81823   3.82321   3.83093
 Alpha virt. eigenvalues --    3.83488   3.84201   3.84638   3.84818   3.85312
 Alpha virt. eigenvalues --    3.85798   3.86112   3.87179   3.87441   3.87650
 Alpha virt. eigenvalues --    3.88620   3.88706   3.89280   3.89916   3.91271
 Alpha virt. eigenvalues --    3.91761   3.92277   3.93539   3.93670   3.94344
 Alpha virt. eigenvalues --    3.94754   3.95362   3.95890   3.96139   3.96549
 Alpha virt. eigenvalues --    3.96768   3.97736   3.98538   3.99594   3.99886
 Alpha virt. eigenvalues --    4.00410   4.00726   4.01329   4.02103   4.02300
 Alpha virt. eigenvalues --    4.02795   4.02895   4.03857   4.04468   4.05300
 Alpha virt. eigenvalues --    4.05513   4.06138   4.06593   4.07116   4.07699
 Alpha virt. eigenvalues --    4.08836   4.09250   4.09908   4.10350   4.10664
 Alpha virt. eigenvalues --    4.11275   4.11557   4.12230   4.12581   4.13316
 Alpha virt. eigenvalues --    4.13567   4.14178   4.14807   4.15065   4.15348
 Alpha virt. eigenvalues --    4.16129   4.16343   4.17115   4.17347   4.18198
 Alpha virt. eigenvalues --    4.18865   4.19181   4.20382   4.21056   4.21299
 Alpha virt. eigenvalues --    4.21578   4.22068   4.23044   4.23546   4.23722
 Alpha virt. eigenvalues --    4.24488   4.24700   4.25215   4.25664   4.26692
 Alpha virt. eigenvalues --    4.26992   4.27391   4.27431   4.28786   4.29115
 Alpha virt. eigenvalues --    4.29261   4.29739   4.30006   4.30649   4.31032
 Alpha virt. eigenvalues --    4.31371   4.31992   4.32710   4.33760   4.34134
 Alpha virt. eigenvalues --    4.35397   4.36031   4.37057   4.37229   4.37898
 Alpha virt. eigenvalues --    4.38431   4.38850   4.39359   4.39688   4.41495
 Alpha virt. eigenvalues --    4.42092   4.42609   4.43147   4.43376   4.44849
 Alpha virt. eigenvalues --    4.45130   4.45335   4.46848   4.47489   4.48414
 Alpha virt. eigenvalues --    4.49139   4.50548   4.51053   4.52055   4.52243
 Alpha virt. eigenvalues --    4.53342   4.53986   4.54361   4.55227   4.55806
 Alpha virt. eigenvalues --    4.56911   4.57263   4.58123   4.58324   4.59463
 Alpha virt. eigenvalues --    4.59856   4.61447   4.62152   4.62702   4.63086
 Alpha virt. eigenvalues --    4.63448   4.63518   4.64870   4.65662   4.66693
 Alpha virt. eigenvalues --    4.67180   4.67969   4.69321   4.70369   4.71254
 Alpha virt. eigenvalues --    4.71628   4.73300   4.74833   4.75675   4.76030
 Alpha virt. eigenvalues --    4.76760   4.77903   4.78514   4.79387   4.79805
 Alpha virt. eigenvalues --    4.80326   4.81654   4.82724   4.83140   4.83910
 Alpha virt. eigenvalues --    4.84306   4.85197   4.87619   4.87761   4.88458
 Alpha virt. eigenvalues --    4.89417   4.91167   4.91872   4.93361   4.94398
 Alpha virt. eigenvalues --    4.95020   4.95620   4.97536   4.97659   4.97916
 Alpha virt. eigenvalues --    4.98779   4.99474   5.00251   5.00409   5.02478
 Alpha virt. eigenvalues --    5.02676   5.03760   5.05171   5.05311   5.06348
 Alpha virt. eigenvalues --    5.07164   5.08587   5.09231   5.10329   5.12133
 Alpha virt. eigenvalues --    5.12193   5.13025   5.14048   5.14833   5.16352
 Alpha virt. eigenvalues --    5.16662   5.17200   5.17925   5.18978   5.19850
 Alpha virt. eigenvalues --    5.20246   5.20390   5.21368   5.22079   5.22424
 Alpha virt. eigenvalues --    5.23048   5.23803   5.24611   5.25021   5.25527
 Alpha virt. eigenvalues --    5.26009   5.26405   5.27384   5.28787   5.30710
 Alpha virt. eigenvalues --    5.31777   5.32765   5.33659   5.36931   5.39097
 Alpha virt. eigenvalues --    5.39374   5.40011   5.41649   5.41952   5.43061
 Alpha virt. eigenvalues --    5.43516   5.44253   5.44711   5.46669   5.47270
 Alpha virt. eigenvalues --    5.48321   5.49376   5.50351   5.50763   5.53205
 Alpha virt. eigenvalues --    5.54398   5.54834   5.55296   5.56596   5.58563
 Alpha virt. eigenvalues --    5.58898   5.59920   5.60794   5.62364   5.63736
 Alpha virt. eigenvalues --    5.64143   5.65232   5.68721   5.69054   5.69931
 Alpha virt. eigenvalues --    5.70379   5.71067   5.72905   5.73746   5.76554
 Alpha virt. eigenvalues --    5.78051   5.79097   5.79406   5.80887   5.82134
 Alpha virt. eigenvalues --    5.86137   5.86505   5.88109   5.93123   5.96993
 Alpha virt. eigenvalues --    5.98100   6.00182   6.00624   6.02684   6.04463
 Alpha virt. eigenvalues --    6.06324   6.07879   6.08834   6.11950   6.12690
 Alpha virt. eigenvalues --    6.13978   6.17908   6.21543   6.23090   6.25218
 Alpha virt. eigenvalues --    6.25572   6.26007   6.34542   6.35041   6.37319
 Alpha virt. eigenvalues --    6.40316   6.41004   6.41562   6.42531   6.44786
 Alpha virt. eigenvalues --    6.46414   6.48281   6.48890   6.50301   6.50614
 Alpha virt. eigenvalues --    6.53455   6.53877   6.54567   6.55037   6.59513
 Alpha virt. eigenvalues --    6.61487   6.63067   6.67754   6.67785   6.78072
 Alpha virt. eigenvalues --    6.80653   6.82995   6.85247   6.86177   6.97124
 Alpha virt. eigenvalues --    6.98417   7.05809   7.06319   7.06815   7.09531
 Alpha virt. eigenvalues --    7.13821   7.16329   7.17503   7.18498   7.22279
 Alpha virt. eigenvalues --    7.22664   7.28833   7.30874  22.25597  22.33775
 Alpha virt. eigenvalues --   22.43003  22.52504  22.54190  22.57954  22.61240
 Alpha virt. eigenvalues --   22.68675  22.70111  22.73223  22.79996  22.81267
 Alpha virt. eigenvalues --   22.95106  22.95664  22.97573  23.00029  23.06468
 Alpha virt. eigenvalues --   23.08603  23.11252  23.18197  23.36804  23.38034
 Alpha virt. eigenvalues --   23.40547  23.45362  23.48371  23.56773  23.58180
 Alpha virt. eigenvalues --   23.62692  23.71456  23.77962  23.82847  23.94361
 Alpha virt. eigenvalues --   23.95043  24.07390  32.94064  32.96703  33.04793
 Alpha virt. eigenvalues --   33.09874  43.95282  43.97565  43.99701  44.00313
 Alpha virt. eigenvalues --   44.01092  44.26557
  Beta  occ. eigenvalues -- -256.32970 -30.07365 -25.91367 -25.90456 -25.89042
  Beta  occ. eigenvalues --  -19.25257 -19.25052 -19.22505 -19.19856 -19.17942
  Beta  occ. eigenvalues --  -19.17403 -14.39318 -14.37156 -14.37144 -14.36700
  Beta  occ. eigenvalues --  -10.34819 -10.34401 -10.27612 -10.25501 -10.25394
  Beta  occ. eigenvalues --  -10.25333 -10.25241 -10.24921 -10.24751 -10.24562
  Beta  occ. eigenvalues --  -10.24496 -10.24408 -10.24381 -10.23730 -10.22826
  Beta  occ. eigenvalues --  -10.22779 -10.22660 -10.22528 -10.22509 -10.22387
  Beta  occ. eigenvalues --  -10.22274 -10.22225 -10.22196 -10.22150 -10.22149
  Beta  occ. eigenvalues --  -10.22143 -10.22118 -10.22085 -10.21737 -10.21346
  Beta  occ. eigenvalues --  -10.20834 -10.20729 -10.20544 -10.19377  -3.40736
  Beta  occ. eigenvalues --   -2.19033  -2.15585  -2.13475  -1.17981  -1.17421
  Beta  occ. eigenvalues --   -1.06621  -1.05505  -1.03727  -1.03337  -1.01909
  Beta  occ. eigenvalues --   -1.00843  -1.00057  -0.99240  -0.86369  -0.85084
  Beta  occ. eigenvalues --   -0.84559  -0.83906  -0.83729  -0.82392  -0.81632
  Beta  occ. eigenvalues --   -0.80012  -0.79482  -0.78556  -0.77817  -0.75699
  Beta  occ. eigenvalues --   -0.75099  -0.74326  -0.72880  -0.72394  -0.70691
  Beta  occ. eigenvalues --   -0.70142  -0.68928  -0.67447  -0.67145  -0.66064
  Beta  occ. eigenvalues --   -0.65776  -0.63620  -0.63075  -0.59893  -0.59381
  Beta  occ. eigenvalues --   -0.59140  -0.58274  -0.57140  -0.56354  -0.55767
  Beta  occ. eigenvalues --   -0.54701  -0.53800  -0.53476  -0.53242  -0.52287
  Beta  occ. eigenvalues --   -0.52007  -0.51626  -0.50906  -0.50483  -0.50020
  Beta  occ. eigenvalues --   -0.49828  -0.49637  -0.49541  -0.48805  -0.47018
  Beta  occ. eigenvalues --   -0.46547  -0.46415  -0.46128  -0.45802  -0.45418
  Beta  occ. eigenvalues --   -0.45083  -0.44689  -0.44278  -0.44005  -0.43782
  Beta  occ. eigenvalues --   -0.43582  -0.43129  -0.42884  -0.42609  -0.41919
  Beta  occ. eigenvalues --   -0.41612  -0.41428  -0.40922  -0.40840  -0.40459
  Beta  occ. eigenvalues --   -0.39813  -0.39598  -0.39483  -0.39145  -0.38850
  Beta  occ. eigenvalues --   -0.38500  -0.38065  -0.37888  -0.37687  -0.37449
  Beta  occ. eigenvalues --   -0.37280  -0.37155  -0.36755  -0.36503  -0.36383
  Beta  occ. eigenvalues --   -0.35926  -0.35376  -0.34886  -0.33955  -0.33470
  Beta  occ. eigenvalues --   -0.33160  -0.32943  -0.32824  -0.31787  -0.31263
  Beta  occ. eigenvalues --   -0.30321  -0.29428  -0.28771  -0.28453  -0.27763
  Beta  occ. eigenvalues --   -0.25698  -0.25159  -0.24163  -0.24059  -0.22003
  Beta  occ. eigenvalues --   -0.21067  -0.19972  -0.19434  -0.18064
  Beta virt. eigenvalues --   -0.10274  -0.09238  -0.08148  -0.05974  -0.03993
  Beta virt. eigenvalues --   -0.00978  -0.00415  -0.00134   0.00048   0.00407
  Beta virt. eigenvalues --    0.01702   0.03176   0.03626   0.04689   0.05238
  Beta virt. eigenvalues --    0.05419   0.05746   0.05802   0.06099   0.06431
  Beta virt. eigenvalues --    0.06638   0.07031   0.07692   0.08344   0.08570
  Beta virt. eigenvalues --    0.08793   0.08961   0.09491   0.09754   0.09867
  Beta virt. eigenvalues --    0.10188   0.10724   0.10986   0.11449   0.11671
  Beta virt. eigenvalues --    0.11887   0.12181   0.12899   0.12988   0.13247
  Beta virt. eigenvalues --    0.13408   0.13907   0.14069   0.14334   0.14452
  Beta virt. eigenvalues --    0.14675   0.15087   0.15328   0.15840   0.16065
  Beta virt. eigenvalues --    0.16173   0.16346   0.16797   0.17006   0.17187
  Beta virt. eigenvalues --    0.17428   0.17616   0.17959   0.18408   0.18477
  Beta virt. eigenvalues --    0.18565   0.18860   0.19077   0.19799   0.19997
  Beta virt. eigenvalues --    0.20246   0.20375   0.20514   0.20904   0.21032
  Beta virt. eigenvalues --    0.21255   0.21354   0.21694   0.21940   0.21994
  Beta virt. eigenvalues --    0.22107   0.22370   0.22696   0.22950   0.23086
  Beta virt. eigenvalues --    0.23273   0.23728   0.23957   0.24090   0.24432
  Beta virt. eigenvalues --    0.24672   0.25011   0.25218   0.25441   0.25471
  Beta virt. eigenvalues --    0.25664   0.26181   0.26506   0.26620   0.26862
  Beta virt. eigenvalues --    0.27097   0.27169   0.27385   0.27670   0.27972
  Beta virt. eigenvalues --    0.28468   0.28592   0.28788   0.29002   0.29237
  Beta virt. eigenvalues --    0.29376   0.29740   0.29877   0.30041   0.30209
  Beta virt. eigenvalues --    0.30516   0.30855   0.30957   0.31367   0.31470
  Beta virt. eigenvalues --    0.31598   0.31915   0.32104   0.32350   0.32832
  Beta virt. eigenvalues --    0.33026   0.33485   0.33821   0.34662   0.34771
  Beta virt. eigenvalues --    0.34925   0.35268   0.35533   0.35630   0.36030
  Beta virt. eigenvalues --    0.36258   0.36440   0.36532   0.36823   0.37226
  Beta virt. eigenvalues --    0.37729   0.37820   0.38005   0.38167   0.38634
  Beta virt. eigenvalues --    0.38885   0.38979   0.39146   0.39217   0.39508
  Beta virt. eigenvalues --    0.39776   0.39964   0.40154   0.40513   0.40855
  Beta virt. eigenvalues --    0.40950   0.40994   0.41286   0.41668   0.41906
  Beta virt. eigenvalues --    0.42104   0.42399   0.42549   0.42871   0.43037
  Beta virt. eigenvalues --    0.43108   0.43304   0.43639   0.43958   0.44158
  Beta virt. eigenvalues --    0.44291   0.44564   0.44821   0.45253   0.45470
  Beta virt. eigenvalues --    0.45502   0.45876   0.46003   0.46211   0.46454
  Beta virt. eigenvalues --    0.46597   0.46842   0.47157   0.47456   0.47500
  Beta virt. eigenvalues --    0.47688   0.47833   0.47979   0.48330   0.48738
  Beta virt. eigenvalues --    0.48952   0.49162   0.49392   0.49619   0.49690
  Beta virt. eigenvalues --    0.49956   0.50251   0.50348   0.50718   0.50957
  Beta virt. eigenvalues --    0.50989   0.51264   0.51573   0.51611   0.51773
  Beta virt. eigenvalues --    0.52030   0.52488   0.52866   0.52931   0.53098
  Beta virt. eigenvalues --    0.53232   0.53640   0.53920   0.54285   0.54642
  Beta virt. eigenvalues --    0.54808   0.55013   0.55298   0.55377   0.55649
  Beta virt. eigenvalues --    0.56120   0.56146   0.56432   0.56929   0.57087
  Beta virt. eigenvalues --    0.57254   0.57365   0.57765   0.58240   0.58497
  Beta virt. eigenvalues --    0.58770   0.58810   0.59181   0.59431   0.59719
  Beta virt. eigenvalues --    0.59832   0.60514   0.60866   0.60974   0.61052
  Beta virt. eigenvalues --    0.61243   0.61417   0.61575   0.61946   0.62526
  Beta virt. eigenvalues --    0.62601   0.62840   0.63167   0.63421   0.63816
  Beta virt. eigenvalues --    0.64049   0.64189   0.64537   0.64849   0.65042
  Beta virt. eigenvalues --    0.65355   0.65629   0.65790   0.66196   0.66298
  Beta virt. eigenvalues --    0.66683   0.67141   0.67374   0.67589   0.67717
  Beta virt. eigenvalues --    0.68067   0.68347   0.68536   0.68956   0.69026
  Beta virt. eigenvalues --    0.69823   0.70004   0.70173   0.70407   0.70576
  Beta virt. eigenvalues --    0.70821   0.71207   0.71481   0.71715   0.71890
  Beta virt. eigenvalues --    0.72198   0.72480   0.72978   0.73472   0.73725
  Beta virt. eigenvalues --    0.73969   0.74255   0.74305   0.74481   0.74706
  Beta virt. eigenvalues --    0.75285   0.75841   0.76038   0.76200   0.76562
  Beta virt. eigenvalues --    0.76850   0.77329   0.77601   0.77803   0.78084
  Beta virt. eigenvalues --    0.78542   0.78673   0.79098   0.79349   0.79557
  Beta virt. eigenvalues --    0.80109   0.80319   0.80935   0.81164   0.81480
  Beta virt. eigenvalues --    0.82195   0.82465   0.82823   0.83117   0.83439
  Beta virt. eigenvalues --    0.83618   0.83951   0.84141   0.84502   0.84770
  Beta virt. eigenvalues --    0.84906   0.85349   0.85539   0.85849   0.86438
  Beta virt. eigenvalues --    0.86761   0.87453   0.87641   0.87770   0.88309
  Beta virt. eigenvalues --    0.88718   0.89031   0.89277   0.89432   0.89918
  Beta virt. eigenvalues --    0.90571   0.90876   0.91150   0.91261   0.92263
  Beta virt. eigenvalues --    0.92400   0.92668   0.92934   0.93446   0.93638
  Beta virt. eigenvalues --    0.93903   0.93967   0.94371   0.95054   0.95293
  Beta virt. eigenvalues --    0.95821   0.96062   0.96535   0.96671   0.96911
  Beta virt. eigenvalues --    0.97061   0.97551   0.98285   0.98400   0.98843
  Beta virt. eigenvalues --    0.99074   0.99280   0.99480   1.00084   1.00362
  Beta virt. eigenvalues --    1.00921   1.01099   1.01650   1.01950   1.02227
  Beta virt. eigenvalues --    1.02459   1.02923   1.03229   1.03311   1.03990
  Beta virt. eigenvalues --    1.04475   1.04784   1.04989   1.05223   1.05518
  Beta virt. eigenvalues --    1.06141   1.06291   1.06482   1.07333   1.07546
  Beta virt. eigenvalues --    1.07610   1.08208   1.08339   1.08561   1.08756
  Beta virt. eigenvalues --    1.09419   1.09894   1.10176   1.10461   1.10784
  Beta virt. eigenvalues --    1.11242   1.11568   1.12037   1.12890   1.13136
  Beta virt. eigenvalues --    1.13535   1.13997   1.14253   1.14372   1.15078
  Beta virt. eigenvalues --    1.15415   1.15893   1.16477   1.16839   1.17014
  Beta virt. eigenvalues --    1.17523   1.17781   1.18370   1.18832   1.19503
  Beta virt. eigenvalues --    1.19554   1.19825   1.20225   1.20687   1.21254
  Beta virt. eigenvalues --    1.21626   1.22490   1.22594   1.23116   1.23511
  Beta virt. eigenvalues --    1.23954   1.24433   1.24632   1.25189   1.25859
  Beta virt. eigenvalues --    1.26220   1.26364   1.26980   1.27029   1.27314
  Beta virt. eigenvalues --    1.27714   1.28324   1.28727   1.29549   1.29939
  Beta virt. eigenvalues --    1.30115   1.30669   1.31010   1.31401   1.31596
  Beta virt. eigenvalues --    1.31946   1.32587   1.33065   1.33391   1.33826
  Beta virt. eigenvalues --    1.34120   1.34759   1.35380   1.35443   1.36027
  Beta virt. eigenvalues --    1.36347   1.37007   1.37123   1.37603   1.38064
  Beta virt. eigenvalues --    1.38677   1.38897   1.39561   1.39929   1.40619
  Beta virt. eigenvalues --    1.40902   1.42034   1.42729   1.42788   1.43347
  Beta virt. eigenvalues --    1.43924   1.44311   1.44599   1.44897   1.45294
  Beta virt. eigenvalues --    1.45432   1.46116   1.46325   1.46545   1.46932
  Beta virt. eigenvalues --    1.47108   1.47695   1.48134   1.48340   1.48467
  Beta virt. eigenvalues --    1.49373   1.49532   1.49925   1.50144   1.50312
  Beta virt. eigenvalues --    1.50836   1.51131   1.51451   1.51917   1.52059
  Beta virt. eigenvalues --    1.52650   1.53101   1.53595   1.53918   1.54686
  Beta virt. eigenvalues --    1.55228   1.55289   1.55457   1.55791   1.55868
  Beta virt. eigenvalues --    1.56691   1.57059   1.57662   1.57811   1.58082
  Beta virt. eigenvalues --    1.58523   1.58835   1.58909   1.59074   1.59671
  Beta virt. eigenvalues --    1.59962   1.60069   1.60263   1.60865   1.61007
  Beta virt. eigenvalues --    1.61265   1.61713   1.61888   1.62063   1.62295
  Beta virt. eigenvalues --    1.62544   1.62675   1.63479   1.63560   1.63843
  Beta virt. eigenvalues --    1.64138   1.64658   1.65017   1.65308   1.65774
  Beta virt. eigenvalues --    1.66152   1.66493   1.66613   1.66784   1.67315
  Beta virt. eigenvalues --    1.68028   1.68408   1.68596   1.68838   1.69233
  Beta virt. eigenvalues --    1.69588   1.70023   1.70406   1.71002   1.71334
  Beta virt. eigenvalues --    1.71481   1.71976   1.72250   1.72567   1.72791
  Beta virt. eigenvalues --    1.72969   1.73302   1.73866   1.74055   1.74523
  Beta virt. eigenvalues --    1.74730   1.75680   1.76034   1.76189   1.76787
  Beta virt. eigenvalues --    1.77172   1.77393   1.78218   1.78362   1.78509
  Beta virt. eigenvalues --    1.78626   1.78961   1.79677   1.80005   1.80434
  Beta virt. eigenvalues --    1.80820   1.81006   1.81356   1.81838   1.82519
  Beta virt. eigenvalues --    1.82833   1.83159   1.83716   1.84059   1.84406
  Beta virt. eigenvalues --    1.84767   1.85559   1.85906   1.86576   1.86683
  Beta virt. eigenvalues --    1.87011   1.87756   1.88352   1.88589   1.88877
  Beta virt. eigenvalues --    1.89414   1.89611   1.89733   1.90428   1.90693
  Beta virt. eigenvalues --    1.90855   1.91158   1.91478   1.91777   1.93054
  Beta virt. eigenvalues --    1.93335   1.93842   1.94044   1.94352   1.94442
  Beta virt. eigenvalues --    1.95192   1.96167   1.96569   1.96590   1.96986
  Beta virt. eigenvalues --    1.97218   1.97470   1.97886   1.98109   1.98384
  Beta virt. eigenvalues --    1.98975   1.99171   1.99750   2.00578   2.00893
  Beta virt. eigenvalues --    2.01065   2.01370   2.01590   2.02045   2.02375
  Beta virt. eigenvalues --    2.02901   2.03843   2.03990   2.04661   2.05216
  Beta virt. eigenvalues --    2.05258   2.05577   2.05802   2.06461   2.07107
  Beta virt. eigenvalues --    2.07537   2.07733   2.08217   2.08711   2.09569
  Beta virt. eigenvalues --    2.10056   2.10412   2.11243   2.11688   2.11909
  Beta virt. eigenvalues --    2.12117   2.12572   2.12966   2.13192   2.13848
  Beta virt. eigenvalues --    2.14328   2.14364   2.14857   2.15164   2.15957
  Beta virt. eigenvalues --    2.16009   2.16854   2.17080   2.17199   2.17972
  Beta virt. eigenvalues --    2.18252   2.18945   2.19618   2.19809   2.20087
  Beta virt. eigenvalues --    2.20316   2.20929   2.21140   2.21256   2.22073
  Beta virt. eigenvalues --    2.22604   2.22833   2.23314   2.23559   2.24744
  Beta virt. eigenvalues --    2.24931   2.25153   2.25995   2.26714   2.26765
  Beta virt. eigenvalues --    2.27074   2.27734   2.28270   2.28920   2.29096
  Beta virt. eigenvalues --    2.29453   2.29713   2.30122   2.30724   2.31012
  Beta virt. eigenvalues --    2.31937   2.32067   2.32540   2.33104   2.33905
  Beta virt. eigenvalues --    2.34449   2.34780   2.35320   2.35674   2.36216
  Beta virt. eigenvalues --    2.36472   2.36799   2.36941   2.37509   2.38033
  Beta virt. eigenvalues --    2.38438   2.38769   2.39059   2.39391   2.39976
  Beta virt. eigenvalues --    2.40151   2.40188   2.40679   2.41447   2.42234
  Beta virt. eigenvalues --    2.42467   2.42933   2.43162   2.43462   2.44089
  Beta virt. eigenvalues --    2.44729   2.45190   2.45679   2.46366   2.46538
  Beta virt. eigenvalues --    2.46852   2.47935   2.48358   2.48440   2.49650
  Beta virt. eigenvalues --    2.49862   2.50475   2.50724   2.51078   2.51367
  Beta virt. eigenvalues --    2.52282   2.52577   2.52899   2.53045   2.53926
  Beta virt. eigenvalues --    2.54198   2.54496   2.54795   2.55245   2.55931
  Beta virt. eigenvalues --    2.56127   2.56402   2.56500   2.56884   2.57429
  Beta virt. eigenvalues --    2.57679   2.57800   2.58135   2.58415   2.59321
  Beta virt. eigenvalues --    2.59446   2.59929   2.60107   2.60525   2.60757
  Beta virt. eigenvalues --    2.61251   2.61466   2.61755   2.62411   2.62467
  Beta virt. eigenvalues --    2.63288   2.63592   2.64062   2.64268   2.64734
  Beta virt. eigenvalues --    2.65105   2.65567   2.65716   2.65920   2.66184
  Beta virt. eigenvalues --    2.67197   2.67725   2.68156   2.68620   2.68751
  Beta virt. eigenvalues --    2.69144   2.69358   2.69633   2.70319   2.70540
  Beta virt. eigenvalues --    2.71076   2.71209   2.71299   2.71712   2.72153
  Beta virt. eigenvalues --    2.72722   2.72897   2.73488   2.74052   2.74260
  Beta virt. eigenvalues --    2.74941   2.75221   2.75338   2.75886   2.76005
  Beta virt. eigenvalues --    2.76160   2.76554   2.76757   2.77750   2.78223
  Beta virt. eigenvalues --    2.78618   2.78854   2.79138   2.79422   2.79868
  Beta virt. eigenvalues --    2.80433   2.80635   2.81191   2.81671   2.82019
  Beta virt. eigenvalues --    2.82615   2.82843   2.83532   2.83741   2.84090
  Beta virt. eigenvalues --    2.84183   2.84411   2.84736   2.85318   2.85409
  Beta virt. eigenvalues --    2.85917   2.86697   2.87223   2.87806   2.88206
  Beta virt. eigenvalues --    2.88413   2.88779   2.89021   2.89534   2.89834
  Beta virt. eigenvalues --    2.90212   2.90367   2.90670   2.91219   2.91930
  Beta virt. eigenvalues --    2.92068   2.92438   2.92715   2.93006   2.93461
  Beta virt. eigenvalues --    2.93497   2.94092   2.94420   2.94683   2.94922
  Beta virt. eigenvalues --    2.95593   2.95906   2.96487   2.96815   2.96915
  Beta virt. eigenvalues --    2.97418   2.97975   2.98238   2.98768   2.98969
  Beta virt. eigenvalues --    2.99810   2.99987   3.00133   3.00262   3.00623
  Beta virt. eigenvalues --    3.01086   3.01260   3.01642   3.02262   3.02347
  Beta virt. eigenvalues --    3.02878   3.03167   3.03633   3.03695   3.04737
  Beta virt. eigenvalues --    3.05096   3.05370   3.05560   3.05879   3.06005
  Beta virt. eigenvalues --    3.06467   3.06762   3.07487   3.08023   3.08279
  Beta virt. eigenvalues --    3.08702   3.09097   3.09243   3.09866   3.10138
  Beta virt. eigenvalues --    3.10450   3.11059   3.11121   3.11971   3.12075
  Beta virt. eigenvalues --    3.12403   3.12912   3.13106   3.13256   3.13923
  Beta virt. eigenvalues --    3.13996   3.14588   3.14844   3.14956   3.15173
  Beta virt. eigenvalues --    3.15716   3.15847   3.16127   3.16215   3.16657
  Beta virt. eigenvalues --    3.16960   3.17142   3.17785   3.18063   3.18368
  Beta virt. eigenvalues --    3.19008   3.19418   3.19899   3.20020   3.20248
  Beta virt. eigenvalues --    3.20728   3.21010   3.21370   3.21556   3.22090
  Beta virt. eigenvalues --    3.23065   3.23310   3.23687   3.23871   3.24281
  Beta virt. eigenvalues --    3.24514   3.24908   3.25280   3.25557   3.25837
  Beta virt. eigenvalues --    3.25932   3.26094   3.26692   3.27028   3.27294
  Beta virt. eigenvalues --    3.27634   3.27738   3.28143   3.28308   3.28736
  Beta virt. eigenvalues --    3.29069   3.29315   3.29373   3.29657   3.30107
  Beta virt. eigenvalues --    3.30290   3.30390   3.30776   3.30950   3.31665
  Beta virt. eigenvalues --    3.31736   3.31995   3.32539   3.32788   3.33085
  Beta virt. eigenvalues --    3.33311   3.33595   3.33932   3.33987   3.34203
  Beta virt. eigenvalues --    3.34303   3.34325   3.34952   3.35512   3.35750
  Beta virt. eigenvalues --    3.36196   3.36436   3.36974   3.37424   3.37642
  Beta virt. eigenvalues --    3.37846   3.38156   3.38310   3.38519   3.38810
  Beta virt. eigenvalues --    3.39161   3.39458   3.39623   3.40092   3.40292
[...]
              Bcc     0.4436    59.528    21.241    19.857 -0.0682 -0.0703  0.9952
 
              Baa    -0.1616   -21.687    -7.739    -7.234  0.0119 -0.0075  0.9999
    17 C(13)  Bbb     0.0462     6.198     2.212     2.068 -0.1034  0.9946  0.0086
              Bcc     0.1154    15.489     5.527     5.166  0.9946  0.1035 -0.0111
 
              Baa    -0.0204    -2.740    -0.978    -0.914 -0.3968  0.9179  0.0088
    18 C(13)  Bbb     0.0051     0.682     0.243     0.227  0.1527  0.0565  0.9867
              Bcc     0.0153     2.058     0.734     0.686  0.9051  0.3929 -0.1626
 
              Baa    -0.0059    -0.785    -0.280    -0.262  0.1205  0.9920  0.0379
    19 C(13)  Bbb    -0.0020    -0.271    -0.097    -0.090 -0.1351 -0.0214  0.9906
              Bcc     0.0079     1.056     0.377     0.352  0.9835 -0.1245  0.1314
 
              Baa    -0.3463   -46.465   -16.580   -15.499  0.9628 -0.2627  0.0631
    20 C(13)  Bbb    -0.2329   -31.248   -11.150   -10.423  0.2679  0.9586 -0.0969
              Bcc     0.5791    77.713    27.730    25.922 -0.0350  0.1102  0.9933
 
              Baa    -0.5665   -76.012   -27.123   -25.355  0.7836  0.5187  0.3418
    21 C(13)  Bbb    -0.3779   -50.711   -18.095   -16.915 -0.4504  0.0955  0.8877
              Bcc     0.9444   126.723    45.218    42.270 -0.4279  0.8496 -0.3085
 
              Baa    -0.0191    -2.563    -0.914    -0.855  0.4933  0.8501  0.1844
    22 C(13)  Bbb    -0.0046    -0.621    -0.222    -0.207  0.8578 -0.4401 -0.2655
              Bcc     0.0237     3.184     1.136     1.062  0.1445 -0.2892  0.9463
 
              Baa    -0.1906   -25.581    -9.128    -8.533  0.0131 -0.1313  0.9913
    23 C(13)  Bbb     0.0909    12.202     4.354     4.070  0.6627  0.7435  0.0898
              Bcc     0.0997    13.379     4.774     4.463  0.7488 -0.6558 -0.0967
 
              Baa    -0.0667    -8.948    -3.193    -2.985  0.8886  0.4446 -0.1128
    24 C(13)  Bbb    -0.0248    -3.330    -1.188    -1.111 -0.4473  0.8944  0.0016
              Bcc     0.0915    12.279     4.381     4.096  0.1016  0.0490  0.9936
 
              Baa    -0.0119    -1.600    -0.571    -0.534  0.2573 -0.1697  0.9513
    25 C(13)  Bbb    -0.0093    -1.251    -0.446    -0.417  0.8401  0.5257 -0.1335
              Bcc     0.0212     2.851     1.017     0.951 -0.4774  0.8336  0.2778
 
              Baa    -0.0559    -7.506    -2.678    -2.504 -0.2864 -0.5429  0.7894
    26 C(13)  Bbb     0.0200     2.690     0.960     0.897  0.9537 -0.0831  0.2889
              Bcc     0.0359     4.816     1.718     1.606 -0.0913  0.8357  0.5416
 
              Baa    -0.4906   -65.830   -23.490   -21.958  0.0305 -0.0803  0.9963
    27 C(13)  Bbb     0.2213    29.690    10.594     9.903  0.9253  0.3792  0.0022
              Bcc     0.2693    36.140    12.896    12.055 -0.3780  0.9218  0.0858
 
              Baa    -0.3352   -44.981   -16.050   -15.004 -0.2846  0.4652  0.8382
    28 C(13)  Bbb    -0.3221   -43.229   -15.425   -14.420  0.9116 -0.1390  0.3867
              Bcc     0.6573    88.209    31.475    29.423  0.2965  0.8742 -0.3845
 
              Baa    -0.0251    -3.368    -1.202    -1.124  0.9134 -0.3909 -0.1140
    29 C(13)  Bbb     0.0047     0.625     0.223     0.208  0.3443  0.8909 -0.2962
              Bcc     0.0204     2.743     0.979     0.915  0.2173  0.2312  0.9483
 
              Baa    -0.0111    -1.495    -0.533    -0.499  0.2905 -0.0154  0.9567
    30 C(13)  Bbb    -0.0000    -0.005    -0.002    -0.002  0.8083 -0.5311 -0.2540
              Bcc     0.0112     1.500     0.535     0.500  0.5121  0.8471 -0.1419
 
              Baa    -0.0187    -2.510    -0.896    -0.837 -0.5646  0.8231  0.0614
    31 C(13)  Bbb    -0.0066    -0.892    -0.318    -0.298  0.7684  0.5513 -0.3251
              Bcc     0.0254     3.402     1.214     1.135  0.3015  0.1363  0.9437
 
              Baa    -0.0188    -2.529    -0.903    -0.844  0.0825 -0.0106  0.9965
    32 C(13)  Bbb    -0.0054    -0.728    -0.260    -0.243 -0.3871  0.9211  0.0419
              Bcc     0.0243     3.257     1.162     1.087  0.9183  0.3892 -0.0719
 
              Baa    -0.0021    -0.284    -0.101    -0.095  0.2518 -0.0267  0.9674
    33 C(13)  Bbb    -0.0016    -0.221    -0.079    -0.074  0.8819 -0.4053 -0.2407
              Bcc     0.0038     0.505     0.180     0.168  0.3985  0.9138 -0.0785
 
              Baa    -0.0022    -0.295    -0.105    -0.098 -0.3548  0.8051  0.4752
    34 C(13)  Bbb    -0.0017    -0.226    -0.081    -0.075  0.3276 -0.3690  0.8698
              Bcc     0.0039     0.521     0.186     0.174  0.8756  0.4643 -0.1329
 
              Baa    -0.0023    -0.306    -0.109    -0.102 -0.2929  0.6568  0.6949
    35 C(13)  Bbb    -0.0006    -0.081    -0.029    -0.027  0.0865  0.7420 -0.6648
              Bcc     0.0029     0.388     0.138     0.129  0.9522  0.1346  0.2741
 
              Baa    -0.0009    -0.122    -0.044    -0.041 -0.3543  0.9193  0.1711
    36 C(13)  Bbb    -0.0009    -0.117    -0.042    -0.039  0.0449 -0.1660  0.9851
              Bcc     0.0018     0.239     0.085     0.080  0.9340  0.3567  0.0176
 
              Baa    -0.0011     0.082     0.029     0.027 -0.3129  0.6851  0.6579
    37 O(17)  Bbb    -0.0009     0.063     0.022     0.021  0.1474 -0.6493  0.7462
              Bcc     0.0020    -0.145    -0.052    -0.048  0.9383  0.3304  0.1022
 
              Baa    -0.0007     0.048     0.017     0.016 -0.2090  0.6425  0.7372
    38 O(17)  Bbb    -0.0006     0.044     0.016     0.015  0.3592 -0.6507  0.6690
              Bcc     0.0013    -0.093    -0.033    -0.031  0.9095  0.4047 -0.0948
 
              Baa    -0.0520    -2.005    -0.715    -0.669  0.9933 -0.0304 -0.1117
    39 N(14)  Bbb    -0.0480    -1.850    -0.660    -0.617  0.0319  0.9994  0.0120
              Bcc     0.0999     3.854     1.375     1.286  0.1113 -0.0155  0.9937
 
              Baa    -0.1058    -4.079    -1.455    -1.360  0.7165 -0.6932  0.0781
    40 N(14)  Bbb     0.0017     0.066     0.023     0.022  0.6968  0.7058 -0.1281
              Bcc     0.1040     4.013     1.432     1.339  0.0337  0.1462  0.9887
 
              Baa    -0.1509    -5.819    -2.076    -1.941  0.0593 -0.1868  0.9806
    41 N(14)  Bbb     0.0650     2.507     0.895     0.836  0.7761  0.6264  0.0724
              Bcc     0.0859     3.312     1.182     1.105 -0.6278  0.7568  0.1821
 
              Baa    -0.0435    -1.678    -0.599    -0.560  0.3124 -0.1125  0.9432
    42 N(14)  Bbb    -0.0298    -1.147    -0.409    -0.383 -0.6467  0.7021  0.2980
              Bcc     0.0733     2.826     1.008     0.943  0.6958  0.7031 -0.1466
 
              Baa    -4.4889   -77.715   -27.731   -25.923  0.7687 -0.6395  0.0139
    43 Fe(57) Bbb     0.8811    15.255     5.443     5.089  0.6383  0.7654 -0.0822
              Bcc     3.6077    62.460    22.287    20.834  0.0419  0.0721  0.9965
 
              Baa    -0.1060     7.669     2.736     2.558  0.8613 -0.2792 -0.4246
    44 O(17)  Bbb    -0.0441     3.192     1.139     1.065  0.3995  0.8884  0.2261
              Bcc     0.1501   -10.861    -3.875    -3.623  0.3141 -0.3643  0.8767
 
              Baa    -0.2226    16.105     5.747     5.372  0.9539 -0.2590 -0.1515
    45 O(17)  Bbb    -0.1174     8.497     3.032     2.834  0.2761  0.9554  0.1052
              Bcc     0.3400   -24.602    -8.779    -8.206  0.1175 -0.1422  0.9828
 
              Baa    -0.0068    -3.638    -1.298    -1.213 -0.0385  0.9991  0.0187
    46 H(1)   Bbb    -0.0030    -1.577    -0.563    -0.526  0.1639 -0.0122  0.9864
              Bcc     0.0098     5.215     1.861     1.739  0.9857  0.0410 -0.1632
 
              Baa    -0.0071    -3.793    -1.353    -1.265  0.8534  0.0268 -0.5206
    47 H(1)   Bbb    -0.0048    -2.574    -0.919    -0.859  0.5136  0.1273  0.8485
              Bcc     0.0119     6.367     2.272     2.124 -0.0890  0.9915 -0.0949
 
              Baa    -0.0102    -5.455    -1.947    -1.820 -0.0690 -0.0050  0.9976
    48 H(1)   Bbb     0.0020     1.073     0.383     0.358 -0.5509  0.8339 -0.0339
              Bcc     0.0082     4.382     1.564     1.462  0.8317  0.5519  0.0603
 
              Baa    -0.0040    -2.110    -0.753    -0.704  0.0465 -0.1042  0.9935
    49 H(1)   Bbb    -0.0023    -1.240    -0.442    -0.414  0.9865  0.1610 -0.0293
              Bcc     0.0063     3.350     1.195     1.117 -0.1569  0.9814  0.1103
 
              Baa    -0.0026    -1.387    -0.495    -0.463 -0.0914 -0.0279  0.9954
    50 H(1)   Bbb    -0.0016    -0.879    -0.314    -0.293  0.7701  0.6318  0.0884
              Bcc     0.0042     2.266     0.809     0.756 -0.6313  0.7747 -0.0362
 
              Baa    -0.0020    -1.068    -0.381    -0.356  0.1961 -0.1026  0.9752
    51 H(1)   Bbb    -0.0012    -0.665    -0.237    -0.222  0.7047  0.7062 -0.0674
              Bcc     0.0032     1.733     0.618     0.578 -0.6818  0.7005  0.2108
 
              Baa    -0.0016    -0.855    -0.305    -0.285 -0.0467  0.0066  0.9989
    52 H(1)   Bbb    -0.0012    -0.634    -0.226    -0.212  0.6725  0.7396  0.0265
              Bcc     0.0028     1.490     0.532     0.497  0.7386 -0.6730  0.0390
 
              Baa    -0.0022    -1.154    -0.412    -0.385  0.3092  0.9036 -0.2964
    53 H(1)   Bbb    -0.0018    -0.970    -0.346    -0.324  0.2067  0.2404  0.9484
              Bcc     0.0040     2.124     0.758     0.709  0.9283 -0.3545 -0.1125
 
              Baa    -0.0013    -0.676    -0.241    -0.225  0.1146 -0.0267  0.9931
    54 H(1)   Bbb    -0.0010    -0.538    -0.192    -0.179  0.4578  0.8886 -0.0289
              Bcc     0.0023     1.213     0.433     0.405  0.8816 -0.4580 -0.1140
 
              Baa    -0.0013    -0.682    -0.243    -0.228 -0.2635 -0.2561  0.9300
    55 H(1)   Bbb    -0.0009    -0.494    -0.176    -0.165  0.3788  0.8592  0.3439
              Bcc     0.0022     1.176     0.420     0.392  0.8872 -0.4430  0.1294
 
              Baa    -0.0019    -0.992    -0.354    -0.331 -0.0040  0.5667  0.8239
    56 H(1)   Bbb    -0.0012    -0.662    -0.236    -0.221  0.3896  0.7597 -0.5206
              Bcc     0.0031     1.654     0.590     0.552  0.9210 -0.3189  0.2238
 
              Baa    -0.0118    -6.277    -2.240    -2.094 -0.0624  0.3419  0.9377
    57 H(1)   Bbb     0.0008     0.408     0.146     0.136  0.7286  0.6577 -0.1913
              Bcc     0.0110     5.869     2.094     1.958  0.6821 -0.6712  0.2902
 
              Baa    -0.0103    -5.492    -1.960    -1.832  0.0427 -0.4822  0.8750
    58 H(1)   Bbb     0.0005     0.266     0.095     0.089  0.7899  0.5525  0.2659
              Bcc     0.0098     5.226     1.865     1.743 -0.6117  0.6799  0.4045
 
              Baa    -0.0070    -3.729    -1.331    -1.244  0.0331 -0.0095  0.9994
    59 H(1)   Bbb    -0.0018    -0.955    -0.341    -0.318  0.8653  0.5007 -0.0240
              Bcc     0.0088     4.684     1.671     1.562 -0.5002  0.8656  0.0248
 
              Baa    -0.0383   -20.426    -7.288    -6.813  0.8983  0.4347 -0.0639
    60 H(1)   Bbb    -0.0120    -6.388    -2.279    -2.131  0.0122  0.1207  0.9926
              Bcc     0.0503    26.814     9.568     8.944 -0.4392  0.8925 -0.1031
 
              Baa    -0.0626   -33.426   -11.927   -11.150 -0.4367  0.1189  0.8917
    61 H(1)   Bbb    -0.0224   -11.941    -4.261    -3.983 -0.2262  0.9449 -0.2367
              Bcc     0.0850    45.367    16.188    15.133  0.8707  0.3051  0.3858
 
              Baa    -0.0624   -33.272   -11.872   -11.098  0.9404  0.2553  0.2248
    62 H(1)   Bbb    -0.0220   -11.727    -4.184    -3.912 -0.3126  0.9092  0.2751
              Bcc     0.0843    44.999    16.057    15.010 -0.1341 -0.3289  0.9348
 
              Baa    -0.0051    -2.697    -0.962    -0.900  0.8196 -0.3802 -0.4285
    63 H(1)   Bbb    -0.0016    -0.857    -0.306    -0.286  0.2967 -0.3582  0.8853
              Bcc     0.0067     3.555     1.268     1.186  0.4901  0.8527  0.1808
 
              Baa    -0.0056    -2.989    -1.067    -0.997  0.9494  0.0240 -0.3131
    64 H(1)   Bbb    -0.0001    -0.074    -0.027    -0.025  0.2834  0.3640  0.8872
              Bcc     0.0057     3.064     1.093     1.022 -0.1353  0.9311 -0.3388
 
              Baa    -0.0054    -2.871    -1.024    -0.958  0.1551  0.1622  0.9745
    65 H(1)   Bbb    -0.0018    -0.962    -0.343    -0.321  0.9854 -0.0951 -0.1411
              Bcc     0.0072     3.833     1.368     1.278  0.0698  0.9822 -0.1746
 
              Baa    -0.0310   -16.555    -5.907    -5.522  0.7721  0.5152 -0.3722
    66 H(1)   Bbb    -0.0065    -3.487    -1.244    -1.163  0.3678  0.1154  0.9227
              Bcc     0.0376    20.042     7.151     6.685 -0.5183  0.8493  0.1004
 
              Baa    -0.0418   -22.294    -7.955    -7.437  0.9287 -0.3268  0.1754
    67 H(1)   Bbb    -0.0011    -0.589    -0.210    -0.197  0.3455  0.9342 -0.0890
              Bcc     0.0429    22.884     8.165     7.633 -0.1348  0.1433  0.9805
 
              Baa    -0.0407   -21.707    -7.746    -7.241  0.6652 -0.4758 -0.5755
    68 H(1)   Bbb    -0.0013    -0.670    -0.239    -0.223 -0.0478  0.7420 -0.6687
              Bcc     0.0419    22.377     7.985     7.464  0.7452  0.4723  0.4708
 
              Baa    -0.0014    -0.736    -0.263    -0.246  0.0729 -0.0602  0.9955
    69 H(1)   Bbb    -0.0012    -0.631    -0.225    -0.211  0.8447 -0.5270 -0.0937
              Bcc     0.0026     1.368     0.488     0.456  0.5303  0.8477  0.0124
 
              Baa    -0.0015    -0.800    -0.286    -0.267  0.0532  0.2287  0.9720
    70 H(1)   Bbb    -0.0013    -0.698    -0.249    -0.233  0.9046 -0.4233  0.0501
              Bcc     0.0028     1.498     0.535     0.500  0.4229  0.8766 -0.2294
 
              Baa    -0.0017    -0.900    -0.321    -0.300  0.0706 -0.0196  0.9973
    71 H(1)   Bbb    -0.0013    -0.716    -0.256    -0.239  0.9717 -0.2244 -0.0732
              Bcc     0.0030     1.617     0.577     0.539  0.2252  0.9743  0.0032
 
              Baa    -0.0015    -0.819    -0.292    -0.273 -0.6059  0.7915  0.0799
    72 H(1)   Bbb    -0.0015    -0.782    -0.279    -0.261  0.1856  0.0430  0.9817
              Bcc     0.0030     1.600     0.571     0.534  0.7736  0.6096 -0.1730
 
              Baa    -0.0020    -1.046    -0.373    -0.349  0.3695 -0.1669  0.9141
    73 H(1)   Bbb    -0.0018    -0.953    -0.340    -0.318 -0.2575  0.9268  0.2733
              Bcc     0.0037     1.999     0.713     0.667  0.8928  0.3364 -0.2994
 
              Baa    -0.0019    -1.001    -0.357    -0.334 -0.1598  0.2694  0.9497
    74 H(1)   Bbb    -0.0016    -0.840    -0.300    -0.280 -0.2156  0.9293 -0.2999
              Bcc     0.0035     1.841     0.657     0.614  0.9633  0.2527  0.0904
 
              Baa    -0.0015    -0.777    -0.277    -0.259 -0.4408  0.8685 -0.2269
    75 H(1)   Bbb    -0.0012    -0.659    -0.235    -0.220 -0.2866  0.1033  0.9525
              Bcc     0.0027     1.436     0.512     0.479  0.8506  0.4849  0.2033
 
              Baa    -0.0161    -8.572    -3.059    -2.859 -0.0273  0.9985 -0.0473
    76 H(1)   Bbb    -0.0146    -7.813    -2.788    -2.606  0.9928  0.0326  0.1152
              Bcc     0.0307    16.384     5.846     5.465 -0.1165  0.0438  0.9922
 
              Baa    -0.0357   -19.059    -6.801    -6.358 -0.3337  0.9259  0.1769
    77 H(1)   Bbb    -0.0225   -11.980    -4.275    -3.996  0.7464  0.3742 -0.5504
              Bcc     0.0582    31.039    11.076    10.354  0.5758  0.0516  0.8160
 
              Baa    -0.1143   -60.982   -21.760   -20.342  0.7562  0.6526  0.0476
    78 H(1)   Bbb    -0.0934   -49.845   -17.786   -16.626 -0.5443  0.5870  0.5993
              Bcc     0.2077   110.827    39.546    36.968  0.3631 -0.4791  0.7991
 
              Baa    -0.0342   -18.243    -6.510    -6.085 -0.3968  0.8927  0.2138
    79 H(1)   Bbb    -0.0171    -9.125    -3.256    -3.044  0.7765  0.2022  0.5968
              Bcc     0.0513    27.368     9.765     9.129 -0.4896 -0.4028  0.7734
 
              Baa    -0.0005    -0.272    -0.097    -0.091  0.0486  0.1237  0.9911
    80 H(1)   Bbb    -0.0005    -0.266    -0.095    -0.089 -0.4532  0.8870 -0.0885
              Bcc     0.0010     0.538     0.192     0.179  0.8901  0.4448 -0.0992
 
              Baa    -0.0007    -0.363    -0.130    -0.121 -0.1271  0.5174  0.8463
    81 H(1)   Bbb    -0.0006    -0.317    -0.113    -0.106  0.2659  0.8397 -0.4734
              Bcc     0.0013     0.680     0.243     0.227  0.9556 -0.1648  0.2443
 

 ---------------------------------------------------------------------------------

 1\1\GINC-NODE821\SP\UPBE1PBE\def2TZVP\C34H36Fe1N4O6(5)\KLEICH\18-Sep-2
 022\0\\# PBE1PBE/def2TZVP empiricaldispersion=GD3BJ int=(grid=ultrafin
 e) geom=check guess=read scrf=(smd,solvent=Chloroform)\\1cce_II_Q_solv
 \\0,5\C,0,-5.48,53.62,113.148\C,0,-7.571,57.663,114.65\C,0,-6.212,59.7
 74,110.58\C,0,-3.759,55.864,109.383\C,0,-6.201,54.529,113.94\C,0,-6.71
 7,54.212,115.182\C,0,-7.392,55.377,115.614\C,0,-7.138,56.332,114.631\C
 ,0,-8.283,55.562,116.835\C,0,-6.584,52.826,115.8\C,0,-5.521,52.715,116
 .871\C,0,-5.378,51.363,117.57\O,0,-6.217,50.989,118.381\O,0,-4.403,50.
 646,117.362\C,0,-7.47,58.618,113.624\C,0,-8.124,59.862,113.625\C,0,-7.
 763,60.457,112.409\C,0,-6.911,59.538,111.776\C,0,-9.109,60.337,114.701
 \C,0,-8.111,61.69,111.839\C,0,-8.971,62.736,112.366\C,0,-5.303,58.954,
 109.91\C,0,-4.54,59.325,108.805\C,0,-3.794,58.17,108.484\C,0,-4.196,57
 .199,109.399\C,0,-4.519,60.709,108.176\C,0,-2.842,57.879,107.491\C,0,-
 2.374,58.685,106.381\C,0,-3.977,54.842,110.284\C,0,-3.64,53.509,110.08
 6\C,0,-4.164,52.855,111.174\C,0,-4.755,53.841,111.963\C,0,-2.888,52.82
 7,108.948\C,0,-4.093,51.352,111.4\C,0,-3.176,51.046,112.555\C,0,-2.982
 ,49.599,112.903\O,0,-2.36,49.336,113.93\O,0,-3.445,48.727,112.182\N,0,
 -6.448,55.803,113.62\N,0,-6.816,58.405,112.482\N,0,-5.033,57.698,110.2
 93\N,0,-4.582,55.057,111.445\Fe,0,-5.719,56.734,111.941\O,0,-4.284,57.
 394,113.195\O,0,-7.101,55.961,110.708\H,0,-5.48270944,52.60896755,113.
 49829422\H,0,-8.03524361,57.99339133,115.55565967\H,0,-6.40448998,60.7
 1877956,110.11606123\H,0,-3.16139901,55.59694099,108.5365648\H,0,-8.36
 891296,56.60472598,117.05914613\H,0,-9.2535454,55.15955328,116.6325691
 \H,0,-7.85260181,55.05171079,117.67121906\H,0,-6.26267678,52.18481752,
 115.00593676\H,0,-7.51406047,52.63955831,116.29510304\H,0,-5.82540006,
 53.39559646,117.63848228\H,0,-4.59286539,52.86505729,116.36016837\H,0,
 -8.77788362,61.27326601,115.09933139\H,0,-10.07993397,60.45711609,114.
 26768792\H,0,-9.15617378,59.61190816,115.48644029\H,0,-7.68211721,61.8
 8898932,110.87912355\H,0,-9.61039298,63.44231863,111.87897781\H,0,-9.7
 1396272,62.06975701,111.97996027\H,0,-4.33953601,61.02979666,107.17112
 082\H,0,-3.48301127,60.45600158,108.08871229\H,0,-5.390304,60.30877178
 ,107.70108241\H,0,-2.39264453,56.91087831,107.56663101\H,0,-1.53288319
 ,59.26802394,106.69325886\H,0,-3.15887185,59.3361707,106.05719003\H,0,
 -2.17243963,52.14237926,109.35317626\H,0,-3.58132302,52.29459616,108.3
 3095109\H,0,-2.3826099,53.56551138,108.36141514\H,0,-3.63788041,50.931
 88344,110.52749313\H,0,-5.07286653,51.03970224,111.69535012\H,0,-3.650
 09218,51.4786957,113.41110223\H,0,-2.21158769,51.39132073,112.24586815
 \H,0,-3.53292348,57.99189971,113.195\H,0,-3.97065359,56.48657836,113.1
 95\H,0,-6.34992348,56.55889971,110.708\H,0,-6.78765359,55.05357836,110
 .708\H,0,-2.85733077,48.14197171,111.69827821\H,0,-3.51645184,50.99970
 047,117.46460767\\Version=AM64L-G16RevA.03\State=5-A\HF=-3249.2608258\
 S2=6.502757\S2-1=0.\S2A=6.034494\RMSD=3.654e-09\Dipole=1.1232675,0.985
 8901,-1.9932415\Quadrupole=14.4264818,1.2882855,-15.7147673,-27.490489
 2,4.1532964,34.1316805\PG=C01 [X(C34H36Fe1N4O6)]\\@


 BE LIKE A POSTAGE STAMP.  STICK TO ONE THING UNTIL
 YOU GET THERE -- JOSH BILLINGS
 Job cpu time:       2 days 22 hours 37 minutes  1.0 seconds.
 Elapsed time:       0 days 17 hours 42 minutes 11.0 seconds.
 File lengths (MBytes):  RWF=   3010 Int=      0 D2E=      0 Chk=    213 Scr=      1
 Normal termination of Gaussian 16 at Sun Sep 18 20:38:35 2022.
