 Initial command:
 /afs/math/software/gaussian/g16.A03/g16/l1.exe "/scratch/kleich_gaussian.v1LwxIv/Gau-13639.inp" -scrdir="/scratch/kleich_gaussian.v1LwxIv/"
 Entering Link 1 = /afs/math/software/gaussian/g16.A03/g16/l1.exe PID=      7753.
  
 Copyright (c) 1988,1990,1992,1993,1995,1998,2003,2009,2016,
            Gaussian, Inc.  All Rights Reserved.
  
 This is part of the Gaussian(R) 16 program.  It is based on
 the Gaussian(R) 09 system (copyright 2009, Gaussian, Inc.),
 the Gaussian(R) 03 system (copyright 2003, Gaussian, Inc.),
 the Gaussian(R) 98 system (copyright 1998, Gaussian, Inc.),
 the Gaussian(R) 94 system (copyright 1995, Gaussian, Inc.),
 the Gaussian 92(TM) system (copyright 1992, Gaussian, Inc.),
 the Gaussian 90(TM) system (copyright 1990, Gaussian, Inc.),
 the Gaussian 88(TM) system (copyright 1988, Gaussian, Inc.),
 the Gaussian 86(TM) system (copyright 1986, Carnegie Mellon
 University), and the Gaussian 82(TM) system (copyright 1983,
 Carnegie Mellon University). Gaussian is a federally registered
 trademark of Gaussian, Inc.
  
 This software contains proprietary and confidential information,
 including trade secrets, belonging to Gaussian, Inc.
  
 This software is provided under written license and may be
 used, copied, transmitted, or stored only in accord with that
 written license.
  
 The following legend is applicable only to US Government
 contracts under FAR:
  
                    RESTRICTED RIGHTS LEGEND
  
 Use, reproduction and disclosure by the US Government is
 subject to restrictions as set forth in subparagraphs (a)
 and (c) of the Commercial Computer Software - Restricted
 Rights clause in FAR 52.227-19.
  
 Gaussian, Inc.
 340 Quinnipiac St., Bldg. 40, Wallingford CT 06492
  
  
 ---------------------------------------------------------------
 Warning -- This program may not be used in any manner that
 competes with the business of Gaussian, Inc. or will provide
 assistance to any competitor of Gaussian, Inc.  The licensee
 of this program is prohibited from giving any competitor of
 Gaussian, Inc. access to this program.  By using this program,
 the user acknowledges that Gaussian, Inc. is engaged in the
 business of creating and licensing software in the field of
 computational chemistry and represents and warrants to the
 licensee that it is not a competitor of Gaussian, Inc. and that
 it will not use this program in any manner prohibited above.
 ---------------------------------------------------------------
  

 Cite this work as:
 Gaussian 16, Revision A.03,
 M. J. Frisch, G. W. Trucks, H. B. Schlegel, G. E. Scuseria, 
 M. A. Robb, J. R. Cheeseman, G. Scalmani, V. Barone, 
 G. A. Petersson, H. Nakatsuji, X. Li, M. Caricato, A. V. Marenich, 
 J. Bloino, B. G. Janesko, R. Gomperts, B. Mennucci, H. P. Hratchian, 
 J. V. Ortiz, A. F. Izmaylov, J. L. Sonnenberg, D. Williams-Young, 
 F. Ding, F. Lipparini, F. Egidi, J. Goings, B. Peng, A. Petrone, 
 T. Henderson, D. Ranasinghe, V. G. Zakrzewski, J. Gao, N. Rega, 
 G. Zheng, W. Liang, M. Hada, M. Ehara, K. Toyota, R. Fukuda, 
 J. Hasegawa, M. Ishida, T. Nakajima, Y. Honda, O. Kitao, H. Nakai, 
 T. Vreven, K. Throssell, J. A. Montgomery, Jr., J. E. Peralta, 
 F. Ogliaro, M. J. Bearpark, J. J. Heyd, E. N. Brothers, K. N. Kudin, 
 V. N. Staroverov, T. A. Keith, R. Kobayashi, J. Normand, 
 K. Raghavachari, A. P. Rendell, J. C. Burant, S. S. Iyengar, 
 J. Tomasi, M. Cossi, J. M. Millam, M. Klene, C. Adamo, R. Cammi, 
 J. W. Ochterski, R. L. Martin, K. Morokuma, O. Farkas, 
 J. B. Foresman, and D. J. Fox, Gaussian, Inc., Wallingford CT, 2016.
 
 ******************************************
 Gaussian 16:  ES64L-G16RevA.03 25-Dec-2016
                20-Sep-2022 
 ******************************************
 %nprocs=12
 Will use up to   12 processors via shared memory.
 %mem=16GB
 %chk=1cce_III_H.chk
 ----------------------------------------------------------------------
 # PBE1PBE/def2TZVP empiricaldispersion=GD3BJ int=(grid=ultrafine) geom
 =check guess=read scrf=(smd,solvent=Chloroform)
 ----------------------------------------------------------------------
 1/29=2,38=1,172=1/1;
 2/12=2,40=1/2;
 3/5=44,7=101,11=2,14=-4,25=1,30=1,70=32201,72=7,74=-13,75=-5,116=-2,124=41/1,2,3;
 4/5=1/1;
 5/5=2,38=6,53=7/2;
 6/7=2,8=2,9=2,10=2,28=1/1;
 99/5=1,9=1/99;
 ---------------
 1cce_III_H_solv
 ---------------
 Structure from the checkpoint file:  "1cce_III_H.chk"
 Charge =  1 Multiplicity = 6
 Z-Matrix found in chk file.
 C,0,-5.48,53.62,113.148
 C,0,-7.571,57.663,114.65
 C,0,-6.212,59.774,110.58
 C,0,-3.759,55.864,109.383
 C,0,-6.201,54.529,113.94
 C,0,-6.717,54.212,115.182
 C,0,-7.392,55.377,115.614
 C,0,-7.138,56.332,114.631
 C,0,-8.283,55.562,116.835
 C,0,-6.584,52.826,115.8
 C,0,-5.521,52.715,116.871
 C,0,-5.378,51.363,117.57
 O,0,-6.217,50.989,118.381
 O,0,-4.403,50.646,117.362
 C,0,-7.47,58.618,113.624
 C,0,-8.124,59.862,113.625
 C,0,-7.763,60.457,112.409
 C,0,-6.911,59.538,111.776
 C,0,-9.109,60.337,114.701
 C,0,-8.111,61.69,111.839
 C,0,-8.971,62.736,112.366
 C,0,-5.303,58.954,109.91
 C,0,-4.54,59.325,108.805
 C,0,-3.794,58.17,108.484
 C,0,-4.196,57.199,109.399
 C,0,-4.519,60.709,108.176
 C,0,-2.842,57.879,107.491
 C,0,-2.374,58.685,106.381
 C,0,-3.977,54.842,110.284
 C,0,-3.64,53.509,110.086
 C,0,-4.164,52.855,111.174
 C,0,-4.755,53.841,111.963
 C,0,-2.888,52.827,108.948
 C,0,-4.093,51.352,111.4
 C,0,-3.176,51.046,112.555
 C,0,-2.982,49.599,112.903
 O,0,-2.36,49.336,113.93
 O,0,-3.445,48.727,112.182
 N,0,-6.448,55.803,113.62
 N,0,-6.816,58.405,112.482
 N,0,-5.033,57.698,110.293
 N,0,-4.582,55.057,111.445
 Fe,0,-5.719,56.734,111.941
 O,0,-4.284,57.394,113.195
 O,0,-7.101,55.961,110.708
 H,0,-5.48270944,52.60896755,113.49829422
 H,0,-8.03524361,57.99339133,115.55565967
 H,0,-6.40448998,60.71877956,110.11606123
 H,0,-3.16139901,55.59694099,108.5365648
 H,0,-8.36891296,56.60472598,117.05914613
 H,0,-9.2535454,55.15955328,116.6325691
 H,0,-7.85260181,55.05171079,117.67121906
 H,0,-6.26267678,52.18481752,115.00593676
 H,0,-7.51406047,52.63955831,116.29510304
 H,0,-5.82540006,53.39559646,117.63848228
 H,0,-4.59286539,52.86505729,116.36016837
 H,0,-8.77788362,61.27326601,115.09933139
 H,0,-10.07993397,60.45711609,114.26768792
 H,0,-9.15617378,59.61190816,115.48644029
 H,0,-7.68211721,61.88898932,110.87912355
 H,0,-9.61039298,63.44231863,111.87897781
 H,0,-9.71396272,62.06975701,111.97996027
 H,0,-4.33953601,61.02979666,107.17112082
 H,0,-3.48301127,60.45600158,108.08871229
 H,0,-5.390304,60.30877178,107.70108241
 H,0,-2.39264453,56.91087831,107.56663101
 H,0,-1.53288319,59.26802394,106.69325886
 H,0,-3.15887185,59.3361707,106.05719003
 H,0,-2.17243963,52.14237926,109.35317626
 H,0,-3.58132302,52.29459616,108.33095109
 H,0,-2.3826099,53.56551138,108.36141514
 H,0,-3.63788041,50.93188344,110.52749313
 H,0,-5.07286653,51.03970224,111.69535012
 H,0,-3.65009218,51.4786957,113.41110223
 H,0,-2.21158769,51.39132073,112.24586815
 H,0,-3.53292348,57.99189971,113.195
 H,0,-3.97065359,56.48657836,113.195
 H,0,-6.34992348,56.55889971,110.708
 H,0,-6.78765359,55.05357836,110.708
 H,0,-2.85733077,48.14197171,111.69827821
 H,0,-3.51645184,50.99970047,117.46460767
 Recover connectivity data from disk.
 Center=     -5.48322662     55.92056561    112.29845634
 Residue   0                        charge    0.00000000 layers R        AvRTP=      7.12770992    289.88216988     71.31909166
 Residue   4                        charge    0.00000000 layers R        AvRTP=      0.00000000      0.00000000      0.00000000
 Residue   2 PDB Number   313_A HOH charge    0.00000000 layers R        AvRTP=      2.25752666     41.40404323     66.60078230
 Residue   3 PDB Number   387_A HOH charge    0.00000000 layers R        AvRTP=      2.03188830    182.84391009    141.51286530
 Residue   1 PDB Number     1_A HEM charge    0.00000000 layers R        AvRTP=      0.14567071    121.91288658    103.50989736
 Stoichiometry    C34H36FeN4O6(1+,6)
 Framework group  C1[X(C34H36FeN4O6)]
 Deg. of freedom   237
 Full point group                 C1      NOp   1
 Largest Abelian subgroup         C1      NOp   1
 Largest concise Abelian subgroup C1      NOp   1
                         Standard orientation:                         
 ---------------------------------------------------------------------
 Center     Atomic      Atomic             Coordinates (Angstroms)
 Number     Number       Type             X           Y           Z
 ---------------------------------------------------------------------
      1          6           0        2.215484   -0.034313   -0.468490
      2          6           0       -1.124328   -3.435501    0.033210
      3          6           0       -4.473291   -0.021934    0.043667
      4          6           0       -1.062382    3.310246    0.023569
      5          6           0        1.611099   -1.296830   -0.349515
      6          6           0        2.323720   -2.480111   -0.313105
      7          6           0        1.348523   -3.500464   -0.227404
      8          6           0        0.129757   -2.832754   -0.119690
      9          6           0        1.539919   -5.008531   -0.317125
     10          6           0        3.841227   -2.531964   -0.435963
     11          6           0        4.570689   -2.742716    0.872777
     12          6           0        6.093415   -2.861194    0.807805
     13          8           0        6.621235   -3.874269    0.364406
     14          8           0        6.814177   -1.962617    1.233293
     15          6           0       -2.387413   -2.820475   -0.002318
     16          6           0       -3.609475   -3.511460   -0.068331
     17          6           0       -4.585953   -2.507799   -0.114796
     18          6           0       -3.883671   -1.293382   -0.058715
     19          6           0       -3.753549   -5.033739   -0.192963
     20          6           0       -5.983958   -2.575512   -0.200172
     21          6           0       -6.845188   -3.744108   -0.264294
     22          6           0       -3.864962    1.228138    0.165479
     23          6           0       -4.525987    2.429559    0.411385
     24          6           0       -3.501120    3.400403    0.437684
     25          6           0       -2.321978    2.706560    0.173346
     26          6           0       -6.019771    2.577510    0.652748
     27          6           0       -3.492219    4.791514    0.642049
     28          6           0       -4.594230    5.718064    0.808893
     29          6           0        0.188112    2.744433   -0.117602
     30          6           0        1.352683    3.433818   -0.430946
     31          6           0        2.300255    2.453684   -0.596719
     32          6           0        1.648320    1.247063   -0.345634
     33          6           0        1.615391    4.926534   -0.599629
     34          6           0        3.747742    2.704319   -0.993064
     35          6           0        4.661098    2.395575    0.164091
     36          6           0        6.130769    2.605574   -0.056171
     37          8           0        6.901481    2.219508    0.820036
     38          8           0        6.527814    3.134318   -1.084460
     39          7           0        0.298328   -1.514080   -0.223336
     40          7           0       -2.561667   -1.500946   -0.077988
     41          7           0       -2.537976    1.404342    0.093476
     42          7           0        0.376959    1.437161    0.007086
     43         26           0       -1.107873   -0.026320   -0.060815
     44          8           0       -0.925722   -0.369372    1.918194
     45          8           0       -1.171312    0.359346   -2.029312
     46          1           0        3.263285   -0.049652   -0.684771
     47          1           0       -1.120817   -4.492881    0.197024
     48          1           0       -5.543079   -0.010633    0.025623
     49          1           0       -1.074684    4.380161    0.018084
     50          1           0        0.688487   -5.501752    0.103227
     51          1           0        1.647199   -5.294051   -1.342732
     52          1           0        2.418556   -5.289430    0.225086
     53          1           0        4.136965   -1.562601   -0.779147
     54          1           0        4.054099   -3.397188   -1.028391
     55          1           0        4.231602   -3.691851    1.232030
     56          1           0        4.383375   -1.856862    1.442932
     57          1           0       -4.365410   -5.400570    0.604509
     58          1           0       -4.208955   -5.273278   -1.131114
     59          1           0       -2.786767   -5.489089   -0.139210
     60          1           0       -6.488480   -1.632156   -0.221085
     61          1           0       -7.788874   -3.905549   -0.742095
     62          1           0       -6.540043   -3.689126   -1.288385
     63          1           0       -6.694727    3.383886    0.455028
     64          1           0       -5.652036    3.296195    1.355002
     65          1           0       -6.011176    2.561077   -0.417092
     66          1           0       -2.519527    5.235700    0.680405
     67          1           0       -4.839037    5.797816    1.847455
     68          1           0       -5.445616    5.360749    0.268182
     69          1           0        2.518659    5.189551   -0.089895
     70          1           0        1.713207    5.156124   -1.640119
     71          1           0        0.798631    5.481266   -0.187225
     72          1           0        3.836551    3.753702   -1.182294
     73          1           0        3.980888    2.000036   -1.764121
     74          1           0        4.550947    1.345094    0.335138
     75          1           0        4.390074    3.093417    0.928592
     76          1           0       -1.329726   -0.099500    2.746173
     77          1           0       -0.062202    0.041647    1.834548
     78          1           0       -1.575316    0.629218   -1.201333
     79          1           0       -0.307792    0.770365   -2.112958
     80          1           0        6.948956    3.996294   -1.049296
     81          1           0        6.694223   -1.633694    2.127173
 ---------------------------------------------------------------------
 Rotational constants (GHZ):           0.0921782           0.0514608           0.0344033
 Standard basis: def2TZVP (5D, 7F)
 There are  1852 symmetry adapted cartesian basis functions of A   symmetry.
 There are  1625 symmetry adapted basis functions of A   symmetry.
  1625 basis functions,  2634 primitive gaussians,  1852 cartesian basis functions
   173 alpha electrons      168 beta electrons
       nuclear repulsion energy      6425.8624552670 Hartrees.
 NAtoms=   81 NActive=   81 NUniq=   81 SFac= 1.00D+00 NAtFMM=   60 NAOKFM=T Big=T
 Integral buffers will be    131072 words long.
 Raffenetti 2 integral format.
 Two-electron integral symmetry is turned on.
 Nuclear repulsion after empirical dispersion term =     6425.7519075358 Hartrees.
 ------------------------------------------------------------------------------
 Polarizable Continuum Model (PCM)
 =================================
 Model                : PCM.
 Atomic radii         : SMD-Coulomb.
 Polarization charges : Total charges.
 Charge compensation  : None.
 Solution method      : On-the-fly selection.
 Cavity type          : VdW (van der Waals Surface) (Alpha=1.000).
 Cavity algorithm     : GePol (No added spheres)
                        Default sphere list used, NSphG=   81.
                        Lebedev-Laikov grids with approx.  5.0 points / Ang**2.
                        Smoothing algorithm: York/Karplus (Gamma=1.0000).
                        Polarization charges: spherical gaussians, with
                                              point-specific exponents (IZeta= 3).
                        Self-potential: point-specific (ISelfS= 7).
                        Self-field    : sphere-specific E.n sum rule (ISelfD= 2).
 Solvent              : Chloroform, Eps=   4.711300 Eps(inf)=   2.090627
 ------------------------------------------------------------------------------
 ------------------------------------------------------------------------------
 Atomic radii for non-electrostatic terms: SMD-CDS.
 ------------------------------------------------------------------------------
 Nuclear repulsion after PCM non-electrostatic terms =     6425.7367537795 Hartrees.
 One-electron integrals computed using PRISM.
   1 Symmetry operations used in ECPInt.
 ECPInt:  NShTT=  207046 NPrTT=  642413 LenC2=  150115 LenP2D=  305059.
 LDataN:  DoStor=T MaxTD1= 6 Len=  172
 NBasis=  1625 RedAO= T EigKep=  3.11D-06  NBF=  1625
 NBsUse=  1625 1.00D-06 EigRej= -1.00D+00 NBFU=  1625
 Initial guess from the checkpoint file:  "1cce_III_H.chk"
 B after Tr=     0.000000    0.000000    0.000000
         Rot=    1.000000    0.000000    0.000000   -0.000000 Ang=   0.00 deg.
 Initial guess <Sx>= 0.0000 <Sy>= 0.0000 <Sz>= 2.5000 <S**2>= 8.8881 S= 2.5229
 Requested convergence on RMS density matrix=1.00D-08 within 128 cycles.
 Requested convergence on MAX density matrix=1.00D-06.
 Requested convergence on             energy=1.00D-06.
 No special actions if energy rises.
 Inv3:  Mode=1 IEnd=   100155852.
 Iteration    1 A*A^-1 deviation from unit magnitude is 4.44D-15 for   4152.
 Iteration    1 A*A^-1 deviation from orthogonality  is 2.23D-15 for   1709    258.
 Iteration    1 A^-1*A deviation from unit magnitude is 4.00D-15 for   4152.
 Iteration    1 A^-1*A deviation from orthogonality  is 3.11D-15 for   3688    923.
 Restarting incremental Fock formation.
 Error on total polarization charges =  0.07017
 SCF Done:  E(UPBE1PBE) =  -3249.09225618     A.U. after   36 cycles
            NFock= 36  Conv=0.37D-08     -V/T= 2.0024
 <Sx>= 0.0000 <Sy>= 0.0000 <Sz>= 2.5000 <S**2>= 8.8519 S= 2.5169
 <L.S>= 0.000000000000E+00
 SMD-CDS (non-electrostatic) energy       (kcal/mol) =      -9.51
 (included in total energy above)
 Annihilation of the first spin contaminant:
 S**2 before annihilation     8.8519,   after     8.7527

 **********************************************************************

            Population analysis using the SCF density.

 **********************************************************************

 Orbital symmetries:
 Alpha Orbitals:
       Occupied  (A) (A) (A) (A) (A) (A) (A) (A) (A) (A) (A) (A)
                 (A) (A) (A) (A) (A) (A) (A) (A) (A) (A) (A) (A)
                 (A) (A) (A) (A) (A) (A) (A) (A) (A) (A) (A) (A)
                 (A) (A) (A) (A) (A) (A) (A) (A) (A) (A) (A) (A)
                 (A) (A) (A) (A) (A) (A) (A) (A) (A) (A) (A) (A)
                 (A) (A) (A) (A) (A) (A) (A) (A) (A) (A) (A) (A)
                 (A) (A) (A) (A) (A) (A) (A) (A) (A) (A) (A) (A)
                 (A) (A) (A) (A) (A) (A) (A) (A) (A) (A) (A) (A)
                 (A) (A) (A) (A) (A) (A) (A) (A) (A) (A) (A) (A)
                 (A) (A) (A) (A) (A) (A) (A) (A) (A) (A) (A) (A)
                 (A) (A) (A) (A) (A) (A) (A) (A) (A) (A) (A) (A)
                 (A) (A) (A) (A) (A) (A) (A) (A) (A) (A) (A) (A)
                 (A) (A) (A) (A) (A) (A) (A) (A) (A) (A) (A) (A)
                 (A) (A) (A) (A) (A) (A) (A) (A) (A) (A) (A) (A)
                 (A) (A) (A) (A) (A)
       Virtual   (A) (A) (A) (A) (A) (A) (A) (A) (A) (A) (A) (A)
                 (A) (A) (A) (A) (A) (A) (A) (A) (A) (A) (A) (A)
                 (A) (A) (A) (A) (A) (A) (A) (A) (A) (A) (A) (A)
                 (A) (A) (A) (A) (A) (A) (A) (A) (A) (A) (A) (A)
                 (A) (A) (A) (A) (A) (A) (A) (A) (A) (A) (A) (A)
                 (A) (A) (A) (A) (A) (A) (A) (A) (A) (A) (A) (A)
                 (A) (A) (A) (A) (A) (A) (A) (A) (A) (A) (A) (A)
                 (A) (A) (A) (A) (A) (A) (A) (A) (A) (A) (A) (A)
                 (A) (A) (A) (A) (A) (A) (A) (A) (A) (A) (A) (A)
                 (A) (A) (A) (A) (A) (A) (A) (A) (A) (A) (A) (A)
                 (A) (A) (A) (A) (A) (A) (A) (A) (A) (A) (A) (A)
                 (A) (A) (A) (A) (A) (A) (A) (A) (A) (A) (A) (A)
                 (A) (A) (A) (A) (A) (A) (A) (A) (A) (A) (A) (A)
                 (A) (A) (A) (A) (A) (A) (A) (A) (A) (A) (A) (A)
                 (A) (A) (A) (A) (A) (A) (A) (A) (A) (A) (A) (A)
                 (A) (A) (A) (A) (A) (A) (A) (A) (A) (A) (A) (A)
                 (A) (A) (A) (A) (A) (A) (A) (A) (A) (A) (A) (A)
                 (A) (A) (A) (A) (A) (A) (A) (A) (A) (A) (A) (A)
                 (A) (A) (A) (A) (A) (A) (A) (A) (A) (A) (A) (A)
                 (A) (A) (A) (A) (A) (A) (A) (A) (A) (A) (A) (A)
                 (A) (A) (A) (A) (A) (A) (A) (A) (A) (A) (A) (A)
                 (A) (A) (A) (A) (A) (A) (A) (A) (A) (A) (A) (A)
                 (A) (A) (A) (A) (A) (A) (A) (A) (A) (A) (A) (A)
                 (A) (A) (A) (A) (A) (A) (A) (A) (A) (A) (A) (A)
                 (A) (A) (A) (A) (A) (A) (A) (A) (A) (A) (A) (A)
                 (A) (A) (A) (A) (A) (A) (A) (A) (A) (A) (A) (A)
                 (A) (A) (A) (A) (A) (A) (A) (A) (A) (A) (A) (A)
                 (A) (A) (A) (A) (A) (A) (A) (A) (A) (A) (A) (A)
                 (A) (A) (A) (A) (A) (A) (A) (A) (A) (A) (A) (A)
                 (A) (A) (A) (A) (A) (A) (A) (A) (A) (A) (A) (A)
                 (A) (A) (A) (A) (A) (A) (A) (A) (A) (A) (A) (A)
                 (A) (A) (A) (A) (A) (A) (A) (A) (A) (A) (A) (A)
                 (A) (A) (A) (A) (A) (A) (A) (A) (A) (A) (A) (A)
                 (A) (A) (A) (A) (A) (A) (A) (A) (A) (A) (A) (A)
                 (A) (A) (A) (A) (A) (A) (A) (A) (A) (A) (A) (A)
                 (A) (A) (A) (A) (A) (A) (A) (A) (A) (A) (A) (A)
                 (A) (A) (A) (A) (A) (A) (A) (A) (A) (A) (A) (A)
                 (A) (A) (A) (A) (A) (A) (A) (A) (A) (A) (A) (A)
                 (A) (A) (A) (A) (A) (A) (A) (A) (A) (A) (A) (A)
                 (A) (A) (A) (A) (A) (A) (A) (A) (A) (A) (A) (A)
                 (A) (A) (A) (A) (A) (A) (A) (A) (A) (A) (A) (A)
                 (A) (A) (A) (A) (A) (A) (A) (A) (A) (A) (A) (A)
                 (A) (A) (A) (A) (A) (A) (A) (A) (A) (A) (A) (A)
                 (A) (A) (A) (A) (A) (A) (A) (A) (A) (A) (A) (A)
                 (A) (A) (A) (A) (A) (A) (A) (A) (A) (A) (A) (A)
                 (A) (A) (A) (A) (A) (A) (A) (A) (A) (A) (A) (A)
                 (A) (A) (A) (A) (A) (A) (A) (A) (A) (A) (A) (A)
                 (A) (A) (A) (A) (A) (A) (A) (A) (A) (A) (A) (A)
                 (A) (A) (A) (A) (A) (A) (A) (A) (A) (A) (A) (A)
                 (A) (A) (A) (A) (A) (A) (A) (A) (A) (A) (A) (A)
                 (A) (A) (A) (A) (A) (A) (A) (A) (A) (A) (A) (A)
                 (A) (A) (A) (A) (A) (A) (A) (A) (A) (A) (A) (A)
                 (A) (A) (A) (A) (A) (A) (A) (A) (A) (A) (A) (A)
                 (A) (A) (A) (A) (A) (A) (A) (A) (A) (A) (A) (A)
                 (A) (A) (A) (A) (A) (A) (A) (A) (A) (A) (A) (A)
                 (A) (A) (A) (A) (A) (A) (A) (A) (A) (A) (A) (A)
                 (A) (A) (A) (A) (A) (A) (A) (A) (A) (A) (A) (A)
                 (A) (A) (A) (A) (A) (A) (A) (A) (A) (A) (A) (A)
                 (A) (A) (A) (A) (A) (A) (A) (A) (A) (A) (A) (A)
                 (A) (A) (A) (A) (A) (A) (A) (A) (A) (A) (A) (A)
                 (A) (A) (A) (A) (A) (A) (A) (A) (A) (A) (A) (A)
                 (A) (A) (A) (A) (A) (A) (A) (A) (A) (A) (A) (A)
                 (A) (A) (A) (A) (A) (A) (A) (A) (A) (A) (A) (A)
                 (A) (A) (A) (A) (A) (A) (A) (A) (A) (A) (A) (A)
                 (A) (A) (A) (A) (A) (A) (A) (A) (A) (A) (A) (A)
                 (A) (A) (A) (A) (A) (A) (A) (A) (A) (A) (A) (A)
                 (A) (A) (A) (A) (A) (A) (A) (A) (A) (A) (A) (A)
                 (A) (A) (A) (A) (A) (A) (A) (A) (A) (A) (A) (A)
                 (A) (A) (A) (A) (A) (A) (A) (A) (A) (A) (A) (A)
                 (A) (A) (A) (A) (A) (A) (A) (A) (A) (A) (A) (A)
                 (A) (A) (A) (A) (A) (A) (A) (A) (A) (A) (A) (A)
                 (A) (A) (A) (A) (A) (A) (A) (A) (A) (A) (A) (A)
                 (A) (A) (A) (A) (A) (A) (A) (A) (A) (A) (A) (A)
                 (A) (A) (A) (A) (A) (A) (A) (A) (A) (A) (A) (A)
                 (A) (A) (A) (A) (A) (A) (A) (A) (A) (A) (A) (A)
                 (A) (A) (A) (A) (A) (A) (A) (A) (A) (A) (A) (A)
                 (A) (A) (A) (A) (A) (A) (A) (A) (A) (A) (A) (A)
                 (A) (A) (A) (A) (A) (A) (A) (A) (A) (A) (A) (A)
                 (A) (A) (A) (A) (A) (A) (A) (A) (A) (A) (A) (A)
                 (A) (A) (A) (A) (A) (A) (A) (A) (A) (A) (A) (A)
                 (A) (A) (A) (A) (A) (A) (A) (A) (A) (A) (A) (A)
                 (A) (A) (A) (A) (A) (A) (A) (A) (A) (A) (A) (A)
                 (A) (A) (A) (A) (A) (A) (A) (A) (A) (A) (A) (A)
                 (A) (A) (A) (A) (A) (A) (A) (A) (A) (A) (A) (A)
                 (A) (A) (A) (A) (A) (A) (A) (A) (A) (A) (A) (A)
                 (A) (A) (A) (A) (A) (A) (A) (A) (A) (A) (A) (A)
                 (A) (A) (A) (A) (A) (A) (A) (A) (A) (A) (A) (A)
                 (A) (A) (A) (A) (A) (A) (A) (A) (A) (A) (A) (A)
                 (A) (A) (A) (A) (A) (A) (A) (A) (A) (A) (A) (A)
                 (A) (A) (A) (A) (A) (A) (A) (A) (A) (A) (A) (A)
                 (A) (A) (A) (A) (A) (A) (A) (A) (A) (A) (A) (A)
                 (A) (A) (A) (A) (A) (A) (A) (A) (A) (A) (A) (A)
                 (A) (A) (A) (A) (A) (A) (A) (A) (A) (A) (A) (A)
                 (A) (A) (A) (A) (A) (A) (A) (A) (A) (A) (A) (A)
                 (A) (A) (A) (A) (A) (A) (A) (A) (A) (A) (A) (A)
                 (A) (A) (A) (A) (A) (A) (A) (A) (A) (A) (A) (A)
                 (A) (A) (A) (A) (A) (A) (A) (A) (A) (A) (A) (A)
                 (A) (A) (A) (A) (A) (A) (A) (A) (A) (A) (A) (A)
                 (A) (A) (A) (A) (A) (A) (A) (A) (A) (A) (A) (A)
                 (A) (A) (A) (A) (A) (A) (A) (A) (A) (A) (A) (A)
                 (A) (A) (A) (A) (A) (A) (A) (A) (A) (A) (A) (A)
                 (A) (A) (A) (A) (A) (A) (A) (A) (A) (A) (A) (A)
                 (A) (A) (A) (A) (A) (A) (A) (A) (A) (A) (A) (A)
                 (A) (A) (A) (A) (A) (A) (A) (A) (A) (A) (A) (A)
                 (A) (A) (A) (A) (A) (A) (A) (A) (A) (A) (A) (A)
                 (A) (A) (A) (A) (A) (A) (A) (A) (A) (A) (A) (A)
                 (A) (A) (A) (A) (A) (A) (A) (A) (A) (A) (A) (A)
                 (A) (A) (A) (A) (A) (A) (A) (A) (A) (A) (A) (A)
                 (A) (A) (A) (A) (A) (A) (A) (A) (A) (A) (A) (A)
                 (A) (A) (A) (A) (A) (A) (A) (A) (A) (A) (A) (A)
                 (A) (A) (A) (A) (A) (A) (A) (A) (A) (A) (A) (A)
                 (A) (A) (A) (A) (A) (A) (A) (A) (A) (A) (A) (A)
                 (A) (A) (A) (A) (A) (A) (A) (A) (A) (A) (A) (A)
                 (A) (A) (A) (A) (A) (A) (A) (A) (A) (A) (A) (A)
                 (A) (A) (A) (A) (A) (A) (A) (A) (A) (A) (A) (A)
                 (A) (A) (A) (A) (A) (A) (A) (A) (A) (A) (A) (A)
                 (A) (A) (A) (A) (A) (A) (A) (A) (A) (A) (A) (A)
                 (A) (A) (A) (A) (A) (A) (A) (A) (A) (A) (A) (A)
                 (A) (A) (A) (A) (A) (A) (A) (A) (A) (A) (A) (A)
                 (A) (A) (A) (A) (A) (A) (A) (A) (A) (A) (A) (A)
                 (A) (A) (A) (A) (A) (A) (A) (A) (A) (A) (A) (A)
 Beta  Orbitals:
       Occupied  (A) (A) (A) (A) (A) (A) (A) (A) (A) (A) (A) (A)
                 (A) (A) (A) (A) (A) (A) (A) (A) (A) (A) (A) (A)
                 (A) (A) (A) (A) (A) (A) (A) (A) (A) (A) (A) (A)
                 (A) (A) (A) (A) (A) (A) (A) (A) (A) (A) (A) (A)
                 (A) (A) (A) (A) (A) (A) (A) (A) (A) (A) (A) (A)
                 (A) (A) (A) (A) (A) (A) (A) (A) (A) (A) (A) (A)
                 (A) (A) (A) (A) (A) (A) (A) (A) (A) (A) (A) (A)
                 (A) (A) (A) (A) (A) (A) (A) (A) (A) (A) (A) (A)
                 (A) (A) (A) (A) (A) (A) (A) (A) (A) (A) (A) (A)
                 (A) (A) (A) (A) (A) (A) (A) (A) (A) (A) (A) (A)
                 (A) (A) (A) (A) (A) (A) (A) (A) (A) (A) (A) (A)
                 (A) (A) (A) (A) (A) (A) (A) (A) (A) (A) (A) (A)
                 (A) (A) (A) (A) (A) (A) (A) (A) (A) (A) (A) (A)
                 (A) (A) (A) (A) (A) (A) (A) (A) (A) (A) (A) (A)
       Virtual   (A) (A) (A) (A) (A) (A) (A) (A) (A) (A) (A) (A)
                 (A) (A) (A) (A) (A) (A) (A) (A) (A) (A) (A) (A)
                 (A) (A) (A) (A) (A) (A) (A) (A) (A) (A) (A) (A)
                 (A) (A) (A) (A) (A) (A) (A) (A) (A) (A) (A) (A)
                 (A) (A) (A) (A) (A) (A) (A) (A) (A) (A) (A) (A)
                 (A) (A) (A) (A) (A) (A) (A) (A) (A) (A) (A) (A)
                 (A) (A) (A) (A) (A) (A) (A) (A) (A) (A) (A) (A)
                 (A) (A) (A) (A) (A) (A) (A) (A) (A) (A) (A) (A)
                 (A) (A) (A) (A) (A) (A) (A) (A) (A) (A) (A) (A)
                 (A) (A) (A) (A) (A) (A) (A) (A) (A) (A) (A) (A)
                 (A) (A) (A) (A) (A) (A) (A) (A) (A) (A) (A) (A)
                 (A) (A) (A) (A) (A) (A) (A) (A) (A) (A) (A) (A)
                 (A) (A) (A) (A) (A) (A) (A) (A) (A) (A) (A) (A)
                 (A) (A) (A) (A) (A) (A) (A) (A) (A) (A) (A) (A)
                 (A) (A) (A) (A) (A) (A) (A) (A) (A) (A) (A) (A)
                 (A) (A) (A) (A) (A) (A) (A) (A) (A) (A) (A) (A)
                 (A) (A) (A) (A) (A) (A) (A) (A) (A) (A) (A) (A)
                 (A) (A) (A) (A) (A) (A) (A) (A) (A) (A) (A) (A)
                 (A) (A) (A) (A) (A) (A) (A) (A) (A) (A) (A) (A)
                 (A) (A) (A) (A) (A) (A) (A) (A) (A) (A) (A) (A)
                 (A) (A) (A) (A) (A) (A) (A) (A) (A) (A) (A) (A)
                 (A) (A) (A) (A) (A) (A) (A) (A) (A) (A) (A) (A)
                 (A) (A) (A) (A) (A) (A) (A) (A) (A) (A) (A) (A)
                 (A) (A) (A) (A) (A) (A) (A) (A) (A) (A) (A) (A)
                 (A) (A) (A) (A) (A) (A) (A) (A) (A) (A) (A) (A)
                 (A) (A) (A) (A) (A) (A) (A) (A) (A) (A) (A) (A)
                 (A) (A) (A) (A) (A) (A) (A) (A) (A) (A) (A) (A)
                 (A) (A) (A) (A) (A) (A) (A) (A) (A) (A) (A) (A)
                 (A) (A) (A) (A) (A) (A) (A) (A) (A) (A) (A) (A)
                 (A) (A) (A) (A) (A) (A) (A) (A) (A) (A) (A) (A)
                 (A) (A) (A) (A) (A) (A) (A) (A) (A) (A) (A) (A)
                 (A) (A) (A) (A) (A) (A) (A) (A) (A) (A) (A) (A)
                 (A) (A) (A) (A) (A) (A) (A) (A) (A) (A) (A) (A)
                 (A) (A) (A) (A) (A) (A) (A) (A) (A) (A) (A) (A)
                 (A) (A) (A) (A) (A) (A) (A) (A) (A) (A) (A) (A)
                 (A) (A) (A) (A) (A) (A) (A) (A) (A) (A) (A) (A)
                 (A) (A) (A) (A) (A) (A) (A) (A) (A) (A) (A) (A)
                 (A) (A) (A) (A) (A) (A) (A) (A) (A) (A) (A) (A)
                 (A) (A) (A) (A) (A) (A) (A) (A) (A) (A) (A) (A)
                 (A) (A) (A) (A) (A) (A) (A) (A) (A) (A) (A) (A)
                 (A) (A) (A) (A) (A) (A) (A) (A) (A) (A) (A) (A)
                 (A) (A) (A) (A) (A) (A) (A) (A) (A) (A) (A) (A)
                 (A) (A) (A) (A) (A) (A) (A) (A) (A) (A) (A) (A)
                 (A) (A) (A) (A) (A) (A) (A) (A) (A) (A) (A) (A)
                 (A) (A) (A) (A) (A) (A) (A) (A) (A) (A) (A) (A)
                 (A) (A) (A) (A) (A) (A) (A) (A) (A) (A) (A) (A)
                 (A) (A) (A) (A) (A) (A) (A) (A) (A) (A) (A) (A)
                 (A) (A) (A) (A) (A) (A) (A) (A) (A) (A) (A) (A)
                 (A) (A) (A) (A) (A) (A) (A) (A) (A) (A) (A) (A)
                 (A) (A) (A) (A) (A) (A) (A) (A) (A) (A) (A) (A)
                 (A) (A) (A) (A) (A) (A) (A) (A) (A) (A) (A) (A)
                 (A) (A) (A) (A) (A) (A) (A) (A) (A) (A) (A) (A)
                 (A) (A) (A) (A) (A) (A) (A) (A) (A) (A) (A) (A)
                 (A) (A) (A) (A) (A) (A) (A) (A) (A) (A) (A) (A)
                 (A) (A) (A) (A) (A) (A) (A) (A) (A) (A) (A) (A)
                 (A) (A) (A) (A) (A) (A) (A) (A) (A) (A) (A) (A)
                 (A) (A) (A) (A) (A) (A) (A) (A) (A) (A) (A) (A)
                 (A) (A) (A) (A) (A) (A) (A) (A) (A) (A) (A) (A)
                 (A) (A) (A) (A) (A) (A) (A) (A) (A) (A) (A) (A)
                 (A) (A) (A) (A) (A) (A) (A) (A) (A) (A) (A) (A)
                 (A) (A) (A) (A) (A) (A) (A) (A) (A) (A) (A) (A)
                 (A) (A) (A) (A) (A) (A) (A) (A) (A) (A) (A) (A)
                 (A) (A) (A) (A) (A) (A) (A) (A) (A) (A) (A) (A)
                 (A) (A) (A) (A) (A) (A) (A) (A) (A) (A) (A) (A)
                 (A) (A) (A) (A) (A) (A) (A) (A) (A) (A) (A) (A)
                 (A) (A) (A) (A) (A) (A) (A) (A) (A) (A) (A) (A)
                 (A) (A) (A) (A) (A) (A) (A) (A) (A) (A) (A) (A)
                 (A) (A) (A) (A) (A) (A) (A) (A) (A) (A) (A) (A)
                 (A) (A) (A) (A) (A) (A) (A) (A) (A) (A) (A) (A)
                 (A) (A) (A) (A) (A) (A) (A) (A) (A) (A) (A) (A)
                 (A) (A) (A) (A) (A) (A) (A) (A) (A) (A) (A) (A)
                 (A) (A) (A) (A) (A) (A) (A) (A) (A) (A) (A) (A)
                 (A) (A) (A) (A) (A) (A) (A) (A) (A) (A) (A) (A)
                 (A) (A) (A) (A) (A) (A) (A) (A) (A) (A) (A) (A)
                 (A) (A) (A) (A) (A) (A) (A) (A) (A) (A) (A) (A)
                 (A) (A) (A) (A) (A) (A) (A) (A) (A) (A) (A) (A)
                 (A) (A) (A) (A) (A) (A) (A) (A) (A) (A) (A) (A)
                 (A) (A) (A) (A) (A) (A) (A) (A) (A) (A) (A) (A)
                 (A) (A) (A) (A) (A) (A) (A) (A) (A) (A) (A) (A)
                 (A) (A) (A) (A) (A) (A) (A) (A) (A) (A) (A) (A)
                 (A) (A) (A) (A) (A) (A) (A) (A) (A) (A) (A) (A)
                 (A) (A) (A) (A) (A) (A) (A) (A) (A) (A) (A) (A)
                 (A) (A) (A) (A) (A) (A) (A) (A) (A) (A) (A) (A)
                 (A) (A) (A) (A) (A) (A) (A) (A) (A) (A) (A) (A)
                 (A) (A) (A) (A) (A) (A) (A) (A) (A) (A) (A) (A)
                 (A) (A) (A) (A) (A) (A) (A) (A) (A) (A) (A) (A)
                 (A) (A) (A) (A) (A) (A) (A) (A) (A) (A) (A) (A)
                 (A) (A) (A) (A) (A) (A) (A) (A) (A) (A) (A) (A)
                 (A) (A) (A) (A) (A) (A) (A) (A) (A) (A) (A) (A)
                 (A) (A) (A) (A) (A) (A) (A) (A) (A) (A) (A) (A)
                 (A) (A) (A) (A) (A) (A) (A) (A) (A) (A) (A) (A)
                 (A) (A) (A) (A) (A) (A) (A) (A) (A) (A) (A) (A)
                 (A) (A) (A) (A) (A) (A) (A) (A) (A) (A) (A) (A)
                 (A) (A) (A) (A) (A) (A) (A) (A) (A) (A) (A) (A)
                 (A) (A) (A) (A) (A) (A) (A) (A) (A) (A) (A) (A)
                 (A) (A) (A) (A) (A) (A) (A) (A) (A) (A) (A) (A)
                 (A) (A) (A) (A) (A) (A) (A) (A) (A) (A) (A) (A)
                 (A) (A) (A) (A) (A) (A) (A) (A) (A) (A) (A) (A)
                 (A) (A) (A) (A) (A) (A) (A) (A) (A) (A) (A) (A)
                 (A) (A) (A) (A) (A) (A) (A) (A) (A) (A) (A) (A)
                 (A) (A) (A) (A) (A) (A) (A) (A) (A) (A) (A) (A)
                 (A) (A) (A) (A) (A) (A) (A) (A) (A) (A) (A) (A)
                 (A) (A) (A) (A) (A) (A) (A) (A) (A) (A) (A) (A)
                 (A) (A) (A) (A) (A) (A) (A) (A) (A) (A) (A) (A)
                 (A) (A) (A) (A) (A) (A) (A) (A) (A) (A) (A) (A)
                 (A) (A) (A) (A) (A) (A) (A) (A) (A) (A) (A) (A)
                 (A) (A) (A) (A) (A) (A) (A) (A) (A) (A) (A) (A)
                 (A) (A) (A) (A) (A) (A) (A) (A) (A) (A) (A) (A)
                 (A) (A) (A) (A) (A) (A) (A) (A) (A) (A) (A) (A)
                 (A) (A) (A) (A) (A) (A) (A) (A) (A) (A) (A) (A)
                 (A) (A) (A) (A) (A) (A) (A) (A) (A) (A) (A) (A)
                 (A) (A) (A) (A) (A) (A) (A) (A) (A) (A) (A) (A)
                 (A) (A) (A) (A) (A) (A) (A) (A) (A) (A) (A) (A)
                 (A) (A) (A) (A) (A) (A) (A) (A) (A) (A) (A) (A)
                 (A) (A) (A) (A) (A) (A) (A) (A) (A) (A) (A) (A)
                 (A) (A) (A) (A) (A) (A) (A) (A) (A) (A) (A) (A)
                 (A) (A) (A) (A) (A) (A) (A) (A) (A) (A) (A) (A)
                 (A) (A) (A) (A) (A) (A) (A) (A) (A) (A) (A) (A)
                 (A) (A) (A) (A) (A) (A) (A) (A) (A) (A) (A) (A)
                 (A) (A) (A) (A) (A) (A) (A) (A) (A) (A) (A) (A)
                 (A) (A) (A) (A) (A) (A) (A) (A) (A) (A) (A) (A)
                 (A) (A) (A) (A) (A)
 The electronic state is 6-A.
 Alpha  occ. eigenvalues -- -256.36251 -30.14879 -25.97860 -25.97470 -25.96018
 Alpha  occ. eigenvalues --  -19.26345 -19.26122 -19.25018 -19.22552 -19.19076
 Alpha  occ. eigenvalues --  -19.18502 -14.42841 -14.40905 -14.39621 -14.39620
 Alpha  occ. eigenvalues --  -10.36009 -10.35553 -10.33349 -10.30551 -10.30191
 Alpha  occ. eigenvalues --  -10.28996 -10.28944 -10.28744 -10.28058 -10.27992
 Alpha  occ. eigenvalues --  -10.27732 -10.27698 -10.27451 -10.27176 -10.27115
 Alpha  occ. eigenvalues --  -10.26893 -10.26858 -10.26726 -10.25837 -10.25117
 Alpha  occ. eigenvalues --  -10.25014 -10.24961 -10.24862 -10.24631 -10.24472
 Alpha  occ. eigenvalues --  -10.24368 -10.23998 -10.23816 -10.23732 -10.23651
 Alpha  occ. eigenvalues --  -10.23638 -10.23343 -10.23083 -10.22464  -3.54318
 Alpha  occ. eigenvalues --   -2.32782  -2.31422  -2.26886  -1.19081  -1.18501
 Alpha  occ. eigenvalues --   -1.09324  -1.08573  -1.05289  -1.04849  -1.04427
 Alpha  occ. eigenvalues --   -1.03773  -1.03515  -1.02103  -0.90662  -0.89956
 Alpha  occ. eigenvalues --   -0.87904  -0.86645  -0.86103  -0.85080  -0.84859
 Alpha  occ. eigenvalues --   -0.83652  -0.82950  -0.81898  -0.80791  -0.79106
 Alpha  occ. eigenvalues --   -0.78756  -0.78182  -0.75727  -0.74652  -0.73435
 Alpha  occ. eigenvalues --   -0.71724  -0.70776  -0.70603  -0.69976  -0.68898
 Alpha  occ. eigenvalues --   -0.67929  -0.67501  -0.67184  -0.62968  -0.62481
 Alpha  occ. eigenvalues --   -0.62088  -0.60905  -0.60344  -0.59556  -0.59237
 Alpha  occ. eigenvalues --   -0.58354  -0.56928  -0.56903  -0.55734  -0.54250
 Alpha  occ. eigenvalues --   -0.54134  -0.53743  -0.53374  -0.53250  -0.52805
 Alpha  occ. eigenvalues --   -0.52207  -0.51527  -0.51165  -0.50977  -0.50784
 Alpha  occ. eigenvalues --   -0.50029  -0.49496  -0.48908  -0.48487  -0.48285
 Alpha  occ. eigenvalues --   -0.47959  -0.47728  -0.47582  -0.47403  -0.47088
 Alpha  occ. eigenvalues --   -0.46433  -0.46327  -0.45666  -0.45459  -0.44882
 Alpha  occ. eigenvalues --   -0.44579  -0.44203  -0.44093  -0.43927  -0.43656
 Alpha  occ. eigenvalues --   -0.43205  -0.43025  -0.42667  -0.42255  -0.41735
 Alpha  occ. eigenvalues --   -0.41297  -0.41162  -0.40983  -0.40726  -0.40555
 Alpha  occ. eigenvalues --   -0.40341  -0.39656  -0.39440  -0.39107  -0.39039
 Alpha  occ. eigenvalues --   -0.38703  -0.38437  -0.36974  -0.36556  -0.36237
 Alpha  occ. eigenvalues --   -0.35198  -0.35113  -0.34447  -0.34176  -0.34036
 Alpha  occ. eigenvalues --   -0.33621  -0.33343  -0.32838  -0.32239  -0.32051
 Alpha  occ. eigenvalues --   -0.30863  -0.30166  -0.30044  -0.29521  -0.28976
 Alpha  occ. eigenvalues --   -0.28849  -0.26893  -0.26298  -0.25386  -0.24138
 Alpha  occ. eigenvalues --   -0.23567  -0.22827  -0.19384
 Alpha virt. eigenvalues --   -0.14478  -0.09913  -0.09195  -0.05298  -0.04173
 Alpha virt. eigenvalues --   -0.02791  -0.01568  -0.00920   0.00348   0.01918
 Alpha virt. eigenvalues --    0.02597   0.02866   0.03017   0.03338   0.03975
 Alpha virt. eigenvalues --    0.04445   0.04655   0.05206   0.05331   0.05629
 Alpha virt. eigenvalues --    0.05958   0.06343   0.06514   0.06931   0.07082
 Alpha virt. eigenvalues --    0.07354   0.07715   0.08448   0.08738   0.08937
 Alpha virt. eigenvalues --    0.09609   0.09908   0.10067   0.10292   0.10609
 Alpha virt. eigenvalues --    0.11028   0.11471   0.11595   0.11987   0.12111
 Alpha virt. eigenvalues --    0.12573   0.12888   0.12986   0.13390   0.13471
 Alpha virt. eigenvalues --    0.13804   0.13957   0.14162   0.14298   0.14579
 Alpha virt. eigenvalues --    0.14688   0.15201   0.15270   0.15806   0.15916
 Alpha virt. eigenvalues --    0.16196   0.16505   0.16718   0.16849   0.17135
 Alpha virt. eigenvalues --    0.17287   0.17597   0.18107   0.18204   0.18568
 Alpha virt. eigenvalues --    0.18718   0.19073   0.19220   0.19313   0.19451
 Alpha virt. eigenvalues --    0.19536   0.19750   0.20059   0.20236   0.20498
 Alpha virt. eigenvalues --    0.20606   0.20892   0.21193   0.21217   0.21477
 Alpha virt. eigenvalues --    0.21851   0.22140   0.22286   0.22628   0.22809
 Alpha virt. eigenvalues --    0.23267   0.23353   0.23870   0.23899   0.24009
 Alpha virt. eigenvalues --    0.24236   0.24642   0.24769   0.25081   0.25368
 Alpha virt. eigenvalues --    0.25451   0.25622   0.25803   0.26128   0.26420
 Alpha virt. eigenvalues --    0.26706   0.26827   0.27075   0.27174   0.27675
 Alpha virt. eigenvalues --    0.27980   0.28076   0.28392   0.28651   0.29011
 Alpha virt. eigenvalues --    0.29133   0.29232   0.29393   0.29882   0.30159
 Alpha virt. eigenvalues --    0.30568   0.30753   0.30885   0.31044   0.31657
 Alpha virt. eigenvalues --    0.32286   0.32630   0.32832   0.33066   0.33243
 Alpha virt. eigenvalues --    0.33457   0.33790   0.33908   0.34026   0.34432
 Alpha virt. eigenvalues --    0.34510   0.35048   0.35288   0.35831   0.35914
 Alpha virt. eigenvalues --    0.36179   0.36206   0.36576   0.36810   0.36934
 Alpha virt. eigenvalues --    0.36998   0.37122   0.37443   0.37482   0.37858
 Alpha virt. eigenvalues --    0.37952   0.38342   0.38434   0.38963   0.39166
 Alpha virt. eigenvalues --    0.39258   0.39564   0.39944   0.40338   0.40407
 Alpha virt. eigenvalues --    0.40603   0.40941   0.41130   0.41234   0.41584
 Alpha virt. eigenvalues --    0.41629   0.42169   0.42650   0.42719   0.42809
 Alpha virt. eigenvalues --    0.43009   0.43238   0.43450   0.43674   0.43981
 Alpha virt. eigenvalues --    0.44044   0.44156   0.44396   0.44506   0.44860
 Alpha virt. eigenvalues --    0.45236   0.45409   0.45547   0.45717   0.46139
 Alpha virt. eigenvalues --    0.46280   0.46720   0.46874   0.47089   0.47217
 Alpha virt. eigenvalues --    0.47477   0.47701   0.47868   0.48270   0.48400
 Alpha virt. eigenvalues --    0.48468   0.48635   0.49181   0.49234   0.49393
 Alpha virt. eigenvalues --    0.49543   0.49844   0.50027   0.50133   0.50403
 Alpha virt. eigenvalues --    0.50723   0.50982   0.51049   0.51591   0.51967
 Alpha virt. eigenvalues --    0.52043   0.52199   0.52631   0.52991   0.53131
 Alpha virt. eigenvalues --    0.53223   0.53494   0.53877   0.54143   0.54328
 Alpha virt. eigenvalues --    0.54747   0.54814   0.55196   0.55371   0.55534
 Alpha virt. eigenvalues --    0.56204   0.56614   0.56785   0.56876   0.57017
 Alpha virt. eigenvalues --    0.57134   0.57391   0.57740   0.58093   0.58360
 Alpha virt. eigenvalues --    0.58647   0.58876   0.59243   0.59523   0.59558
 Alpha virt. eigenvalues --    0.59816   0.60113   0.60252   0.60771   0.60942
 Alpha virt. eigenvalues --    0.61190   0.61521   0.61801   0.62006   0.62170
 Alpha virt. eigenvalues --    0.62497   0.62816   0.63068   0.63382   0.63780
 Alpha virt. eigenvalues --    0.64127   0.64369   0.64519   0.64762   0.64896
 Alpha virt. eigenvalues --    0.65245   0.65509   0.65782   0.66088   0.66297
 Alpha virt. eigenvalues --    0.66412   0.67165   0.67324   0.67488   0.67601
 Alpha virt. eigenvalues --    0.68090   0.68573   0.68620   0.69015   0.69132
 Alpha virt. eigenvalues --    0.69386   0.69662   0.69968   0.69974   0.70431
 Alpha virt. eigenvalues --    0.71018   0.71315   0.71821   0.71947   0.72242
 Alpha virt. eigenvalues --    0.72370   0.72674   0.73226   0.73533   0.73835
 Alpha virt. eigenvalues --    0.73961   0.74427   0.74644   0.75032   0.75459
 Alpha virt. eigenvalues --    0.75792   0.75944   0.76186   0.76572   0.76962
 Alpha virt. eigenvalues --    0.77321   0.77479   0.77977   0.78282   0.78769
 Alpha virt. eigenvalues --    0.78954   0.79259   0.79828   0.80146   0.80476
 Alpha virt. eigenvalues --    0.80818   0.81115   0.81357   0.81585   0.81936
 Alpha virt. eigenvalues --    0.82211   0.82344   0.82975   0.83140   0.83366
 Alpha virt. eigenvalues --    0.83684   0.84144   0.84456   0.84953   0.85396
 Alpha virt. eigenvalues --    0.85533   0.86170   0.86493   0.86832   0.87156
 Alpha virt. eigenvalues --    0.87407   0.87793   0.88342   0.88711   0.89010
 Alpha virt. eigenvalues --    0.89246   0.89716   0.89869   0.90285   0.90393
 Alpha virt. eigenvalues --    0.90978   0.91091   0.91487   0.91877   0.92039
 Alpha virt. eigenvalues --    0.92769   0.93051   0.93403   0.93633   0.94046
 Alpha virt. eigenvalues --    0.94160   0.94517   0.95142   0.95433   0.95438
 Alpha virt. eigenvalues --    0.96070   0.96442   0.96729   0.97055   0.97270
 Alpha virt. eigenvalues --    0.97529   0.98117   0.98493   0.98727   0.99293
 Alpha virt. eigenvalues --    0.99588   0.99991   1.00093   1.00391   1.00690
 Alpha virt. eigenvalues --    1.01321   1.01599   1.02074   1.02476   1.02710
 Alpha virt. eigenvalues --    1.02838   1.03071   1.03481   1.03679   1.04138
 Alpha virt. eigenvalues --    1.04360   1.05001   1.05428   1.05553   1.05917
 Alpha virt. eigenvalues --    1.06383   1.06671   1.07209   1.07383   1.07574
 Alpha virt. eigenvalues --    1.08084   1.08388   1.08559   1.09024   1.09980
 Alpha virt. eigenvalues --    1.10138   1.10786   1.11278   1.11522   1.11712
 Alpha virt. eigenvalues --    1.12672   1.12683   1.13040   1.13708   1.14282
 Alpha virt. eigenvalues --    1.14456   1.14691   1.15281   1.15320   1.16057
 Alpha virt. eigenvalues --    1.16485   1.16632   1.17040   1.17786   1.18278
 Alpha virt. eigenvalues --    1.18666   1.18706   1.19478   1.19938   1.20331
 Alpha virt. eigenvalues --    1.20493   1.21081   1.21315   1.21860   1.22600
 Alpha virt. eigenvalues --    1.22941   1.23233   1.23602   1.24033   1.24082
 Alpha virt. eigenvalues --    1.24587   1.24890   1.25375   1.25725   1.26509
 Alpha virt. eigenvalues --    1.27226   1.27565   1.27906   1.28339   1.28509
 Alpha virt. eigenvalues --    1.28792   1.29390   1.29539   1.30058   1.30378
 Alpha virt. eigenvalues --    1.31122   1.31570   1.32080   1.32405   1.32959
 Alpha virt. eigenvalues --    1.33279   1.34078   1.34391   1.34629   1.35047
 Alpha virt. eigenvalues --    1.35488   1.35893   1.36207   1.36749   1.37546
 Alpha virt. eigenvalues --    1.37708   1.38464   1.38870   1.39441   1.39822
 Alpha virt. eigenvalues --    1.40193   1.40689   1.41287   1.41598   1.42092
 Alpha virt. eigenvalues --    1.42378   1.43058   1.43142   1.43604   1.43977
 Alpha virt. eigenvalues --    1.44235   1.44363   1.44577   1.44948   1.45879
 Alpha virt. eigenvalues --    1.45956   1.46546   1.46827   1.47161   1.47234
 Alpha virt. eigenvalues --    1.47448   1.47908   1.48163   1.48508   1.48953
 Alpha virt. eigenvalues --    1.49150   1.49608   1.50223   1.50999   1.51341
 Alpha virt. eigenvalues --    1.51770   1.52333   1.52550   1.52742   1.53106
 Alpha virt. eigenvalues --    1.53462   1.53787   1.54526   1.54818   1.55071
 Alpha virt. eigenvalues --    1.55429   1.55780   1.55937   1.56160   1.56349
 Alpha virt. eigenvalues --    1.56604   1.56897   1.57507   1.57789   1.57869
 Alpha virt. eigenvalues --    1.58081   1.58516   1.58706   1.58829   1.59233
 Alpha virt. eigenvalues --    1.59459   1.59677   1.59994   1.60288   1.60763
 Alpha virt. eigenvalues --    1.60950   1.61484   1.61719   1.61964   1.62337
 Alpha virt. eigenvalues --    1.62879   1.63341   1.63490   1.63829   1.64024
 Alpha virt. eigenvalues --    1.64510   1.64788   1.65446   1.65866   1.66533
 Alpha virt. eigenvalues --    1.66803   1.67125   1.67246   1.67716   1.68074
 Alpha virt. eigenvalues --    1.68449   1.69146   1.69296   1.69527   1.70174
 Alpha virt. eigenvalues --    1.70308   1.70621   1.70811   1.71219   1.71573
 Alpha virt. eigenvalues --    1.71686   1.72232   1.72765   1.73205   1.73379
 Alpha virt. eigenvalues --    1.74061   1.74373   1.74680   1.75528   1.75781
 Alpha virt. eigenvalues --    1.75982   1.76379   1.76788   1.76904   1.77087
 Alpha virt. eigenvalues --    1.77534   1.77819   1.78346   1.78501   1.79080
 Alpha virt. eigenvalues --    1.79700   1.80146   1.80288   1.80694   1.81114
 Alpha virt. eigenvalues --    1.81232   1.81887   1.82752   1.83392   1.83967
 Alpha virt. eigenvalues --    1.84084   1.84539   1.85170   1.85333   1.85956
 Alpha virt. eigenvalues --    1.86371   1.86742   1.87027   1.87443   1.88083
 Alpha virt. eigenvalues --    1.88371   1.88472   1.88710   1.89131   1.89633
 Alpha virt. eigenvalues --    1.89760   1.90429   1.91104   1.91418   1.91622
 Alpha virt. eigenvalues --    1.91877   1.92413   1.93189   1.93562   1.93853
 Alpha virt. eigenvalues --    1.94323   1.94503   1.94663   1.94886   1.95250
 Alpha virt. eigenvalues --    1.95724   1.96061   1.96825   1.96897   1.97344
 Alpha virt. eigenvalues --    1.97842   1.98560   1.98731   1.99084   1.99486
 Alpha virt. eigenvalues --    1.99561   2.00640   2.01033   2.01624   2.01911
 Alpha virt. eigenvalues --    2.02098   2.02605   2.03017   2.03348   2.03887
 Alpha virt. eigenvalues --    2.04335   2.04744   2.04957   2.05600   2.05923
 Alpha virt. eigenvalues --    2.07078   2.07546   2.07900   2.08260   2.08456
 Alpha virt. eigenvalues --    2.09196   2.09527   2.09874   2.10065   2.10230
 Alpha virt. eigenvalues --    2.11181   2.11601   2.11665   2.12406   2.12511
 Alpha virt. eigenvalues --    2.13470   2.13865   2.13887   2.14239   2.14813
 Alpha virt. eigenvalues --    2.15191   2.15212   2.16114   2.16693   2.17070
 Alpha virt. eigenvalues --    2.17158   2.17609   2.18304   2.18425   2.19101
 Alpha virt. eigenvalues --    2.19413   2.19818   2.20102   2.20351   2.20839
 Alpha virt. eigenvalues --    2.21541   2.22018   2.22561   2.23258   2.23601
 Alpha virt. eigenvalues --    2.23990   2.24358   2.25044   2.25143   2.25701
 Alpha virt. eigenvalues --    2.26460   2.26655   2.27120   2.27521   2.28679
 Alpha virt. eigenvalues --    2.28725   2.28826   2.29034   2.29775   2.30896
 Alpha virt. eigenvalues --    2.30996   2.31243   2.31942   2.32675   2.33057
 Alpha virt. eigenvalues --    2.33323   2.33624   2.33883   2.34746   2.35155
 Alpha virt. eigenvalues --    2.35230   2.35829   2.36474   2.36664   2.36903
 Alpha virt. eigenvalues --    2.37382   2.37746   2.38090   2.38368   2.38660
 Alpha virt. eigenvalues --    2.39734   2.39876   2.40289   2.40507   2.40668
 Alpha virt. eigenvalues --    2.41006   2.41663   2.41877   2.42720   2.43404
 Alpha virt. eigenvalues --    2.43613   2.44317   2.44355   2.45544   2.45863
 Alpha virt. eigenvalues --    2.46520   2.46566   2.47523   2.47788   2.48046
 Alpha virt. eigenvalues --    2.48619   2.49264   2.49385   2.49742   2.49949
 Alpha virt. eigenvalues --    2.50290   2.51018   2.51506   2.51776   2.52403
 Alpha virt. eigenvalues --    2.52843   2.52936   2.53912   2.54413   2.54584
 Alpha virt. eigenvalues --    2.54972   2.55201   2.55269   2.55758   2.56033
 Alpha virt. eigenvalues --    2.56614   2.56739   2.57192   2.57432   2.57587
 Alpha virt. eigenvalues --    2.57983   2.58426   2.58744   2.58990   2.59180
 Alpha virt. eigenvalues --    2.59420   2.59912   2.60443   2.61156   2.61393
 Alpha virt. eigenvalues --    2.61685   2.62056   2.62572   2.62861   2.63115
 Alpha virt. eigenvalues --    2.63238   2.63607   2.64521   2.64679   2.65279
 Alpha virt. eigenvalues --    2.65793   2.66225   2.66297   2.66472   2.67123
 Alpha virt. eigenvalues --    2.67434   2.67743   2.68205   2.68713   2.69405
 Alpha virt. eigenvalues --    2.69576   2.69912   2.70393   2.70765   2.71510
 Alpha virt. eigenvalues --    2.71587   2.72309   2.72610   2.72998   2.73096
 Alpha virt. eigenvalues --    2.73488   2.73701   2.73905   2.74687   2.74978
 Alpha virt. eigenvalues --    2.75303   2.75558   2.75813   2.76251   2.76810
 Alpha virt. eigenvalues --    2.77136   2.77727   2.77933   2.78304   2.78887
 Alpha virt. eigenvalues --    2.79184   2.79502   2.79842   2.79998   2.80593
 Alpha virt. eigenvalues --    2.80984   2.81364   2.81746   2.82168   2.82329
 Alpha virt. eigenvalues --    2.82688   2.83040   2.83357   2.83860   2.84402
 Alpha virt. eigenvalues --    2.84734   2.84899   2.85227   2.85810   2.85910
 Alpha virt. eigenvalues --    2.86389   2.87109   2.87394   2.87906   2.88235
 Alpha virt. eigenvalues --    2.88764   2.88950   2.89193   2.89371   2.89991
 Alpha virt. eigenvalues --    2.90179   2.90508   2.90977   2.91194   2.91899
 Alpha virt. eigenvalues --    2.92489   2.92669   2.93214   2.93559   2.93701
 Alpha virt. eigenvalues --    2.94042   2.94449   2.94618   2.95358   2.95502
 Alpha virt. eigenvalues --    2.95956   2.95984   2.96654   2.96855   2.97129
 Alpha virt. eigenvalues --    2.97427   2.97952   2.98116   2.98819   2.99117
 Alpha virt. eigenvalues --    2.99300   2.99893   3.00284   3.00642   3.01045
 Alpha virt. eigenvalues --    3.01501   3.02430   3.02529   3.02750   3.03036
 Alpha virt. eigenvalues --    3.03220   3.03931   3.04118   3.04588   3.04932
 Alpha virt. eigenvalues --    3.05096   3.05752   3.06274   3.06746   3.06961
 Alpha virt. eigenvalues --    3.07450   3.07492   3.07899   3.08032   3.08783
 Alpha virt. eigenvalues --    3.09114   3.09490   3.09691   3.09860   3.10112
 Alpha virt. eigenvalues --    3.10224   3.10869   3.11248   3.11621   3.11763
 Alpha virt. eigenvalues --    3.11957   3.12076   3.12554   3.12839   3.13133
 Alpha virt. eigenvalues --    3.13590   3.13755   3.14361   3.14820   3.15157
 Alpha virt. eigenvalues --    3.15496   3.16017   3.16507   3.16629   3.17028
 Alpha virt. eigenvalues --    3.17111   3.17435   3.17718   3.18231   3.18694
 Alpha virt. eigenvalues --    3.18872   3.19353   3.19927   3.20114   3.20776
 Alpha virt. eigenvalues --    3.21118   3.21195   3.21535   3.21881   3.22478
 Alpha virt. eigenvalues --    3.22578   3.22750   3.23070   3.23237   3.23388
 Alpha virt. eigenvalues --    3.23879   3.24459   3.24481   3.25045   3.25124
 Alpha virt. eigenvalues --    3.25311   3.25823   3.26036   3.26445   3.26543
 Alpha virt. eigenvalues --    3.27082   3.27298   3.27556   3.27825   3.28070
 Alpha virt. eigenvalues --    3.28274   3.28438   3.29299   3.29442   3.29632
 Alpha virt. eigenvalues --    3.29866   3.30123   3.30415   3.30433   3.30879
 Alpha virt. eigenvalues --    3.31353   3.31563   3.31875   3.32076   3.32510
 Alpha virt. eigenvalues --    3.32751   3.33256   3.33358   3.33953   3.34119
 Alpha virt. eigenvalues --    3.34576   3.34656   3.35319   3.35520   3.35706
 Alpha virt. eigenvalues --    3.35799   3.36258   3.36628   3.36737   3.37007
 Alpha virt. eigenvalues --    3.37377   3.37710   3.38326   3.38468   3.38849
 Alpha virt. eigenvalues --    3.39018   3.39446   3.39773   3.40360   3.40680
 Alpha virt. eigenvalues --    3.40868   3.41230   3.41596   3.42174   3.42743
 Alpha virt. eigenvalues --    3.43076   3.43260   3.43502   3.44058   3.44298
 Alpha virt. eigenvalues --    3.44951   3.45236   3.45599   3.45787   3.46528
 Alpha virt. eigenvalues --    3.46859   3.47102   3.47526   3.47666   3.48129
 Alpha virt. eigenvalues --    3.48637   3.49067   3.49569   3.49788   3.50342
 Alpha virt. eigenvalues --    3.50697   3.51228   3.51244   3.52067   3.52320
 Alpha virt. eigenvalues --    3.52490   3.52951   3.53141   3.53394   3.54025
 Alpha virt. eigenvalues --    3.54486   3.55404   3.55677   3.56085   3.56201
 Alpha virt. eigenvalues --    3.56692   3.57226   3.57950   3.58173   3.58721
 Alpha virt. eigenvalues --    3.58812   3.59061   3.59466   3.59750   3.59889
 Alpha virt. eigenvalues --    3.60305   3.60955   3.61328   3.61913   3.62440
 Alpha virt. eigenvalues --    3.62826   3.63050   3.63720   3.64116   3.64690
 Alpha virt. eigenvalues --    3.64772   3.65573   3.65939   3.66302   3.66812
 Alpha virt. eigenvalues --    3.67129   3.67223   3.67855   3.68674   3.68933
 Alpha virt. eigenvalues --    3.69607   3.70008   3.70529   3.70946   3.71256
 Alpha virt. eigenvalues --    3.71543   3.72049   3.72410   3.72537   3.73156
 Alpha virt. eigenvalues --    3.73458   3.74082   3.74531   3.75114   3.75379
 Alpha virt. eigenvalues --    3.76364   3.76405   3.76902   3.77273   3.77961
 Alpha virt. eigenvalues --    3.78425   3.78713   3.79369   3.79518   3.80289
 Alpha virt. eigenvalues --    3.80537   3.81277   3.82121   3.82598   3.83060
 Alpha virt. eigenvalues --    3.83214   3.83259   3.84706   3.84947   3.85341
 Alpha virt. eigenvalues --    3.85923   3.86329   3.87103   3.87617   3.88330
 Alpha virt. eigenvalues --    3.89042   3.89653   3.90677   3.91232   3.91440
 Alpha virt. eigenvalues --    3.92371   3.92435   3.92913   3.93265   3.93727
 Alpha virt. eigenvalues --    3.94466   3.94610   3.96057   3.96627   3.97379
 Alpha virt. eigenvalues --    3.97528   3.97933   3.98698   3.99162   3.99391
 Alpha virt. eigenvalues --    3.99713   4.00466   4.01342   4.01849   4.02823
 Alpha virt. eigenvalues --    4.03167   4.03362   4.03691   4.04434   4.04908
 Alpha virt. eigenvalues --    4.05734   4.06079   4.06961   4.07335   4.07553
 Alpha virt. eigenvalues --    4.08171   4.08321   4.08852   4.09838   4.10470
 Alpha virt. eigenvalues --    4.10777   4.11114   4.11781   4.12203   4.12410
 Alpha virt. eigenvalues --    4.13109   4.13369   4.14034   4.14527   4.15368
 Alpha virt. eigenvalues --    4.15817   4.16048   4.17643   4.18344   4.18656
 Alpha virt. eigenvalues --    4.19115   4.19348   4.19950   4.20367   4.21038
 Alpha virt. eigenvalues --    4.21664   4.22083   4.22587   4.22802   4.23537
 Alpha virt. eigenvalues --    4.23997   4.24773   4.25367   4.26052   4.26179
 Alpha virt. eigenvalues --    4.26645   4.26851   4.27231   4.27757   4.28343
 Alpha virt. eigenvalues --    4.28600   4.29309   4.30172   4.30731   4.31500
 Alpha virt. eigenvalues --    4.32810   4.33297   4.34218   4.34487   4.35230
 Alpha virt. eigenvalues --    4.35806   4.36218   4.36654   4.36942   4.38736
 Alpha virt. eigenvalues --    4.38939   4.39592   4.40066   4.40937   4.41291
 Alpha virt. eigenvalues --    4.42482   4.42772   4.44012   4.44602   4.45660
 Alpha virt. eigenvalues --    4.46412   4.47402   4.48323   4.49502   4.49956
 Alpha virt. eigenvalues --    4.50569   4.51276   4.51652   4.52133   4.52630
 Alpha virt. eigenvalues --    4.54252   4.55019   4.55342   4.55811   4.56464
 Alpha virt. eigenvalues --    4.57487   4.58219   4.58908   4.59522   4.60300
 Alpha virt. eigenvalues --    4.61045   4.61327   4.62641   4.63203   4.63653
 Alpha virt. eigenvalues --    4.64324   4.64729   4.66854   4.67918   4.68603
 Alpha virt. eigenvalues --    4.68967   4.70524   4.71791   4.72626   4.73039
 Alpha virt. eigenvalues --    4.73598   4.75032   4.75895   4.76017   4.77538
 Alpha virt. eigenvalues --    4.77988   4.78509   4.79621   4.80458   4.81154
 Alpha virt. eigenvalues --    4.81831   4.82550   4.84658   4.84893   4.86081
 Alpha virt. eigenvalues --    4.86373   4.88534   4.88984   4.90320   4.91548
 Alpha virt. eigenvalues --    4.91972   4.92563   4.94187   4.94348   4.94871
 Alpha virt. eigenvalues --    4.96110   4.96611   4.97281   4.97723   4.99682
 Alpha virt. eigenvalues --    4.99864   5.00653   5.02063   5.02514   5.03352
 Alpha virt. eigenvalues --    5.04261   5.05659   5.06403   5.07358   5.09019
 Alpha virt. eigenvalues --    5.09502   5.09710   5.11308   5.11810   5.13152
 Alpha virt. eigenvalues --    5.13814   5.14715   5.15985   5.16330   5.17118
 Alpha virt. eigenvalues --    5.17305   5.18933   5.19837   5.20197   5.20383
 Alpha virt. eigenvalues --    5.20895   5.21841   5.22690   5.23064   5.23590
 Alpha virt. eigenvalues --    5.23881   5.24552   5.24564   5.25641   5.27884
 Alpha virt. eigenvalues --    5.28633   5.29767   5.32223   5.33786   5.36243
 Alpha virt. eigenvalues --    5.36377   5.37035   5.38271   5.38883   5.39971
 Alpha virt. eigenvalues --    5.40435   5.41295   5.42062   5.44122   5.44561
 Alpha virt. eigenvalues --    5.45418   5.46317   5.47861   5.49485   5.50173
 Alpha virt. eigenvalues --    5.51794   5.52126   5.53449   5.53585   5.55984
 Alpha virt. eigenvalues --    5.56944   5.57428   5.58285   5.59384   5.60984
 Alpha virt. eigenvalues --    5.61636   5.63387   5.65676   5.66140   5.67100
 Alpha virt. eigenvalues --    5.68558   5.69929   5.70043   5.71142   5.73904
 Alpha virt. eigenvalues --    5.75083   5.76201   5.76424   5.77961   5.79350
 Alpha virt. eigenvalues --    5.83011   5.84957   5.85379   5.92040   5.94105
 Alpha virt. eigenvalues --    5.96546   5.97461   5.98958   6.00277   6.01433
 Alpha virt. eigenvalues --    6.05083   6.05247   6.06146   6.09523   6.10699
 Alpha virt. eigenvalues --    6.11423   6.14944   6.18852   6.21964   6.22309
 Alpha virt. eigenvalues --    6.22949   6.24471   6.33440   6.33961   6.34969
 Alpha virt. eigenvalues --    6.38583   6.39222   6.39543   6.39923   6.43677
 Alpha virt. eigenvalues --    6.43992   6.47104   6.47459   6.47749   6.47909
 Alpha virt. eigenvalues --    6.52083   6.52375   6.52854   6.53959   6.57107
 Alpha virt. eigenvalues --    6.59078   6.60652   6.66679   6.66709   6.75674
 Alpha virt. eigenvalues --    6.79571   6.81889   6.84142   6.85101   6.96050
 Alpha virt. eigenvalues --    6.97327   7.03916   7.04783   7.05716   7.07144
 Alpha virt. eigenvalues --    7.11459   7.15255   7.16418   7.17395   7.20232
 Alpha virt. eigenvalues --    7.21156   7.27769   7.29776  22.20870  22.28546
 Alpha virt. eigenvalues --   22.39015  22.49737  22.51637  22.56184  22.59824
 Alpha virt. eigenvalues --   22.67046  22.68587  22.71407  22.75144  22.76495
 Alpha virt. eigenvalues --   22.91749  22.92523  22.94683  22.96891  23.03583
 Alpha virt. eigenvalues --   23.05704  23.07941  23.15473  23.33636  23.35341
 Alpha virt. eigenvalues --   23.36206  23.42716  23.45222  23.53258  23.54959
 Alpha virt. eigenvalues --   23.60166  23.70044  23.76345  23.80192  23.90994
 Alpha virt. eigenvalues --   23.92031  24.04267  32.90829  32.93972  33.01404
 Alpha virt. eigenvalues --   33.06644  43.94154  43.96447  43.97495  43.99225
 Alpha virt. eigenvalues --   43.99873  44.24175
  Beta  occ. eigenvalues -- -256.36188 -30.10586 -25.94580 -25.93673 -25.92281
  Beta  occ. eigenvalues --  -19.26345 -19.26122 -19.24842 -19.22287 -19.19076
  Beta  occ. eigenvalues --  -19.18502 -14.42731 -14.40647 -14.39701 -14.39573
  Beta  occ. eigenvalues --  -10.36009 -10.35552 -10.33078 -10.29943 -10.29107
  Beta  occ. eigenvalues --  -10.29035 -10.28910 -10.28549 -10.28119 -10.27752
  Beta  occ. eigenvalues --  -10.27577 -10.27513 -10.27468 -10.27203 -10.27117
  Beta  occ. eigenvalues --  -10.26911 -10.26748 -10.25891 -10.25353 -10.25143
  Beta  occ. eigenvalues --  -10.25014 -10.24939 -10.24656 -10.24546 -10.24395
  Beta  occ. eigenvalues --  -10.24357 -10.23999 -10.23814 -10.23733 -10.23651
  Beta  occ. eigenvalues --  -10.23640 -10.23083 -10.23081 -10.22464  -3.43886
  Beta  occ. eigenvalues --   -2.22201  -2.18662  -2.16630  -1.19081  -1.18501
  Beta  occ. eigenvalues --   -1.08954  -1.07974  -1.05082  -1.04850  -1.04427
  Beta  occ. eigenvalues --   -1.03552  -1.03495  -1.02163  -0.89219  -0.89012
  Beta  occ. eigenvalues --   -0.87612  -0.86608  -0.85949  -0.84886  -0.84736
  Beta  occ. eigenvalues --   -0.82634  -0.81961  -0.81716  -0.80674  -0.78598
  Beta  occ. eigenvalues --   -0.78048  -0.77327  -0.75453  -0.74644  -0.73288
  Beta  occ. eigenvalues --   -0.71709  -0.70485  -0.70090  -0.69829  -0.68262
  Beta  occ. eigenvalues --   -0.67498  -0.67446  -0.66091  -0.62855  -0.62079
  Beta  occ. eigenvalues --   -0.61768  -0.60675  -0.59691  -0.59229  -0.58868
  Beta  occ. eigenvalues --   -0.57778  -0.56714  -0.56596  -0.55634  -0.54141
  Beta  occ. eigenvalues --   -0.53725  -0.53351  -0.53188  -0.53000  -0.52652
  Beta  occ. eigenvalues --   -0.52067  -0.51207  -0.50981  -0.50723  -0.50270
  Beta  occ. eigenvalues --   -0.49399  -0.48982  -0.48513  -0.48168  -0.47866
  Beta  occ. eigenvalues --   -0.47796  -0.47468  -0.47122  -0.46850  -0.46465
  Beta  occ. eigenvalues --   -0.46146  -0.46004  -0.45168  -0.44907  -0.44401
  Beta  occ. eigenvalues --   -0.44210  -0.43947  -0.43607  -0.43246  -0.43036
  Beta  occ. eigenvalues --   -0.42750  -0.42342  -0.41848  -0.41648  -0.41470
  Beta  occ. eigenvalues --   -0.41084  -0.40823  -0.40593  -0.40270  -0.40160
  Beta  occ. eigenvalues --   -0.39533  -0.39361  -0.39188  -0.38922  -0.38658
  Beta  occ. eigenvalues --   -0.38311  -0.37875  -0.36405  -0.36176  -0.35987
  Beta  occ. eigenvalues --   -0.35155  -0.34840  -0.34267  -0.34165  -0.33690
  Beta  occ. eigenvalues --   -0.32782  -0.32188  -0.31008  -0.29783  -0.29491
  Beta  occ. eigenvalues --   -0.28898  -0.27373  -0.26466  -0.25891  -0.25042
  Beta  occ. eigenvalues --   -0.23500  -0.22478  -0.21948
  Beta virt. eigenvalues --   -0.14844  -0.14107  -0.11687  -0.11209  -0.08569
  Beta virt. eigenvalues --   -0.07026  -0.03593  -0.03225  -0.02435  -0.01573
  Beta virt. eigenvalues --   -0.00981  -0.00404   0.00504   0.01928   0.02727
  Beta virt. eigenvalues --    0.03100   0.03235   0.03376   0.03567   0.04127
  Beta virt. eigenvalues --    0.04567   0.04821   0.05444   0.05764   0.05858
  Beta virt. eigenvalues --    0.06436   0.06803   0.07078   0.07166   0.07331
  Beta virt. eigenvalues --    0.07777   0.07920   0.08600   0.08953   0.09416
  Beta virt. eigenvalues --    0.09836   0.10019   0.10154   0.10635   0.10911
  Beta virt. eigenvalues --    0.11360   0.11596   0.11791   0.12112   0.12218
  Beta virt. eigenvalues --    0.12621   0.13006   0.13375   0.13590   0.13712
  Beta virt. eigenvalues --    0.13995   0.14242   0.14358   0.14588   0.14713
  Beta virt. eigenvalues --    0.15270   0.15397   0.15517   0.16042   0.16230
  Beta virt. eigenvalues --    0.16638   0.16795   0.16876   0.17166   0.17737
  Beta virt. eigenvalues --    0.17829   0.18066   0.18362   0.18568   0.18849
  Beta virt. eigenvalues --    0.18980   0.19279   0.19476   0.19597   0.19690
  Beta virt. eigenvalues --    0.19923   0.20220   0.20323   0.20617   0.20915
  Beta virt. eigenvalues --    0.20931   0.21118   0.21548   0.21606   0.21900
  Beta virt. eigenvalues --    0.22326   0.22561   0.22775   0.22891   0.23310
  Beta virt. eigenvalues --    0.23505   0.23743   0.24120   0.24519   0.24608
  Beta virt. eigenvalues --    0.24684   0.24932   0.25183   0.25420   0.25502
  Beta virt. eigenvalues --    0.25987   0.26179   0.26320   0.26623   0.26867
  Beta virt. eigenvalues --    0.27183   0.27289   0.27636   0.27884   0.28044
  Beta virt. eigenvalues --    0.28224   0.28443   0.28760   0.28855   0.29307
  Beta virt. eigenvalues --    0.29410   0.29523   0.29773   0.30094   0.30310
  Beta virt. eigenvalues --    0.30787   0.30933   0.31138   0.31453   0.32373
  Beta virt. eigenvalues --    0.32547   0.32862   0.33122   0.33344   0.33661
  Beta virt. eigenvalues --    0.33912   0.34094   0.34169   0.34396   0.34700
  Beta virt. eigenvalues --    0.34801   0.35417   0.35727   0.36072   0.36190
  Beta virt. eigenvalues --    0.36414   0.36662   0.36784   0.36971   0.37147
  Beta virt. eigenvalues --    0.37323   0.37605   0.37704   0.37960   0.38132
  Beta virt. eigenvalues --    0.38388   0.38654   0.38740   0.39274   0.39409
  Beta virt. eigenvalues --    0.39730   0.39812   0.40355   0.40595   0.40655
  Beta virt. eigenvalues --    0.40886   0.41127   0.41261   0.41503   0.41857
  Beta virt. eigenvalues --    0.41981   0.42386   0.42873   0.43003   0.43105
  Beta virt. eigenvalues --    0.43354   0.43685   0.43829   0.43867   0.44211
  Beta virt. eigenvalues --    0.44343   0.44556   0.44763   0.44925   0.45234
  Beta virt. eigenvalues --    0.45587   0.45642   0.45855   0.45980   0.46339
  Beta virt. eigenvalues --    0.46580   0.47000   0.47307   0.47463   0.47583
  Beta virt. eigenvalues --    0.47710   0.47956   0.48024   0.48495   0.48597
  Beta virt. eigenvalues --    0.48816   0.48933   0.49368   0.49430   0.49645
  Beta virt. eigenvalues --    0.49762   0.50107   0.50378   0.50494   0.50781
  Beta virt. eigenvalues --    0.50922   0.51151   0.51520   0.51990   0.52102
  Beta virt. eigenvalues --    0.52393   0.52420   0.52844   0.53244   0.53330
  Beta virt. eigenvalues --    0.53676   0.53842   0.54113   0.54354   0.54687
  Beta virt. eigenvalues --    0.54985   0.55108   0.55456   0.55603   0.55967
  Beta virt. eigenvalues --    0.56396   0.56801   0.56902   0.57163   0.57302
  Beta virt. eigenvalues --    0.57543   0.57868   0.58006   0.58390   0.58759
  Beta virt. eigenvalues --    0.59025   0.59153   0.59507   0.59670   0.59751
  Beta virt. eigenvalues --    0.60245   0.60307   0.60562   0.61023   0.61088
  Beta virt. eigenvalues --    0.61474   0.61791   0.62085   0.62226   0.62379
  Beta virt. eigenvalues --    0.62711   0.63158   0.63215   0.63535   0.63917
  Beta virt. eigenvalues --    0.64285   0.64608   0.64715   0.64974   0.65146
  Beta virt. eigenvalues --    0.65404   0.65871   0.65957   0.66320   0.66612
  Beta virt. eigenvalues --    0.66691   0.67348   0.67615   0.67796   0.67940
  Beta virt. eigenvalues --    0.68271   0.68747   0.68832   0.69280   0.69380
  Beta virt. eigenvalues --    0.69611   0.69900   0.70187   0.70608   0.70675
  Beta virt. eigenvalues --    0.71375   0.71549   0.71981   0.72173   0.72330
  Beta virt. eigenvalues --    0.72553   0.72824   0.73630   0.73725   0.74130
  Beta virt. eigenvalues --    0.74158   0.74556   0.74973   0.75429   0.75719
  Beta virt. eigenvalues --    0.75955   0.76236   0.76336   0.76826   0.77102
  Beta virt. eigenvalues --    0.77591   0.77835   0.78184   0.78668   0.79041
  Beta virt. eigenvalues --    0.79258   0.79785   0.80147   0.80523   0.80748
  Beta virt. eigenvalues --    0.81096   0.81567   0.81846   0.81881   0.82203
  Beta virt. eigenvalues --    0.82459   0.82675   0.83217   0.83418   0.83500
  Beta virt. eigenvalues --    0.84116   0.84403   0.85035   0.85261   0.85512
  Beta virt. eigenvalues --    0.85895   0.86575   0.86795   0.86964   0.87385
  Beta virt. eigenvalues --    0.87756   0.88286   0.88596   0.89156   0.89199
  Beta virt. eigenvalues --    0.89938   0.90070   0.90508   0.90548   0.90836
  Beta virt. eigenvalues --    0.91233   0.91355   0.91731   0.92209   0.92486
  Beta virt. eigenvalues --    0.92978   0.93504   0.93725   0.94094   0.94403
  Beta virt. eigenvalues --    0.94511   0.94899   0.95376   0.95909   0.96094
  Beta virt. eigenvalues --    0.96526   0.96825   0.97038   0.97396   0.97714
  Beta virt. eigenvalues --    0.97888   0.98405   0.98825   0.99249   0.99597
  Beta virt. eigenvalues --    0.99917   1.00375   1.00566   1.00709   1.01066
  Beta virt. eigenvalues --    1.01674   1.02140   1.02371   1.02740   1.02859
  Beta virt. eigenvalues --    1.03412   1.03650   1.03866   1.04019   1.04883
  Beta virt. eigenvalues --    1.05195   1.05348   1.05766   1.06032   1.06263
  Beta virt. eigenvalues --    1.06711   1.07121   1.07569   1.07915   1.08080
  Beta virt. eigenvalues --    1.08567   1.08948   1.09062   1.09600   1.10448
  Beta virt. eigenvalues --    1.10597   1.11372   1.11686   1.11727   1.12259
  Beta virt. eigenvalues --    1.12854   1.13246   1.13529   1.13979   1.14513
  Beta virt. eigenvalues --    1.14819   1.15092   1.15569   1.15896   1.16409
  Beta virt. eigenvalues --    1.16993   1.17116   1.17441   1.18025   1.18639
  Beta virt. eigenvalues --    1.18966   1.19359   1.20024   1.20165   1.20780
  Beta virt. eigenvalues --    1.20963   1.21510   1.21813   1.22165   1.22860
  Beta virt. eigenvalues --    1.23369   1.23710   1.23937   1.24392   1.24598
  Beta virt. eigenvalues --    1.24853   1.25318   1.25736   1.26177   1.27071
  Beta virt. eigenvalues --    1.27592   1.27911   1.28185   1.28696   1.28867
  Beta virt. eigenvalues --    1.29236   1.29562   1.30044   1.30399   1.30614
  Beta virt. eigenvalues --    1.31413   1.31954   1.32468   1.32770   1.33244
  Beta virt. eigenvalues --    1.33580   1.34311   1.34601   1.34897   1.35227
  Beta virt. eigenvalues --    1.35727   1.36204   1.36559   1.37011   1.37808
  Beta virt. eigenvalues --    1.38189   1.39013   1.39568   1.39778   1.40499
  Beta virt. eigenvalues --    1.40711   1.41071   1.41806   1.42030   1.42377
  Beta virt. eigenvalues --    1.42812   1.43351   1.43575   1.43878   1.44189
  Beta virt. eigenvalues --    1.44569   1.44744   1.45241   1.45421   1.46089
  Beta virt. eigenvalues --    1.46349   1.46917   1.47156   1.47480   1.47494
  Beta virt. eigenvalues --    1.47780   1.48391   1.48572   1.48941   1.49278
  Beta virt. eigenvalues --    1.49822   1.50145   1.50938   1.51272   1.51668
  Beta virt. eigenvalues --    1.52164   1.52583   1.52802   1.53292   1.53354
  Beta virt. eigenvalues --    1.53552   1.54170   1.54939   1.55067   1.55560
  Beta virt. eigenvalues --    1.55825   1.55968   1.56443   1.56534   1.56695
  Beta virt. eigenvalues --    1.57297   1.57635   1.57796   1.58067   1.58348
  Beta virt. eigenvalues --    1.58626   1.58909   1.59220   1.59377   1.59687
  Beta virt. eigenvalues --    1.59759   1.60066   1.60270   1.60668   1.60994
  Beta virt. eigenvalues --    1.61306   1.61821   1.61987   1.62278   1.63260
  Beta virt. eigenvalues --    1.63393   1.63565   1.63919   1.64271   1.64459
  Beta virt. eigenvalues --    1.65000   1.65297   1.65795   1.66070   1.66683
  Beta virt. eigenvalues --    1.67043   1.67357   1.67466   1.67950   1.68366
  Beta virt. eigenvalues --    1.68786   1.69218   1.69489   1.69832   1.70393
  Beta virt. eigenvalues --    1.70411   1.70872   1.71088   1.71518   1.71727
  Beta virt. eigenvalues --    1.71974   1.72413   1.73074   1.73573   1.73794
  Beta virt. eigenvalues --    1.74317   1.74840   1.75126   1.75739   1.76073
  Beta virt. eigenvalues --    1.76402   1.76632   1.77087   1.77233   1.77680
  Beta virt. eigenvalues --    1.77983   1.78210   1.78522   1.78722   1.79490
  Beta virt. eigenvalues --    1.79986   1.80403   1.80705   1.81150   1.81432
  Beta virt. eigenvalues --    1.81741   1.82250   1.83092   1.83636   1.84200
  Beta virt. eigenvalues --    1.84323   1.84860   1.85437   1.85768   1.86159
  Beta virt. eigenvalues --    1.86622   1.87062   1.87273   1.87650   1.88283
  Beta virt. eigenvalues --    1.88485   1.88814   1.88921   1.89250   1.89802
  Beta virt. eigenvalues --    1.90235   1.90696   1.91466   1.91583   1.91860
  Beta virt. eigenvalues --    1.92080   1.92721   1.93709   1.93912   1.94391
  Beta virt. eigenvalues --    1.94540   1.94655   1.94912   1.95087   1.95567
  Beta virt. eigenvalues --    1.96031   1.96328   1.97057   1.97093   1.97752
  Beta virt. eigenvalues --    1.98179   1.98776   1.98929   1.99265   1.99705
  Beta virt. eigenvalues --    1.99909   2.00806   2.01414   2.01714   2.02394
  Beta virt. eigenvalues --    2.02465   2.02860   2.03238   2.03646   2.04019
  Beta virt. eigenvalues --    2.04703   2.05094   2.05207   2.05811   2.06128
  Beta virt. eigenvalues --    2.07232   2.07694   2.08144   2.08657   2.08845
  Beta virt. eigenvalues --    2.09532   2.09653   2.10097   2.10265   2.10561
  Beta virt. eigenvalues --    2.11335   2.11925   2.11955   2.12665   2.12735
  Beta virt. eigenvalues --    2.13638   2.14031   2.14316   2.14470   2.15023
  Beta virt. eigenvalues --    2.15376   2.15484   2.16594   2.16923   2.17450
  Beta virt. eigenvalues --    2.17518   2.18071   2.18587   2.18686   2.19223
  Beta virt. eigenvalues --    2.19810   2.20022   2.20362   2.20803   2.21146
  Beta virt. eigenvalues --    2.22089   2.22375   2.22835   2.23727   2.23934
  Beta virt. eigenvalues --    2.24296   2.24648   2.25235   2.25495   2.26125
  Beta virt. eigenvalues --    2.26809   2.26975   2.27251   2.27875   2.28816
  Beta virt. eigenvalues --    2.28905   2.29283   2.29441   2.29984   2.31080
  Beta virt. eigenvalues --    2.31160   2.31632   2.32358   2.33009   2.33448
  Beta virt. eigenvalues --    2.33659   2.33984   2.34258   2.34961   2.35360
  Beta virt. eigenvalues --    2.35622   2.36049   2.36718   2.36812   2.37188
  Beta virt. eigenvalues --    2.37598   2.37911   2.38276   2.38425   2.39263
  Beta virt. eigenvalues --    2.39872   2.40252   2.40473   2.40710   2.41094
  Beta virt. eigenvalues --    2.41538   2.42131   2.42233   2.42988   2.43794
  Beta virt. eigenvalues --    2.43925   2.44551   2.44899   2.45864   2.46156
  Beta virt. eigenvalues --    2.46902   2.47172   2.47795   2.48182   2.48268
  Beta virt. eigenvalues --    2.48883   2.49709   2.49870   2.50047   2.50456
  Beta virt. eigenvalues --    2.50932   2.51618   2.51818   2.52379   2.52557
  Beta virt. eigenvalues --    2.53161   2.53717   2.54065   2.54493   2.54747
  Beta virt. eigenvalues --    2.55297   2.55419   2.55577   2.55869   2.56216
  Beta virt. eigenvalues --    2.56945   2.57086   2.57554   2.57694   2.57962
  Beta virt. eigenvalues --    2.58374   2.58841   2.59133   2.59279   2.59617
  Beta virt. eigenvalues --    2.59955   2.60722   2.60946   2.61607   2.61881
  Beta virt. eigenvalues --    2.61972   2.62620   2.62786   2.63276   2.63381
  Beta virt. eigenvalues --    2.63607   2.64222   2.65105   2.65265   2.65848
  Beta virt. eigenvalues --    2.66425   2.66609   2.66683   2.66745   2.67459
  Beta virt. eigenvalues --    2.67818   2.68224   2.68546   2.68941   2.69558
  Beta virt. eigenvalues --    2.69836   2.70372   2.70577   2.70961   2.71798
  Beta virt. eigenvalues --    2.71911   2.72665   2.73038   2.73260   2.73285
  Beta virt. eigenvalues --    2.73737   2.73834   2.74132   2.74823   2.75339
  Beta virt. eigenvalues --    2.75456   2.75995   2.76135   2.76757   2.77089
  Beta virt. eigenvalues --    2.77330   2.77988   2.78250   2.78635   2.79148
  Beta virt. eigenvalues --    2.79523   2.79970   2.80294   2.80525   2.80868
  Beta virt. eigenvalues --    2.81433   2.81732   2.82186   2.82441   2.82527
  Beta virt. eigenvalues --    2.83121   2.83411   2.83774   2.84684   2.85122
  Beta virt. eigenvalues --    2.85290   2.85611   2.85861   2.86227   2.86707
  Beta virt. eigenvalues --    2.87207   2.87627   2.88117   2.88173   2.88433
  Beta virt. eigenvalues --    2.89261   2.89405   2.89920   2.90192   2.90376
  Beta virt. eigenvalues --    2.90627   2.90937   2.91505   2.91716   2.92137
  Beta virt. eigenvalues --    2.92643   2.93292   2.93558   2.94051   2.94281
  Beta virt. eigenvalues --    2.94458   2.94881   2.95377   2.95705   2.96036
  Beta virt. eigenvalues --    2.96321   2.96504   2.97105   2.97416   2.97503
  Beta virt. eigenvalues --    2.97805   2.98407   2.98526   2.99099   2.99687
  Beta virt. eigenvalues --    2.99814   3.00084   3.00733   3.01141   3.01325
  Beta virt. eigenvalues --    3.02018   3.02698   3.02908   3.02973   3.03466
  Beta virt. eigenvalues --    3.03867   3.04277   3.04596   3.04990   3.05451
  Beta virt. eigenvalues --    3.05812   3.06290   3.06571   3.06997   3.07423
  Beta virt. eigenvalues --    3.07722   3.07990   3.08257   3.08644   3.09363
  Beta virt. eigenvalues --    3.09697   3.09838   3.10221   3.10471   3.10630
  Beta virt. eigenvalues --    3.11211   3.11410   3.11996   3.12145   3.12291
  Beta virt. eigenvalues --    3.12397   3.12726   3.13190   3.13427   3.13567
  Beta virt. eigenvalues --    3.13883   3.14287   3.14710   3.15303   3.15425
  Beta virt. eigenvalues --    3.15672   3.16479   3.16848   3.17203   3.17413
  Beta virt. eigenvalues --    3.17552   3.18075   3.18434   3.18710   3.19129
  Beta virt. eigenvalues --    3.19404   3.20307   3.20411   3.20881   3.21128
  Beta virt. eigenvalues --    3.21690   3.21802   3.22123   3.22666   3.22923
  Beta virt. eigenvalues --    3.23017   3.23397   3.23614   3.23805   3.24192
  Beta virt. eigenvalues --    3.24699   3.24785   3.25129   3.25330   3.25676
  Beta virt. eigenvalues --    3.26071   3.26420   3.26570   3.26761   3.26978
  Beta virt. eigenvalues --    3.27421   3.27753   3.27842   3.28317   3.28447
  Beta virt. eigenvalues --    3.28872   3.28950   3.29628   3.29779   3.29966
  Beta virt. eigenvalues --    3.30566   3.30666   3.30720   3.31127   3.31379
  Beta virt. eigenvalues --    3.31687   3.31822   3.32089   3.32330   3.32803
  Beta virt. eigenvalues --    3.33375   3.33588   3.33620   3.34262   3.34673
  Beta virt. eigenvalues --    3.34941   3.35136   3.35739   3.35795   3.35998
  Beta virt. eigenvalues --    3.36138   3.36629   3.36909   3.37074   3.37390
[...]
 
              Baa    -0.0534    -7.161    -2.555    -2.389  0.1743 -0.0464  0.9836
    17 C(13)  Bbb    -0.0000    -0.006    -0.002    -0.002 -0.2463  0.9651  0.0892
              Bcc     0.0534     7.167     2.557     2.391  0.9534  0.2578 -0.1568
 
              Baa    -0.0812   -10.902    -3.890    -3.636  0.0231 -0.0792  0.9966
    18 C(13)  Bbb     0.0272     3.644     1.300     1.215 -0.3189  0.9442  0.0824
              Bcc     0.0541     7.258     2.590     2.421  0.9475  0.3197  0.0035
 
              Baa    -0.0057    -0.768    -0.274    -0.256 -0.1219 -0.2693  0.9553
    19 C(13)  Bbb    -0.0040    -0.532    -0.190    -0.178  0.0531  0.9593  0.2772
              Bcc     0.0097     1.301     0.464     0.434  0.9911 -0.0845  0.1026
 
              Baa    -0.1234   -16.557    -5.908    -5.523  0.9315 -0.3339  0.1443
    20 C(13)  Bbb    -0.0330    -4.427    -1.580    -1.477  0.3631  0.8306 -0.4223
              Bcc     0.1564    20.984     7.488     6.999  0.0212  0.4458  0.8949
 
              Baa    -0.5484   -73.585   -26.257   -24.545  0.7997  0.5286  0.2848
    21 C(13)  Bbb    -0.4382   -58.799   -20.981   -19.613 -0.3894  0.0955  0.9161
              Bcc     0.9865   132.384    47.238    44.159 -0.4570  0.8435 -0.2822
 
              Baa    -0.1059   -14.206    -5.069    -4.739  0.0828 -0.1412  0.9865
    22 C(13)  Bbb     0.0372     4.989     1.780     1.664  0.7766  0.6295  0.0249
              Bcc     0.0687     9.217     3.289     3.074 -0.6245  0.7641  0.1617
 
              Baa    -0.2253   -30.236   -10.789   -10.086  0.7493  0.6568  0.0847
    23 C(13)  Bbb    -0.2228   -29.892   -10.666    -9.971 -0.6614  0.7357  0.1460
              Bcc     0.4481    60.127    21.455    20.056  0.0335 -0.1654  0.9857
 
              Baa    -0.1152   -15.465    -5.518    -5.159  0.1063 -0.5063  0.8558
    24 C(13)  Bbb    -0.0116    -1.553    -0.554    -0.518  0.9887 -0.0378 -0.1452
              Bcc     0.1268    17.018     6.072     5.677  0.1059  0.8615  0.4966
 
              Baa    -0.0832   -11.162    -3.983    -3.723  0.1293 -0.0685  0.9892
    25 C(13)  Bbb     0.0254     3.405     1.215     1.136  0.8576  0.5086 -0.0769
              Bcc     0.0578     7.757     2.768     2.588 -0.4978  0.8583  0.1245
 
              Baa    -0.1021   -13.697    -4.888    -4.569  0.9419 -0.2348  0.2402
    26 C(13)  Bbb    -0.0752   -10.096    -3.602    -3.368 -0.0253  0.6636  0.7477
              Bcc     0.1773    23.793     8.490     7.937  0.3350  0.7103 -0.6191
 
              Baa    -0.1834   -24.606    -8.780    -8.208  0.9247  0.3796 -0.0300
    27 C(13)  Bbb    -0.1358   -18.222    -6.502    -6.078 -0.3761  0.9228  0.0830
              Bcc     0.3192    42.828    15.282    14.286  0.0592 -0.0655  0.9961
 
              Baa    -0.4884   -65.532   -23.383   -21.859  0.8681 -0.4164 -0.2703
    28 C(13)  Bbb    -0.4755   -63.808   -22.768   -21.284  0.3763  0.1965  0.9054
              Bcc     0.9639   129.340    46.152    43.143  0.3239  0.8877 -0.3273
 
              Baa    -0.0557    -7.473    -2.666    -2.493  0.1318  0.1235  0.9835
    29 C(13)  Bbb     0.0159     2.129     0.760     0.710  0.9198 -0.3852 -0.0749
              Bcc     0.0398     5.344     1.907     1.783  0.3696  0.9145 -0.1644
 
              Baa    -0.0092    -1.241    -0.443    -0.414  0.7263 -0.6755 -0.1271
    30 C(13)  Bbb     0.0000     0.001     0.000     0.000  0.6105  0.7189 -0.3322
              Bcc     0.0092     1.240     0.442     0.413  0.3158  0.1637  0.9346
 
              Baa    -0.0234    -3.145    -1.122    -1.049  0.2399  0.0786  0.9676
    31 C(13)  Bbb     0.0066     0.892     0.318     0.298 -0.4849  0.8732  0.0493
              Bcc     0.0168     2.253     0.804     0.752  0.8410  0.4811 -0.2476
 
              Baa    -0.0270    -3.627    -1.294    -1.210  0.1917 -0.1160  0.9746
    32 C(13)  Bbb    -0.0018    -0.245    -0.087    -0.082 -0.3048  0.9369  0.1714
              Bcc     0.0289     3.872     1.382     1.291  0.9329  0.3299 -0.1443
 
              Baa    -0.0026    -0.344    -0.123    -0.115  0.1433  0.0054  0.9897
    33 C(13)  Bbb    -0.0009    -0.127    -0.045    -0.042 -0.6989  0.7086  0.0973
              Bcc     0.0035     0.471     0.168     0.157  0.7007  0.7056 -0.1054
 
              Baa    -0.0028    -0.377    -0.135    -0.126  0.1821  0.0230  0.9830
    34 C(13)  Bbb    -0.0014    -0.186    -0.066    -0.062 -0.3447  0.9378  0.0419
              Bcc     0.0042     0.563     0.201     0.188  0.9209  0.3465 -0.1786
 
              Baa    -0.0021    -0.284    -0.101    -0.095  0.3106 -0.3826  0.8701
    35 C(13)  Bbb    -0.0006    -0.087    -0.031    -0.029 -0.2992  0.8295  0.4716
              Bcc     0.0028     0.371     0.132     0.124  0.9022  0.4068 -0.1431
 
              Baa    -0.0008    -0.103    -0.037    -0.034  0.0348 -0.0820  0.9960
    36 C(13)  Bbb    -0.0006    -0.086    -0.031    -0.029 -0.2530  0.9634  0.0882
              Bcc     0.0014     0.189     0.067     0.063  0.9668  0.2550 -0.0128
 
              Baa    -0.0004     0.032     0.011     0.011 -0.2556 -0.0589  0.9650
    37 O(17)  Bbb    -0.0002     0.017     0.006     0.006 -0.2849  0.9584 -0.0170
              Bcc     0.0007    -0.049    -0.017    -0.016  0.9238  0.2793  0.2617
 
              Baa    -0.0007     0.051     0.018     0.017  0.1445 -0.0699  0.9870
    38 O(17)  Bbb    -0.0006     0.043     0.015     0.014 -0.2523  0.9619  0.1050
              Bcc     0.0013    -0.094    -0.034    -0.031  0.9568  0.2642 -0.1213
 
              Baa    -0.0124    -0.479    -0.171    -0.160 -0.3230  0.1590  0.9329
    39 N(14)  Bbb     0.0044     0.172     0.061     0.057  0.7392  0.6579  0.1438
              Bcc     0.0080     0.307     0.110     0.103 -0.5909  0.7361 -0.3301
 
              Baa    -0.1619    -6.242    -2.227    -2.082  0.7121 -0.6999  0.0561
    40 N(14)  Bbb    -0.0541    -2.087    -0.745    -0.696  0.7021  0.7090 -0.0668
              Bcc     0.2160     8.329     2.972     2.778  0.0070  0.0869  0.9962
 
              Baa    -0.0899    -3.468    -1.238    -1.157  0.6877  0.7188  0.1022
    41 N(14)  Bbb    -0.0543    -2.094    -0.747    -0.699  0.7259 -0.6778 -0.1169
              Bcc     0.1442     5.562     1.985     1.855  0.0147 -0.1545  0.9879
 
              Baa    -0.0454    -1.750    -0.625    -0.584 -0.6977  0.7158  0.0298
    42 N(14)  Bbb    -0.0130    -0.500    -0.178    -0.167  0.0774  0.0340  0.9964
              Bcc     0.0583     2.250     0.803     0.751  0.7122  0.6975 -0.0791
 
              Baa    -4.5625   -78.990   -28.185   -26.348  0.7596 -0.6504  0.0032
    43 Fe(57) Bbb     0.9533    16.505     5.889     5.505  0.6495  0.7584 -0.0546
              Bcc     3.6092    62.485    22.296    20.843  0.0330  0.0435  0.9985
 
              Baa    -0.1110     8.030     2.865     2.678  0.8540 -0.2928 -0.4300
    44 O(17)  Bbb    -0.0474     3.429     1.224     1.144  0.4138  0.8833  0.2203
              Bcc     0.1584   -11.459    -4.089    -3.822  0.3153 -0.3661  0.8755
 
              Baa    -0.2248    16.264     5.803     5.425  0.9409 -0.2951 -0.1662
    45 O(17)  Bbb    -0.1187     8.593     3.066     2.866  0.3154  0.9422  0.1132
              Bcc     0.3435   -24.857    -8.869    -8.291  0.1232 -0.1589  0.9796
 
              Baa    -0.0039    -2.073    -0.740    -0.691  0.0505  0.8963 -0.4405
    46 H(1)   Bbb    -0.0035    -1.842    -0.657    -0.615  0.1389  0.4305  0.8919
              Bcc     0.0073     3.915     1.397     1.306  0.9890 -0.1062 -0.1027
 
              Baa    -0.0054    -2.891    -1.032    -0.964 -0.0209  0.0116  0.9997
    47 H(1)   Bbb     0.0012     0.626     0.223     0.209  0.7725  0.6350  0.0088
              Bcc     0.0042     2.265     0.808     0.756 -0.6347  0.7724 -0.0222
 
              Baa    -0.0121    -6.456    -2.304    -2.153  0.1104 -0.4022  0.9089
    48 H(1)   Bbb    -0.0050    -2.656    -0.948    -0.886 -0.1243  0.9017  0.4141
              Bcc     0.0171     9.112     3.251     3.039  0.9861  0.1587 -0.0496
 
              Baa    -0.0090    -4.791    -1.710    -1.598  0.2398 -0.1081  0.9648
    49 H(1)   Bbb     0.0001     0.032     0.011     0.011  0.8856  0.4315 -0.1718
              Bcc     0.0089     4.760     1.698     1.588 -0.3978  0.8956  0.1992
 
              Baa    -0.0020    -1.042    -0.372    -0.347 -0.0573 -0.0186  0.9982
    50 H(1)   Bbb    -0.0013    -0.676    -0.241    -0.226  0.8524  0.5195  0.0586
              Bcc     0.0032     1.718     0.613     0.573 -0.5197  0.8542 -0.0139
 
              Baa    -0.0017    -0.896    -0.320    -0.299  0.1574 -0.0875  0.9837
    51 H(1)   Bbb    -0.0011    -0.597    -0.213    -0.199  0.7796  0.6224 -0.0694
              Bcc     0.0028     1.493     0.533     0.498 -0.6062  0.7778  0.1661
 
              Baa    -0.0014    -0.727    -0.259    -0.243 -0.0281  0.0065  0.9996
    52 H(1)   Bbb    -0.0011    -0.565    -0.202    -0.189  0.7540  0.6567  0.0169
              Bcc     0.0024     1.292     0.461     0.431 -0.6563  0.7542 -0.0233
 
              Baa    -0.0019    -0.999    -0.356    -0.333  0.0867 -0.1183  0.9892
    53 H(1)   Bbb    -0.0018    -0.949    -0.339    -0.317  0.2901  0.9529  0.0885
              Bcc     0.0037     1.948     0.695     0.650  0.9531 -0.2793 -0.1170
 
              Baa    -0.0014    -0.740    -0.264    -0.247  0.1310 -0.0519  0.9900
    54 H(1)   Bbb    -0.0014    -0.726    -0.259    -0.242  0.5164  0.8560 -0.0234
              Bcc     0.0027     1.466     0.523     0.489  0.8463 -0.5143 -0.1390
 
              Baa    -0.0012    -0.655    -0.234    -0.218  0.0546  0.3691  0.9278
    55 H(1)   Bbb    -0.0011    -0.603    -0.215    -0.201  0.5554  0.7609 -0.3354
              Bcc     0.0024     1.258     0.449     0.420  0.8298 -0.5336  0.1634
 
              Baa    -0.0016    -0.841    -0.300    -0.280 -0.2806 -0.2419  0.9289
    56 H(1)   Bbb    -0.0015    -0.798    -0.285    -0.266  0.2334  0.9215  0.3105
              Bcc     0.0031     1.638     0.585     0.546  0.9310 -0.3039  0.2021
 
              Baa    -0.0088    -4.714    -1.682    -1.573 -0.0905  0.3461  0.9338
    57 H(1)   Bbb    -0.0016    -0.857    -0.306    -0.286  0.6318  0.7448 -0.2148
              Bcc     0.0104     5.572     1.988     1.859  0.7698 -0.5706  0.2861
 
              Baa    -0.0076    -4.057    -1.448    -1.353  0.0800 -0.4866  0.8699
    58 H(1)   Bbb    -0.0011    -0.591    -0.211    -0.197  0.6609  0.6792  0.3192
              Bcc     0.0087     4.648     1.659     1.550  0.7462 -0.5494 -0.3760
 
              Baa    -0.0051    -2.719    -0.970    -0.907 -0.0137 -0.0297  0.9995
    59 H(1)   Bbb    -0.0009    -0.499    -0.178    -0.166  0.8470  0.5309  0.0274
              Bcc     0.0060     3.218     1.148     1.073 -0.5314  0.8469  0.0179
 
              Baa    -0.0175    -9.354    -3.338    -3.120 -0.3590  0.0134  0.9333
    60 H(1)   Bbb    -0.0063    -3.338    -1.191    -1.114  0.8890  0.3096  0.3375
              Bcc     0.0238    12.692     4.529     4.234 -0.2844  0.9508 -0.1230
 
              Baa    -0.0642   -34.244   -12.219   -11.423 -0.4379  0.0626  0.8969
    61 H(1)   Bbb    -0.0168    -8.955    -3.195    -2.987 -0.2640  0.9446 -0.1948
              Bcc     0.0810    43.199    15.415    14.410  0.8594  0.3221  0.3971
 
              Baa    -0.0674   -35.968   -12.834   -11.998  0.8458  0.4625  0.2658
    62 H(1)   Bbb    -0.0194   -10.354    -3.694    -3.454 -0.5251  0.8095  0.2624
              Bcc     0.0868    46.321    16.529    15.451 -0.0938 -0.3615  0.9276
 
              Baa    -0.0127    -6.771    -2.416    -2.258  0.1783  0.2425  0.9536
    63 H(1)   Bbb    -0.0052    -2.775    -0.990    -0.926  0.5281  0.7942 -0.3007
              Bcc     0.0179     9.546     3.406     3.184  0.8303 -0.5572 -0.0136
 
              Baa    -0.0218   -11.621    -4.147    -3.876  0.3857 -0.3300  0.8616
    64 H(1)   Bbb    -0.0016    -0.847    -0.302    -0.282  0.8033 -0.3392 -0.4895
              Bcc     0.0234    12.467     4.449     4.159  0.4538  0.8809  0.1343
 
              Baa    -0.0108    -5.779    -2.062    -1.928  0.4541  0.7882 -0.4153
    65 H(1)   Bbb     0.0018     0.938     0.335     0.313  0.8532 -0.5190 -0.0520
              Bcc     0.0091     4.840     1.727     1.615  0.2565  0.3307  0.9082
 
              Baa    -0.0195   -10.420    -3.718    -3.476 -0.1494  0.9538  0.2607
    66 H(1)   Bbb    -0.0120    -6.416    -2.289    -2.140  0.1186 -0.2445  0.9624
              Bcc     0.0316    16.836     6.007     5.616  0.9816  0.1747 -0.0766
 
              Baa    -0.0621   -33.154   -11.830   -11.059  0.9392 -0.2109  0.2710
    67 H(1)   Bbb    -0.0053    -2.803    -1.000    -0.935  0.2211  0.9752 -0.0073
              Bcc     0.0674    35.957    12.830    11.994 -0.2627  0.0667  0.9626
 
              Baa    -0.0617   -32.932   -11.751   -10.985 -0.5889  0.4136  0.6944
    68 H(1)   Bbb    -0.0077    -4.119    -1.470    -1.374  0.0376  0.8722 -0.4876
              Bcc     0.0694    37.051    13.221    12.359  0.8073  0.2610  0.5292
 
              Baa    -0.0019    -1.038    -0.371    -0.346  0.0949 -0.0734  0.9928
    69 H(1)   Bbb    -0.0010    -0.522    -0.186    -0.174 -0.6186  0.7770  0.1166
              Bcc     0.0029     1.560     0.557     0.520  0.7800  0.6252 -0.0283
 
              Baa    -0.0022    -1.191    -0.425    -0.397  0.3726  0.0464  0.9268
    70 H(1)   Bbb    -0.0009    -0.493    -0.176    -0.165 -0.6210  0.7547  0.2118
              Bcc     0.0032     1.684     0.601     0.562  0.6896  0.6545 -0.3100
 
              Baa    -0.0032    -1.694    -0.604    -0.565  0.1682 -0.0583  0.9840
    71 H(1)   Bbb    -0.0004    -0.202    -0.072    -0.068 -0.6154  0.7736  0.1510
              Bcc     0.0036     1.896     0.677     0.633  0.7701  0.6310 -0.0943
 
              Baa    -0.0016    -0.845    -0.301    -0.282  0.2184 -0.0390  0.9751
    72 H(1)   Bbb    -0.0011    -0.598    -0.213    -0.199 -0.4137  0.9013  0.1287
              Bcc     0.0027     1.442     0.515     0.481  0.8838  0.4315 -0.1807
 
              Baa    -0.0018    -0.957    -0.342    -0.319  0.2105  0.1841  0.9601
    73 H(1)   Bbb    -0.0016    -0.859    -0.307    -0.287 -0.3338  0.9366 -0.1064
              Bcc     0.0034     1.817     0.648     0.606  0.9189  0.2981 -0.2586
 
              Baa    -0.0018    -0.952    -0.340    -0.317  0.1014 -0.6787  0.7274
    74 H(1)   Bbb    -0.0016    -0.844    -0.301    -0.281 -0.1626  0.7100  0.6851
              Bcc     0.0034     1.795     0.641     0.599  0.9815  0.1878  0.0384
 
              Baa    -0.0015    -0.824    -0.294    -0.275 -0.1161  0.0257  0.9929
    75 H(1)   Bbb    -0.0011    -0.570    -0.203    -0.190 -0.3598  0.9307 -0.0661
              Bcc     0.0026     1.394     0.497     0.465  0.9258  0.3649  0.0988
 
              Baa    -0.0175    -9.350    -3.336    -3.119  0.5665  0.8230  0.0424
    76 H(1)   Bbb    -0.0130    -6.950    -2.480    -2.318  0.8186 -0.5679  0.0863
              Bcc     0.0305    16.299     5.816     5.437 -0.0951  0.0142  0.9954
 
              Baa    -0.0359   -19.136    -6.828    -6.383 -0.2890  0.9413  0.1743
    77 H(1)   Bbb    -0.0234   -12.505    -4.462    -4.171  0.7560  0.3361 -0.5617
              Bcc     0.0593    31.641    11.290    10.554  0.5873  0.0306  0.8088
 
              Baa    -0.1187   -63.341   -22.602   -21.128  0.7239  0.6844  0.0870
    78 H(1)   Bbb    -0.0865   -46.149   -16.467   -15.394 -0.5868  0.5445  0.5993
              Bcc     0.2052   109.490    39.069    36.522  0.3627 -0.4849  0.7958
 
              Baa    -0.0333   -17.767    -6.340    -5.926 -0.3559  0.9093  0.2155
    79 H(1)   Bbb    -0.0187    -9.970    -3.557    -3.326  0.7905  0.1700  0.5884
              Bcc     0.0520    27.737     9.897     9.252 -0.4984 -0.3798  0.7793
 
              Baa    -0.0006    -0.315    -0.113    -0.105  0.1509 -0.0953  0.9839
    80 H(1)   Bbb    -0.0005    -0.264    -0.094    -0.088 -0.3072  0.9415  0.1383
              Bcc     0.0011     0.580     0.207     0.193  0.9396  0.3232 -0.1128
 
              Baa    -0.0007    -0.367    -0.131    -0.122 -0.2589 -0.1606  0.9525
    81 H(1)   Bbb    -0.0006    -0.343    -0.122    -0.114  0.1601  0.9653  0.2063
              Bcc     0.0013     0.710     0.253     0.237  0.9525 -0.2059  0.2242
 

 ---------------------------------------------------------------------------------

 1\1\GINC-NODE590\SP\UPBE1PBE\def2TZVP\C34H36Fe1N4O6(1+,6)\KLEICH\20-Se
 p-2022\0\\# PBE1PBE/def2TZVP empiricaldispersion=GD3BJ int=(grid=ultra
 fine) geom=check guess=read scrf=(smd,solvent=Chloroform)\\1cce_III_H_
 solv\\1,6\C,0,-5.48,53.62,113.148\C,0,-7.571,57.663,114.65\C,0,-6.212,
 59.774,110.58\C,0,-3.759,55.864,109.383\C,0,-6.201,54.529,113.94\C,0,-
 6.717,54.212,115.182\C,0,-7.392,55.377,115.614\C,0,-7.138,56.332,114.6
 31\C,0,-8.283,55.562,116.835\C,0,-6.584,52.826,115.8\C,0,-5.521,52.715
 ,116.871\C,0,-5.378,51.363,117.57\O,0,-6.217,50.989,118.381\O,0,-4.403
 ,50.646,117.362\C,0,-7.47,58.618,113.624\C,0,-8.124,59.862,113.625\C,0
 ,-7.763,60.457,112.409\C,0,-6.911,59.538,111.776\C,0,-9.109,60.337,114
 .701\C,0,-8.111,61.69,111.839\C,0,-8.971,62.736,112.366\C,0,-5.303,58.
 954,109.91\C,0,-4.54,59.325,108.805\C,0,-3.794,58.17,108.484\C,0,-4.19
 6,57.199,109.399\C,0,-4.519,60.709,108.176\C,0,-2.842,57.879,107.491\C
 ,0,-2.374,58.685,106.381\C,0,-3.977,54.842,110.284\C,0,-3.64,53.509,11
 0.086\C,0,-4.164,52.855,111.174\C,0,-4.755,53.841,111.963\C,0,-2.888,5
 2.827,108.948\C,0,-4.093,51.352,111.4\C,0,-3.176,51.046,112.555\C,0,-2
 .982,49.599,112.903\O,0,-2.36,49.336,113.93\O,0,-3.445,48.727,112.182\
 N,0,-6.448,55.803,113.62\N,0,-6.816,58.405,112.482\N,0,-5.033,57.698,1
 10.293\N,0,-4.582,55.057,111.445\Fe,0,-5.719,56.734,111.941\O,0,-4.284
 ,57.394,113.195\O,0,-7.101,55.961,110.708\H,0,-5.48270944,52.60896755,
 113.49829422\H,0,-8.03524361,57.99339133,115.55565967\H,0,-6.40448998,
 60.71877956,110.11606123\H,0,-3.16139901,55.59694099,108.5365648\H,0,-
 8.36891296,56.60472598,117.05914613\H,0,-9.2535454,55.15955328,116.632
 5691\H,0,-7.85260181,55.05171079,117.67121906\H,0,-6.26267678,52.18481
 752,115.00593676\H,0,-7.51406047,52.63955831,116.29510304\H,0,-5.82540
 006,53.39559646,117.63848228\H,0,-4.59286539,52.86505729,116.36016837\
 H,0,-8.77788362,61.27326601,115.09933139\H,0,-10.07993397,60.45711609,
 114.26768792\H,0,-9.15617378,59.61190816,115.48644029\H,0,-7.68211721,
 61.88898932,110.87912355\H,0,-9.61039298,63.44231863,111.87897781\H,0,
 -9.71396272,62.06975701,111.97996027\H,0,-4.33953601,61.02979666,107.1
 7112082\H,0,-3.48301127,60.45600158,108.08871229\H,0,-5.390304,60.3087
 7178,107.70108241\H,0,-2.39264453,56.91087831,107.56663101\H,0,-1.5328
 8319,59.26802394,106.69325886\H,0,-3.15887185,59.3361707,106.05719003\
 H,0,-2.17243963,52.14237926,109.35317626\H,0,-3.58132302,52.29459616,1
 08.33095109\H,0,-2.3826099,53.56551138,108.36141514\H,0,-3.63788041,50
 .93188344,110.52749313\H,0,-5.07286653,51.03970224,111.69535012\H,0,-3
 .65009218,51.4786957,113.41110223\H,0,-2.21158769,51.39132073,112.2458
 6815\H,0,-3.53292348,57.99189971,113.195\H,0,-3.97065359,56.48657836,1
 13.195\H,0,-6.34992348,56.55889971,110.708\H,0,-6.78765359,55.05357836
 ,110.708\H,0,-2.85733077,48.14197171,111.69827821\H,0,-3.51645184,50.9
 9970047,117.46460767\\Version=ES64L-G16RevA.03\State=6-A\HF=-3249.0922
 562\S2=8.851862\S2-1=0.\S2A=8.752666\RMSD=3.673e-09\Dipole=0.4685443,6
 .6597773,-4.9775521\Quadrupole=-6.6415434,23.9820031,-17.3404596,-44.3
 649032,-16.6284435,13.6881317\PG=C01 [X(C34H36Fe1N4O6)]\\@


 THE FIRST AND LAST THING REQUIRED OF GENIUS IS THE LOVE OF TRUTH.

                          -- GOETHE
 Job cpu time:       1 days 17 hours 48 minutes  0.0 seconds.
 Elapsed time:       0 days 10 hours 28 minutes 28.8 seconds.
 File lengths (MBytes):  RWF=   3010 Int=      0 D2E=      0 Chk=    205 Scr=      1
 Normal termination of Gaussian 16 at Tue Sep 20 10:44:26 2022.
