 Initial command:
 /afs/math/software/gaussian/g16.A03/g16/l1.exe "/scratch/kleich_gaussian.3cSLSJa/Gau-15534.inp" -scrdir="/scratch/kleich_gaussian.3cSLSJa/"
 Entering Link 1 = /afs/math/software/gaussian/g16.A03/g16/l1.exe PID=     12383.
  
 Copyright (c) 1988,1990,1992,1993,1995,1998,2003,2009,2016,
            Gaussian, Inc.  All Rights Reserved.
  
 This is part of the Gaussian(R) 16 program.  It is based on
 the Gaussian(R) 09 system (copyright 2009, Gaussian, Inc.),
 the Gaussian(R) 03 system (copyright 2003, Gaussian, Inc.),
 the Gaussian(R) 98 system (copyright 1998, Gaussian, Inc.),
 the Gaussian(R) 94 system (copyright 1995, Gaussian, Inc.),
 the Gaussian 92(TM) system (copyright 1992, Gaussian, Inc.),
 the Gaussian 90(TM) system (copyright 1990, Gaussian, Inc.),
 the Gaussian 88(TM) system (copyright 1988, Gaussian, Inc.),
 the Gaussian 86(TM) system (copyright 1986, Carnegie Mellon
 University), and the Gaussian 82(TM) system (copyright 1983,
 Carnegie Mellon University). Gaussian is a federally registered
 trademark of Gaussian, Inc.
  
 This software contains proprietary and confidential information,
 including trade secrets, belonging to Gaussian, Inc.
  
 This software is provided under written license and may be
 used, copied, transmitted, or stored only in accord with that
 written license.
  
 The following legend is applicable only to US Government
 contracts under FAR:
  
                    RESTRICTED RIGHTS LEGEND
  
 Use, reproduction and disclosure by the US Government is
 subject to restrictions as set forth in subparagraphs (a)
 and (c) of the Commercial Computer Software - Restricted
 Rights clause in FAR 52.227-19.
  
 Gaussian, Inc.
 340 Quinnipiac St., Bldg. 40, Wallingford CT 06492
  
  
 ---------------------------------------------------------------
 Warning -- This program may not be used in any manner that
 competes with the business of Gaussian, Inc. or will provide
 assistance to any competitor of Gaussian, Inc.  The licensee
 of this program is prohibited from giving any competitor of
 Gaussian, Inc. access to this program.  By using this program,
 the user acknowledges that Gaussian, Inc. is engaged in the
 business of creating and licensing software in the field of
 computational chemistry and represents and warrants to the
 licensee that it is not a competitor of Gaussian, Inc. and that
 it will not use this program in any manner prohibited above.
 ---------------------------------------------------------------
  

 Cite this work as:
 Gaussian 16, Revision A.03,
 M. J. Frisch, G. W. Trucks, H. B. Schlegel, G. E. Scuseria, 
 M. A. Robb, J. R. Cheeseman, G. Scalmani, V. Barone, 
 G. A. Petersson, H. Nakatsuji, X. Li, M. Caricato, A. V. Marenich, 
 J. Bloino, B. G. Janesko, R. Gomperts, B. Mennucci, H. P. Hratchian, 
 J. V. Ortiz, A. F. Izmaylov, J. L. Sonnenberg, D. Williams-Young, 
 F. Ding, F. Lipparini, F. Egidi, J. Goings, B. Peng, A. Petrone, 
 T. Henderson, D. Ranasinghe, V. G. Zakrzewski, J. Gao, N. Rega, 
 G. Zheng, W. Liang, M. Hada, M. Ehara, K. Toyota, R. Fukuda, 
 J. Hasegawa, M. Ishida, T. Nakajima, Y. Honda, O. Kitao, H. Nakai, 
 T. Vreven, K. Throssell, J. A. Montgomery, Jr., J. E. Peralta, 
 F. Ogliaro, M. J. Bearpark, J. J. Heyd, E. N. Brothers, K. N. Kudin, 
 V. N. Staroverov, T. A. Keith, R. Kobayashi, J. Normand, 
 K. Raghavachari, A. P. Rendell, J. C. Burant, S. S. Iyengar, 
 J. Tomasi, M. Cossi, J. M. Millam, M. Klene, C. Adamo, R. Cammi, 
 J. W. Ochterski, R. L. Martin, K. Morokuma, O. Farkas, 
 J. B. Foresman, and D. J. Fox, Gaussian, Inc., Wallingford CT, 2016.
 
 ******************************************
 Gaussian 16:  ES64L-G16RevA.03 25-Dec-2016
                17-Sep-2022 
 ******************************************
 %nprocs=12
 Will use up to   12 processors via shared memory.
 %mem=16GB
 %chk=1cce_III_D.chk
 ----------------------------------------------------------------------
 # PBE1PBE/def2TZVP empiricaldispersion=GD3BJ int=(grid=ultrafine) geom
 =check guess=read scrf=(smd,solvent=Chloroform)
 ----------------------------------------------------------------------
 1/29=2,38=1,172=1/1;
 2/12=2,40=1/2;
 3/5=44,7=101,11=2,14=-4,25=1,30=1,70=32201,72=7,74=-13,75=-5,116=-2,124=41/1,2,3;
 4/5=1/1;
 5/5=2,38=6,53=7/2;
 6/7=2,8=2,9=2,10=2,28=1/1;
 99/5=1,9=1/99;
 ---------------
 1cce_III_D_solv
 ---------------
 Structure from the checkpoint file:  "1cce_III_D.chk"
 Charge =  1 Multiplicity = 2
 Z-Matrix found in chk file.
 C,0,-5.48,53.62,113.148
 C,0,-7.571,57.663,114.65
 C,0,-6.212,59.774,110.58
 C,0,-3.759,55.864,109.383
 C,0,-6.201,54.529,113.94
 C,0,-6.717,54.212,115.182
 C,0,-7.392,55.377,115.614
 C,0,-7.138,56.332,114.631
 C,0,-8.283,55.562,116.835
 C,0,-6.584,52.826,115.8
 C,0,-5.521,52.715,116.871
 C,0,-5.378,51.363,117.57
 O,0,-6.217,50.989,118.381
 O,0,-4.403,50.646,117.362
 C,0,-7.47,58.618,113.624
 C,0,-8.124,59.862,113.625
 C,0,-7.763,60.457,112.409
 C,0,-6.911,59.538,111.776
 C,0,-9.109,60.337,114.701
 C,0,-8.111,61.69,111.839
 C,0,-8.971,62.736,112.366
 C,0,-5.303,58.954,109.91
 C,0,-4.54,59.325,108.805
 C,0,-3.794,58.17,108.484
 C,0,-4.196,57.199,109.399
 C,0,-4.519,60.709,108.176
 C,0,-2.842,57.879,107.491
 C,0,-2.374,58.685,106.381
 C,0,-3.977,54.842,110.284
 C,0,-3.64,53.509,110.086
 C,0,-4.164,52.855,111.174
 C,0,-4.755,53.841,111.963
 C,0,-2.888,52.827,108.948
 C,0,-4.093,51.352,111.4
 C,0,-3.176,51.046,112.555
 C,0,-2.982,49.599,112.903
 O,0,-2.36,49.336,113.93
 O,0,-3.445,48.727,112.182
 N,0,-6.448,55.803,113.62
 N,0,-6.816,58.405,112.482
 N,0,-5.033,57.698,110.293
 N,0,-4.582,55.057,111.445
 Fe,0,-5.719,56.734,111.941
 O,0,-4.284,57.394,113.195
 O,0,-7.101,55.961,110.708
 H,0,-5.48270944,52.60896755,113.49829422
 H,0,-8.03524361,57.99339133,115.55565967
 H,0,-6.40448998,60.71877956,110.11606123
 H,0,-3.16139901,55.59694099,108.5365648
 H,0,-8.36891296,56.60472598,117.05914613
 H,0,-9.2535454,55.15955328,116.6325691
 H,0,-7.85260181,55.05171079,117.67121906
 H,0,-6.26267678,52.18481752,115.00593676
 H,0,-7.51406047,52.63955831,116.29510304
 H,0,-5.82540006,53.39559646,117.63848228
 H,0,-4.59286539,52.86505729,116.36016837
 H,0,-8.77788362,61.27326601,115.09933139
 H,0,-10.07993397,60.45711609,114.26768792
 H,0,-9.15617378,59.61190816,115.48644029
 H,0,-7.68211721,61.88898932,110.87912355
 H,0,-9.61039298,63.44231863,111.87897781
 H,0,-9.71396272,62.06975701,111.97996027
 H,0,-4.33953601,61.02979666,107.17112082
 H,0,-3.48301127,60.45600158,108.08871229
 H,0,-5.390304,60.30877178,107.70108241
 H,0,-2.39264453,56.91087831,107.56663101
 H,0,-1.53288319,59.26802394,106.69325886
 H,0,-3.15887185,59.3361707,106.05719003
 H,0,-2.17243963,52.14237926,109.35317626
 H,0,-3.58132302,52.29459616,108.33095109
 H,0,-2.3826099,53.56551138,108.36141514
 H,0,-3.63788041,50.93188344,110.52749313
 H,0,-5.07286653,51.03970224,111.69535012
 H,0,-3.65009218,51.4786957,113.41110223
 H,0,-2.21158769,51.39132073,112.24586815
 H,0,-3.53292348,57.99189971,113.195
 H,0,-3.97065359,56.48657836,113.195
 H,0,-6.34992348,56.55889971,110.708
 H,0,-6.78765359,55.05357836,110.708
 H,0,-2.85733077,48.14197171,111.69827821
 H,0,-3.51645184,50.99970047,117.46460767
 Recover connectivity data from disk.
 Center=     -5.48322662     55.92056561    112.29845634
 Residue   0                        charge    0.00000000 layers R        AvRTP=      7.12770992    289.88216988     71.31909166
 Residue   4                        charge    0.00000000 layers R        AvRTP=      0.00000000      0.00000000      0.00000000
 Residue   2 PDB Number   313_A HOH charge    0.00000000 layers R        AvRTP=      2.25752666     41.40404323     66.60078230
 Residue   3 PDB Number   387_A HOH charge    0.00000000 layers R        AvRTP=      2.03188830    182.84391009    141.51286530
 Residue   1 PDB Number     1_A HEM charge    0.00000000 layers R        AvRTP=      0.14567071    121.91288658    103.50989736
 Stoichiometry    C34H36FeN4O6(1+,2)
 Framework group  C1[X(C34H36FeN4O6)]
 Deg. of freedom   237
 Full point group                 C1      NOp   1
 Largest Abelian subgroup         C1      NOp   1
 Largest concise Abelian subgroup C1      NOp   1
                         Standard orientation:                         
 ---------------------------------------------------------------------
 Center     Atomic      Atomic             Coordinates (Angstroms)
 Number     Number       Type             X           Y           Z
 ---------------------------------------------------------------------
      1          6           0        2.215484   -0.034313   -0.468490
      2          6           0       -1.124328   -3.435501    0.033210
      3          6           0       -4.473291   -0.021934    0.043667
      4          6           0       -1.062382    3.310246    0.023569
      5          6           0        1.611099   -1.296830   -0.349515
      6          6           0        2.323720   -2.480111   -0.313105
      7          6           0        1.348523   -3.500464   -0.227404
      8          6           0        0.129757   -2.832754   -0.119690
      9          6           0        1.539919   -5.008531   -0.317125
     10          6           0        3.841227   -2.531964   -0.435963
     11          6           0        4.570689   -2.742716    0.872777
     12          6           0        6.093415   -2.861194    0.807805
     13          8           0        6.621235   -3.874269    0.364406
     14          8           0        6.814177   -1.962617    1.233293
     15          6           0       -2.387413   -2.820475   -0.002318
     16          6           0       -3.609475   -3.511460   -0.068331
     17          6           0       -4.585953   -2.507799   -0.114796
     18          6           0       -3.883671   -1.293382   -0.058715
     19          6           0       -3.753549   -5.033739   -0.192963
     20          6           0       -5.983958   -2.575512   -0.200172
     21          6           0       -6.845188   -3.744108   -0.264294
     22          6           0       -3.864962    1.228138    0.165479
     23          6           0       -4.525987    2.429559    0.411385
     24          6           0       -3.501120    3.400403    0.437684
     25          6           0       -2.321978    2.706560    0.173346
     26          6           0       -6.019771    2.577510    0.652748
     27          6           0       -3.492219    4.791514    0.642049
     28          6           0       -4.594230    5.718064    0.808893
     29          6           0        0.188112    2.744433   -0.117602
     30          6           0        1.352683    3.433818   -0.430946
     31          6           0        2.300255    2.453684   -0.596719
     32          6           0        1.648320    1.247063   -0.345634
     33          6           0        1.615391    4.926534   -0.599629
     34          6           0        3.747742    2.704319   -0.993064
     35          6           0        4.661098    2.395575    0.164091
     36          6           0        6.130769    2.605574   -0.056171
     37          8           0        6.901481    2.219508    0.820036
     38          8           0        6.527814    3.134318   -1.084460
     39          7           0        0.298328   -1.514080   -0.223336
     40          7           0       -2.561667   -1.500946   -0.077988
     41          7           0       -2.537976    1.404342    0.093476
     42          7           0        0.376959    1.437161    0.007086
     43         26           0       -1.107873   -0.026320   -0.060815
     44          8           0       -0.925722   -0.369372    1.918194
     45          8           0       -1.171312    0.359346   -2.029312
     46          1           0        3.263285   -0.049652   -0.684771
     47          1           0       -1.120817   -4.492881    0.197024
     48          1           0       -5.543079   -0.010633    0.025623
     49          1           0       -1.074684    4.380161    0.018084
     50          1           0        0.688487   -5.501752    0.103227
     51          1           0        1.647199   -5.294051   -1.342732
     52          1           0        2.418556   -5.289430    0.225086
     53          1           0        4.136965   -1.562601   -0.779147
     54          1           0        4.054099   -3.397188   -1.028391
     55          1           0        4.231602   -3.691851    1.232030
     56          1           0        4.383375   -1.856862    1.442932
     57          1           0       -4.365410   -5.400570    0.604509
     58          1           0       -4.208955   -5.273278   -1.131114
     59          1           0       -2.786767   -5.489089   -0.139210
     60          1           0       -6.488480   -1.632156   -0.221085
     61          1           0       -7.788874   -3.905549   -0.742095
     62          1           0       -6.540043   -3.689126   -1.288385
     63          1           0       -6.694727    3.383886    0.455028
     64          1           0       -5.652036    3.296195    1.355002
     65          1           0       -6.011176    2.561077   -0.417092
     66          1           0       -2.519527    5.235700    0.680405
     67          1           0       -4.839037    5.797816    1.847455
     68          1           0       -5.445616    5.360749    0.268182
     69          1           0        2.518659    5.189551   -0.089895
     70          1           0        1.713207    5.156124   -1.640119
     71          1           0        0.798631    5.481266   -0.187225
     72          1           0        3.836551    3.753702   -1.182294
     73          1           0        3.980888    2.000036   -1.764121
     74          1           0        4.550947    1.345094    0.335138
     75          1           0        4.390074    3.093417    0.928592
     76          1           0       -1.329726   -0.099500    2.746173
     77          1           0       -0.062202    0.041647    1.834548
     78          1           0       -1.575316    0.629218   -1.201333
     79          1           0       -0.307792    0.770365   -2.112958
     80          1           0        6.948956    3.996294   -1.049296
     81          1           0        6.694223   -1.633694    2.127173
 ---------------------------------------------------------------------
 Rotational constants (GHZ):           0.0921782           0.0514608           0.0344033
 Standard basis: def2TZVP (5D, 7F)
 There are  1852 symmetry adapted cartesian basis functions of A   symmetry.
 There are  1625 symmetry adapted basis functions of A   symmetry.
  1625 basis functions,  2634 primitive gaussians,  1852 cartesian basis functions
   171 alpha electrons      170 beta electrons
       nuclear repulsion energy      6425.8624552670 Hartrees.
 NAtoms=   81 NActive=   81 NUniq=   81 SFac= 1.00D+00 NAtFMM=   60 NAOKFM=T Big=T
 Integral buffers will be    131072 words long.
 Raffenetti 2 integral format.
 Two-electron integral symmetry is turned on.
 Nuclear repulsion after empirical dispersion term =     6425.7519075358 Hartrees.
 ------------------------------------------------------------------------------
 Polarizable Continuum Model (PCM)
 =================================
 Model                : PCM.
 Atomic radii         : SMD-Coulomb.
 Polarization charges : Total charges.
 Charge compensation  : None.
 Solution method      : On-the-fly selection.
 Cavity type          : VdW (van der Waals Surface) (Alpha=1.000).
 Cavity algorithm     : GePol (No added spheres)
                        Default sphere list used, NSphG=   81.
                        Lebedev-Laikov grids with approx.  5.0 points / Ang**2.
                        Smoothing algorithm: York/Karplus (Gamma=1.0000).
                        Polarization charges: spherical gaussians, with
                                              point-specific exponents (IZeta= 3).
                        Self-potential: point-specific (ISelfS= 7).
                        Self-field    : sphere-specific E.n sum rule (ISelfD= 2).
 Solvent              : Chloroform, Eps=   4.711300 Eps(inf)=   2.090627
 ------------------------------------------------------------------------------
 ------------------------------------------------------------------------------
 Atomic radii for non-electrostatic terms: SMD-CDS.
 ------------------------------------------------------------------------------
 Nuclear repulsion after PCM non-electrostatic terms =     6425.7367537795 Hartrees.
 One-electron integrals computed using PRISM.
   1 Symmetry operations used in ECPInt.
 ECPInt:  NShTT=  207046 NPrTT=  642413 LenC2=  150115 LenP2D=  305059.
 LDataN:  DoStor=T MaxTD1= 6 Len=  172
 NBasis=  1625 RedAO= T EigKep=  3.11D-06  NBF=  1625
 NBsUse=  1625 1.00D-06 EigRej= -1.00D+00 NBFU=  1625
 Initial guess from the checkpoint file:  "1cce_III_D.chk"
 B after Tr=     0.000000    0.000000    0.000000
         Rot=    1.000000    0.000000   -0.000000   -0.000000 Ang=   0.00 deg.
 Initial guess <Sx>= 0.0000 <Sy>= 0.0000 <Sz>= 0.5000 <S**2>= 1.8851 S= 0.9612
 Requested convergence on RMS density matrix=1.00D-08 within 128 cycles.
 Requested convergence on MAX density matrix=1.00D-06.
 Requested convergence on             energy=1.00D-06.
 No special actions if energy rises.
 Inv3:  Mode=1 IEnd=   100155852.
 Iteration    1 A*A^-1 deviation from unit magnitude is 4.00D-15 for   4152.
 Iteration    1 A*A^-1 deviation from orthogonality  is 2.26D-15 for   4300   4047.
 Iteration    1 A^-1*A deviation from unit magnitude is 3.77D-15 for   4152.
 Iteration    1 A^-1*A deviation from orthogonality  is 2.55D-15 for   3688    923.
 Restarting incremental Fock formation.
 Restarting incremental Fock formation.
 Error on total polarization charges =  0.07098
 SCF Done:  E(UPBE1PBE) =  -3249.11584183     A.U. after   43 cycles
            NFock= 43  Conv=0.26D-08     -V/T= 2.0026
 <Sx>= 0.0000 <Sy>= 0.0000 <Sz>= 0.5000 <S**2>= 1.7960 S= 0.9304
 <L.S>= 0.000000000000E+00
 SMD-CDS (non-electrostatic) energy       (kcal/mol) =      -9.51
 (included in total energy above)
 Annihilation of the first spin contaminant:
 S**2 before annihilation     1.7960,   after     1.6378

 **********************************************************************

            Population analysis using the SCF density.

 **********************************************************************

 Orbital symmetries:
 Alpha Orbitals:
       Occupied  (A) (A) (A) (A) (A) (A) (A) (A) (A) (A) (A) (A)
                 (A) (A) (A) (A) (A) (A) (A) (A) (A) (A) (A) (A)
                 (A) (A) (A) (A) (A) (A) (A) (A) (A) (A) (A) (A)
                 (A) (A) (A) (A) (A) (A) (A) (A) (A) (A) (A) (A)
                 (A) (A) (A) (A) (A) (A) (A) (A) (A) (A) (A) (A)
                 (A) (A) (A) (A) (A) (A) (A) (A) (A) (A) (A) (A)
                 (A) (A) (A) (A) (A) (A) (A) (A) (A) (A) (A) (A)
                 (A) (A) (A) (A) (A) (A) (A) (A) (A) (A) (A) (A)
                 (A) (A) (A) (A) (A) (A) (A) (A) (A) (A) (A) (A)
                 (A) (A) (A) (A) (A) (A) (A) (A) (A) (A) (A) (A)
                 (A) (A) (A) (A) (A) (A) (A) (A) (A) (A) (A) (A)
                 (A) (A) (A) (A) (A) (A) (A) (A) (A) (A) (A) (A)
                 (A) (A) (A) (A) (A) (A) (A) (A) (A) (A) (A) (A)
                 (A) (A) (A) (A) (A) (A) (A) (A) (A) (A) (A) (A)
                 (A) (A) (A)
       Virtual   (A) (A) (A) (A) (A) (A) (A) (A) (A) (A) (A) (A)
                 (A) (A) (A) (A) (A) (A) (A) (A) (A) (A) (A) (A)
                 (A) (A) (A) (A) (A) (A) (A) (A) (A) (A) (A) (A)
                 (A) (A) (A) (A) (A) (A) (A) (A) (A) (A) (A) (A)
                 (A) (A) (A) (A) (A) (A) (A) (A) (A) (A) (A) (A)
                 (A) (A) (A) (A) (A) (A) (A) (A) (A) (A) (A) (A)
                 (A) (A) (A) (A) (A) (A) (A) (A) (A) (A) (A) (A)
                 (A) (A) (A) (A) (A) (A) (A) (A) (A) (A) (A) (A)
                 (A) (A) (A) (A) (A) (A) (A) (A) (A) (A) (A) (A)
                 (A) (A) (A) (A) (A) (A) (A) (A) (A) (A) (A) (A)
                 (A) (A) (A) (A) (A) (A) (A) (A) (A) (A) (A) (A)
                 (A) (A) (A) (A) (A) (A) (A) (A) (A) (A) (A) (A)
                 (A) (A) (A) (A) (A) (A) (A) (A) (A) (A) (A) (A)
                 (A) (A) (A) (A) (A) (A) (A) (A) (A) (A) (A) (A)
                 (A) (A) (A) (A) (A) (A) (A) (A) (A) (A) (A) (A)
                 (A) (A) (A) (A) (A) (A) (A) (A) (A) (A) (A) (A)
                 (A) (A) (A) (A) (A) (A) (A) (A) (A) (A) (A) (A)
                 (A) (A) (A) (A) (A) (A) (A) (A) (A) (A) (A) (A)
                 (A) (A) (A) (A) (A) (A) (A) (A) (A) (A) (A) (A)
                 (A) (A) (A) (A) (A) (A) (A) (A) (A) (A) (A) (A)
                 (A) (A) (A) (A) (A) (A) (A) (A) (A) (A) (A) (A)
                 (A) (A) (A) (A) (A) (A) (A) (A) (A) (A) (A) (A)
                 (A) (A) (A) (A) (A) (A) (A) (A) (A) (A) (A) (A)
                 (A) (A) (A) (A) (A) (A) (A) (A) (A) (A) (A) (A)
                 (A) (A) (A) (A) (A) (A) (A) (A) (A) (A) (A) (A)
                 (A) (A) (A) (A) (A) (A) (A) (A) (A) (A) (A) (A)
                 (A) (A) (A) (A) (A) (A) (A) (A) (A) (A) (A) (A)
                 (A) (A) (A) (A) (A) (A) (A) (A) (A) (A) (A) (A)
                 (A) (A) (A) (A) (A) (A) (A) (A) (A) (A) (A) (A)
                 (A) (A) (A) (A) (A) (A) (A) (A) (A) (A) (A) (A)
                 (A) (A) (A) (A) (A) (A) (A) (A) (A) (A) (A) (A)
                 (A) (A) (A) (A) (A) (A) (A) (A) (A) (A) (A) (A)
                 (A) (A) (A) (A) (A) (A) (A) (A) (A) (A) (A) (A)
                 (A) (A) (A) (A) (A) (A) (A) (A) (A) (A) (A) (A)
                 (A) (A) (A) (A) (A) (A) (A) (A) (A) (A) (A) (A)
                 (A) (A) (A) (A) (A) (A) (A) (A) (A) (A) (A) (A)
                 (A) (A) (A) (A) (A) (A) (A) (A) (A) (A) (A) (A)
                 (A) (A) (A) (A) (A) (A) (A) (A) (A) (A) (A) (A)
                 (A) (A) (A) (A) (A) (A) (A) (A) (A) (A) (A) (A)
                 (A) (A) (A) (A) (A) (A) (A) (A) (A) (A) (A) (A)
                 (A) (A) (A) (A) (A) (A) (A) (A) (A) (A) (A) (A)
                 (A) (A) (A) (A) (A) (A) (A) (A) (A) (A) (A) (A)
                 (A) (A) (A) (A) (A) (A) (A) (A) (A) (A) (A) (A)
                 (A) (A) (A) (A) (A) (A) (A) (A) (A) (A) (A) (A)
                 (A) (A) (A) (A) (A) (A) (A) (A) (A) (A) (A) (A)
                 (A) (A) (A) (A) (A) (A) (A) (A) (A) (A) (A) (A)
                 (A) (A) (A) (A) (A) (A) (A) (A) (A) (A) (A) (A)
                 (A) (A) (A) (A) (A) (A) (A) (A) (A) (A) (A) (A)
                 (A) (A) (A) (A) (A) (A) (A) (A) (A) (A) (A) (A)
                 (A) (A) (A) (A) (A) (A) (A) (A) (A) (A) (A) (A)
                 (A) (A) (A) (A) (A) (A) (A) (A) (A) (A) (A) (A)
                 (A) (A) (A) (A) (A) (A) (A) (A) (A) (A) (A) (A)
                 (A) (A) (A) (A) (A) (A) (A) (A) (A) (A) (A) (A)
                 (A) (A) (A) (A) (A) (A) (A) (A) (A) (A) (A) (A)
                 (A) (A) (A) (A) (A) (A) (A) (A) (A) (A) (A) (A)
                 (A) (A) (A) (A) (A) (A) (A) (A) (A) (A) (A) (A)
                 (A) (A) (A) (A) (A) (A) (A) (A) (A) (A) (A) (A)
                 (A) (A) (A) (A) (A) (A) (A) (A) (A) (A) (A) (A)
                 (A) (A) (A) (A) (A) (A) (A) (A) (A) (A) (A) (A)
                 (A) (A) (A) (A) (A) (A) (A) (A) (A) (A) (A) (A)
                 (A) (A) (A) (A) (A) (A) (A) (A) (A) (A) (A) (A)
                 (A) (A) (A) (A) (A) (A) (A) (A) (A) (A) (A) (A)
                 (A) (A) (A) (A) (A) (A) (A) (A) (A) (A) (A) (A)
                 (A) (A) (A) (A) (A) (A) (A) (A) (A) (A) (A) (A)
                 (A) (A) (A) (A) (A) (A) (A) (A) (A) (A) (A) (A)
                 (A) (A) (A) (A) (A) (A) (A) (A) (A) (A) (A) (A)
                 (A) (A) (A) (A) (A) (A) (A) (A) (A) (A) (A) (A)
                 (A) (A) (A) (A) (A) (A) (A) (A) (A) (A) (A) (A)
                 (A) (A) (A) (A) (A) (A) (A) (A) (A) (A) (A) (A)
                 (A) (A) (A) (A) (A) (A) (A) (A) (A) (A) (A) (A)
                 (A) (A) (A) (A) (A) (A) (A) (A) (A) (A) (A) (A)
                 (A) (A) (A) (A) (A) (A) (A) (A) (A) (A) (A) (A)
                 (A) (A) (A) (A) (A) (A) (A) (A) (A) (A) (A) (A)
                 (A) (A) (A) (A) (A) (A) (A) (A) (A) (A) (A) (A)
                 (A) (A) (A) (A) (A) (A) (A) (A) (A) (A) (A) (A)
                 (A) (A) (A) (A) (A) (A) (A) (A) (A) (A) (A) (A)
                 (A) (A) (A) (A) (A) (A) (A) (A) (A) (A) (A) (A)
                 (A) (A) (A) (A) (A) (A) (A) (A) (A) (A) (A) (A)
                 (A) (A) (A) (A) (A) (A) (A) (A) (A) (A) (A) (A)
                 (A) (A) (A) (A) (A) (A) (A) (A) (A) (A) (A) (A)
                 (A) (A) (A) (A) (A) (A) (A) (A) (A) (A) (A) (A)
                 (A) (A) (A) (A) (A) (A) (A) (A) (A) (A) (A) (A)
                 (A) (A) (A) (A) (A) (A) (A) (A) (A) (A) (A) (A)
                 (A) (A) (A) (A) (A) (A) (A) (A) (A) (A) (A) (A)
                 (A) (A) (A) (A) (A) (A) (A) (A) (A) (A) (A) (A)
                 (A) (A) (A) (A) (A) (A) (A) (A) (A) (A) (A) (A)
                 (A) (A) (A) (A) (A) (A) (A) (A) (A) (A) (A) (A)
                 (A) (A) (A) (A) (A) (A) (A) (A) (A) (A) (A) (A)
                 (A) (A) (A) (A) (A) (A) (A) (A) (A) (A) (A) (A)
                 (A) (A) (A) (A) (A) (A) (A) (A) (A) (A) (A) (A)
                 (A) (A) (A) (A) (A) (A) (A) (A) (A) (A) (A) (A)
                 (A) (A) (A) (A) (A) (A) (A) (A) (A) (A) (A) (A)
                 (A) (A) (A) (A) (A) (A) (A) (A) (A) (A) (A) (A)
                 (A) (A) (A) (A) (A) (A) (A) (A) (A) (A) (A) (A)
                 (A) (A) (A) (A) (A) (A) (A) (A) (A) (A) (A) (A)
                 (A) (A) (A) (A) (A) (A) (A) (A) (A) (A) (A) (A)
                 (A) (A) (A) (A) (A) (A) (A) (A) (A) (A) (A) (A)
                 (A) (A) (A) (A) (A) (A) (A) (A) (A) (A) (A) (A)
                 (A) (A) (A) (A) (A) (A) (A) (A) (A) (A) (A) (A)
                 (A) (A) (A) (A) (A) (A) (A) (A) (A) (A) (A) (A)
                 (A) (A) (A) (A) (A) (A) (A) (A) (A) (A) (A) (A)
                 (A) (A) (A) (A) (A) (A) (A) (A) (A) (A) (A) (A)
                 (A) (A) (A) (A) (A) (A) (A) (A) (A) (A) (A) (A)
                 (A) (A) (A) (A) (A) (A) (A) (A) (A) (A) (A) (A)
                 (A) (A) (A) (A) (A) (A) (A) (A) (A) (A) (A) (A)
                 (A) (A) (A) (A) (A) (A) (A) (A) (A) (A) (A) (A)
                 (A) (A) (A) (A) (A) (A) (A) (A) (A) (A) (A) (A)
                 (A) (A) (A) (A) (A) (A) (A) (A) (A) (A) (A) (A)
                 (A) (A) (A) (A) (A) (A) (A) (A) (A) (A) (A) (A)
                 (A) (A) (A) (A) (A) (A) (A) (A) (A) (A) (A) (A)
                 (A) (A) (A) (A) (A) (A) (A) (A) (A) (A) (A) (A)
                 (A) (A) (A) (A) (A) (A) (A) (A) (A) (A) (A) (A)
                 (A) (A) (A) (A) (A) (A) (A) (A) (A) (A) (A) (A)
                 (A) (A) (A) (A) (A) (A) (A) (A) (A) (A) (A) (A)
                 (A) (A) (A) (A) (A) (A) (A) (A) (A) (A) (A) (A)
                 (A) (A) (A) (A) (A) (A) (A) (A) (A) (A) (A) (A)
                 (A) (A) (A) (A) (A) (A) (A) (A) (A) (A) (A) (A)
                 (A) (A) (A) (A) (A) (A) (A) (A) (A) (A) (A) (A)
                 (A) (A) (A) (A) (A) (A) (A) (A) (A) (A) (A) (A)
                 (A) (A) (A) (A) (A) (A) (A) (A) (A) (A) (A) (A)
                 (A) (A) (A) (A) (A) (A) (A) (A) (A) (A) (A) (A)
                 (A) (A)
 Beta  Orbitals:
       Occupied  (A) (A) (A) (A) (A) (A) (A) (A) (A) (A) (A) (A)
                 (A) (A) (A) (A) (A) (A) (A) (A) (A) (A) (A) (A)
                 (A) (A) (A) (A) (A) (A) (A) (A) (A) (A) (A) (A)
                 (A) (A) (A) (A) (A) (A) (A) (A) (A) (A) (A) (A)
                 (A) (A) (A) (A) (A) (A) (A) (A) (A) (A) (A) (A)
                 (A) (A) (A) (A) (A) (A) (A) (A) (A) (A) (A) (A)
                 (A) (A) (A) (A) (A) (A) (A) (A) (A) (A) (A) (A)
                 (A) (A) (A) (A) (A) (A) (A) (A) (A) (A) (A) (A)
                 (A) (A) (A) (A) (A) (A) (A) (A) (A) (A) (A) (A)
                 (A) (A) (A) (A) (A) (A) (A) (A) (A) (A) (A) (A)
                 (A) (A) (A) (A) (A) (A) (A) (A) (A) (A) (A) (A)
                 (A) (A) (A) (A) (A) (A) (A) (A) (A) (A) (A) (A)
                 (A) (A) (A) (A) (A) (A) (A) (A) (A) (A) (A) (A)
                 (A) (A) (A) (A) (A) (A) (A) (A) (A) (A) (A) (A)
                 (A) (A)
       Virtual   (A) (A) (A) (A) (A) (A) (A) (A) (A) (A) (A) (A)
                 (A) (A) (A) (A) (A) (A) (A) (A) (A) (A) (A) (A)
                 (A) (A) (A) (A) (A) (A) (A) (A) (A) (A) (A) (A)
                 (A) (A) (A) (A) (A) (A) (A) (A) (A) (A) (A) (A)
                 (A) (A) (A) (A) (A) (A) (A) (A) (A) (A) (A) (A)
                 (A) (A) (A) (A) (A) (A) (A) (A) (A) (A) (A) (A)
                 (A) (A) (A) (A) (A) (A) (A) (A) (A) (A) (A) (A)
                 (A) (A) (A) (A) (A) (A) (A) (A) (A) (A) (A) (A)
                 (A) (A) (A) (A) (A) (A) (A) (A) (A) (A) (A) (A)
                 (A) (A) (A) (A) (A) (A) (A) (A) (A) (A) (A) (A)
                 (A) (A) (A) (A) (A) (A) (A) (A) (A) (A) (A) (A)
                 (A) (A) (A) (A) (A) (A) (A) (A) (A) (A) (A) (A)
                 (A) (A) (A) (A) (A) (A) (A) (A) (A) (A) (A) (A)
                 (A) (A) (A) (A) (A) (A) (A) (A) (A) (A) (A) (A)
                 (A) (A) (A) (A) (A) (A) (A) (A) (A) (A) (A) (A)
                 (A) (A) (A) (A) (A) (A) (A) (A) (A) (A) (A) (A)
                 (A) (A) (A) (A) (A) (A) (A) (A) (A) (A) (A) (A)
                 (A) (A) (A) (A) (A) (A) (A) (A) (A) (A) (A) (A)
                 (A) (A) (A) (A) (A) (A) (A) (A) (A) (A) (A) (A)
                 (A) (A) (A) (A) (A) (A) (A) (A) (A) (A) (A) (A)
                 (A) (A) (A) (A) (A) (A) (A) (A) (A) (A) (A) (A)
                 (A) (A) (A) (A) (A) (A) (A) (A) (A) (A) (A) (A)
                 (A) (A) (A) (A) (A) (A) (A) (A) (A) (A) (A) (A)
                 (A) (A) (A) (A) (A) (A) (A) (A) (A) (A) (A) (A)
                 (A) (A) (A) (A) (A) (A) (A) (A) (A) (A) (A) (A)
                 (A) (A) (A) (A) (A) (A) (A) (A) (A) (A) (A) (A)
                 (A) (A) (A) (A) (A) (A) (A) (A) (A) (A) (A) (A)
                 (A) (A) (A) (A) (A) (A) (A) (A) (A) (A) (A) (A)
                 (A) (A) (A) (A) (A) (A) (A) (A) (A) (A) (A) (A)
                 (A) (A) (A) (A) (A) (A) (A) (A) (A) (A) (A) (A)
                 (A) (A) (A) (A) (A) (A) (A) (A) (A) (A) (A) (A)
                 (A) (A) (A) (A) (A) (A) (A) (A) (A) (A) (A) (A)
                 (A) (A) (A) (A) (A) (A) (A) (A) (A) (A) (A) (A)
                 (A) (A) (A) (A) (A) (A) (A) (A) (A) (A) (A) (A)
                 (A) (A) (A) (A) (A) (A) (A) (A) (A) (A) (A) (A)
                 (A) (A) (A) (A) (A) (A) (A) (A) (A) (A) (A) (A)
                 (A) (A) (A) (A) (A) (A) (A) (A) (A) (A) (A) (A)
                 (A) (A) (A) (A) (A) (A) (A) (A) (A) (A) (A) (A)
                 (A) (A) (A) (A) (A) (A) (A) (A) (A) (A) (A) (A)
                 (A) (A) (A) (A) (A) (A) (A) (A) (A) (A) (A) (A)
                 (A) (A) (A) (A) (A) (A) (A) (A) (A) (A) (A) (A)
                 (A) (A) (A) (A) (A) (A) (A) (A) (A) (A) (A) (A)
                 (A) (A) (A) (A) (A) (A) (A) (A) (A) (A) (A) (A)
                 (A) (A) (A) (A) (A) (A) (A) (A) (A) (A) (A) (A)
                 (A) (A) (A) (A) (A) (A) (A) (A) (A) (A) (A) (A)
                 (A) (A) (A) (A) (A) (A) (A) (A) (A) (A) (A) (A)
                 (A) (A) (A) (A) (A) (A) (A) (A) (A) (A) (A) (A)
                 (A) (A) (A) (A) (A) (A) (A) (A) (A) (A) (A) (A)
                 (A) (A) (A) (A) (A) (A) (A) (A) (A) (A) (A) (A)
                 (A) (A) (A) (A) (A) (A) (A) (A) (A) (A) (A) (A)
                 (A) (A) (A) (A) (A) (A) (A) (A) (A) (A) (A) (A)
                 (A) (A) (A) (A) (A) (A) (A) (A) (A) (A) (A) (A)
                 (A) (A) (A) (A) (A) (A) (A) (A) (A) (A) (A) (A)
                 (A) (A) (A) (A) (A) (A) (A) (A) (A) (A) (A) (A)
                 (A) (A) (A) (A) (A) (A) (A) (A) (A) (A) (A) (A)
                 (A) (A) (A) (A) (A) (A) (A) (A) (A) (A) (A) (A)
                 (A) (A) (A) (A) (A) (A) (A) (A) (A) (A) (A) (A)
                 (A) (A) (A) (A) (A) (A) (A) (A) (A) (A) (A) (A)
                 (A) (A) (A) (A) (A) (A) (A) (A) (A) (A) (A) (A)
                 (A) (A) (A) (A) (A) (A) (A) (A) (A) (A) (A) (A)
                 (A) (A) (A) (A) (A) (A) (A) (A) (A) (A) (A) (A)
                 (A) (A) (A) (A) (A) (A) (A) (A) (A) (A) (A) (A)
                 (A) (A) (A) (A) (A) (A) (A) (A) (A) (A) (A) (A)
                 (A) (A) (A) (A) (A) (A) (A) (A) (A) (A) (A) (A)
                 (A) (A) (A) (A) (A) (A) (A) (A) (A) (A) (A) (A)
                 (A) (A) (A) (A) (A) (A) (A) (A) (A) (A) (A) (A)
                 (A) (A) (A) (A) (A) (A) (A) (A) (A) (A) (A) (A)
                 (A) (A) (A) (A) (A) (A) (A) (A) (A) (A) (A) (A)
                 (A) (A) (A) (A) (A) (A) (A) (A) (A) (A) (A) (A)
                 (A) (A) (A) (A) (A) (A) (A) (A) (A) (A) (A) (A)
                 (A) (A) (A) (A) (A) (A) (A) (A) (A) (A) (A) (A)
                 (A) (A) (A) (A) (A) (A) (A) (A) (A) (A) (A) (A)
                 (A) (A) (A) (A) (A) (A) (A) (A) (A) (A) (A) (A)
                 (A) (A) (A) (A) (A) (A) (A) (A) (A) (A) (A) (A)
                 (A) (A) (A) (A) (A) (A) (A) (A) (A) (A) (A) (A)
                 (A) (A) (A) (A) (A) (A) (A) (A) (A) (A) (A) (A)
                 (A) (A) (A) (A) (A) (A) (A) (A) (A) (A) (A) (A)
                 (A) (A) (A) (A) (A) (A) (A) (A) (A) (A) (A) (A)
                 (A) (A) (A) (A) (A) (A) (A) (A) (A) (A) (A) (A)
                 (A) (A) (A) (A) (A) (A) (A) (A) (A) (A) (A) (A)
                 (A) (A) (A) (A) (A) (A) (A) (A) (A) (A) (A) (A)
                 (A) (A) (A) (A) (A) (A) (A) (A) (A) (A) (A) (A)
                 (A) (A) (A) (A) (A) (A) (A) (A) (A) (A) (A) (A)
                 (A) (A) (A) (A) (A) (A) (A) (A) (A) (A) (A) (A)
                 (A) (A) (A) (A) (A) (A) (A) (A) (A) (A) (A) (A)
                 (A) (A) (A) (A) (A) (A) (A) (A) (A) (A) (A) (A)
                 (A) (A) (A) (A) (A) (A) (A) (A) (A) (A) (A) (A)
                 (A) (A) (A) (A) (A) (A) (A) (A) (A) (A) (A) (A)
                 (A) (A) (A) (A) (A) (A) (A) (A) (A) (A) (A) (A)
                 (A) (A) (A) (A) (A) (A) (A) (A) (A) (A) (A) (A)
                 (A) (A) (A) (A) (A) (A) (A) (A) (A) (A) (A) (A)
                 (A) (A) (A) (A) (A) (A) (A) (A) (A) (A) (A) (A)
                 (A) (A) (A) (A) (A) (A) (A) (A) (A) (A) (A) (A)
                 (A) (A) (A) (A) (A) (A) (A) (A) (A) (A) (A) (A)
                 (A) (A) (A) (A) (A) (A) (A) (A) (A) (A) (A) (A)
                 (A) (A) (A) (A) (A) (A) (A) (A) (A) (A) (A) (A)
                 (A) (A) (A) (A) (A) (A) (A) (A) (A) (A) (A) (A)
                 (A) (A) (A) (A) (A) (A) (A) (A) (A) (A) (A) (A)
                 (A) (A) (A) (A) (A) (A) (A) (A) (A) (A) (A) (A)
                 (A) (A) (A) (A) (A) (A) (A) (A) (A) (A) (A) (A)
                 (A) (A) (A) (A) (A) (A) (A) (A) (A) (A) (A) (A)
                 (A) (A) (A) (A) (A) (A) (A) (A) (A) (A) (A) (A)
                 (A) (A) (A) (A) (A) (A) (A) (A) (A) (A) (A) (A)
                 (A) (A) (A) (A) (A) (A) (A) (A) (A) (A) (A) (A)
                 (A) (A) (A) (A) (A) (A) (A) (A) (A) (A) (A) (A)
                 (A) (A) (A) (A) (A) (A) (A) (A) (A) (A) (A) (A)
                 (A) (A) (A) (A) (A) (A) (A) (A) (A) (A) (A) (A)
                 (A) (A) (A) (A) (A) (A) (A) (A) (A) (A) (A) (A)
                 (A) (A) (A) (A) (A) (A) (A) (A) (A) (A) (A) (A)
                 (A) (A) (A) (A) (A) (A) (A) (A) (A) (A) (A) (A)
                 (A) (A) (A) (A) (A) (A) (A) (A) (A) (A) (A) (A)
                 (A) (A) (A) (A) (A) (A) (A) (A) (A) (A) (A) (A)
                 (A) (A) (A) (A) (A) (A) (A) (A) (A) (A) (A) (A)
                 (A) (A) (A) (A) (A) (A) (A) (A) (A) (A) (A) (A)
                 (A) (A) (A) (A) (A) (A) (A) (A) (A) (A) (A) (A)
                 (A) (A) (A) (A) (A) (A) (A) (A) (A) (A) (A) (A)
                 (A) (A) (A) (A) (A) (A) (A) (A) (A) (A) (A) (A)
                 (A) (A) (A) (A) (A) (A) (A) (A) (A) (A) (A) (A)
                 (A) (A) (A) (A) (A) (A) (A) (A) (A) (A) (A) (A)
                 (A) (A) (A) (A) (A) (A) (A) (A) (A) (A) (A) (A)
                 (A) (A) (A) (A) (A) (A) (A) (A) (A) (A) (A) (A)
                 (A) (A) (A)
 The electronic state is 2-A.
 Alpha  occ. eigenvalues -- -256.36774 -30.13299 -25.96144 -25.95891 -25.95638
 Alpha  occ. eigenvalues --  -19.26371 -19.26185 -19.25950 -19.23774 -19.19106
 Alpha  occ. eigenvalues --  -19.18570 -14.42018 -14.41837 -14.40150 -14.39762
 Alpha  occ. eigenvalues --  -10.36041 -10.35626 -10.34609 -10.30920 -10.30119
 Alpha  occ. eigenvalues --  -10.29495 -10.28867 -10.28818 -10.28658 -10.28617
 Alpha  occ. eigenvalues --  -10.27868 -10.27739 -10.27597 -10.27340 -10.27324
 Alpha  occ. eigenvalues --  -10.26250 -10.26178 -10.26021 -10.25460 -10.25451
 Alpha  occ. eigenvalues --  -10.25264 -10.24975 -10.24772 -10.24754 -10.24699
 Alpha  occ. eigenvalues --  -10.24555 -10.24284 -10.24122 -10.23867 -10.23750
 Alpha  occ. eigenvalues --  -10.23685 -10.23072 -10.22589 -10.21837  -3.48883
 Alpha  occ. eigenvalues --   -2.25380  -2.24531  -2.23731  -1.19108  -1.18565
 Alpha  occ. eigenvalues --   -1.09799  -1.08998  -1.04893  -1.04879  -1.04494
 Alpha  occ. eigenvalues --   -1.04156  -1.03667  -1.02319  -0.91237  -0.88646
 Alpha  occ. eigenvalues --   -0.87817  -0.86709  -0.86055  -0.85179  -0.84967
 Alpha  occ. eigenvalues --   -0.84146  -0.82381  -0.81691  -0.80778  -0.78963
 Alpha  occ. eigenvalues --   -0.78610  -0.77399  -0.75991  -0.74748  -0.73528
 Alpha  occ. eigenvalues --   -0.71782  -0.71058  -0.70607  -0.70033  -0.69188
 Alpha  occ. eigenvalues --   -0.67730  -0.67575  -0.66440  -0.63118  -0.62591
 Alpha  occ. eigenvalues --   -0.62260  -0.61294  -0.60190  -0.59475  -0.59283
 Alpha  occ. eigenvalues --   -0.58295  -0.56940  -0.56725  -0.55772  -0.54224
 Alpha  occ. eigenvalues --   -0.54160  -0.53441  -0.53284  -0.52812  -0.52635
 Alpha  occ. eigenvalues --   -0.52157  -0.51936  -0.51253  -0.51040  -0.50923
 Alpha  occ. eigenvalues --   -0.50057  -0.49142  -0.48742  -0.48369  -0.48145
 Alpha  occ. eigenvalues --   -0.48010  -0.47742  -0.47504  -0.47244  -0.46515
 Alpha  occ. eigenvalues --   -0.46247  -0.45992  -0.45378  -0.45062  -0.44815
 Alpha  occ. eigenvalues --   -0.44648  -0.44321  -0.44113  -0.43714  -0.43577
 Alpha  occ. eigenvalues --   -0.43254  -0.42885  -0.42436  -0.42212  -0.41773
 Alpha  occ. eigenvalues --   -0.41236  -0.41061  -0.40933  -0.40701  -0.40424
 Alpha  occ. eigenvalues --   -0.40049  -0.39613  -0.39380  -0.39158  -0.38968
 Alpha  occ. eigenvalues --   -0.38725  -0.38419  -0.36631  -0.36495  -0.36256
 Alpha  occ. eigenvalues --   -0.35248  -0.35178  -0.34383  -0.34202  -0.33800
 Alpha  occ. eigenvalues --   -0.33320  -0.32771  -0.32476  -0.31238  -0.30822
 Alpha  occ. eigenvalues --   -0.29871  -0.28973  -0.28369  -0.28278  -0.27438
 Alpha  occ. eigenvalues --   -0.26896  -0.25580  -0.25057  -0.24843  -0.22747
 Alpha  occ. eigenvalues --   -0.22294
 Alpha virt. eigenvalues --   -0.14189  -0.12159  -0.09502  -0.07879  -0.03457
 Alpha virt. eigenvalues --   -0.03286  -0.02450  -0.01597  -0.01457  -0.00958
 Alpha virt. eigenvalues --    0.00680   0.01909   0.02634   0.02930   0.03216
 Alpha virt. eigenvalues --    0.03419   0.03926   0.04330   0.04714   0.05223
 Alpha virt. eigenvalues --    0.05454   0.05499   0.05797   0.06411   0.06595
 Alpha virt. eigenvalues --    0.07009   0.07106   0.07445   0.07781   0.08311
 Alpha virt. eigenvalues --    0.08739   0.09256   0.09571   0.09876   0.10057
 Alpha virt. eigenvalues --    0.10505   0.10854   0.11044   0.11422   0.11557
 Alpha virt. eigenvalues --    0.11948   0.12083   0.12503   0.12875   0.13135
 Alpha virt. eigenvalues --    0.13452   0.13577   0.13756   0.13950   0.14209
 Alpha virt. eigenvalues --    0.14512   0.14564   0.15032   0.15242   0.15368
 Alpha virt. eigenvalues --    0.15731   0.16015   0.16289   0.16648   0.16748
 Alpha virt. eigenvalues --    0.16903   0.17041   0.17500   0.17763   0.18011
 Alpha virt. eigenvalues --    0.18206   0.18482   0.18775   0.19026   0.19183
 Alpha virt. eigenvalues --    0.19446   0.19528   0.19594   0.19934   0.20059
 Alpha virt. eigenvalues --    0.20251   0.20538   0.20559   0.20823   0.21177
 Alpha virt. eigenvalues --    0.21374   0.21596   0.21816   0.22116   0.22265
 Alpha virt. eigenvalues --    0.22583   0.23134   0.23269   0.23500   0.23889
 Alpha virt. eigenvalues --    0.24044   0.24311   0.24500   0.24628   0.24861
 Alpha virt. eigenvalues --    0.25171   0.25324   0.25607   0.25801   0.25947
 Alpha virt. eigenvalues --    0.26275   0.26644   0.26806   0.27081   0.27128
 Alpha virt. eigenvalues --    0.27373   0.27805   0.28074   0.28130   0.28530
 Alpha virt. eigenvalues --    0.28596   0.29099   0.29131   0.29283   0.29463
 Alpha virt. eigenvalues --    0.29881   0.30154   0.30483   0.30699   0.30911
 Alpha virt. eigenvalues --    0.31074   0.31963   0.32194   0.32722   0.32850
 Alpha virt. eigenvalues --    0.33099   0.33398   0.33623   0.33791   0.33884
 Alpha virt. eigenvalues --    0.34135   0.34375   0.34571   0.35138   0.35419
 Alpha virt. eigenvalues --    0.35792   0.35858   0.36169   0.36247   0.36539
 Alpha virt. eigenvalues --    0.36804   0.36960   0.37070   0.37162   0.37497
 Alpha virt. eigenvalues --    0.37703   0.37877   0.38163   0.38267   0.38488
 Alpha virt. eigenvalues --    0.38866   0.39209   0.39448   0.39629   0.39841
 Alpha virt. eigenvalues --    0.40344   0.40446   0.40687   0.41009   0.41107
 Alpha virt. eigenvalues --    0.41360   0.41604   0.41743   0.42289   0.42615
 Alpha virt. eigenvalues --    0.42674   0.42872   0.42943   0.43237   0.43431
 Alpha virt. eigenvalues --    0.43673   0.44022   0.44103   0.44316   0.44385
 Alpha virt. eigenvalues --    0.44628   0.44967   0.45352   0.45487   0.45607
 Alpha virt. eigenvalues --    0.45748   0.46092   0.46245   0.46688   0.46899
 Alpha virt. eigenvalues --    0.47150   0.47440   0.47541   0.47722   0.47828
 Alpha virt. eigenvalues --    0.48278   0.48329   0.48530   0.48777   0.49173
 Alpha virt. eigenvalues --    0.49265   0.49479   0.49588   0.49887   0.50032
 Alpha virt. eigenvalues --    0.50190   0.50481   0.50712   0.50990   0.51174
 Alpha virt. eigenvalues --    0.51624   0.51934   0.52119   0.52204   0.52743
 Alpha virt. eigenvalues --    0.53083   0.53157   0.53415   0.53572   0.53947
 Alpha virt. eigenvalues --    0.54182   0.54350   0.54762   0.54975   0.55281
 Alpha virt. eigenvalues --    0.55519   0.55804   0.56151   0.56720   0.56771
 Alpha virt. eigenvalues --    0.56976   0.57095   0.57130   0.57445   0.57750
 Alpha virt. eigenvalues --    0.58052   0.58452   0.58802   0.58853   0.59276
 Alpha virt. eigenvalues --    0.59411   0.59571   0.59868   0.60085   0.60291
 Alpha virt. eigenvalues --    0.60736   0.60882   0.61257   0.61591   0.61862
 Alpha virt. eigenvalues --    0.61938   0.62224   0.62584   0.62755   0.63074
 Alpha virt. eigenvalues --    0.63304   0.63695   0.64041   0.64419   0.64489
 Alpha virt. eigenvalues --    0.64710   0.64892   0.65253   0.65638   0.65761
 Alpha virt. eigenvalues --    0.66008   0.66332   0.66453   0.67115   0.67279
 Alpha virt. eigenvalues --    0.67464   0.67692   0.68060   0.68514   0.68627
 Alpha virt. eigenvalues --    0.68928   0.69135   0.69302   0.69614   0.69953
 Alpha virt. eigenvalues --    0.70067   0.70434   0.71195   0.71329   0.71798
 Alpha virt. eigenvalues --    0.72025   0.72186   0.72309   0.72601   0.73430
 Alpha virt. eigenvalues --    0.73461   0.73899   0.73982   0.74394   0.74575
 Alpha virt. eigenvalues --    0.75204   0.75572   0.75795   0.75871   0.76189
 Alpha virt. eigenvalues --    0.76581   0.76901   0.77317   0.77441   0.77977
 Alpha virt. eigenvalues --    0.78437   0.78854   0.79005   0.79423   0.79931
 Alpha virt. eigenvalues --    0.80191   0.80493   0.80829   0.81452   0.81519
 Alpha virt. eigenvalues --    0.81570   0.81860   0.82291   0.82459   0.82872
 Alpha virt. eigenvalues --    0.83107   0.83370   0.83723   0.84135   0.84595
 Alpha virt. eigenvalues --    0.84939   0.85311   0.85720   0.86381   0.86426
 Alpha virt. eigenvalues --    0.86786   0.87216   0.87324   0.87888   0.88396
 Alpha virt. eigenvalues --    0.88642   0.89069   0.89186   0.89666   0.89999
 Alpha virt. eigenvalues --    0.90358   0.90472   0.90950   0.91151   0.91406
 Alpha virt. eigenvalues --    0.91958   0.92071   0.92704   0.93218   0.93459
 Alpha virt. eigenvalues --    0.93747   0.94185   0.94291   0.94577   0.95053
 Alpha virt. eigenvalues --    0.95638   0.95873   0.96347   0.96642   0.96837
 Alpha virt. eigenvalues --    0.97047   0.97458   0.97568   0.98002   0.98507
 Alpha virt. eigenvalues --    0.98946   0.99319   0.99707   0.99953   1.00171
 Alpha virt. eigenvalues --    1.00327   1.00742   1.01363   1.01676   1.02072
 Alpha virt. eigenvalues --    1.02487   1.02640   1.03059   1.03175   1.03485
 Alpha virt. eigenvalues --    1.03770   1.04414   1.04772   1.04985   1.05426
 Alpha virt. eigenvalues --    1.05697   1.05967   1.06451   1.06824   1.07376
 Alpha virt. eigenvalues --    1.07639   1.07740   1.08214   1.08600   1.08680
 Alpha virt. eigenvalues --    1.09105   1.10087   1.10220   1.10862   1.11198
 Alpha virt. eigenvalues --    1.11577   1.11899   1.12662   1.12911   1.13218
 Alpha virt. eigenvalues --    1.13660   1.14265   1.14636   1.14665   1.15432
 Alpha virt. eigenvalues --    1.15639   1.16206   1.16635   1.16912   1.17282
 Alpha virt. eigenvalues --    1.17798   1.18349   1.18688   1.18811   1.19571
 Alpha virt. eigenvalues --    1.19975   1.20302   1.20528   1.21149   1.21553
 Alpha virt. eigenvalues --    1.21893   1.22638   1.23081   1.23375   1.23614
 Alpha virt. eigenvalues --    1.24075   1.24120   1.24602   1.24955   1.25478
 Alpha virt. eigenvalues --    1.25840   1.26955   1.27223   1.27702   1.27918
 Alpha virt. eigenvalues --    1.28396   1.28649   1.28940   1.29355   1.29628
 Alpha virt. eigenvalues --    1.30149   1.30334   1.31214   1.31697   1.32152
 Alpha virt. eigenvalues --    1.32386   1.33069   1.33390   1.33979   1.34334
 Alpha virt. eigenvalues --    1.34704   1.35053   1.35510   1.35902   1.36204
 Alpha virt. eigenvalues --    1.36702   1.37589   1.37849   1.38403   1.38826
 Alpha virt. eigenvalues --    1.39453   1.39940   1.40540   1.40934   1.41167
 Alpha virt. eigenvalues --    1.41769   1.42054   1.42376   1.43025   1.43279
 Alpha virt. eigenvalues --    1.43614   1.43992   1.44394   1.44576   1.44712
 Alpha virt. eigenvalues --    1.45092   1.45938   1.45978   1.46645   1.46841
 Alpha virt. eigenvalues --    1.47166   1.47242   1.47599   1.48019   1.48435
 Alpha virt. eigenvalues --    1.49001   1.49068   1.49584   1.49690   1.50556
 Alpha virt. eigenvalues --    1.50876   1.51296   1.51684   1.52340   1.52508
 Alpha virt. eigenvalues --    1.52832   1.53199   1.53479   1.53537   1.54467
 Alpha virt. eigenvalues --    1.54966   1.55089   1.55394   1.55698   1.55887
 Alpha virt. eigenvalues --    1.56008   1.56416   1.56881   1.57363   1.57450
 Alpha virt. eigenvalues --    1.57713   1.57840   1.58115   1.58528   1.58630
 Alpha virt. eigenvalues --    1.58820   1.59119   1.59444   1.59739   1.60083
 Alpha virt. eigenvalues --    1.60292   1.60784   1.60976   1.61449   1.61803
 Alpha virt. eigenvalues --    1.61926   1.62307   1.63133   1.63354   1.63617
 Alpha virt. eigenvalues --    1.63789   1.64110   1.64564   1.64704   1.65372
 Alpha virt. eigenvalues --    1.65829   1.66498   1.66685   1.67176   1.67479
 Alpha virt. eigenvalues --    1.67620   1.68005   1.68502   1.69052   1.69246
 Alpha virt. eigenvalues --    1.69426   1.70171   1.70311   1.70654   1.70900
 Alpha virt. eigenvalues --    1.71313   1.71473   1.71788   1.72248   1.72888
 Alpha virt. eigenvalues --    1.73285   1.73725   1.74159   1.74444   1.75042
 Alpha virt. eigenvalues --    1.75483   1.75704   1.76037   1.76381   1.76848
 Alpha virt. eigenvalues --    1.76960   1.77559   1.77617   1.77941   1.78390
 Alpha virt. eigenvalues --    1.78474   1.79138   1.79623   1.80145   1.80385
 Alpha virt. eigenvalues --    1.80987   1.81261   1.81518   1.82124   1.82902
 Alpha virt. eigenvalues --    1.83462   1.83893   1.84047   1.84658   1.85156
 Alpha virt. eigenvalues --    1.85271   1.85926   1.86357   1.86824   1.87176
 Alpha virt. eigenvalues --    1.87383   1.87996   1.88268   1.88638   1.88824
 Alpha virt. eigenvalues --    1.89157   1.89523   1.89629   1.90569   1.91162
 Alpha virt. eigenvalues --    1.91382   1.91744   1.91852   1.92598   1.93209
 Alpha virt. eigenvalues --    1.93554   1.94222   1.94259   1.94471   1.94606
 Alpha virt. eigenvalues --    1.94921   1.95603   1.95783   1.95989   1.96783
 Alpha virt. eigenvalues --    1.96861   1.97381   1.97988   1.98597   1.98944
 Alpha virt. eigenvalues --    1.98992   1.99337   1.99697   2.00549   2.01134
 Alpha virt. eigenvalues --    2.01585   2.01827   2.02114   2.02583   2.03102
 Alpha virt. eigenvalues --    2.03451   2.03829   2.04529   2.04724   2.04879
 Alpha virt. eigenvalues --    2.05583   2.05966   2.07084   2.07434   2.07830
 Alpha virt. eigenvalues --    2.08185   2.08449   2.09071   2.09478   2.09894
 Alpha virt. eigenvalues --    2.10032   2.10408   2.11179   2.11709   2.11864
 Alpha virt. eigenvalues --    2.12350   2.12534   2.13553   2.13859   2.14234
 Alpha virt. eigenvalues --    2.14351   2.14825   2.15117   2.15333   2.16488
 Alpha virt. eigenvalues --    2.16711   2.17256   2.17364   2.17927   2.18171
 Alpha virt. eigenvalues --    2.18522   2.19117   2.19486   2.19823   2.20104
 Alpha virt. eigenvalues --    2.20365   2.20810   2.21676   2.22032   2.22575
 Alpha virt. eigenvalues --    2.23137   2.23623   2.23920   2.24541   2.25028
 Alpha virt. eigenvalues --    2.25188   2.25896   2.26572   2.26870   2.27128
 Alpha virt. eigenvalues --    2.27706   2.28594   2.28791   2.28957   2.29393
 Alpha virt. eigenvalues --    2.29894   2.30752   2.30903   2.31248   2.32026
 Alpha virt. eigenvalues --    2.32747   2.33235   2.33446   2.33834   2.34008
 Alpha virt. eigenvalues --    2.34742   2.35149   2.35410   2.35818   2.36400
 Alpha virt. eigenvalues --    2.36626   2.36920   2.37387   2.37745   2.38033
 Alpha virt. eigenvalues --    2.38316   2.38716   2.39640   2.40065   2.40211
 Alpha virt. eigenvalues --    2.40344   2.40540   2.41042   2.41784   2.41934
 Alpha virt. eigenvalues --    2.42776   2.43419   2.43901   2.44295   2.44386
 Alpha virt. eigenvalues --    2.45393   2.45826   2.46340   2.46763   2.47659
 Alpha virt. eigenvalues --    2.47922   2.47971   2.48728   2.49434   2.49559
 Alpha virt. eigenvalues --    2.49698   2.50377   2.50497   2.51437   2.51862
 Alpha virt. eigenvalues --    2.51914   2.52462   2.52861   2.52977   2.53981
 Alpha virt. eigenvalues --    2.54322   2.54570   2.54995   2.55061   2.55302
 Alpha virt. eigenvalues --    2.55730   2.55960   2.56528   2.56648   2.57313
 Alpha virt. eigenvalues --    2.57426   2.57787   2.58046   2.58531   2.58786
 Alpha virt. eigenvalues --    2.59074   2.59211   2.59584   2.59978   2.60617
 Alpha virt. eigenvalues --    2.61226   2.61348   2.61639   2.62025   2.62520
 Alpha virt. eigenvalues --    2.62849   2.63026   2.63200   2.63513   2.64476
 Alpha virt. eigenvalues --    2.64961   2.65287   2.65858   2.66271   2.66399
 Alpha virt. eigenvalues --    2.66683   2.67266   2.67491   2.68027   2.68321
 Alpha virt. eigenvalues --    2.68718   2.69368   2.69603   2.70179   2.70448
 Alpha virt. eigenvalues --    2.70742   2.71574   2.71739   2.72480   2.72684
 Alpha virt. eigenvalues --    2.72908   2.73073   2.73587   2.73735   2.73956
 Alpha virt. eigenvalues --    2.74656   2.74913   2.75169   2.75598   2.75991
 Alpha virt. eigenvalues --    2.76380   2.76753   2.77180   2.77666   2.78010
 Alpha virt. eigenvalues --    2.78385   2.79005   2.79147   2.79642   2.79734
 Alpha virt. eigenvalues --    2.80082   2.80775   2.81005   2.81388   2.81725
 Alpha virt. eigenvalues --    2.82140   2.82318   2.82795   2.83161   2.83326
 Alpha virt. eigenvalues --    2.83603   2.84459   2.84847   2.85193   2.85309
 Alpha virt. eigenvalues --    2.85835   2.85994   2.86575   2.87323   2.87575
 Alpha virt. eigenvalues --    2.87909   2.88287   2.88811   2.88955   2.89533
 Alpha virt. eigenvalues --    2.89952   2.89990   2.90404   2.90521   2.90966
 Alpha virt. eigenvalues --    2.91393   2.91831   2.92430   2.92512   2.93343
 Alpha virt. eigenvalues --    2.93426   2.93793   2.94027   2.94385   2.94782
 Alpha virt. eigenvalues --    2.95451   2.95624   2.95933   2.96218   2.96645
 Alpha virt. eigenvalues --    2.96845   2.97220   2.97415   2.98064   2.98162
 Alpha virt. eigenvalues --    2.98817   2.99284   2.99467   2.99780   3.00436
 Alpha virt. eigenvalues --    3.00726   3.01125   3.01645   3.02272   3.02625
 Alpha virt. eigenvalues --    3.02780   3.03154   3.03327   3.03967   3.04133
 Alpha virt. eigenvalues --    3.04689   3.04828   3.05376   3.05900   3.06176
 Alpha virt. eigenvalues --    3.06733   3.06815   3.07406   3.07532   3.07813
 Alpha virt. eigenvalues --    3.08035   3.08794   3.09178   3.09411   3.09697
 Alpha virt. eigenvalues --    3.09860   3.10193   3.10517   3.10909   3.11460
 Alpha virt. eigenvalues --    3.11744   3.11869   3.11982   3.12230   3.12635
 Alpha virt. eigenvalues --    3.13158   3.13302   3.13606   3.14042   3.14629
 Alpha virt. eigenvalues --    3.14770   3.15150   3.15469   3.16183   3.16420
 Alpha virt. eigenvalues --    3.16782   3.16981   3.17207   3.17685   3.17911
 Alpha virt. eigenvalues --    3.18261   3.18809   3.18938   3.19509   3.19817
 Alpha virt. eigenvalues --    3.20270   3.20584   3.21081   3.21338   3.21529
 Alpha virt. eigenvalues --    3.21886   3.22494   3.22641   3.22817   3.23210
 Alpha virt. eigenvalues --    3.23452   3.23646   3.23969   3.24336   3.24530
 Alpha virt. eigenvalues --    3.24952   3.25244   3.25449   3.25888   3.26113
 Alpha virt. eigenvalues --    3.26440   3.26603   3.27043   3.27359   3.27496
 Alpha virt. eigenvalues --    3.27888   3.28031   3.28319   3.28483   3.29276
 Alpha virt. eigenvalues --    3.29463   3.29652   3.29915   3.30225   3.30457
 Alpha virt. eigenvalues --    3.30760   3.31157   3.31342   3.31550   3.31843
 Alpha virt. eigenvalues --    3.32095   3.32501   3.32963   3.33329   3.33344
 Alpha virt. eigenvalues --    3.33716   3.34269   3.34535   3.34755   3.35322
 Alpha virt. eigenvalues --    3.35476   3.35619   3.35904   3.36371   3.36590
 Alpha virt. eigenvalues --    3.36769   3.37102   3.37502   3.37733   3.38262
 Alpha virt. eigenvalues --    3.38392   3.38779   3.39064   3.39674   3.40045
 Alpha virt. eigenvalues --    3.40395   3.40656   3.41131   3.41619   3.41771
 Alpha virt. eigenvalues --    3.42160   3.42733   3.43172   3.43462   3.43561
 Alpha virt. eigenvalues --    3.43967   3.44415   3.45079   3.45112   3.45613
 Alpha virt. eigenvalues --    3.45764   3.46744   3.46895   3.47217   3.47494
 Alpha virt. eigenvalues --    3.47724   3.48097   3.48721   3.49224   3.49702
 Alpha virt. eigenvalues --    3.49987   3.50236   3.50668   3.51267   3.51398
 Alpha virt. eigenvalues --    3.51909   3.52263   3.52543   3.52881   3.53089
 Alpha virt. eigenvalues --    3.53456   3.54117   3.54859   3.55450   3.55691
 Alpha virt. eigenvalues --    3.56058   3.56203   3.56666   3.57110   3.57986
 Alpha virt. eigenvalues --    3.58298   3.58753   3.58841   3.59006   3.59412
 Alpha virt. eigenvalues --    3.60015   3.60103   3.60616   3.61201   3.61404
 Alpha virt. eigenvalues --    3.61941   3.62419   3.63047   3.63254   3.63982
 Alpha virt. eigenvalues --    3.64131   3.64562   3.64832   3.65751   3.65969
 Alpha virt. eigenvalues --    3.66589   3.67057   3.67205   3.67417   3.68188
 Alpha virt. eigenvalues --    3.68862   3.69079   3.69558   3.69899   3.70753
 Alpha virt. eigenvalues --    3.70902   3.71246   3.71520   3.72026   3.72414
 Alpha virt. eigenvalues --    3.72508   3.73410   3.73499   3.74247   3.74608
 Alpha virt. eigenvalues --    3.75110   3.75402   3.76415   3.76499   3.77099
 Alpha virt. eigenvalues --    3.77275   3.78275   3.78598   3.79111   3.79502
 Alpha virt. eigenvalues --    3.79631   3.80400   3.80647   3.81405   3.82108
 Alpha virt. eigenvalues --    3.82639   3.83064   3.83306   3.83487   3.84841
 Alpha virt. eigenvalues --    3.84971   3.85390   3.86139   3.86388   3.87177
 Alpha virt. eigenvalues --    3.87728   3.88692   3.89179   3.89983   3.90676
 Alpha virt. eigenvalues --    3.91310   3.91385   3.92393   3.92440   3.93004
 Alpha virt. eigenvalues --    3.93642   3.93786   3.94479   3.94962   3.96142
 Alpha virt. eigenvalues --    3.96664   3.97548   3.98042   3.98180   3.98932
 Alpha virt. eigenvalues --    3.99554   3.99843   3.99952   4.00539   4.01463
 Alpha virt. eigenvalues --    4.01848   4.02855   4.03271   4.03434   4.03841
 Alpha virt. eigenvalues --    4.04644   4.04969   4.05787   4.06294   4.07107
 Alpha virt. eigenvalues --    4.07505   4.07962   4.08230   4.08662   4.09160
 Alpha virt. eigenvalues --    4.10151   4.10497   4.11059   4.11511   4.12052
 Alpha virt. eigenvalues --    4.12513   4.12681   4.13859   4.14212   4.14945
 Alpha virt. eigenvalues --    4.15353   4.15892   4.16183   4.16249   4.18305
 Alpha virt. eigenvalues --    4.18457   4.18749   4.19433   4.19811   4.20177
 Alpha virt. eigenvalues --    4.20822   4.21477   4.21997   4.22191   4.22925
 Alpha virt. eigenvalues --    4.23915   4.24634   4.24890   4.25101   4.25900
 Alpha virt. eigenvalues --    4.26163   4.26385   4.27069   4.27541   4.27820
 Alpha virt. eigenvalues --    4.28618   4.28903   4.29591   4.29725   4.30841
 Alpha virt. eigenvalues --    4.31250   4.32104   4.33444   4.33690   4.34298
 Alpha virt. eigenvalues --    4.34789   4.35269   4.35931   4.36439   4.36854
 Alpha virt. eigenvalues --    4.37084   4.38929   4.39050   4.39808   4.40330
 Alpha virt. eigenvalues --    4.41264   4.41617   4.42673   4.42901   4.43994
 Alpha virt. eigenvalues --    4.44859   4.45682   4.46637   4.47879   4.48334
 Alpha virt. eigenvalues --    4.49536   4.50131   4.50520   4.51192   4.51737
 Alpha virt. eigenvalues --    4.52060   4.53458   4.54276   4.55170   4.55499
 Alpha virt. eigenvalues --    4.55969   4.56737   4.57858   4.58075   4.58916
 Alpha virt. eigenvalues --    4.60271   4.60446   4.61224   4.61563   4.62654
 Alpha virt. eigenvalues --    4.63331   4.63866   4.64284   4.65310   4.66965
 Alpha virt. eigenvalues --    4.68033   4.68496   4.69065   4.70496   4.71615
 Alpha virt. eigenvalues --    4.72703   4.73038   4.73825   4.74951   4.75816
 Alpha virt. eigenvalues --    4.76357   4.77543   4.77972   4.78634   4.80064
 Alpha virt. eigenvalues --    4.80532   4.81168   4.81841   4.82737   4.84696
 Alpha virt. eigenvalues --    4.84984   4.86137   4.86636   4.88644   4.89025
 Alpha virt. eigenvalues --    4.90395   4.91536   4.91771   4.92646   4.94312
 Alpha virt. eigenvalues --    4.94575   4.94826   4.95999   4.96569   4.97383
 Alpha virt. eigenvalues --    4.97731   4.99794   4.99889   5.00742   5.02231
 Alpha virt. eigenvalues --    5.02404   5.03349   5.04270   5.05673   5.06316
 Alpha virt. eigenvalues --    5.07418   5.08724   5.09368   5.09813   5.11022
 Alpha virt. eigenvalues --    5.11536   5.13137   5.13680   5.14774   5.15887
 Alpha virt. eigenvalues --    5.16219   5.17036   5.17127   5.18783   5.19684
 Alpha virt. eigenvalues --    5.19969   5.20224   5.20850   5.21651   5.22556
 Alpha virt. eigenvalues --    5.22904   5.23609   5.23856   5.24471   5.24507
 Alpha virt. eigenvalues --    5.25813   5.27811   5.28751   5.29571   5.32178
 Alpha virt. eigenvalues --    5.34102   5.36142   5.36298   5.36918   5.37899
 Alpha virt. eigenvalues --    5.38894   5.39848   5.40416   5.41267   5.41932
 Alpha virt. eigenvalues --    5.43856   5.44096   5.45206   5.46213   5.47355
 Alpha virt. eigenvalues --    5.49445   5.50116   5.51792   5.52014   5.53158
 Alpha virt. eigenvalues --    5.53473   5.55758   5.56671   5.57365   5.58234
 Alpha virt. eigenvalues --    5.59361   5.60647   5.61469   5.63338   5.65620
 Alpha virt. eigenvalues --    5.66128   5.66998   5.68490   5.69866   5.70008
 Alpha virt. eigenvalues --    5.71051   5.73726   5.74940   5.76081   5.76278
 Alpha virt. eigenvalues --    5.77917   5.79205   5.82956   5.84863   5.85344
 Alpha virt. eigenvalues --    5.91976   5.93985   5.96540   5.97408   5.98929
 Alpha virt. eigenvalues --    6.00211   6.01132   6.04833   6.05167   6.05884
 Alpha virt. eigenvalues --    6.09316   6.10648   6.11295   6.14851   6.18450
 Alpha virt. eigenvalues --    6.21890   6.22189   6.22805   6.24442   6.33411
 Alpha virt. eigenvalues --    6.33896   6.34368   6.38311   6.39187   6.39472
 Alpha virt. eigenvalues --    6.39858   6.43389   6.43670   6.47060   6.47277
 Alpha virt. eigenvalues --    6.47431   6.47807   6.51448   6.52311   6.52804
 Alpha virt. eigenvalues --    6.53894   6.56598   6.58618   6.60154   6.66630
 Alpha virt. eigenvalues --    6.66670   6.75120   6.79508   6.81860   6.84112
 Alpha virt. eigenvalues --    6.85036   6.95992   6.97295   7.03355   7.04711
 Alpha virt. eigenvalues --    7.05685   7.06514   7.10880   7.15190   7.16352
 Alpha virt. eigenvalues --    7.17364   7.19733   7.21126   7.27708   7.29749
 Alpha virt. eigenvalues --   22.20152  22.30606  22.40481  22.49173  22.51416
 Alpha virt. eigenvalues --   22.56185  22.59722  22.66936  22.68522  22.71403
 Alpha virt. eigenvalues --   22.74218  22.77852  22.91306  22.92308  22.94497
 Alpha virt. eigenvalues --   22.96728  23.03274  23.05381  23.07791  23.15240
 Alpha virt. eigenvalues --   23.33997  23.35095  23.35540  23.42629  23.44817
 Alpha virt. eigenvalues --   23.53052  23.54888  23.60128  23.69944  23.76292
 Alpha virt. eigenvalues --   23.80063  23.90581  23.92034  24.04221  32.90139
 Alpha virt. eigenvalues --   32.93688  33.01719  33.06587  43.94065  43.96314
 Alpha virt. eigenvalues --   43.96631  43.99169  43.99800  44.23133
  Beta  occ. eigenvalues -- -256.36773 -30.13307 -25.96170 -25.95933 -25.95591
  Beta  occ. eigenvalues --  -19.26372 -19.26185 -19.25944 -19.23828 -19.19106
  Beta  occ. eigenvalues --  -19.18570 -14.42122 -14.41980 -14.40144 -14.39721
  Beta  occ. eigenvalues --  -10.36041 -10.35626 -10.34669 -10.30594 -10.29426
  Beta  occ. eigenvalues --  -10.29330 -10.28875 -10.28738 -10.28636 -10.28632
  Beta  occ. eigenvalues --  -10.27894 -10.27674 -10.27582 -10.27353 -10.27341
  Beta  occ. eigenvalues --  -10.26978 -10.26131 -10.25696 -10.25627 -10.25386
  Beta  occ. eigenvalues --  -10.25267 -10.24992 -10.24756 -10.24677 -10.24557
  Beta  occ. eigenvalues --  -10.24272 -10.24122 -10.23869 -10.23751 -10.23683
  Beta  occ. eigenvalues --  -10.23530 -10.23072 -10.22589 -10.21936  -3.48896
  Beta  occ. eigenvalues --   -2.25799  -2.24156  -2.23721  -1.19108  -1.18565
  Beta  occ. eigenvalues --   -1.09792  -1.09126  -1.05010  -1.04879  -1.04494
  Beta  occ. eigenvalues --   -1.04261  -1.03670  -1.02289  -0.90291  -0.89102
  Beta  occ. eigenvalues --   -0.87826  -0.86702  -0.86058  -0.85221  -0.84977
  Beta  occ. eigenvalues --   -0.83274  -0.82323  -0.81729  -0.80790  -0.78947
  Beta  occ. eigenvalues --   -0.78262  -0.77028  -0.75832  -0.74736  -0.73454
  Beta  occ. eigenvalues --   -0.71778  -0.70701  -0.70574  -0.69990  -0.68774
  Beta  occ. eigenvalues --   -0.67665  -0.67566  -0.65927  -0.63071  -0.62662
  Beta  occ. eigenvalues --   -0.62267  -0.61303  -0.59988  -0.59424  -0.59200
  Beta  occ. eigenvalues --   -0.58105  -0.56923  -0.56724  -0.55770  -0.54225
  Beta  occ. eigenvalues --   -0.54035  -0.53440  -0.53289  -0.53012  -0.52781
  Beta  occ. eigenvalues --   -0.52159  -0.51316  -0.51074  -0.51039  -0.50856
  Beta  occ. eigenvalues --   -0.50232  -0.49253  -0.48662  -0.48350  -0.48201
  Beta  occ. eigenvalues --   -0.48024  -0.47700  -0.47515  -0.47207  -0.46466
  Beta  occ. eigenvalues --   -0.46287  -0.46049  -0.45481  -0.45049  -0.44798
  Beta  occ. eigenvalues --   -0.44437  -0.44118  -0.43936  -0.43578  -0.43385
  Beta  occ. eigenvalues --   -0.42976  -0.42677  -0.42483  -0.42112  -0.41756
  Beta  occ. eigenvalues --   -0.41187  -0.41050  -0.40900  -0.40525  -0.40373
  Beta  occ. eigenvalues --   -0.39826  -0.39540  -0.39312  -0.39142  -0.38874
  Beta  occ. eigenvalues --   -0.38711  -0.38363  -0.36632  -0.36434  -0.36263
  Beta  occ. eigenvalues --   -0.35256  -0.35203  -0.34363  -0.34198  -0.33787
  Beta  occ. eigenvalues --   -0.33124  -0.32692  -0.31912  -0.31053  -0.29822
  Beta  occ. eigenvalues --   -0.28977  -0.28235  -0.27519  -0.26896  -0.26807
  Beta  occ. eigenvalues --   -0.26057  -0.24887  -0.23637  -0.22712  -0.20806
  Beta virt. eigenvalues --   -0.16190  -0.12698  -0.11471  -0.09124  -0.07946
  Beta virt. eigenvalues --   -0.03932  -0.03329  -0.02427  -0.01591  -0.01501
  Beta virt. eigenvalues --   -0.00946   0.00742   0.01911   0.02598   0.03091
  Beta virt. eigenvalues --    0.03218   0.03442   0.03929   0.04409   0.04691
  Beta virt. eigenvalues --    0.05185   0.05361   0.05635   0.06169   0.06447
  Beta virt. eigenvalues --    0.06766   0.07092   0.07120   0.07485   0.07742
  Beta virt. eigenvalues --    0.08374   0.08772   0.09355   0.09604   0.09887
  Beta virt. eigenvalues --    0.10066   0.10445   0.10800   0.11009   0.11481
  Beta virt. eigenvalues --    0.11610   0.11956   0.12101   0.12505   0.12880
  Beta virt. eigenvalues --    0.13242   0.13559   0.13579   0.13780   0.14072
  Beta virt. eigenvalues --    0.14313   0.14548   0.14605   0.15145   0.15251
  Beta virt. eigenvalues --    0.15476   0.15790   0.16053   0.16474   0.16659
  Beta virt. eigenvalues --    0.16794   0.17032   0.17602   0.17697   0.17793
  Beta virt. eigenvalues --    0.18172   0.18497   0.18658   0.18832   0.19148
  Beta virt. eigenvalues --    0.19231   0.19519   0.19585   0.19728   0.20140
  Beta virt. eigenvalues --    0.20159   0.20466   0.20736   0.20808   0.20987
  Beta virt. eigenvalues --    0.21305   0.21350   0.21731   0.22059   0.22319
  Beta virt. eigenvalues --    0.22540   0.22657   0.23091   0.23301   0.23533
  Beta virt. eigenvalues --    0.23950   0.24276   0.24446   0.24605   0.24669
  Beta virt. eigenvalues --    0.24966   0.25197   0.25358   0.25774   0.25893
  Beta virt. eigenvalues --    0.26063   0.26457   0.26702   0.26988   0.27111
  Beta virt. eigenvalues --    0.27468   0.27749   0.27897   0.28105   0.28260
  Beta virt. eigenvalues --    0.28662   0.28700   0.29173   0.29208   0.29310
  Beta virt. eigenvalues --    0.29557   0.29929   0.30172   0.30551   0.30785
  Beta virt. eigenvalues --    0.30976   0.31215   0.32137   0.32327   0.32708
  Beta virt. eigenvalues --    0.32880   0.33143   0.33452   0.33663   0.33819
  Beta virt. eigenvalues --    0.33966   0.34098   0.34481   0.34695   0.35184
  Beta virt. eigenvalues --    0.35413   0.35858   0.36017   0.36168   0.36437
  Beta virt. eigenvalues --    0.36565   0.36875   0.37043   0.37122   0.37401
  Beta virt. eigenvalues --    0.37553   0.37752   0.37896   0.38074   0.38458
  Beta virt. eigenvalues --    0.38518   0.39102   0.39234   0.39570   0.39702
  Beta virt. eigenvalues --    0.40054   0.40450   0.40491   0.40753   0.41021
  Beta virt. eigenvalues --    0.41132   0.41387   0.41708   0.41794   0.42312
  Beta virt. eigenvalues --    0.42707   0.42871   0.42984   0.43138   0.43453
  Beta virt. eigenvalues --    0.43645   0.43725   0.44082   0.44136   0.44413
  Beta virt. eigenvalues --    0.44561   0.44714   0.45180   0.45505   0.45594
  Beta virt. eigenvalues --    0.45723   0.45807   0.46170   0.46387   0.46806
  Beta virt. eigenvalues --    0.47050   0.47279   0.47457   0.47654   0.47805
  Beta virt. eigenvalues --    0.47843   0.48338   0.48378   0.48636   0.48847
  Beta virt. eigenvalues --    0.49186   0.49296   0.49549   0.49646   0.49961
  Beta virt. eigenvalues --    0.50187   0.50301   0.50694   0.50742   0.51036
  Beta virt. eigenvalues --    0.51401   0.51758   0.52000   0.52164   0.52208
  Beta virt. eigenvalues --    0.52770   0.53154   0.53199   0.53514   0.53664
  Beta virt. eigenvalues --    0.53949   0.54288   0.54494   0.54829   0.55010
  Beta virt. eigenvalues --    0.55249   0.55534   0.55999   0.56217   0.56705
  Beta virt. eigenvalues --    0.56786   0.57057   0.57103   0.57431   0.57587
  Beta virt. eigenvalues --    0.57851   0.58125   0.58623   0.58905   0.59010
  Beta virt. eigenvalues --    0.59352   0.59518   0.59632   0.60076   0.60157
  Beta virt. eigenvalues --    0.60357   0.60863   0.60895   0.61316   0.61670
  Beta virt. eigenvalues --    0.61856   0.61979   0.62239   0.62596   0.62896
  Beta virt. eigenvalues --    0.63108   0.63360   0.63723   0.64090   0.64431
  Beta virt. eigenvalues --    0.64504   0.64734   0.64884   0.65263   0.65694
  Beta virt. eigenvalues --    0.65768   0.66124   0.66388   0.66467   0.67171
  Beta virt. eigenvalues --    0.67363   0.67541   0.67741   0.68060   0.68586
  Beta virt. eigenvalues --    0.68647   0.69045   0.69183   0.69419   0.69720
  Beta virt. eigenvalues --    0.70038   0.70306   0.70473   0.71257   0.71365
  Beta virt. eigenvalues --    0.71810   0.72012   0.72193   0.72324   0.72617
  Beta virt. eigenvalues --    0.73507   0.73556   0.73886   0.74024   0.74403
  Beta virt. eigenvalues --    0.74744   0.75223   0.75608   0.75823   0.75949
  Beta virt. eigenvalues --    0.76201   0.76608   0.76923   0.77424   0.77615
  Beta virt. eigenvalues --    0.78013   0.78468   0.78850   0.79071   0.79565
  Beta virt. eigenvalues --    0.79987   0.80282   0.80522   0.80921   0.81488
  Beta virt. eigenvalues --    0.81707   0.81716   0.81993   0.82374   0.82533
  Beta virt. eigenvalues --    0.83025   0.83221   0.83424   0.83904   0.84194
  Beta virt. eigenvalues --    0.84788   0.85055   0.85330   0.85736   0.86452
  Beta virt. eigenvalues --    0.86517   0.86833   0.87262   0.87575   0.88088
  Beta virt. eigenvalues --    0.88411   0.89001   0.89100   0.89707   0.89848
  Beta virt. eigenvalues --    0.90283   0.90389   0.90601   0.90969   0.91197
  Beta virt. eigenvalues --    0.91429   0.92015   0.92242   0.92761   0.93340
  Beta virt. eigenvalues --    0.93501   0.93941   0.94252   0.94418   0.94754
  Beta virt. eigenvalues --    0.95135   0.95675   0.96011   0.96584   0.96749
  Beta virt. eigenvalues --    0.96913   0.97220   0.97595   0.97655   0.98136
  Beta virt. eigenvalues --    0.98661   0.99231   0.99440   0.99731   1.00103
  Beta virt. eigenvalues --    1.00336   1.00496   1.00865   1.01413   1.01906
  Beta virt. eigenvalues --    1.02168   1.02600   1.02704   1.03321   1.03382
  Beta virt. eigenvalues --    1.03662   1.03837   1.04635   1.05138   1.05280
  Beta virt. eigenvalues --    1.05546   1.05898   1.06130   1.06630   1.07127
  Beta virt. eigenvalues --    1.07411   1.07758   1.07958   1.08466   1.08810
  Beta virt. eigenvalues --    1.08826   1.09198   1.10244   1.10384   1.11109
  Beta virt. eigenvalues --    1.11351   1.11584   1.11870   1.12704   1.13027
  Beta virt. eigenvalues --    1.13353   1.13735   1.14277   1.14675   1.14893
  Beta virt. eigenvalues --    1.15502   1.15791   1.16188   1.16781   1.16878
  Beta virt. eigenvalues --    1.17388   1.17857   1.18494   1.18694   1.19073
  Beta virt. eigenvalues --    1.19746   1.19989   1.20513   1.20720   1.21230
  Beta virt. eigenvalues --    1.21520   1.21829   1.22583   1.23164   1.23493
  Beta virt. eigenvalues --    1.23636   1.24155   1.24217   1.24646   1.25049
  Beta virt. eigenvalues --    1.25479   1.25933   1.26802   1.27297   1.27629
  Beta virt. eigenvalues --    1.27866   1.28362   1.28699   1.29125   1.29366
  Beta virt. eigenvalues --    1.29833   1.30117   1.30345   1.31260   1.31748
  Beta virt. eigenvalues --    1.32299   1.32492   1.33062   1.33463   1.34052
  Beta virt. eigenvalues --    1.34373   1.34687   1.35042   1.35552   1.35948
  Beta virt. eigenvalues --    1.36253   1.36792   1.37623   1.38037   1.38780
  Beta virt. eigenvalues --    1.39007   1.39512   1.40258   1.40550   1.40878
  Beta virt. eigenvalues --    1.41423   1.41717   1.42193   1.42568   1.43108
  Beta virt. eigenvalues --    1.43348   1.43697   1.44018   1.44321   1.44457
  Beta virt. eigenvalues --    1.44811   1.45144   1.45977   1.46053   1.46719
  Beta virt. eigenvalues --    1.46968   1.47210   1.47316   1.47591   1.48159
  Beta virt. eigenvalues --    1.48320   1.48896   1.48975   1.49591   1.49913
  Beta virt. eigenvalues --    1.50960   1.51138   1.51552   1.51891   1.52390
  Beta virt. eigenvalues --    1.52564   1.53072   1.53273   1.53521   1.53804
  Beta virt. eigenvalues --    1.54619   1.54973   1.55435   1.55505   1.55708
  Beta virt. eigenvalues --    1.56120   1.56328   1.56529   1.57219   1.57591
  Beta virt. eigenvalues --    1.57622   1.57916   1.58165   1.58560   1.58580
  Beta virt. eigenvalues --    1.58869   1.59194   1.59457   1.59664   1.59895
  Beta virt. eigenvalues --    1.60210   1.60474   1.60838   1.61151   1.61769
  Beta virt. eigenvalues --    1.61826   1.62037   1.63092   1.63206   1.63396
  Beta virt. eigenvalues --    1.63856   1.64240   1.64317   1.64789   1.64998
  Beta virt. eigenvalues --    1.65491   1.65873   1.66525   1.66794   1.67183
  Beta virt. eigenvalues --    1.67324   1.67794   1.68065   1.68443   1.69077
  Beta virt. eigenvalues --    1.69284   1.69599   1.70199   1.70272   1.70722
  Beta virt. eigenvalues --    1.70957   1.71387   1.71502   1.71851   1.72311
  Beta virt. eigenvalues --    1.72824   1.73398   1.73763   1.74135   1.74620
  Beta virt. eigenvalues --    1.75195   1.75615   1.75817   1.76219   1.76409
  Beta virt. eigenvalues --    1.76909   1.76977   1.77619   1.77827   1.78100
  Beta virt. eigenvalues --    1.78516   1.78532   1.79295   1.79791   1.80179
  Beta virt. eigenvalues --    1.80421   1.81072   1.81322   1.81580   1.82147
  Beta virt. eigenvalues --    1.82965   1.83516   1.83984   1.84079   1.84712
  Beta virt. eigenvalues --    1.85213   1.85426   1.85987   1.86398   1.86836
  Beta virt. eigenvalues --    1.87207   1.87446   1.88092   1.88300   1.88643
  Beta virt. eigenvalues --    1.88861   1.89190   1.89639   1.89885   1.90573
  Beta virt. eigenvalues --    1.91235   1.91436   1.91783   1.91846   1.92545
  Beta virt. eigenvalues --    1.93423   1.93603   1.94274   1.94351   1.94498
  Beta virt. eigenvalues --    1.94696   1.94957   1.95741   1.95841   1.96010
  Beta virt. eigenvalues --    1.96748   1.96943   1.97402   1.97904   1.98585
  Beta virt. eigenvalues --    1.98921   1.98979   1.99516   1.99630   2.00667
  Beta virt. eigenvalues --    2.01161   2.01585   2.02019   2.02207   2.02563
  Beta virt. eigenvalues --    2.03061   2.03432   2.03844   2.04518   2.04796
  Beta virt. eigenvalues --    2.04870   2.05548   2.05930   2.07066   2.07508
  Beta virt. eigenvalues --    2.07922   2.08239   2.08536   2.09147   2.09500
  Beta virt. eigenvalues --    2.09867   2.10047   2.10481   2.11180   2.11701
  Beta virt. eigenvalues --    2.11852   2.12383   2.12586   2.13529   2.13856
  Beta virt. eigenvalues --    2.14269   2.14348   2.14853   2.15132   2.15341
  Beta virt. eigenvalues --    2.16444   2.16710   2.17274   2.17402   2.18023
  Beta virt. eigenvalues --    2.18323   2.18563   2.19105   2.19572   2.19851
  Beta virt. eigenvalues --    2.20176   2.20423   2.20935   2.21812   2.22061
  Beta virt. eigenvalues --    2.22647   2.23391   2.23653   2.23942   2.24562
  Beta virt. eigenvalues --    2.25029   2.25231   2.25900   2.26572   2.26846
  Beta virt. eigenvalues --    2.27149   2.27753   2.28602   2.28821   2.28972
  Beta virt. eigenvalues --    2.29499   2.29902   2.30838   2.30928   2.31419
  Beta virt. eigenvalues --    2.32145   2.32833   2.33446   2.33497   2.33867
  Beta virt. eigenvalues --    2.34148   2.34798   2.35207   2.35580   2.35894
  Beta virt. eigenvalues --    2.36509   2.36669   2.36992   2.37482   2.37754
  Beta virt. eigenvalues --    2.38040   2.38329   2.38931   2.39687   2.40094
  Beta virt. eigenvalues --    2.40298   2.40526   2.40797   2.41102   2.41879
  Beta virt. eigenvalues --    2.41910   2.42805   2.43452   2.43909   2.44377
  Beta virt. eigenvalues --    2.44504   2.45483   2.45870   2.46644   2.46681
  Beta virt. eigenvalues --    2.47661   2.47957   2.48020   2.48736   2.49402
  Beta virt. eigenvalues --    2.49556   2.49695   2.50352   2.50535   2.51523
  Beta virt. eigenvalues --    2.51987   2.52232   2.52462   2.52865   2.53287
  Beta virt. eigenvalues --    2.53958   2.54356   2.54587   2.55128   2.55218
  Beta virt. eigenvalues --    2.55356   2.55757   2.56030   2.56614   2.56732
  Beta virt. eigenvalues --    2.57368   2.57488   2.57821   2.58182   2.58640
  Beta virt. eigenvalues --    2.58972   2.59175   2.59358   2.59798   2.60409
  Beta virt. eigenvalues --    2.60716   2.61303   2.61587   2.61709   2.62423
  Beta virt. eigenvalues --    2.62664   2.63062   2.63107   2.63386   2.63853
  Beta virt. eigenvalues --    2.64847   2.65020   2.65590   2.66060   2.66327
  Beta virt. eigenvalues --    2.66458   2.66698   2.67358   2.67490   2.68160
  Beta virt. eigenvalues --    2.68349   2.68769   2.69394   2.69637   2.70166
  Beta virt. eigenvalues --    2.70410   2.70763   2.71601   2.71800   2.72516
  Beta virt. eigenvalues --    2.72714   2.73025   2.73097   2.73587   2.73726
  Beta virt. eigenvalues --    2.73980   2.74679   2.74976   2.75192   2.75628
  Beta virt. eigenvalues --    2.75942   2.76479   2.76897   2.77190   2.77728
  Beta virt. eigenvalues --    2.78047   2.78422   2.79036   2.79210   2.79665
  Beta virt. eigenvalues --    2.79875   2.80193   2.80780   2.81071   2.81433
  Beta virt. eigenvalues --    2.81782   2.82255   2.82341   2.82909   2.83263
  Beta virt. eigenvalues --    2.83453   2.84314   2.84669   2.85029   2.85348
  Beta virt. eigenvalues --    2.85541   2.85995   2.86290   2.86839   2.87421
  Beta virt. eigenvalues --    2.87664   2.87942   2.88270   2.88964   2.89094
  Beta virt. eigenvalues --    2.89593   2.89951   2.90391   2.90552   2.90631
  Beta virt. eigenvalues --    2.91263   2.91419   2.91874   2.92440   2.93056
  Beta virt. eigenvalues --    2.93379   2.93754   2.93959   2.94171   2.94581
  Beta virt. eigenvalues --    2.95064   2.95553   2.95787   2.96105   2.96219
  Beta virt. eigenvalues --    2.96761   2.97012   2.97320   2.97529   2.98091
  Beta virt. eigenvalues --    2.98199   2.98891   2.99377   2.99545   2.99836
  Beta virt. eigenvalues --    3.00617   3.00853   3.01170   3.01689   3.02384
  Beta virt. eigenvalues --    3.02738   3.02827   3.03337   3.03614   3.04115
  Beta virt. eigenvalues --    3.04262   3.04834   3.05042   3.05538   3.06163
  Beta virt. eigenvalues --    3.06351   3.06860   3.07177   3.07519   3.07893
  Beta virt. eigenvalues --    3.08076   3.08279   3.09070   3.09352   3.09609
  Beta virt. eigenvalues --    3.09931   3.10235   3.10372   3.11004   3.11185
  Beta virt. eigenvalues --    3.11734   3.11860   3.12090   3.12126   3.12516
  Beta virt. eigenvalues --    3.12861   3.13372   3.13472   3.13769   3.14072
  Beta virt. eigenvalues --    3.14621   3.15035   3.15258   3.15488   3.16199
  Beta virt. eigenvalues --    3.16516   3.16972   3.17264   3.17291   3.17936
  Beta virt. eigenvalues --    3.18248   3.18532   3.18913   3.19181   3.20037
  Beta virt. eigenvalues --    3.20271   3.20676   3.20747   3.21350   3.21581
  Beta virt. eigenvalues --    3.21905   3.22279   3.22673   3.22712   3.23238
  Beta virt. eigenvalues --    3.23350   3.23465   3.24034   3.24392   3.24491
  Beta virt. eigenvalues --    3.24897   3.25163   3.25490   3.25911   3.26094
  Beta virt. eigenvalues --    3.26571   3.26665   3.26850   3.27157   3.27529
  Beta virt. eigenvalues --    3.27595   3.28092   3.28114   3.28510   3.28711
  Beta virt. eigenvalues --    3.29429   3.29547   3.29758   3.30286   3.30423
  Beta virt. eigenvalues --    3.30516   3.30966   3.31248   3.31457   3.31687
  Beta virt. eigenvalues --    3.31965   3.32182   3.32657   3.33115   3.33428
  Beta virt. eigenvalues --    3.33454   3.33856   3.34481   3.34718   3.34905
  Beta virt. eigenvalues --    3.35545   3.35597   3.35796   3.35987   3.36433
[...]
    17 C(13)  Bbb    -0.0135    -1.818    -0.649    -0.606  0.4467  0.5969  0.6664
              Bcc     0.0410     5.506     1.965     1.836  0.7304  0.1869 -0.6570
 
              Baa    -0.0289    -3.881    -1.385    -1.295  0.7367 -0.6762  0.0061
    18 C(13)  Bbb    -0.0188    -2.525    -0.901    -0.842  0.6690  0.7301  0.1395
              Bcc     0.0477     6.407     2.286     2.137 -0.0987 -0.0987  0.9902
 
              Baa    -0.0078    -1.052    -0.375    -0.351 -0.1044 -0.1617  0.9813
    19 C(13)  Bbb    -0.0064    -0.858    -0.306    -0.286  0.1169  0.9779  0.1735
              Bcc     0.0142     1.910     0.681     0.637  0.9876 -0.1328  0.0832
 
              Baa    -0.1276   -17.127    -6.111    -5.713  0.0012 -0.2185  0.9758
    20 C(13)  Bbb     0.0006     0.076     0.027     0.026  0.9728 -0.2257 -0.0517
              Bcc     0.1271    17.051     6.084     5.688  0.2316  0.9494  0.2123
 
              Baa    -0.5285   -70.918   -25.305   -23.656  0.8341  0.5199  0.1844
    21 C(13)  Bbb    -0.4680   -62.807   -22.411   -20.950 -0.3045  0.1552  0.9398
              Bcc     0.9965   133.725    47.716    44.606 -0.4600  0.8400 -0.2877
 
              Baa    -0.0412    -5.523    -1.971    -1.842 -0.5499  0.7944  0.2581
    22 C(13)  Bbb    -0.0314    -4.214    -1.504    -1.406  0.8254  0.5640  0.0227
              Bcc     0.0726     9.737     3.475     3.248  0.1275 -0.2255  0.9659
 
              Baa    -0.3492   -46.855   -16.719   -15.629  0.0286 -0.1487  0.9885
    23 C(13)  Bbb     0.1737    23.304     8.316     7.774 -0.6556  0.7437  0.1308
              Bcc     0.1755    23.551     8.404     7.856  0.7546  0.6518  0.0762
 
              Baa    -0.1002   -13.448    -4.799    -4.486  0.8618  0.4924 -0.1220
    24 C(13)  Bbb    -0.0578    -7.762    -2.770    -2.589 -0.4934  0.8695  0.0234
              Bcc     0.1581    21.210     7.568     7.075  0.1176  0.0400  0.9923
 
              Baa    -0.0109    -1.466    -0.523    -0.489  0.2229 -0.2148  0.9509
    25 C(13)  Bbb     0.0021     0.288     0.103     0.096  0.6228  0.7818  0.0306
              Bcc     0.0088     1.178     0.420     0.393  0.7499 -0.5854 -0.3081
 
              Baa    -0.0933   -12.520    -4.467    -4.176 -0.3044 -0.5124  0.8030
    26 C(13)  Bbb     0.0365     4.904     1.750     1.636  0.9506 -0.2175  0.2215
              Bcc     0.0568     7.616     2.718     2.540  0.0612  0.8307  0.5533
 
              Baa    -0.5380   -72.189   -25.759   -24.080  0.0282 -0.1038  0.9942
    27 C(13)  Bbb     0.2440    32.746    11.685    10.923  0.9129  0.4078  0.0167
              Bcc     0.2939    39.443    14.074    13.157 -0.4072  0.9071  0.1063
 
              Baa    -0.3997   -53.634   -19.138   -17.890 -0.2779  0.4534  0.8469
    28 C(13)  Bbb    -0.3885   -52.135   -18.603   -17.391  0.9101 -0.1579  0.3832
              Bcc     0.7882   105.770    37.741    35.281  0.3074  0.8772 -0.3688
 
              Baa    -0.0071    -0.958    -0.342    -0.320  0.7630  0.6460 -0.0233
    29 C(13)  Bbb    -0.0053    -0.713    -0.255    -0.238 -0.6289  0.7501  0.2045
              Bcc     0.0125     1.672     0.597     0.558  0.1496 -0.1414  0.9786
 
              Baa    -0.0134    -1.804    -0.644    -0.602  0.3541  0.1459  0.9237
    30 C(13)  Bbb     0.0063     0.848     0.303     0.283  0.4313  0.8509 -0.2998
              Bcc     0.0071     0.955     0.341     0.319  0.8298 -0.5046 -0.2384
 
              Baa    -0.0089    -1.189    -0.424    -0.396  0.8522  0.4934 -0.1741
    31 C(13)  Bbb    -0.0083    -1.118    -0.399    -0.373 -0.4891  0.8694  0.0701
              Bcc     0.0172     2.307     0.823     0.770  0.1859  0.0254  0.9822
 
              Baa    -0.0147    -1.977    -0.705    -0.659  0.4286  0.0362  0.9028
    32 C(13)  Bbb     0.0060     0.809     0.289     0.270  0.9009  0.0587 -0.4300
              Bcc     0.0087     1.168     0.417     0.390 -0.0685  0.9976 -0.0075
 
              Baa    -0.0005    -0.064    -0.023    -0.021  0.4672  0.3971  0.7900
    33 C(13)  Bbb    -0.0001    -0.008    -0.003    -0.003 -0.5970 -0.5174  0.6131
              Bcc     0.0005     0.073     0.026     0.024 -0.6522  0.7580  0.0047
 
              Baa    -0.0004    -0.053    -0.019    -0.018  0.9638 -0.1046 -0.2453
    34 C(13)  Bbb     0.0000     0.003     0.001     0.001  0.2423  0.7280  0.6413
              Bcc     0.0004     0.051     0.018     0.017  0.1115 -0.6775  0.7270
 
              Baa    -0.0007    -0.088    -0.031    -0.029 -0.4310  0.4479  0.7834
    35 C(13)  Bbb    -0.0004    -0.052    -0.019    -0.017  0.6121  0.7830 -0.1109
              Bcc     0.0010     0.140     0.050     0.047  0.6630 -0.4317  0.6116
 
              Baa    -0.0001    -0.014    -0.005    -0.005 -0.3715  0.5555  0.7439
    36 C(13)  Bbb    -0.0001    -0.012    -0.004    -0.004 -0.3160  0.6778 -0.6639
              Bcc     0.0002     0.025     0.009     0.008  0.8730  0.4817  0.0763
 
              Baa    -0.0003     0.025     0.009     0.008 -0.3693  0.5524  0.7473
    37 O(17)  Bbb    -0.0002     0.017     0.006     0.006 -0.3113  0.6841 -0.6595
              Bcc     0.0006    -0.042    -0.015    -0.014  0.8756  0.4762  0.0807
 
              Baa    -0.0001     0.005     0.002     0.002 -0.0256  0.1315  0.9910
    38 O(17)  Bbb    -0.0000     0.003     0.001     0.001 -0.5964  0.7935 -0.1207
              Bcc     0.0001    -0.008    -0.003    -0.003  0.8023  0.5941 -0.0581
 
              Baa    -0.0248    -0.956    -0.341    -0.319  0.9421 -0.3352 -0.0135
    39 N(14)  Bbb    -0.0198    -0.764    -0.272    -0.255  0.3341  0.9412 -0.0501
              Bcc     0.0446     1.720     0.614     0.574  0.0295  0.0427  0.9987
 
              Baa    -0.1561    -6.019    -2.148    -2.008  0.0196  0.1015  0.9946
    40 N(14)  Bbb     0.0742     2.862     1.021     0.955  0.7517 -0.6574  0.0523
              Bcc     0.0818     3.157     1.126     1.053  0.6592  0.7466 -0.0892
 
              Baa    -0.1245    -4.800    -1.713    -1.601  0.0403 -0.1718  0.9843
    41 N(14)  Bbb     0.0553     2.133     0.761     0.712  0.9482  0.3174  0.0166
              Bcc     0.0691     2.666     0.951     0.889 -0.3153  0.9326  0.1757
 
              Baa    -0.0141    -0.545    -0.194    -0.182  0.7658  0.5642 -0.3087
    42 N(14)  Bbb    -0.0040    -0.156    -0.056    -0.052 -0.6133  0.7851 -0.0864
              Bcc     0.0182     0.701     0.250     0.234  0.1936  0.2555  0.9472
 
              Baa    -1.1637   -20.147    -7.189    -6.720  0.1382  0.8734 -0.4669
    43 Fe(57) Bbb     0.4512     7.811     2.787     2.606 -0.5451  0.4607  0.7005
              Bcc     0.7125    12.336     4.402     4.115  0.8269  0.1577  0.5398
 
              Baa    -0.0783     5.669     2.023     1.891  0.5666  0.4959  0.6581
    44 O(17)  Bbb    -0.0109     0.785     0.280     0.262  0.8200 -0.2601 -0.5099
              Bcc     0.0892    -6.454    -2.303    -2.153 -0.0816  0.8285 -0.5540
 
              Baa    -0.1954    14.137     5.044     4.716  0.1508  0.2797  0.9482
    45 O(17)  Bbb     0.0451    -3.266    -1.165    -1.089  0.9885 -0.0359 -0.1467
              Bcc     0.1502   -10.871    -3.879    -3.626 -0.0070  0.9594 -0.2819
 
              Baa    -0.0032    -1.711    -0.611    -0.571 -0.0679  0.9975  0.0210
    46 H(1)   Bbb     0.0002     0.108     0.038     0.036  0.2901 -0.0004  0.9570
              Bcc     0.0030     1.603     0.572     0.535  0.9546  0.0711 -0.2894
 
              Baa    -0.0013    -0.689    -0.246    -0.230  0.9040 -0.2272 -0.3622
    47 H(1)   Bbb    -0.0003    -0.163    -0.058    -0.055  0.3931  0.1085  0.9131
              Bcc     0.0016     0.853     0.304     0.284  0.1682  0.9678 -0.1874
 
              Baa    -0.0080    -4.291    -1.531    -1.431  0.9487 -0.1608 -0.2721
    48 H(1)   Bbb    -0.0027    -1.428    -0.509    -0.476  0.2691 -0.0407  0.9623
              Bcc     0.0107     5.719     2.041     1.908  0.1658  0.9861 -0.0046
 
              Baa    -0.0030    -1.617    -0.577    -0.539  0.8952  0.4094 -0.1759
    49 H(1)   Bbb    -0.0003    -0.182    -0.065    -0.061  0.3010 -0.2647  0.9162
              Bcc     0.0034     1.799     0.642     0.600 -0.3285  0.8731  0.3602
 
              Baa    -0.0004    -0.196    -0.070    -0.065 -0.0255  0.1087  0.9937
    50 H(1)   Bbb    -0.0003    -0.173    -0.062    -0.058  0.3156  0.9441 -0.0951
              Bcc     0.0007     0.369     0.132     0.123  0.9486 -0.3112  0.0584
 
              Baa    -0.0003    -0.144    -0.052    -0.048  0.1195 -0.2963  0.9476
    51 H(1)   Bbb    -0.0002    -0.101    -0.036    -0.034  0.1807  0.9450  0.2727
              Bcc     0.0005     0.245     0.088     0.082  0.9762 -0.1386 -0.1665
 
              Baa    -0.0002    -0.100    -0.036    -0.033 -0.0596  0.0416  0.9974
    52 H(1)   Bbb    -0.0001    -0.075    -0.027    -0.025  0.0518  0.9979 -0.0385
              Bcc     0.0003     0.175     0.062     0.058  0.9969 -0.0493  0.0617
 
              Baa    -0.0003    -0.169    -0.060    -0.056  0.3516  0.7270 -0.5897
    53 H(1)   Bbb    -0.0002    -0.125    -0.045    -0.042  0.4311  0.4334  0.7914
              Bcc     0.0006     0.294     0.105     0.098  0.8310 -0.5325 -0.1610
 
              Baa    -0.0001    -0.078    -0.028    -0.026  0.0794 -0.0745  0.9941
    54 H(1)   Bbb     0.0000     0.001     0.000     0.000  0.2576  0.9649  0.0518
              Bcc     0.0001     0.077     0.027     0.026  0.9630 -0.2519 -0.0958
 
              Baa    -0.0001    -0.067    -0.024    -0.022 -0.1435  0.2418  0.9597
    55 H(1)   Bbb    -0.0000    -0.012    -0.004    -0.004  0.1333  0.9656 -0.2233
              Bcc     0.0001     0.079     0.028     0.027  0.9806 -0.0959  0.1708
 
              Baa    -0.0002    -0.115    -0.041    -0.038 -0.2419  0.4278  0.8709
    56 H(1)   Bbb    -0.0001    -0.033    -0.012    -0.011  0.5775  0.7848 -0.2251
              Bcc     0.0003     0.148     0.053     0.049  0.7798 -0.4484  0.4369
 
              Baa    -0.0072    -3.848    -1.373    -1.284  0.4059  0.8892  0.2110
    57 H(1)   Bbb    -0.0048    -2.552    -0.910    -0.851 -0.3441 -0.0652  0.9367
              Bcc     0.0120     6.400     2.284     2.135  0.8467 -0.4528  0.2795
 
              Baa    -0.0063    -3.370    -1.202    -1.124  0.4041  0.9145 -0.0219
    58 H(1)   Bbb    -0.0039    -2.106    -0.752    -0.703  0.3362 -0.1262  0.9333
              Bcc     0.0103     5.476     1.954     1.827  0.8507 -0.3845 -0.3584
 
              Baa    -0.0022    -1.194    -0.426    -0.398  0.2559  0.9365  0.2399
    59 H(1)   Bbb    -0.0020    -1.041    -0.371    -0.347 -0.0678 -0.2301  0.9708
              Bcc     0.0042     2.235     0.798     0.746  0.9643 -0.2647  0.0046
 
              Baa    -0.0125    -6.678    -2.383    -2.228 -0.2433  0.1402  0.9598
    60 H(1)   Bbb    -0.0000    -0.006    -0.002    -0.002  0.9700  0.0365  0.2406
              Bcc     0.0125     6.684     2.385     2.230 -0.0013  0.9895 -0.1449
 
              Baa    -0.0628   -33.489   -11.950   -11.171 -0.4461  0.0621  0.8928
    61 H(1)   Bbb    -0.0120    -6.423    -2.292    -2.142 -0.2478  0.9500 -0.1899
              Bcc     0.0748    39.912    14.242    13.313  0.8600  0.3060  0.4084
 
              Baa    -0.0721   -38.487   -13.733   -12.838  0.7844  0.5523  0.2823
    62 H(1)   Bbb    -0.0130    -6.927    -2.472    -2.311 -0.6153  0.7501  0.2423
              Bcc     0.0851    45.415    16.205    15.149 -0.0779 -0.3637  0.9282
 
              Baa    -0.0107    -5.730    -2.045    -1.911  0.8158 -0.5442 -0.1957
    63 H(1)   Bbb    -0.0008    -0.413    -0.147    -0.138  0.0282 -0.3006  0.9533
              Bcc     0.0115     6.143     2.192     2.049  0.5777  0.7832  0.2299
 
              Baa    -0.0090    -4.786    -1.708    -1.596  0.9055 -0.2219 -0.3617
    64 H(1)   Bbb    -0.0006    -0.333    -0.119    -0.111  0.3961  0.7479  0.5327
              Bcc     0.0096     5.119     1.827     1.708  0.1523 -0.6257  0.7651
 
              Baa    -0.0068    -3.640    -1.299    -1.214  0.9120 -0.2504  0.3250
    65 H(1)   Bbb    -0.0047    -2.522    -0.900    -0.841 -0.2441  0.3053  0.9204
              Bcc     0.0115     6.162     2.199     2.055  0.3297  0.9187 -0.2173
 
              Baa    -0.0312   -16.624    -5.932    -5.545  0.7789  0.5668 -0.2685
    66 H(1)   Bbb    -0.0082    -4.368    -1.558    -1.457  0.2725  0.0797  0.9588
              Bcc     0.0393    20.991     7.490     7.002 -0.5649  0.8200  0.0924
 
              Baa    -0.0499   -26.602    -9.492    -8.874  0.9254 -0.3354  0.1765
    67 H(1)   Bbb    -0.0017    -0.931    -0.332    -0.310  0.3424  0.9395 -0.0100
              Bcc     0.0516    27.533     9.824     9.184 -0.1624  0.0697  0.9843
 
              Baa    -0.0494   -26.340    -9.399    -8.786  0.6534 -0.5086 -0.5607
    68 H(1)   Bbb    -0.0024    -1.307    -0.466    -0.436  0.0257  0.7551 -0.6551
              Bcc     0.0518    27.646     9.865     9.222  0.7565  0.4137  0.5065
 
              Baa    -0.0001    -0.079    -0.028    -0.026  0.8068  0.5574  0.1960
    69 H(1)   Bbb    -0.0001    -0.045    -0.016    -0.015 -0.0993 -0.1991  0.9749
              Bcc     0.0002     0.124     0.044     0.041 -0.5825  0.8060  0.1052
 
              Baa    -0.0002    -0.125    -0.045    -0.042 -0.4551 -0.6264  0.6328
    70 H(1)   Bbb    -0.0001    -0.041    -0.015    -0.014  0.5361  0.3747  0.7564
              Bcc     0.0003     0.166     0.059     0.055  0.7110 -0.6835 -0.1653
 
              Baa    -0.0003    -0.172    -0.061    -0.057  0.6285  0.7776  0.0172
    71 H(1)   Bbb    -0.0001    -0.078    -0.028    -0.026  0.0657 -0.0752  0.9950
              Bcc     0.0005     0.250     0.089     0.083  0.7751 -0.6242 -0.0983
 
              Baa    -0.0001    -0.076    -0.027    -0.025  0.6911 -0.3444  0.6355
    72 H(1)   Bbb    -0.0001    -0.052    -0.018    -0.017 -0.4322  0.5078  0.7452
              Bcc     0.0002     0.127     0.045     0.042  0.5793  0.7896 -0.2021
 
              Baa    -0.0002    -0.128    -0.046    -0.043  0.4207  0.0797  0.9037
    73 H(1)   Bbb    -0.0001    -0.045    -0.016    -0.015 -0.6340  0.7383  0.2301
              Bcc     0.0003     0.173     0.062     0.058  0.6488  0.6697 -0.3612
 
              Baa    -0.0003    -0.162    -0.058    -0.054 -0.3348  0.1684  0.9271
    74 H(1)   Bbb    -0.0001    -0.070    -0.025    -0.023 -0.5498  0.7641 -0.3374
              Bcc     0.0004     0.233     0.083     0.078  0.7653  0.6227  0.1632
 
              Baa    -0.0001    -0.072    -0.026    -0.024  0.0667 -0.7016  0.7094
    75 H(1)   Bbb    -0.0001    -0.042    -0.015    -0.014  0.8124 -0.3745 -0.4469
              Bcc     0.0002     0.114     0.041     0.038  0.5793  0.6062  0.5450
 
              Baa    -0.0022    -1.152    -0.411    -0.384  0.8822  0.1075  0.4584
    76 H(1)   Bbb     0.0009     0.500     0.179     0.167 -0.3447 -0.5155  0.7845
              Bcc     0.0012     0.652     0.233     0.217 -0.3206  0.8501  0.4177
 
              Baa    -0.0015    -0.826    -0.295    -0.276 -0.0721  0.7032  0.7073
    77 H(1)   Bbb    -0.0012    -0.659    -0.235    -0.220  0.0429  0.7107 -0.7022
              Bcc     0.0028     1.486     0.530     0.496  0.9965  0.0202  0.0814
 
              Baa    -0.0154    -8.213    -2.931    -2.740  0.2296  0.0802  0.9700
    78 H(1)   Bbb    -0.0038    -2.044    -0.729    -0.682  0.9324 -0.3040 -0.1956
              Bcc     0.0192    10.258     3.660     3.422  0.2792  0.9493 -0.1446
 
              Baa    -0.0065    -3.443    -1.229    -1.148  0.8116  0.2517 -0.5273
    79 H(1)   Bbb     0.0012     0.653     0.233     0.218  0.2703  0.6383  0.7208
              Bcc     0.0052     2.789     0.995     0.930 -0.5180  0.7275 -0.4500
 
              Baa    -0.0001    -0.029    -0.011    -0.010  0.1133 -0.0001  0.9936
    80 H(1)   Bbb    -0.0000    -0.014    -0.005    -0.005 -0.4488  0.8922  0.0513
              Bcc     0.0001     0.043     0.015     0.014  0.8864  0.4517 -0.1011
 
              Baa    -0.0001    -0.039    -0.014    -0.013 -0.2716  0.3513  0.8960
    81 H(1)   Bbb    -0.0000    -0.023    -0.008    -0.008  0.1355  0.9357 -0.3258
              Bcc     0.0001     0.062     0.022     0.021  0.9528 -0.0330  0.3018
 

 ---------------------------------------------------------------------------------

 1\1\GINC-NODE634\SP\UPBE1PBE\def2TZVP\C34H36Fe1N4O6(1+,2)\KLEICH\18-Se
 p-2022\0\\# PBE1PBE/def2TZVP empiricaldispersion=GD3BJ int=(grid=ultra
 fine) geom=check guess=read scrf=(smd,solvent=Chloroform)\\1cce_III_D_
 solv\\1,2\C,0,-5.48,53.62,113.148\C,0,-7.571,57.663,114.65\C,0,-6.212,
 59.774,110.58\C,0,-3.759,55.864,109.383\C,0,-6.201,54.529,113.94\C,0,-
 6.717,54.212,115.182\C,0,-7.392,55.377,115.614\C,0,-7.138,56.332,114.6
 31\C,0,-8.283,55.562,116.835\C,0,-6.584,52.826,115.8\C,0,-5.521,52.715
 ,116.871\C,0,-5.378,51.363,117.57\O,0,-6.217,50.989,118.381\O,0,-4.403
 ,50.646,117.362\C,0,-7.47,58.618,113.624\C,0,-8.124,59.862,113.625\C,0
 ,-7.763,60.457,112.409\C,0,-6.911,59.538,111.776\C,0,-9.109,60.337,114
 .701\C,0,-8.111,61.69,111.839\C,0,-8.971,62.736,112.366\C,0,-5.303,58.
 954,109.91\C,0,-4.54,59.325,108.805\C,0,-3.794,58.17,108.484\C,0,-4.19
 6,57.199,109.399\C,0,-4.519,60.709,108.176\C,0,-2.842,57.879,107.491\C
 ,0,-2.374,58.685,106.381\C,0,-3.977,54.842,110.284\C,0,-3.64,53.509,11
 0.086\C,0,-4.164,52.855,111.174\C,0,-4.755,53.841,111.963\C,0,-2.888,5
 2.827,108.948\C,0,-4.093,51.352,111.4\C,0,-3.176,51.046,112.555\C,0,-2
 .982,49.599,112.903\O,0,-2.36,49.336,113.93\O,0,-3.445,48.727,112.182\
 N,0,-6.448,55.803,113.62\N,0,-6.816,58.405,112.482\N,0,-5.033,57.698,1
 10.293\N,0,-4.582,55.057,111.445\Fe,0,-5.719,56.734,111.941\O,0,-4.284
 ,57.394,113.195\O,0,-7.101,55.961,110.708\H,0,-5.48270944,52.60896755,
 113.49829422\H,0,-8.03524361,57.99339133,115.55565967\H,0,-6.40448998,
 60.71877956,110.11606123\H,0,-3.16139901,55.59694099,108.5365648\H,0,-
 8.36891296,56.60472598,117.05914613\H,0,-9.2535454,55.15955328,116.632
 5691\H,0,-7.85260181,55.05171079,117.67121906\H,0,-6.26267678,52.18481
 752,115.00593676\H,0,-7.51406047,52.63955831,116.29510304\H,0,-5.82540
 006,53.39559646,117.63848228\H,0,-4.59286539,52.86505729,116.36016837\
 H,0,-8.77788362,61.27326601,115.09933139\H,0,-10.07993397,60.45711609,
 114.26768792\H,0,-9.15617378,59.61190816,115.48644029\H,0,-7.68211721,
 61.88898932,110.87912355\H,0,-9.61039298,63.44231863,111.87897781\H,0,
 -9.71396272,62.06975701,111.97996027\H,0,-4.33953601,61.02979666,107.1
 7112082\H,0,-3.48301127,60.45600158,108.08871229\H,0,-5.390304,60.3087
 7178,107.70108241\H,0,-2.39264453,56.91087831,107.56663101\H,0,-1.5328
 8319,59.26802394,106.69325886\H,0,-3.15887185,59.3361707,106.05719003\
 H,0,-2.17243963,52.14237926,109.35317626\H,0,-3.58132302,52.29459616,1
 08.33095109\H,0,-2.3826099,53.56551138,108.36141514\H,0,-3.63788041,50
 .93188344,110.52749313\H,0,-5.07286653,51.03970224,111.69535012\H,0,-3
 .65009218,51.4786957,113.41110223\H,0,-2.21158769,51.39132073,112.2458
 6815\H,0,-3.53292348,57.99189971,113.195\H,0,-3.97065359,56.48657836,1
 13.195\H,0,-6.34992348,56.55889971,110.708\H,0,-6.78765359,55.05357836
 ,110.708\H,0,-2.85733077,48.14197171,111.69827821\H,0,-3.51645184,50.9
 9970047,117.46460767\\Version=ES64L-G16RevA.03\State=2-A\HF=-3249.1158
 418\S2=1.795966\S2-1=0.\S2A=1.637795\RMSD=2.637e-09\Dipole=-0.7402133,
 6.5793246,-3.4120709\Quadrupole=-2.9288952,31.1882492,-28.259354,-53.4
 607116,-8.519049,24.0453023\PG=C01 [X(C34H36Fe1N4O6)]\\@


 Where a calculator on the ENIAC is equipped with 18,000
 vacuum tubes and weighs 30 tons, computers inthe future
 may  have only 1,000 vacuum tubes and weigh only 1 1/2 tons.
              ---Popular Mechanics, March 1949
 Job cpu time:       1 days 22 hours 51 minutes  7.8 seconds.
 Elapsed time:       0 days 11 hours 45 minutes 51.1 seconds.
 File lengths (MBytes):  RWF=   3010 Int=      0 D2E=      0 Chk=    213 Scr=      1
 Normal termination of Gaussian 16 at Sun Sep 18 01:05:10 2022.
