 Entering Gaussian System, Link 0=g16
 Input=/net/work/kleich/bench/splitthejobs/1cce/gfcfail/1cce/1cce05/1cce05.com
 Output=/net/work/kleich/bench/splitthejobs/1cce/gfcfail/1cce/1cce05/1cce05.log
 Initial command:
 /afs/math/software/gaussian/g16.A03/g16/l1.exe "/scratch/kleich_gaussian.B7Fwtcn/Gau-3738.inp" -scrdir="/scratch/kleich_gaussian.B7Fwtcn/"
 Entering Link 1 = /afs/math/software/gaussian/g16.A03/g16/l1.exe PID=      3739.
  
 Copyright (c) 1988,1990,1992,1993,1995,1998,2003,2009,2016,
            Gaussian, Inc.  All Rights Reserved.
  
 This is part of the Gaussian(R) 16 program.  It is based on
 the Gaussian(R) 09 system (copyright 2009, Gaussian, Inc.),
 the Gaussian(R) 03 system (copyright 2003, Gaussian, Inc.),
 the Gaussian(R) 98 system (copyright 1998, Gaussian, Inc.),
 the Gaussian(R) 94 system (copyright 1995, Gaussian, Inc.),
 the Gaussian 92(TM) system (copyright 1992, Gaussian, Inc.),
 the Gaussian 90(TM) system (copyright 1990, Gaussian, Inc.),
 the Gaussian 88(TM) system (copyright 1988, Gaussian, Inc.),
 the Gaussian 86(TM) system (copyright 1986, Carnegie Mellon
 University), and the Gaussian 82(TM) system (copyright 1983,
 Carnegie Mellon University). Gaussian is a federally registered
 trademark of Gaussian, Inc.
  
 This software contains proprietary and confidential information,
 including trade secrets, belonging to Gaussian, Inc.
  
 This software is provided under written license and may be
 used, copied, transmitted, or stored only in accord with that
 written license.
  
 The following legend is applicable only to US Government
 contracts under FAR:
  
                    RESTRICTED RIGHTS LEGEND
  
 Use, reproduction and disclosure by the US Government is
 subject to restrictions as set forth in subparagraphs (a)
 and (c) of the Commercial Computer Software - Restricted
 Rights clause in FAR 52.227-19.
  
 Gaussian, Inc.
 340 Quinnipiac St., Bldg. 40, Wallingford CT 06492
  
  
 ---------------------------------------------------------------
 Warning -- This program may not be used in any manner that
 competes with the business of Gaussian, Inc. or will provide
 assistance to any competitor of Gaussian, Inc.  The licensee
 of this program is prohibited from giving any competitor of
 Gaussian, Inc. access to this program.  By using this program,
 the user acknowledges that Gaussian, Inc. is engaged in the
 business of creating and licensing software in the field of
 computational chemistry and represents and warrants to the
 licensee that it is not a competitor of Gaussian, Inc. and that
 it will not use this program in any manner prohibited above.
 ---------------------------------------------------------------
  

 Cite this work as:
 Gaussian 16, Revision A.03,
 M. J. Frisch, G. W. Trucks, H. B. Schlegel, G. E. Scuseria, 
 M. A. Robb, J. R. Cheeseman, G. Scalmani, V. Barone, 
 G. A. Petersson, H. Nakatsuji, X. Li, M. Caricato, A. V. Marenich, 
 J. Bloino, B. G. Janesko, R. Gomperts, B. Mennucci, H. P. Hratchian, 
 J. V. Ortiz, A. F. Izmaylov, J. L. Sonnenberg, D. Williams-Young, 
 F. Ding, F. Lipparini, F. Egidi, J. Goings, B. Peng, A. Petrone, 
 T. Henderson, D. Ranasinghe, V. G. Zakrzewski, J. Gao, N. Rega, 
 G. Zheng, W. Liang, M. Hada, M. Ehara, K. Toyota, R. Fukuda, 
 J. Hasegawa, M. Ishida, T. Nakajima, Y. Honda, O. Kitao, H. Nakai, 
 T. Vreven, K. Throssell, J. A. Montgomery, Jr., J. E. Peralta, 
 F. Ogliaro, M. J. Bearpark, J. J. Heyd, E. N. Brothers, K. N. Kudin, 
 V. N. Staroverov, T. A. Keith, R. Kobayashi, J. Normand, 
 K. Raghavachari, A. P. Rendell, J. C. Burant, S. S. Iyengar, 
 J. Tomasi, M. Cossi, J. M. Millam, M. Klene, C. Adamo, R. Cammi, 
 J. W. Ochterski, R. L. Martin, K. Morokuma, O. Farkas, 
 J. B. Foresman, and D. J. Fox, Gaussian, Inc., Wallingford CT, 2016.
 
 ******************************************
 Gaussian 16:  AM64L-G16RevA.03 25-Dec-2016
                16-Sep-2022 
 ******************************************
 %nprocs=12
 Will use up to   12 processors via shared memory.
 %mem=16GB
 %oldchk=1cce_II_S.chk
 %chk=1cce_II_Q.chk
 Copying data from "1cce_II_S.chk" to current chk file "1cce_II_Q.chk"
 IOpt=  2 FromEx=T IUOpen= 4 IOptOp= 5 NList=   0 IFRang= 0 IUIn= 4 IUOut= 2.
 ----------------------------------------------------------------------
 # PBE1PBE/def2TZVP empiricaldispersion=GD3BJ int=(grid=ultrafine) geom
 =check pop=nbo
 ----------------------------------------------------------------------
 1/29=2,38=1,172=1/1;
 2/12=2,40=1/2;
 3/5=44,7=101,11=2,14=-4,25=1,30=1,74=-13,75=-5,124=41/1,2,3;
 4//1;
 5/5=2,38=5/2;
 6/7=2,8=2,9=2,10=2,28=1,40=1/1,7;
 99/5=1,9=1/99;
 ---------
 1cce_II_Q
 ---------
 Structure from the checkpoint file:  "1cce_II_Q.chk"
 Charge =  0 Multiplicity = 5
 Z-Matrix found in chk file.
 C,0,-5.48,53.62,113.148
 C,0,-7.571,57.663,114.65
 C,0,-6.212,59.774,110.58
 C,0,-3.759,55.864,109.383
 C,0,-6.201,54.529,113.94
 C,0,-6.717,54.212,115.182
 C,0,-7.392,55.377,115.614
 C,0,-7.138,56.332,114.631
 C,0,-8.283,55.562,116.835
 C,0,-6.584,52.826,115.8
 C,0,-5.521,52.715,116.871
 C,0,-5.378,51.363,117.57
 O,0,-6.217,50.989,118.381
 O,0,-4.403,50.646,117.362
 C,0,-7.47,58.618,113.624
 C,0,-8.124,59.862,113.625
 C,0,-7.763,60.457,112.409
 C,0,-6.911,59.538,111.776
 C,0,-9.109,60.337,114.701
 C,0,-8.111,61.69,111.839
 C,0,-8.971,62.736,112.366
 C,0,-5.303,58.954,109.91
 C,0,-4.54,59.325,108.805
 C,0,-3.794,58.17,108.484
 C,0,-4.196,57.199,109.399
 C,0,-4.519,60.709,108.176
 C,0,-2.842,57.879,107.491
 C,0,-2.374,58.685,106.381
 C,0,-3.977,54.842,110.284
 C,0,-3.64,53.509,110.086
 C,0,-4.164,52.855,111.174
 C,0,-4.755,53.841,111.963
 C,0,-2.888,52.827,108.948
 C,0,-4.093,51.352,111.4
 C,0,-3.176,51.046,112.555
 C,0,-2.982,49.599,112.903
 O,0,-2.36,49.336,113.93
 O,0,-3.445,48.727,112.182
 N,0,-6.448,55.803,113.62
 N,0,-6.816,58.405,112.482
 N,0,-5.033,57.698,110.293
 N,0,-4.582,55.057,111.445
 Fe,0,-5.719,56.734,111.941
 O,0,-4.284,57.394,113.195
 O,0,-7.101,55.961,110.708
 H,0,-5.48270944,52.60896755,113.49829422
 H,0,-8.03524361,57.99339133,115.55565967
 H,0,-6.40448998,60.71877956,110.11606123
 H,0,-3.16139901,55.59694099,108.5365648
 H,0,-8.36891296,56.60472598,117.05914613
 H,0,-9.2535454,55.15955328,116.6325691
 H,0,-7.85260181,55.05171079,117.67121906
 H,0,-6.26267678,52.18481752,115.00593676
 H,0,-7.51406047,52.63955831,116.29510304
 H,0,-5.82540006,53.39559646,117.63848228
 H,0,-4.59286539,52.86505729,116.36016837
 H,0,-8.77788362,61.27326601,115.09933139
 H,0,-10.07993397,60.45711609,114.26768792
 H,0,-9.15617378,59.61190816,115.48644029
 H,0,-7.68211721,61.88898932,110.87912355
 H,0,-9.61039298,63.44231863,111.87897781
 H,0,-9.71396272,62.06975701,111.97996027
 H,0,-4.33953601,61.02979666,107.17112082
 H,0,-3.48301127,60.45600158,108.08871229
 H,0,-5.390304,60.30877178,107.70108241
 H,0,-2.39264453,56.91087831,107.56663101
 H,0,-1.53288319,59.26802394,106.69325886
 H,0,-3.15887185,59.3361707,106.05719003
 H,0,-2.17243963,52.14237926,109.35317626
 H,0,-3.58132302,52.29459616,108.33095109
 H,0,-2.3826099,53.56551138,108.36141514
 H,0,-3.63788041,50.93188344,110.52749313
 H,0,-5.07286653,51.03970224,111.69535012
 H,0,-3.65009218,51.4786957,113.41110223
 H,0,-2.21158769,51.39132073,112.24586815
 H,0,-3.53292348,57.99189971,113.195
 H,0,-3.97065359,56.48657836,113.195
 H,0,-6.34992348,56.55889971,110.708
 H,0,-6.78765359,55.05357836,110.708
 H,0,-2.85733077,48.14197171,111.69827821
 H,0,-3.51645184,50.99970047,117.46460767
 Recover connectivity data from disk.
 Center=     -5.48322662     55.92056561    112.29845634
 Residue   0                        charge    0.00000000 layers R        AvRTP=      7.12770992    289.88216988     71.31909166
 Residue   4                        charge    0.00000000 layers R        AvRTP=      0.00000000      0.00000000      0.00000000
 Residue   2 PDB Number   313_A HOH charge    0.00000000 layers R        AvRTP=      2.25752666     41.40404323     66.60078230
 Residue   3 PDB Number   387_A HOH charge    0.00000000 layers R        AvRTP=      2.03188830    182.84391009    141.51286530
 Residue   1 PDB Number     1_A HEM charge    0.00000000 layers R        AvRTP=      0.14567071    121.91288658    103.50989736
 Stoichiometry    C34H36FeN4O6(5)
 Framework group  C1[X(C34H36FeN4O6)]
 Deg. of freedom   237
 Full point group                 C1      NOp   1
 Largest Abelian subgroup         C1      NOp   1
 Largest concise Abelian subgroup C1      NOp   1
                         Standard orientation:                         
 ---------------------------------------------------------------------
 Center     Atomic      Atomic             Coordinates (Angstroms)
 Number     Number       Type             X           Y           Z
 ---------------------------------------------------------------------
      1          6           0        2.215484   -0.034313   -0.468490
      2          6           0       -1.124328   -3.435501    0.033210
      3          6           0       -4.473291   -0.021934    0.043667
      4          6           0       -1.062382    3.310246    0.023569
      5          6           0        1.611099   -1.296830   -0.349515
      6          6           0        2.323720   -2.480111   -0.313105
      7          6           0        1.348523   -3.500464   -0.227404
      8          6           0        0.129757   -2.832754   -0.119690
      9          6           0        1.539919   -5.008531   -0.317125
     10          6           0        3.841227   -2.531964   -0.435963
     11          6           0        4.570689   -2.742716    0.872777
     12          6           0        6.093415   -2.861194    0.807805
     13          8           0        6.621235   -3.874269    0.364406
     14          8           0        6.814177   -1.962617    1.233293
     15          6           0       -2.387413   -2.820475   -0.002318
     16          6           0       -3.609475   -3.511460   -0.068331
     17          6           0       -4.585953   -2.507799   -0.114796
     18          6           0       -3.883671   -1.293382   -0.058715
     19          6           0       -3.753549   -5.033739   -0.192963
     20          6           0       -5.983958   -2.575512   -0.200172
     21          6           0       -6.845188   -3.744108   -0.264294
     22          6           0       -3.864962    1.228138    0.165479
     23          6           0       -4.525987    2.429559    0.411385
     24          6           0       -3.501120    3.400403    0.437684
     25          6           0       -2.321978    2.706560    0.173346
     26          6           0       -6.019771    2.577510    0.652748
     27          6           0       -3.492219    4.791514    0.642049
     28          6           0       -4.594230    5.718064    0.808893
     29          6           0        0.188112    2.744433   -0.117602
     30          6           0        1.352683    3.433818   -0.430946
     31          6           0        2.300255    2.453684   -0.596719
     32          6           0        1.648320    1.247063   -0.345634
     33          6           0        1.615391    4.926534   -0.599629
     34          6           0        3.747742    2.704319   -0.993064
     35          6           0        4.661098    2.395575    0.164091
     36          6           0        6.130769    2.605574   -0.056171
     37          8           0        6.901481    2.219508    0.820036
     38          8           0        6.527814    3.134318   -1.084460
     39          7           0        0.298328   -1.514080   -0.223336
     40          7           0       -2.561667   -1.500946   -0.077988
     41          7           0       -2.537976    1.404342    0.093476
     42          7           0        0.376959    1.437161    0.007086
     43         26           0       -1.107873   -0.026320   -0.060815
     44          8           0       -0.925722   -0.369372    1.918194
     45          8           0       -1.171312    0.359346   -2.029312
     46          1           0        3.263285   -0.049652   -0.684771
     47          1           0       -1.120817   -4.492881    0.197024
     48          1           0       -5.543079   -0.010633    0.025623
     49          1           0       -1.074684    4.380161    0.018084
     50          1           0        0.688487   -5.501752    0.103227
     51          1           0        1.647199   -5.294051   -1.342732
     52          1           0        2.418556   -5.289430    0.225086
     53          1           0        4.136965   -1.562601   -0.779147
     54          1           0        4.054099   -3.397188   -1.028391
     55          1           0        4.231602   -3.691851    1.232030
     56          1           0        4.383375   -1.856862    1.442932
     57          1           0       -4.365410   -5.400570    0.604509
     58          1           0       -4.208955   -5.273278   -1.131114
     59          1           0       -2.786767   -5.489089   -0.139210
     60          1           0       -6.488480   -1.632156   -0.221085
     61          1           0       -7.788874   -3.905549   -0.742095
     62          1           0       -6.540043   -3.689126   -1.288385
     63          1           0       -6.694727    3.383886    0.455028
     64          1           0       -5.652036    3.296195    1.355002
     65          1           0       -6.011176    2.561077   -0.417092
     66          1           0       -2.519527    5.235700    0.680405
     67          1           0       -4.839037    5.797816    1.847455
     68          1           0       -5.445616    5.360749    0.268182
     69          1           0        2.518659    5.189551   -0.089895
     70          1           0        1.713207    5.156124   -1.640119
     71          1           0        0.798631    5.481266   -0.187225
     72          1           0        3.836551    3.753702   -1.182294
     73          1           0        3.980888    2.000036   -1.764121
     74          1           0        4.550947    1.345094    0.335138
     75          1           0        4.390074    3.093417    0.928592
     76          1           0       -1.329726   -0.099500    2.746173
     77          1           0       -0.062202    0.041647    1.834548
     78          1           0       -1.575316    0.629218   -1.201333
     79          1           0       -0.307792    0.770365   -2.112958
     80          1           0        6.948956    3.996294   -1.049296
     81          1           0        6.694223   -1.633694    2.127173
 ---------------------------------------------------------------------
 Rotational constants (GHZ):           0.0921782           0.0514608           0.0344033
 Standard basis: def2TZVP (5D, 7F)
 There are  1852 symmetry adapted cartesian basis functions of A   symmetry.
 There are  1625 symmetry adapted basis functions of A   symmetry.
  1625 basis functions,  2634 primitive gaussians,  1852 cartesian basis functions
   173 alpha electrons      169 beta electrons
       nuclear repulsion energy      6425.8624552670 Hartrees.
 NAtoms=   81 NActive=   81 NUniq=   81 SFac= 1.00D+00 NAtFMM=   60 NAOKFM=T Big=T
 Integral buffers will be    131072 words long.
 Raffenetti 2 integral format.
 Two-electron integral symmetry is turned on.
 Nuclear repulsion after empirical dispersion term =     6425.7519075358 Hartrees.
 One-electron integrals computed using PRISM.
   1 Symmetry operations used in ECPInt.
 ECPInt:  NShTT=  207046 NPrTT=  642413 LenC2=  150115 LenP2D=  305059.
 LDataN:  DoStor=T MaxTD1= 6 Len=  172
 NBasis=  1625 RedAO= T EigKep=  3.11D-06  NBF=  1625
 NBsUse=  1625 1.00D-06 EigRej= -1.00D+00 NBFU=  1625
 ExpMin= 4.20D-02 ExpMax= 3.01D+05 ExpMxC= 2.91D+03 IAcc=3 IRadAn=         5 AccDes= 0.00D+00
 Harris functional with IExCor= 1009 and IRadAn=       5 diagonalized for initial guess.
 HarFok:  IExCor= 1009 AccDes= 0.00D+00 IRadAn=         5 IDoV= 1 UseB2=F ITyADJ=14
 ICtDFT=  3500011 ScaDFX=  1.000000  1.000000  1.000000  1.000000
 FoFCou: FMM=F IPFlag=           0 FMFlag=      100000 FMFlg1=        2001
         NFxFlg=           0 DoJE=T BraDBF=F KetDBF=T FulRan=T
         wScrn=  0.000000 ICntrl=       500 IOpCl=  0 I1Cent=   200000004 NGrid=           0
         NMat0=    1 NMatS0=      1 NMatT0=    0 NMatD0=    1 NMtDS0=    0 NMtDT0=    0
 Petite list used in FoFCou.
 Initial guess <Sx>= 0.0000 <Sy>= 0.0000 <Sz>= 2.0000 <S**2>= 6.0000 S= 2.0000
 Requested convergence on RMS density matrix=1.00D-08 within 128 cycles.
 Requested convergence on MAX density matrix=1.00D-06.
 Requested convergence on             energy=1.00D-06.
 No special actions if energy rises.
 EnCoef did   100 forward-backward iterations
 EnCoef did     6 forward-backward iterations
 EnCoef did     5 forward-backward iterations
 EnCoef did    10 forward-backward iterations
 Rare condition: small coef for last iteration:  0.000D+00
 Rare condition: small coef for last iteration:  0.000D+00
 Restarting incremental Fock formation.
 Restarting incremental Fock formation.
 Restarting incremental Fock formation.
 SCF Done:  E(UPBE1PBE) =  -3249.19083140     A.U. after   67 cycles
            NFock= 67  Conv=0.28D-08     -V/T= 2.0024
 <Sx>= 0.0000 <Sy>= 0.0000 <Sz>= 2.0000 <S**2>= 6.5582 S= 2.1092
 <L.S>= 0.000000000000E+00
 Annihilation of the first spin contaminant:
 S**2 before annihilation     6.5582,   after     6.0406

 **********************************************************************

            Population analysis using the SCF density.

 **********************************************************************

 Orbital symmetries:
 Alpha Orbitals:
       Occupied  (A) (A) (A) (A) (A) (A) (A) (A) (A) (A) (A) (A)
                 (A) (A) (A) (A) (A) (A) (A) (A) (A) (A) (A) (A)
                 (A) (A) (A) (A) (A) (A) (A) (A) (A) (A) (A) (A)
                 (A) (A) (A) (A) (A) (A) (A) (A) (A) (A) (A) (A)
                 (A) (A) (A) (A) (A) (A) (A) (A) (A) (A) (A) (A)
                 (A) (A) (A) (A) (A) (A) (A) (A) (A) (A) (A) (A)
                 (A) (A) (A) (A) (A) (A) (A) (A) (A) (A) (A) (A)
                 (A) (A) (A) (A) (A) (A) (A) (A) (A) (A) (A) (A)
                 (A) (A) (A) (A) (A) (A) (A) (A) (A) (A) (A) (A)
                 (A) (A) (A) (A) (A) (A) (A) (A) (A) (A) (A) (A)
                 (A) (A) (A) (A) (A) (A) (A) (A) (A) (A) (A) (A)
                 (A) (A) (A) (A) (A) (A) (A) (A) (A) (A) (A) (A)
                 (A) (A) (A) (A) (A) (A) (A) (A) (A) (A) (A) (A)
                 (A) (A) (A) (A) (A) (A) (A) (A) (A) (A) (A) (A)
                 (A) (A) (A) (A) (A)
       Virtual   (A) (A) (A) (A) (A) (A) (A) (A) (A) (A) (A) (A)
                 (A) (A) (A) (A) (A) (A) (A) (A) (A) (A) (A) (A)
                 (A) (A) (A) (A) (A) (A) (A) (A) (A) (A) (A) (A)
                 (A) (A) (A) (A) (A) (A) (A) (A) (A) (A) (A) (A)
                 (A) (A) (A) (A) (A) (A) (A) (A) (A) (A) (A) (A)
                 (A) (A) (A) (A) (A) (A) (A) (A) (A) (A) (A) (A)
                 (A) (A) (A) (A) (A) (A) (A) (A) (A) (A) (A) (A)
                 (A) (A) (A) (A) (A) (A) (A) (A) (A) (A) (A) (A)
                 (A) (A) (A) (A) (A) (A) (A) (A) (A) (A) (A) (A)
                 (A) (A) (A) (A) (A) (A) (A) (A) (A) (A) (A) (A)
                 (A) (A) (A) (A) (A) (A) (A) (A) (A) (A) (A) (A)
                 (A) (A) (A) (A) (A) (A) (A) (A) (A) (A) (A) (A)
                 (A) (A) (A) (A) (A) (A) (A) (A) (A) (A) (A) (A)
                 (A) (A) (A) (A) (A) (A) (A) (A) (A) (A) (A) (A)
                 (A) (A) (A) (A) (A) (A) (A) (A) (A) (A) (A) (A)
                 (A) (A) (A) (A) (A) (A) (A) (A) (A) (A) (A) (A)
                 (A) (A) (A) (A) (A) (A) (A) (A) (A) (A) (A) (A)
                 (A) (A) (A) (A) (A) (A) (A) (A) (A) (A) (A) (A)
                 (A) (A) (A) (A) (A) (A) (A) (A) (A) (A) (A) (A)
                 (A) (A) (A) (A) (A) (A) (A) (A) (A) (A) (A) (A)
                 (A) (A) (A) (A) (A) (A) (A) (A) (A) (A) (A) (A)
                 (A) (A) (A) (A) (A) (A) (A) (A) (A) (A) (A) (A)
                 (A) (A) (A) (A) (A) (A) (A) (A) (A) (A) (A) (A)
                 (A) (A) (A) (A) (A) (A) (A) (A) (A) (A) (A) (A)
                 (A) (A) (A) (A) (A) (A) (A) (A) (A) (A) (A) (A)
                 (A) (A) (A) (A) (A) (A) (A) (A) (A) (A) (A) (A)
                 (A) (A) (A) (A) (A) (A) (A) (A) (A) (A) (A) (A)
                 (A) (A) (A) (A) (A) (A) (A) (A) (A) (A) (A) (A)
                 (A) (A) (A) (A) (A) (A) (A) (A) (A) (A) (A) (A)
                 (A) (A) (A) (A) (A) (A) (A) (A) (A) (A) (A) (A)
                 (A) (A) (A) (A) (A) (A) (A) (A) (A) (A) (A) (A)
                 (A) (A) (A) (A) (A) (A) (A) (A) (A) (A) (A) (A)
                 (A) (A) (A) (A) (A) (A) (A) (A) (A) (A) (A) (A)
                 (A) (A) (A) (A) (A) (A) (A) (A) (A) (A) (A) (A)
                 (A) (A) (A) (A) (A) (A) (A) (A) (A) (A) (A) (A)
                 (A) (A) (A) (A) (A) (A) (A) (A) (A) (A) (A) (A)
                 (A) (A) (A) (A) (A) (A) (A) (A) (A) (A) (A) (A)
                 (A) (A) (A) (A) (A) (A) (A) (A) (A) (A) (A) (A)
                 (A) (A) (A) (A) (A) (A) (A) (A) (A) (A) (A) (A)
                 (A) (A) (A) (A) (A) (A) (A) (A) (A) (A) (A) (A)
                 (A) (A) (A) (A) (A) (A) (A) (A) (A) (A) (A) (A)
                 (A) (A) (A) (A) (A) (A) (A) (A) (A) (A) (A) (A)
                 (A) (A) (A) (A) (A) (A) (A) (A) (A) (A) (A) (A)
                 (A) (A) (A) (A) (A) (A) (A) (A) (A) (A) (A) (A)
                 (A) (A) (A) (A) (A) (A) (A) (A) (A) (A) (A) (A)
                 (A) (A) (A) (A) (A) (A) (A) (A) (A) (A) (A) (A)
                 (A) (A) (A) (A) (A) (A) (A) (A) (A) (A) (A) (A)
                 (A) (A) (A) (A) (A) (A) (A) (A) (A) (A) (A) (A)
                 (A) (A) (A) (A) (A) (A) (A) (A) (A) (A) (A) (A)
                 (A) (A) (A) (A) (A) (A) (A) (A) (A) (A) (A) (A)
                 (A) (A) (A) (A) (A) (A) (A) (A) (A) (A) (A) (A)
                 (A) (A) (A) (A) (A) (A) (A) (A) (A) (A) (A) (A)
                 (A) (A) (A) (A) (A) (A) (A) (A) (A) (A) (A) (A)
                 (A) (A) (A) (A) (A) (A) (A) (A) (A) (A) (A) (A)
                 (A) (A) (A) (A) (A) (A) (A) (A) (A) (A) (A) (A)
                 (A) (A) (A) (A) (A) (A) (A) (A) (A) (A) (A) (A)
                 (A) (A) (A) (A) (A) (A) (A) (A) (A) (A) (A) (A)
                 (A) (A) (A) (A) (A) (A) (A) (A) (A) (A) (A) (A)
                 (A) (A) (A) (A) (A) (A) (A) (A) (A) (A) (A) (A)
                 (A) (A) (A) (A) (A) (A) (A) (A) (A) (A) (A) (A)
                 (A) (A) (A) (A) (A) (A) (A) (A) (A) (A) (A) (A)
                 (A) (A) (A) (A) (A) (A) (A) (A) (A) (A) (A) (A)
                 (A) (A) (A) (A) (A) (A) (A) (A) (A) (A) (A) (A)
                 (A) (A) (A) (A) (A) (A) (A) (A) (A) (A) (A) (A)
                 (A) (A) (A) (A) (A) (A) (A) (A) (A) (A) (A) (A)
                 (A) (A) (A) (A) (A) (A) (A) (A) (A) (A) (A) (A)
                 (A) (A) (A) (A) (A) (A) (A) (A) (A) (A) (A) (A)
                 (A) (A) (A) (A) (A) (A) (A) (A) (A) (A) (A) (A)
                 (A) (A) (A) (A) (A) (A) (A) (A) (A) (A) (A) (A)
                 (A) (A) (A) (A) (A) (A) (A) (A) (A) (A) (A) (A)
                 (A) (A) (A) (A) (A) (A) (A) (A) (A) (A) (A) (A)
                 (A) (A) (A) (A) (A) (A) (A) (A) (A) (A) (A) (A)
                 (A) (A) (A) (A) (A) (A) (A) (A) (A) (A) (A) (A)
                 (A) (A) (A) (A) (A) (A) (A) (A) (A) (A) (A) (A)
                 (A) (A) (A) (A) (A) (A) (A) (A) (A) (A) (A) (A)
                 (A) (A) (A) (A) (A) (A) (A) (A) (A) (A) (A) (A)
                 (A) (A) (A) (A) (A) (A) (A) (A) (A) (A) (A) (A)
                 (A) (A) (A) (A) (A) (A) (A) (A) (A) (A) (A) (A)
                 (A) (A) (A) (A) (A) (A) (A) (A) (A) (A) (A) (A)
                 (A) (A) (A) (A) (A) (A) (A) (A) (A) (A) (A) (A)
                 (A) (A) (A) (A) (A) (A) (A) (A) (A) (A) (A) (A)
                 (A) (A) (A) (A) (A) (A) (A) (A) (A) (A) (A) (A)
                 (A) (A) (A) (A) (A) (A) (A) (A) (A) (A) (A) (A)
                 (A) (A) (A) (A) (A) (A) (A) (A) (A) (A) (A) (A)
                 (A) (A) (A) (A) (A) (A) (A) (A) (A) (A) (A) (A)
                 (A) (A) (A) (A) (A) (A) (A) (A) (A) (A) (A) (A)
                 (A) (A) (A) (A) (A) (A) (A) (A) (A) (A) (A) (A)
                 (A) (A) (A) (A) (A) (A) (A) (A) (A) (A) (A) (A)
                 (A) (A) (A) (A) (A) (A) (A) (A) (A) (A) (A) (A)
                 (A) (A) (A) (A) (A) (A) (A) (A) (A) (A) (A) (A)
                 (A) (A) (A) (A) (A) (A) (A) (A) (A) (A) (A) (A)
                 (A) (A) (A) (A) (A) (A) (A) (A) (A) (A) (A) (A)
                 (A) (A) (A) (A) (A) (A) (A) (A) (A) (A) (A) (A)
                 (A) (A) (A) (A) (A) (A) (A) (A) (A) (A) (A) (A)
                 (A) (A) (A) (A) (A) (A) (A) (A) (A) (A) (A) (A)
                 (A) (A) (A) (A) (A) (A) (A) (A) (A) (A) (A) (A)
                 (A) (A) (A) (A) (A) (A) (A) (A) (A) (A) (A) (A)
                 (A) (A) (A) (A) (A) (A) (A) (A) (A) (A) (A) (A)
                 (A) (A) (A) (A) (A) (A) (A) (A) (A) (A) (A) (A)
                 (A) (A) (A) (A) (A) (A) (A) (A) (A) (A) (A) (A)
                 (A) (A) (A) (A) (A) (A) (A) (A) (A) (A) (A) (A)
                 (A) (A) (A) (A) (A) (A) (A) (A) (A) (A) (A) (A)
                 (A) (A) (A) (A) (A) (A) (A) (A) (A) (A) (A) (A)
                 (A) (A) (A) (A) (A) (A) (A) (A) (A) (A) (A) (A)
                 (A) (A) (A) (A) (A) (A) (A) (A) (A) (A) (A) (A)
                 (A) (A) (A) (A) (A) (A) (A) (A) (A) (A) (A) (A)
                 (A) (A) (A) (A) (A) (A) (A) (A) (A) (A) (A) (A)
                 (A) (A) (A) (A) (A) (A) (A) (A) (A) (A) (A) (A)
                 (A) (A) (A) (A) (A) (A) (A) (A) (A) (A) (A) (A)
                 (A) (A) (A) (A) (A) (A) (A) (A) (A) (A) (A) (A)
                 (A) (A) (A) (A) (A) (A) (A) (A) (A) (A) (A) (A)
                 (A) (A) (A) (A) (A) (A) (A) (A) (A) (A) (A) (A)
                 (A) (A) (A) (A) (A) (A) (A) (A) (A) (A) (A) (A)
                 (A) (A) (A) (A) (A) (A) (A) (A) (A) (A) (A) (A)
                 (A) (A) (A) (A) (A) (A) (A) (A) (A) (A) (A) (A)
                 (A) (A) (A) (A) (A) (A) (A) (A) (A) (A) (A) (A)
                 (A) (A) (A) (A) (A) (A) (A) (A) (A) (A) (A) (A)
                 (A) (A) (A) (A) (A) (A) (A) (A) (A) (A) (A) (A)
                 (A) (A) (A) (A) (A) (A) (A) (A) (A) (A) (A) (A)
                 (A) (A) (A) (A) (A) (A) (A) (A) (A) (A) (A) (A)
                 (A) (A) (A) (A) (A) (A) (A) (A) (A) (A) (A) (A)
 Beta  Orbitals:
       Occupied  (A) (A) (A) (A) (A) (A) (A) (A) (A) (A) (A) (A)
                 (A) (A) (A) (A) (A) (A) (A) (A) (A) (A) (A) (A)
                 (A) (A) (A) (A) (A) (A) (A) (A) (A) (A) (A) (A)
                 (A) (A) (A) (A) (A) (A) (A) (A) (A) (A) (A) (A)
                 (A) (A) (A) (A) (A) (A) (A) (A) (A) (A) (A) (A)
                 (A) (A) (A) (A) (A) (A) (A) (A) (A) (A) (A) (A)
                 (A) (A) (A) (A) (A) (A) (A) (A) (A) (A) (A) (A)
                 (A) (A) (A) (A) (A) (A) (A) (A) (A) (A) (A) (A)
                 (A) (A) (A) (A) (A) (A) (A) (A) (A) (A) (A) (A)
                 (A) (A) (A) (A) (A) (A) (A) (A) (A) (A) (A) (A)
                 (A) (A) (A) (A) (A) (A) (A) (A) (A) (A) (A) (A)
                 (A) (A) (A) (A) (A) (A) (A) (A) (A) (A) (A) (A)
                 (A) (A) (A) (A) (A) (A) (A) (A) (A) (A) (A) (A)
                 (A) (A) (A) (A) (A) (A) (A) (A) (A) (A) (A) (A)
                 (A)
       Virtual   (A) (A) (A) (A) (A) (A) (A) (A) (A) (A) (A) (A)
                 (A) (A) (A) (A) (A) (A) (A) (A) (A) (A) (A) (A)
                 (A) (A) (A) (A) (A) (A) (A) (A) (A) (A) (A) (A)
                 (A) (A) (A) (A) (A) (A) (A) (A) (A) (A) (A) (A)
                 (A) (A) (A) (A) (A) (A) (A) (A) (A) (A) (A) (A)
                 (A) (A) (A) (A) (A) (A) (A) (A) (A) (A) (A) (A)
                 (A) (A) (A) (A) (A) (A) (A) (A) (A) (A) (A) (A)
                 (A) (A) (A) (A) (A) (A) (A) (A) (A) (A) (A) (A)
                 (A) (A) (A) (A) (A) (A) (A) (A) (A) (A) (A) (A)
                 (A) (A) (A) (A) (A) (A) (A) (A) (A) (A) (A) (A)
                 (A) (A) (A) (A) (A) (A) (A) (A) (A) (A) (A) (A)
                 (A) (A) (A) (A) (A) (A) (A) (A) (A) (A) (A) (A)
                 (A) (A) (A) (A) (A) (A) (A) (A) (A) (A) (A) (A)
                 (A) (A) (A) (A) (A) (A) (A) (A) (A) (A) (A) (A)
                 (A) (A) (A) (A) (A) (A) (A) (A) (A) (A) (A) (A)
                 (A) (A) (A) (A) (A) (A) (A) (A) (A) (A) (A) (A)
                 (A) (A) (A) (A) (A) (A) (A) (A) (A) (A) (A) (A)
                 (A) (A) (A) (A) (A) (A) (A) (A) (A) (A) (A) (A)
                 (A) (A) (A) (A) (A) (A) (A) (A) (A) (A) (A) (A)
                 (A) (A) (A) (A) (A) (A) (A) (A) (A) (A) (A) (A)
                 (A) (A) (A) (A) (A) (A) (A) (A) (A) (A) (A) (A)
                 (A) (A) (A) (A) (A) (A) (A) (A) (A) (A) (A) (A)
                 (A) (A) (A) (A) (A) (A) (A) (A) (A) (A) (A) (A)
                 (A) (A) (A) (A) (A) (A) (A) (A) (A) (A) (A) (A)
                 (A) (A) (A) (A) (A) (A) (A) (A) (A) (A) (A) (A)
                 (A) (A) (A) (A) (A) (A) (A) (A) (A) (A) (A) (A)
                 (A) (A) (A) (A) (A) (A) (A) (A) (A) (A) (A) (A)
                 (A) (A) (A) (A) (A) (A) (A) (A) (A) (A) (A) (A)
                 (A) (A) (A) (A) (A) (A) (A) (A) (A) (A) (A) (A)
                 (A) (A) (A) (A) (A) (A) (A) (A) (A) (A) (A) (A)
                 (A) (A) (A) (A) (A) (A) (A) (A) (A) (A) (A) (A)
                 (A) (A) (A) (A) (A) (A) (A) (A) (A) (A) (A) (A)
                 (A) (A) (A) (A) (A) (A) (A) (A) (A) (A) (A) (A)
                 (A) (A) (A) (A) (A) (A) (A) (A) (A) (A) (A) (A)
                 (A) (A) (A) (A) (A) (A) (A) (A) (A) (A) (A) (A)
                 (A) (A) (A) (A) (A) (A) (A) (A) (A) (A) (A) (A)
                 (A) (A) (A) (A) (A) (A) (A) (A) (A) (A) (A) (A)
                 (A) (A) (A) (A) (A) (A) (A) (A) (A) (A) (A) (A)
                 (A) (A) (A) (A) (A) (A) (A) (A) (A) (A) (A) (A)
                 (A) (A) (A) (A) (A) (A) (A) (A) (A) (A) (A) (A)
                 (A) (A) (A) (A) (A) (A) (A) (A) (A) (A) (A) (A)
                 (A) (A) (A) (A) (A) (A) (A) (A) (A) (A) (A) (A)
                 (A) (A) (A) (A) (A) (A) (A) (A) (A) (A) (A) (A)
                 (A) (A) (A) (A) (A) (A) (A) (A) (A) (A) (A) (A)
                 (A) (A) (A) (A) (A) (A) (A) (A) (A) (A) (A) (A)
                 (A) (A) (A) (A) (A) (A) (A) (A) (A) (A) (A) (A)
                 (A) (A) (A) (A) (A) (A) (A) (A) (A) (A) (A) (A)
                 (A) (A) (A) (A) (A) (A) (A) (A) (A) (A) (A) (A)
                 (A) (A) (A) (A) (A) (A) (A) (A) (A) (A) (A) (A)
                 (A) (A) (A) (A) (A) (A) (A) (A) (A) (A) (A) (A)
                 (A) (A) (A) (A) (A) (A) (A) (A) (A) (A) (A) (A)
                 (A) (A) (A) (A) (A) (A) (A) (A) (A) (A) (A) (A)
                 (A) (A) (A) (A) (A) (A) (A) (A) (A) (A) (A) (A)
                 (A) (A) (A) (A) (A) (A) (A) (A) (A) (A) (A) (A)
                 (A) (A) (A) (A) (A) (A) (A) (A) (A) (A) (A) (A)
                 (A) (A) (A) (A) (A) (A) (A) (A) (A) (A) (A) (A)
                 (A) (A) (A) (A) (A) (A) (A) (A) (A) (A) (A) (A)
                 (A) (A) (A) (A) (A) (A) (A) (A) (A) (A) (A) (A)
                 (A) (A) (A) (A) (A) (A) (A) (A) (A) (A) (A) (A)
                 (A) (A) (A) (A) (A) (A) (A) (A) (A) (A) (A) (A)
                 (A) (A) (A) (A) (A) (A) (A) (A) (A) (A) (A) (A)
                 (A) (A) (A) (A) (A) (A) (A) (A) (A) (A) (A) (A)
                 (A) (A) (A) (A) (A) (A) (A) (A) (A) (A) (A) (A)
                 (A) (A) (A) (A) (A) (A) (A) (A) (A) (A) (A) (A)
                 (A) (A) (A) (A) (A) (A) (A) (A) (A) (A) (A) (A)
                 (A) (A) (A) (A) (A) (A) (A) (A) (A) (A) (A) (A)
                 (A) (A) (A) (A) (A) (A) (A) (A) (A) (A) (A) (A)
                 (A) (A) (A) (A) (A) (A) (A) (A) (A) (A) (A) (A)
                 (A) (A) (A) (A) (A) (A) (A) (A) (A) (A) (A) (A)
                 (A) (A) (A) (A) (A) (A) (A) (A) (A) (A) (A) (A)
                 (A) (A) (A) (A) (A) (A) (A) (A) (A) (A) (A) (A)
                 (A) (A) (A) (A) (A) (A) (A) (A) (A) (A) (A) (A)
                 (A) (A) (A) (A) (A) (A) (A) (A) (A) (A) (A) (A)
                 (A) (A) (A) (A) (A) (A) (A) (A) (A) (A) (A) (A)
                 (A) (A) (A) (A) (A) (A) (A) (A) (A) (A) (A) (A)
                 (A) (A) (A) (A) (A) (A) (A) (A) (A) (A) (A) (A)
                 (A) (A) (A) (A) (A) (A) (A) (A) (A) (A) (A) (A)
                 (A) (A) (A) (A) (A) (A) (A) (A) (A) (A) (A) (A)
                 (A) (A) (A) (A) (A) (A) (A) (A) (A) (A) (A) (A)
                 (A) (A) (A) (A) (A) (A) (A) (A) (A) (A) (A) (A)
                 (A) (A) (A) (A) (A) (A) (A) (A) (A) (A) (A) (A)
                 (A) (A) (A) (A) (A) (A) (A) (A) (A) (A) (A) (A)
                 (A) (A) (A) (A) (A) (A) (A) (A) (A) (A) (A) (A)
                 (A) (A) (A) (A) (A) (A) (A) (A) (A) (A) (A) (A)
                 (A) (A) (A) (A) (A) (A) (A) (A) (A) (A) (A) (A)
                 (A) (A) (A) (A) (A) (A) (A) (A) (A) (A) (A) (A)
                 (A) (A) (A) (A) (A) (A) (A) (A) (A) (A) (A) (A)
                 (A) (A) (A) (A) (A) (A) (A) (A) (A) (A) (A) (A)
                 (A) (A) (A) (A) (A) (A) (A) (A) (A) (A) (A) (A)
                 (A) (A) (A) (A) (A) (A) (A) (A) (A) (A) (A) (A)
                 (A) (A) (A) (A) (A) (A) (A) (A) (A) (A) (A) (A)
                 (A) (A) (A) (A) (A) (A) (A) (A) (A) (A) (A) (A)
                 (A) (A) (A) (A) (A) (A) (A) (A) (A) (A) (A) (A)
                 (A) (A) (A) (A) (A) (A) (A) (A) (A) (A) (A) (A)
                 (A) (A) (A) (A) (A) (A) (A) (A) (A) (A) (A) (A)
                 (A) (A) (A) (A) (A) (A) (A) (A) (A) (A) (A) (A)
                 (A) (A) (A) (A) (A) (A) (A) (A) (A) (A) (A) (A)
                 (A) (A) (A) (A) (A) (A) (A) (A) (A) (A) (A) (A)
                 (A) (A) (A) (A) (A) (A) (A) (A) (A) (A) (A) (A)
                 (A) (A) (A) (A) (A) (A) (A) (A) (A) (A) (A) (A)
                 (A) (A) (A) (A) (A) (A) (A) (A) (A) (A) (A) (A)
                 (A) (A) (A) (A) (A) (A) (A) (A) (A) (A) (A) (A)
                 (A) (A) (A) (A) (A) (A) (A) (A) (A) (A) (A) (A)
                 (A) (A) (A) (A) (A) (A) (A) (A) (A) (A) (A) (A)
                 (A) (A) (A) (A) (A) (A) (A) (A) (A) (A) (A) (A)
                 (A) (A) (A) (A) (A) (A) (A) (A) (A) (A) (A) (A)
                 (A) (A) (A) (A) (A) (A) (A) (A) (A) (A) (A) (A)
                 (A) (A) (A) (A) (A) (A) (A) (A) (A) (A) (A) (A)
                 (A) (A) (A) (A) (A) (A) (A) (A) (A) (A) (A) (A)
                 (A) (A) (A) (A) (A) (A) (A) (A) (A) (A) (A) (A)
                 (A) (A) (A) (A) (A) (A) (A) (A) (A) (A) (A) (A)
                 (A) (A) (A) (A) (A) (A) (A) (A) (A) (A) (A) (A)
                 (A) (A) (A) (A) (A) (A) (A) (A) (A) (A) (A) (A)
                 (A) (A) (A) (A) (A) (A) (A) (A) (A) (A) (A) (A)
                 (A) (A) (A) (A) (A) (A) (A) (A) (A) (A) (A) (A)
                 (A) (A) (A) (A) (A) (A) (A) (A) (A) (A) (A) (A)
                 (A) (A) (A) (A) (A) (A) (A) (A) (A) (A) (A) (A)
                 (A) (A) (A) (A) (A) (A) (A) (A) (A) (A) (A) (A)
                 (A) (A) (A) (A) (A) (A) (A) (A) (A) (A) (A) (A)
                 (A) (A) (A) (A) (A) (A) (A) (A) (A) (A) (A) (A)
                 (A) (A) (A) (A) (A) (A) (A) (A) (A) (A) (A) (A)
                 (A) (A) (A) (A)
 The electronic state is 5-A.
 Alpha  occ. eigenvalues -- -256.33437 -30.12005 -25.95069 -25.94503 -25.93176
 Alpha  occ. eigenvalues --  -19.26577 -19.25329 -19.24048 -19.19875 -19.18317
 Alpha  occ. eigenvalues --  -19.16826 -14.39542 -14.37795 -14.37663 -14.37122
 Alpha  occ. eigenvalues --  -10.35369 -10.34065 -10.27864 -10.26788 -10.26680
 Alpha  occ. eigenvalues --  -10.26018 -10.25852 -10.25722 -10.25552 -10.25153
 Alpha  occ. eigenvalues --  -10.25011 -10.24840 -10.24676 -10.24394 -10.23602
 Alpha  occ. eigenvalues --  -10.23593 -10.23549 -10.23378 -10.23293 -10.23292
 Alpha  occ. eigenvalues --  -10.23197 -10.23176 -10.23151 -10.23084 -10.23020
 Alpha  occ. eigenvalues --  -10.23000 -10.22914 -10.22774 -10.22576 -10.22568
 Alpha  occ. eigenvalues --  -10.22297 -10.21898 -10.21783 -10.20148  -3.51445
 Alpha  occ. eigenvalues --   -2.29935  -2.28465  -2.24099  -1.19131  -1.17552
 Alpha  occ. eigenvalues --   -1.08290  -1.05957  -1.04146  -1.02811  -1.02211
 Alpha  occ. eigenvalues --   -1.01444  -1.00534  -0.99641  -0.86963  -0.86751
 Alpha  occ. eigenvalues --   -0.86053  -0.85137  -0.84392  -0.83026  -0.82451
 Alpha  occ. eigenvalues --   -0.81092  -0.80392  -0.80116  -0.79082  -0.76377
 Alpha  occ. eigenvalues --   -0.76130  -0.75300  -0.74170  -0.73405  -0.71666
 Alpha  occ. eigenvalues --   -0.71398  -0.69406  -0.68289  -0.68085  -0.67357
 Alpha  occ. eigenvalues --   -0.66461  -0.65827  -0.64218  -0.60599  -0.60505
 Alpha  occ. eigenvalues --   -0.59913  -0.59179  -0.57993  -0.57002  -0.56825
 Alpha  occ. eigenvalues --   -0.55705  -0.54825  -0.54630  -0.53989  -0.53266
 Alpha  occ. eigenvalues --   -0.52771  -0.52424  -0.51874  -0.51207  -0.50796
 Alpha  occ. eigenvalues --   -0.50626  -0.50345  -0.49974  -0.49278  -0.48307
 Alpha  occ. eigenvalues --   -0.47818  -0.47740  -0.47274  -0.46308  -0.46123
 Alpha  occ. eigenvalues --   -0.46065  -0.45731  -0.45539  -0.45283  -0.44884
 Alpha  occ. eigenvalues --   -0.44586  -0.43992  -0.43842  -0.43638  -0.42860
 Alpha  occ. eigenvalues --   -0.42599  -0.42584  -0.42028  -0.41721  -0.41706
 Alpha  occ. eigenvalues --   -0.41261  -0.40930  -0.40730  -0.40463  -0.40154
 Alpha  occ. eigenvalues --   -0.39783  -0.39453  -0.39161  -0.38887  -0.38662
 Alpha  occ. eigenvalues --   -0.38415  -0.38269  -0.38072  -0.37924  -0.37568
 Alpha  occ. eigenvalues --   -0.37184  -0.36116  -0.35709  -0.34695  -0.34206
 Alpha  occ. eigenvalues --   -0.33797  -0.33718  -0.32690  -0.32592  -0.31680
 Alpha  occ. eigenvalues --   -0.30655  -0.30436  -0.30067  -0.29273  -0.29113
 Alpha  occ. eigenvalues --   -0.28757  -0.27452  -0.27237  -0.27073  -0.26493
 Alpha  occ. eigenvalues --   -0.25735  -0.25180  -0.23338  -0.22703  -0.20998
 Alpha  occ. eigenvalues --   -0.20622  -0.20116  -0.16582
 Alpha virt. eigenvalues --   -0.10329  -0.07617  -0.05857  -0.02673  -0.01851
 Alpha virt. eigenvalues --   -0.01596  -0.01122  -0.00220   0.01232   0.01733
 Alpha virt. eigenvalues --    0.03178   0.03551   0.03825   0.03982   0.04525
 Alpha virt. eigenvalues --    0.04944   0.05342   0.05597   0.06442   0.06894
 Alpha virt. eigenvalues --    0.07127   0.07289   0.07667   0.07782   0.08266
 Alpha virt. eigenvalues --    0.08351   0.08933   0.09461   0.09727   0.10249
 Alpha virt. eigenvalues --    0.10561   0.10717   0.11221   0.11725   0.12099
 Alpha virt. eigenvalues --    0.12201   0.12465   0.12901   0.13237   0.13332
 Alpha virt. eigenvalues --    0.13491   0.13676   0.13737   0.14446   0.14945
 Alpha virt. eigenvalues --    0.15085   0.15249   0.15346   0.15947   0.15970
 Alpha virt. eigenvalues --    0.16176   0.16424   0.16578   0.16925   0.17335
 Alpha virt. eigenvalues --    0.17630   0.17654   0.17998   0.18358   0.18565
 Alpha virt. eigenvalues --    0.18930   0.19360   0.19484   0.19628   0.19706
 Alpha virt. eigenvalues --    0.20182   0.20382   0.20769   0.20894   0.21194
 Alpha virt. eigenvalues --    0.21356   0.21491   0.21655   0.21735   0.22061
 Alpha virt. eigenvalues --    0.22257   0.22348   0.22789   0.23025   0.23259
 Alpha virt. eigenvalues --    0.23497   0.23819   0.24056   0.24091   0.24460
 Alpha virt. eigenvalues --    0.24646   0.24776   0.25309   0.25558   0.25707
 Alpha virt. eigenvalues --    0.26104   0.26221   0.26578   0.26747   0.26831
 Alpha virt. eigenvalues --    0.27216   0.27482   0.27810   0.28008   0.28090
 Alpha virt. eigenvalues --    0.28482   0.28705   0.28826   0.29016   0.29221
 Alpha virt. eigenvalues --    0.29418   0.29640   0.30033   0.30152   0.30292
 Alpha virt. eigenvalues --    0.30584   0.30833   0.31190   0.31357   0.31800
 Alpha virt. eigenvalues --    0.32011   0.32353   0.32725   0.32923   0.33682
 Alpha virt. eigenvalues --    0.33735   0.34275   0.34515   0.34780   0.35023
 Alpha virt. eigenvalues --    0.35152   0.35230   0.35512   0.35767   0.35909
 Alpha virt. eigenvalues --    0.36241   0.36559   0.36964   0.37263   0.37440
 Alpha virt. eigenvalues --    0.37764   0.38040   0.38099   0.38167   0.38377
 Alpha virt. eigenvalues --    0.38725   0.38971   0.38988   0.39365   0.39477
 Alpha virt. eigenvalues --    0.39857   0.39993   0.40219   0.40456   0.40808
 Alpha virt. eigenvalues --    0.41027   0.41111   0.41428   0.41573   0.41966
 Alpha virt. eigenvalues --    0.42050   0.42306   0.42427   0.42556   0.43148
 Alpha virt. eigenvalues --    0.43239   0.43434   0.43804   0.44088   0.44314
 Alpha virt. eigenvalues --    0.44531   0.44634   0.44770   0.45023   0.45246
 Alpha virt. eigenvalues --    0.45401   0.45623   0.45851   0.46118   0.46219
 Alpha virt. eigenvalues --    0.46503   0.46608   0.46802   0.46990   0.47394
 Alpha virt. eigenvalues --    0.47711   0.48126   0.48219   0.48473   0.48563
 Alpha virt. eigenvalues --    0.48795   0.48931   0.49251   0.49508   0.49789
 Alpha virt. eigenvalues --    0.49936   0.50161   0.50405   0.50617   0.50695
 Alpha virt. eigenvalues --    0.51098   0.51273   0.51565   0.51967   0.52063
 Alpha virt. eigenvalues --    0.52150   0.52446   0.53003   0.53135   0.53409
 Alpha virt. eigenvalues --    0.53530   0.53997   0.54097   0.54483   0.54589
 Alpha virt. eigenvalues --    0.54846   0.55020   0.55472   0.55552   0.56061
 Alpha virt. eigenvalues --    0.56314   0.56388   0.56691   0.56998   0.57503
 Alpha virt. eigenvalues --    0.57802   0.57979   0.58218   0.58398   0.58796
 Alpha virt. eigenvalues --    0.58883   0.59273   0.59425   0.59942   0.60139
 Alpha virt. eigenvalues --    0.60240   0.60355   0.60803   0.61123   0.61360
 Alpha virt. eigenvalues --    0.61575   0.61887   0.61932   0.62472   0.62738
 Alpha virt. eigenvalues --    0.62982   0.63325   0.63516   0.63883   0.64013
 Alpha virt. eigenvalues --    0.64248   0.64617   0.64958   0.65167   0.65614
 Alpha virt. eigenvalues --    0.65664   0.65916   0.66441   0.66683   0.66902
 Alpha virt. eigenvalues --    0.67203   0.67383   0.67803   0.67912   0.67969
 Alpha virt. eigenvalues --    0.68363   0.69004   0.69267   0.69438   0.69630
 Alpha virt. eigenvalues --    0.69698   0.70170   0.70647   0.70947   0.71089
 Alpha virt. eigenvalues --    0.71457   0.71498   0.71678   0.72122   0.72351
 Alpha virt. eigenvalues --    0.72957   0.73119   0.73604   0.73710   0.73877
 Alpha virt. eigenvalues --    0.74132   0.74657   0.75034   0.75373   0.75638
 Alpha virt. eigenvalues --    0.75814   0.76153   0.76649   0.76922   0.77192
 Alpha virt. eigenvalues --    0.77350   0.77780   0.77970   0.78389   0.78551
 Alpha virt. eigenvalues --    0.79108   0.79285   0.79578   0.80362   0.80575
 Alpha virt. eigenvalues --    0.80783   0.81521   0.81840   0.82206   0.82522
 Alpha virt. eigenvalues --    0.82725   0.83074   0.83191   0.83402   0.83566
 Alpha virt. eigenvalues --    0.84099   0.84258   0.84553   0.84751   0.85118
 Alpha virt. eigenvalues --    0.85679   0.85821   0.86563   0.86865   0.86991
 Alpha virt. eigenvalues --    0.87537   0.88021   0.88220   0.88442   0.88601
 Alpha virt. eigenvalues --    0.88990   0.89782   0.90042   0.90186   0.90462
 Alpha virt. eigenvalues --    0.91142   0.91469   0.91662   0.91993   0.92424
 Alpha virt. eigenvalues --    0.92755   0.93092   0.93270   0.93803   0.93980
 Alpha virt. eigenvalues --    0.94425   0.95097   0.95226   0.95567   0.95904
 Alpha virt. eigenvalues --    0.96054   0.96308   0.96799   0.97300   0.97331
 Alpha virt. eigenvalues --    0.97979   0.98121   0.98632   0.98773   0.99039
 Alpha virt. eigenvalues --    0.99508   0.99876   1.00154   1.00767   1.00987
 Alpha virt. eigenvalues --    1.01244   1.01367   1.01821   1.02126   1.02472
 Alpha virt. eigenvalues --    1.03109   1.03591   1.03722   1.04075   1.04372
 Alpha virt. eigenvalues --    1.04650   1.05101   1.05429   1.05588   1.06166
 Alpha virt. eigenvalues --    1.06420   1.06581   1.07182   1.07421   1.07592
 Alpha virt. eigenvalues --    1.07897   1.08282   1.08997   1.09343   1.09612
 Alpha virt. eigenvalues --    1.09875   1.10234   1.10609   1.11107   1.11893
 Alpha virt. eigenvalues --    1.12081   1.12580   1.13040   1.13197   1.13284
 Alpha virt. eigenvalues --    1.13935   1.14323   1.14833   1.15545   1.15858
 Alpha virt. eigenvalues --    1.16008   1.16463   1.16846   1.17350   1.18122
 Alpha virt. eigenvalues --    1.18468   1.18821   1.18864   1.19275   1.19812
 Alpha virt. eigenvalues --    1.20466   1.20844   1.21191   1.21700   1.22091
 Alpha virt. eigenvalues --    1.22319   1.22760   1.23169   1.23676   1.24426
 Alpha virt. eigenvalues --    1.25016   1.25436   1.25672   1.25907   1.26034
 Alpha virt. eigenvalues --    1.26351   1.26844   1.27443   1.27732   1.28814
 Alpha virt. eigenvalues --    1.29183   1.29300   1.29724   1.30260   1.30461
 Alpha virt. eigenvalues --    1.30716   1.30998   1.31565   1.32175   1.32561
 Alpha virt. eigenvalues --    1.33053   1.33549   1.33984   1.34350   1.34550
 Alpha virt. eigenvalues --    1.35123   1.35560   1.36074   1.36252   1.36683
 Alpha virt. eigenvalues --    1.37396   1.37786   1.38086   1.38603   1.39088
 Alpha virt. eigenvalues --    1.39886   1.40515   1.41091   1.41356   1.41917
 Alpha virt. eigenvalues --    1.42100   1.42885   1.43378   1.43544   1.43790
 Alpha virt. eigenvalues --    1.44195   1.44906   1.45100   1.45317   1.45766
 Alpha virt. eigenvalues --    1.46069   1.46398   1.46788   1.47108   1.47405
 Alpha virt. eigenvalues --    1.47690   1.48408   1.48600   1.49043   1.49239
 Alpha virt. eigenvalues --    1.49370   1.50110   1.50344   1.50650   1.51015
 Alpha virt. eigenvalues --    1.51425   1.51666   1.51925   1.52685   1.52867
 Alpha virt. eigenvalues --    1.53774   1.54058   1.54372   1.54582   1.54647
 Alpha virt. eigenvalues --    1.54778   1.55569   1.55920   1.56547   1.56752
 Alpha virt. eigenvalues --    1.56997   1.57493   1.57730   1.57953   1.57993
 Alpha virt. eigenvalues --    1.58617   1.58800   1.59038   1.59312   1.59699
 Alpha virt. eigenvalues --    1.59835   1.60286   1.60530   1.60782   1.61029
 Alpha virt. eigenvalues --    1.61097   1.61307   1.61567   1.62074   1.62423
 Alpha virt. eigenvalues --    1.62692   1.63037   1.63501   1.63758   1.64358
 Alpha virt. eigenvalues --    1.64622   1.64905   1.65253   1.65582   1.65748
 Alpha virt. eigenvalues --    1.66031   1.66368   1.67065   1.67461   1.67812
 Alpha virt. eigenvalues --    1.68245   1.68514   1.69237   1.69594   1.70077
 Alpha virt. eigenvalues --    1.70417   1.70553   1.70815   1.71294   1.71511
 Alpha virt. eigenvalues --    1.71841   1.71951   1.72424   1.72870   1.73060
 Alpha virt. eigenvalues --    1.73434   1.73710   1.74889   1.75095   1.75258
 Alpha virt. eigenvalues --    1.75874   1.76191   1.76540   1.77223   1.77320
 Alpha virt. eigenvalues --    1.77441   1.77639   1.78060   1.78765   1.78934
 Alpha virt. eigenvalues --    1.79147   1.79714   1.79851   1.80415   1.80779
 Alpha virt. eigenvalues --    1.81538   1.81598   1.82009   1.82739   1.83118
 Alpha virt. eigenvalues --    1.83168   1.83799   1.84666   1.84877   1.85570
 Alpha virt. eigenvalues --    1.85759   1.86186   1.86848   1.87432   1.87529
 Alpha virt. eigenvalues --    1.88017   1.88676   1.88743   1.88899   1.89498
 Alpha virt. eigenvalues --    1.89812   1.90217   1.90356   1.90657   1.91129
 Alpha virt. eigenvalues --    1.91981   1.92461   1.92814   1.93110   1.93392
 Alpha virt. eigenvalues --    1.93656   1.94342   1.95054   1.95534   1.95674
 Alpha virt. eigenvalues --    1.96051   1.96420   1.96542   1.96870   1.97099
 Alpha virt. eigenvalues --    1.97358   1.97991   1.98078   1.98827   1.99673
 Alpha virt. eigenvalues --    1.99891   2.00256   2.00599   2.01079   2.01335
 Alpha virt. eigenvalues --    2.01502   2.01967   2.02911   2.03390   2.03674
 Alpha virt. eigenvalues --    2.04058   2.04481   2.04741   2.05256   2.05463
 Alpha virt. eigenvalues --    2.06148   2.06667   2.06880   2.07292   2.07803
 Alpha virt. eigenvalues --    2.08716   2.09091   2.09662   2.10254   2.10564
 Alpha virt. eigenvalues --    2.10852   2.11224   2.11544   2.12170   2.12336
 Alpha virt. eigenvalues --    2.12969   2.13394   2.13609   2.13885   2.14406
 Alpha virt. eigenvalues --    2.15212   2.15574   2.16044   2.16334   2.16543
 Alpha virt. eigenvalues --    2.17097   2.17394   2.18247   2.18752   2.19085
 Alpha virt. eigenvalues --    2.19302   2.19575   2.20163   2.20360   2.20525
 Alpha virt. eigenvalues --    2.21351   2.21774   2.21963   2.22353   2.22623
 Alpha virt. eigenvalues --    2.23718   2.23925   2.24177   2.25057   2.25429
 Alpha virt. eigenvalues --    2.25927   2.26064   2.26589   2.27402   2.27970
 Alpha virt. eigenvalues --    2.28305   2.28353   2.28815   2.29251   2.29757
 Alpha virt. eigenvalues --    2.30168   2.30912   2.31271   2.31707   2.32503
 Alpha virt. eigenvalues --    2.32987   2.33367   2.33978   2.34347   2.34560
 Alpha virt. eigenvalues --    2.34968   2.35486   2.35743   2.35964   2.36573
 Alpha virt. eigenvalues --    2.36932   2.37280   2.37696   2.37923   2.38341
 Alpha virt. eigenvalues --    2.38846   2.38892   2.39145   2.39553   2.40661
 Alpha virt. eigenvalues --    2.40964   2.41295   2.41452   2.42197   2.42330
 Alpha virt. eigenvalues --    2.43058   2.43462   2.43781   2.44484   2.45323
 Alpha virt. eigenvalues --    2.45631   2.45884   2.46464   2.47245   2.47463
 Alpha virt. eigenvalues --    2.48602   2.48850   2.49113   2.49704   2.50018
 Alpha virt. eigenvalues --    2.50476   2.51391   2.51573   2.51831   2.52153
 Alpha virt. eigenvalues --    2.52655   2.53240   2.53432   2.53746   2.54224
 Alpha virt. eigenvalues --    2.54945   2.55030   2.55116   2.55344   2.55765
 Alpha virt. eigenvalues --    2.56262   2.56532   2.56688   2.56922   2.57421
 Alpha virt. eigenvalues --    2.58178   2.58406   2.58690   2.59016   2.59493
 Alpha virt. eigenvalues --    2.59756   2.60262   2.60417   2.60874   2.61116
 Alpha virt. eigenvalues --    2.61204   2.62139   2.62246   2.62785   2.63350
 Alpha virt. eigenvalues --    2.63499   2.63757   2.64047   2.64619   2.64779
 Alpha virt. eigenvalues --    2.65166   2.65418   2.66662   2.66880   2.67158
 Alpha virt. eigenvalues --    2.67709   2.67846   2.68119   2.68434   2.69038
 Alpha virt. eigenvalues --    2.69581   2.69992   2.70191   2.70204   2.70633
 Alpha virt. eigenvalues --    2.71174   2.71625   2.71882   2.72286   2.73022
 Alpha virt. eigenvalues --    2.73191   2.73696   2.74202   2.74285   2.74829
 Alpha virt. eigenvalues --    2.74908   2.75457   2.75672   2.75939   2.76855
 Alpha virt. eigenvalues --    2.77108   2.77720   2.77894   2.78234   2.78599
 Alpha virt. eigenvalues --    2.78935   2.79422   2.79764   2.80338   2.80747
 Alpha virt. eigenvalues --    2.81279   2.81708   2.81971   2.82402   2.82802
 Alpha virt. eigenvalues --    2.83063   2.83402   2.83693   2.83816   2.84287
 Alpha virt. eigenvalues --    2.84544   2.84819   2.85731   2.86137   2.86652
 Alpha virt. eigenvalues --    2.86833   2.87169   2.87549   2.87730   2.88483
 Alpha virt. eigenvalues --    2.88772   2.89028   2.89195   2.89639   2.90095
 Alpha virt. eigenvalues --    2.90852   2.91135   2.91446   2.91767   2.92056
 Alpha virt. eigenvalues --    2.92223   2.92556   2.92881   2.93507   2.93889
 Alpha virt. eigenvalues --    2.94040   2.94593   2.94905   2.95544   2.95832
 Alpha virt. eigenvalues --    2.96023   2.96252   2.96792   2.97053   2.97650
 Alpha virt. eigenvalues --    2.97930   2.98156   2.98869   2.99062   2.99235
 Alpha virt. eigenvalues --    2.99557   3.00037   3.00397   3.00681   3.01272
 Alpha virt. eigenvalues --    3.01440   3.01798   3.02145   3.02669   3.02813
 Alpha virt. eigenvalues --    3.03823   3.04166   3.04412   3.04734   3.04881
 Alpha virt. eigenvalues --    3.05123   3.05493   3.06141   3.06308   3.06922
 Alpha virt. eigenvalues --    3.07400   3.07770   3.08152   3.08323   3.09038
 Alpha virt. eigenvalues --    3.09250   3.09313   3.09775   3.10286   3.10973
 Alpha virt. eigenvalues --    3.11344   3.11643   3.11707   3.12023   3.12297
 Alpha virt. eigenvalues --    3.12700   3.12934   3.13233   3.13823   3.13941
 Alpha virt. eigenvalues --    3.14231   3.14389   3.14897   3.15094   3.15160
 Alpha virt. eigenvalues --    3.15617   3.15919   3.16374   3.16902   3.17280
 Alpha virt. eigenvalues --    3.17332   3.18120   3.18450   3.18745   3.19068
 Alpha virt. eigenvalues --    3.19083   3.19730   3.19889   3.20326   3.20493
 Alpha virt. eigenvalues --    3.21116   3.21768   3.21935   3.22523   3.22898
 Alpha virt. eigenvalues --    3.23086   3.23537   3.23835   3.24089   3.24430
 Alpha virt. eigenvalues --    3.24788   3.24846   3.25189   3.25648   3.25799
 Alpha virt. eigenvalues --    3.26181   3.26498   3.26613   3.26803   3.26904
 Alpha virt. eigenvalues --    3.27416   3.27640   3.28119   3.28250   3.28653
 Alpha virt. eigenvalues --    3.29054   3.29466   3.29546   3.29845   3.30143
 Alpha virt. eigenvalues --    3.30602   3.30677   3.31151   3.31593   3.31702
 Alpha virt. eigenvalues --    3.32144   3.32318   3.32499   3.33025   3.33049
 Alpha virt. eigenvalues --    3.33263   3.33556   3.33699   3.33866   3.34594
 Alpha virt. eigenvalues --    3.34911   3.35204   3.35429   3.36035   3.36332
 Alpha virt. eigenvalues --    3.36586   3.36779   3.37201   3.37342   3.37459
 Alpha virt. eigenvalues --    3.37774   3.38189   3.38459   3.38590   3.39153
 Alpha virt. eigenvalues --    3.39416   3.39691   3.40135   3.40297   3.40830
 Alpha virt. eigenvalues --    3.41032   3.41515   3.42049   3.42325   3.42743
 Alpha virt. eigenvalues --    3.42793   3.43638   3.43779   3.44034   3.44478
 Alpha virt. eigenvalues --    3.44780   3.45193   3.45384   3.45875   3.46300
 Alpha virt. eigenvalues --    3.46885   3.47242   3.47672   3.47747   3.48592
 Alpha virt. eigenvalues --    3.48741   3.49061   3.49237   3.49426   3.50239
 Alpha virt. eigenvalues --    3.50651   3.51170   3.51691   3.51786   3.52213
 Alpha virt. eigenvalues --    3.52371   3.53071   3.53220   3.53907   3.53991
 Alpha virt. eigenvalues --    3.54653   3.54965   3.55274   3.55532   3.56055
 Alpha virt. eigenvalues --    3.56863   3.57192   3.57651   3.57982   3.58259
 Alpha virt. eigenvalues --    3.58790   3.59226   3.59535   3.59949   3.60482
 Alpha virt. eigenvalues --    3.60619   3.60913   3.61640   3.61702   3.62601
 Alpha virt. eigenvalues --    3.63057   3.63109   3.63521   3.63833   3.64480
 Alpha virt. eigenvalues --    3.65050   3.65421   3.65943   3.66110   3.66621
 Alpha virt. eigenvalues --    3.67042   3.67687   3.68040   3.68411   3.69032
 Alpha virt. eigenvalues --    3.69131   3.69520   3.70258   3.70796   3.71214
 Alpha virt. eigenvalues --    3.71781   3.72036   3.72859   3.72965   3.73033
 Alpha virt. eigenvalues --    3.73402   3.74072   3.74255   3.74753   3.75384
 Alpha virt. eigenvalues --    3.75732   3.75919   3.76462   3.76744   3.77061
 Alpha virt. eigenvalues --    3.78057   3.78227   3.78591   3.79182   3.79795
 Alpha virt. eigenvalues --    3.80496   3.80861   3.80946   3.81657   3.82364
 Alpha virt. eigenvalues --    3.82775   3.83555   3.83754   3.84143   3.84550
 Alpha virt. eigenvalues --    3.85095   3.85347   3.86576   3.86762   3.87015
 Alpha virt. eigenvalues --    3.87920   3.87962   3.88657   3.89179   3.90631
 Alpha virt. eigenvalues --    3.91134   3.91433   3.92931   3.93144   3.93672
 Alpha virt. eigenvalues --    3.93989   3.94683   3.95106   3.95480   3.95928
 Alpha virt. eigenvalues --    3.96029   3.97165   3.97665   3.98854   3.99143
 Alpha virt. eigenvalues --    3.99474   4.00078   4.00572   4.01324   4.01641
 Alpha virt. eigenvalues --    4.02136   4.02268   4.03093   4.03699   4.04629
 Alpha virt. eigenvalues --    4.04840   4.05440   4.05834   4.06421   4.07048
 Alpha virt. eigenvalues --    4.08116   4.08533   4.09165   4.09719   4.10004
 Alpha virt. eigenvalues --    4.10663   4.10961   4.11552   4.11835   4.12691
 Alpha virt. eigenvalues --    4.13049   4.13543   4.14076   4.14442   4.14676
 Alpha virt. eigenvalues --    4.15554   4.15793   4.16515   4.16751   4.17619
 Alpha virt. eigenvalues --    4.18219   4.18582   4.19789   4.20486   4.20678
 Alpha virt. eigenvalues --    4.20951   4.21482   4.22339   4.22798   4.23039
 Alpha virt. eigenvalues --    4.23861   4.24093   4.24564   4.25099   4.26083
 Alpha virt. eigenvalues --    4.26404   4.26646   4.26793   4.28187   4.28546
 Alpha virt. eigenvalues --    4.28754   4.29196   4.29447   4.29950   4.30499
 Alpha virt. eigenvalues --    4.30719   4.31249   4.32087   4.33122   4.33494
 Alpha virt. eigenvalues --    4.34660   4.35453   4.36277   4.36604   4.37133
 Alpha virt. eigenvalues --    4.37612   4.38263   4.38791   4.39060   4.40876
 Alpha virt. eigenvalues --    4.41457   4.41973   4.42428   4.42690   4.44162
 Alpha virt. eigenvalues --    4.44456   4.44587   4.46261   4.46795   4.47519
 Alpha virt. eigenvalues --    4.48397   4.49817   4.50325   4.51466   4.51673
 Alpha virt. eigenvalues --    4.52624   4.53312   4.53653   4.54402   4.55180
 Alpha virt. eigenvalues --    4.56098   4.56417   4.57265   4.57699   4.58546
 Alpha virt. eigenvalues --    4.59229   4.60834   4.61512   4.61822   4.62402
 Alpha virt. eigenvalues --    4.62620   4.62716   4.64058   4.64951   4.66012
 Alpha virt. eigenvalues --    4.66567   4.67344   4.68507   4.69564   4.70483
 Alpha virt. eigenvalues --    4.70954   4.72676   4.74130   4.75087   4.75484
 Alpha virt. eigenvalues --    4.76119   4.77151   4.77833   4.78737   4.79063
 Alpha virt. eigenvalues --    4.79533   4.81005   4.81944   4.82541   4.83139
 Alpha virt. eigenvalues --    4.83582   4.84456   4.86898   4.87130   4.87799
 Alpha virt. eigenvalues --    4.88795   4.90506   4.91264   4.92823   4.93751
 Alpha virt. eigenvalues --    4.94383   4.95073   4.96957   4.97141   4.97281
 Alpha virt. eigenvalues --    4.98099   4.98969   4.99571   4.99877   5.01907
 Alpha virt. eigenvalues --    5.02112   5.03216   5.04635   5.04796   5.05865
 Alpha virt. eigenvalues --    5.06637   5.08040   5.08646   5.09765   5.11603
 Alpha virt. eigenvalues --    5.11650   5.12398   5.13612   5.14202   5.15903
 Alpha virt. eigenvalues --    5.16256   5.16555   5.17359   5.18472   5.19257
 Alpha virt. eigenvalues --    5.19770   5.20861   5.21855   5.21899   5.21992
 Alpha virt. eigenvalues --    5.23104   5.23843   5.24148   5.24277   5.25269
 Alpha virt. eigenvalues --    5.25841   5.25965   5.26947   5.28467   5.30104
 Alpha virt. eigenvalues --    5.31159   5.32308   5.32783   5.36409   5.38473
 Alpha virt. eigenvalues --    5.38767   5.39583   5.41206   5.41406   5.42648
 Alpha virt. eigenvalues --    5.43084   5.43679   5.44058   5.45949   5.46992
 Alpha virt. eigenvalues --    5.48062   5.48864   5.49354   5.50090   5.52723
 Alpha virt. eigenvalues --    5.54068   5.54358   5.55146   5.56112   5.58069
 Alpha virt. eigenvalues --    5.59017   5.59474   5.60298   5.61836   5.63267
 Alpha virt. eigenvalues --    5.63731   5.64700   5.68239   5.68626   5.69413
 Alpha virt. eigenvalues --    5.69881   5.71246   5.72460   5.73354   5.76509
 Alpha virt. eigenvalues --    5.77652   5.78776   5.78936   5.80425   5.81657
 Alpha virt. eigenvalues --    5.85520   5.85815   5.87683   5.93296   5.96446
 Alpha virt. eigenvalues --    5.97322   5.99759   6.00776   6.02357   6.03930
 Alpha virt. eigenvalues --    6.06505   6.07030   6.08381   6.11204   6.12315
 Alpha virt. eigenvalues --    6.13321   6.17428   6.21412   6.23223   6.24726
 Alpha virt. eigenvalues --    6.24905   6.25530   6.33802   6.35327   6.36003
 Alpha virt. eigenvalues --    6.39710   6.41028   6.41578   6.42064   6.43873
 Alpha virt. eigenvalues --    6.45731   6.47402   6.49149   6.50009   6.50477
 Alpha virt. eigenvalues --    6.53387   6.53528   6.54322   6.55619   6.58562
 Alpha virt. eigenvalues --    6.61160   6.62920   6.66575   6.67625   6.77757
 Alpha virt. eigenvalues --    6.80861   6.82228   6.85075   6.86959   6.96996
 Alpha virt. eigenvalues --    6.97864   7.04979   7.06033   7.06093   7.09453
 Alpha virt. eigenvalues --    7.12919   7.16799   7.17878   7.18103   7.21514
 Alpha virt. eigenvalues --    7.22974   7.28754   7.29974  22.24329  22.32793
 Alpha virt. eigenvalues --   22.42220  22.51530  22.53202  22.56382  22.60412
 Alpha virt. eigenvalues --   22.67619  22.68960  22.71819  22.79394  22.80598
 Alpha virt. eigenvalues --   22.94584  22.95089  22.97066  22.99430  23.05830
 Alpha virt. eigenvalues --   23.07937  23.10685  23.17586  23.36237  23.37526
 Alpha virt. eigenvalues --   23.40011  23.44737  23.47872  23.56269  23.57712
 Alpha virt. eigenvalues --   23.61913  23.71638  23.77386  23.82312  23.93874
 Alpha virt. eigenvalues --   23.94553  24.06869  32.93632  32.96186  33.04404
 Alpha virt. eigenvalues --   33.09449  43.95228  43.97327  43.98923  43.99695
 Alpha virt. eigenvalues --   44.00885  44.26098
  Beta  occ. eigenvalues -- -256.33375 -30.07769 -25.91782 -25.90852 -25.89445
  Beta  occ. eigenvalues --  -19.26577 -19.25329 -19.23881 -19.19598 -19.18316
  Beta  occ. eigenvalues --  -19.16827 -14.39725 -14.37785 -14.37521 -14.37093
  Beta  occ. eigenvalues --  -10.35368 -10.34066 -10.28160 -10.25958 -10.25882
  Beta  occ. eigenvalues --  -10.25863 -10.25684 -10.25564 -10.25165 -10.25116
  Beta  occ. eigenvalues --  -10.25092 -10.25007 -10.24882 -10.24773 -10.23603
  Beta  occ. eigenvalues --  -10.23547 -10.23388 -10.23387 -10.23351 -10.23230
  Beta  occ. eigenvalues --  -10.23195 -10.23159 -10.23088 -10.23000 -10.22985
  Beta  occ. eigenvalues --  -10.22834 -10.22738 -10.22666 -10.22616 -10.22251
  Beta  occ. eigenvalues --  -10.21920 -10.21784 -10.21468 -10.20215  -3.41135
  Beta  occ. eigenvalues --   -2.19422  -2.15999  -2.13870  -1.19131  -1.17553
  Beta  occ. eigenvalues --   -1.07973  -1.05320  -1.04145  -1.02812  -1.02312
  Beta  occ. eigenvalues --   -1.01442  -1.00396  -0.99590  -0.87121  -0.86055
  Beta  occ. eigenvalues --   -0.85313  -0.84584  -0.84402  -0.83045  -0.82249
  Beta  occ. eigenvalues --   -0.80923  -0.80238  -0.79192  -0.78663  -0.76245
  Beta  occ. eigenvalues --   -0.75831  -0.75023  -0.74037  -0.73181  -0.71588
  Beta  occ. eigenvalues --   -0.71346  -0.69401  -0.68121  -0.67934  -0.66982
  Beta  occ. eigenvalues --   -0.66445  -0.64389  -0.63727  -0.60482  -0.60217
  Beta  occ. eigenvalues --   -0.59807  -0.58909  -0.57858  -0.57016  -0.56453
  Beta  occ. eigenvalues --   -0.55557  -0.54637  -0.54234  -0.53952  -0.53213
  Beta  occ. eigenvalues --   -0.52754  -0.52419  -0.51598  -0.51285  -0.50718
  Beta  occ. eigenvalues --   -0.50607  -0.50333  -0.49972  -0.49149  -0.47758
  Beta  occ. eigenvalues --   -0.47229  -0.47178  -0.46630  -0.46289  -0.45984
  Beta  occ. eigenvalues --   -0.45729  -0.45428  -0.45109  -0.44915  -0.44833
  Beta  occ. eigenvalues --   -0.44388  -0.43899  -0.43844  -0.43522  -0.42758
  Beta  occ. eigenvalues --   -0.42309  -0.42202  -0.41682  -0.41515  -0.41234
  Beta  occ. eigenvalues --   -0.40884  -0.40499  -0.40200  -0.39921  -0.39479
  Beta  occ. eigenvalues --   -0.39205  -0.38772  -0.38615  -0.38418  -0.38318
  Beta  occ. eigenvalues --   -0.38105  -0.37879  -0.37557  -0.37263  -0.37112
  Beta  occ. eigenvalues --   -0.36632  -0.35686  -0.35401  -0.34148  -0.33913
  Beta  occ. eigenvalues --   -0.33690  -0.33619  -0.32591  -0.32283  -0.31646
  Beta  occ. eigenvalues --   -0.30759  -0.29861  -0.29207  -0.28727  -0.27103
  Beta  occ. eigenvalues --   -0.26187  -0.25883  -0.24542  -0.24447  -0.22403
  Beta  occ. eigenvalues --   -0.21357  -0.20366  -0.19849  -0.18398
  Beta virt. eigenvalues --   -0.11212  -0.09601  -0.08706  -0.06376  -0.04588
  Beta virt. eigenvalues --   -0.01975  -0.01798  -0.00975  -0.00528  -0.00173
  Beta virt. eigenvalues --    0.00732   0.01632   0.03027   0.03191   0.03769
  Beta virt. eigenvalues --    0.04002   0.04190   0.04618   0.05186   0.05242
  Beta virt. eigenvalues --    0.05613   0.05721   0.06613   0.07030   0.07415
  Beta virt. eigenvalues --    0.07523   0.07954   0.08305   0.08525   0.08824
  Beta virt. eigenvalues --    0.09192   0.09704   0.09975   0.10355   0.10790
  Beta virt. eigenvalues --    0.10899   0.11278   0.11905   0.12180   0.12255
  Beta virt. eigenvalues --    0.12518   0.13090   0.13329   0.13388   0.13594
  Beta virt. eigenvalues --    0.13790   0.13881   0.14469   0.15066   0.15239
  Beta virt. eigenvalues --    0.15300   0.15374   0.15978   0.16217   0.16569
  Beta virt. eigenvalues --    0.16706   0.16717   0.16993   0.17381   0.17635
  Beta virt. eigenvalues --    0.17858   0.18311   0.18615   0.18983   0.19512
  Beta virt. eigenvalues --    0.19586   0.19779   0.19844   0.20104   0.20463
  Beta virt. eigenvalues --    0.20720   0.20811   0.21213   0.21349   0.21478
  Beta virt. eigenvalues --    0.21695   0.22035   0.22149   0.22280   0.22395
  Beta virt. eigenvalues --    0.22720   0.23144   0.23340   0.23383   0.23807
  Beta virt. eigenvalues --    0.24040   0.24383   0.24618   0.24772   0.24838
  Beta virt. eigenvalues --    0.25039   0.25442   0.25690   0.26041   0.26297
  Beta virt. eigenvalues --    0.26377   0.26741   0.26952   0.26978   0.27458
  Beta virt. eigenvalues --    0.27905   0.28137   0.28319   0.28428   0.28759
  Beta virt. eigenvalues --    0.28886   0.29079   0.29418   0.29554   0.29698
  Beta virt. eigenvalues --    0.29951   0.30264   0.30449   0.30692   0.30784
  Beta virt. eigenvalues --    0.31026   0.31493   0.31758   0.31940   0.32212
  Beta virt. eigenvalues --    0.32523   0.32954   0.33323   0.33826   0.34311
  Beta virt. eigenvalues --    0.34448   0.34704   0.34979   0.35158   0.35378
  Beta virt. eigenvalues --    0.35539   0.35825   0.35949   0.36090   0.36647
  Beta virt. eigenvalues --    0.36947   0.37210   0.37467   0.37551   0.37921
  Beta virt. eigenvalues --    0.38150   0.38352   0.38617   0.38653   0.38928
  Beta virt. eigenvalues --    0.39143   0.39437   0.39590   0.39798   0.40074
  Beta virt. eigenvalues --    0.40263   0.40382   0.40592   0.41003   0.41208
  Beta virt. eigenvalues --    0.41399   0.41615   0.41993   0.42106   0.42287
  Beta virt. eigenvalues --    0.42402   0.42627   0.42873   0.43398   0.43408
  Beta virt. eigenvalues --    0.43615   0.43972   0.44150   0.44502   0.44710
  Beta virt. eigenvalues --    0.44962   0.45077   0.45349   0.45486   0.45577
  Beta virt. eigenvalues --    0.45811   0.46150   0.46361   0.46475   0.46673
  Beta virt. eigenvalues --    0.46912   0.47041   0.47162   0.47548   0.47986
  Beta virt. eigenvalues --    0.48203   0.48357   0.48591   0.48896   0.48984
  Beta virt. eigenvalues --    0.49112   0.49548   0.49732   0.50093   0.50193
  Beta virt. eigenvalues --    0.50351   0.50526   0.50789   0.50864   0.51293
  Beta virt. eigenvalues --    0.51413   0.51811   0.52251   0.52296   0.52367
  Beta virt. eigenvalues --    0.52723   0.53200   0.53268   0.53587   0.53965
  Beta virt. eigenvalues --    0.54170   0.54238   0.54568   0.54784   0.55054
  Beta virt. eigenvalues --    0.55338   0.55563   0.55690   0.56301   0.56477
  Beta virt. eigenvalues --    0.56613   0.56741   0.57164   0.57732   0.57926
  Beta virt. eigenvalues --    0.58081   0.58250   0.58615   0.58931   0.59103
  Beta virt. eigenvalues --    0.59437   0.59864   0.60295   0.60332   0.60404
  Beta virt. eigenvalues --    0.60620   0.60981   0.61318   0.61446   0.61963
  Beta virt. eigenvalues --    0.62077   0.62239   0.62607   0.62934   0.63277
  Beta virt. eigenvalues --    0.63441   0.63626   0.63962   0.64238   0.64496
  Beta virt. eigenvalues --    0.64780   0.65204   0.65331   0.65738   0.65773
  Beta virt. eigenvalues --    0.66035   0.66593   0.66887   0.67031   0.67320
  Beta virt. eigenvalues --    0.67473   0.67893   0.68067   0.68249   0.68528
  Beta virt. eigenvalues --    0.69267   0.69467   0.69748   0.69794   0.69994
  Beta virt. eigenvalues --    0.70284   0.70821   0.71081   0.71255   0.71524
  Beta virt. eigenvalues --    0.71698   0.71924   0.72456   0.72891   0.73228
  Beta virt. eigenvalues --    0.73378   0.73661   0.73797   0.74044   0.74215
  Beta virt. eigenvalues --    0.74789   0.75205   0.75557   0.75734   0.75989
  Beta virt. eigenvalues --    0.76375   0.76853   0.77039   0.77239   0.77604
  Beta virt. eigenvalues --    0.77997   0.78145   0.78503   0.78829   0.79228
  Beta virt. eigenvalues --    0.79643   0.79784   0.80534   0.80676   0.80944
  Beta virt. eigenvalues --    0.81727   0.82155   0.82330   0.82654   0.83068
  Beta virt. eigenvalues --    0.83138   0.83503   0.83626   0.83926   0.84273
  Beta virt. eigenvalues --    0.84398   0.84783   0.84923   0.85359   0.85859
  Beta virt. eigenvalues --    0.86163   0.86935   0.87053   0.87324   0.87723
  Beta virt. eigenvalues --    0.88095   0.88493   0.88569   0.88833   0.89228
  Beta virt. eigenvalues --    0.90045   0.90189   0.90361   0.90715   0.91637
  Beta virt. eigenvalues --    0.91720   0.92162   0.92417   0.92864   0.93030
  Beta virt. eigenvalues --    0.93330   0.93445   0.93968   0.94371   0.94677
  Beta virt. eigenvalues --    0.95252   0.95417   0.95896   0.96152   0.96412
  Beta virt. eigenvalues --    0.96578   0.97018   0.97563   0.97631   0.98213
  Beta virt. eigenvalues --    0.98334   0.98742   0.98902   0.99439   0.99763
  Beta virt. eigenvalues --    1.00198   1.00494   1.01002   1.01322   1.01501
  Beta virt. eigenvalues --    1.01659   1.02261   1.02399   1.02766   1.03266
  Beta virt. eigenvalues --    1.03944   1.04142   1.04365   1.04667   1.04903
  Beta virt. eigenvalues --    1.05496   1.05808   1.05947   1.06628   1.06706
  Beta virt. eigenvalues --    1.06975   1.07603   1.07689   1.07985   1.08097
  Beta virt. eigenvalues --    1.08770   1.09319   1.09603   1.09920   1.10239
  Beta virt. eigenvalues --    1.10686   1.10894   1.11420   1.12256   1.12559
  Beta virt. eigenvalues --    1.12947   1.13285   1.13573   1.13618   1.14304
  Beta virt. eigenvalues --    1.14658   1.15182   1.15893   1.16183   1.16266
  Beta virt. eigenvalues --    1.16940   1.17033   1.17794   1.18220   1.18784
  Beta virt. eigenvalues --    1.18855   1.19162   1.19584   1.19956   1.20662
  Beta virt. eigenvalues --    1.21025   1.21859   1.21971   1.22370   1.22824
  Beta virt. eigenvalues --    1.23124   1.23769   1.23967   1.24594   1.25229
  Beta virt. eigenvalues --    1.25693   1.25793   1.26342   1.26406   1.26712
  Beta virt. eigenvalues --    1.27182   1.27714   1.28092   1.28913   1.29322
  Beta virt. eigenvalues --    1.29484   1.30019   1.30435   1.30860   1.30867
  Beta virt. eigenvalues --    1.31458   1.31891   1.32526   1.32804   1.33130
  Beta virt. eigenvalues --    1.33638   1.34233   1.34730   1.34763   1.35434
  Beta virt. eigenvalues --    1.35667   1.36294   1.36515   1.36993   1.37524
  Beta virt. eigenvalues --    1.38117   1.38253   1.38931   1.39206   1.40149
  Beta virt. eigenvalues --    1.40643   1.41448   1.42013   1.42178   1.42635
  Beta virt. eigenvalues --    1.43259   1.43681   1.43957   1.44245   1.44633
  Beta virt. eigenvalues --    1.45057   1.45474   1.45700   1.45934   1.46312
  Beta virt. eigenvalues --    1.46326   1.47044   1.47421   1.47648   1.47931
  Beta virt. eigenvalues --    1.48694   1.48951   1.49345   1.49510   1.49690
  Beta virt. eigenvalues --    1.50223   1.50518   1.50711   1.51321   1.51387
  Beta virt. eigenvalues --    1.51946   1.52359   1.52883   1.53230   1.53927
  Beta virt. eigenvalues --    1.54332   1.54648   1.54799   1.54941   1.55164
  Beta virt. eigenvalues --    1.55818   1.56075   1.56823   1.56940   1.57205
  Beta virt. eigenvalues --    1.57736   1.57933   1.58080   1.58370   1.58934
  Beta virt. eigenvalues --    1.59141   1.59356   1.59491   1.60040   1.60282
  Beta virt. eigenvalues --    1.60634   1.60950   1.61183   1.61247   1.61603
  Beta virt. eigenvalues --    1.61718   1.61833   1.62691   1.62722   1.63084
  Beta virt. eigenvalues --    1.63402   1.63781   1.64253   1.64523   1.65063
  Beta virt. eigenvalues --    1.65427   1.65628   1.65716   1.65967   1.66542
  Beta virt. eigenvalues --    1.67108   1.67597   1.67674   1.68003   1.68430
  Beta virt. eigenvalues --    1.68696   1.69310   1.69667   1.70256   1.70545
  Beta virt. eigenvalues --    1.70744   1.71073   1.71461   1.71692   1.71962
  Beta virt. eigenvalues --    1.72020   1.72526   1.72975   1.73310   1.73629
  Beta virt. eigenvalues --    1.73888   1.74990   1.75263   1.75370   1.75953
  Beta virt. eigenvalues --    1.76310   1.76751   1.77381   1.77423   1.77616
  Beta virt. eigenvalues --    1.77706   1.78169   1.78941   1.79298   1.79542
  Beta virt. eigenvalues --    1.80084   1.80171   1.80655   1.81063   1.81775
  Beta virt. eigenvalues --    1.81902   1.82326   1.82945   1.83284   1.83485
  Beta virt. eigenvalues --    1.83963   1.84857   1.85072   1.85781   1.85960
  Beta virt. eigenvalues --    1.86282   1.87085   1.87614   1.87867   1.88229
  Beta virt. eigenvalues --    1.88786   1.88848   1.89040   1.89655   1.89923
  Beta virt. eigenvalues --    1.90310   1.90478   1.90781   1.91269   1.92373
  Beta virt. eigenvalues --    1.92570   1.92983   1.93406   1.93561   1.93777
  Beta virt. eigenvalues --    1.94529   1.95362   1.95683   1.95885   1.96270
  Beta virt. eigenvalues --    1.96633   1.96737   1.97189   1.97281   1.97540
  Beta virt. eigenvalues --    1.98216   1.98374   1.99017   1.99902   2.00141
  Beta virt. eigenvalues --    2.00440   2.00673   2.00991   2.01457   2.01721
  Beta virt. eigenvalues --    2.02144   2.03153   2.03436   2.03977   2.04490
  Beta virt. eigenvalues --    2.04600   2.04912   2.05281   2.05800   2.06303
  Beta virt. eigenvalues --    2.06808   2.07025   2.07629   2.08064   2.08799
  Beta virt. eigenvalues --    2.09297   2.09718   2.10484   2.10902   2.11091
  Beta virt. eigenvalues --    2.11430   2.11931   2.12303   2.12451   2.13149
  Beta virt. eigenvalues --    2.13665   2.13673   2.14086   2.14522   2.15276
  Beta virt. eigenvalues --    2.15614   2.16205   2.16430   2.16669   2.17315
  Beta virt. eigenvalues --    2.17553   2.18326   2.18929   2.19178   2.19495
  Beta virt. eigenvalues --    2.19640   2.20244   2.20588   2.20659   2.21484
  Beta virt. eigenvalues --    2.22020   2.22148   2.22576   2.22933   2.24031
  Beta virt. eigenvalues --    2.24251   2.24378   2.25210   2.26062   2.26095
  Beta virt. eigenvalues --    2.26280   2.26957   2.27550   2.28188   2.28377
  Beta virt. eigenvalues --    2.28639   2.28979   2.29401   2.29849   2.30272
  Beta virt. eigenvalues --    2.31237   2.31376   2.31807   2.32662   2.33163
  Beta virt. eigenvalues --    2.33704   2.34199   2.34573   2.34720   2.35213
  Beta virt. eigenvalues --    2.35679   2.35951   2.36125   2.36769   2.37071
  Beta virt. eigenvalues --    2.37475   2.37792   2.38110   2.38479   2.39012
  Beta virt. eigenvalues --    2.39083   2.39357   2.39738   2.40771   2.41245
  Beta virt. eigenvalues --    2.41562   2.41998   2.42371   2.42558   2.43271
  Beta virt. eigenvalues --    2.43963   2.44304   2.44848   2.45527   2.45819
  Beta virt. eigenvalues --    2.46064   2.46955   2.47564   2.47591   2.48885
  Beta virt. eigenvalues --    2.49070   2.49603   2.50043   2.50385   2.50634
  Beta virt. eigenvalues --    2.51634   2.51879   2.52114   2.52216   2.53201
  Beta virt. eigenvalues --    2.53462   2.53691   2.53963   2.54401   2.55124
  Beta virt. eigenvalues --    2.55203   2.55401   2.55561   2.56040   2.56340
  Beta virt. eigenvalues --    2.56762   2.56829   2.57183   2.57569   2.58378
  Beta virt. eigenvalues --    2.58566   2.58921   2.59371   2.59709   2.59864
  Beta virt. eigenvalues --    2.60358   2.60595   2.61072   2.61572   2.61697
  Beta virt. eigenvalues --    2.62454   2.62762   2.62953   2.63517   2.63797
  Beta virt. eigenvalues --    2.64323   2.64624   2.64835   2.65075   2.65393
  Beta virt. eigenvalues --    2.66323   2.66943   2.67294   2.67661   2.67925
  Beta virt. eigenvalues --    2.68279   2.68464   2.68774   2.69417   2.69789
  Beta virt. eigenvalues --    2.70240   2.70366   2.70477   2.70825   2.71363
  Beta virt. eigenvalues --    2.71773   2.72012   2.72627   2.73115   2.73344
  Beta virt. eigenvalues --    2.73816   2.74378   2.74520   2.75106   2.75160
  Beta virt. eigenvalues --    2.75502   2.75809   2.76079   2.77005   2.77454
  Beta virt. eigenvalues --    2.77833   2.78246   2.78418   2.78702   2.79232
  Beta virt. eigenvalues --    2.79770   2.79902   2.80455   2.81008   2.81385
  Beta virt. eigenvalues --    2.81984   2.82173   2.82833   2.83044   2.83370
  Beta virt. eigenvalues --    2.83650   2.83841   2.83943   2.84600   2.84746
  Beta virt. eigenvalues --    2.85157   2.86040   2.86476   2.86930   2.87568
  Beta virt. eigenvalues --    2.87704   2.88024   2.88311   2.88891   2.89081
  Beta virt. eigenvalues --    2.89399   2.89533   2.90126   2.90618   2.91236
  Beta virt. eigenvalues --    2.91483   2.91896   2.92028   2.92300   2.92777
  Beta virt. eigenvalues --    2.92907   2.93446   2.93763   2.94008   2.94349
  Beta virt. eigenvalues --    2.94790   2.95202   2.95916   2.96131   2.96239
  Beta virt. eigenvalues --    2.96804   2.97235   2.97570   2.97991   2.98244
  Beta virt. eigenvalues --    2.99064   2.99210   2.99450   2.99579   3.00002
  Beta virt. eigenvalues --    3.00344   3.00607   3.00993   3.01526   3.01628
  Beta virt. eigenvalues --    3.02243   3.02298   3.02892   3.02968   3.04044
  Beta virt. eigenvalues --    3.04462   3.04674   3.04904   3.05163   3.05273
  Beta virt. eigenvalues --    3.05675   3.06326   3.06851   3.07385   3.07588
  Beta virt. eigenvalues --    3.08086   3.08473   3.08707   3.09216   3.09472
  Beta virt. eigenvalues --    3.09819   3.10372   3.10660   3.11373   3.11559
  Beta virt. eigenvalues --    3.11875   3.12259   3.12465   3.12673   3.13264
  Beta virt. eigenvalues --    3.13318   3.13950   3.14235   3.14356   3.14446
  Beta virt. eigenvalues --    3.15033   3.15282   3.15456   3.15536   3.16054
  Beta virt. eigenvalues --    3.16302   3.16464   3.17192   3.17411   3.17666
  Beta virt. eigenvalues --    3.18305   3.18653   3.19105   3.19337   3.19597
  Beta virt. eigenvalues --    3.20007   3.20255   3.20600   3.20844   3.21466
  Beta virt. eigenvalues --    3.22330   3.22686   3.23063   3.23184   3.23444
  Beta virt. eigenvalues --    3.23858   3.24227   3.24563   3.24889   3.25098
  Beta virt. eigenvalues --    3.25191   3.25404   3.26093   3.26374   3.26666
  Beta virt. eigenvalues --    3.26881   3.26948   3.27471   3.27617   3.28049
  Beta virt. eigenvalues --    3.28352   3.28598   3.28808   3.28988   3.29437
  Beta virt. eigenvalues --    3.29723   3.29804   3.30082   3.30380   3.30948
  Beta virt. eigenvalues --    3.31065   3.31333   3.31880   3.32125   3.32471
  Beta virt. eigenvalues --    3.32657   3.32866   3.33353   3.33377   3.33454
  Beta virt. eigenvalues --    3.33717   3.33810   3.34269   3.34913   3.35016
  Beta virt. eigenvalues --    3.35484   3.35781   3.36313   3.36581   3.36969
  Beta virt. eigenvalues --    3.37069   3.37460   3.37600   3.37739   3.38072
  Beta virt. eigenvalues --    3.38477   3.38761   3.38867   3.39334   3.39706
  Beta virt. eigenvalues --    3.39970   3.40450   3.40677   3.40996   3.41461
  Beta virt. eigenvalues --    3.41695   3.42219   3.42560   3.42888   3.43271
  Beta virt. eigenvalues --    3.43839   3.44141   3.44379   3.44737   3.44873
  Beta virt. eigenvalues --    3.45279   3.45582   3.46121   3.46661   3.47033
  Beta virt. eigenvalues --    3.47529   3.47906   3.48319   3.48785   3.48913
  Beta virt. eigenvalues --    3.49208   3.49433   3.49721   3.50424   3.51018
  Beta virt. eigenvalues --    3.51437   3.51863   3.52002   3.52455   3.52547
  Beta virt. eigenvalues --    3.53254   3.53476   3.54054   3.54200   3.54874
  Beta virt. eigenvalues --    3.55169   3.55583   3.55964   3.56535   3.57255
[...]
                                                    1178(r),1171(r),546(r)
                                                    237(r),1303(r),1172(r)
                                                    1250(r),1331(r),1234(r)
                                                    1202(r),1173(r),1332(r)
                                                    1570(r),1174(r),234(r)
                                                    547(r),1577(r),1256(r)
                                                    261(r),1330(r),1586(r)
                                                    624(r),1547(r),809(r),989(r)
                                                    1368(r),263(r),1508(r)
                                                    1510(r),1204(r),1546(r)
                                                    1228(r),808(r),990(r)
                                                    1229(r),755(r),210(r),287(r)
                                                    262(r),634(r),736(r),1230(r)
                                                    1232(r),911(r),1253(r)
                                                    1363(r),780(r),1206(r)
                                                    626(r),1533(r),756(r),364(r)
                                                    815(r),630(r),740(r),1358(r)
                                                    1534(r),625(r),548(r)
                                                    1301(r),818(r),554(r),556(r)
                                                    598(r),1251(r),1509(r)
                                                    559(r),1328(r),731(r),734(r)
                                                    1590(r),735(r),1310(r)
                                                    1519(r),738(r),1305(r)
                                                    599(r),214(r),1623(r)
                                                    1576(r),1540(r),1306(r)
                                                    1254(r),1210(r),288(r)
                                                    1503(r),244(r),1507(r)
                                                    860(r),1516(r),1207(r)
                                                    1318(r),729(r),575(r),627(r)
                                                    913(r),236(r),1573(r)
                                                    1518(r),1200(r),1511(r)
                                                    1170(r),1308(r),732(r)
                                                    810(r)
   175. LP*(   8)Fe  43                  0.07956     0.43669   
   176. LP*(   9)Fe  43                  0.06441     0.03386   
  1274. RY*(   1)Fe  43                  0.00474     1.25480   
  1275. RY*(   2)Fe  43                  0.00258     0.74712   
  1276. RY*(   3)Fe  43                  0.00137     0.78534   
  1277. RY*(   4)Fe  43                  0.00087     1.37711   
  1278. RY*(   5)Fe  43                  0.00047     0.97490   
  1279. RY*(   6)Fe  43                  0.00036     1.25851   
  1280. RY*(   7)Fe  43                  0.00025     1.74613   
  1281. RY*(   8)Fe  43                  0.00016     1.77065   
  1282. RY*(   9)Fe  43                  0.00011     1.91190   
  1283. RY*(  10)Fe  43                  0.00008     2.18356   
  1284. RY*(  11)Fe  43                  0.00007     3.26167   
  1285. RY*(  12)Fe  43                  0.00004     1.98234   
  1286. RY*(  13)Fe  43                  0.00004     2.37311   
  1287. RY*(  14)Fe  43                  0.00003     2.38415   
  1288. RY*(  15)Fe  43                  0.00004     3.27581   
  1289. RY*(  16)Fe  43                  0.00002     2.90019   
  1290. RY*(  17)Fe  43                  0.00003     3.66678   
  1291. RY*(  18)Fe  43                  0.00001     3.20757   
  1292. RY*(  19)Fe  43                  0.00001     2.22557   
  1293. RY*(  20)Fe  43                  0.00002     3.64417   
  1294. RY*(  21)Fe  43                  0.00000     3.40726   
  1295. RY*(  22)Fe  43                  0.00001     3.53327   
  1296. RY*(  23)Fe  43                  0.00001     3.01004   
  1297. RY*(  24)Fe  43                  0.00000     4.17204   
  1298. RY*(  25)Fe  43                  0.00001     4.06389   
  1299. RY*(  26)Fe  43                  0.00001     4.01864   
  1300. RY*(  27)Fe  43                  0.00000     2.76736   
       -------------------------------
              Total Lewis   10.90882  ( 91.8530%)
        Valence non-Lewis    0.95623  (  8.0515%)
        Rydberg non-Lewis    0.01134  (  0.0955%)
       -------------------------------
            Total unit  2   11.87639  (100.0000%)
           Charge unit  2    1.12361

 Molecular unit  3  (H2O)
    90. BD (   1) O  44 - H  76          0.99757    -0.81108  175(r),172(r),174(r),171(r)
                                                    1276(r),1174(r),1275(r)
                                                    1277(r),176(r),1279(r)
                                                    1196(r),1248(r),1274(r)
                                                    1187(r),1278(r)
    91. BD (   1) O  44 - H  77          0.98014    -0.81360  175(r),172(r),171(r),174(r)
                                                    1275(r),173(r),176(r)
                                                    1200(r),1280(r),1172(r)
                                                    1513(r),1222(r),1170(r)
                                                    1279(r),1249(r),1328(r)
                                                    1277(r),1171(r),1276(r)
                                                    1197(r),1515(r),1289(r)
                                                    1601(r)
   145. CR (   1) O  44                  0.99992   -19.01638  175(r),172(r),174(r),171(r)
                                                    176(r)
   177. LP (   1) O  44                  0.98487    -0.44259  176(r),172(r),173(r),175(r)
                                                    1509(v),1503(v),171(r)
                                                    1277(r),1248(r),1513(r)
                                                    1550(r),174(r),1274(r)
                                                    1278(r),1279(r),1280(r)
                                                    1275(r)
   178. LP (   2) O  44                  0.90706    -0.52463  172(r),175(r),174(r),171(r)
                                                    1623(g),176(r),1504(v)
                                                    1510(v),1622(g),1249(r)
                                                    1197(r),1172(r),1280(r)
                                                    1222(r),1278(r),1225(r)
                                                    1173(r),1284(r),1196(r)
                                                    1224(r),1170(r),1199(r)
                                                    1281(r),1248(r),1515(r)
                                                    1577(r),1275(r),1571(r)
                                                    173(r),1602(r),1176(r)
                                                    1174(r),1223(r),1556(r)
                                                    1549(r),1250(r)
  1301. RY*(   1) O  44                  0.00110     1.04445   
  1302. RY*(   2) O  44                  0.00029     1.51204   
  1303. RY*(   3) O  44                  0.00023     0.70766   
  1304. RY*(   4) O  44                  0.00014     1.23963   
  1305. RY*(   5) O  44                  0.00003     2.46687   
  1306. RY*(   6) O  44                  0.00002     2.21806   
  1307. RY*(   7) O  44                  0.00000     2.89686   
  1308. RY*(   8) O  44                  0.00001     4.61303   
  1309. RY*(   9) O  44                  0.00001     3.44464   
  1310. RY*(  10) O  44                  0.00001     2.50345   
  1311. RY*(  11) O  44                  0.00000     6.43944   
  1312. RY*(  12) O  44                  0.00000    42.76964   
  1313. RY*(  13) O  44                  0.00000     6.54850   
  1314. RY*(  14) O  44                  0.00000     3.22815   
  1315. RY*(  15) O  44                  0.00000     6.51428   
  1316. RY*(  16) O  44                  0.00001     2.22715   
  1317. RY*(  17) O  44                  0.00000     6.30448   
  1318. RY*(  18) O  44                  0.00001     2.64115   
  1319. RY*(  19) O  44                  0.00000     6.51297   
  1320. RY*(  20) O  44                  0.00000     5.43372   
  1321. RY*(  21) O  44                  0.00000     5.68386   
  1322. RY*(  22) O  44                  0.00000     5.41752   
  1323. RY*(  23) O  44                  0.00000     5.25962   
  1324. RY*(  24) O  44                  0.00000     5.26930   
  1325. RY*(  25) O  44                  0.00000     5.31050   
  1326. RY*(  26) O  44                  0.00000     5.56646   
  1503. RY*(   1) H  76                  0.00046     1.60099   
  1504. RY*(   2) H  76                  0.00033     2.14060   
  1505. RY*(   3) H  76                  0.00028     1.80890   
  1506. RY*(   4) H  76                  0.00020     1.56625   
  1507. RY*(   5) H  76                  0.00000     2.89603   
  1508. RY*(   1) H  77                  0.00073     1.33601   
  1509. RY*(   2) H  77                  0.00043     1.81596   
  1510. RY*(   3) H  77                  0.00032     2.24989   
  1511. RY*(   4) H  77                  0.00011     2.09707   
  1512. RY*(   5) H  77                  0.00001     2.91076   
  1622. BD*(   1) O  44 - H  76          0.00308     0.43503   
  1623. BD*(   1) O  44 - H  77          0.00533     0.42112   
       -------------------------------
              Total Lewis    4.86956  ( 99.7310%)
        Valence non-Lewis    0.00842  (  0.1724%)
        Rydberg non-Lewis    0.00472  (  0.0966%)
       -------------------------------
            Total unit  3    4.88270  (100.0000%)
           Charge unit  3    0.11730

 Molecular unit  4  (H2O)
    92. BD (   1) O  45 - H  78          0.92740    -0.77627  175(r),171(r),172(r),174(r)
                                                    173(r),176(r),1625(g)
                                                    1515(g),1224(r),1225(r)
                                                    1251(r),170(r),1586(r)
                                                    1283(r),1281(r),1249(r)
                                                    1248(r),1170(r),1198(r)
                                                    1284(r),1592(r),1282(r)
                                                    1276(r),1222(r),1608(r)
                                                    1250(r),1279(r),1172(r)
                                                    1274(r),1601(r),1577(r)
                                                    1602(r)
    93. BD (   1) O  45 - H  79          0.98693    -0.74884  175(r),172(r),171(r),173(r)
                                                    1275(r),1516(v),1281(r)
                                                    170(r),1198(r),1277(r)
                                                    174(r),1276(r),1249(r)
                                                    1224(r),1302(r),1204(r)
   146. CR (   1) O  45                  0.99992   -18.96477  175(r),171(r),172(r),1513(v)
                                                    176(r),174(r),1279(r),173(r)
                                                    1280(r)
   179. LP (   1) O  45                  0.98436    -0.59991  175(r),176(r),171(r),173(r)
                                                    1275(r),174(r),172(r)
                                                    1602(r),1282(r),1278(r)
                                                    1276(r),1281(r),1280(r)
                                                    1302(r),1250(r),1171(r)
                                                    1198(r)
   180. LP (   2) O  45                  0.95199    -0.33846  175(r),172(r),176(r),1624(g)
                                                    171(r),1515(v),173(r)
                                                    1519(v),1172(r),1277(r)
                                                    1251(r),1250(r),1198(r)
                                                    1284(r),1173(r),1170(r)
                                                    1304(r),1225(r),1556(r)
                                                    1197(r),808(r),1222(r)
  1327. RY*(   1) O  45                  0.00195     0.93627   
  1328. RY*(   2) O  45                  0.00029     0.91962   
  1329. RY*(   3) O  45                  0.00017     1.62478   
  1330. RY*(   4) O  45                  0.00013     1.83157   
  1331. RY*(   5) O  45                  0.00010     1.16391   
  1332. RY*(   6) O  45                  0.00006     2.11508   
  1333. RY*(   7) O  45                  0.00002     1.82468   
  1334. RY*(   8) O  45                  0.00003     2.71117   
  1335. RY*(   9) O  45                  0.00002     2.73498   
  1336. RY*(  10) O  45                  0.00000     3.56067   
  1337. RY*(  11) O  45                  0.00000     6.36061   
  1338. RY*(  12) O  45                  0.00000    42.68506   
  1339. RY*(  13) O  45                  0.00000     6.37837   
  1340. RY*(  14) O  45                  0.00000     3.01128   
  1341. RY*(  15) O  45                  0.00000     6.40900   
  1342. RY*(  16) O  45                  0.00001     4.03688   
  1343. RY*(  17) O  45                  0.00000     6.36358   
  1344. RY*(  18) O  45                  0.00001     2.60750   
  1345. RY*(  19) O  45                  0.00000     6.39097   
  1346. RY*(  20) O  45                  0.00000     5.34978   
  1347. RY*(  21) O  45                  0.00000     5.66887   
  1348. RY*(  22) O  45                  0.00000     5.49002   
  1349. RY*(  23) O  45                  0.00000     5.25267   
  1350. RY*(  24) O  45                  0.00000     5.44100   
  1351. RY*(  25) O  45                  0.00000     5.36574   
  1352. RY*(  26) O  45                  0.00000     5.67101   
  1513. RY*(   1) H  78                  0.00231     2.19311   
  1514. RY*(   2) H  78                  0.00047     2.45079   
  1515. RY*(   3) H  78                  0.00036     2.12728   
  1516. RY*(   4) H  78                  0.00023     2.53469   
  1517. RY*(   5) H  78                  0.00019     3.67325   
  1518. RY*(   1) H  79                  0.00053     1.21834   
  1519. RY*(   2) H  79                  0.00025     2.16029   
  1520. RY*(   3) H  79                  0.00019     1.74468   
  1521. RY*(   4) H  79                  0.00008     2.70172   
  1522. RY*(   5) H  79                  0.00001     3.42965   
  1624. BD*(   1) O  45 - H  78          0.04541     0.46738   
  1625. BD*(   1) O  45 - H  79          0.00220     0.45066   
       -------------------------------
              Total Lewis    4.85060  ( 98.8789%)
        Valence non-Lewis    0.04761  (  0.9706%)
        Rydberg non-Lewis    0.00738  (  0.1505%)
       -------------------------------
            Total unit  4    4.90560  (100.0000%)
           Charge unit  4    0.09440

 Molecular unit  5  (H)
   181. LP*(   1) H  65                  0.28293     0.02313  1588(r),1594(r),1593(r)
                                                    1448(g),1589(r),1450(g)
                                                    845(r),1542(r),832(r),847(r)
                                                    1587(r),850(r),834(r),841(r)
                                                    840(r),837(r),842(r),1591(r)
                                                    1541(r),1545(r),833(r)
                                                    851(r),762(r),1596(r)
                                                    1441(r),1438(r),760(r)
                                                    1442(r),1439(r),1586(r)
  1448. RY*(   1) H  65                  0.00075     1.43656   
  1449. RY*(   2) H  65                  0.00018     2.37200   
  1450. RY*(   3) H  65                  0.00009     2.32518   
  1451. RY*(   4) H  65                  0.00003     1.54803   
  1452. RY*(   5) H  65                  0.00000     2.80552   
       -------------------------------
              Total Lewis    0.00000  (  0.0000%)
        Valence non-Lewis    0.28293  ( 99.6312%)
        Rydberg non-Lewis    0.00105  (  0.3688%)
       -------------------------------
            Total unit  5    0.28397  (100.0000%)
           Charge unit  5    0.21603
 1\1\GINC-NODE821\SP\UPBE1PBE\def2TZVP\C34H36Fe1N4O6(5)\KLEICH\18-Sep-2
 022\0\\# PBE1PBE/def2TZVP empiricaldispersion=GD3BJ int=(grid=ultrafin
 e) geom=check pop=nbo\\1cce_II_Q\\0,5\C,0,-5.48,53.62,113.148\C,0,-7.5
 71,57.663,114.65\C,0,-6.212,59.774,110.58\C,0,-3.759,55.864,109.383\C,
 0,-6.201,54.529,113.94\C,0,-6.717,54.212,115.182\C,0,-7.392,55.377,115
 .614\C,0,-7.138,56.332,114.631\C,0,-8.283,55.562,116.835\C,0,-6.584,52
 .826,115.8\C,0,-5.521,52.715,116.871\C,0,-5.378,51.363,117.57\O,0,-6.2
 17,50.989,118.381\O,0,-4.403,50.646,117.362\C,0,-7.47,58.618,113.624\C
 ,0,-8.124,59.862,113.625\C,0,-7.763,60.457,112.409\C,0,-6.911,59.538,1
 11.776\C,0,-9.109,60.337,114.701\C,0,-8.111,61.69,111.839\C,0,-8.971,6
 2.736,112.366\C,0,-5.303,58.954,109.91\C,0,-4.54,59.325,108.805\C,0,-3
 .794,58.17,108.484\C,0,-4.196,57.199,109.399\C,0,-4.519,60.709,108.176
 \C,0,-2.842,57.879,107.491\C,0,-2.374,58.685,106.381\C,0,-3.977,54.842
 ,110.284\C,0,-3.64,53.509,110.086\C,0,-4.164,52.855,111.174\C,0,-4.755
 ,53.841,111.963\C,0,-2.888,52.827,108.948\C,0,-4.093,51.352,111.4\C,0,
 -3.176,51.046,112.555\C,0,-2.982,49.599,112.903\O,0,-2.36,49.336,113.9
 3\O,0,-3.445,48.727,112.182\N,0,-6.448,55.803,113.62\N,0,-6.816,58.405
 ,112.482\N,0,-5.033,57.698,110.293\N,0,-4.582,55.057,111.445\Fe,0,-5.7
 19,56.734,111.941\O,0,-4.284,57.394,113.195\O,0,-7.101,55.961,110.708\
 H,0,-5.48270944,52.60896755,113.49829422\H,0,-8.03524361,57.99339133,1
 15.55565967\H,0,-6.40448998,60.71877956,110.11606123\H,0,-3.16139901,5
 5.59694099,108.5365648\H,0,-8.36891296,56.60472598,117.05914613\H,0,-9
 .2535454,55.15955328,116.6325691\H,0,-7.85260181,55.05171079,117.67121
 906\H,0,-6.26267678,52.18481752,115.00593676\H,0,-7.51406047,52.639558
 31,116.29510304\H,0,-5.82540006,53.39559646,117.63848228\H,0,-4.592865
 39,52.86505729,116.36016837\H,0,-8.77788362,61.27326601,115.09933139\H
 ,0,-10.07993397,60.45711609,114.26768792\H,0,-9.15617378,59.61190816,1
 15.48644029\H,0,-7.68211721,61.88898932,110.87912355\H,0,-9.61039298,6
 3.44231863,111.87897781\H,0,-9.71396272,62.06975701,111.97996027\H,0,-
 4.33953601,61.02979666,107.17112082\H,0,-3.48301127,60.45600158,108.08
 871229\H,0,-5.390304,60.30877178,107.70108241\H,0,-2.39264453,56.91087
 831,107.56663101\H,0,-1.53288319,59.26802394,106.69325886\H,0,-3.15887
 185,59.3361707,106.05719003\H,0,-2.17243963,52.14237926,109.35317626\H
 ,0,-3.58132302,52.29459616,108.33095109\H,0,-2.3826099,53.56551138,108
 .36141514\H,0,-3.63788041,50.93188344,110.52749313\H,0,-5.07286653,51.
 03970224,111.69535012\H,0,-3.65009218,51.4786957,113.41110223\H,0,-2.2
 1158769,51.39132073,112.24586815\H,0,-3.53292348,57.99189971,113.195\H
 ,0,-3.97065359,56.48657836,113.195\H,0,-6.34992348,56.55889971,110.708
 \H,0,-6.78765359,55.05357836,110.708\H,0,-2.85733077,48.14197171,111.6
 9827821\H,0,-3.51645184,50.99970047,117.46460767\\Version=AM64L-G16Rev
 A.03\State=5-A\HF=-3249.1908314\S2=6.558161\S2-1=0.\S2A=6.040615\RMSD=
 2.778e-09\Dipole=0.9405691,1.0880514,-1.6647893\Quadrupole=12.5881903,
 0.17118,-12.7593702,-21.6423152,3.1602522,29.3639186\PG=C01 [X(C34H36F
 e1N4O6)]\\@


 ABALONE: AN EXPRESSION OF DISBELIEF.
 Job cpu time:       6 days  2 hours 27 minutes 53.2 seconds.
 Elapsed time:       1 days 12 hours 42 minutes 29.7 seconds.
 File lengths (MBytes):  RWF=   2427 Int=      0 D2E=      0 Chk=    213 Scr=      1
 Normal termination of Gaussian 16 at Sun Sep 18 02:56:24 2022.
