 Initial command:
 /afs/math/software/gaussian/g16.A03/g16/l1.exe "/scratch/kleich_gaussian.nqdtCy0/Gau-7687.inp" -scrdir="/scratch/kleich_gaussian.nqdtCy0/"
 Entering Link 1 = /afs/math/software/gaussian/g16.A03/g16/l1.exe PID=     10035.
  
 Copyright (c) 1988,1990,1992,1993,1995,1998,2003,2009,2016,
            Gaussian, Inc.  All Rights Reserved.
  
 This is part of the Gaussian(R) 16 program.  It is based on
 the Gaussian(R) 09 system (copyright 2009, Gaussian, Inc.),
 the Gaussian(R) 03 system (copyright 2003, Gaussian, Inc.),
 the Gaussian(R) 98 system (copyright 1998, Gaussian, Inc.),
 the Gaussian(R) 94 system (copyright 1995, Gaussian, Inc.),
 the Gaussian 92(TM) system (copyright 1992, Gaussian, Inc.),
 the Gaussian 90(TM) system (copyright 1990, Gaussian, Inc.),
 the Gaussian 88(TM) system (copyright 1988, Gaussian, Inc.),
 the Gaussian 86(TM) system (copyright 1986, Carnegie Mellon
 University), and the Gaussian 82(TM) system (copyright 1983,
 Carnegie Mellon University). Gaussian is a federally registered
 trademark of Gaussian, Inc.
  
 This software contains proprietary and confidential information,
 including trade secrets, belonging to Gaussian, Inc.
  
 This software is provided under written license and may be
 used, copied, transmitted, or stored only in accord with that
 written license.
  
 The following legend is applicable only to US Government
 contracts under FAR:
  
                    RESTRICTED RIGHTS LEGEND
  
 Use, reproduction and disclosure by the US Government is
 subject to restrictions as set forth in subparagraphs (a)
 and (c) of the Commercial Computer Software - Restricted
 Rights clause in FAR 52.227-19.
  
 Gaussian, Inc.
 340 Quinnipiac St., Bldg. 40, Wallingford CT 06492
  
  
 ---------------------------------------------------------------
 Warning -- This program may not be used in any manner that
 competes with the business of Gaussian, Inc. or will provide
 assistance to any competitor of Gaussian, Inc.  The licensee
 of this program is prohibited from giving any competitor of
 Gaussian, Inc. access to this program.  By using this program,
 the user acknowledges that Gaussian, Inc. is engaged in the
 business of creating and licensing software in the field of
 computational chemistry and represents and warrants to the
 licensee that it is not a competitor of Gaussian, Inc. and that
 it will not use this program in any manner prohibited above.
 ---------------------------------------------------------------
  

 Cite this work as:
 Gaussian 16, Revision A.03,
 M. J. Frisch, G. W. Trucks, H. B. Schlegel, G. E. Scuseria, 
 M. A. Robb, J. R. Cheeseman, G. Scalmani, V. Barone, 
 G. A. Petersson, H. Nakatsuji, X. Li, M. Caricato, A. V. Marenich, 
 J. Bloino, B. G. Janesko, R. Gomperts, B. Mennucci, H. P. Hratchian, 
 J. V. Ortiz, A. F. Izmaylov, J. L. Sonnenberg, D. Williams-Young, 
 F. Ding, F. Lipparini, F. Egidi, J. Goings, B. Peng, A. Petrone, 
 T. Henderson, D. Ranasinghe, V. G. Zakrzewski, J. Gao, N. Rega, 
 G. Zheng, W. Liang, M. Hada, M. Ehara, K. Toyota, R. Fukuda, 
 J. Hasegawa, M. Ishida, T. Nakajima, Y. Honda, O. Kitao, H. Nakai, 
 T. Vreven, K. Throssell, J. A. Montgomery, Jr., J. E. Peralta, 
 F. Ogliaro, M. J. Bearpark, J. J. Heyd, E. N. Brothers, K. N. Kudin, 
 V. N. Staroverov, T. A. Keith, R. Kobayashi, J. Normand, 
 K. Raghavachari, A. P. Rendell, J. C. Burant, S. S. Iyengar, 
 J. Tomasi, M. Cossi, J. M. Millam, M. Klene, C. Adamo, R. Cammi, 
 J. W. Ochterski, R. L. Martin, K. Morokuma, O. Farkas, 
 J. B. Foresman, and D. J. Fox, Gaussian, Inc., Wallingford CT, 2016.
 
 ******************************************
 Gaussian 16:  ES64L-G16RevA.03 25-Dec-2016
                16-Sep-2022 
 ******************************************
 %nprocs=12
 Will use up to   12 processors via shared memory.
 %mem=16GB
 %chk=1ccg_II_S.chk
 ----------------------------------------------------------------------
 # PBE1PBE/def2TZVP empiricaldispersion=GD3BJ int=(grid=ultrafine) geom
 =check guess=read scrf=(smd,solvent=Chloroform)
 ----------------------------------------------------------------------
 1/29=2,38=1,172=1/1;
 2/12=2,40=1/2;
 3/5=44,7=101,11=2,14=-4,25=1,30=1,70=32201,72=7,74=-13,75=-5,116=-2,124=41/1,2,3;
 4/5=1/1;
 5/5=2,38=6,53=7/2;
 6/7=2,8=2,9=2,10=2,28=1/1;
 99/5=1,9=1/99;
 --------------
 1ccg_II_S_solv
 --------------
 Structure from the checkpoint file:  "1ccg_II_S.chk"
 Charge =  0 Multiplicity = 1
 Z-Matrix found in chk file.
 C,0,-5.506,53.923,112.93
 C,0,-7.562,57.972,114.378
 C,0,-5.926,60.126,110.472
 C,0,-3.654,56.114,109.164
 C,0,-6.228,54.827,113.698
 C,0,-6.758,54.532,114.942
 C,0,-7.395,55.715,115.374
 C,0,-7.147,56.642,114.369
 C,0,-8.23,55.922,116.645
 C,0,-6.626,53.173,115.641
 C,0,-5.472,53.012,116.584
 C,0,-5.394,51.617,117.224
 O,0,-6.246,51.26,118.04
 O,0,-4.475,50.847,116.942
 C,0,-7.381,58.932,113.376
 C,0,-7.941,60.211,113.411
 C,0,-7.522,60.812,112.232
 C,0,-6.685,59.879,111.612
 C,0,-8.919,60.678,114.485
 C,0,-7.826,62.055,111.651
 C,0,-8.743,63.064,112.11
 C,0,-5.081,59.253,109.775
 C,0,-4.298,59.622,108.683
 C,0,-3.589,58.446,108.366
 C,0,-4.047,57.462,109.229
 C,0,-4.188,61.047,108.081
 C,0,-2.635,58.152,107.378
 C,0,-2.272,58.924,106.228
 C,0,-4.,55.082,110.014
 C,0,-3.674,53.753,109.834
 C,0,-4.208,53.123,110.964
 C,0,-4.83,54.109,111.715
 C,0,-3.02,53.099,108.613
 C,0,-4.19,51.63,111.27
 C,0,-3.016,51.229,112.145
 C,0,-3.008,49.79,112.601
 O,0,-2.443,49.528,113.657
 O,0,-3.547,48.922,111.918
 N,0,-6.462,56.1,113.359
 N,0,-6.701,58.711,112.255
 N,0,-4.921,57.955,110.104
 N,0,-4.723,55.274,111.116
 Fe,0,-5.857,56.937,111.603
 N,0,-9.264,56.772,109.591
 C,0,-8.576,56.828,110.692
 N,0,-7.374,56.4,110.42
 C,0,-7.308,56.079,109.165
 C,0,-8.548,56.317,108.604
 H,0,-10.166,57.108,109.493
 O,0,-4.422,57.485,112.862
 H,0,-5.45782113,52.93038101,113.32659342
 H,0,-8.08069798,58.29811361,115.25521281
 H,0,-5.99760271,61.11670263,110.07415412
 H,0,-3.00493273,55.8547598,108.35381101
 H,0,-8.29848407,56.96786322,116.86036031
 H,0,-9.21175387,55.52358038,116.49559734
 H,0,-7.7619019,55.41887131,117.4651498
 H,0,-6.44721884,52.46901742,114.85528642
 H,0,-7.5012008,53.08406969,116.25010997
 H,0,-5.65300175,53.69407989,117.38830429
 H,0,-4.58942939,53.11072806,115.98715673
 H,0,-8.46371308,61.44873123,115.07116311
 H,0,-9.8040266,61.05930165,114.01998713
 H,0,-9.17510627,59.85346206,115.11701801
 H,0,-7.30480633,62.28163664,110.74441686
 H,0,-9.30143044,62.91003662,113.00963921
 H,0,-8.86660125,63.96842137,111.55174851
 H,0,-3.96248284,61.38427734,107.09090606
 H,0,-3.16344207,60.7451661,108.01714588
 H,0,-5.06293474,60.70293935,107.57010718
 H,0,-2.1095021,57.22809277,107.50107472
 H,0,-2.75434073,59.86002192,106.03797265
 H,0,-1.5183987,58.56487385,105.5586619
 H,0,-2.27695181,52.4008133,108.93752229
 H,0,-3.76507449,52.58672515,108.04086497
 H,0,-2.56112515,53.85261299,108.00768906
 H,0,-4.04362608,51.13631942,110.33204789
 H,0,-5.07023292,51.43423488,111.84599134
 H,0,-3.11319677,51.81093673,113.0376379
 H,0,-2.14912823,51.33767231,111.52724304
 H,0,-8.9296665,57.16293665,111.64470008
 H,0,-6.44757409,55.69818255,108.65554409
 H,0,-8.85064928,56.16247035,107.58939466
 H,0,-3.67092348,58.08289971,112.862
 H,0,-4.10865359,56.57757836,112.862
 H,0,-5.97701984,50.89062643,118.88428244
 H,0,-3.01035,48.29644543,111.42577215
 Recover connectivity data from disk.
 Center=     -5.69504601     56.23397221    111.88815250
 Residue   0                        charge    0.00000000 layers R        AvRTP=      7.49740844    280.25480075     64.16799963
 Residue   4                        charge    0.00000000 layers R        AvRTP=      0.00000000      0.00000000      0.00000000
 Residue   2 PDB Number   575_A IMD charge    0.00000000 layers R        AvRTP=      3.58109175    174.28708208    130.98602261
 Residue   3 PDB Number   313_A HOH charge    0.00000000 layers R        AvRTP=      2.21717271     35.18893807     63.94527408
 Residue   1 PDB Number     1_A HEM charge    0.00000000 layers R        AvRTP=      0.29944987     23.66350593     57.69198574
 Stoichiometry    C37H38FeN6O5
 Framework group  C1[X(C37H38FeN6O5)]
 Deg. of freedom   255
 Full point group                 C1      NOp   1
 Largest Abelian subgroup         C1      NOp   1
 Largest concise Abelian subgroup C1      NOp   1
                         Standard orientation:                         
 ---------------------------------------------------------------------
 Center     Atomic      Atomic             Coordinates (Angstroms)
 Number     Number       Type             X           Y           Z
 ---------------------------------------------------------------------
      1          6           0       -2.341147   -0.087175    0.262138
      2          6           0        0.995264   -3.454204   -0.237578
      3          6           0        4.282185   -0.048016   -0.646326
      4          6           0        0.880258    3.318637   -0.398269
      5          6           0       -1.739433   -1.335050    0.166899
      6          6           0       -2.438089   -2.529722    0.156800
      7          6           0       -1.460638   -3.540642    0.036331
      8          6           0       -0.253692   -2.860163   -0.068963
      9          6           0       -1.671537   -5.060417    0.072694
     10          6           0       -3.964882   -2.642523    0.252103
     11          6           0       -4.716174   -2.701943   -1.043627
     12          6           0       -6.240043   -2.788572   -0.864662
     13          8           0       -6.753382   -3.808122   -0.399679
     14          8           0       -6.965770   -1.850150   -1.195826
     15          6           0        2.242116   -2.822105   -0.302203
     16          6           0        3.460591   -3.503376   -0.345264
     17          6           0        4.422473   -2.503552   -0.389279
     18          6           0        3.711319   -1.300676   -0.442255
     19          6           0        3.589811   -5.017051   -0.203352
     20          6           0        5.826668   -2.547984   -0.353391
     21          6           0        6.688241   -3.688815   -0.192611
     22          6           0        3.655693    1.203852   -0.694268
     23          6           0        4.309907    2.399294   -0.985190
     24          6           0        3.276689    3.357698   -0.976926
     25          6           0        2.117318    2.687864   -0.616413
     26          6           0        5.810632    2.552230   -1.345141
     27          6           0        3.268335    4.743920   -1.202791
     28          6           0        4.379370    5.643972   -1.278697
     29          6           0       -0.336058    2.734044   -0.104899
     30          6           0       -1.495196    3.413133    0.211575
     31          6           0       -2.441354    2.395890    0.381751
     32          6           0       -1.777510    1.194879    0.181837
     33          6           0       -1.669620    4.913025    0.468814
     34          6           0       -3.898665    2.565334    0.794718
     35          6           0       -4.837188    2.634942   -0.396513
     36          6           0       -6.308954    2.666210   -0.062378
     37          8           0       -7.093116    2.218160   -0.891441
     38          8           0       -6.690412    3.138002    1.006424
     39          7           0       -0.424535   -1.539306    0.027156
     40          7           0        2.404121   -1.502698   -0.273888
     41          7           0        2.336094    1.381642   -0.480508
     42          7           0       -0.507987    1.413529   -0.078889
     43         26           0        0.959964   -0.045150   -0.000976
     44          7           0        2.280541   -0.306056    3.723406
     45          6           0        1.737098   -0.806619    2.654394
     46          7           0        1.259811    0.189171    1.959721
     47          6           0        1.499839    1.300357    2.584281
     48          6           0        2.171460    0.990545    3.751289
     49          1           0        2.780947   -0.819336    4.373207
     50          8           0        0.651998   -0.387767   -1.932913
     51          1           0       -3.399030   -0.106564    0.421534
     52          1           0        1.001868   -4.520318   -0.328448
     53          1           0        5.343079   -0.040119   -0.785404
     54          1           0        0.881058    4.386340   -0.468343
     55          1           0       -0.824353   -5.548564   -0.361923
     56          1           0       -1.785917   -5.380454    1.087284
     57          1           0       -2.551373   -5.311778   -0.481928
     58          1           0       -4.284954   -1.735671    0.721224
     59          1           0       -4.148069   -3.583896    0.726613
     60          1           0       -4.423065   -3.618794   -1.510930
     61          1           0       -4.530858   -1.768772   -1.533269
     62          1           0        3.941349   -5.432917   -1.124426
     63          1           0        4.284184   -5.243998    0.578466
     64          1           0        2.634516   -5.435739    0.035422
     65          1           0        6.322107   -1.605619   -0.460107
     66          1           0        6.266819   -4.665859   -0.079973
     67          1           0        7.750470   -3.560279   -0.185667
     68          1           0        6.492506    3.366680   -1.216231
     69          1           0        5.387840    3.251809   -2.035601
     70          1           0        5.879880    2.561583   -0.277425
     71          1           0        2.303197    5.186301   -1.335858
     72          1           0        5.376169    5.275014   -1.155558
     73          1           0        4.212819    6.685514   -1.458557
     74          1           0       -2.559535    5.256870   -0.015667
     75          1           0       -1.746436    5.087769    1.521650
     76          1           0       -0.824731    5.442179    0.080150
     77          1           0       -3.961501    3.517706    1.278390
     78          1           0       -4.161496    1.675911    1.328335
     79          1           0       -4.685522    1.721866   -0.933346
     80          1           0       -4.631324    3.573210   -0.867865
     81          1           0        1.689860   -1.843012    2.392559
     82          1           0        1.226705    2.281046    2.254818
     83          1           0        2.521993    1.663246    4.505942
     84          1           0        1.048135   -0.131521   -2.768983
     85          1           0       -0.208135    0.029447   -1.845145
     86          1           0       -7.489499   -4.224820   -0.853656
     87          1           0       -7.130146    3.991169    1.024820
 ---------------------------------------------------------------------
 Rotational constants (GHZ):           0.0819071           0.0475467           0.0338762
 Standard basis: def2TZVP (5D, 7F)
 There are  2008 symmetry adapted cartesian basis functions of A   symmetry.
 There are  1761 symmetry adapted basis functions of A   symmetry.
  1761 basis functions,  2854 primitive gaussians,  2008 cartesian basis functions
   184 alpha electrons      184 beta electrons
       nuclear repulsion energy      7371.5366171953 Hartrees.
 NAtoms=   87 NActive=   87 NUniq=   87 SFac= 1.00D+00 NAtFMM=   60 NAOKFM=T Big=T
 Integral buffers will be    131072 words long.
 Raffenetti 2 integral format.
 Two-electron integral symmetry is turned on.
 Nuclear repulsion after empirical dispersion term =     7371.4146188558 Hartrees.
 ------------------------------------------------------------------------------
 Polarizable Continuum Model (PCM)
 =================================
 Model                : PCM.
 Atomic radii         : SMD-Coulomb.
 Polarization charges : Total charges.
 Charge compensation  : None.
 Solution method      : On-the-fly selection.
 Cavity type          : VdW (van der Waals Surface) (Alpha=1.000).
 Cavity algorithm     : GePol (No added spheres)
                        Default sphere list used, NSphG=   87.
                        Lebedev-Laikov grids with approx.  5.0 points / Ang**2.
                        Smoothing algorithm: York/Karplus (Gamma=1.0000).
                        Polarization charges: spherical gaussians, with
                                              point-specific exponents (IZeta= 3).
                        Self-potential: point-specific (ISelfS= 7).
                        Self-field    : sphere-specific E.n sum rule (ISelfD= 2).
 Solvent              : Chloroform, Eps=   4.711300 Eps(inf)=   2.090627
 ------------------------------------------------------------------------------
 ------------------------------------------------------------------------------
 Atomic radii for non-electrostatic terms: SMD-CDS.
 ------------------------------------------------------------------------------
 Nuclear repulsion after PCM non-electrostatic terms =     7371.3960504471 Hartrees.
 One-electron integrals computed using PRISM.
   1 Symmetry operations used in ECPInt.
 ECPInt:  NShTT=  241860 NPrTT=  750929 LenC2=  176350 LenP2D=  356217.
 LDataN:  DoStor=T MaxTD1= 6 Len=  172
 NBasis=  1761 RedAO= T EigKep=  2.74D-06  NBF=  1761
 NBsUse=  1761 1.00D-06 EigRej= -1.00D+00 NBFU=  1761
 Initial guess from the checkpoint file:  "1ccg_II_S.chk"
 B after Tr=     0.000000   -0.000000   -0.000000
         Rot=    1.000000    0.000000   -0.000000    0.000000 Ang=   0.00 deg.
 Requested convergence on RMS density matrix=1.00D-08 within 128 cycles.
 Requested convergence on MAX density matrix=1.00D-06.
 Requested convergence on             energy=1.00D-06.
 No special actions if energy rises.
 Inv3:  Mode=1 IEnd=   115506075.
 Iteration    1 A*A^-1 deviation from unit magnitude is 3.77D-15 for    721.
 Iteration    1 A*A^-1 deviation from orthogonality  is 2.83D-15 for   2795     18.
 Iteration    1 A^-1*A deviation from unit magnitude is 4.11D-15 for   1558.
 Iteration    1 A^-1*A deviation from orthogonality  is 1.03D-13 for   3734   3687.
 Error on total polarization charges =  0.06416
 SCF Done:  E(RPBE1PBE) =  -3399.22786378     A.U. after   15 cycles
            NFock= 15  Conv=0.70D-08     -V/T= 2.0027
 SMD-CDS (non-electrostatic) energy       (kcal/mol) =     -11.65
 (included in total energy above)

 **********************************************************************

            Population analysis using the SCF density.

 **********************************************************************

 Orbital symmetries:
       Occupied  (A) (A) (A) (A) (A) (A) (A) (A) (A) (A) (A) (A)
                 (A) (A) (A) (A) (A) (A) (A) (A) (A) (A) (A) (A)
                 (A) (A) (A) (A) (A) (A) (A) (A) (A) (A) (A) (A)
                 (A) (A) (A) (A) (A) (A) (A) (A) (A) (A) (A) (A)
                 (A) (A) (A) (A) (A) (A) (A) (A) (A) (A) (A) (A)
                 (A) (A) (A) (A) (A) (A) (A) (A) (A) (A) (A) (A)
                 (A) (A) (A) (A) (A) (A) (A) (A) (A) (A) (A) (A)
                 (A) (A) (A) (A) (A) (A) (A) (A) (A) (A) (A) (A)
                 (A) (A) (A) (A) (A) (A) (A) (A) (A) (A) (A) (A)
                 (A) (A) (A) (A) (A) (A) (A) (A) (A) (A) (A) (A)
                 (A) (A) (A) (A) (A) (A) (A) (A) (A) (A) (A) (A)
                 (A) (A) (A) (A) (A) (A) (A) (A) (A) (A) (A) (A)
                 (A) (A) (A) (A) (A) (A) (A) (A) (A) (A) (A) (A)
                 (A) (A) (A) (A) (A) (A) (A) (A) (A) (A) (A) (A)
                 (A) (A) (A) (A) (A) (A) (A) (A) (A) (A) (A) (A)
                 (A) (A) (A) (A)
       Virtual   (A) (A) (A) (A) (A) (A) (A) (A) (A) (A) (A) (A)
                 (A) (A) (A) (A) (A) (A) (A) (A) (A) (A) (A) (A)
                 (A) (A) (A) (A) (A) (A) (A) (A) (A) (A) (A) (A)
                 (A) (A) (A) (A) (A) (A) (A) (A) (A) (A) (A) (A)
                 (A) (A) (A) (A) (A) (A) (A) (A) (A) (A) (A) (A)
                 (A) (A) (A) (A) (A) (A) (A) (A) (A) (A) (A) (A)
                 (A) (A) (A) (A) (A) (A) (A) (A) (A) (A) (A) (A)
                 (A) (A) (A) (A) (A) (A) (A) (A) (A) (A) (A) (A)
                 (A) (A) (A) (A) (A) (A) (A) (A) (A) (A) (A) (A)
                 (A) (A) (A) (A) (A) (A) (A) (A) (A) (A) (A) (A)
                 (A) (A) (A) (A) (A) (A) (A) (A) (A) (A) (A) (A)
                 (A) (A) (A) (A) (A) (A) (A) (A) (A) (A) (A) (A)
                 (A) (A) (A) (A) (A) (A) (A) (A) (A) (A) (A) (A)
                 (A) (A) (A) (A) (A) (A) (A) (A) (A) (A) (A) (A)
                 (A) (A) (A) (A) (A) (A) (A) (A) (A) (A) (A) (A)
                 (A) (A) (A) (A) (A) (A) (A) (A) (A) (A) (A) (A)
                 (A) (A) (A) (A) (A) (A) (A) (A) (A) (A) (A) (A)
                 (A) (A) (A) (A) (A) (A) (A) (A) (A) (A) (A) (A)
                 (A) (A) (A) (A) (A) (A) (A) (A) (A) (A) (A) (A)
                 (A) (A) (A) (A) (A) (A) (A) (A) (A) (A) (A) (A)
                 (A) (A) (A) (A) (A) (A) (A) (A) (A) (A) (A) (A)
                 (A) (A) (A) (A) (A) (A) (A) (A) (A) (A) (A) (A)
                 (A) (A) (A) (A) (A) (A) (A) (A) (A) (A) (A) (A)
                 (A) (A) (A) (A) (A) (A) (A) (A) (A) (A) (A) (A)
                 (A) (A) (A) (A) (A) (A) (A) (A) (A) (A) (A) (A)
                 (A) (A) (A) (A) (A) (A) (A) (A) (A) (A) (A) (A)
                 (A) (A) (A) (A) (A) (A) (A) (A) (A) (A) (A) (A)
                 (A) (A) (A) (A) (A) (A) (A) (A) (A) (A) (A) (A)
                 (A) (A) (A) (A) (A) (A) (A) (A) (A) (A) (A) (A)
                 (A) (A) (A) (A) (A) (A) (A) (A) (A) (A) (A) (A)
                 (A) (A) (A) (A) (A) (A) (A) (A) (A) (A) (A) (A)
                 (A) (A) (A) (A) (A) (A) (A) (A) (A) (A) (A) (A)
                 (A) (A) (A) (A) (A) (A) (A) (A) (A) (A) (A) (A)
                 (A) (A) (A) (A) (A) (A) (A) (A) (A) (A) (A) (A)
                 (A) (A) (A) (A) (A) (A) (A) (A) (A) (A) (A) (A)
                 (A) (A) (A) (A) (A) (A) (A) (A) (A) (A) (A) (A)
                 (A) (A) (A) (A) (A) (A) (A) (A) (A) (A) (A) (A)
                 (A) (A) (A) (A) (A) (A) (A) (A) (A) (A) (A) (A)
                 (A) (A) (A) (A) (A) (A) (A) (A) (A) (A) (A) (A)
                 (A) (A) (A) (A) (A) (A) (A) (A) (A) (A) (A) (A)
                 (A) (A) (A) (A) (A) (A) (A) (A) (A) (A) (A) (A)
                 (A) (A) (A) (A) (A) (A) (A) (A) (A) (A) (A) (A)
                 (A) (A) (A) (A) (A) (A) (A) (A) (A) (A) (A) (A)
                 (A) (A) (A) (A) (A) (A) (A) (A) (A) (A) (A) (A)
                 (A) (A) (A) (A) (A) (A) (A) (A) (A) (A) (A) (A)
                 (A) (A) (A) (A) (A) (A) (A) (A) (A) (A) (A) (A)
                 (A) (A) (A) (A) (A) (A) (A) (A) (A) (A) (A) (A)
                 (A) (A) (A) (A) (A) (A) (A) (A) (A) (A) (A) (A)
                 (A) (A) (A) (A) (A) (A) (A) (A) (A) (A) (A) (A)
                 (A) (A) (A) (A) (A) (A) (A) (A) (A) (A) (A) (A)
                 (A) (A) (A) (A) (A) (A) (A) (A) (A) (A) (A) (A)
                 (A) (A) (A) (A) (A) (A) (A) (A) (A) (A) (A) (A)
                 (A) (A) (A) (A) (A) (A) (A) (A) (A) (A) (A) (A)
                 (A) (A) (A) (A) (A) (A) (A) (A) (A) (A) (A) (A)
                 (A) (A) (A) (A) (A) (A) (A) (A) (A) (A) (A) (A)
                 (A) (A) (A) (A) (A) (A) (A) (A) (A) (A) (A) (A)
                 (A) (A) (A) (A) (A) (A) (A) (A) (A) (A) (A) (A)
                 (A) (A) (A) (A) (A) (A) (A) (A) (A) (A) (A) (A)
                 (A) (A) (A) (A) (A) (A) (A) (A) (A) (A) (A) (A)
                 (A) (A) (A) (A) (A) (A) (A) (A) (A) (A) (A) (A)
                 (A) (A) (A) (A) (A) (A) (A) (A) (A) (A) (A) (A)
                 (A) (A) (A) (A) (A) (A) (A) (A) (A) (A) (A) (A)
                 (A) (A) (A) (A) (A) (A) (A) (A) (A) (A) (A) (A)
                 (A) (A) (A) (A) (A) (A) (A) (A) (A) (A) (A) (A)
                 (A) (A) (A) (A) (A) (A) (A) (A) (A) (A) (A) (A)
                 (A) (A) (A) (A) (A) (A) (A) (A) (A) (A) (A) (A)
                 (A) (A) (A) (A) (A) (A) (A) (A) (A) (A) (A) (A)
                 (A) (A) (A) (A) (A) (A) (A) (A) (A) (A) (A) (A)
                 (A) (A) (A) (A) (A) (A) (A) (A) (A) (A) (A) (A)
                 (A) (A) (A) (A) (A) (A) (A) (A) (A) (A) (A) (A)
                 (A) (A) (A) (A) (A) (A) (A) (A) (A) (A) (A) (A)
                 (A) (A) (A) (A) (A) (A) (A) (A) (A) (A) (A) (A)
                 (A) (A) (A) (A) (A) (A) (A) (A) (A) (A) (A) (A)
                 (A) (A) (A) (A) (A) (A) (A) (A) (A) (A) (A) (A)
                 (A) (A) (A) (A) (A) (A) (A) (A) (A) (A) (A) (A)
                 (A) (A) (A) (A) (A) (A) (A) (A) (A) (A) (A) (A)
                 (A) (A) (A) (A) (A) (A) (A) (A) (A) (A) (A) (A)
                 (A) (A) (A) (A) (A) (A) (A) (A) (A) (A) (A) (A)
                 (A) (A) (A) (A) (A) (A) (A) (A) (A) (A) (A) (A)
                 (A) (A) (A) (A) (A) (A) (A) (A) (A) (A) (A) (A)
                 (A) (A) (A) (A) (A) (A) (A) (A) (A) (A) (A) (A)
                 (A) (A) (A) (A) (A) (A) (A) (A) (A) (A) (A) (A)
                 (A) (A) (A) (A) (A) (A) (A) (A) (A) (A) (A) (A)
                 (A) (A) (A) (A) (A) (A) (A) (A) (A) (A) (A) (A)
                 (A) (A) (A) (A) (A) (A) (A) (A) (A) (A) (A) (A)
                 (A) (A) (A) (A) (A) (A) (A) (A) (A) (A) (A) (A)
                 (A) (A) (A) (A) (A) (A) (A) (A) (A) (A) (A) (A)
                 (A) (A) (A) (A) (A) (A) (A) (A) (A) (A) (A) (A)
                 (A) (A) (A) (A) (A) (A) (A) (A) (A) (A) (A) (A)
                 (A) (A) (A) (A) (A) (A) (A) (A) (A) (A) (A) (A)
                 (A) (A) (A) (A) (A) (A) (A) (A) (A) (A) (A) (A)
                 (A) (A) (A) (A) (A) (A) (A) (A) (A) (A) (A) (A)
                 (A) (A) (A) (A) (A) (A) (A) (A) (A) (A) (A) (A)
                 (A) (A) (A) (A) (A) (A) (A) (A) (A) (A) (A) (A)
                 (A) (A) (A) (A) (A) (A) (A) (A) (A) (A) (A) (A)
                 (A) (A) (A) (A) (A) (A) (A) (A) (A) (A) (A) (A)
                 (A) (A) (A) (A) (A) (A) (A) (A) (A) (A) (A) (A)
                 (A) (A) (A) (A) (A) (A) (A) (A) (A) (A) (A) (A)
                 (A) (A) (A) (A) (A) (A) (A) (A) (A) (A) (A) (A)
                 (A) (A) (A) (A) (A) (A) (A) (A) (A) (A) (A) (A)
                 (A) (A) (A) (A) (A) (A) (A) (A) (A) (A) (A) (A)
                 (A) (A) (A) (A) (A) (A) (A) (A) (A) (A) (A) (A)
                 (A) (A) (A) (A) (A) (A) (A) (A) (A) (A) (A) (A)
                 (A) (A) (A) (A) (A) (A) (A) (A) (A) (A) (A) (A)
                 (A) (A) (A) (A) (A) (A) (A) (A) (A) (A) (A) (A)
                 (A) (A) (A) (A) (A) (A) (A) (A) (A) (A) (A) (A)
                 (A) (A) (A) (A) (A) (A) (A) (A) (A) (A) (A) (A)
                 (A) (A) (A) (A) (A) (A) (A) (A) (A) (A) (A) (A)
                 (A) (A) (A) (A) (A) (A) (A) (A) (A) (A) (A) (A)
                 (A) (A) (A) (A) (A) (A) (A) (A) (A) (A) (A) (A)
                 (A) (A) (A) (A) (A) (A) (A) (A) (A) (A) (A) (A)
                 (A) (A) (A) (A) (A) (A) (A) (A) (A) (A) (A) (A)
                 (A) (A) (A) (A) (A) (A) (A) (A) (A) (A) (A) (A)
                 (A) (A) (A) (A) (A) (A) (A) (A) (A) (A) (A) (A)
                 (A) (A) (A) (A) (A) (A) (A) (A) (A) (A) (A) (A)
                 (A) (A) (A) (A) (A) (A) (A) (A) (A) (A) (A) (A)
                 (A) (A) (A) (A) (A) (A) (A) (A) (A) (A) (A) (A)
                 (A) (A) (A) (A) (A) (A) (A) (A) (A) (A) (A) (A)
                 (A) (A) (A) (A) (A) (A) (A) (A) (A) (A) (A) (A)
                 (A) (A) (A) (A) (A) (A) (A) (A) (A) (A) (A) (A)
                 (A) (A) (A) (A) (A) (A) (A) (A) (A) (A) (A) (A)
                 (A) (A) (A) (A) (A) (A) (A) (A) (A) (A) (A) (A)
                 (A) (A) (A) (A) (A) (A) (A) (A) (A) (A) (A) (A)
                 (A) (A) (A) (A) (A) (A) (A) (A) (A) (A) (A) (A)
                 (A) (A) (A) (A) (A) (A) (A) (A) (A) (A) (A) (A)
                 (A) (A) (A) (A) (A) (A) (A) (A) (A) (A) (A) (A)
                 (A) (A) (A) (A) (A) (A) (A) (A) (A) (A) (A) (A)
                 (A) (A) (A) (A) (A) (A) (A) (A) (A) (A) (A) (A)
                 (A) (A) (A) (A) (A) (A) (A) (A) (A) (A) (A) (A)
                 (A) (A) (A) (A) (A) (A) (A) (A) (A) (A) (A) (A)
                 (A) (A) (A) (A) (A) (A) (A) (A) (A) (A) (A) (A)
                 (A) (A) (A) (A) (A)
 The electronic state is 1-A.
 Alpha  occ. eigenvalues -- -256.30649 -30.07318 -25.90077 -25.89853 -25.89768
 Alpha  occ. eigenvalues --  -19.24939 -19.24539 -19.21856 -19.17494 -19.17291
 Alpha  occ. eigenvalues --  -14.44064 -14.38588 -14.36743 -14.36116 -14.35787
 Alpha  occ. eigenvalues --  -14.35698 -10.34460 -10.34222 -10.26835 -10.26738
 Alpha  occ. eigenvalues --  -10.24371 -10.24064 -10.23964 -10.23705 -10.23674
 Alpha  occ. eigenvalues --  -10.23564 -10.23545 -10.23524 -10.23410 -10.23398
 Alpha  occ. eigenvalues --  -10.23154 -10.22857 -10.22333 -10.22174 -10.22124
 Alpha  occ. eigenvalues --  -10.22041 -10.22011 -10.21863 -10.21765 -10.21722
 Alpha  occ. eigenvalues --  -10.21699 -10.21691 -10.21663 -10.21643 -10.21606
 Alpha  occ. eigenvalues --  -10.21561 -10.21553 -10.21462 -10.21374 -10.21005
 Alpha  occ. eigenvalues --  -10.20809 -10.20747 -10.19034  -3.42199  -2.18154
 Alpha  occ. eigenvalues --   -2.17578  -2.17499  -1.17195  -1.17064  -1.09320
 Alpha  occ. eigenvalues --   -1.05880  -1.03289  -1.02615  -1.00253  -0.99617
 Alpha  occ. eigenvalues --   -0.99261  -0.98473  -0.93079  -0.84823  -0.84283
 Alpha  occ. eigenvalues --   -0.83486  -0.83281  -0.82708  -0.81795  -0.81451
 Alpha  occ. eigenvalues --   -0.79375  -0.78591  -0.78361  -0.78092  -0.76194
 Alpha  occ. eigenvalues --   -0.75223  -0.73839  -0.73380  -0.72394  -0.71669
 Alpha  occ. eigenvalues --   -0.70330  -0.69275  -0.69035  -0.66833  -0.66596
 Alpha  occ. eigenvalues --   -0.65979  -0.65174  -0.64646  -0.63017  -0.62797
 Alpha  occ. eigenvalues --   -0.62000  -0.59393  -0.59255  -0.58375  -0.57863
 Alpha  occ. eigenvalues --   -0.56663  -0.55590  -0.55020  -0.54003  -0.53074
 Alpha  occ. eigenvalues --   -0.52757  -0.52654  -0.51343  -0.50980  -0.50747
 Alpha  occ. eigenvalues --   -0.50387  -0.50096  -0.49717  -0.49436  -0.49195
 Alpha  occ. eigenvalues --   -0.48833  -0.48521  -0.48400  -0.47494  -0.46644
 Alpha  occ. eigenvalues --   -0.46131  -0.45938  -0.45604  -0.45573  -0.45200
 Alpha  occ. eigenvalues --   -0.44701  -0.44356  -0.44174  -0.43997  -0.43745
 Alpha  occ. eigenvalues --   -0.43641  -0.43090  -0.42710  -0.42514  -0.42201
 Alpha  occ. eigenvalues --   -0.41618  -0.41540  -0.41092  -0.40940  -0.40357
 Alpha  occ. eigenvalues --   -0.40283  -0.40186  -0.39420  -0.38993  -0.38822
 Alpha  occ. eigenvalues --   -0.38244  -0.38153  -0.37810  -0.37313  -0.36952
 Alpha  occ. eigenvalues --   -0.36729  -0.36513  -0.36341  -0.36193  -0.35787
 Alpha  occ. eigenvalues --   -0.35533  -0.34931  -0.34579  -0.34493  -0.34020
 Alpha  occ. eigenvalues --   -0.33372  -0.32955  -0.32373  -0.32229  -0.31765
 Alpha  occ. eigenvalues --   -0.31185  -0.30889  -0.30234  -0.30134  -0.28221
 Alpha  occ. eigenvalues --   -0.27818  -0.27714  -0.27489  -0.24798  -0.24365
 Alpha  occ. eigenvalues --   -0.23829  -0.23533  -0.22068  -0.20712  -0.20277
 Alpha  occ. eigenvalues --   -0.19664  -0.18791  -0.18725  -0.18313
 Alpha virt. eigenvalues --   -0.08084  -0.07820  -0.04037  -0.01044  -0.00069
 Alpha virt. eigenvalues --    0.00054   0.00334   0.01429   0.02015   0.03048
 Alpha virt. eigenvalues --    0.04088   0.04235   0.04770   0.04992   0.05665
 Alpha virt. eigenvalues --    0.05794   0.05907   0.06373   0.06445   0.07009
 Alpha virt. eigenvalues --    0.07303   0.07410   0.08048   0.08472   0.08795
 Alpha virt. eigenvalues --    0.09146   0.09465   0.09489   0.09743   0.09967
 Alpha virt. eigenvalues --    0.10268   0.10381   0.10885   0.11209   0.11454
 Alpha virt. eigenvalues --    0.11698   0.12058   0.12406   0.12461   0.13267
 Alpha virt. eigenvalues --    0.13371   0.13824   0.14090   0.14228   0.14517
 Alpha virt. eigenvalues --    0.14630   0.14788   0.15094   0.15332   0.15571
 Alpha virt. eigenvalues --    0.15725   0.15785   0.16305   0.16564   0.16798
 Alpha virt. eigenvalues --    0.16876   0.17277   0.17472   0.17714   0.18021
 Alpha virt. eigenvalues --    0.18095   0.18203   0.18470   0.18766   0.18916
 Alpha virt. eigenvalues --    0.19078   0.19237   0.19767   0.20087   0.20173
 Alpha virt. eigenvalues --    0.20255   0.20391   0.20929   0.21107   0.21348
 Alpha virt. eigenvalues --    0.21546   0.21832   0.21980   0.22258   0.22603
 Alpha virt. eigenvalues --    0.22853   0.23019   0.23099   0.23438   0.23599
 Alpha virt. eigenvalues --    0.23769   0.23782   0.24112   0.24196   0.24396
 Alpha virt. eigenvalues --    0.24546   0.24755   0.25093   0.25298   0.25359
 Alpha virt. eigenvalues --    0.25689   0.25858   0.26105   0.26438   0.26860
 Alpha virt. eigenvalues --    0.27214   0.27449   0.27691   0.27875   0.27996
 Alpha virt. eigenvalues --    0.28383   0.28418   0.28604   0.28941   0.29042
 Alpha virt. eigenvalues --    0.29259   0.29578   0.29692   0.30082   0.30160
 Alpha virt. eigenvalues --    0.30512   0.30747   0.30872   0.31065   0.31346
 Alpha virt. eigenvalues --    0.31585   0.32181   0.32236   0.32475   0.32970
 Alpha virt. eigenvalues --    0.33013   0.33318   0.33727   0.34153   0.34383
 Alpha virt. eigenvalues --    0.34694   0.35235   0.35462   0.35740   0.35820
 Alpha virt. eigenvalues --    0.36044   0.36172   0.36395   0.36538   0.37264
 Alpha virt. eigenvalues --    0.37548   0.37753   0.38031   0.38162   0.38461
 Alpha virt. eigenvalues --    0.38774   0.38977   0.39171   0.39328   0.39432
 Alpha virt. eigenvalues --    0.39516   0.39841   0.39851   0.40125   0.40325
 Alpha virt. eigenvalues --    0.40438   0.40684   0.40793   0.41063   0.41433
 Alpha virt. eigenvalues --    0.41667   0.41881   0.42024   0.42082   0.42241
 Alpha virt. eigenvalues --    0.42452   0.42572   0.42885   0.43036   0.43412
 Alpha virt. eigenvalues --    0.43546   0.43669   0.43857   0.44065   0.44339
 Alpha virt. eigenvalues --    0.44409   0.44806   0.44911   0.45069   0.45379
 Alpha virt. eigenvalues --    0.45648   0.46007   0.46157   0.46490   0.46572
 Alpha virt. eigenvalues --    0.46912   0.47373   0.47396   0.47504   0.47698
 Alpha virt. eigenvalues --    0.47855   0.47959   0.48277   0.48476   0.48781
 Alpha virt. eigenvalues --    0.48799   0.49063   0.49287   0.49383   0.49569
 Alpha virt. eigenvalues --    0.49690   0.50050   0.50267   0.50363   0.50714
 Alpha virt. eigenvalues --    0.50845   0.51060   0.51275   0.51374   0.51516
 Alpha virt. eigenvalues --    0.51922   0.52008   0.52114   0.52266   0.52547
 Alpha virt. eigenvalues --    0.52697   0.52790   0.52970   0.53176   0.53544
 Alpha virt. eigenvalues --    0.53650   0.53761   0.54107   0.54144   0.54537
 Alpha virt. eigenvalues --    0.55067   0.55149   0.55294   0.55506   0.55696
 Alpha virt. eigenvalues --    0.55970   0.56120   0.56407   0.56533   0.56753
 Alpha virt. eigenvalues --    0.56968   0.57355   0.57538   0.57795   0.57940
 Alpha virt. eigenvalues --    0.58068   0.58391   0.58504   0.59179   0.59442
 Alpha virt. eigenvalues --    0.59524   0.59692   0.59816   0.60093   0.60404
 Alpha virt. eigenvalues --    0.60682   0.60821   0.61188   0.61483   0.61708
 Alpha virt. eigenvalues --    0.61960   0.62441   0.62881   0.63007   0.63164
 Alpha virt. eigenvalues --    0.63554   0.63557   0.63932   0.64144   0.64373
 Alpha virt. eigenvalues --    0.64725   0.65041   0.65444   0.65635   0.65710
 Alpha virt. eigenvalues --    0.66020   0.66386   0.66635   0.67146   0.67375
 Alpha virt. eigenvalues --    0.67625   0.67764   0.67814   0.68211   0.68472
 Alpha virt. eigenvalues --    0.68525   0.69037   0.69140   0.69327   0.69438
 Alpha virt. eigenvalues --    0.69703   0.70131   0.70227   0.70241   0.70811
 Alpha virt. eigenvalues --    0.71114   0.71248   0.71793   0.71857   0.72102
 Alpha virt. eigenvalues --    0.72171   0.72809   0.72874   0.73218   0.73427
 Alpha virt. eigenvalues --    0.73849   0.74048   0.74485   0.74718   0.74846
 Alpha virt. eigenvalues --    0.75260   0.75435   0.75806   0.76305   0.76463
 Alpha virt. eigenvalues --    0.76846   0.77018   0.77198   0.77658   0.77973
 Alpha virt. eigenvalues --    0.78044   0.78305   0.78488   0.78643   0.79055
 Alpha virt. eigenvalues --    0.79405   0.79797   0.79988   0.80194   0.80571
 Alpha virt. eigenvalues --    0.80959   0.81245   0.81758   0.82055   0.82305
 Alpha virt. eigenvalues --    0.82831   0.83329   0.83488   0.83684   0.83879
 Alpha virt. eigenvalues --    0.84178   0.84633   0.84958   0.85082   0.85259
 Alpha virt. eigenvalues --    0.85751   0.86250   0.86698   0.86743   0.86872
 Alpha virt. eigenvalues --    0.87314   0.87952   0.88468   0.88534   0.88843
 Alpha virt. eigenvalues --    0.89067   0.89514   0.89640   0.90063   0.90149
 Alpha virt. eigenvalues --    0.90919   0.91307   0.91504   0.92156   0.92237
 Alpha virt. eigenvalues --    0.92611   0.92820   0.93019   0.93439   0.93693
 Alpha virt. eigenvalues --    0.94252   0.94330   0.94628   0.95298   0.95436
 Alpha virt. eigenvalues --    0.95975   0.96094   0.96451   0.96777   0.97154
 Alpha virt. eigenvalues --    0.97317   0.97396   0.97817   0.98202   0.98993
 Alpha virt. eigenvalues --    0.99191   0.99725   0.99982   1.00083   1.00436
 Alpha virt. eigenvalues --    1.00698   1.00886   1.01253   1.01419   1.01918
 Alpha virt. eigenvalues --    1.02073   1.02774   1.03073   1.03238   1.03659
 Alpha virt. eigenvalues --    1.03882   1.04041   1.04253   1.04564   1.05043
 Alpha virt. eigenvalues --    1.05595   1.05722   1.05982   1.06419   1.06601
 Alpha virt. eigenvalues --    1.06738   1.06998   1.07086   1.08036   1.08061
 Alpha virt. eigenvalues --    1.08474   1.08604   1.08731   1.09296   1.09816
 Alpha virt. eigenvalues --    1.09845   1.10139   1.10782   1.11189   1.11426
 Alpha virt. eigenvalues --    1.11751   1.12249   1.12566   1.12775   1.13195
 Alpha virt. eigenvalues --    1.13433   1.14022   1.14212   1.14660   1.14884
 Alpha virt. eigenvalues --    1.15123   1.15567   1.16018   1.16296   1.16743
 Alpha virt. eigenvalues --    1.17031   1.17390   1.17643   1.18090   1.18667
 Alpha virt. eigenvalues --    1.19168   1.19850   1.20031   1.20271   1.20516
 Alpha virt. eigenvalues --    1.20896   1.21567   1.21954   1.22060   1.22538
 Alpha virt. eigenvalues --    1.23105   1.23356   1.23819   1.23975   1.24317
 Alpha virt. eigenvalues --    1.24953   1.25358   1.25519   1.26245   1.26769
 Alpha virt. eigenvalues --    1.26986   1.27319   1.27488   1.27683   1.28471
 Alpha virt. eigenvalues --    1.28772   1.28925   1.29828   1.30374   1.30783
 Alpha virt. eigenvalues --    1.31229   1.31660   1.32178   1.32504   1.32769
 Alpha virt. eigenvalues --    1.33016   1.33515   1.33822   1.34017   1.34712
 Alpha virt. eigenvalues --    1.35125   1.35389   1.35875   1.36000   1.36608
 Alpha virt. eigenvalues --    1.36831   1.37284   1.37475   1.38052   1.38679
 Alpha virt. eigenvalues --    1.39024   1.39423   1.39677   1.40000   1.40779
 Alpha virt. eigenvalues --    1.40943   1.41321   1.41884   1.42475   1.42652
 Alpha virt. eigenvalues --    1.43340   1.43507   1.44117   1.44552   1.44787
 Alpha virt. eigenvalues --    1.45641   1.45696   1.46016   1.46332   1.46527
 Alpha virt. eigenvalues --    1.47145   1.47453   1.47567   1.47765   1.47931
 Alpha virt. eigenvalues --    1.48735   1.48845   1.49291   1.49426   1.49578
 Alpha virt. eigenvalues --    1.49938   1.50004   1.50215   1.50785   1.51281
 Alpha virt. eigenvalues --    1.51305   1.51670   1.51779   1.52273   1.52412
 Alpha virt. eigenvalues --    1.53006   1.53511   1.53862   1.53969   1.54109
 Alpha virt. eigenvalues --    1.54460   1.55556   1.55800   1.56261   1.56428
 Alpha virt. eigenvalues --    1.56592   1.57058   1.57285   1.57547   1.57686
 Alpha virt. eigenvalues --    1.58073   1.58347   1.58451   1.58789   1.59074
 Alpha virt. eigenvalues --    1.59363   1.59739   1.59892   1.60065   1.60545
 Alpha virt. eigenvalues --    1.60752   1.61384   1.61476   1.61603   1.62183
 Alpha virt. eigenvalues --    1.62462   1.62558   1.62953   1.63076   1.63445
 Alpha virt. eigenvalues --    1.63615   1.64076   1.64366   1.64779   1.64914
 Alpha virt. eigenvalues --    1.65204   1.65631   1.65739   1.66024   1.66209
 Alpha virt. eigenvalues --    1.66488   1.66768   1.67478   1.67824   1.68014
 Alpha virt. eigenvalues --    1.68245   1.68876   1.69392   1.69718   1.69859
 Alpha virt. eigenvalues --    1.70130   1.70212   1.70671   1.71242   1.71699
 Alpha virt. eigenvalues --    1.71979   1.72216   1.72381   1.73085   1.73203
 Alpha virt. eigenvalues --    1.73418   1.73795   1.74455   1.74651   1.74856
 Alpha virt. eigenvalues --    1.75206   1.75448   1.75620   1.76130   1.76574
 Alpha virt. eigenvalues --    1.76787   1.77541   1.77642   1.77792   1.77983
 Alpha virt. eigenvalues --    1.78235   1.78772   1.79358   1.79929   1.80524
 Alpha virt. eigenvalues --    1.80715   1.80912   1.81169   1.81528   1.81560
 Alpha virt. eigenvalues --    1.82362   1.82935   1.83115   1.83376   1.83648
 Alpha virt. eigenvalues --    1.83881   1.84351   1.84748   1.84954   1.85399
 Alpha virt. eigenvalues --    1.85475   1.85796   1.86095   1.86359   1.86638
 Alpha virt. eigenvalues --    1.87140   1.87561   1.88018   1.88734   1.89129
 Alpha virt. eigenvalues --    1.89282   1.89531   1.89946   1.90547   1.90774
 Alpha virt. eigenvalues --    1.91779   1.91828   1.92338   1.92472   1.92997
 Alpha virt. eigenvalues --    1.93211   1.93600   1.94241   1.94664   1.95097
 Alpha virt. eigenvalues --    1.95847   1.96428   1.96456   1.96555   1.96645
 Alpha virt. eigenvalues --    1.97170   1.97745   1.98218   1.98853   1.98980
 Alpha virt. eigenvalues --    1.99048   1.99394   1.99971   2.00272   2.00787
 Alpha virt. eigenvalues --    2.00846   2.01253   2.01477   2.01870   2.02251
 Alpha virt. eigenvalues --    2.02793   2.03285   2.03508   2.04199   2.04781
 Alpha virt. eigenvalues --    2.05027   2.05092   2.05755   2.06163   2.06495
 Alpha virt. eigenvalues --    2.06642   2.07007   2.07907   2.08164   2.08952
 Alpha virt. eigenvalues --    2.09375   2.09570   2.09762   2.10302   2.10599
 Alpha virt. eigenvalues --    2.11137   2.11547   2.12015   2.12075   2.12646
 Alpha virt. eigenvalues --    2.12773   2.13259   2.13627   2.13893   2.14549
 Alpha virt. eigenvalues --    2.14917   2.15520   2.15764   2.15956   2.16780
 Alpha virt. eigenvalues --    2.16938   2.17222   2.17686   2.17872   2.18166
 Alpha virt. eigenvalues --    2.18667   2.18900   2.19324   2.19735   2.20488
 Alpha virt. eigenvalues --    2.20729   2.21210   2.21335   2.21900   2.22313
 Alpha virt. eigenvalues --    2.22570   2.22951   2.23155   2.23311   2.23635
 Alpha virt. eigenvalues --    2.24157   2.24593   2.25371   2.25975   2.26099
 Alpha virt. eigenvalues --    2.26611   2.27012   2.27608   2.28482   2.28698
 Alpha virt. eigenvalues --    2.28997   2.29846   2.30215   2.30880   2.31360
 Alpha virt. eigenvalues --    2.31889   2.32315   2.32569   2.33514   2.33751
 Alpha virt. eigenvalues --    2.34167   2.34646   2.34778   2.35049   2.35436
 Alpha virt. eigenvalues --    2.35757   2.36022   2.36387   2.36846   2.37250
 Alpha virt. eigenvalues --    2.37289   2.37932   2.38268   2.38795   2.39137
 Alpha virt. eigenvalues --    2.39676   2.40314   2.40423   2.40535   2.40820
 Alpha virt. eigenvalues --    2.41411   2.41545   2.42068   2.42839   2.43539
 Alpha virt. eigenvalues --    2.43778   2.43941   2.44015   2.44660   2.45028
 Alpha virt. eigenvalues --    2.45637   2.46410   2.46847   2.46988   2.47676
 Alpha virt. eigenvalues --    2.48400   2.48581   2.48898   2.49483   2.49788
 Alpha virt. eigenvalues --    2.50389   2.51123   2.51423   2.51867   2.52508
 Alpha virt. eigenvalues --    2.52562   2.53015   2.53411   2.53642   2.53921
 Alpha virt. eigenvalues --    2.54352   2.55120   2.55211   2.55595   2.56030
 Alpha virt. eigenvalues --    2.56193   2.56400   2.56813   2.57415   2.57928
 Alpha virt. eigenvalues --    2.57952   2.58296   2.58478   2.58977   2.59257
 Alpha virt. eigenvalues --    2.59557   2.59653   2.59943   2.60027   2.60590
 Alpha virt. eigenvalues --    2.60904   2.61135   2.61355   2.61902   2.62320
 Alpha virt. eigenvalues --    2.62865   2.63360   2.63755   2.63974   2.64308
 Alpha virt. eigenvalues --    2.64706   2.64949   2.65689   2.65932   2.66146
 Alpha virt. eigenvalues --    2.66383   2.66694   2.67237   2.67635   2.67945
 Alpha virt. eigenvalues --    2.68306   2.68942   2.69127   2.69405   2.69767
 Alpha virt. eigenvalues --    2.69911   2.70135   2.70696   2.71115   2.71519
 Alpha virt. eigenvalues --    2.71762   2.72188   2.72492   2.72746   2.73296
 Alpha virt. eigenvalues --    2.73630   2.73770   2.74433   2.75146   2.75326
 Alpha virt. eigenvalues --    2.75578   2.75938   2.76299   2.76648   2.77080
 Alpha virt. eigenvalues --    2.77357   2.77652   2.78075   2.78377   2.78833
 Alpha virt. eigenvalues --    2.79111   2.79692   2.80281   2.80789   2.80973
 Alpha virt. eigenvalues --    2.81226   2.81541   2.81702   2.82508   2.82669
 Alpha virt. eigenvalues --    2.83002   2.83078   2.83810   2.84055   2.84170
 Alpha virt. eigenvalues --    2.84432   2.84554   2.85129   2.85831   2.85868
 Alpha virt. eigenvalues --    2.86376   2.86573   2.86977   2.87662   2.87740
 Alpha virt. eigenvalues --    2.88321   2.88481   2.89001   2.89247   2.89391
 Alpha virt. eigenvalues --    2.89602   2.90121   2.90531   2.91184   2.91274
 Alpha virt. eigenvalues --    2.91931   2.92466   2.92931   2.93158   2.93457
 Alpha virt. eigenvalues --    2.93796   2.94134   2.94388   2.94762   2.95206
 Alpha virt. eigenvalues --    2.95500   2.95530   2.95969   2.96053   2.96489
 Alpha virt. eigenvalues --    2.96782   2.97130   2.97606   2.97755   2.98239
 Alpha virt. eigenvalues --    2.98365   2.98529   2.98946   2.99692   2.99759
 Alpha virt. eigenvalues --    2.99897   3.00000   3.00481   3.00517   3.01118
 Alpha virt. eigenvalues --    3.01295   3.01715   3.01862   3.02326   3.02697
 Alpha virt. eigenvalues --    3.03153   3.03264   3.03344   3.03793   3.04025
 Alpha virt. eigenvalues --    3.04110   3.04348   3.04984   3.05391   3.05634
 Alpha virt. eigenvalues --    3.05682   3.06253   3.06721   3.06983   3.07119
 Alpha virt. eigenvalues --    3.07235   3.07584   3.07863   3.08280   3.08994
 Alpha virt. eigenvalues --    3.09102   3.09665   3.10236   3.10520   3.10523
 Alpha virt. eigenvalues --    3.10820   3.11036   3.11501   3.11669   3.11837
 Alpha virt. eigenvalues --    3.12377   3.12608   3.12735   3.12879   3.13692
 Alpha virt. eigenvalues --    3.13959   3.14090   3.14448   3.14612   3.14777
 Alpha virt. eigenvalues --    3.15163   3.15393   3.15961   3.16137   3.16615
 Alpha virt. eigenvalues --    3.17040   3.17079   3.17263   3.17811   3.17947
 Alpha virt. eigenvalues --    3.18137   3.18554   3.18592   3.19168   3.19340
 Alpha virt. eigenvalues --    3.19512   3.20638   3.20797   3.21026   3.21529
 Alpha virt. eigenvalues --    3.21975   3.22280   3.22476   3.22594   3.23021
 Alpha virt. eigenvalues --    3.23292   3.23501   3.24222   3.24595   3.24914
 Alpha virt. eigenvalues --    3.25226   3.25326   3.25653   3.26011   3.26415
 Alpha virt. eigenvalues --    3.26600   3.27101   3.27385   3.27484   3.27959
 Alpha virt. eigenvalues --    3.28326   3.28385   3.28634   3.28727   3.28858
 Alpha virt. eigenvalues --    3.29209   3.29340   3.29654   3.30021   3.30412
 Alpha virt. eigenvalues --    3.30621   3.31330   3.31561   3.31686   3.32045
 Alpha virt. eigenvalues --    3.32261   3.32495   3.32814   3.33193   3.33585
 Alpha virt. eigenvalues --    3.33736   3.33889   3.34199   3.34666   3.34818
 Alpha virt. eigenvalues --    3.34956   3.35295   3.35677   3.35721   3.35791
 Alpha virt. eigenvalues --    3.36197   3.36415   3.36514   3.36816   3.37059
 Alpha virt. eigenvalues --    3.37265   3.37597   3.37744   3.38224   3.38342
 Alpha virt. eigenvalues --    3.38691   3.38932   3.39257   3.39518   3.39618
 Alpha virt. eigenvalues --    3.40021   3.40351   3.40945   3.41114   3.41527
 Alpha virt. eigenvalues --    3.41911   3.42046   3.42595   3.42845   3.43162
 Alpha virt. eigenvalues --    3.43553   3.43755   3.43917   3.44102   3.44628
 Alpha virt. eigenvalues --    3.44882   3.45289   3.45613   3.46245   3.46590
 Alpha virt. eigenvalues --    3.46963   3.47307   3.47647   3.47858   3.48111
 Alpha virt. eigenvalues --    3.48654   3.48795   3.49185   3.49461   3.50216
 Alpha virt. eigenvalues --    3.50472   3.50641   3.50832   3.51270   3.51455
 Alpha virt. eigenvalues --    3.51765   3.52342   3.52476   3.52661   3.53112
 Alpha virt. eigenvalues --    3.53694   3.53954   3.54498   3.54939   3.55141
 Alpha virt. eigenvalues --    3.55526   3.55638   3.56274   3.57054   3.57364
 Alpha virt. eigenvalues --    3.57678   3.57860   3.57918   3.58306   3.58514
 Alpha virt. eigenvalues --    3.58884   3.59560   3.60316   3.60442   3.60845
 Alpha virt. eigenvalues --    3.61045   3.61478   3.61970   3.62250   3.62435
 Alpha virt. eigenvalues --    3.62500   3.63269   3.64045   3.64646   3.64719
 Alpha virt. eigenvalues --    3.65340   3.65490   3.65813   3.66291   3.66902
 Alpha virt. eigenvalues --    3.67042   3.67325   3.67647   3.67926   3.68192
 Alpha virt. eigenvalues --    3.68660   3.69270   3.69572   3.69657   3.69898
 Alpha virt. eigenvalues --    3.70407   3.70799   3.71040   3.71894   3.72445
 Alpha virt. eigenvalues --    3.72980   3.73114   3.73559   3.74042   3.74326
 Alpha virt. eigenvalues --    3.74734   3.74850   3.75163   3.75504   3.75798
 Alpha virt. eigenvalues --    3.76238   3.76693   3.77005   3.77902   3.78083
 Alpha virt. eigenvalues --    3.78242   3.78662   3.78902   3.79498   3.80018
 Alpha virt. eigenvalues --    3.80433   3.80889   3.81466   3.81886   3.82355
 Alpha virt. eigenvalues --    3.83182   3.83786   3.83884   3.84503   3.84608
 Alpha virt. eigenvalues --    3.85338   3.85463   3.86674   3.86998   3.87688
 Alpha virt. eigenvalues --    3.87836   3.88210   3.88673   3.89236   3.89547
 Alpha virt. eigenvalues --    3.90461   3.90980   3.91792   3.92282   3.93787
 Alpha virt. eigenvalues --    3.93940   3.94105   3.94670   3.95244   3.96097
 Alpha virt. eigenvalues --    3.96770   3.97095   3.97736   3.98255   3.98972
 Alpha virt. eigenvalues --    3.99263   3.99424   3.99842   3.99974   4.00820
 Alpha virt. eigenvalues --    4.01037   4.02081   4.02591   4.02817   4.03165
 Alpha virt. eigenvalues --    4.03788   4.04440   4.05448   4.05879   4.06476
 Alpha virt. eigenvalues --    4.06868   4.07144   4.08144   4.08443   4.09060
 Alpha virt. eigenvalues --    4.09919   4.10069   4.10595   4.11030   4.11374
 Alpha virt. eigenvalues --    4.12160   4.13336   4.13749   4.13954   4.14883
 Alpha virt. eigenvalues --    4.15232   4.15579   4.16215   4.16635   4.17145
 Alpha virt. eigenvalues --    4.17788   4.18263   4.18779   4.19018   4.19499
 Alpha virt. eigenvalues --    4.19829   4.20324   4.20892   4.21697   4.22063
 Alpha virt. eigenvalues --    4.22303   4.22977   4.24038   4.24219   4.24254
 Alpha virt. eigenvalues --    4.24504   4.25121   4.25302   4.25962   4.26914
 Alpha virt. eigenvalues --    4.27225   4.27853   4.28209   4.28692   4.29357
 Alpha virt. eigenvalues --    4.29814   4.30383   4.31027   4.31387   4.32708
 Alpha virt. eigenvalues --    4.32799   4.32962   4.33396   4.33804   4.34229
 Alpha virt. eigenvalues --    4.34417   4.35181   4.35638   4.35919   4.36779
 Alpha virt. eigenvalues --    4.37053   4.37531   4.38523   4.38764   4.39702
 Alpha virt. eigenvalues --    4.40320   4.40804   4.41705   4.42414   4.43541
 Alpha virt. eigenvalues --    4.44058   4.44805   4.45040   4.45408   4.47030
 Alpha virt. eigenvalues --    4.47570   4.48136   4.48260   4.48808   4.49365
 Alpha virt. eigenvalues --    4.50365   4.51405   4.52517   4.52783   4.53171
 Alpha virt. eigenvalues --    4.53584   4.54048   4.55455   4.56331   4.56483
 Alpha virt. eigenvalues --    4.57226   4.57526   4.58132   4.59223   4.59762
 Alpha virt. eigenvalues --    4.60935   4.61211   4.61514   4.62137   4.62900
 Alpha virt. eigenvalues --    4.63147   4.64430   4.66197   4.66594   4.66922
 Alpha virt. eigenvalues --    4.68016   4.68554   4.68904   4.69755   4.70506
 Alpha virt. eigenvalues --    4.71909   4.72390   4.73565   4.74260   4.75093
 Alpha virt. eigenvalues --    4.75882   4.76066   4.77435   4.78259   4.79173
 Alpha virt. eigenvalues --    4.79570   4.79788   4.80323   4.80674   4.81103
 Alpha virt. eigenvalues --    4.82268   4.82623   4.82874   4.82996   4.83537
 Alpha virt. eigenvalues --    4.84422   4.84748   4.85676   4.86549   4.87728
 Alpha virt. eigenvalues --    4.89598   4.89794   4.91079   4.91734   4.92240
 Alpha virt. eigenvalues --    4.92945   4.93204   4.94385   4.95791   4.96401
 Alpha virt. eigenvalues --    4.97270   4.98546   4.98719   4.99369   5.00606
 Alpha virt. eigenvalues --    5.00782   5.01636   5.02003   5.02299   5.03780
 Alpha virt. eigenvalues --    5.05786   5.06831   5.07427   5.07995   5.08721
 Alpha virt. eigenvalues --    5.10155   5.10864   5.12170   5.12226   5.13089
 Alpha virt. eigenvalues --    5.13491   5.14232   5.14552   5.15451   5.16553
 Alpha virt. eigenvalues --    5.17231   5.17437   5.17914   5.19054   5.20087
 Alpha virt. eigenvalues --    5.20200   5.20561   5.21491   5.22227   5.22431
 Alpha virt. eigenvalues --    5.22955   5.23263   5.24277   5.24769   5.25377
 Alpha virt. eigenvalues --    5.26873   5.27384   5.27870   5.28658   5.29466
 Alpha virt. eigenvalues --    5.29845   5.31369   5.31671   5.33101   5.34143
 Alpha virt. eigenvalues --    5.34833   5.36975   5.39030   5.40536   5.40946
 Alpha virt. eigenvalues --    5.42078   5.42564   5.43556   5.43584   5.44603
 Alpha virt. eigenvalues --    5.44842   5.46559   5.46761   5.47836   5.48284
 Alpha virt. eigenvalues --    5.48657   5.49643   5.51683   5.52020   5.54080
 Alpha virt. eigenvalues --    5.54471   5.55831   5.56912   5.57866   5.58667
 Alpha virt. eigenvalues --    5.59263   5.60262   5.60875   5.61108   5.61618
 Alpha virt. eigenvalues --    5.63288   5.64216   5.64999   5.65704   5.66472
 Alpha virt. eigenvalues --    5.68665   5.68786   5.70069   5.70258   5.71012
 Alpha virt. eigenvalues --    5.72493   5.74842   5.75622   5.76756   5.79529
 Alpha virt. eigenvalues --    5.81462   5.82112   5.83813   5.85173   5.85440
 Alpha virt. eigenvalues --    5.86748   5.88077   5.91160   5.91843   5.95091
 Alpha virt. eigenvalues --    5.95471   5.98795   5.99708   6.03876   6.05415
 Alpha virt. eigenvalues --    6.06696   6.10892   6.12000   6.12724   6.16386
 Alpha virt. eigenvalues --    6.17327   6.18005   6.19008   6.21563   6.24433
 Alpha virt. eigenvalues --    6.25593   6.27429   6.28538   6.29370   6.33734
 Alpha virt. eigenvalues --    6.35151   6.38186   6.41034   6.41498   6.43875
 Alpha virt. eigenvalues --    6.44612   6.44929   6.46277   6.48252   6.52534
 Alpha virt. eigenvalues --    6.52885   6.53483   6.54162   6.54525   6.65777
 Alpha virt. eigenvalues --    6.66967   6.68454   6.75529   6.78818   6.82369
 Alpha virt. eigenvalues --    6.84750   6.86236   6.97969   6.98738   7.04227
 Alpha virt. eigenvalues --    7.08078   7.10720   7.13015   7.17282   7.17364
 Alpha virt. eigenvalues --    7.20204   7.21355   7.29056   7.32840  22.35638
 Alpha virt. eigenvalues --   22.36396  22.42845  22.52463  22.53879  22.54940
 Alpha virt. eigenvalues --   22.61724  22.66175  22.70632  22.71998  22.72742
 Alpha virt. eigenvalues --   22.80740  22.83887  22.97428  22.99093  23.02296
 Alpha virt. eigenvalues --   23.03229  23.09207  23.10506  23.12173  23.13549
 Alpha virt. eigenvalues --   23.20378  23.21755  23.34669  23.40950  23.45945
 Alpha virt. eigenvalues --   23.47647  23.49555  23.57460  23.60094  23.61141
 Alpha virt. eigenvalues --   23.69438  23.74721  23.84370  23.96799  23.99684
 Alpha virt. eigenvalues --   24.09572  32.49524  32.76083  33.02505  33.06261
 Alpha virt. eigenvalues --   33.09016  33.19739  43.93982  43.96914  43.99416
 Alpha virt. eigenvalues --   44.00529  44.23650
          Condensed to atoms (all electrons):
 Mulliken charges:
               1
     1  C   -0.447831
     2  C   -0.524546
     3  C   -0.492879
     4  C   -0.545431
     5  C    0.255685
     6  C    0.014632
     7  C   -0.098315
     8  C    0.309766
     9  C   -0.435368
    10  C   -0.420949
    11  C   -0.109903
    12  C    0.256041
    13  O   -0.346579
    14  O   -0.399397
    15  C    0.273415
    16  C   -0.112761
    17  C   -0.002292
    18  C    0.296411
    19  C   -0.412814
    20  C   -0.195322
    21  C   -0.364046
    22  C    0.216458
    23  C   -0.185559
    24  C    0.027676
    25  C    0.249255
    26  C   -0.761723
    27  C   -0.167793
    28  C   -0.375725
    29  C    0.295217
    30  C   -0.138697
    31  C    0.032996
    32  C    0.211315
    33  C   -0.428897
    34  C   -0.329668
    35  C   -0.178979
    36  C    0.256091
    37  O   -0.372772
    38  O   -0.356367
    39  N   -0.076341
    40  N   -0.087798
    41  N   -0.040382
    42  N   -0.182157
    43  Fe  -0.150679
    44  N   -0.149327
    45  C    0.009814
    46  N   -0.007026
    47  C   -0.152798
    48  C   -0.115235
    49  H    0.262937
    50  O   -0.507570
    51  H    0.127848
    52  H    0.122550
    53  H    0.166498
    54  H    0.116184
    55  H    0.147333
    56  H    0.157032
    57  H    0.147085
    58  H    0.136256
    59  H    0.132840
    60  H    0.124818
    61  H    0.130486
    62  H    0.162919
    63  H    0.147697
    64  H    0.135728
    65  H    0.127136
    66  H    0.152824
    67  H    0.163154
    68  H    0.288335
    69  H    0.268499
    70  H    0.280758
    71  H    0.138328
    72  H    0.141238
    73  H    0.161403
    74  H    0.146428
    75  H    0.157736
    76  H    0.145944
    77  H    0.119068
    78  H    0.133115
    79  H    0.132013
    80  H    0.136745
    81  H    0.199662
    82  H    0.170880
    83  H    0.182090
    84  H    0.360413
    85  H    0.365613
    86  H    0.388376
    87  H    0.391190
 Sum of Mulliken charges =  -0.00000
 Mulliken charges with hydrogens summed into heavy atoms:
               1
     1  C   -0.319984
     2  C   -0.401997
     3  C   -0.326381
     4  C   -0.429248
     5  C    0.255685
     6  C    0.014632
     7  C   -0.098315
     8  C    0.309766
     9  C    0.016082
    10  C   -0.151853
    11  C    0.145402
    12  C    0.256041
    13  O    0.041798
    14  O   -0.399397
    15  C    0.273415
    16  C   -0.112761
    17  C   -0.002292
    18  C    0.296411
    19  C    0.033529
    20  C   -0.068186
    21  C   -0.048068
    22  C    0.216458
    23  C   -0.185559
    24  C    0.027676
    25  C    0.249255
    26  C    0.075868
    27  C   -0.029465
    28  C   -0.073084
    29  C    0.295217
    30  C   -0.138697
    31  C    0.032996
    32  C    0.211315
    33  C    0.021211
    34  C   -0.077486
    35  C    0.089779
    36  C    0.256091
    37  O   -0.372772
    38  O    0.034823
    39  N   -0.076341
    40  N   -0.087798
    41  N   -0.040382
    42  N   -0.182157
    43  Fe  -0.150679
    44  N    0.113610
    45  C    0.209476
    46  N   -0.007026
    47  C    0.018082
    48  C    0.066855
    50  O    0.218457
 Electronic spatial extent (au):  <R**2>=          31302.9692
 Charge=              0.0000 electrons
 Dipole moment (field-independent basis, Debye):
    X=              1.9885    Y=              0.5914    Z=              7.3319  Tot=              7.6198
 Quadrupole moment (field-independent basis, Debye-Ang):
   XX=           -329.4618   YY=           -224.9341   ZZ=           -271.5691
   XY=             11.9467   XZ=             10.3667   YZ=              6.5787
 Traceless Quadrupole moment (field-independent basis, Debye-Ang):
   XX=            -54.1401   YY=             50.3876   ZZ=              3.7526
   XY=             11.9467   XZ=             10.3667   YZ=              6.5787
 Octapole moment (field-independent basis, Debye-Ang**2):
  XXX=            124.1810  YYY=              3.4009  ZZZ=            122.4882  XYY=           -256.0629
  XXY=              9.7673  XXZ=            239.1813  XZZ=             35.9688  YZZ=            -23.2809
  YYZ=              3.3264  XYZ=            -95.2469
 Hexadecapole moment (field-independent basis, Debye-Ang**3):
 XXXX=         -27359.6898 YYYY=         -12726.4501 ZZZZ=          -2118.7766 XXXY=           1157.6391
 XXXZ=           -329.8151 YYYX=            -34.1769 YYYZ=            182.7856 ZZZX=            527.0778
 ZZZY=             44.8877 XXYY=          -4292.8419 XXZZ=          -4782.7292 YYZZ=          -2856.3300
 XXYZ=            582.8110 YYXZ=             55.8184 ZZXY=             23.9586
 N-N= 7.371396050447D+03 E-N=-2.273692680000D+04  KE= 3.390233813446D+03
 1\1\GINC-NODE542\SP\RPBE1PBE\def2TZVP\C37H38Fe1N6O5\KLEICH\16-Sep-2022
 \0\\# PBE1PBE/def2TZVP empiricaldispersion=GD3BJ int=(grid=ultrafine) 
 geom=check guess=read scrf=(smd,solvent=Chloroform)\\1ccg_II_S_solv\\0
 ,1\C,0,-5.506,53.923,112.93\C,0,-7.562,57.972,114.378\C,0,-5.926,60.12
 6,110.472\C,0,-3.654,56.114,109.164\C,0,-6.228,54.827,113.698\C,0,-6.7
 58,54.532,114.942\C,0,-7.395,55.715,115.374\C,0,-7.147,56.642,114.369\
 C,0,-8.23,55.922,116.645\C,0,-6.626,53.173,115.641\C,0,-5.472,53.012,1
 16.584\C,0,-5.394,51.617,117.224\O,0,-6.246,51.26,118.04\O,0,-4.475,50
 .847,116.942\C,0,-7.381,58.932,113.376\C,0,-7.941,60.211,113.411\C,0,-
 7.522,60.812,112.232\C,0,-6.685,59.879,111.612\C,0,-8.919,60.678,114.4
 85\C,0,-7.826,62.055,111.651\C,0,-8.743,63.064,112.11\C,0,-5.081,59.25
 3,109.775\C,0,-4.298,59.622,108.683\C,0,-3.589,58.446,108.366\C,0,-4.0
 47,57.462,109.229\C,0,-4.188,61.047,108.081\C,0,-2.635,58.152,107.378\
 C,0,-2.272,58.924,106.228\C,0,-4.,55.082,110.014\C,0,-3.674,53.753,109
 .834\C,0,-4.208,53.123,110.964\C,0,-4.83,54.109,111.715\C,0,-3.02,53.0
 99,108.613\C,0,-4.19,51.63,111.27\C,0,-3.016,51.229,112.145\C,0,-3.008
 ,49.79,112.601\O,0,-2.443,49.528,113.657\O,0,-3.547,48.922,111.918\N,0
 ,-6.462,56.1,113.359\N,0,-6.701,58.711,112.255\N,0,-4.921,57.955,110.1
 04\N,0,-4.723,55.274,111.116\Fe,0,-5.857,56.937,111.603\N,0,-9.264,56.
 772,109.591\C,0,-8.576,56.828,110.692\N,0,-7.374,56.4,110.42\C,0,-7.30
 8,56.079,109.165\C,0,-8.548,56.317,108.604\H,0,-10.166,57.108,109.493\
 O,0,-4.422,57.485,112.862\H,0,-5.45782113,52.93038101,113.32659342\H,0
 ,-8.08069798,58.29811361,115.25521281\H,0,-5.99760271,61.11670263,110.
 07415412\H,0,-3.00493273,55.8547598,108.35381101\H,0,-8.29848407,56.96
 786322,116.86036031\H,0,-9.21175387,55.52358038,116.49559734\H,0,-7.76
 19019,55.41887131,117.4651498\H,0,-6.44721884,52.46901742,114.85528642
 \H,0,-7.5012008,53.08406969,116.25010997\H,0,-5.65300175,53.69407989,1
 17.38830429\H,0,-4.58942939,53.11072806,115.98715673\H,0,-8.46371308,6
 1.44873123,115.07116311\H,0,-9.8040266,61.05930165,114.01998713\H,0,-9
 .17510627,59.85346206,115.11701801\H,0,-7.30480633,62.28163664,110.744
 41686\H,0,-9.30143044,62.91003662,113.00963921\H,0,-8.86660125,63.9684
 2137,111.55174851\H,0,-3.96248284,61.38427734,107.09090606\H,0,-3.1634
 4207,60.7451661,108.01714588\H,0,-5.06293474,60.70293935,107.57010718\
 H,0,-2.1095021,57.22809277,107.50107472\H,0,-2.75434073,59.86002192,10
 6.03797265\H,0,-1.5183987,58.56487385,105.5586619\H,0,-2.27695181,52.4
 008133,108.93752229\H,0,-3.76507449,52.58672515,108.04086497\H,0,-2.56
 112515,53.85261299,108.00768906\H,0,-4.04362608,51.13631942,110.332047
 89\H,0,-5.07023292,51.43423488,111.84599134\H,0,-3.11319677,51.8109367
 3,113.0376379\H,0,-2.14912823,51.33767231,111.52724304\H,0,-8.9296665,
 57.16293665,111.64470008\H,0,-6.44757409,55.69818255,108.65554409\H,0,
 -8.85064928,56.16247035,107.58939466\H,0,-3.67092348,58.08289971,112.8
 62\H,0,-4.10865359,56.57757836,112.862\H,0,-5.97701984,50.89062643,118
 .88428244\H,0,-3.01035,48.29644543,111.42577215\\Version=ES64L-G16RevA
 .03\State=1-A\HF=-3399.2278638\RMSD=6.958e-09\Dipole=-2.354782,-0.4575
 423,-1.7979947\Quadrupole=8.1583416,-36.9200758,28.7617342,1.4382567,-
 14.0710894,18.6923892\PG=C01 [X(C37H38Fe1N6O5)]\\@


 We find comfort among those who agree with us -- growth among those who don't.
 -- Frank A. Clark
 Job cpu time:       0 days 17 hours  2 minutes 47.6 seconds.
 Elapsed time:       0 days  4 hours 16 minutes 17.7 seconds.
 File lengths (MBytes):  RWF=   2243 Int=      0 D2E=      0 Chk=    205 Scr=      1
 Normal termination of Gaussian 16 at Fri Sep 16 18:51:17 2022.
