 Entering Gaussian System, Link 0=g16
 Input=/net/work/kleich/bench/splitthejobs/1ccg/gfcfail/1ccg/1ccg01/1ccg01.com
 Output=/net/work/kleich/bench/splitthejobs/1ccg/gfcfail/1ccg/1ccg01/1ccg01.log
 Initial command:
 /afs/math/software/gaussian/g16.A03/g16/l1.exe "/scratch/kleich_gaussian.nqdtCy0/Gau-7687.inp" -scrdir="/scratch/kleich_gaussian.nqdtCy0/"
 Entering Link 1 = /afs/math/software/gaussian/g16.A03/g16/l1.exe PID=      7688.
  
 Copyright (c) 1988,1990,1992,1993,1995,1998,2003,2009,2016,
            Gaussian, Inc.  All Rights Reserved.
  
 This is part of the Gaussian(R) 16 program.  It is based on
 the Gaussian(R) 09 system (copyright 2009, Gaussian, Inc.),
 the Gaussian(R) 03 system (copyright 2003, Gaussian, Inc.),
 the Gaussian(R) 98 system (copyright 1998, Gaussian, Inc.),
 the Gaussian(R) 94 system (copyright 1995, Gaussian, Inc.),
 the Gaussian 92(TM) system (copyright 1992, Gaussian, Inc.),
 the Gaussian 90(TM) system (copyright 1990, Gaussian, Inc.),
 the Gaussian 88(TM) system (copyright 1988, Gaussian, Inc.),
 the Gaussian 86(TM) system (copyright 1986, Carnegie Mellon
 University), and the Gaussian 82(TM) system (copyright 1983,
 Carnegie Mellon University). Gaussian is a federally registered
 trademark of Gaussian, Inc.
  
 This software contains proprietary and confidential information,
 including trade secrets, belonging to Gaussian, Inc.
  
 This software is provided under written license and may be
 used, copied, transmitted, or stored only in accord with that
 written license.
  
 The following legend is applicable only to US Government
 contracts under FAR:
  
                    RESTRICTED RIGHTS LEGEND
  
 Use, reproduction and disclosure by the US Government is
 subject to restrictions as set forth in subparagraphs (a)
 and (c) of the Commercial Computer Software - Restricted
 Rights clause in FAR 52.227-19.
  
 Gaussian, Inc.
 340 Quinnipiac St., Bldg. 40, Wallingford CT 06492
  
  
 ---------------------------------------------------------------
 Warning -- This program may not be used in any manner that
 competes with the business of Gaussian, Inc. or will provide
 assistance to any competitor of Gaussian, Inc.  The licensee
 of this program is prohibited from giving any competitor of
 Gaussian, Inc. access to this program.  By using this program,
 the user acknowledges that Gaussian, Inc. is engaged in the
 business of creating and licensing software in the field of
 computational chemistry and represents and warrants to the
 licensee that it is not a competitor of Gaussian, Inc. and that
 it will not use this program in any manner prohibited above.
 ---------------------------------------------------------------
  

 Cite this work as:
 Gaussian 16, Revision A.03,
 M. J. Frisch, G. W. Trucks, H. B. Schlegel, G. E. Scuseria, 
 M. A. Robb, J. R. Cheeseman, G. Scalmani, V. Barone, 
 G. A. Petersson, H. Nakatsuji, X. Li, M. Caricato, A. V. Marenich, 
 J. Bloino, B. G. Janesko, R. Gomperts, B. Mennucci, H. P. Hratchian, 
 J. V. Ortiz, A. F. Izmaylov, J. L. Sonnenberg, D. Williams-Young, 
 F. Ding, F. Lipparini, F. Egidi, J. Goings, B. Peng, A. Petrone, 
 T. Henderson, D. Ranasinghe, V. G. Zakrzewski, J. Gao, N. Rega, 
 G. Zheng, W. Liang, M. Hada, M. Ehara, K. Toyota, R. Fukuda, 
 J. Hasegawa, M. Ishida, T. Nakajima, Y. Honda, O. Kitao, H. Nakai, 
 T. Vreven, K. Throssell, J. A. Montgomery, Jr., J. E. Peralta, 
 F. Ogliaro, M. J. Bearpark, J. J. Heyd, E. N. Brothers, K. N. Kudin, 
 V. N. Staroverov, T. A. Keith, R. Kobayashi, J. Normand, 
 K. Raghavachari, A. P. Rendell, J. C. Burant, S. S. Iyengar, 
 J. Tomasi, M. Cossi, J. M. Millam, M. Klene, C. Adamo, R. Cammi, 
 J. W. Ochterski, R. L. Martin, K. Morokuma, O. Farkas, 
 J. B. Foresman, and D. J. Fox, Gaussian, Inc., Wallingford CT, 2016.
 
 ******************************************
 Gaussian 16:  ES64L-G16RevA.03 25-Dec-2016
                16-Sep-2022 
 ******************************************
 %nprocs=12
 Will use up to   12 processors via shared memory.
 %mem=16GB
 %chk=1ccg_II_S.chk
 ----------------------------------------------------------------------
 # PBE1PBE/def2TZVP empiricaldispersion=GD3BJ int=(grid=ultrafine) geom
 =check guess=read pop=nbo
 ----------------------------------------------------------------------
 1/29=2,38=1,172=1/1;
 2/12=2,40=1/2;
 3/5=44,7=101,11=2,14=-4,25=1,30=1,74=-13,75=-5,116=-2,124=41/1,2,3;
 4/5=1/1;
 5/5=2,38=6/2;
 6/7=2,8=2,9=2,10=2,28=1,40=1/1,7;
 99/5=1,9=1/99;
 -------------
 1ccg_II_S_nbo
 -------------
 Structure from the checkpoint file:  "1ccg_II_S.chk"
 Charge =  0 Multiplicity = 1
 Z-Matrix found in chk file.
 C,0,-5.506,53.923,112.93
 C,0,-7.562,57.972,114.378
 C,0,-5.926,60.126,110.472
 C,0,-3.654,56.114,109.164
 C,0,-6.228,54.827,113.698
 C,0,-6.758,54.532,114.942
 C,0,-7.395,55.715,115.374
 C,0,-7.147,56.642,114.369
 C,0,-8.23,55.922,116.645
 C,0,-6.626,53.173,115.641
 C,0,-5.472,53.012,116.584
 C,0,-5.394,51.617,117.224
 O,0,-6.246,51.26,118.04
 O,0,-4.475,50.847,116.942
 C,0,-7.381,58.932,113.376
 C,0,-7.941,60.211,113.411
 C,0,-7.522,60.812,112.232
 C,0,-6.685,59.879,111.612
 C,0,-8.919,60.678,114.485
 C,0,-7.826,62.055,111.651
 C,0,-8.743,63.064,112.11
 C,0,-5.081,59.253,109.775
 C,0,-4.298,59.622,108.683
 C,0,-3.589,58.446,108.366
 C,0,-4.047,57.462,109.229
 C,0,-4.188,61.047,108.081
 C,0,-2.635,58.152,107.378
 C,0,-2.272,58.924,106.228
 C,0,-4.,55.082,110.014
 C,0,-3.674,53.753,109.834
 C,0,-4.208,53.123,110.964
 C,0,-4.83,54.109,111.715
 C,0,-3.02,53.099,108.613
 C,0,-4.19,51.63,111.27
 C,0,-3.016,51.229,112.145
 C,0,-3.008,49.79,112.601
 O,0,-2.443,49.528,113.657
 O,0,-3.547,48.922,111.918
 N,0,-6.462,56.1,113.359
 N,0,-6.701,58.711,112.255
 N,0,-4.921,57.955,110.104
 N,0,-4.723,55.274,111.116
 Fe,0,-5.857,56.937,111.603
 N,0,-9.264,56.772,109.591
 C,0,-8.576,56.828,110.692
 N,0,-7.374,56.4,110.42
 C,0,-7.308,56.079,109.165
 C,0,-8.548,56.317,108.604
 H,0,-10.166,57.108,109.493
 O,0,-4.422,57.485,112.862
 H,0,-5.45782113,52.93038101,113.32659342
 H,0,-8.08069798,58.29811361,115.25521281
 H,0,-5.99760271,61.11670263,110.07415412
 H,0,-3.00493273,55.8547598,108.35381101
 H,0,-8.29848407,56.96786322,116.86036031
 H,0,-9.21175387,55.52358038,116.49559734
 H,0,-7.7619019,55.41887131,117.4651498
 H,0,-6.44721884,52.46901742,114.85528642
 H,0,-7.5012008,53.08406969,116.25010997
 H,0,-5.65300175,53.69407989,117.38830429
 H,0,-4.58942939,53.11072806,115.98715673
 H,0,-8.46371308,61.44873123,115.07116311
 H,0,-9.8040266,61.05930165,114.01998713
 H,0,-9.17510627,59.85346206,115.11701801
 H,0,-7.30480633,62.28163664,110.74441686
 H,0,-9.30143044,62.91003662,113.00963921
 H,0,-8.86660125,63.96842137,111.55174851
 H,0,-3.96248284,61.38427734,107.09090606
 H,0,-3.16344207,60.7451661,108.01714588
 H,0,-5.06293474,60.70293935,107.57010718
 H,0,-2.1095021,57.22809277,107.50107472
 H,0,-2.75434073,59.86002192,106.03797265
 H,0,-1.5183987,58.56487385,105.5586619
 H,0,-2.27695181,52.4008133,108.93752229
 H,0,-3.76507449,52.58672515,108.04086497
 H,0,-2.56112515,53.85261299,108.00768906
 H,0,-4.04362608,51.13631942,110.33204789
 H,0,-5.07023292,51.43423488,111.84599134
 H,0,-3.11319677,51.81093673,113.0376379
 H,0,-2.14912823,51.33767231,111.52724304
 H,0,-8.9296665,57.16293665,111.64470008
 H,0,-6.44757409,55.69818255,108.65554409
 H,0,-8.85064928,56.16247035,107.58939466
 H,0,-3.67092348,58.08289971,112.862
 H,0,-4.10865359,56.57757836,112.862
 H,0,-5.97701984,50.89062643,118.88428244
 H,0,-3.01035,48.29644543,111.42577215
 Recover connectivity data from disk.
 Center=     -5.69504601     56.23397221    111.88815250
 Residue   0                        charge    0.00000000 layers R        AvRTP=      7.49740844    280.25480075     64.16799963
 Residue   4                        charge    0.00000000 layers R        AvRTP=      0.00000000      0.00000000      0.00000000
 Residue   2 PDB Number   575_A IMD charge    0.00000000 layers R        AvRTP=      3.58109175    174.28708208    130.98602261
 Residue   3 PDB Number   313_A HOH charge    0.00000000 layers R        AvRTP=      2.21717271     35.18893807     63.94527408
 Residue   1 PDB Number     1_A HEM charge    0.00000000 layers R        AvRTP=      0.29944987     23.66350593     57.69198574
 Stoichiometry    C37H38FeN6O5
 Framework group  C1[X(C37H38FeN6O5)]
 Deg. of freedom   255
 Full point group                 C1      NOp   1
 Largest Abelian subgroup         C1      NOp   1
 Largest concise Abelian subgroup C1      NOp   1
                         Standard orientation:                         
 ---------------------------------------------------------------------
 Center     Atomic      Atomic             Coordinates (Angstroms)
 Number     Number       Type             X           Y           Z
 ---------------------------------------------------------------------
      1          6           0       -2.341147   -0.087175    0.262138
      2          6           0        0.995264   -3.454204   -0.237578
      3          6           0        4.282185   -0.048016   -0.646326
      4          6           0        0.880258    3.318637   -0.398269
      5          6           0       -1.739433   -1.335050    0.166899
      6          6           0       -2.438089   -2.529722    0.156800
      7          6           0       -1.460638   -3.540642    0.036331
      8          6           0       -0.253692   -2.860163   -0.068963
      9          6           0       -1.671537   -5.060417    0.072694
     10          6           0       -3.964882   -2.642523    0.252103
     11          6           0       -4.716174   -2.701943   -1.043627
     12          6           0       -6.240043   -2.788572   -0.864662
     13          8           0       -6.753382   -3.808122   -0.399679
     14          8           0       -6.965770   -1.850150   -1.195826
     15          6           0        2.242116   -2.822105   -0.302203
     16          6           0        3.460591   -3.503376   -0.345264
     17          6           0        4.422473   -2.503552   -0.389279
     18          6           0        3.711319   -1.300676   -0.442255
     19          6           0        3.589811   -5.017051   -0.203352
     20          6           0        5.826668   -2.547984   -0.353391
     21          6           0        6.688241   -3.688815   -0.192611
     22          6           0        3.655693    1.203852   -0.694268
     23          6           0        4.309907    2.399294   -0.985190
     24          6           0        3.276689    3.357698   -0.976926
     25          6           0        2.117318    2.687864   -0.616413
     26          6           0        5.810632    2.552230   -1.345141
     27          6           0        3.268335    4.743920   -1.202791
     28          6           0        4.379370    5.643972   -1.278697
     29          6           0       -0.336058    2.734044   -0.104899
     30          6           0       -1.495196    3.413133    0.211575
     31          6           0       -2.441354    2.395890    0.381751
     32          6           0       -1.777510    1.194879    0.181837
     33          6           0       -1.669620    4.913025    0.468814
     34          6           0       -3.898665    2.565334    0.794718
     35          6           0       -4.837188    2.634942   -0.396513
     36          6           0       -6.308954    2.666210   -0.062378
     37          8           0       -7.093116    2.218160   -0.891441
     38          8           0       -6.690412    3.138002    1.006424
     39          7           0       -0.424535   -1.539306    0.027156
     40          7           0        2.404121   -1.502698   -0.273888
     41          7           0        2.336094    1.381642   -0.480508
     42          7           0       -0.507987    1.413529   -0.078889
     43         26           0        0.959964   -0.045150   -0.000976
     44          7           0        2.280541   -0.306056    3.723406
     45          6           0        1.737098   -0.806619    2.654394
     46          7           0        1.259811    0.189171    1.959721
     47          6           0        1.499839    1.300357    2.584281
     48          6           0        2.171460    0.990545    3.751289
     49          1           0        2.780947   -0.819336    4.373207
     50          8           0        0.651998   -0.387767   -1.932913
     51          1           0       -3.399030   -0.106564    0.421534
     52          1           0        1.001868   -4.520318   -0.328448
     53          1           0        5.343079   -0.040119   -0.785404
     54          1           0        0.881058    4.386340   -0.468343
     55          1           0       -0.824353   -5.548564   -0.361923
     56          1           0       -1.785917   -5.380454    1.087284
     57          1           0       -2.551373   -5.311778   -0.481928
     58          1           0       -4.284954   -1.735671    0.721224
     59          1           0       -4.148069   -3.583896    0.726613
     60          1           0       -4.423065   -3.618794   -1.510930
     61          1           0       -4.530858   -1.768772   -1.533269
     62          1           0        3.941349   -5.432917   -1.124426
     63          1           0        4.284184   -5.243998    0.578466
     64          1           0        2.634516   -5.435739    0.035422
     65          1           0        6.322107   -1.605619   -0.460107
     66          1           0        6.266819   -4.665859   -0.079973
     67          1           0        7.750470   -3.560279   -0.185667
     68          1           0        6.492506    3.366680   -1.216231
     69          1           0        5.387840    3.251809   -2.035601
     70          1           0        5.879880    2.561583   -0.277425
     71          1           0        2.303197    5.186301   -1.335858
     72          1           0        5.376169    5.275014   -1.155558
     73          1           0        4.212819    6.685514   -1.458557
     74          1           0       -2.559535    5.256870   -0.015667
     75          1           0       -1.746436    5.087769    1.521650
     76          1           0       -0.824731    5.442179    0.080150
     77          1           0       -3.961501    3.517706    1.278390
     78          1           0       -4.161496    1.675911    1.328335
     79          1           0       -4.685522    1.721866   -0.933346
     80          1           0       -4.631324    3.573210   -0.867865
     81          1           0        1.689860   -1.843012    2.392559
     82          1           0        1.226705    2.281046    2.254818
     83          1           0        2.521993    1.663246    4.505942
     84          1           0        1.048135   -0.131521   -2.768983
     85          1           0       -0.208135    0.029447   -1.845145
     86          1           0       -7.489499   -4.224820   -0.853656
     87          1           0       -7.130146    3.991169    1.024820
 ---------------------------------------------------------------------
 Rotational constants (GHZ):           0.0819071           0.0475467           0.0338762
 Standard basis: def2TZVP (5D, 7F)
 There are  2008 symmetry adapted cartesian basis functions of A   symmetry.
 There are  1761 symmetry adapted basis functions of A   symmetry.
  1761 basis functions,  2854 primitive gaussians,  2008 cartesian basis functions
   184 alpha electrons      184 beta electrons
       nuclear repulsion energy      7371.5366171953 Hartrees.
 NAtoms=   87 NActive=   87 NUniq=   87 SFac= 1.00D+00 NAtFMM=   60 NAOKFM=T Big=T
 Integral buffers will be    131072 words long.
 Raffenetti 2 integral format.
 Two-electron integral symmetry is turned on.
 Nuclear repulsion after empirical dispersion term =     7371.4146188558 Hartrees.
 One-electron integrals computed using PRISM.
   1 Symmetry operations used in ECPInt.
 ECPInt:  NShTT=  241860 NPrTT=  750929 LenC2=  176350 LenP2D=  356217.
 LDataN:  DoStor=T MaxTD1= 6 Len=  172
 NBasis=  1761 RedAO= T EigKep=  2.74D-06  NBF=  1761
 NBsUse=  1761 1.00D-06 EigRej= -1.00D+00 NBFU=  1761
 Initial guess from the checkpoint file:  "1ccg_II_S.chk"
 B after Tr=     0.000000   -0.000000    0.000000
         Rot=    1.000000   -0.000000   -0.000000   -0.000000 Ang=   0.00 deg.
 Requested convergence on RMS density matrix=1.00D-08 within 128 cycles.
 Requested convergence on MAX density matrix=1.00D-06.
 Requested convergence on             energy=1.00D-06.
 No special actions if energy rises.
 SCF Done:  E(RPBE1PBE) =  -3399.15226835     A.U. after    1 cycles
            NFock=  1  Conv=0.28D-08     -V/T= 2.0026

 **********************************************************************

            Population analysis using the SCF density.

 **********************************************************************

 Orbital symmetries:
       Occupied  (A) (A) (A) (A) (A) (A) (A) (A) (A) (A) (A) (A)
                 (A) (A) (A) (A) (A) (A) (A) (A) (A) (A) (A) (A)
                 (A) (A) (A) (A) (A) (A) (A) (A) (A) (A) (A) (A)
                 (A) (A) (A) (A) (A) (A) (A) (A) (A) (A) (A) (A)
                 (A) (A) (A) (A) (A) (A) (A) (A) (A) (A) (A) (A)
                 (A) (A) (A) (A) (A) (A) (A) (A) (A) (A) (A) (A)
                 (A) (A) (A) (A) (A) (A) (A) (A) (A) (A) (A) (A)
                 (A) (A) (A) (A) (A) (A) (A) (A) (A) (A) (A) (A)
                 (A) (A) (A) (A) (A) (A) (A) (A) (A) (A) (A) (A)
                 (A) (A) (A) (A) (A) (A) (A) (A) (A) (A) (A) (A)
                 (A) (A) (A) (A) (A) (A) (A) (A) (A) (A) (A) (A)
                 (A) (A) (A) (A) (A) (A) (A) (A) (A) (A) (A) (A)
                 (A) (A) (A) (A) (A) (A) (A) (A) (A) (A) (A) (A)
                 (A) (A) (A) (A) (A) (A) (A) (A) (A) (A) (A) (A)
                 (A) (A) (A) (A) (A) (A) (A) (A) (A) (A) (A) (A)
                 (A) (A) (A) (A)
       Virtual   (A) (A) (A) (A) (A) (A) (A) (A) (A) (A) (A) (A)
                 (A) (A) (A) (A) (A) (A) (A) (A) (A) (A) (A) (A)
                 (A) (A) (A) (A) (A) (A) (A) (A) (A) (A) (A) (A)
                 (A) (A) (A) (A) (A) (A) (A) (A) (A) (A) (A) (A)
                 (A) (A) (A) (A) (A) (A) (A) (A) (A) (A) (A) (A)
                 (A) (A) (A) (A) (A) (A) (A) (A) (A) (A) (A) (A)
                 (A) (A) (A) (A) (A) (A) (A) (A) (A) (A) (A) (A)
                 (A) (A) (A) (A) (A) (A) (A) (A) (A) (A) (A) (A)
                 (A) (A) (A) (A) (A) (A) (A) (A) (A) (A) (A) (A)
                 (A) (A) (A) (A) (A) (A) (A) (A) (A) (A) (A) (A)
                 (A) (A) (A) (A) (A) (A) (A) (A) (A) (A) (A) (A)
                 (A) (A) (A) (A) (A) (A) (A) (A) (A) (A) (A) (A)
                 (A) (A) (A) (A) (A) (A) (A) (A) (A) (A) (A) (A)
                 (A) (A) (A) (A) (A) (A) (A) (A) (A) (A) (A) (A)
                 (A) (A) (A) (A) (A) (A) (A) (A) (A) (A) (A) (A)
                 (A) (A) (A) (A) (A) (A) (A) (A) (A) (A) (A) (A)
                 (A) (A) (A) (A) (A) (A) (A) (A) (A) (A) (A) (A)
                 (A) (A) (A) (A) (A) (A) (A) (A) (A) (A) (A) (A)
                 (A) (A) (A) (A) (A) (A) (A) (A) (A) (A) (A) (A)
                 (A) (A) (A) (A) (A) (A) (A) (A) (A) (A) (A) (A)
                 (A) (A) (A) (A) (A) (A) (A) (A) (A) (A) (A) (A)
                 (A) (A) (A) (A) (A) (A) (A) (A) (A) (A) (A) (A)
                 (A) (A) (A) (A) (A) (A) (A) (A) (A) (A) (A) (A)
                 (A) (A) (A) (A) (A) (A) (A) (A) (A) (A) (A) (A)
                 (A) (A) (A) (A) (A) (A) (A) (A) (A) (A) (A) (A)
                 (A) (A) (A) (A) (A) (A) (A) (A) (A) (A) (A) (A)
                 (A) (A) (A) (A) (A) (A) (A) (A) (A) (A) (A) (A)
                 (A) (A) (A) (A) (A) (A) (A) (A) (A) (A) (A) (A)
                 (A) (A) (A) (A) (A) (A) (A) (A) (A) (A) (A) (A)
                 (A) (A) (A) (A) (A) (A) (A) (A) (A) (A) (A) (A)
                 (A) (A) (A) (A) (A) (A) (A) (A) (A) (A) (A) (A)
                 (A) (A) (A) (A) (A) (A) (A) (A) (A) (A) (A) (A)
                 (A) (A) (A) (A) (A) (A) (A) (A) (A) (A) (A) (A)
                 (A) (A) (A) (A) (A) (A) (A) (A) (A) (A) (A) (A)
                 (A) (A) (A) (A) (A) (A) (A) (A) (A) (A) (A) (A)
                 (A) (A) (A) (A) (A) (A) (A) (A) (A) (A) (A) (A)
                 (A) (A) (A) (A) (A) (A) (A) (A) (A) (A) (A) (A)
                 (A) (A) (A) (A) (A) (A) (A) (A) (A) (A) (A) (A)
                 (A) (A) (A) (A) (A) (A) (A) (A) (A) (A) (A) (A)
                 (A) (A) (A) (A) (A) (A) (A) (A) (A) (A) (A) (A)
                 (A) (A) (A) (A) (A) (A) (A) (A) (A) (A) (A) (A)
                 (A) (A) (A) (A) (A) (A) (A) (A) (A) (A) (A) (A)
                 (A) (A) (A) (A) (A) (A) (A) (A) (A) (A) (A) (A)
                 (A) (A) (A) (A) (A) (A) (A) (A) (A) (A) (A) (A)
                 (A) (A) (A) (A) (A) (A) (A) (A) (A) (A) (A) (A)
                 (A) (A) (A) (A) (A) (A) (A) (A) (A) (A) (A) (A)
                 (A) (A) (A) (A) (A) (A) (A) (A) (A) (A) (A) (A)
                 (A) (A) (A) (A) (A) (A) (A) (A) (A) (A) (A) (A)
                 (A) (A) (A) (A) (A) (A) (A) (A) (A) (A) (A) (A)
                 (A) (A) (A) (A) (A) (A) (A) (A) (A) (A) (A) (A)
                 (A) (A) (A) (A) (A) (A) (A) (A) (A) (A) (A) (A)
                 (A) (A) (A) (A) (A) (A) (A) (A) (A) (A) (A) (A)
                 (A) (A) (A) (A) (A) (A) (A) (A) (A) (A) (A) (A)
                 (A) (A) (A) (A) (A) (A) (A) (A) (A) (A) (A) (A)
                 (A) (A) (A) (A) (A) (A) (A) (A) (A) (A) (A) (A)
                 (A) (A) (A) (A) (A) (A) (A) (A) (A) (A) (A) (A)
                 (A) (A) (A) (A) (A) (A) (A) (A) (A) (A) (A) (A)
                 (A) (A) (A) (A) (A) (A) (A) (A) (A) (A) (A) (A)
                 (A) (A) (A) (A) (A) (A) (A) (A) (A) (A) (A) (A)
                 (A) (A) (A) (A) (A) (A) (A) (A) (A) (A) (A) (A)
                 (A) (A) (A) (A) (A) (A) (A) (A) (A) (A) (A) (A)
                 (A) (A) (A) (A) (A) (A) (A) (A) (A) (A) (A) (A)
                 (A) (A) (A) (A) (A) (A) (A) (A) (A) (A) (A) (A)
                 (A) (A) (A) (A) (A) (A) (A) (A) (A) (A) (A) (A)
                 (A) (A) (A) (A) (A) (A) (A) (A) (A) (A) (A) (A)
                 (A) (A) (A) (A) (A) (A) (A) (A) (A) (A) (A) (A)
                 (A) (A) (A) (A) (A) (A) (A) (A) (A) (A) (A) (A)
                 (A) (A) (A) (A) (A) (A) (A) (A) (A) (A) (A) (A)
                 (A) (A) (A) (A) (A) (A) (A) (A) (A) (A) (A) (A)
                 (A) (A) (A) (A) (A) (A) (A) (A) (A) (A) (A) (A)
                 (A) (A) (A) (A) (A) (A) (A) (A) (A) (A) (A) (A)
                 (A) (A) (A) (A) (A) (A) (A) (A) (A) (A) (A) (A)
                 (A) (A) (A) (A) (A) (A) (A) (A) (A) (A) (A) (A)
                 (A) (A) (A) (A) (A) (A) (A) (A) (A) (A) (A) (A)
                 (A) (A) (A) (A) (A) (A) (A) (A) (A) (A) (A) (A)
                 (A) (A) (A) (A) (A) (A) (A) (A) (A) (A) (A) (A)
                 (A) (A) (A) (A) (A) (A) (A) (A) (A) (A) (A) (A)
                 (A) (A) (A) (A) (A) (A) (A) (A) (A) (A) (A) (A)
                 (A) (A) (A) (A) (A) (A) (A) (A) (A) (A) (A) (A)
                 (A) (A) (A) (A) (A) (A) (A) (A) (A) (A) (A) (A)
                 (A) (A) (A) (A) (A) (A) (A) (A) (A) (A) (A) (A)
                 (A) (A) (A) (A) (A) (A) (A) (A) (A) (A) (A) (A)
                 (A) (A) (A) (A) (A) (A) (A) (A) (A) (A) (A) (A)
                 (A) (A) (A) (A) (A) (A) (A) (A) (A) (A) (A) (A)
                 (A) (A) (A) (A) (A) (A) (A) (A) (A) (A) (A) (A)
                 (A) (A) (A) (A) (A) (A) (A) (A) (A) (A) (A) (A)
                 (A) (A) (A) (A) (A) (A) (A) (A) (A) (A) (A) (A)
                 (A) (A) (A) (A) (A) (A) (A) (A) (A) (A) (A) (A)
                 (A) (A) (A) (A) (A) (A) (A) (A) (A) (A) (A) (A)
                 (A) (A) (A) (A) (A) (A) (A) (A) (A) (A) (A) (A)
                 (A) (A) (A) (A) (A) (A) (A) (A) (A) (A) (A) (A)
                 (A) (A) (A) (A) (A) (A) (A) (A) (A) (A) (A) (A)
                 (A) (A) (A) (A) (A) (A) (A) (A) (A) (A) (A) (A)
                 (A) (A) (A) (A) (A) (A) (A) (A) (A) (A) (A) (A)
                 (A) (A) (A) (A) (A) (A) (A) (A) (A) (A) (A) (A)
                 (A) (A) (A) (A) (A) (A) (A) (A) (A) (A) (A) (A)
                 (A) (A) (A) (A) (A) (A) (A) (A) (A) (A) (A) (A)
                 (A) (A) (A) (A) (A) (A) (A) (A) (A) (A) (A) (A)
                 (A) (A) (A) (A) (A) (A) (A) (A) (A) (A) (A) (A)
                 (A) (A) (A) (A) (A) (A) (A) (A) (A) (A) (A) (A)
                 (A) (A) (A) (A) (A) (A) (A) (A) (A) (A) (A) (A)
                 (A) (A) (A) (A) (A) (A) (A) (A) (A) (A) (A) (A)
                 (A) (A) (A) (A) (A) (A) (A) (A) (A) (A) (A) (A)
                 (A) (A) (A) (A) (A) (A) (A) (A) (A) (A) (A) (A)
                 (A) (A) (A) (A) (A) (A) (A) (A) (A) (A) (A) (A)
                 (A) (A) (A) (A) (A) (A) (A) (A) (A) (A) (A) (A)
                 (A) (A) (A) (A) (A) (A) (A) (A) (A) (A) (A) (A)
                 (A) (A) (A) (A) (A) (A) (A) (A) (A) (A) (A) (A)
                 (A) (A) (A) (A) (A) (A) (A) (A) (A) (A) (A) (A)
                 (A) (A) (A) (A) (A) (A) (A) (A) (A) (A) (A) (A)
                 (A) (A) (A) (A) (A) (A) (A) (A) (A) (A) (A) (A)
                 (A) (A) (A) (A) (A) (A) (A) (A) (A) (A) (A) (A)
                 (A) (A) (A) (A) (A) (A) (A) (A) (A) (A) (A) (A)
                 (A) (A) (A) (A) (A) (A) (A) (A) (A) (A) (A) (A)
                 (A) (A) (A) (A) (A) (A) (A) (A) (A) (A) (A) (A)
                 (A) (A) (A) (A) (A) (A) (A) (A) (A) (A) (A) (A)
                 (A) (A) (A) (A) (A) (A) (A) (A) (A) (A) (A) (A)
                 (A) (A) (A) (A) (A) (A) (A) (A) (A) (A) (A) (A)
                 (A) (A) (A) (A) (A) (A) (A) (A) (A) (A) (A) (A)
                 (A) (A) (A) (A) (A) (A) (A) (A) (A) (A) (A) (A)
                 (A) (A) (A) (A) (A) (A) (A) (A) (A) (A) (A) (A)
                 (A) (A) (A) (A) (A) (A) (A) (A) (A) (A) (A) (A)
                 (A) (A) (A) (A) (A) (A) (A) (A) (A) (A) (A) (A)
                 (A) (A) (A) (A) (A) (A) (A) (A) (A) (A) (A) (A)
                 (A) (A) (A) (A) (A) (A) (A) (A) (A) (A) (A) (A)
                 (A) (A) (A) (A) (A) (A) (A) (A) (A) (A) (A) (A)
                 (A) (A) (A) (A) (A) (A) (A) (A) (A) (A) (A) (A)
                 (A) (A) (A) (A) (A) (A) (A) (A) (A) (A) (A) (A)
                 (A) (A) (A) (A) (A) (A) (A) (A) (A) (A) (A) (A)
                 (A) (A) (A) (A) (A) (A) (A) (A) (A) (A) (A) (A)
                 (A) (A) (A) (A) (A) (A) (A) (A) (A) (A) (A) (A)
                 (A) (A) (A) (A) (A)
 The electronic state is 1-A.
 Alpha  occ. eigenvalues -- -256.30849 -30.07509 -25.90275 -25.90043 -25.89957
 Alpha  occ. eigenvalues --  -19.25250 -19.24848 -19.22661 -19.16701 -19.16605
 Alpha  occ. eigenvalues --  -14.45919 -14.39564 -14.36783 -14.36100 -14.35923
 Alpha  occ. eigenvalues --  -14.35757 -10.33996 -10.33625 -10.28092 -10.26926
 Alpha  occ. eigenvalues --  -10.25523 -10.24372 -10.24053 -10.24026 -10.23772
 Alpha  occ. eigenvalues --  -10.23718 -10.23665 -10.23655 -10.23617 -10.23566
 Alpha  occ. eigenvalues --  -10.23509 -10.22979 -10.22594 -10.22532 -10.22364
 Alpha  occ. eigenvalues --  -10.22324 -10.22283 -10.22147 -10.22141 -10.22047
 Alpha  occ. eigenvalues --  -10.21973 -10.21930 -10.21918 -10.21884 -10.21843
 Alpha  occ. eigenvalues --  -10.21786 -10.21720 -10.21716 -10.21617 -10.21577
 Alpha  occ. eigenvalues --  -10.21424 -10.21326 -10.19283  -3.42403  -2.18389
 Alpha  occ. eigenvalues --   -2.17769  -2.17689  -1.17322  -1.17163  -1.10760
 Alpha  occ. eigenvalues --   -1.06685  -1.02541  -1.01989  -1.00313  -0.99624
 Alpha  occ. eigenvalues --   -0.99261  -0.98484  -0.94471  -0.85047  -0.84441
 Alpha  occ. eigenvalues --   -0.83814  -0.83595  -0.82654  -0.81953  -0.81612
 Alpha  occ. eigenvalues --   -0.79755  -0.79703  -0.78909  -0.78322  -0.76296
 Alpha  occ. eigenvalues --   -0.75320  -0.74016  -0.73595  -0.72954  -0.71894
 Alpha  occ. eigenvalues --   -0.70715  -0.69719  -0.69471  -0.67767  -0.67028
 Alpha  occ. eigenvalues --   -0.66805  -0.65451  -0.64974  -0.64415  -0.62937
 Alpha  occ. eigenvalues --   -0.62052  -0.60856  -0.59372  -0.58809  -0.58429
 Alpha  occ. eigenvalues --   -0.56971  -0.55828  -0.55194  -0.54271  -0.53307
 Alpha  occ. eigenvalues --   -0.52946  -0.52907  -0.51502  -0.51153  -0.50906
 Alpha  occ. eigenvalues --   -0.50321  -0.50183  -0.50057  -0.49827  -0.49677
 Alpha  occ. eigenvalues --   -0.49072  -0.48977  -0.48825  -0.48642  -0.47292
 Alpha  occ. eigenvalues --   -0.46599  -0.46237  -0.46026  -0.45732  -0.45664
 Alpha  occ. eigenvalues --   -0.45033  -0.44822  -0.44631  -0.44407  -0.44270
 Alpha  occ. eigenvalues --   -0.44050  -0.43468  -0.43162  -0.42936  -0.42591
 Alpha  occ. eigenvalues --   -0.42209  -0.42049  -0.41427  -0.41296  -0.40766
 Alpha  occ. eigenvalues --   -0.40631  -0.40444  -0.39673  -0.39394  -0.39238
 Alpha  occ. eigenvalues --   -0.38519  -0.38420  -0.38185  -0.37652  -0.37310
 Alpha  occ. eigenvalues --   -0.37058  -0.36720  -0.36598  -0.36405  -0.36176
 Alpha  occ. eigenvalues --   -0.35704  -0.35389  -0.34705  -0.34401  -0.34095
 Alpha  occ. eigenvalues --   -0.34032  -0.33134  -0.32217  -0.31934  -0.31757
 Alpha  occ. eigenvalues --   -0.31249  -0.30804  -0.30384  -0.30283  -0.28169
 Alpha  occ. eigenvalues --   -0.27750  -0.26891  -0.26723  -0.25778  -0.24332
 Alpha  occ. eigenvalues --   -0.24060  -0.23591  -0.21991  -0.20614  -0.20380
 Alpha  occ. eigenvalues --   -0.19494  -0.18913  -0.18795  -0.18419
 Alpha virt. eigenvalues --   -0.08090  -0.07796  -0.04064  -0.01041  -0.00863
 Alpha virt. eigenvalues --   -0.00502   0.00063   0.01083   0.01493   0.01944
 Alpha virt. eigenvalues --    0.03177   0.03466   0.03760   0.04075   0.04347
 Alpha virt. eigenvalues --    0.04660   0.04716   0.04853   0.05553   0.05820
 Alpha virt. eigenvalues --    0.06449   0.07179   0.07294   0.07650   0.07953
 Alpha virt. eigenvalues --    0.08172   0.08476   0.08740   0.08962   0.09288
 Alpha virt. eigenvalues --    0.09484   0.09682   0.10115   0.10424   0.10538
 Alpha virt. eigenvalues --    0.10952   0.11442   0.11843   0.12071   0.12608
 Alpha virt. eigenvalues --    0.12763   0.13129   0.13439   0.13739   0.13837
 Alpha virt. eigenvalues --    0.14128   0.14324   0.14604   0.14801   0.15044
 Alpha virt. eigenvalues --    0.15186   0.15443   0.15847   0.16074   0.16239
 Alpha virt. eigenvalues --    0.16585   0.16823   0.16929   0.17198   0.17445
 Alpha virt. eigenvalues --    0.17776   0.17853   0.18084   0.18299   0.18679
 Alpha virt. eigenvalues --    0.18873   0.19044   0.19354   0.19497   0.19766
 Alpha virt. eigenvalues --    0.20039   0.20251   0.20558   0.20783   0.20964
 Alpha virt. eigenvalues --    0.21034   0.21297   0.21580   0.22035   0.22251
 Alpha virt. eigenvalues --    0.22559   0.22733   0.22991   0.23069   0.23351
 Alpha virt. eigenvalues --    0.23422   0.23568   0.23993   0.24149   0.24194
 Alpha virt. eigenvalues --    0.24337   0.24535   0.24835   0.25048   0.25202
 Alpha virt. eigenvalues --    0.25397   0.25586   0.25819   0.26195   0.26567
 Alpha virt. eigenvalues --    0.26918   0.27178   0.27432   0.27665   0.27785
 Alpha virt. eigenvalues --    0.28050   0.28262   0.28460   0.28690   0.28866
 Alpha virt. eigenvalues --    0.29080   0.29204   0.29603   0.30042   0.30096
 Alpha virt. eigenvalues --    0.30180   0.30558   0.30782   0.30904   0.30957
 Alpha virt. eigenvalues --    0.31625   0.31981   0.32090   0.32341   0.32796
 Alpha virt. eigenvalues --    0.32892   0.33223   0.33526   0.33856   0.34155
 Alpha virt. eigenvalues --    0.34444   0.35043   0.35255   0.35404   0.35601
 Alpha virt. eigenvalues --    0.35768   0.35884   0.36067   0.36364   0.37124
 Alpha virt. eigenvalues --    0.37333   0.37411   0.37664   0.37738   0.38327
 Alpha virt. eigenvalues --    0.38413   0.38640   0.38808   0.38949   0.39093
 Alpha virt. eigenvalues --    0.39192   0.39468   0.39573   0.39739   0.39799
 Alpha virt. eigenvalues --    0.40087   0.40123   0.40384   0.40791   0.40884
 Alpha virt. eigenvalues --    0.41186   0.41372   0.41532   0.41629   0.41841
 Alpha virt. eigenvalues --    0.42048   0.42234   0.42534   0.42727   0.42960
 Alpha virt. eigenvalues --    0.43138   0.43295   0.43430   0.43600   0.43974
 Alpha virt. eigenvalues --    0.44174   0.44434   0.44464   0.44773   0.45184
 Alpha virt. eigenvalues --    0.45634   0.45678   0.45946   0.46153   0.46251
 Alpha virt. eigenvalues --    0.46600   0.46668   0.46933   0.47020   0.47316
 Alpha virt. eigenvalues --    0.47549   0.47581   0.47915   0.47989   0.48262
 Alpha virt. eigenvalues --    0.48336   0.48583   0.48824   0.48997   0.49148
 Alpha virt. eigenvalues --    0.49421   0.49674   0.49871   0.49994   0.50295
 Alpha virt. eigenvalues --    0.50423   0.50630   0.50953   0.51028   0.51131
 Alpha virt. eigenvalues --    0.51375   0.51470   0.51782   0.52035   0.52218
 Alpha virt. eigenvalues --    0.52342   0.52503   0.52698   0.52996   0.53205
 Alpha virt. eigenvalues --    0.53296   0.53567   0.53751   0.53905   0.54228
 Alpha virt. eigenvalues --    0.54652   0.54884   0.54925   0.55196   0.55356
 Alpha virt. eigenvalues --    0.55747   0.55892   0.56097   0.56358   0.56639
 Alpha virt. eigenvalues --    0.56820   0.56909   0.57336   0.57620   0.57752
 Alpha virt. eigenvalues --    0.57779   0.58023   0.58249   0.58946   0.59244
 Alpha virt. eigenvalues --    0.59348   0.59471   0.59775   0.59860   0.60167
 Alpha virt. eigenvalues --    0.60275   0.60305   0.61128   0.61266   0.61496
 Alpha virt. eigenvalues --    0.61840   0.62257   0.62643   0.62843   0.63054
 Alpha virt. eigenvalues --    0.63324   0.63556   0.63823   0.63911   0.64294
 Alpha virt. eigenvalues --    0.64499   0.64749   0.65316   0.65448   0.65718
 Alpha virt. eigenvalues --    0.65930   0.66318   0.66452   0.66984   0.67291
 Alpha virt. eigenvalues --    0.67520   0.67557   0.67796   0.68019   0.68227
 Alpha virt. eigenvalues --    0.68461   0.68799   0.68923   0.69137   0.69354
 Alpha virt. eigenvalues --    0.69530   0.69936   0.70094   0.70163   0.70597
 Alpha virt. eigenvalues --    0.70927   0.71214   0.71482   0.71695   0.71939
 Alpha virt. eigenvalues --    0.72022   0.72567   0.72686   0.72992   0.73172
 Alpha virt. eigenvalues --    0.73512   0.73795   0.74261   0.74434   0.74604
 Alpha virt. eigenvalues --    0.75047   0.75121   0.75626   0.76118   0.76262
 Alpha virt. eigenvalues --    0.76649   0.76913   0.77069   0.77485   0.77822
 Alpha virt. eigenvalues --    0.77891   0.78201   0.78355   0.78479   0.78809
 Alpha virt. eigenvalues --    0.79326   0.79731   0.79835   0.80077   0.80392
 Alpha virt. eigenvalues --    0.80702   0.81079   0.81751   0.81806   0.82298
 Alpha virt. eigenvalues --    0.82627   0.83154   0.83409   0.83615   0.83798
 Alpha virt. eigenvalues --    0.83956   0.84430   0.84740   0.84991   0.85244
 Alpha virt. eigenvalues --    0.85623   0.86065   0.86483   0.86660   0.86714
 Alpha virt. eigenvalues --    0.87027   0.87761   0.88236   0.88365   0.88553
 Alpha virt. eigenvalues --    0.88847   0.89359   0.89443   0.89874   0.89930
 Alpha virt. eigenvalues --    0.90698   0.91057   0.91320   0.91999   0.92088
 Alpha virt. eigenvalues --    0.92266   0.92636   0.92873   0.93380   0.93561
 Alpha virt. eigenvalues --    0.94038   0.94155   0.94423   0.94993   0.95196
 Alpha virt. eigenvalues --    0.95706   0.95925   0.96199   0.96460   0.96876
 Alpha virt. eigenvalues --    0.97114   0.97203   0.97605   0.97947   0.98787
 Alpha virt. eigenvalues --    0.98959   0.99554   0.99774   0.99880   1.00203
 Alpha virt. eigenvalues --    1.00398   1.00613   1.01036   1.01098   1.01657
 Alpha virt. eigenvalues --    1.01781   1.02525   1.02753   1.03003   1.03311
 Alpha virt. eigenvalues --    1.03655   1.03715   1.03969   1.04336   1.04768
 Alpha virt. eigenvalues --    1.05278   1.05385   1.05688   1.06093   1.06304
 Alpha virt. eigenvalues --    1.06411   1.06702   1.06893   1.07630   1.07856
 Alpha virt. eigenvalues --    1.08153   1.08252   1.08350   1.09012   1.09578
 Alpha virt. eigenvalues --    1.09627   1.09946   1.10347   1.10902   1.11145
 Alpha virt. eigenvalues --    1.11535   1.11980   1.12306   1.12579   1.12947
 Alpha virt. eigenvalues --    1.13279   1.13907   1.14010   1.14351   1.14480
 Alpha virt. eigenvalues --    1.14781   1.15335   1.15724   1.16066   1.16428
 Alpha virt. eigenvalues --    1.16746   1.17065   1.17448   1.17747   1.18358
 Alpha virt. eigenvalues --    1.18772   1.19451   1.19752   1.19968   1.20099
 Alpha virt. eigenvalues --    1.20512   1.21124   1.21613   1.21710   1.22253
 Alpha virt. eigenvalues --    1.22787   1.23084   1.23371   1.23558   1.24086
 Alpha virt. eigenvalues --    1.24676   1.25057   1.25086   1.25849   1.26495
 Alpha virt. eigenvalues --    1.26655   1.26977   1.27097   1.27382   1.28224
 Alpha virt. eigenvalues --    1.28497   1.28626   1.29512   1.30061   1.30518
 Alpha virt. eigenvalues --    1.31069   1.31408   1.31747   1.32289   1.32435
 Alpha virt. eigenvalues --    1.32809   1.33152   1.33529   1.33780   1.34524
 Alpha virt. eigenvalues --    1.34718   1.35073   1.35532   1.35855   1.36195
 Alpha virt. eigenvalues --    1.36842   1.37064   1.37316   1.37807   1.38455
 Alpha virt. eigenvalues --    1.38732   1.39017   1.39475   1.39723   1.40601
 Alpha virt. eigenvalues --    1.40756   1.41053   1.41602   1.42059   1.42331
 Alpha virt. eigenvalues --    1.43008   1.43273   1.43782   1.44260   1.44471
 Alpha virt. eigenvalues --    1.45370   1.45427   1.45685   1.46117   1.46170
 Alpha virt. eigenvalues --    1.46714   1.47181   1.47412   1.47475   1.47756
 Alpha virt. eigenvalues --    1.48098   1.48596   1.48808   1.49052   1.49387
 Alpha virt. eigenvalues --    1.49670   1.49724   1.49963   1.50498   1.51028
 Alpha virt. eigenvalues --    1.51069   1.51451   1.51607   1.51945   1.52100
 Alpha virt. eigenvalues --    1.52653   1.53108   1.53421   1.53620   1.53899
 Alpha virt. eigenvalues --    1.54164   1.55161   1.55532   1.55734   1.56026
 Alpha virt. eigenvalues --    1.56195   1.56406   1.56830   1.57002   1.57369
 Alpha virt. eigenvalues --    1.57579   1.57824   1.58069   1.58462   1.58748
 Alpha virt. eigenvalues --    1.58969   1.59177   1.59398   1.59639   1.60138
 Alpha virt. eigenvalues --    1.60386   1.60792   1.60974   1.61092   1.61633
 Alpha virt. eigenvalues --    1.61973   1.62165   1.62536   1.62608   1.62956
 Alpha virt. eigenvalues --    1.63105   1.63710   1.63892   1.64476   1.64640
 Alpha virt. eigenvalues --    1.64876   1.65158   1.65309   1.65610   1.65812
 Alpha virt. eigenvalues --    1.66035   1.66329   1.67059   1.67374   1.67508
 Alpha virt. eigenvalues --    1.67762   1.68386   1.69071   1.69340   1.69426
 Alpha virt. eigenvalues --    1.69679   1.69767   1.70142   1.70866   1.71307
 Alpha virt. eigenvalues --    1.71564   1.71723   1.71859   1.72578   1.72779
 Alpha virt. eigenvalues --    1.72948   1.73441   1.74046   1.74124   1.74353
 Alpha virt. eigenvalues --    1.74784   1.74920   1.75108   1.75706   1.76120
 Alpha virt. eigenvalues --    1.76253   1.76999   1.77218   1.77347   1.77441
 Alpha virt. eigenvalues --    1.77723   1.78403   1.78962   1.79493   1.79968
 Alpha virt. eigenvalues --    1.80279   1.80570   1.80770   1.81106   1.81269
 Alpha virt. eigenvalues --    1.82008   1.82648   1.82764   1.83035   1.83151
 Alpha virt. eigenvalues --    1.83479   1.83972   1.84243   1.84845   1.85095
 Alpha virt. eigenvalues --    1.85174   1.85396   1.85758   1.86047   1.86331
 Alpha virt. eigenvalues --    1.86825   1.87205   1.87708   1.88349   1.88786
 Alpha virt. eigenvalues --    1.89034   1.89204   1.89702   1.90252   1.90527
 Alpha virt. eigenvalues --    1.91396   1.91516   1.91942   1.92242   1.92712
 Alpha virt. eigenvalues --    1.93028   1.93334   1.93895   1.94311   1.94765
 Alpha virt. eigenvalues --    1.95452   1.96009   1.96178   1.96186   1.96327
 Alpha virt. eigenvalues --    1.96773   1.97370   1.97748   1.98440   1.98686
 Alpha virt. eigenvalues --    1.98791   1.99086   1.99609   1.99985   2.00445
 Alpha virt. eigenvalues --    2.00470   2.00824   2.01112   2.01558   2.01955
 Alpha virt. eigenvalues --    2.02433   2.03178   2.03323   2.03839   2.04316
 Alpha virt. eigenvalues --    2.04680   2.04837   2.05624   2.05784   2.06040
 Alpha virt. eigenvalues --    2.06346   2.06755   2.07722   2.07837   2.08626
 Alpha virt. eigenvalues --    2.08962   2.09297   2.09342   2.10096   2.10284
 Alpha virt. eigenvalues --    2.10763   2.11185   2.11684   2.11755   2.12295
 Alpha virt. eigenvalues --    2.12511   2.12889   2.13465   2.13663   2.14336
 Alpha virt. eigenvalues --    2.14637   2.15156   2.15437   2.15743   2.16297
 Alpha virt. eigenvalues --    2.16568   2.16812   2.17252   2.17604   2.17783
 Alpha virt. eigenvalues --    2.18494   2.18579   2.19006   2.19342   2.20109
 Alpha virt. eigenvalues --    2.20387   2.20697   2.21021   2.21274   2.21978
 Alpha virt. eigenvalues --    2.22284   2.22591   2.22873   2.23125   2.23301
 Alpha virt. eigenvalues --    2.23855   2.24306   2.24979   2.25565   2.25912
 Alpha virt. eigenvalues --    2.26423   2.26698   2.27211   2.28041   2.28710
 Alpha virt. eigenvalues --    2.28831   2.29384   2.29790   2.30497   2.31062
 Alpha virt. eigenvalues --    2.31541   2.32121   2.32287   2.33198   2.33434
 Alpha virt. eigenvalues --    2.33897   2.34282   2.34374   2.34602   2.35096
 Alpha virt. eigenvalues --    2.35467   2.35620   2.35987   2.36292   2.36741
 Alpha virt. eigenvalues --    2.36861   2.37523   2.37730   2.38296   2.38745
 Alpha virt. eigenvalues --    2.39205   2.39696   2.39924   2.40065   2.40417
 Alpha virt. eigenvalues --    2.40894   2.41099   2.41543   2.42148   2.42911
 Alpha virt. eigenvalues --    2.43258   2.43400   2.43750   2.44231   2.44642
 Alpha virt. eigenvalues --    2.45230   2.45945   2.46389   2.46532   2.47276
 Alpha virt. eigenvalues --    2.48066   2.48280   2.48548   2.48912   2.49445
 Alpha virt. eigenvalues --    2.50033   2.50739   2.50943   2.51525   2.52130
 Alpha virt. eigenvalues --    2.52305   2.52694   2.53084   2.53284   2.53487
 Alpha virt. eigenvalues --    2.54035   2.54524   2.54770   2.55194   2.55629
 Alpha virt. eigenvalues --    2.55843   2.56009   2.56325   2.57042   2.57469
 Alpha virt. eigenvalues --    2.57603   2.57851   2.58080   2.58470   2.58925
 Alpha virt. eigenvalues --    2.59134   2.59227   2.59391   2.59629   2.60204
 Alpha virt. eigenvalues --    2.60461   2.60613   2.61028   2.61350   2.61926
 Alpha virt. eigenvalues --    2.62399   2.62990   2.63360   2.63564   2.63817
 Alpha virt. eigenvalues --    2.64140   2.64478   2.65109   2.65459   2.65774
 Alpha virt. eigenvalues --    2.65798   2.66351   2.66771   2.67141   2.67416
 Alpha virt. eigenvalues --    2.67765   2.68087   2.68592   2.69030   2.69231
 Alpha virt. eigenvalues --    2.69401   2.69673   2.70211   2.70719   2.71132
 Alpha virt. eigenvalues --    2.71367   2.71721   2.72131   2.72289   2.72850
 Alpha virt. eigenvalues --    2.73220   2.73287   2.73981   2.74712   2.74858
 Alpha virt. eigenvalues --    2.75163   2.75438   2.75938   2.76202   2.76596
 Alpha virt. eigenvalues --    2.76966   2.77275   2.77777   2.78018   2.78408
 Alpha virt. eigenvalues --    2.78815   2.79177   2.79928   2.80387   2.80438
 Alpha virt. eigenvalues --    2.80830   2.81241   2.81472   2.81950   2.82377
 Alpha virt. eigenvalues --    2.82434   2.82737   2.83430   2.83623   2.83743
 Alpha virt. eigenvalues --    2.83834   2.84217   2.84961   2.85425   2.85629
 Alpha virt. eigenvalues --    2.85977   2.86194   2.86640   2.87167   2.87455
 Alpha virt. eigenvalues --    2.87906   2.88121   2.88649   2.88848   2.89039
 Alpha virt. eigenvalues --    2.89219   2.89544   2.90258   2.90885   2.90960
 Alpha virt. eigenvalues --    2.91670   2.92022   2.92696   2.92953   2.93181
 Alpha virt. eigenvalues --    2.93491   2.93706   2.94159   2.94481   2.94964
 Alpha virt. eigenvalues --    2.95294   2.95357   2.95678   2.95778   2.96290
 Alpha virt. eigenvalues --    2.96464   2.96880   2.97286   2.97528   2.97720
 Alpha virt. eigenvalues --    2.98039   2.98216   2.98714   2.99233   2.99532
 Alpha virt. eigenvalues --    2.99602   2.99694   2.99994   3.00195   3.00820
 Alpha virt. eigenvalues --    3.01042   3.01338   3.01609   3.01997   3.02294
 Alpha virt. eigenvalues --    3.02848   3.02950   3.03018   3.03573   3.03620
 Alpha virt. eigenvalues --    3.03912   3.03977   3.04580   3.05130   3.05278
 Alpha virt. eigenvalues --    3.05443   3.05882   3.06504   3.06669   3.06824
 Alpha virt. eigenvalues --    3.06963   3.07200   3.07546   3.07982   3.08577
 Alpha virt. eigenvalues --    3.08819   3.09486   3.09938   3.10048   3.10339
 Alpha virt. eigenvalues --    3.10571   3.10721   3.11253   3.11352   3.11540
 Alpha virt. eigenvalues --    3.12165   3.12421   3.12506   3.12702   3.13325
 Alpha virt. eigenvalues --    3.13637   3.13853   3.14175   3.14422   3.14513
 Alpha virt. eigenvalues --    3.14796   3.15134   3.15730   3.15946   3.16281
 Alpha virt. eigenvalues --    3.16714   3.16876   3.16992   3.17415   3.17571
 Alpha virt. eigenvalues --    3.17902   3.18174   3.18345   3.18790   3.19013
 Alpha virt. eigenvalues --    3.19227   3.20228   3.20433   3.20796   3.21275
 Alpha virt. eigenvalues --    3.21799   3.22120   3.22236   3.22390   3.22579
 Alpha virt. eigenvalues --    3.22983   3.23314   3.23999   3.24344   3.24766
 Alpha virt. eigenvalues --    3.24989   3.25087   3.25439   3.25733   3.26225
 Alpha virt. eigenvalues --    3.26325   3.26832   3.27110   3.27288   3.27701
 Alpha virt. eigenvalues --    3.28063   3.28130   3.28355   3.28499   3.28771
 Alpha virt. eigenvalues --    3.28809   3.29317   3.29461   3.29760   3.30220
 Alpha virt. eigenvalues --    3.30486   3.31074   3.31317   3.31527   3.31775
 Alpha virt. eigenvalues --    3.31986   3.32306   3.32653   3.32828   3.33115
 Alpha virt. eigenvalues --    3.33318   3.33589   3.33989   3.34467   3.34572
 Alpha virt. eigenvalues --    3.34720   3.35087   3.35383   3.35491   3.35562
 Alpha virt. eigenvalues --    3.35903   3.36128   3.36235   3.36525   3.36829
 Alpha virt. eigenvalues --    3.37019   3.37275   3.37560   3.37856   3.38082
 Alpha virt. eigenvalues --    3.38451   3.38563   3.38869   3.39199   3.39348
 Alpha virt. eigenvalues --    3.39811   3.39984   3.40624   3.40866   3.41290
 Alpha virt. eigenvalues --    3.41564   3.41768   3.42392   3.42668   3.42842
 Alpha virt. eigenvalues --    3.43239   3.43572   3.43677   3.43829   3.44414
 Alpha virt. eigenvalues --    3.44589   3.44955   3.45256   3.45968   3.46317
 Alpha virt. eigenvalues --    3.46730   3.46963   3.47310   3.47575   3.47880
 Alpha virt. eigenvalues --    3.48279   3.48536   3.49018   3.49244   3.49944
 Alpha virt. eigenvalues --    3.50263   3.50359   3.50627   3.50971   3.51303
 Alpha virt. eigenvalues --    3.51556   3.52082   3.52236   3.52439   3.52919
 Alpha virt. eigenvalues --    3.53552   3.53616   3.53778   3.54726   3.54900
 Alpha virt. eigenvalues --    3.55168   3.55483   3.55897   3.56839   3.57108
 Alpha virt. eigenvalues --    3.57386   3.57587   3.57696   3.58106   3.58346
 Alpha virt. eigenvalues --    3.58615   3.59230   3.59827   3.60214   3.60442
 Alpha virt. eigenvalues --    3.60824   3.61295   3.61654   3.61835   3.62048
 Alpha virt. eigenvalues --    3.62248   3.62833   3.63826   3.64281   3.64416
 Alpha virt. eigenvalues --    3.65010   3.65223   3.65592   3.65990   3.66596
 Alpha virt. eigenvalues --    3.66743   3.67069   3.67432   3.67633   3.67851
 Alpha virt. eigenvalues --    3.68197   3.69057   3.69396   3.69478   3.69668
 Alpha virt. eigenvalues --    3.70080   3.70397   3.70788   3.71575   3.71992
 Alpha virt. eigenvalues --    3.72746   3.72935   3.73222   3.73736   3.74036
 Alpha virt. eigenvalues --    3.74351   3.74637   3.74757   3.75061   3.75497
 Alpha virt. eigenvalues --    3.75764   3.76373   3.76758   3.77502   3.77866
 Alpha virt. eigenvalues --    3.77968   3.78245   3.78704   3.78841   3.79441
 Alpha virt. eigenvalues --    3.80032   3.80573   3.81241   3.81590   3.82006
 Alpha virt. eigenvalues --    3.82912   3.83425   3.83729   3.84162   3.84315
 Alpha virt. eigenvalues --    3.84975   3.85096   3.86365   3.86515   3.87405
 Alpha virt. eigenvalues --    3.87588   3.88028   3.88287   3.88981   3.89229
 Alpha virt. eigenvalues --    3.90190   3.90680   3.91570   3.92065   3.93178
 Alpha virt. eigenvalues --    3.93643   3.93804   3.94362   3.94956   3.95839
 Alpha virt. eigenvalues --    3.96562   3.96695   3.97513   3.97987   3.98641
 Alpha virt. eigenvalues --    3.98927   3.99021   3.99556   3.99715   4.00501
 Alpha virt. eigenvalues --    4.00653   4.01781   4.02407   4.02650   4.02935
 Alpha virt. eigenvalues --    4.03417   4.04186   4.05180   4.05641   4.06256
 Alpha virt. eigenvalues --    4.06650   4.06914   4.07768   4.08293   4.08824
 Alpha virt. eigenvalues --    4.09623   4.09795   4.10350   4.10812   4.11155
 Alpha virt. eigenvalues --    4.11913   4.13206   4.13501   4.13666   4.14631
 Alpha virt. eigenvalues --    4.15049   4.15453   4.16083   4.16401   4.16922
 Alpha virt. eigenvalues --    4.17642   4.18091   4.18558   4.18825   4.19186
 Alpha virt. eigenvalues --    4.19715   4.20100   4.20638   4.21541   4.21876
 Alpha virt. eigenvalues --    4.22141   4.22736   4.23377   4.23991   4.24042
 Alpha virt. eigenvalues --    4.24206   4.24716   4.24952   4.25707   4.26632
 Alpha virt. eigenvalues --    4.26808   4.27650   4.27962   4.28266   4.28916
 Alpha virt. eigenvalues --    4.29302   4.30423   4.30865   4.31219   4.32533
 Alpha virt. eigenvalues --    4.32585   4.32680   4.33196   4.33587   4.33887
 Alpha virt. eigenvalues --    4.34199   4.34966   4.35382   4.35584   4.36579
 Alpha virt. eigenvalues --    4.36781   4.37344   4.38309   4.38519   4.39388
 Alpha virt. eigenvalues --    4.40041   4.40588   4.41388   4.42199   4.43318
 Alpha virt. eigenvalues --    4.43769   4.44577   4.44709   4.45141   4.46865
 Alpha virt. eigenvalues --    4.47125   4.47775   4.47930   4.48480   4.49158
 Alpha virt. eigenvalues --    4.50151   4.51116   4.52193   4.52477   4.52842
 Alpha virt. eigenvalues --    4.53403   4.53719   4.55178   4.55645   4.56348
 Alpha virt. eigenvalues --    4.57006   4.57231   4.57686   4.58964   4.59196
 Alpha virt. eigenvalues --    4.60671   4.60938   4.61119   4.61844   4.62672
 Alpha virt. eigenvalues --    4.62974   4.63553   4.65640   4.66000   4.66663
 Alpha virt. eigenvalues --    4.67409   4.68309   4.68709   4.69528   4.70261
 Alpha virt. eigenvalues --    4.71713   4.72065   4.73393   4.73958   4.74827
 Alpha virt. eigenvalues --    4.75063   4.75962   4.76288   4.77674   4.78712
 Alpha virt. eigenvalues --    4.79296   4.79530   4.79700   4.80182   4.80739
 Alpha virt. eigenvalues --    4.81544   4.82074   4.82397   4.82703   4.83194
 Alpha virt. eigenvalues --    4.84189   4.84577   4.85422   4.86250   4.87508
 Alpha virt. eigenvalues --    4.89235   4.89467   4.90819   4.91516   4.91905
 Alpha virt. eigenvalues --    4.92146   4.92943   4.94094   4.95613   4.96019
 Alpha virt. eigenvalues --    4.96946   4.98330   4.98519   4.99109   5.00435
 Alpha virt. eigenvalues --    5.00668   5.01207   5.01584   5.02141   5.03702
 Alpha virt. eigenvalues --    5.05653   5.06583   5.07190   5.07790   5.08379
 Alpha virt. eigenvalues --    5.09986   5.10443   5.11667   5.12009   5.12130
 Alpha virt. eigenvalues --    5.13214   5.14077   5.14229   5.15076   5.16370
 Alpha virt. eigenvalues --    5.17492   5.17663   5.17968   5.18519   5.19792
 Alpha virt. eigenvalues --    5.20091   5.21155   5.21281   5.22204   5.22361
 Alpha virt. eigenvalues --    5.22998   5.23256   5.23930   5.24908   5.25781
 Alpha virt. eigenvalues --    5.26129   5.26858   5.28051   5.28503   5.29065
 Alpha virt. eigenvalues --    5.29760   5.30970   5.31396   5.33024   5.34079
 Alpha virt. eigenvalues --    5.34775   5.36357   5.38642   5.40237   5.40595
 Alpha virt. eigenvalues --    5.41664   5.42138   5.42931   5.43382   5.44424
 Alpha virt. eigenvalues --    5.44479   5.46257   5.46522   5.47325   5.47776
 Alpha virt. eigenvalues --    5.48921   5.49013   5.51460   5.51679   5.53384
 Alpha virt. eigenvalues --    5.53725   5.54988   5.56698   5.57873   5.58427
 Alpha virt. eigenvalues --    5.58746   5.59610   5.60431   5.61185   5.61526
 Alpha virt. eigenvalues --    5.62895   5.63994   5.64504   5.65548   5.66389
 Alpha virt. eigenvalues --    5.68481   5.68658   5.70302   5.70605   5.70886
 Alpha virt. eigenvalues --    5.72428   5.74434   5.75430   5.76518   5.79093
 Alpha virt. eigenvalues --    5.81199   5.81986   5.83735   5.85221   5.85665
 Alpha virt. eigenvalues --    5.86660   5.87699   5.91089   5.91655   5.94568
 Alpha virt. eigenvalues --    5.95451   5.98643   5.99964   6.03818   6.05172
 Alpha virt. eigenvalues --    6.06599   6.11123   6.11664   6.12782   6.15361
 Alpha virt. eigenvalues --    6.17202   6.17866   6.18512   6.21338   6.24746
 Alpha virt. eigenvalues --    6.26014   6.26919   6.27345   6.29313   6.33956
 Alpha virt. eigenvalues --    6.35515   6.38748   6.40717   6.41532   6.43803
 Alpha virt. eigenvalues --    6.44738   6.45104   6.46201   6.48465   6.52533
 Alpha virt. eigenvalues --    6.52653   6.53698   6.54427   6.55060   6.65615
 Alpha virt. eigenvalues --    6.66259   6.68299   6.74814   6.78867   6.82660
 Alpha virt. eigenvalues --    6.85651   6.87280   6.98222   6.98961   7.04693
 Alpha virt. eigenvalues --    7.08417   7.09950   7.13310   7.16524   7.17876
 Alpha virt. eigenvalues --    7.20706   7.21754   7.29217   7.32833  22.35540
 Alpha virt. eigenvalues --   22.36168  22.42621  22.51722  22.53289  22.54023
 Alpha virt. eigenvalues --   22.61269  22.65800  22.70019  22.70726  22.72094
 Alpha virt. eigenvalues --   22.80511  22.83928  22.97330  22.98963  23.02159
 Alpha virt. eigenvalues --   23.03101  23.08873  23.09614  23.11986  23.13164
 Alpha virt. eigenvalues --   23.19940  23.20841  23.34584  23.40771  23.45956
 Alpha virt. eigenvalues --   23.47470  23.49431  23.57300  23.60096  23.61139
 Alpha virt. eigenvalues --   23.69773  23.75234  23.84287  23.96730  23.99652
 Alpha virt. eigenvalues --   24.09501  32.47654  32.75187  33.02458  33.06163
 Alpha virt. eigenvalues --   33.08994  33.19639  43.94556  43.97697  43.99260
 Alpha virt. eigenvalues --   44.00296  44.22865
          Condensed to atoms (all electrons):
 Mulliken charges:
               1
     1  C   -0.429543
     2  C   -0.499034
     3  C   -0.524286
     4  C   -0.528116
     5  C    0.256783
     6  C    0.057105
     7  C   -0.089913
     8  C    0.337861
     9  C   -0.407659
    10  C   -0.453153
    11  C   -0.062824
    12  C    0.226667
    13  O   -0.335149
    14  O   -0.337397
    15  C    0.277720
    16  C   -0.100104
    17  C    0.007942
    18  C    0.350373
    19  C   -0.394988
    20  C   -0.150662
    21  C   -0.301814
    22  C    0.266469
    23  C   -0.311653
    24  C    0.056496
    25  C    0.260345
    26  C   -0.589823
    27  C   -0.127028
    28  C   -0.311672
    29  C    0.301724
    30  C   -0.124435
    31  C    0.076897
    32  C    0.222252
    33  C   -0.401899
    34  C   -0.345036
    35  C   -0.151479
    36  C    0.229884
    37  O   -0.308391
    38  O   -0.341156
    39  N   -0.072593
    40  N   -0.090417
    41  N   -0.034260
    42  N   -0.182844
    43  Fe  -0.161323
    44  N   -0.160241
    45  C    0.026521
    46  N    0.012803
    47  C   -0.116884
    48  C   -0.085509
    49  H    0.223798
    50  O   -0.483083
    51  H    0.087326
    52  H    0.073838
    53  H    0.157991
    54  H    0.066197
    55  H    0.131717
    56  H    0.144877
    57  H    0.129429
    58  H    0.126158
    59  H    0.121694
    60  H    0.095635
    61  H    0.123736
    62  H    0.154093
    63  H    0.131727
    64  H    0.116206
    65  H    0.095486
    66  H    0.122126
    67  H    0.132969
    68  H    0.252416
    69  H    0.233775
    70  H    0.245853
    71  H    0.106546
    72  H    0.097968
    73  H    0.131310
    74  H    0.128798
    75  H    0.144830
    76  H    0.130265
    77  H    0.098408
    78  H    0.122452
    79  H    0.127489
    80  H    0.108583
    81  H    0.181441
    82  H    0.153473
    83  H    0.153180
    84  H    0.334796
    85  H    0.353043
    86  H    0.354057
    87  H    0.352842
 Sum of Mulliken charges =  -0.00000
 Mulliken charges with hydrogens summed into heavy atoms:
               1
     1  C   -0.342217
     2  C   -0.425196
     3  C   -0.366296
     4  C   -0.461919
     5  C    0.256783
     6  C    0.057105
     7  C   -0.089913
     8  C    0.337861
     9  C   -0.001637
    10  C   -0.205302
    11  C    0.156547
    12  C    0.226667
    13  O    0.018908
    14  O   -0.337397
    15  C    0.277720
    16  C   -0.100104
    17  C    0.007942
    18  C    0.350373
    19  C    0.007037
    20  C   -0.055176
    21  C   -0.046718
    22  C    0.266469
    23  C   -0.311653
    24  C    0.056496
    25  C    0.260345
    26  C    0.142222
    27  C   -0.020482
    28  C   -0.082394
    29  C    0.301724
    30  C   -0.124435
    31  C    0.076897
    32  C    0.222252
    33  C    0.001994
    34  C   -0.124176
    35  C    0.084593
    36  C    0.229884
    37  O   -0.308391
    38  O    0.011687
    39  N   -0.072593
    40  N   -0.090417
    41  N   -0.034260
    42  N   -0.182844
    43  Fe  -0.161323
    44  N    0.063556
    45  C    0.207962
    46  N    0.012803
    47  C    0.036589
    48  C    0.067670
    50  O    0.204756
 Electronic spatial extent (au):  <R**2>=          31312.2532
 Charge=              0.0000 electrons
 Dipole moment (field-independent basis, Debye):
    X=              2.1279    Y=              0.2208    Z=              5.8424  Tot=              6.2218
 Quadrupole moment (field-independent basis, Debye-Ang):
   XX=           -323.1472   YY=           -240.8927   ZZ=           -274.4124
   XY=              8.4614   XZ=              8.6584   YZ=              6.0973
 Traceless Quadrupole moment (field-independent basis, Debye-Ang):
   XX=            -43.6631   YY=             38.5914   ZZ=              5.0717
   XY=              8.4614   XZ=              8.6584   YZ=              6.0973
 Octapole moment (field-independent basis, Debye-Ang**2):
  XXX=             85.3806  YYY=             -0.4331  ZZZ=             99.8263  XYY=           -235.9393
  XXY=             -3.9786  XXZ=            194.7164  XZZ=             27.2753  YZZ=            -22.0232
  YYZ=              2.5535  XYZ=            -80.7710
 Hexadecapole moment (field-independent basis, Debye-Ang**3):
 XXXX=         -26848.8532 YYYY=         -13221.4589 ZZZZ=          -2214.5052 XXXY=            938.4589
 XXXZ=           -264.2244 YYYX=            -80.6270 YYYZ=            179.3254 ZZZX=            464.5647
 ZZZY=             42.3766 XXYY=          -4669.8612 XXZZ=          -4757.9536 YYZZ=          -2878.1639
 XXYZ=            527.5137 YYXZ=             68.1923 ZZXY=             21.0898
 N-N= 7.371414618856D+03 E-N=-2.273525640622D+04  KE= 3.390244665542D+03
 ******************************Gaussian NBO Version 3.1******************************
             N A T U R A L   A T O M I C   O R B I T A L   A N D
          N A T U R A L   B O N D   O R B I T A L   A N A L Y S I S
 ******************************Gaussian NBO Version 3.1******************************
       /RESON  / : Allow strongly delocalized NBO set

 Analyzing the SCF density

 Job title: 1ccg_II_S_nbo                                                   

 Storage needed:   9327918 in NPA,  12417381 in NBO (2147444585 available)
 GSVD:  LWork=     1389879 too small for GESVD, short by     2024298 words or     2024298 for optimal perf.


 NATURAL POPULATIONS:  Natural atomic orbital occupancies 
                                                          
   NAO  Atom  No  lang   Type(AO)    Occupancy      Energy
 ----------------------------------------------------------
     1    C    1  S      Cor( 1S)     1.99909     -10.05639
     2    C    1  S      Val( 2S)     0.94730      -0.18723
     3    C    1  S      Ryd( 3S)     0.00088       1.83340
     4    C    1  S      Ryd( 4S)     0.00068       3.48339
     5    C    1  S      Ryd( 5S)     0.00002      17.05567
     6    C    1  px     Val( 2p)     1.15586      -0.04489
     7    C    1  px     Ryd( 3p)     0.00266       1.06364
     8    C    1  px     Ryd( 4p)     0.00041       2.06978
     9    C    1  py     Val( 2p)     1.03894      -0.02408
    10    C    1  py     Ryd( 3p)     0.00159       1.12460
    11    C    1  py     Ryd( 4p)     0.00035       2.10652
    12    C    1  pz     Val( 2p)     1.05371      -0.10933
    13    C    1  pz     Ryd( 3p)     0.00373       0.57852
    14    C    1  pz     Ryd( 4p)     0.00025       1.52885
    15    C    1  dxy    Ryd( 3d)     0.00149       2.36470
    16    C    1  dxy    Ryd( 4d)     0.00022       3.85636
    17    C    1  dxz    Ryd( 3d)     0.00042       1.49328
    18    C    1  dxz    Ryd( 4d)     0.00011       2.89198
    19    C    1  dyz    Ryd( 3d)     0.00062       1.66565
    20    C    1  dyz    Ryd( 4d)     0.00010       3.14674
    21    C    1  dx2y2  Ryd( 3d)     0.00083       2.76650
    22    C    1  dx2y2  Ryd( 4d)     0.00033       4.12545
    23    C    1  dz2    Ryd( 3d)     0.00111       1.95129
    24    C    1  dz2    Ryd( 4d)     0.00005       3.52411
    25    C    1  f(0)   Ryd( 4f)     0.00021       3.48341
    26    C    1  f(C1)  Ryd( 4f)     0.00008       3.67837
    27    C    1  f(S1)  Ryd( 4f)     0.00008       4.17036
    28    C    1  f(C2)  Ryd( 4f)     0.00002       3.57654
    29    C    1  f(S2)  Ryd( 4f)     0.00002       3.59233
    30    C    1  f(C3)  Ryd( 4f)     0.00014       4.48394
    31    C    1  f(S3)  Ryd( 4f)     0.00002       4.33506

    32    C    2  S      Cor( 1S)     1.99908     -10.05570
    33    C    2  S      Val( 2S)     0.95241      -0.18893
    34    C    2  S      Ryd( 3S)     0.00086       1.57099
    35    C    2  S      Ryd( 4S)     0.00053       2.99079
    36    C    2  S      Ryd( 5S)     0.00002      17.92390
    37    C    2  px     Val( 2p)     1.03699      -0.02624
    38    C    2  px     Ryd( 3p)     0.00156       1.09649
    39    C    2  px     Ryd( 4p)     0.00033       1.98513
    40    C    2  py     Val( 2p)     1.15858      -0.04103
    41    C    2  py     Ryd( 3p)     0.00264       1.08370
    42    C    2  py     Ryd( 4p)     0.00035       2.03498
    43    C    2  pz     Val( 2p)     1.03239      -0.10741
    44    C    2  pz     Ryd( 3p)     0.00351       0.58786
    45    C    2  pz     Ryd( 4p)     0.00019       1.43651
    46    C    2  dxy    Ryd( 3d)     0.00168       2.32093
    47    C    2  dxy    Ryd( 4d)     0.00023       3.79670
    48    C    2  dxz    Ryd( 3d)     0.00067       1.66851
    49    C    2  dxz    Ryd( 4d)     0.00007       3.10138
    50    C    2  dyz    Ryd( 3d)     0.00032       1.48503
    51    C    2  dyz    Ryd( 4d)     0.00010       2.83168
    52    C    2  dx2y2  Ryd( 3d)     0.00077       2.62961
    53    C    2  dx2y2  Ryd( 4d)     0.00032       4.10532
    54    C    2  dz2    Ryd( 3d)     0.00110       1.94763
    55    C    2  dz2    Ryd( 4d)     0.00004       3.50064
    56    C    2  f(0)   Ryd( 4f)     0.00021       3.46892
    57    C    2  f(C1)  Ryd( 4f)     0.00009       4.10079
    58    C    2  f(S1)  Ryd( 4f)     0.00008       3.75472
    59    C    2  f(C2)  Ryd( 4f)     0.00001       3.53466
    60    C    2  f(S2)  Ryd( 4f)     0.00003       3.56597
    61    C    2  f(C3)  Ryd( 4f)     0.00002       4.29442
    62    C    2  f(S3)  Ryd( 4f)     0.00015       4.47231

    63    C    3  S      Cor( 1S)     1.99908     -10.05299
    64    C    3  S      Val( 2S)     0.95604      -0.18802
    65    C    3  S      Ryd( 3S)     0.00083       1.51817
    66    C    3  S      Ryd( 4S)     0.00053       2.65015
    67    C    3  S      Ryd( 5S)     0.00002      18.59389
    68    C    3  px     Val( 2p)     1.17274      -0.04179
    69    C    3  px     Ryd( 3p)     0.00289       1.10170
    70    C    3  px     Ryd( 4p)     0.00028       2.01692
    71    C    3  py     Val( 2p)     1.03357      -0.02070
    72    C    3  py     Ryd( 3p)     0.00197       1.12065
    73    C    3  py     Ryd( 4p)     0.00042       1.96181
    74    C    3  pz     Val( 2p)     1.00476      -0.10030
    75    C    3  pz     Ryd( 3p)     0.00302       0.61753
    76    C    3  pz     Ryd( 4p)     0.00017       1.44010
    77    C    3  dxy    Ryd( 3d)     0.00166       2.32448
    78    C    3  dxy    Ryd( 4d)     0.00020       3.78332
    79    C    3  dxz    Ryd( 3d)     0.00032       1.52141
    80    C    3  dxz    Ryd( 4d)     0.00008       2.85606
    81    C    3  dyz    Ryd( 3d)     0.00068       1.70588
    82    C    3  dyz    Ryd( 4d)     0.00009       3.12940
    83    C    3  dx2y2  Ryd( 3d)     0.00087       2.64906
    84    C    3  dx2y2  Ryd( 4d)     0.00031       4.10610
    85    C    3  dz2    Ryd( 3d)     0.00114       1.94645
    86    C    3  dz2    Ryd( 4d)     0.00005       3.48733
    87    C    3  f(0)   Ryd( 4f)     0.00020       3.49793
    88    C    3  f(C1)  Ryd( 4f)     0.00009       3.69398
    89    C    3  f(S1)  Ryd( 4f)     0.00009       4.09406
    90    C    3  f(C2)  Ryd( 4f)     0.00002       3.58739
    91    C    3  f(S2)  Ryd( 4f)     0.00002       3.59041
    92    C    3  f(C3)  Ryd( 4f)     0.00015       4.48882
    93    C    3  f(S3)  Ryd( 4f)     0.00002       4.27868

    94    C    4  S      Cor( 1S)     1.99907     -10.05514
    95    C    4  S      Val( 2S)     0.94841      -0.18842
    96    C    4  S      Ryd( 3S)     0.00086       1.55312
    97    C    4  S      Ryd( 4S)     0.00048       3.52920
    98    C    4  S      Ryd( 5S)     0.00003      17.57761
    99    C    4  px     Val( 2p)     1.03720      -0.03096
   100    C    4  px     Ryd( 3p)     0.00171       1.10582
   101    C    4  px     Ryd( 4p)     0.00032       1.97724
   102    C    4  py     Val( 2p)     1.16036      -0.04335
   103    C    4  py     Ryd( 3p)     0.00257       1.11888
   104    C    4  py     Ryd( 4p)     0.00030       2.08614
   105    C    4  pz     Val( 2p)     1.04367      -0.10753
   106    C    4  pz     Ryd( 3p)     0.00320       0.64190
   107    C    4  pz     Ryd( 4p)     0.00019       1.48911
   108    C    4  dxy    Ryd( 3d)     0.00156       2.33238
   109    C    4  dxy    Ryd( 4d)     0.00021       3.76612
   110    C    4  dxz    Ryd( 3d)     0.00073       1.77351
   111    C    4  dxz    Ryd( 4d)     0.00010       3.22677
   112    C    4  dyz    Ryd( 3d)     0.00040       1.51385
   113    C    4  dyz    Ryd( 4d)     0.00010       2.87270
   114    C    4  dx2y2  Ryd( 3d)     0.00081       2.61448
   115    C    4  dx2y2  Ryd( 4d)     0.00030       4.08507
   116    C    4  dz2    Ryd( 3d)     0.00110       1.92159
   117    C    4  dz2    Ryd( 4d)     0.00004       3.44475
   118    C    4  f(0)   Ryd( 4f)     0.00018       3.56580
   119    C    4  f(C1)  Ryd( 4f)     0.00012       3.99832
   120    C    4  f(S1)  Ryd( 4f)     0.00007       3.76641
   121    C    4  f(C2)  Ryd( 4f)     0.00002       3.65992
   122    C    4  f(S2)  Ryd( 4f)     0.00004       3.64165
   123    C    4  f(C3)  Ryd( 4f)     0.00002       4.23943
   124    C    4  f(S3)  Ryd( 4f)     0.00014       4.44219

   125    C    5  S      Cor( 1S)     1.99893     -10.06683
   126    C    5  S      Val( 2S)     0.84402      -0.11561
   127    C    5  S      Ryd( 3S)     0.00178       1.57797
   128    C    5  S      Ryd( 4S)     0.00044       2.05542
   129    C    5  S      Ryd( 5S)     0.00001      21.37632
   130    C    5  px     Val( 2p)     0.94246      -0.01250
   131    C    5  px     Ryd( 3p)     0.00471       1.37676
   132    C    5  px     Ryd( 4p)     0.00061       1.71754
   133    C    5  py     Val( 2p)     1.08582      -0.04703
   134    C    5  py     Ryd( 3p)     0.00327       1.30064
   135    C    5  py     Ryd( 4p)     0.00055       2.00194
   136    C    5  pz     Val( 2p)     0.98662      -0.09113
   137    C    5  pz     Ryd( 3p)     0.00235       0.70727
   138    C    5  pz     Ryd( 4p)     0.00026       1.42014
   139    C    5  dxy    Ryd( 3d)     0.00117       3.07759
   140    C    5  dxy    Ryd( 4d)     0.00058       4.03563
   141    C    5  dxz    Ryd( 3d)     0.00128       1.90144
   142    C    5  dxz    Ryd( 4d)     0.00011       3.04707
   143    C    5  dyz    Ryd( 3d)     0.00094       1.79838
   144    C    5  dyz    Ryd( 4d)     0.00007       3.06253
   145    C    5  dx2y2  Ryd( 3d)     0.00061       3.12668
   146    C    5  dx2y2  Ryd( 4d)     0.00089       4.25105
   147    C    5  dz2    Ryd( 3d)     0.00086       2.49677
   148    C    5  dz2    Ryd( 4d)     0.00010       3.71971
   149    C    5  f(0)   Ryd( 4f)     0.00022       3.62651
   150    C    5  f(C1)  Ryd( 4f)     0.00008       4.03636
   151    C    5  f(S1)  Ryd( 4f)     0.00010       4.06775
   152    C    5  f(C2)  Ryd( 4f)     0.00004       3.75126
   153    C    5  f(S2)  Ryd( 4f)     0.00002       3.66250
   154    C    5  f(C3)  Ryd( 4f)     0.00015       4.47347
   155    C    5  f(S3)  Ryd( 4f)     0.00004       4.65920

   156    C    6  S      Cor( 1S)     1.99887     -10.05681
   157    C    6  S      Val( 2S)     0.91538      -0.17140
   158    C    6  S      Ryd( 3S)     0.00080       1.35036
   159    C    6  S      Ryd( 4S)     0.00047       1.85973
   160    C    6  S      Ryd( 5S)     0.00000      20.77506
   161    C    6  px     Val( 2p)     1.02221      -0.02775
   162    C    6  px     Ryd( 3p)     0.00301       1.43017
   163    C    6  px     Ryd( 4p)     0.00051       1.98617
   164    C    6  py     Val( 2p)     1.03228      -0.03785
   165    C    6  py     Ryd( 3p)     0.00385       1.09446
   166    C    6  py     Ryd( 4p)     0.00064       1.86228
   167    C    6  pz     Val( 2p)     1.03861      -0.09423
   168    C    6  pz     Ryd( 3p)     0.00288       0.73443
   169    C    6  pz     Ryd( 4p)     0.00015       1.48339
   170    C    6  dxy    Ryd( 3d)     0.00095       2.66320
   171    C    6  dxy    Ryd( 4d)     0.00046       3.93685
   172    C    6  dxz    Ryd( 3d)     0.00101       1.55283
   173    C    6  dxz    Ryd( 4d)     0.00024       3.31895
   174    C    6  dyz    Ryd( 3d)     0.00059       1.43146
   175    C    6  dyz    Ryd( 4d)     0.00016       3.19364
   176    C    6  dx2y2  Ryd( 3d)     0.00074       2.87301
   177    C    6  dx2y2  Ryd( 4d)     0.00052       3.98348
   178    C    6  dz2    Ryd( 3d)     0.00114       2.35234
   179    C    6  dz2    Ryd( 4d)     0.00003       3.76155
   180    C    6  f(0)   Ryd( 4f)     0.00018       3.57924
   181    C    6  f(C1)  Ryd( 4f)     0.00012       3.92911
   182    C    6  f(S1)  Ryd( 4f)     0.00004       3.91937
   183    C    6  f(C2)  Ryd( 4f)     0.00001       3.59733
   184    C    6  f(S2)  Ryd( 4f)     0.00003       3.65823
   185    C    6  f(C3)  Ryd( 4f)     0.00015       4.54205
   186    C    6  f(S3)  Ryd( 4f)     0.00003       4.40722

   187    C    7  S      Cor( 1S)     1.99888     -10.06403
   188    C    7  S      Val( 2S)     0.91861      -0.17823
   189    C    7  S      Ryd( 4S)     0.00074       1.95096
   190    C    7  S      Ryd( 3S)     0.00001       1.81025
   191    C    7  S      Ryd( 5S)     0.00000      21.00182
   192    C    7  px     Val( 2p)     1.03337      -0.03693
   193    C    7  px     Ryd( 3p)     0.00303       1.15872
   194    C    7  px     Ryd( 4p)     0.00034       1.72623
   195    C    7  py     Val( 2p)     1.02696      -0.03450
   196    C    7  py     Ryd( 3p)     0.00269       1.43712
   197    C    7  py     Ryd( 4p)     0.00054       1.79471
   198    C    7  pz     Val( 2p)     1.02510      -0.09363
   199    C    7  pz     Ryd( 3p)     0.00222       0.78958
   200    C    7  pz     Ryd( 4p)     0.00029       1.30852
   201    C    7  dxy    Ryd( 3d)     0.00096       2.09751
   202    C    7  dxy    Ryd( 4d)     0.00066       3.84799
   203    C    7  dxz    Ryd( 3d)     0.00063       1.30422
   204    C    7  dxz    Ryd( 4d)     0.00012       3.23551
   205    C    7  dyz    Ryd( 3d)     0.00059       1.27294
   206    C    7  dyz    Ryd( 4d)     0.00053       3.19735
   207    C    7  dx2y2  Ryd( 3d)     0.00072       2.42844
   208    C    7  dx2y2  Ryd( 4d)     0.00051       4.01438
   209    C    7  dz2    Ryd( 3d)     0.00115       1.84037
   210    C    7  dz2    Ryd( 4d)     0.00004       3.73335
   211    C    7  f(0)   Ryd( 4f)     0.00021       3.54296
   212    C    7  f(C1)  Ryd( 4f)     0.00006       3.89188
   213    C    7  f(S1)  Ryd( 4f)     0.00013       3.90768
   214    C    7  f(C2)  Ryd( 4f)     0.00002       3.52968
   215    C    7  f(S2)  Ryd( 4f)     0.00002       3.64085
   216    C    7  f(C3)  Ryd( 4f)     0.00005       4.39042
   217    C    7  f(S3)  Ryd( 4f)     0.00016       4.42068

   218    C    8  S      Cor( 1S)     1.99895     -10.06986
   219    C    8  S      Val( 2S)     0.84632      -0.11715
   220    C    8  S      Ryd( 3S)     0.00199       1.54094
   221    C    8  S      Ryd( 4S)     0.00057       1.93687
   222    C    8  S      Ryd( 5S)     0.00001      21.61980
   223    C    8  px     Val( 2p)     1.08251      -0.04550
   224    C    8  px     Ryd( 3p)     0.00313       1.30375
   225    C    8  px     Ryd( 4p)     0.00048       1.92606
   226    C    8  py     Val( 2p)     0.93771      -0.01189
   227    C    8  py     Ryd( 3p)     0.00525       1.37370
   228    C    8  py     Ryd( 4p)     0.00069       1.68388
   229    C    8  pz     Val( 2p)     0.98827      -0.09024
   230    C    8  pz     Ryd( 3p)     0.00212       0.73095
   231    C    8  pz     Ryd( 4p)     0.00031       1.42293
   232    C    8  dxy    Ryd( 3d)     0.00107       3.11926
   233    C    8  dxy    Ryd( 4d)     0.00062       3.98389
   234    C    8  dxz    Ryd( 3d)     0.00112       1.81861
   235    C    8  dxz    Ryd( 4d)     0.00009       3.04737
   236    C    8  dyz    Ryd( 3d)     0.00119       1.90296
   237    C    8  dyz    Ryd( 4d)     0.00013       2.98747
   238    C    8  dx2y2  Ryd( 3d)     0.00069       3.15038
   239    C    8  dx2y2  Ryd( 4d)     0.00090       4.19726
   240    C    8  dz2    Ryd( 3d)     0.00076       2.50938
   241    C    8  dz2    Ryd( 4d)     0.00011       3.70067
   242    C    8  f(0)   Ryd( 4f)     0.00022       3.63807
   243    C    8  f(C1)  Ryd( 4f)     0.00010       4.02366
   244    C    8  f(S1)  Ryd( 4f)     0.00007       4.02649
   245    C    8  f(C2)  Ryd( 4f)     0.00007       3.77393
   246    C    8  f(S2)  Ryd( 4f)     0.00002       3.66392
   247    C    8  f(C3)  Ryd( 4f)     0.00004       4.67050
   248    C    8  f(S3)  Ryd( 4f)     0.00015       4.42718

   249    C    9  S      Cor( 1S)     1.99940     -10.06537
   250    C    9  S      Val( 2S)     1.09885      -0.29023
   251    C    9  S      Ryd( 3S)     0.00082       1.18031
   252    C    9  S      Ryd( 4S)     0.00023       1.75785
   253    C    9  S      Ryd( 5S)     0.00000      21.74945
   254    C    9  px     Val( 2p)     1.22369      -0.10297
   255    C    9  px     Ryd( 3p)     0.00103       0.77047
   256    C    9  px     Ryd( 4p)     0.00010       1.48665
   257    C    9  py     Val( 2p)     1.08357      -0.09766
   258    C    9  py     Ryd( 3p)     0.00027       0.73308
   259    C    9  py     Ryd( 4p)     0.00053       1.58005
   260    C    9  pz     Val( 2p)     1.22114      -0.10415
   261    C    9  pz     Ryd( 3p)     0.00076       0.69202
   262    C    9  pz     Ryd( 4p)     0.00024       1.68475
   263    C    9  dxy    Ryd( 4d)     0.00041       3.17417
   264    C    9  dxy    Ryd( 3d)     0.00003       2.73126
   265    C    9  dxz    Ryd( 4d)     0.00048       2.91314
   266    C    9  dxz    Ryd( 3d)     0.00004       2.54490
   267    C    9  dyz    Ryd( 4d)     0.00059       2.80634
   268    C    9  dyz    Ryd( 3d)     0.00012       2.36229
   269    C    9  dx2y2  Ryd( 4d)     0.00072       3.57750
   270    C    9  dx2y2  Ryd( 3d)     0.00003       2.59533
   271    C    9  dz2    Ryd( 4d)     0.00059       3.13237
   272    C    9  dz2    Ryd( 3d)     0.00007       2.60831
   273    C    9  f(0)   Ryd( 4f)     0.00008       3.63430
   274    C    9  f(C1)  Ryd( 4f)     0.00001       3.22496
   275    C    9  f(S1)  Ryd( 4f)     0.00007       3.57659
   276    C    9  f(C2)  Ryd( 4f)     0.00004       3.50362
   277    C    9  f(S2)  Ryd( 4f)     0.00000       3.44233
   278    C    9  f(C3)  Ryd( 4f)     0.00003       3.51254
   279    C    9  f(S3)  Ryd( 4f)     0.00009       3.68041

   280    C   10  S      Cor( 1S)     1.99932     -10.07228
   281    C   10  S      Val( 2S)     1.03320      -0.26839
   282    C   10  S      Ryd( 4S)     0.00117       1.70569
   283    C   10  S      Ryd( 3S)     0.00003       1.65026
   284    C   10  S      Ryd( 5S)     0.00000      21.60782
   285    C   10  px     Val( 2p)     1.05422      -0.08998
   286    C   10  px     Ryd( 3p)     0.00130       0.86750
   287    C   10  px     Ryd( 4p)     0.00084       1.67017
   288    C   10  py     Val( 2p)     1.23048      -0.09914
   289    C   10  py     Ryd( 3p)     0.00207       1.10956
   290    C   10  py     Ryd( 4p)     0.00051       1.62051
   291    C   10  pz     Val( 2p)     1.08927      -0.09865
   292    C   10  pz     Ryd( 3p)     0.00099       0.68605
   293    C   10  pz     Ryd( 4p)     0.00079       1.48376
   294    C   10  dxy    Ryd( 3d)     0.00049       1.69006
   295    C   10  dxy    Ryd( 4d)     0.00016       2.97820
   296    C   10  dxz    Ryd( 3d)     0.00070       1.69529
   297    C   10  dxz    Ryd( 4d)     0.00027       3.27089
   298    C   10  dyz    Ryd( 3d)     0.00119       1.69582
   299    C   10  dyz    Ryd( 4d)     0.00015       3.06070
   300    C   10  dx2y2  Ryd( 3d)     0.00161       2.18525
   301    C   10  dx2y2  Ryd( 4d)     0.00012       3.55459
   302    C   10  dz2    Ryd( 3d)     0.00102       1.83205
   303    C   10  dz2    Ryd( 4d)     0.00013       3.30242
   304    C   10  f(0)   Ryd( 4f)     0.00004       3.78350
   305    C   10  f(C1)  Ryd( 4f)     0.00007       3.94229
   306    C   10  f(S1)  Ryd( 4f)     0.00002       3.44089
   307    C   10  f(C2)  Ryd( 4f)     0.00008       3.90512
   308    C   10  f(S2)  Ryd( 4f)     0.00001       3.51549
   309    C   10  f(C3)  Ryd( 4f)     0.00008       3.86263
   310    C   10  f(S3)  Ryd( 4f)     0.00001       3.91191

   311    C   11  S      Cor( 1S)     1.99926     -10.07530
   312    C   11  S      Val( 2S)     1.08048      -0.29385
   313    C   11  S      Ryd( 3S)     0.00121       1.37913
   314    C   11  S      Ryd( 4S)     0.00024       2.21817
   315    C   11  S      Ryd( 5S)     0.00000      21.32249
   316    C   11  px     Val( 2p)     1.04187      -0.10759
   317    C   11  px     Ryd( 3p)     0.00098       0.96341
   318    C   11  px     Ryd( 4p)     0.00022       1.79540
   319    C   11  py     Val( 2p)     1.23957      -0.10934
   320    C   11  py     Ryd( 3p)     0.00228       1.28988
   321    C   11  py     Ryd( 4p)     0.00019       1.71260
   322    C   11  pz     Val( 2p)     1.11166      -0.10808
   323    C   11  pz     Ryd( 3p)     0.00050       0.81139
   324    C   11  pz     Ryd( 4p)     0.00050       1.97634
   325    C   11  dxy    Ryd( 3d)     0.00088       1.37222
   326    C   11  dxy    Ryd( 4d)     0.00017       3.09072
   327    C   11  dxz    Ryd( 3d)     0.00144       1.41395
   328    C   11  dxz    Ryd( 4d)     0.00018       3.33517
   329    C   11  dyz    Ryd( 3d)     0.00130       1.43249
   330    C   11  dyz    Ryd( 4d)     0.00018       3.23098
   331    C   11  dx2y2  Ryd( 3d)     0.00361       1.56727
   332    C   11  dx2y2  Ryd( 4d)     0.00017       3.47590
   333    C   11  dz2    Ryd( 3d)     0.00236       1.39384
   334    C   11  dz2    Ryd( 4d)     0.00013       3.27689
[...]
  1646. RY*(   2) H  86                  0.00071     2.09224   
  1647. RY*(   3) H  86                  0.00046     1.85770   
  1648. RY*(   4) H  86                  0.00023     2.16053   
  1649. RY*(   5) H  86                  0.00001     3.16964   
  1650. RY*(   1) H  87                  0.00107     0.78404   
  1651. RY*(   2) H  87                  0.00081     2.02700   
  1652. RY*(   3) H  87                  0.00045     2.01206   
  1653. RY*(   4) H  87                  0.00023     2.19102   
  1654. RY*(   5) H  87                  0.00001     3.19559   
  1655. BD*(   1) C   1 - C   5          0.02373     0.57454   
  1656. BD*(   1) C   1 - C  32          0.02512     0.55625   
  1657. BD*(   1) C   1 - H  51          0.01321     0.45494   
  1658. BD*(   1) C   2 - C   8          0.02372     0.56989   
  1659. BD*(   1) C   2 - C  15          0.02365     0.55952   
  1660. BD*(   1) C   2 - H  52          0.01324     0.45582   
  1661. BD*(   1) C   3 - C  18          0.02281     0.57095   
  1662. BD*(   1) C   3 - C  22          0.02391     0.55743   
  1663. BD*(   1) C   3 - H  53          0.01455     0.46925   
  1664. BD*(   1) C   4 - C  25          0.02373     0.54678   
  1665. BD*(   1) C   4 - C  29          0.02419     0.58534   
  1666. BD*(   1) C   4 - H  54          0.01377     0.45463   
  1667. BD*(   1) C   5 - C   6          0.03058     0.57263   
  1668. BD*(   1) C   5 - N  39          0.02882     0.55921   
  1669. BD*(   1) C   6 - C   7          0.02257     0.53983   
  1670. BD*(   2) C   6 - C   7          0.28714     0.05368  1675(v),169(v),1679(v)
                                                    1677(v),1678(v)
  1671. BD*(   1) C   6 - C  10          0.02543     0.38293   
  1672. BD*(   1) C   7 - C   8          0.03053     0.56603   
  1673. BD*(   1) C   7 - C   9          0.01647     0.37097   
  1674. BD*(   1) C   8 - N  39          0.02747     0.56339   
  1675. BD*(   2) C   8 - N  39          0.62621     0.02260  1670(v),166(v),169(v),374(g)
                                                    1178(g),185(v),1760(r)
  1676. BD*(   1) C   9 - H  55          0.00528     0.41152   
  1677. BD*(   1) C   9 - H  56          0.00988     0.40661   
  1678. BD*(   1) C   9 - H  57          0.00645     0.40736   
  1679. BD*(   1) C  10 - C  11          0.01741     0.38689   
  1680. BD*(   1) C  10 - H  58          0.01548     0.40705   
  1681. BD*(   1) C  10 - H  59          0.01481     0.40344   
  1682. BD*(   1) C  11 - C  12          0.07520     0.33535   
  1683. BD*(   1) C  11 - H  60          0.01315     0.38693   
  1684. BD*(   1) C  11 - H  61          0.01088     0.40399   
  1685. BD*(   1) C  12 - O  13          0.06935     0.53577   
  1686. BD*(   1) C  12 - O  14          0.03996     0.59301   
  1687. BD*(   2) C  12 - O  14          0.19557     0.02281  1688(v),1679(v),1686(g)
  1688. BD*(   1) O  13 - H  86          0.01480     0.38004   
  1689. BD*(   1) C  15 - C  16          0.03102     0.55566   
  1690. BD*(   1) C  15 - N  40          0.02709     0.56699   
  1691. BD*(   1) C  16 - C  17          0.02706     0.57637   
  1692. BD*(   2) C  16 - C  17          0.33514     0.05900  1702(v),1697(v),174(v)
                                                    1698(v),1699(v),608(g)
  1693. BD*(   1) C  16 - C  19          0.01636     0.37970   
  1694. BD*(   1) C  17 - C  18          0.03230     0.56121   
  1695. BD*(   1) C  17 - C  20          0.02353     0.55352   
  1696. BD*(   1) C  18 - N  40          0.02714     0.56239   
  1697. BD*(   2) C  18 - N  40          0.59697     0.02280  1692(v),167(v),174(v)
                                                    1730(r),634(g),1204(g)
                                                    243(v),185(v)
  1698. BD*(   1) C  19 - H  62          0.01008     0.40868   
  1699. BD*(   1) C  19 - H  63          0.00881     0.40929   
  1700. BD*(   1) C  19 - H  64          0.00660     0.41753   
  1701. BD*(   1) C  20 - C  21          0.00727     0.49834   
  1702. BD*(   2) C  20 - C  21          0.12572     0.02653  1692(v),711(g)
  1703. BD*(   1) C  20 - H  65          0.01477     0.46294   
  1704. BD*(   1) C  21 - H  66          0.00737     0.45150   
  1705. BD*(   1) C  21 - H  67          0.00426     0.45314   
  1706. BD*(   1) C  22 - C  23          0.04227     0.53770   
  1707. BD*(   1) C  22 - N  41          0.02646     0.53408   
  1708. BD*(   1) C  23 - C  24          0.04782     0.52639   
  1709. BD*(   2) C  23 - C  24          0.41409     0.03111  189(r),1714(v),1718(v)
                                                    175(v),790(g),1715(v)
  1710. BD*(   1) C  23 - C  26          0.03196     0.33525   
  1711. BD*(   1) C  24 - C  25          0.03177     0.57199   
  1712. BD*(   1) C  24 - C  27          0.02396     0.54525   
  1713. BD*(   1) C  25 - N  41          0.02608     0.56208   
  1714. BD*(   2) C  25 - N  41          0.58683     0.02022  1709(v),168(v),175(v),816(g)
                                                    1230(g),185(v),815(g)
                                                    1718(r)
  1715. BD*(   1) C  26 - H  68          0.04129     0.38020   
  1716. BD*(   1) C  26 - H  69          0.05471     0.36422   
  1717. BD*(   1) C  27 - C  28          0.00768     0.49853   
  1718. BD*(   2) C  27 - C  28          0.13948     0.02054  1709(v),893(g)
  1719. BD*(   1) C  27 - H  71          0.01571     0.45264   
  1720. BD*(   1) C  28 - H  72          0.00998     0.44038   
  1721. BD*(   1) C  28 - H  73          0.00559     0.44773   
  1722. BD*(   1) C  29 - C  30          0.03210     0.57965   
  1723. BD*(   1) C  29 - N  42          0.02896     0.56489   
  1724. BD*(   1) C  30 - C  31          0.02239     0.55387   
  1725. BD*(   2) C  30 - C  31          0.28951     0.05572  1730(v),177(v),1734(v)
                                                    1732(v),1731(v)
  1726. BD*(   1) C  30 - C  33          0.01652     0.37087   
  1727. BD*(   1) C  31 - C  32          0.03236     0.57059   
  1728. BD*(   1) C  31 - C  34          0.02377     0.39446   
  1729. BD*(   1) C  32 - N  42          0.02688     0.59242   
  1730. BD*(   2) C  32 - N  42          0.62021     0.02293  1725(v),165(v),177(v)
                                                    1697(r),998(g),1256(g)
                                                    190(v),185(v),1761(r)
  1731. BD*(   1) C  33 - H  74          0.00718     0.40318   
  1732. BD*(   1) C  33 - H  75          0.00946     0.40406   
  1733. BD*(   1) C  33 - H  76          0.00504     0.41097   
  1734. BD*(   1) C  34 - C  35          0.01932     0.37483   
  1735. BD*(   1) C  34 - H  77          0.01271     0.40684   
  1736. BD*(   1) C  34 - H  78          0.01414     0.40700   
  1737. BD*(   1) C  35 - C  36          0.07953     0.36754   
  1738. BD*(   1) C  35 - H  79          0.01084     0.40505   
  1739. BD*(   1) C  35 - H  80          0.01189     0.38588   
  1740. BD*(   1) C  36 - O  37          0.04061     0.60964   
  1741. BD*(   2) C  36 - O  37          0.17514     0.02234  1743(v),1739(v)
  1742. BD*(   1) C  36 - O  38          0.07250     0.54448   
  1743. BD*(   1) O  38 - H  87          0.01480     0.37328   
  1744. BD*(   1) N  39 -Fe  43          0.04554     0.45065   
  1745. BD*(   1) N  40 -Fe  43          0.04379     0.43246   
  1746. BD*(   1) N  41 -Fe  43          0.04228     0.43312   
  1747. BD*(   1) N  42 -Fe  43          0.04228     0.43588   
  1748. BD*(   1)Fe  43 - N  46          0.05988     0.32817   
  1749. BD*(   1) N  44 - C  45          0.02430     0.52221   
  1750. BD*(   2) N  44 - C  45          0.63405    -0.04551  1756(v),186(v),1336(g)
                                                    1309(g),1338(g),1311(g)
                                                    1335(g)
  1751. BD*(   1) N  44 - C  48          0.01363     0.52247   
  1752. BD*(   1) N  44 - H  49          0.01728     0.42470   
  1753. BD*(   1) C  45 - N  46          0.01964     0.55003   
  1754. BD*(   1) C  45 - H  81          0.01648     0.38205   
  1755. BD*(   1) N  46 - C  47          0.01613     0.58110   
  1756. BD*(   2) N  46 - C  47          0.56612    -0.00296  1750(v),186(v),1387(g)
                                                    1365(g),1416(v)
  1757. BD*(   1) C  47 - C  48          0.01905     0.53780   
  1758. BD*(   1) C  47 - H  82          0.01670     0.42596   
  1759. BD*(   1) C  48 - H  83          0.01152     0.38955   
       -------------------------------
              Total Lewis  345.94341  ( 96.7289%)
        Valence non-Lewis   10.97034  (  3.0674%)
        Rydberg non-Lewis    0.72839  (  0.2037%)
       -------------------------------
            Total unit  1  357.64214  (100.0000%)
           Charge unit  1   -0.64214

 Molecular unit  2  (H2O)
   106. BD (   1) O  50 - H  84          1.99367    -0.79260  185(r),1284(r),1285(r)
                                                    1283(r),1182(r),1745(r)
                                                    1181(r),1748(r),1361(r)
                                                    1286(r),1257(r),1298(r)
                                                    1178(r),1364(r),1234(r)
                                                    1195(r),1744(r),1205(r)
   107. BD (   1) O  50 - H  85          1.96444    -0.80564  185(r),1283(r),1748(r)
                                                    1744(r),1761(g),1747(r)
                                                    1284(r),1178(r),1364(r)
                                                    1288(r),1208(r),1180(r)
                                                    1746(r),1230(r),1181(r)
                                                    1258(r),1675(r),1363(r)
                                                    1232(r),1674(r),1723(r)
                                                    1259(r),1188(r),1206(r)
                                                    1292(r),1745(r)
   164. CR (   1) O  50                  1.99980   -19.00236  185(r),1636(v),1748(r)
                                                    1746(r),1285(r)
   187. LP (   1) O  50                  1.98685    -0.43081  185(r),1744(r),1641(v)
                                                    1745(r),1635(v),1746(r)
                                                    1285(r),1747(r),1287(r)
                                                    1675(r),1288(r),1181(r)
                                                    1362(r),1234(r),1730(r)
                                                    1697(r),1256(r),1179(r)
                                                    1182(r),1714(r),1286(r)
                                                    1668(r),1292(r),1282(r)
                                                    1257(r),1230(r),1206(r)
                                                    1364(r)
   188. LP (   2) O  50                  1.79964    -0.49922  185(r),1761(g),1748(r)
                                                    1642(v),1637(v),1446(g)
                                                    1760(g),1204(r),1745(r)
                                                    1256(r),1287(r),1230(r)
                                                    1288(r),1180(r),1178(r)
                                                    1744(r),1206(r),1207(r)
                                                    1258(r),1232(r),1181(r)
                                                    1233(r),1696(r),1697(r)
                                                    1286(r),1690(r),1263(r)
                                                    1668(r),1284(r),1294(r)
                                                    1674(r),1214(r),1291(r)
                                                    1292(r),1707(r),1713(r)
                                                    1285(r),1296(r),1361(r)
                                                    1364(r),1290(r),1212(r)
                                                    1257(r)
  1444. RY*(   1) O  50                  0.00383     0.89752   
  1445. RY*(   2) O  50                  0.00242     0.86998   
  1446. RY*(   3) O  50                  0.00056     1.30477   
  1447. RY*(   4) O  50                  0.00031     1.52853   
  1448. RY*(   5) O  50                  0.00008     4.53008   
  1449. RY*(   6) O  50                  0.00008     2.35931   
  1450. RY*(   7) O  50                  0.00005     2.52270   
  1451. RY*(   8) O  50                  0.00003     2.50499   
  1452. RY*(   9) O  50                  0.00003     2.31825   
  1453. RY*(  10) O  50                  0.00000    42.18390   
  1454. RY*(  11) O  50                  0.00000     6.52210   
  1455. RY*(  12) O  50                  0.00000     2.95739   
  1456. RY*(  13) O  50                  0.00000     6.61683   
  1457. RY*(  14) O  50                  0.00000     3.66967   
  1458. RY*(  15) O  50                  0.00000     6.57559   
  1459. RY*(  16) O  50                  0.00001     3.56691   
  1460. RY*(  17) O  50                  0.00000     6.42014   
  1461. RY*(  18) O  50                  0.00001     3.24762   
  1462. RY*(  19) O  50                  0.00000     6.64567   
  1463. RY*(  20) O  50                  0.00000     5.46883   
  1464. RY*(  21) O  50                  0.00000     5.70235   
  1465. RY*(  22) O  50                  0.00000     5.42674   
  1466. RY*(  23) O  50                  0.00000     5.24236   
  1467. RY*(  24) O  50                  0.00000     5.19721   
  1468. RY*(  25) O  50                  0.00000     5.30405   
  1469. RY*(  26) O  50                  0.00000     5.51227   
  1635. RY*(   1) H  84                  0.00083     1.83054   
  1636. RY*(   2) H  84                  0.00060     2.10405   
  1637. RY*(   3) H  84                  0.00054     1.97116   
  1638. RY*(   4) H  84                  0.00032     1.60141   
  1639. RY*(   5) H  84                  0.00001     2.92426   
  1640. RY*(   1) H  85                  0.00216     1.38324   
  1641. RY*(   2) H  85                  0.00079     2.05726   
  1642. RY*(   3) H  85                  0.00052     2.25547   
  1643. RY*(   4) H  85                  0.00022     2.03296   
  1644. RY*(   5) H  85                  0.00003     2.95787   
  1760. BD*(   1) O  50 - H  84          0.00741     0.44451   
  1761. BD*(   1) O  50 - H  85          0.01544     0.43270   
       -------------------------------
              Total Lewis    9.74440  ( 99.6291%)
        Valence non-Lewis    0.02284  (  0.2335%)
        Rydberg non-Lewis    0.01343  (  0.1373%)
       -------------------------------
            Total unit  2    9.78068  (100.0000%)
           Charge unit  2    0.21932

 Molecular unit  3  (H)
   189. LP*(   1) H  70                  0.57512     0.03404  1709(r),1716(r),1715(r)
                                                    1565(g),1710(r),1567(g)
                                                    853(r),840(r),855(r),858(r)
                                                    1708(r),845(r),849(r),841(r)
                                                    842(r),850(r),1712(r),847(r)
                                                    1662(r),859(r),175(r),771(r)
                                                    1558(r),862(r),772(r),852(r)
                                                    1559(r),856(r),864(r)
                                                    1556(r),768(r)
  1565. RY*(   1) H  70                  0.00142     1.44503   
  1566. RY*(   2) H  70                  0.00033     2.31832   
  1567. RY*(   3) H  70                  0.00018     2.35665   
  1568. RY*(   4) H  70                  0.00006     1.46081   
  1569. RY*(   5) H  70                  0.00001     2.92565   
       -------------------------------
              Total Lewis    0.00000  (  0.0000%)
        Valence non-Lewis    0.57512  ( 99.6547%)
        Rydberg non-Lewis    0.00199  (  0.3453%)
       -------------------------------
            Total unit  3    0.57711  (100.0000%)
           Charge unit  3    0.42289
 1\1\GINC-NODE542\SP\RPBE1PBE\def2TZVP\C37H38Fe1N6O5\KLEICH\16-Sep-2022
 \0\\# PBE1PBE/def2TZVP empiricaldispersion=GD3BJ int=(grid=ultrafine) 
 geom=check guess=read pop=nbo\\1ccg_II_S_nbo\\0,1\C,0,-5.506,53.923,11
 2.93\C,0,-7.562,57.972,114.378\C,0,-5.926,60.126,110.472\C,0,-3.654,56
 .114,109.164\C,0,-6.228,54.827,113.698\C,0,-6.758,54.532,114.942\C,0,-
 7.395,55.715,115.374\C,0,-7.147,56.642,114.369\C,0,-8.23,55.922,116.64
 5\C,0,-6.626,53.173,115.641\C,0,-5.472,53.012,116.584\C,0,-5.394,51.61
 7,117.224\O,0,-6.246,51.26,118.04\O,0,-4.475,50.847,116.942\C,0,-7.381
 ,58.932,113.376\C,0,-7.941,60.211,113.411\C,0,-7.522,60.812,112.232\C,
 0,-6.685,59.879,111.612\C,0,-8.919,60.678,114.485\C,0,-7.826,62.055,11
 1.651\C,0,-8.743,63.064,112.11\C,0,-5.081,59.253,109.775\C,0,-4.298,59
 .622,108.683\C,0,-3.589,58.446,108.366\C,0,-4.047,57.462,109.229\C,0,-
 4.188,61.047,108.081\C,0,-2.635,58.152,107.378\C,0,-2.272,58.924,106.2
 28\C,0,-4.,55.082,110.014\C,0,-3.674,53.753,109.834\C,0,-4.208,53.123,
 110.964\C,0,-4.83,54.109,111.715\C,0,-3.02,53.099,108.613\C,0,-4.19,51
 .63,111.27\C,0,-3.016,51.229,112.145\C,0,-3.008,49.79,112.601\O,0,-2.4
 43,49.528,113.657\O,0,-3.547,48.922,111.918\N,0,-6.462,56.1,113.359\N,
 0,-6.701,58.711,112.255\N,0,-4.921,57.955,110.104\N,0,-4.723,55.274,11
 1.116\Fe,0,-5.857,56.937,111.603\N,0,-9.264,56.772,109.591\C,0,-8.576,
 56.828,110.692\N,0,-7.374,56.4,110.42\C,0,-7.308,56.079,109.165\C,0,-8
 .548,56.317,108.604\H,0,-10.166,57.108,109.493\O,0,-4.422,57.485,112.8
 62\H,0,-5.45782113,52.93038101,113.32659342\H,0,-8.08069798,58.2981136
 1,115.25521281\H,0,-5.99760271,61.11670263,110.07415412\H,0,-3.0049327
 3,55.8547598,108.35381101\H,0,-8.29848407,56.96786322,116.86036031\H,0
 ,-9.21175387,55.52358038,116.49559734\H,0,-7.7619019,55.41887131,117.4
 651498\H,0,-6.44721884,52.46901742,114.85528642\H,0,-7.5012008,53.0840
 6969,116.25010997\H,0,-5.65300175,53.69407989,117.38830429\H,0,-4.5894
 2939,53.11072806,115.98715673\H,0,-8.46371308,61.44873123,115.07116311
 \H,0,-9.8040266,61.05930165,114.01998713\H,0,-9.17510627,59.85346206,1
 15.11701801\H,0,-7.30480633,62.28163664,110.74441686\H,0,-9.30143044,6
 2.91003662,113.00963921\H,0,-8.86660125,63.96842137,111.55174851\H,0,-
 3.96248284,61.38427734,107.09090606\H,0,-3.16344207,60.7451661,108.017
 14588\H,0,-5.06293474,60.70293935,107.57010718\H,0,-2.1095021,57.22809
 277,107.50107472\H,0,-2.75434073,59.86002192,106.03797265\H,0,-1.51839
 87,58.56487385,105.5586619\H,0,-2.27695181,52.4008133,108.93752229\H,0
 ,-3.76507449,52.58672515,108.04086497\H,0,-2.56112515,53.85261299,108.
 00768906\H,0,-4.04362608,51.13631942,110.33204789\H,0,-5.07023292,51.4
 3423488,111.84599134\H,0,-3.11319677,51.81093673,113.0376379\H,0,-2.14
 912823,51.33767231,111.52724304\H,0,-8.9296665,57.16293665,111.6447000
 8\H,0,-6.44757409,55.69818255,108.65554409\H,0,-8.85064928,56.16247035
 ,107.58939466\H,0,-3.67092348,58.08289971,112.862\H,0,-4.10865359,56.5
 7757836,112.862\H,0,-5.97701984,50.89062643,118.88428244\H,0,-3.01035,
 48.29644543,111.42577215\\Version=ES64L-G16RevA.03\State=1-A\HF=-3399.
 1522683\RMSD=2.780e-09\Dipole=-1.9691427,-0.1486932,-1.4464788\Quadrup
 ole=6.8219968,-29.2823838,22.460387,1.2424545,-9.724488,15.7111961\PG=
 C01 [X(C37H38Fe1N6O5)]\\@


 THOSE WHO TRY TO PASS CHEMISTRY OFF AS A NEW SCIENCE
 SHOW HOW LITTLE KNOWLEDGE THEY HAVE OF THE CHARACTER
 AND LITERATURE OF THE ANCIENTS.
   -- NICOLAS LEFEVRE
 "COURS DE CHYMIE" J.-N.LELOUP, PARIS, 1751
 Job cpu time:       0 days  1 hours 46 minutes 17.0 seconds.
 Elapsed time:       0 days  0 hours 26 minutes 38.1 seconds.
 File lengths (MBytes):  RWF=   1582 Int=      0 D2E=      0 Chk=    203 Scr=      1
 Normal termination of Gaussian 16 at Fri Sep 16 14:34:59 2022.
