 Initial command:
 /afs/math/software/gaussian/g16.A03/g16/l1.exe "/scratch/kleich_gaussian.DLB45oq/Gau-14980.inp" -scrdir="/scratch/kleich_gaussian.DLB45oq/"
 Entering Link 1 = /afs/math/software/gaussian/g16.A03/g16/l1.exe PID=     10608.
  
 Copyright (c) 1988,1990,1992,1993,1995,1998,2003,2009,2016,
            Gaussian, Inc.  All Rights Reserved.
  
 This is part of the Gaussian(R) 16 program.  It is based on
 the Gaussian(R) 09 system (copyright 2009, Gaussian, Inc.),
 the Gaussian(R) 03 system (copyright 2003, Gaussian, Inc.),
 the Gaussian(R) 98 system (copyright 1998, Gaussian, Inc.),
 the Gaussian(R) 94 system (copyright 1995, Gaussian, Inc.),
 the Gaussian 92(TM) system (copyright 1992, Gaussian, Inc.),
 the Gaussian 90(TM) system (copyright 1990, Gaussian, Inc.),
 the Gaussian 88(TM) system (copyright 1988, Gaussian, Inc.),
 the Gaussian 86(TM) system (copyright 1986, Carnegie Mellon
 University), and the Gaussian 82(TM) system (copyright 1983,
 Carnegie Mellon University). Gaussian is a federally registered
 trademark of Gaussian, Inc.
  
 This software contains proprietary and confidential information,
 including trade secrets, belonging to Gaussian, Inc.
  
 This software is provided under written license and may be
 used, copied, transmitted, or stored only in accord with that
 written license.
  
 The following legend is applicable only to US Government
 contracts under FAR:
  
                    RESTRICTED RIGHTS LEGEND
  
 Use, reproduction and disclosure by the US Government is
 subject to restrictions as set forth in subparagraphs (a)
 and (c) of the Commercial Computer Software - Restricted
 Rights clause in FAR 52.227-19.
  
 Gaussian, Inc.
 340 Quinnipiac St., Bldg. 40, Wallingford CT 06492
  
  
 ---------------------------------------------------------------
 Warning -- This program may not be used in any manner that
 competes with the business of Gaussian, Inc. or will provide
 assistance to any competitor of Gaussian, Inc.  The licensee
 of this program is prohibited from giving any competitor of
 Gaussian, Inc. access to this program.  By using this program,
 the user acknowledges that Gaussian, Inc. is engaged in the
 business of creating and licensing software in the field of
 computational chemistry and represents and warrants to the
 licensee that it is not a competitor of Gaussian, Inc. and that
 it will not use this program in any manner prohibited above.
 ---------------------------------------------------------------
  

 Cite this work as:
 Gaussian 16, Revision A.03,
 M. J. Frisch, G. W. Trucks, H. B. Schlegel, G. E. Scuseria, 
 M. A. Robb, J. R. Cheeseman, G. Scalmani, V. Barone, 
 G. A. Petersson, H. Nakatsuji, X. Li, M. Caricato, A. V. Marenich, 
 J. Bloino, B. G. Janesko, R. Gomperts, B. Mennucci, H. P. Hratchian, 
 J. V. Ortiz, A. F. Izmaylov, J. L. Sonnenberg, D. Williams-Young, 
 F. Ding, F. Lipparini, F. Egidi, J. Goings, B. Peng, A. Petrone, 
 T. Henderson, D. Ranasinghe, V. G. Zakrzewski, J. Gao, N. Rega, 
 G. Zheng, W. Liang, M. Hada, M. Ehara, K. Toyota, R. Fukuda, 
 J. Hasegawa, M. Ishida, T. Nakajima, Y. Honda, O. Kitao, H. Nakai, 
 T. Vreven, K. Throssell, J. A. Montgomery, Jr., J. E. Peralta, 
 F. Ogliaro, M. J. Bearpark, J. J. Heyd, E. N. Brothers, K. N. Kudin, 
 V. N. Staroverov, T. A. Keith, R. Kobayashi, J. Normand, 
 K. Raghavachari, A. P. Rendell, J. C. Burant, S. S. Iyengar, 
 J. Tomasi, M. Cossi, J. M. Millam, M. Klene, C. Adamo, R. Cammi, 
 J. W. Ochterski, R. L. Martin, K. Morokuma, O. Farkas, 
 J. B. Foresman, and D. J. Fox, Gaussian, Inc., Wallingford CT, 2016.
 
 ******************************************
 Gaussian 16:  ES64L-G16RevA.03 25-Dec-2016
                17-Sep-2022 
 ******************************************
 %nprocs=12
 Will use up to   12 processors via shared memory.
 %mem=16GB
 %chk=1ccg_III_D.chk
 ----------------------------------------------------------------------
 # PBE1PBE/def2TZVP empiricaldispersion=GD3BJ int=(grid=ultrafine) geom
 =check guess=read scrf=(smd,solvent=Chloroform)
 ----------------------------------------------------------------------
 1/29=2,38=1,172=1/1;
 2/12=2,40=1/2;
 3/5=44,7=101,11=2,14=-4,25=1,30=1,70=32201,72=7,74=-13,75=-5,116=-2,124=41/1,2,3;
 4/5=1/1;
 5/5=2,38=6,53=7/2;
 6/7=2,8=2,9=2,10=2,28=1/1;
 99/5=1,9=1/99;
 ---------------
 1ccg_III_D_solv
 ---------------
 Structure from the checkpoint file:  "1ccg_III_D.chk"
 Charge =  1 Multiplicity = 2
 Z-Matrix found in chk file.
 C,0,-5.506,53.923,112.93
 C,0,-7.562,57.972,114.378
 C,0,-5.926,60.126,110.472
 C,0,-3.654,56.114,109.164
 C,0,-6.228,54.827,113.698
 C,0,-6.758,54.532,114.942
 C,0,-7.395,55.715,115.374
 C,0,-7.147,56.642,114.369
 C,0,-8.23,55.922,116.645
 C,0,-6.626,53.173,115.641
 C,0,-5.472,53.012,116.584
 C,0,-5.394,51.617,117.224
 O,0,-6.246,51.26,118.04
 O,0,-4.475,50.847,116.942
 C,0,-7.381,58.932,113.376
 C,0,-7.941,60.211,113.411
 C,0,-7.522,60.812,112.232
 C,0,-6.685,59.879,111.612
 C,0,-8.919,60.678,114.485
 C,0,-7.826,62.055,111.651
 C,0,-8.743,63.064,112.11
 C,0,-5.081,59.253,109.775
 C,0,-4.298,59.622,108.683
 C,0,-3.589,58.446,108.366
 C,0,-4.047,57.462,109.229
 C,0,-4.188,61.047,108.081
 C,0,-2.635,58.152,107.378
 C,0,-2.272,58.924,106.228
 C,0,-4.,55.082,110.014
 C,0,-3.674,53.753,109.834
 C,0,-4.208,53.123,110.964
 C,0,-4.83,54.109,111.715
 C,0,-3.02,53.099,108.613
 C,0,-4.19,51.63,111.27
 C,0,-3.016,51.229,112.145
 C,0,-3.008,49.79,112.601
 O,0,-2.443,49.528,113.657
 O,0,-3.547,48.922,111.918
 N,0,-6.462,56.1,113.359
 N,0,-6.701,58.711,112.255
 N,0,-4.921,57.955,110.104
 N,0,-4.723,55.274,111.116
 Fe,0,-5.857,56.937,111.603
 N,0,-9.264,56.772,109.591
 C,0,-8.576,56.828,110.692
 N,0,-7.374,56.4,110.42
 C,0,-7.308,56.079,109.165
 C,0,-8.548,56.317,108.604
 H,0,-10.166,57.108,109.493
 O,0,-4.422,57.485,112.862
 H,0,-5.45782113,52.93038101,113.32659342
 H,0,-8.08069798,58.29811361,115.25521281
 H,0,-5.99760271,61.11670263,110.07415412
 H,0,-3.00493273,55.8547598,108.35381101
 H,0,-8.29848407,56.96786322,116.86036031
 H,0,-9.21175387,55.52358038,116.49559734
 H,0,-7.7619019,55.41887131,117.4651498
 H,0,-6.44721884,52.46901742,114.85528642
 H,0,-7.5012008,53.08406969,116.25010997
 H,0,-5.65300175,53.69407989,117.38830429
 H,0,-4.58942939,53.11072806,115.98715673
 H,0,-8.46371308,61.44873123,115.07116311
 H,0,-9.8040266,61.05930165,114.01998713
 H,0,-9.17510627,59.85346206,115.11701801
 H,0,-7.30480633,62.28163664,110.74441686
 H,0,-9.30143044,62.91003662,113.00963921
 H,0,-8.86660125,63.96842137,111.55174851
 H,0,-3.96248284,61.38427734,107.09090606
 H,0,-3.16344207,60.7451661,108.01714588
 H,0,-5.06293474,60.70293935,107.57010718
 H,0,-2.1095021,57.22809277,107.50107472
 H,0,-2.75434073,59.86002192,106.03797265
 H,0,-1.5183987,58.56487385,105.5586619
 H,0,-2.27695181,52.4008133,108.93752229
 H,0,-3.76507449,52.58672515,108.04086497
 H,0,-2.56112515,53.85261299,108.00768906
 H,0,-4.04362608,51.13631942,110.33204789
 H,0,-5.07023292,51.43423488,111.84599134
 H,0,-3.11319677,51.81093673,113.0376379
 H,0,-2.14912823,51.33767231,111.52724304
 H,0,-8.9296665,57.16293665,111.64470008
 H,0,-6.44757409,55.69818255,108.65554409
 H,0,-8.85064928,56.16247035,107.58939466
 H,0,-3.67092348,58.08289971,112.862
 H,0,-4.10865359,56.57757836,112.862
 H,0,-5.97701984,50.89062643,118.88428244
 H,0,-3.01035,48.29644543,111.42577215
 Recover connectivity data from disk.
 Center=     -5.69504601     56.23397221    111.88815250
 Residue   0                        charge    0.00000000 layers R        AvRTP=      7.49740844    280.25480075     64.16799963
 Residue   4                        charge    0.00000000 layers R        AvRTP=      0.00000000      0.00000000      0.00000000
 Residue   2 PDB Number   575_A IMD charge    0.00000000 layers R        AvRTP=      3.58109175    174.28708208    130.98602261
 Residue   3 PDB Number   313_A HOH charge    0.00000000 layers R        AvRTP=      2.21717271     35.18893807     63.94527408
 Residue   1 PDB Number     1_A HEM charge    0.00000000 layers R        AvRTP=      0.29944987     23.66350593     57.69198574
 Stoichiometry    C37H38FeN6O5(1+,2)
 Framework group  C1[X(C37H38FeN6O5)]
 Deg. of freedom   255
 Full point group                 C1      NOp   1
 Largest Abelian subgroup         C1      NOp   1
 Largest concise Abelian subgroup C1      NOp   1
                         Standard orientation:                         
 ---------------------------------------------------------------------
 Center     Atomic      Atomic             Coordinates (Angstroms)
 Number     Number       Type             X           Y           Z
 ---------------------------------------------------------------------
      1          6           0       -2.341147   -0.087175    0.262138
      2          6           0        0.995264   -3.454204   -0.237578
      3          6           0        4.282185   -0.048016   -0.646326
      4          6           0        0.880258    3.318637   -0.398269
      5          6           0       -1.739433   -1.335050    0.166899
      6          6           0       -2.438089   -2.529722    0.156800
      7          6           0       -1.460638   -3.540642    0.036331
      8          6           0       -0.253692   -2.860163   -0.068963
      9          6           0       -1.671537   -5.060417    0.072694
     10          6           0       -3.964882   -2.642523    0.252103
     11          6           0       -4.716174   -2.701943   -1.043627
     12          6           0       -6.240043   -2.788572   -0.864662
     13          8           0       -6.753382   -3.808122   -0.399679
     14          8           0       -6.965770   -1.850150   -1.195826
     15          6           0        2.242116   -2.822105   -0.302203
     16          6           0        3.460591   -3.503376   -0.345264
     17          6           0        4.422473   -2.503552   -0.389279
     18          6           0        3.711319   -1.300676   -0.442255
     19          6           0        3.589811   -5.017051   -0.203352
     20          6           0        5.826668   -2.547984   -0.353391
     21          6           0        6.688241   -3.688815   -0.192611
     22          6           0        3.655693    1.203852   -0.694268
     23          6           0        4.309907    2.399294   -0.985190
     24          6           0        3.276689    3.357698   -0.976926
     25          6           0        2.117318    2.687864   -0.616413
     26          6           0        5.810632    2.552230   -1.345141
     27          6           0        3.268335    4.743920   -1.202791
     28          6           0        4.379370    5.643972   -1.278697
     29          6           0       -0.336058    2.734044   -0.104899
     30          6           0       -1.495196    3.413133    0.211575
     31          6           0       -2.441354    2.395890    0.381751
     32          6           0       -1.777510    1.194879    0.181837
     33          6           0       -1.669620    4.913025    0.468814
     34          6           0       -3.898665    2.565334    0.794718
     35          6           0       -4.837188    2.634942   -0.396513
     36          6           0       -6.308954    2.666210   -0.062378
     37          8           0       -7.093116    2.218160   -0.891441
     38          8           0       -6.690412    3.138002    1.006424
     39          7           0       -0.424535   -1.539306    0.027156
     40          7           0        2.404121   -1.502698   -0.273888
     41          7           0        2.336094    1.381642   -0.480508
     42          7           0       -0.507987    1.413529   -0.078889
     43         26           0        0.959964   -0.045150   -0.000976
     44          7           0        2.280541   -0.306056    3.723406
     45          6           0        1.737098   -0.806619    2.654394
     46          7           0        1.259811    0.189171    1.959721
     47          6           0        1.499839    1.300357    2.584281
     48          6           0        2.171460    0.990545    3.751289
     49          1           0        2.780947   -0.819336    4.373207
     50          8           0        0.651998   -0.387767   -1.932913
     51          1           0       -3.399030   -0.106564    0.421534
     52          1           0        1.001868   -4.520318   -0.328448
     53          1           0        5.343079   -0.040119   -0.785404
     54          1           0        0.881058    4.386340   -0.468343
     55          1           0       -0.824353   -5.548564   -0.361923
     56          1           0       -1.785917   -5.380454    1.087284
     57          1           0       -2.551373   -5.311778   -0.481928
     58          1           0       -4.284954   -1.735671    0.721224
     59          1           0       -4.148069   -3.583896    0.726613
     60          1           0       -4.423065   -3.618794   -1.510930
     61          1           0       -4.530858   -1.768772   -1.533269
     62          1           0        3.941349   -5.432917   -1.124426
     63          1           0        4.284184   -5.243998    0.578466
     64          1           0        2.634516   -5.435739    0.035422
     65          1           0        6.322107   -1.605619   -0.460107
     66          1           0        6.266819   -4.665859   -0.079973
     67          1           0        7.750470   -3.560279   -0.185667
     68          1           0        6.492506    3.366680   -1.216231
     69          1           0        5.387840    3.251809   -2.035601
     70          1           0        5.879880    2.561583   -0.277425
     71          1           0        2.303197    5.186301   -1.335858
     72          1           0        5.376169    5.275014   -1.155558
     73          1           0        4.212819    6.685514   -1.458557
     74          1           0       -2.559535    5.256870   -0.015667
     75          1           0       -1.746436    5.087769    1.521650
     76          1           0       -0.824731    5.442179    0.080150
     77          1           0       -3.961501    3.517706    1.278390
     78          1           0       -4.161496    1.675911    1.328335
     79          1           0       -4.685522    1.721866   -0.933346
     80          1           0       -4.631324    3.573210   -0.867865
     81          1           0        1.689860   -1.843012    2.392559
     82          1           0        1.226705    2.281046    2.254818
     83          1           0        2.521993    1.663246    4.505942
     84          1           0        1.048135   -0.131521   -2.768983
     85          1           0       -0.208135    0.029447   -1.845145
     86          1           0       -7.489499   -4.224820   -0.853656
     87          1           0       -7.130146    3.991169    1.024820
 ---------------------------------------------------------------------
 Rotational constants (GHZ):           0.0819071           0.0475467           0.0338762
 Standard basis: def2TZVP (5D, 7F)
 There are  2008 symmetry adapted cartesian basis functions of A   symmetry.
 There are  1761 symmetry adapted basis functions of A   symmetry.
  1761 basis functions,  2854 primitive gaussians,  2008 cartesian basis functions
   184 alpha electrons      183 beta electrons
       nuclear repulsion energy      7371.5366171953 Hartrees.
 NAtoms=   87 NActive=   87 NUniq=   87 SFac= 1.00D+00 NAtFMM=   60 NAOKFM=T Big=T
 Integral buffers will be    131072 words long.
 Raffenetti 2 integral format.
 Two-electron integral symmetry is turned on.
 Nuclear repulsion after empirical dispersion term =     7371.4146188558 Hartrees.
 ------------------------------------------------------------------------------
 Polarizable Continuum Model (PCM)
 =================================
 Model                : PCM.
 Atomic radii         : SMD-Coulomb.
 Polarization charges : Total charges.
 Charge compensation  : None.
 Solution method      : On-the-fly selection.
 Cavity type          : VdW (van der Waals Surface) (Alpha=1.000).
 Cavity algorithm     : GePol (No added spheres)
                        Default sphere list used, NSphG=   87.
                        Lebedev-Laikov grids with approx.  5.0 points / Ang**2.
                        Smoothing algorithm: York/Karplus (Gamma=1.0000).
                        Polarization charges: spherical gaussians, with
                                              point-specific exponents (IZeta= 3).
                        Self-potential: point-specific (ISelfS= 7).
                        Self-field    : sphere-specific E.n sum rule (ISelfD= 2).
 Solvent              : Chloroform, Eps=   4.711300 Eps(inf)=   2.090627
 ------------------------------------------------------------------------------
 ------------------------------------------------------------------------------
 Atomic radii for non-electrostatic terms: SMD-CDS.
 ------------------------------------------------------------------------------
 Nuclear repulsion after PCM non-electrostatic terms =     7371.3960504471 Hartrees.
 One-electron integrals computed using PRISM.
   1 Symmetry operations used in ECPInt.
 ECPInt:  NShTT=  241860 NPrTT=  750929 LenC2=  176350 LenP2D=  356217.
 LDataN:  DoStor=T MaxTD1= 6 Len=  172
 NBasis=  1761 RedAO= T EigKep=  2.74D-06  NBF=  1761
 NBsUse=  1761 1.00D-06 EigRej= -1.00D+00 NBFU=  1761
 Initial guess from the checkpoint file:  "1ccg_III_D.chk"
 B after Tr=     0.000000   -0.000000   -0.000000
         Rot=    1.000000    0.000000   -0.000000    0.000000 Ang=   0.00 deg.
 Initial guess <Sx>= 0.0000 <Sy>= 0.0000 <Sz>= 0.5000 <S**2>= 0.9059 S= 0.5751
 Requested convergence on RMS density matrix=1.00D-08 within 128 cycles.
 Requested convergence on MAX density matrix=1.00D-06.
 Requested convergence on             energy=1.00D-06.
 No special actions if energy rises.
 Inv3:  Mode=1 IEnd=   115506075.
 Iteration    1 A*A^-1 deviation from unit magnitude is 3.77D-15 for    721.
 Iteration    1 A*A^-1 deviation from orthogonality  is 2.83D-15 for   2795     18.
 Iteration    1 A^-1*A deviation from unit magnitude is 4.11D-15 for   1558.
 Iteration    1 A^-1*A deviation from orthogonality  is 1.03D-13 for   3734   3687.
 Restarting incremental Fock formation.
 Restarting incremental Fock formation.
 Error on total polarization charges =  0.07589
 SCF Done:  E(UPBE1PBE) =  -3399.07486376     A.U. after   50 cycles
            NFock= 50  Conv=0.18D-08     -V/T= 2.0027
 <Sx>= 0.0000 <Sy>= 0.0000 <Sz>= 0.5000 <S**2>= 0.8846 S= 0.5652
 <L.S>= 0.000000000000E+00
 SMD-CDS (non-electrostatic) energy       (kcal/mol) =     -11.65
 (included in total energy above)
 Annihilation of the first spin contaminant:
 S**2 before annihilation     0.8846,   after     0.7527

 **********************************************************************

            Population analysis using the SCF density.

 **********************************************************************

 Orbital symmetries:
 Alpha Orbitals:
       Occupied  (A) (A) (A) (A) (A) (A) (A) (A) (A) (A) (A) (A)
                 (A) (A) (A) (A) (A) (A) (A) (A) (A) (A) (A) (A)
                 (A) (A) (A) (A) (A) (A) (A) (A) (A) (A) (A) (A)
                 (A) (A) (A) (A) (A) (A) (A) (A) (A) (A) (A) (A)
                 (A) (A) (A) (A) (A) (A) (A) (A) (A) (A) (A) (A)
                 (A) (A) (A) (A) (A) (A) (A) (A) (A) (A) (A) (A)
                 (A) (A) (A) (A) (A) (A) (A) (A) (A) (A) (A) (A)
                 (A) (A) (A) (A) (A) (A) (A) (A) (A) (A) (A) (A)
                 (A) (A) (A) (A) (A) (A) (A) (A) (A) (A) (A) (A)
                 (A) (A) (A) (A) (A) (A) (A) (A) (A) (A) (A) (A)
                 (A) (A) (A) (A) (A) (A) (A) (A) (A) (A) (A) (A)
                 (A) (A) (A) (A) (A) (A) (A) (A) (A) (A) (A) (A)
                 (A) (A) (A) (A) (A) (A) (A) (A) (A) (A) (A) (A)
                 (A) (A) (A) (A) (A) (A) (A) (A) (A) (A) (A) (A)
                 (A) (A) (A) (A) (A) (A) (A) (A) (A) (A) (A) (A)
                 (A) (A) (A) (A)
       Virtual   (A) (A) (A) (A) (A) (A) (A) (A) (A) (A) (A) (A)
                 (A) (A) (A) (A) (A) (A) (A) (A) (A) (A) (A) (A)
                 (A) (A) (A) (A) (A) (A) (A) (A) (A) (A) (A) (A)
                 (A) (A) (A) (A) (A) (A) (A) (A) (A) (A) (A) (A)
                 (A) (A) (A) (A) (A) (A) (A) (A) (A) (A) (A) (A)
                 (A) (A) (A) (A) (A) (A) (A) (A) (A) (A) (A) (A)
                 (A) (A) (A) (A) (A) (A) (A) (A) (A) (A) (A) (A)
                 (A) (A) (A) (A) (A) (A) (A) (A) (A) (A) (A) (A)
                 (A) (A) (A) (A) (A) (A) (A) (A) (A) (A) (A) (A)
                 (A) (A) (A) (A) (A) (A) (A) (A) (A) (A) (A) (A)
                 (A) (A) (A) (A) (A) (A) (A) (A) (A) (A) (A) (A)
                 (A) (A) (A) (A) (A) (A) (A) (A) (A) (A) (A) (A)
                 (A) (A) (A) (A) (A) (A) (A) (A) (A) (A) (A) (A)
                 (A) (A) (A) (A) (A) (A) (A) (A) (A) (A) (A) (A)
                 (A) (A) (A) (A) (A) (A) (A) (A) (A) (A) (A) (A)
                 (A) (A) (A) (A) (A) (A) (A) (A) (A) (A) (A) (A)
                 (A) (A) (A) (A) (A) (A) (A) (A) (A) (A) (A) (A)
                 (A) (A) (A) (A) (A) (A) (A) (A) (A) (A) (A) (A)
                 (A) (A) (A) (A) (A) (A) (A) (A) (A) (A) (A) (A)
                 (A) (A) (A) (A) (A) (A) (A) (A) (A) (A) (A) (A)
                 (A) (A) (A) (A) (A) (A) (A) (A) (A) (A) (A) (A)
                 (A) (A) (A) (A) (A) (A) (A) (A) (A) (A) (A) (A)
                 (A) (A) (A) (A) (A) (A) (A) (A) (A) (A) (A) (A)
                 (A) (A) (A) (A) (A) (A) (A) (A) (A) (A) (A) (A)
                 (A) (A) (A) (A) (A) (A) (A) (A) (A) (A) (A) (A)
                 (A) (A) (A) (A) (A) (A) (A) (A) (A) (A) (A) (A)
                 (A) (A) (A) (A) (A) (A) (A) (A) (A) (A) (A) (A)
                 (A) (A) (A) (A) (A) (A) (A) (A) (A) (A) (A) (A)
                 (A) (A) (A) (A) (A) (A) (A) (A) (A) (A) (A) (A)
                 (A) (A) (A) (A) (A) (A) (A) (A) (A) (A) (A) (A)
                 (A) (A) (A) (A) (A) (A) (A) (A) (A) (A) (A) (A)
                 (A) (A) (A) (A) (A) (A) (A) (A) (A) (A) (A) (A)
                 (A) (A) (A) (A) (A) (A) (A) (A) (A) (A) (A) (A)
                 (A) (A) (A) (A) (A) (A) (A) (A) (A) (A) (A) (A)
                 (A) (A) (A) (A) (A) (A) (A) (A) (A) (A) (A) (A)
                 (A) (A) (A) (A) (A) (A) (A) (A) (A) (A) (A) (A)
                 (A) (A) (A) (A) (A) (A) (A) (A) (A) (A) (A) (A)
                 (A) (A) (A) (A) (A) (A) (A) (A) (A) (A) (A) (A)
                 (A) (A) (A) (A) (A) (A) (A) (A) (A) (A) (A) (A)
                 (A) (A) (A) (A) (A) (A) (A) (A) (A) (A) (A) (A)
                 (A) (A) (A) (A) (A) (A) (A) (A) (A) (A) (A) (A)
                 (A) (A) (A) (A) (A) (A) (A) (A) (A) (A) (A) (A)
                 (A) (A) (A) (A) (A) (A) (A) (A) (A) (A) (A) (A)
                 (A) (A) (A) (A) (A) (A) (A) (A) (A) (A) (A) (A)
                 (A) (A) (A) (A) (A) (A) (A) (A) (A) (A) (A) (A)
                 (A) (A) (A) (A) (A) (A) (A) (A) (A) (A) (A) (A)
                 (A) (A) (A) (A) (A) (A) (A) (A) (A) (A) (A) (A)
                 (A) (A) (A) (A) (A) (A) (A) (A) (A) (A) (A) (A)
                 (A) (A) (A) (A) (A) (A) (A) (A) (A) (A) (A) (A)
                 (A) (A) (A) (A) (A) (A) (A) (A) (A) (A) (A) (A)
                 (A) (A) (A) (A) (A) (A) (A) (A) (A) (A) (A) (A)
                 (A) (A) (A) (A) (A) (A) (A) (A) (A) (A) (A) (A)
                 (A) (A) (A) (A) (A) (A) (A) (A) (A) (A) (A) (A)
                 (A) (A) (A) (A) (A) (A) (A) (A) (A) (A) (A) (A)
                 (A) (A) (A) (A) (A) (A) (A) (A) (A) (A) (A) (A)
                 (A) (A) (A) (A) (A) (A) (A) (A) (A) (A) (A) (A)
                 (A) (A) (A) (A) (A) (A) (A) (A) (A) (A) (A) (A)
                 (A) (A) (A) (A) (A) (A) (A) (A) (A) (A) (A) (A)
                 (A) (A) (A) (A) (A) (A) (A) (A) (A) (A) (A) (A)
                 (A) (A) (A) (A) (A) (A) (A) (A) (A) (A) (A) (A)
                 (A) (A) (A) (A) (A) (A) (A) (A) (A) (A) (A) (A)
                 (A) (A) (A) (A) (A) (A) (A) (A) (A) (A) (A) (A)
                 (A) (A) (A) (A) (A) (A) (A) (A) (A) (A) (A) (A)
                 (A) (A) (A) (A) (A) (A) (A) (A) (A) (A) (A) (A)
                 (A) (A) (A) (A) (A) (A) (A) (A) (A) (A) (A) (A)
                 (A) (A) (A) (A) (A) (A) (A) (A) (A) (A) (A) (A)
                 (A) (A) (A) (A) (A) (A) (A) (A) (A) (A) (A) (A)
                 (A) (A) (A) (A) (A) (A) (A) (A) (A) (A) (A) (A)
                 (A) (A) (A) (A) (A) (A) (A) (A) (A) (A) (A) (A)
                 (A) (A) (A) (A) (A) (A) (A) (A) (A) (A) (A) (A)
                 (A) (A) (A) (A) (A) (A) (A) (A) (A) (A) (A) (A)
                 (A) (A) (A) (A) (A) (A) (A) (A) (A) (A) (A) (A)
                 (A) (A) (A) (A) (A) (A) (A) (A) (A) (A) (A) (A)
                 (A) (A) (A) (A) (A) (A) (A) (A) (A) (A) (A) (A)
                 (A) (A) (A) (A) (A) (A) (A) (A) (A) (A) (A) (A)
                 (A) (A) (A) (A) (A) (A) (A) (A) (A) (A) (A) (A)
                 (A) (A) (A) (A) (A) (A) (A) (A) (A) (A) (A) (A)
                 (A) (A) (A) (A) (A) (A) (A) (A) (A) (A) (A) (A)
                 (A) (A) (A) (A) (A) (A) (A) (A) (A) (A) (A) (A)
                 (A) (A) (A) (A) (A) (A) (A) (A) (A) (A) (A) (A)
                 (A) (A) (A) (A) (A) (A) (A) (A) (A) (A) (A) (A)
                 (A) (A) (A) (A) (A) (A) (A) (A) (A) (A) (A) (A)
                 (A) (A) (A) (A) (A) (A) (A) (A) (A) (A) (A) (A)
                 (A) (A) (A) (A) (A) (A) (A) (A) (A) (A) (A) (A)
                 (A) (A) (A) (A) (A) (A) (A) (A) (A) (A) (A) (A)
                 (A) (A) (A) (A) (A) (A) (A) (A) (A) (A) (A) (A)
                 (A) (A) (A) (A) (A) (A) (A) (A) (A) (A) (A) (A)
                 (A) (A) (A) (A) (A) (A) (A) (A) (A) (A) (A) (A)
                 (A) (A) (A) (A) (A) (A) (A) (A) (A) (A) (A) (A)
                 (A) (A) (A) (A) (A) (A) (A) (A) (A) (A) (A) (A)
                 (A) (A) (A) (A) (A) (A) (A) (A) (A) (A) (A) (A)
                 (A) (A) (A) (A) (A) (A) (A) (A) (A) (A) (A) (A)
                 (A) (A) (A) (A) (A) (A) (A) (A) (A) (A) (A) (A)
                 (A) (A) (A) (A) (A) (A) (A) (A) (A) (A) (A) (A)
                 (A) (A) (A) (A) (A) (A) (A) (A) (A) (A) (A) (A)
                 (A) (A) (A) (A) (A) (A) (A) (A) (A) (A) (A) (A)
                 (A) (A) (A) (A) (A) (A) (A) (A) (A) (A) (A) (A)
                 (A) (A) (A) (A) (A) (A) (A) (A) (A) (A) (A) (A)
                 (A) (A) (A) (A) (A) (A) (A) (A) (A) (A) (A) (A)
                 (A) (A) (A) (A) (A) (A) (A) (A) (A) (A) (A) (A)
                 (A) (A) (A) (A) (A) (A) (A) (A) (A) (A) (A) (A)
                 (A) (A) (A) (A) (A) (A) (A) (A) (A) (A) (A) (A)
                 (A) (A) (A) (A) (A) (A) (A) (A) (A) (A) (A) (A)
                 (A) (A) (A) (A) (A) (A) (A) (A) (A) (A) (A) (A)
                 (A) (A) (A) (A) (A) (A) (A) (A) (A) (A) (A) (A)
                 (A) (A) (A) (A) (A) (A) (A) (A) (A) (A) (A) (A)
                 (A) (A) (A) (A) (A) (A) (A) (A) (A) (A) (A) (A)
                 (A) (A) (A) (A) (A) (A) (A) (A) (A) (A) (A) (A)
                 (A) (A) (A) (A) (A) (A) (A) (A) (A) (A) (A) (A)
                 (A) (A) (A) (A) (A) (A) (A) (A) (A) (A) (A) (A)
                 (A) (A) (A) (A) (A) (A) (A) (A) (A) (A) (A) (A)
                 (A) (A) (A) (A) (A) (A) (A) (A) (A) (A) (A) (A)
                 (A) (A) (A) (A) (A) (A) (A) (A) (A) (A) (A) (A)
                 (A) (A) (A) (A) (A) (A) (A) (A) (A) (A) (A) (A)
                 (A) (A) (A) (A) (A) (A) (A) (A) (A) (A) (A) (A)
                 (A) (A) (A) (A) (A) (A) (A) (A) (A) (A) (A) (A)
                 (A) (A) (A) (A) (A) (A) (A) (A) (A) (A) (A) (A)
                 (A) (A) (A) (A) (A) (A) (A) (A) (A) (A) (A) (A)
                 (A) (A) (A) (A) (A) (A) (A) (A) (A) (A) (A) (A)
                 (A) (A) (A) (A) (A) (A) (A) (A) (A) (A) (A) (A)
                 (A) (A) (A) (A) (A) (A) (A) (A) (A) (A) (A) (A)
                 (A) (A) (A) (A) (A) (A) (A) (A) (A) (A) (A) (A)
                 (A) (A) (A) (A) (A) (A) (A) (A) (A) (A) (A) (A)
                 (A) (A) (A) (A) (A) (A) (A) (A) (A) (A) (A) (A)
                 (A) (A) (A) (A) (A) (A) (A) (A) (A) (A) (A) (A)
                 (A) (A) (A) (A) (A) (A) (A) (A) (A) (A) (A) (A)
                 (A) (A) (A) (A) (A) (A) (A) (A) (A) (A) (A) (A)
                 (A) (A) (A) (A) (A) (A) (A) (A) (A) (A) (A) (A)
                 (A) (A) (A) (A) (A) (A) (A) (A) (A) (A) (A) (A)
                 (A) (A) (A) (A) (A) (A) (A) (A) (A) (A) (A) (A)
                 (A) (A) (A) (A) (A) (A) (A) (A) (A) (A) (A) (A)
                 (A) (A) (A) (A) (A)
 Beta  Orbitals:
       Occupied  (A) (A) (A) (A) (A) (A) (A) (A) (A) (A) (A) (A)
                 (A) (A) (A) (A) (A) (A) (A) (A) (A) (A) (A) (A)
                 (A) (A) (A) (A) (A) (A) (A) (A) (A) (A) (A) (A)
                 (A) (A) (A) (A) (A) (A) (A) (A) (A) (A) (A) (A)
                 (A) (A) (A) (A) (A) (A) (A) (A) (A) (A) (A) (A)
                 (A) (A) (A) (A) (A) (A) (A) (A) (A) (A) (A) (A)
                 (A) (A) (A) (A) (A) (A) (A) (A) (A) (A) (A) (A)
                 (A) (A) (A) (A) (A) (A) (A) (A) (A) (A) (A) (A)
                 (A) (A) (A) (A) (A) (A) (A) (A) (A) (A) (A) (A)
                 (A) (A) (A) (A) (A) (A) (A) (A) (A) (A) (A) (A)
                 (A) (A) (A) (A) (A) (A) (A) (A) (A) (A) (A) (A)
                 (A) (A) (A) (A) (A) (A) (A) (A) (A) (A) (A) (A)
                 (A) (A) (A) (A) (A) (A) (A) (A) (A) (A) (A) (A)
                 (A) (A) (A) (A) (A) (A) (A) (A) (A) (A) (A) (A)
                 (A) (A) (A) (A) (A) (A) (A) (A) (A) (A) (A) (A)
                 (A) (A) (A)
       Virtual   (A) (A) (A) (A) (A) (A) (A) (A) (A) (A) (A) (A)
                 (A) (A) (A) (A) (A) (A) (A) (A) (A) (A) (A) (A)
                 (A) (A) (A) (A) (A) (A) (A) (A) (A) (A) (A) (A)
                 (A) (A) (A) (A) (A) (A) (A) (A) (A) (A) (A) (A)
                 (A) (A) (A) (A) (A) (A) (A) (A) (A) (A) (A) (A)
                 (A) (A) (A) (A) (A) (A) (A) (A) (A) (A) (A) (A)
                 (A) (A) (A) (A) (A) (A) (A) (A) (A) (A) (A) (A)
                 (A) (A) (A) (A) (A) (A) (A) (A) (A) (A) (A) (A)
                 (A) (A) (A) (A) (A) (A) (A) (A) (A) (A) (A) (A)
                 (A) (A) (A) (A) (A) (A) (A) (A) (A) (A) (A) (A)
                 (A) (A) (A) (A) (A) (A) (A) (A) (A) (A) (A) (A)
                 (A) (A) (A) (A) (A) (A) (A) (A) (A) (A) (A) (A)
                 (A) (A) (A) (A) (A) (A) (A) (A) (A) (A) (A) (A)
                 (A) (A) (A) (A) (A) (A) (A) (A) (A) (A) (A) (A)
                 (A) (A) (A) (A) (A) (A) (A) (A) (A) (A) (A) (A)
                 (A) (A) (A) (A) (A) (A) (A) (A) (A) (A) (A) (A)
                 (A) (A) (A) (A) (A) (A) (A) (A) (A) (A) (A) (A)
                 (A) (A) (A) (A) (A) (A) (A) (A) (A) (A) (A) (A)
                 (A) (A) (A) (A) (A) (A) (A) (A) (A) (A) (A) (A)
                 (A) (A) (A) (A) (A) (A) (A) (A) (A) (A) (A) (A)
                 (A) (A) (A) (A) (A) (A) (A) (A) (A) (A) (A) (A)
                 (A) (A) (A) (A) (A) (A) (A) (A) (A) (A) (A) (A)
                 (A) (A) (A) (A) (A) (A) (A) (A) (A) (A) (A) (A)
                 (A) (A) (A) (A) (A) (A) (A) (A) (A) (A) (A) (A)
                 (A) (A) (A) (A) (A) (A) (A) (A) (A) (A) (A) (A)
                 (A) (A) (A) (A) (A) (A) (A) (A) (A) (A) (A) (A)
                 (A) (A) (A) (A) (A) (A) (A) (A) (A) (A) (A) (A)
                 (A) (A) (A) (A) (A) (A) (A) (A) (A) (A) (A) (A)
                 (A) (A) (A) (A) (A) (A) (A) (A) (A) (A) (A) (A)
                 (A) (A) (A) (A) (A) (A) (A) (A) (A) (A) (A) (A)
                 (A) (A) (A) (A) (A) (A) (A) (A) (A) (A) (A) (A)
                 (A) (A) (A) (A) (A) (A) (A) (A) (A) (A) (A) (A)
                 (A) (A) (A) (A) (A) (A) (A) (A) (A) (A) (A) (A)
                 (A) (A) (A) (A) (A) (A) (A) (A) (A) (A) (A) (A)
                 (A) (A) (A) (A) (A) (A) (A) (A) (A) (A) (A) (A)
                 (A) (A) (A) (A) (A) (A) (A) (A) (A) (A) (A) (A)
                 (A) (A) (A) (A) (A) (A) (A) (A) (A) (A) (A) (A)
                 (A) (A) (A) (A) (A) (A) (A) (A) (A) (A) (A) (A)
                 (A) (A) (A) (A) (A) (A) (A) (A) (A) (A) (A) (A)
                 (A) (A) (A) (A) (A) (A) (A) (A) (A) (A) (A) (A)
                 (A) (A) (A) (A) (A) (A) (A) (A) (A) (A) (A) (A)
                 (A) (A) (A) (A) (A) (A) (A) (A) (A) (A) (A) (A)
                 (A) (A) (A) (A) (A) (A) (A) (A) (A) (A) (A) (A)
                 (A) (A) (A) (A) (A) (A) (A) (A) (A) (A) (A) (A)
                 (A) (A) (A) (A) (A) (A) (A) (A) (A) (A) (A) (A)
                 (A) (A) (A) (A) (A) (A) (A) (A) (A) (A) (A) (A)
                 (A) (A) (A) (A) (A) (A) (A) (A) (A) (A) (A) (A)
                 (A) (A) (A) (A) (A) (A) (A) (A) (A) (A) (A) (A)
                 (A) (A) (A) (A) (A) (A) (A) (A) (A) (A) (A) (A)
                 (A) (A) (A) (A) (A) (A) (A) (A) (A) (A) (A) (A)
                 (A) (A) (A) (A) (A) (A) (A) (A) (A) (A) (A) (A)
                 (A) (A) (A) (A) (A) (A) (A) (A) (A) (A) (A) (A)
                 (A) (A) (A) (A) (A) (A) (A) (A) (A) (A) (A) (A)
                 (A) (A) (A) (A) (A) (A) (A) (A) (A) (A) (A) (A)
                 (A) (A) (A) (A) (A) (A) (A) (A) (A) (A) (A) (A)
                 (A) (A) (A) (A) (A) (A) (A) (A) (A) (A) (A) (A)
                 (A) (A) (A) (A) (A) (A) (A) (A) (A) (A) (A) (A)
                 (A) (A) (A) (A) (A) (A) (A) (A) (A) (A) (A) (A)
                 (A) (A) (A) (A) (A) (A) (A) (A) (A) (A) (A) (A)
                 (A) (A) (A) (A) (A) (A) (A) (A) (A) (A) (A) (A)
                 (A) (A) (A) (A) (A) (A) (A) (A) (A) (A) (A) (A)
                 (A) (A) (A) (A) (A) (A) (A) (A) (A) (A) (A) (A)
                 (A) (A) (A) (A) (A) (A) (A) (A) (A) (A) (A) (A)
                 (A) (A) (A) (A) (A) (A) (A) (A) (A) (A) (A) (A)
                 (A) (A) (A) (A) (A) (A) (A) (A) (A) (A) (A) (A)
                 (A) (A) (A) (A) (A) (A) (A) (A) (A) (A) (A) (A)
                 (A) (A) (A) (A) (A) (A) (A) (A) (A) (A) (A) (A)
                 (A) (A) (A) (A) (A) (A) (A) (A) (A) (A) (A) (A)
                 (A) (A) (A) (A) (A) (A) (A) (A) (A) (A) (A) (A)
                 (A) (A) (A) (A) (A) (A) (A) (A) (A) (A) (A) (A)
                 (A) (A) (A) (A) (A) (A) (A) (A) (A) (A) (A) (A)
                 (A) (A) (A) (A) (A) (A) (A) (A) (A) (A) (A) (A)
                 (A) (A) (A) (A) (A) (A) (A) (A) (A) (A) (A) (A)
                 (A) (A) (A) (A) (A) (A) (A) (A) (A) (A) (A) (A)
                 (A) (A) (A) (A) (A) (A) (A) (A) (A) (A) (A) (A)
                 (A) (A) (A) (A) (A) (A) (A) (A) (A) (A) (A) (A)
                 (A) (A) (A) (A) (A) (A) (A) (A) (A) (A) (A) (A)
                 (A) (A) (A) (A) (A) (A) (A) (A) (A) (A) (A) (A)
                 (A) (A) (A) (A) (A) (A) (A) (A) (A) (A) (A) (A)
                 (A) (A) (A) (A) (A) (A) (A) (A) (A) (A) (A) (A)
                 (A) (A) (A) (A) (A) (A) (A) (A) (A) (A) (A) (A)
                 (A) (A) (A) (A) (A) (A) (A) (A) (A) (A) (A) (A)
                 (A) (A) (A) (A) (A) (A) (A) (A) (A) (A) (A) (A)
                 (A) (A) (A) (A) (A) (A) (A) (A) (A) (A) (A) (A)
                 (A) (A) (A) (A) (A) (A) (A) (A) (A) (A) (A) (A)
                 (A) (A) (A) (A) (A) (A) (A) (A) (A) (A) (A) (A)
                 (A) (A) (A) (A) (A) (A) (A) (A) (A) (A) (A) (A)
                 (A) (A) (A) (A) (A) (A) (A) (A) (A) (A) (A) (A)
                 (A) (A) (A) (A) (A) (A) (A) (A) (A) (A) (A) (A)
                 (A) (A) (A) (A) (A) (A) (A) (A) (A) (A) (A) (A)
                 (A) (A) (A) (A) (A) (A) (A) (A) (A) (A) (A) (A)
                 (A) (A) (A) (A) (A) (A) (A) (A) (A) (A) (A) (A)
                 (A) (A) (A) (A) (A) (A) (A) (A) (A) (A) (A) (A)
                 (A) (A) (A) (A) (A) (A) (A) (A) (A) (A) (A) (A)
                 (A) (A) (A) (A) (A) (A) (A) (A) (A) (A) (A) (A)
                 (A) (A) (A) (A) (A) (A) (A) (A) (A) (A) (A) (A)
                 (A) (A) (A) (A) (A) (A) (A) (A) (A) (A) (A) (A)
                 (A) (A) (A) (A) (A) (A) (A) (A) (A) (A) (A) (A)
                 (A) (A) (A) (A) (A) (A) (A) (A) (A) (A) (A) (A)
                 (A) (A) (A) (A) (A) (A) (A) (A) (A) (A) (A) (A)
                 (A) (A) (A) (A) (A) (A) (A) (A) (A) (A) (A) (A)
                 (A) (A) (A) (A) (A) (A) (A) (A) (A) (A) (A) (A)
                 (A) (A) (A) (A) (A) (A) (A) (A) (A) (A) (A) (A)
                 (A) (A) (A) (A) (A) (A) (A) (A) (A) (A) (A) (A)
                 (A) (A) (A) (A) (A) (A) (A) (A) (A) (A) (A) (A)
                 (A) (A) (A) (A) (A) (A) (A) (A) (A) (A) (A) (A)
                 (A) (A) (A) (A) (A) (A) (A) (A) (A) (A) (A) (A)
                 (A) (A) (A) (A) (A) (A) (A) (A) (A) (A) (A) (A)
                 (A) (A) (A) (A) (A) (A) (A) (A) (A) (A) (A) (A)
                 (A) (A) (A) (A) (A) (A) (A) (A) (A) (A) (A) (A)
                 (A) (A) (A) (A) (A) (A) (A) (A) (A) (A) (A) (A)
                 (A) (A) (A) (A) (A) (A) (A) (A) (A) (A) (A) (A)
                 (A) (A) (A) (A) (A) (A) (A) (A) (A) (A) (A) (A)
                 (A) (A) (A) (A) (A) (A) (A) (A) (A) (A) (A) (A)
                 (A) (A) (A) (A) (A) (A) (A) (A) (A) (A) (A) (A)
                 (A) (A) (A) (A) (A) (A) (A) (A) (A) (A) (A) (A)
                 (A) (A) (A) (A) (A) (A) (A) (A) (A) (A) (A) (A)
                 (A) (A) (A) (A) (A) (A) (A) (A) (A) (A) (A) (A)
                 (A) (A) (A) (A) (A) (A) (A) (A) (A) (A) (A) (A)
                 (A) (A) (A) (A) (A) (A) (A) (A) (A) (A) (A) (A)
                 (A) (A) (A) (A) (A) (A) (A) (A) (A) (A) (A) (A)
                 (A) (A) (A) (A) (A) (A) (A) (A) (A) (A) (A) (A)
                 (A) (A) (A) (A) (A) (A) (A) (A) (A) (A) (A) (A)
                 (A) (A) (A) (A) (A) (A) (A) (A) (A) (A) (A) (A)
                 (A) (A) (A) (A) (A) (A) (A) (A) (A) (A) (A) (A)
                 (A) (A) (A) (A) (A) (A) (A) (A) (A) (A) (A) (A)
                 (A) (A) (A) (A) (A) (A) (A) (A) (A) (A) (A) (A)
                 (A) (A) (A) (A) (A) (A) (A) (A) (A) (A) (A) (A)
                 (A) (A) (A) (A) (A) (A) (A) (A) (A) (A) (A) (A)
                 (A) (A) (A) (A) (A) (A) (A) (A) (A) (A) (A) (A)
                 (A) (A) (A) (A) (A) (A) (A) (A) (A) (A) (A) (A)
                 (A) (A) (A) (A) (A) (A)
 The electronic state is 2-A.
 Alpha  occ. eigenvalues -- -256.45358 -30.23925 -26.07017 -26.06477 -26.05239
 Alpha  occ. eigenvalues --  -19.27308 -19.26239 -19.25869 -19.18891 -19.18688
 Alpha  occ. eigenvalues --  -14.47864 -14.44302 -14.41722 -14.41109 -14.40958
 Alpha  occ. eigenvalues --  -14.40896 -10.35932 -10.35696 -10.31291 -10.30099
 Alpha  occ. eigenvalues --  -10.28324 -10.28024 -10.27765 -10.27675 -10.27624
 Alpha  occ. eigenvalues --  -10.27592 -10.27547 -10.27473 -10.27419 -10.26922
 Alpha  occ. eigenvalues --  -10.25831 -10.25507 -10.25471 -10.25424 -10.25219
 Alpha  occ. eigenvalues --  -10.25209 -10.25202 -10.25144 -10.25097 -10.25060
 Alpha  occ. eigenvalues --  -10.24947 -10.24891 -10.24779 -10.24585 -10.24349
 Alpha  occ. eigenvalues --  -10.24243 -10.23986 -10.23791 -10.23432 -10.23212
 Alpha  occ. eigenvalues --  -10.23009 -10.22926 -10.21434  -3.59649  -2.36830
 Alpha  occ. eigenvalues --   -2.35560  -2.33049  -1.18517  -1.18412  -1.13542
 Alpha  occ. eigenvalues --   -1.11241  -1.04668  -1.04513  -1.03991  -1.03810
 Alpha  occ. eigenvalues --   -1.03453  -1.02712  -0.97577  -0.87951  -0.87670
 Alpha  occ. eigenvalues --   -0.86260  -0.86036  -0.85815  -0.85151  -0.84881
 Alpha  occ. eigenvalues --   -0.82325  -0.82280  -0.81329  -0.80934  -0.79031
 Alpha  occ. eigenvalues --   -0.78675  -0.76730  -0.76414  -0.74949  -0.74417
 Alpha  occ. eigenvalues --   -0.73248  -0.71395  -0.71096  -0.70065  -0.69997
 Alpha  occ. eigenvalues --   -0.69646  -0.67413  -0.67220  -0.66817  -0.65772
 Alpha  occ. eigenvalues --   -0.64982  -0.63230  -0.63105  -0.62610  -0.62119
 Alpha  occ. eigenvalues --   -0.59985  -0.58959  -0.58218  -0.57249  -0.56323
 Alpha  occ. eigenvalues --   -0.55960  -0.55562  -0.53650  -0.53342  -0.52860
 Alpha  occ. eigenvalues --   -0.52789  -0.52703  -0.52287  -0.52031  -0.51901
 Alpha  occ. eigenvalues --   -0.51843  -0.51481  -0.51241  -0.50864  -0.50806
 Alpha  occ. eigenvalues --   -0.49383  -0.48970  -0.48759  -0.48569  -0.48101
 Alpha  occ. eigenvalues --   -0.47756  -0.47728  -0.47485  -0.47292  -0.47029
 Alpha  occ. eigenvalues --   -0.46724  -0.45968  -0.45809  -0.45617  -0.44883
 Alpha  occ. eigenvalues --   -0.44354  -0.44261  -0.44032  -0.43790  -0.43402
 Alpha  occ. eigenvalues --   -0.43307  -0.43166  -0.42590  -0.42016  -0.41825
 Alpha  occ. eigenvalues --   -0.41471  -0.41205  -0.40977  -0.40835  -0.40827
 Alpha  occ. eigenvalues --   -0.40354  -0.40098  -0.39839  -0.39648  -0.39190
 Alpha  occ. eigenvalues --   -0.39119  -0.38750  -0.38469  -0.38118  -0.37155
 Alpha  occ. eigenvalues --   -0.36818  -0.36609  -0.36203  -0.36101  -0.35349
 Alpha  occ. eigenvalues --   -0.34633  -0.34592  -0.34373  -0.34125  -0.33924
 Alpha  occ. eigenvalues --   -0.33634  -0.33525  -0.31480  -0.30866  -0.29316
 Alpha  occ. eigenvalues --   -0.28989  -0.28229  -0.27091  -0.26695  -0.26320
 Alpha  occ. eigenvalues --   -0.24706  -0.23328  -0.22699  -0.22172
 Alpha virt. eigenvalues --   -0.11524  -0.11274  -0.10653  -0.09272  -0.06871
 Alpha virt. eigenvalues --   -0.03659  -0.02139  -0.01561  -0.01407  -0.01061
 Alpha virt. eigenvalues --   -0.00684   0.00592   0.01973   0.02561   0.03078
 Alpha virt. eigenvalues --    0.03269   0.03472   0.03947   0.04184   0.04416
 Alpha virt. eigenvalues --    0.05194   0.05613   0.05724   0.05988   0.06524
 Alpha virt. eigenvalues --    0.06870   0.07161   0.07317   0.07413   0.07642
 Alpha virt. eigenvalues --    0.07736   0.08051   0.08559   0.09156   0.09383
 Alpha virt. eigenvalues --    0.09550   0.10091   0.10270   0.10510   0.10984
 Alpha virt. eigenvalues --    0.11167   0.11627   0.11783   0.12004   0.12121
 Alpha virt. eigenvalues --    0.12227   0.12620   0.12801   0.12907   0.13347
 Alpha virt. eigenvalues --    0.13453   0.13788   0.14366   0.14413   0.14493
 Alpha virt. eigenvalues --    0.14632   0.14872   0.15307   0.15439   0.15809
 Alpha virt. eigenvalues --    0.16005   0.16097   0.16315   0.16510   0.16751
 Alpha virt. eigenvalues --    0.16927   0.17158   0.17277   0.17675   0.17714
 Alpha virt. eigenvalues --    0.17965   0.18328   0.18539   0.18869   0.19021
 Alpha virt. eigenvalues --    0.19365   0.19496   0.19611   0.19819   0.20152
 Alpha virt. eigenvalues --    0.20522   0.20644   0.20804   0.20909   0.21120
 Alpha virt. eigenvalues --    0.21385   0.21438   0.21646   0.21928   0.22180
 Alpha virt. eigenvalues --    0.22255   0.22335   0.22761   0.22842   0.22931
 Alpha virt. eigenvalues --    0.23170   0.23602   0.23690   0.24068   0.24622
 Alpha virt. eigenvalues --    0.24837   0.25058   0.25175   0.25304   0.25352
 Alpha virt. eigenvalues --    0.25629   0.25980   0.26044   0.26426   0.26676
 Alpha virt. eigenvalues --    0.26817   0.27197   0.27475   0.27600   0.27771
 Alpha virt. eigenvalues --    0.27815   0.28233   0.28280   0.28484   0.28669
 Alpha virt. eigenvalues --    0.29176   0.29507   0.29671   0.29922   0.30388
 Alpha virt. eigenvalues --    0.30519   0.30734   0.31074   0.31487   0.31691
 Alpha virt. eigenvalues --    0.31939   0.32533   0.32607   0.32705   0.32928
 Alpha virt. eigenvalues --    0.33212   0.33688   0.33735   0.33960   0.34425
 Alpha virt. eigenvalues --    0.34884   0.34988   0.35335   0.35581   0.35734
 Alpha virt. eigenvalues --    0.36033   0.36310   0.36457   0.36711   0.36845
 Alpha virt. eigenvalues --    0.37047   0.37191   0.37418   0.37497   0.37653
 Alpha virt. eigenvalues --    0.37860   0.37981   0.38239   0.38556   0.38979
 Alpha virt. eigenvalues --    0.39153   0.39290   0.39458   0.39528   0.39741
 Alpha virt. eigenvalues --    0.40029   0.40160   0.40269   0.40585   0.40673
 Alpha virt. eigenvalues --    0.40937   0.41219   0.41392   0.41556   0.41910
 Alpha virt. eigenvalues --    0.42039   0.42392   0.42650   0.42782   0.43160
 Alpha virt. eigenvalues --    0.43315   0.43627   0.43783   0.43970   0.44183
 Alpha virt. eigenvalues --    0.44473   0.44596   0.44682   0.45158   0.45335
 Alpha virt. eigenvalues --    0.45473   0.45830   0.45900   0.46185   0.46303
 Alpha virt. eigenvalues --    0.46575   0.46797   0.46846   0.46942   0.47057
 Alpha virt. eigenvalues --    0.47257   0.47653   0.47867   0.47990   0.48102
 Alpha virt. eigenvalues --    0.48279   0.48589   0.48799   0.48990   0.49148
 Alpha virt. eigenvalues --    0.49356   0.49477   0.49617   0.49860   0.50032
 Alpha virt. eigenvalues --    0.50294   0.50587   0.50650   0.50852   0.51158
 Alpha virt. eigenvalues --    0.51215   0.51490   0.51804   0.51815   0.52003
 Alpha virt. eigenvalues --    0.52395   0.52609   0.52766   0.52875   0.52983
 Alpha virt. eigenvalues --    0.53383   0.53761   0.53980   0.54050   0.54377
 Alpha virt. eigenvalues --    0.54688   0.54827   0.54863   0.55224   0.55423
 Alpha virt. eigenvalues --    0.55525   0.55758   0.55869   0.56432   0.56671
 Alpha virt. eigenvalues --    0.57013   0.57139   0.57188   0.57473   0.57864
 Alpha virt. eigenvalues --    0.58011   0.58172   0.58665   0.58734   0.59002
 Alpha virt. eigenvalues --    0.59095   0.59735   0.60276   0.60466   0.60567
 Alpha virt. eigenvalues --    0.60722   0.60911   0.61315   0.61447   0.61641
 Alpha virt. eigenvalues --    0.61909   0.62369   0.62629   0.62845   0.63085
 Alpha virt. eigenvalues --    0.63386   0.63597   0.63841   0.64431   0.64783
 Alpha virt. eigenvalues --    0.64889   0.65069   0.65299   0.65570   0.65680
 Alpha virt. eigenvalues --    0.65923   0.66210   0.66438   0.66578   0.66797
 Alpha virt. eigenvalues --    0.67037   0.67253   0.67514   0.67670   0.67985
 Alpha virt. eigenvalues --    0.68205   0.68500   0.68884   0.69043   0.69283
 Alpha virt. eigenvalues --    0.69434   0.69919   0.70161   0.70470   0.70598
 Alpha virt. eigenvalues --    0.71001   0.71184   0.71517   0.71753   0.72032
 Alpha virt. eigenvalues --    0.72366   0.72781   0.73170   0.73276   0.73567
 Alpha virt. eigenvalues --    0.74022   0.74199   0.74375   0.74893   0.75097
 Alpha virt. eigenvalues --    0.75233   0.75627   0.75723   0.75900   0.76284
 Alpha virt. eigenvalues --    0.76629   0.77180   0.77225   0.77302   0.77632
 Alpha virt. eigenvalues --    0.78069   0.78483   0.79168   0.79236   0.79678
 Alpha virt. eigenvalues --    0.79995   0.80468   0.80593   0.80906   0.81303
 Alpha virt. eigenvalues --    0.81491   0.81785   0.82122   0.82466   0.82752
 Alpha virt. eigenvalues --    0.83126   0.83645   0.83837   0.84073   0.84352
 Alpha virt. eigenvalues --    0.84529   0.84915   0.85386   0.85864   0.86092
 Alpha virt. eigenvalues --    0.86134   0.86685   0.86822   0.87141   0.87572
 Alpha virt. eigenvalues --    0.88110   0.88310   0.88647   0.89286   0.89715
 Alpha virt. eigenvalues --    0.90159   0.90214   0.90304   0.90970   0.90986
 Alpha virt. eigenvalues --    0.91490   0.91662   0.91840   0.92445   0.92756
 Alpha virt. eigenvalues --    0.93232   0.93605   0.93691   0.93871   0.94315
 Alpha virt. eigenvalues --    0.94611   0.94776   0.95037   0.95332   0.96283
 Alpha virt. eigenvalues --    0.96459   0.97256   0.97322   0.97428   0.97560
 Alpha virt. eigenvalues --    0.97696   0.97999   0.98419   0.98729   0.98848
 Alpha virt. eigenvalues --    0.99155   0.99789   1.00188   1.00489   1.00737
 Alpha virt. eigenvalues --    1.01097   1.01212   1.01579   1.01710   1.02291
 Alpha virt. eigenvalues --    1.02616   1.03007   1.03224   1.03321   1.03633
 Alpha virt. eigenvalues --    1.03828   1.04091   1.04393   1.04907   1.05207
 Alpha virt. eigenvalues --    1.05518   1.05756   1.06142   1.06460   1.06799
 Alpha virt. eigenvalues --    1.07371   1.07458   1.07664   1.08325   1.08564
 Alpha virt. eigenvalues --    1.09029   1.09130   1.09631   1.10037   1.10443
 Alpha virt. eigenvalues --    1.10515   1.11054   1.11546   1.11967   1.12153
 Alpha virt. eigenvalues --    1.12232   1.12683   1.12906   1.13574   1.13837
 Alpha virt. eigenvalues --    1.14238   1.14322   1.14889   1.14971   1.15616
 Alpha virt. eigenvalues --    1.16181   1.16897   1.17061   1.17342   1.17557
 Alpha virt. eigenvalues --    1.17890   1.18776   1.18800   1.19321   1.19646
 Alpha virt. eigenvalues --    1.20056   1.20425   1.20781   1.21139   1.21512
 Alpha virt. eigenvalues --    1.21757   1.21962   1.22184   1.22913   1.23476
 Alpha virt. eigenvalues --    1.23637   1.24005   1.24271   1.24802   1.25191
 Alpha virt. eigenvalues --    1.25628   1.25759   1.26624   1.27278   1.27560
 Alpha virt. eigenvalues --    1.27943   1.28502   1.28836   1.29567   1.29615
 Alpha virt. eigenvalues --    1.30160   1.30362   1.30669   1.30923   1.31261
 Alpha virt. eigenvalues --    1.31724   1.31927   1.32675   1.33028   1.33528
 Alpha virt. eigenvalues --    1.34162   1.34462   1.34718   1.34949   1.35638
 Alpha virt. eigenvalues --    1.35855   1.36285   1.36453   1.36715   1.37957
 Alpha virt. eigenvalues --    1.38057   1.38353   1.39101   1.39571   1.39963
 Alpha virt. eigenvalues --    1.40253   1.40480   1.41071   1.41543   1.41736
 Alpha virt. eigenvalues --    1.42692   1.42944   1.43173   1.43381   1.43600
 Alpha virt. eigenvalues --    1.44017   1.44241   1.44823   1.45084   1.45488
 Alpha virt. eigenvalues --    1.45716   1.45901   1.46262   1.46452   1.46624
 Alpha virt. eigenvalues --    1.46816   1.47216   1.47313   1.47711   1.48096
 Alpha virt. eigenvalues --    1.48645   1.48790   1.49127   1.49193   1.49414
 Alpha virt. eigenvalues --    1.50054   1.50431   1.50851   1.51013   1.51213
 Alpha virt. eigenvalues --    1.51567   1.52408   1.52805   1.53171   1.53484
 Alpha virt. eigenvalues --    1.53817   1.54214   1.54230   1.54872   1.55078
 Alpha virt. eigenvalues --    1.55132   1.55448   1.55703   1.55998   1.56532
 Alpha virt. eigenvalues --    1.56733   1.56890   1.57048   1.57430   1.57790
 Alpha virt. eigenvalues --    1.57969   1.58379   1.58425   1.58921   1.59536
 Alpha virt. eigenvalues --    1.59675   1.59797   1.59961   1.60289   1.60511
 Alpha virt. eigenvalues --    1.60776   1.61350   1.61387   1.61619   1.61926
 Alpha virt. eigenvalues --    1.62277   1.62761   1.62965   1.63013   1.63309
 Alpha virt. eigenvalues --    1.63970   1.64085   1.64608   1.64874   1.65041
 Alpha virt. eigenvalues --    1.65367   1.65769   1.66427   1.66782   1.67202
 Alpha virt. eigenvalues --    1.67309   1.67545   1.67628   1.68329   1.68775
 Alpha virt. eigenvalues --    1.69018   1.69553   1.69849   1.70148   1.70304
 Alpha virt. eigenvalues --    1.70610   1.70954   1.71673   1.71813   1.72221
 Alpha virt. eigenvalues --    1.72495   1.72520   1.72993   1.73344   1.73523
 Alpha virt. eigenvalues --    1.74050   1.74511   1.74642   1.74871   1.74923
 Alpha virt. eigenvalues --    1.75338   1.75724   1.76441   1.77003   1.77365
 Alpha virt. eigenvalues --    1.77817   1.78252   1.78646   1.78730   1.79111
 Alpha virt. eigenvalues --    1.79876   1.79929   1.80131   1.80317   1.80611
 Alpha virt. eigenvalues --    1.81138   1.81596   1.81990   1.82357   1.82500
 Alpha virt. eigenvalues --    1.82632   1.83068   1.83289   1.83600   1.83922
 Alpha virt. eigenvalues --    1.84214   1.84596   1.85057   1.85748   1.86168
 Alpha virt. eigenvalues --    1.86441   1.86701   1.87311   1.87538   1.87899
 Alpha virt. eigenvalues --    1.88551   1.88682   1.89140   1.89774   1.90153
 Alpha virt. eigenvalues --    1.90469   1.90990   1.91263   1.91705   1.92116
 Alpha virt. eigenvalues --    1.92858   1.93091   1.93398   1.93514   1.94002
 Alpha virt. eigenvalues --    1.94486   1.94707   1.95131   1.95725   1.95928
 Alpha virt. eigenvalues --    1.96231   1.96376   1.96494   1.97432   1.97711
 Alpha virt. eigenvalues --    1.97925   1.98156   1.98413   1.99043   1.99322
 Alpha virt. eigenvalues --    1.99569   1.99840   2.00357   2.01325   2.01710
 Alpha virt. eigenvalues --    2.02096   2.02226   2.02989   2.03184   2.03531
 Alpha virt. eigenvalues --    2.03823   2.04016   2.04975   2.05208   2.05842
 Alpha virt. eigenvalues --    2.05982   2.06651   2.06740   2.07442   2.07543
 Alpha virt. eigenvalues --    2.08164   2.08407   2.08819   2.09070   2.09677
 Alpha virt. eigenvalues --    2.10010   2.10489   2.10759   2.11192   2.11654
 Alpha virt. eigenvalues --    2.11840   2.12051   2.12784   2.12979   2.13741
 Alpha virt. eigenvalues --    2.13895   2.14260   2.14784   2.15024   2.15394
 Alpha virt. eigenvalues --    2.15758   2.15979   2.16285   2.16881   2.17359
 Alpha virt. eigenvalues --    2.17629   2.18112   2.18336   2.18511   2.19386
 Alpha virt. eigenvalues --    2.19455   2.19840   2.20199   2.20645   2.21138
 Alpha virt. eigenvalues --    2.21251   2.21673   2.22368   2.22697   2.23171
 Alpha virt. eigenvalues --    2.24023   2.24496   2.24819   2.25716   2.25863
 Alpha virt. eigenvalues --    2.26208   2.26786   2.27621   2.27835   2.28078
 Alpha virt. eigenvalues --    2.29184   2.29326   2.29589   2.30440   2.30836
 Alpha virt. eigenvalues --    2.31185   2.31771   2.32043   2.32285   2.32790
 Alpha virt. eigenvalues --    2.33164   2.33326   2.33378   2.33825   2.33988
 Alpha virt. eigenvalues --    2.34420   2.34804   2.35561   2.36446   2.36821
 Alpha virt. eigenvalues --    2.37037   2.37448   2.37822   2.37897   2.38091
 Alpha virt. eigenvalues --    2.38417   2.38834   2.39443   2.39878   2.40352
 Alpha virt. eigenvalues --    2.40862   2.41237   2.41448   2.41658   2.42057
 Alpha virt. eigenvalues --    2.42916   2.43181   2.43770   2.43817   2.44358
 Alpha virt. eigenvalues --    2.45227   2.45459   2.45885   2.45986   2.46388
 Alpha virt. eigenvalues --    2.47186   2.47908   2.48276   2.48439   2.49290
 Alpha virt. eigenvalues --    2.49555   2.49599   2.50304   2.50902   2.51008
 Alpha virt. eigenvalues --    2.51290   2.51692   2.52266   2.52559   2.53040
 Alpha virt. eigenvalues --    2.53073   2.53410   2.53738   2.54361   2.54571
 Alpha virt. eigenvalues --    2.55184   2.55295   2.55677   2.56051   2.56224
 Alpha virt. eigenvalues --    2.56579   2.56753   2.57151   2.57247   2.57613
 Alpha virt. eigenvalues --    2.58004   2.58381   2.58479   2.59021   2.59158
 Alpha virt. eigenvalues --    2.60219   2.60392   2.60767   2.61162   2.61628
 Alpha virt. eigenvalues --    2.61850   2.62081   2.62734   2.63056   2.63208
 Alpha virt. eigenvalues --    2.63391   2.63620   2.64297   2.64499   2.65203
 Alpha virt. eigenvalues --    2.65313   2.65947   2.66245   2.66326   2.66572
 Alpha virt. eigenvalues --    2.67035   2.67419   2.67604   2.68065   2.68563
 Alpha virt. eigenvalues --    2.68801   2.69282   2.69842   2.70478   2.70620
 Alpha virt. eigenvalues --    2.70756   2.71018   2.71946   2.72040   2.72317
 Alpha virt. eigenvalues --    2.72592   2.73075   2.73324   2.73522   2.74306
 Alpha virt. eigenvalues --    2.74794   2.74884   2.74941   2.75126   2.75523
 Alpha virt. eigenvalues --    2.75955   2.76642   2.77184   2.77465   2.77562
 Alpha virt. eigenvalues --    2.78053   2.78348   2.78711   2.79275   2.79674
 Alpha virt. eigenvalues --    2.80075   2.80174   2.80725   2.80908   2.81109
 Alpha virt. eigenvalues --    2.81421   2.81709   2.82442   2.82600   2.82959
 Alpha virt. eigenvalues --    2.83340   2.83553   2.83864   2.84219   2.84558
 Alpha virt. eigenvalues --    2.85037   2.85624   2.85836   2.86020   2.86302
 Alpha virt. eigenvalues --    2.86433   2.86664   2.87424   2.87966   2.88506
 Alpha virt. eigenvalues --    2.88941   2.89261   2.89990   2.90275   2.90308
 Alpha virt. eigenvalues --    2.90726   2.90811   2.91323   2.91750   2.91973
 Alpha virt. eigenvalues --    2.92540   2.92740   2.92968   2.93409   2.93473
 Alpha virt. eigenvalues --    2.93692   2.94343   2.94641   2.94784   2.94845
 Alpha virt. eigenvalues --    2.95143   2.95559   2.96093   2.96423   2.96790
 Alpha virt. eigenvalues --    2.96958   2.97175   2.97434   2.97562   2.98000
 Alpha virt. eigenvalues --    2.98234   2.98644   2.98838   2.99095   2.99459
 Alpha virt. eigenvalues --    3.00029   3.00246   3.00401   3.00829   3.00838
 Alpha virt. eigenvalues --    3.01020   3.01246   3.01915   3.02308   3.02525
 Alpha virt. eigenvalues --    3.02640   3.03060   3.03981   3.04138   3.04350
 Alpha virt. eigenvalues --    3.04439   3.04738   3.04955   3.05524   3.05750
 Alpha virt. eigenvalues --    3.06072   3.06740   3.07213   3.07384   3.07416
 Alpha virt. eigenvalues --    3.07656   3.07982   3.08269   3.08714   3.08847
 Alpha virt. eigenvalues --    3.09361   3.09416   3.09880   3.09967   3.10504
 Alpha virt. eigenvalues --    3.10827   3.11022   3.11250   3.11708   3.11878
 Alpha virt. eigenvalues --    3.12117   3.12258   3.12801   3.13157   3.13615
 Alpha virt. eigenvalues --    3.13788   3.14124   3.14282   3.14832   3.14948
 Alpha virt. eigenvalues --    3.15238   3.15577   3.15688   3.16106   3.16527
 Alpha virt. eigenvalues --    3.16567   3.17365   3.17740   3.18080   3.18754
 Alpha virt. eigenvalues --    3.19064   3.19331   3.19570   3.19666   3.19822
 Alpha virt. eigenvalues --    3.20350   3.20670   3.21173   3.21698   3.22129
 Alpha virt. eigenvalues --    3.22199   3.22546   3.22632   3.23121   3.23392
 Alpha virt. eigenvalues --    3.23586   3.24099   3.24344   3.24520   3.25022
 Alpha virt. eigenvalues --    3.25284   3.25434   3.25732   3.25804   3.26023
 Alpha virt. eigenvalues --    3.26163   3.26970   3.27008   3.27211   3.27456
 Alpha virt. eigenvalues --    3.27772   3.28170   3.28453   3.28851   3.29065
 Alpha virt. eigenvalues --    3.29211   3.29631   3.29860   3.30051   3.30199
 Alpha virt. eigenvalues --    3.30581   3.30906   3.31346   3.31615   3.31763
 Alpha virt. eigenvalues --    3.31836   3.32351   3.32490   3.32585   3.32763
 Alpha virt. eigenvalues --    3.33172   3.33324   3.33669   3.33812   3.34029
 Alpha virt. eigenvalues --    3.34264   3.34389   3.34818   3.35209   3.35313
 Alpha virt. eigenvalues --    3.35538   3.35862   3.36246   3.36607   3.36851
 Alpha virt. eigenvalues --    3.37188   3.37318   3.37915   3.38278   3.38555
 Alpha virt. eigenvalues --    3.38972   3.39057   3.39689   3.39801   3.40008
 Alpha virt. eigenvalues --    3.40383   3.40621   3.40902   3.41174   3.41596
 Alpha virt. eigenvalues --    3.41863   3.41982   3.42647   3.43236   3.43490
 Alpha virt. eigenvalues --    3.43981   3.44359   3.44530   3.44803   3.45261
 Alpha virt. eigenvalues --    3.45479   3.45917   3.46353   3.46628   3.47139
 Alpha virt. eigenvalues --    3.47505   3.47654   3.47827   3.48515   3.48551
 Alpha virt. eigenvalues --    3.48858   3.49282   3.49722   3.49767   3.50192
 Alpha virt. eigenvalues --    3.50763   3.50902   3.51105   3.51733   3.52102
 Alpha virt. eigenvalues --    3.52431   3.52602   3.53006   3.54083   3.54282
 Alpha virt. eigenvalues --    3.54530   3.54666   3.55010   3.55313   3.55583
 Alpha virt. eigenvalues --    3.55744   3.56336   3.57140   3.57380   3.57759
 Alpha virt. eigenvalues --    3.58235   3.58408   3.59052   3.59129   3.59499
 Alpha virt. eigenvalues --    3.59628   3.60365   3.61147   3.61457   3.61520
 Alpha virt. eigenvalues --    3.62271   3.62742   3.62847   3.63290   3.63756
 Alpha virt. eigenvalues --    3.63921   3.64212   3.64514   3.64717   3.64890
 Alpha virt. eigenvalues --    3.65391   3.65905   3.66464   3.66728   3.67133
 Alpha virt. eigenvalues --    3.67398   3.67774   3.67781   3.68747   3.69325
 Alpha virt. eigenvalues --    3.69535   3.69816   3.70215   3.70798   3.70841
 Alpha virt. eigenvalues --    3.71335   3.71561   3.72104   3.72334   3.72482
 Alpha virt. eigenvalues --    3.73082   3.73651   3.74191   3.74877   3.74960
 Alpha virt. eigenvalues --    3.75023   3.75271   3.75895   3.76065   3.76690
 Alpha virt. eigenvalues --    3.77320   3.77707   3.78400   3.78636   3.78900
 Alpha virt. eigenvalues --    3.79943   3.80082   3.80869   3.81258   3.81689
 Alpha virt. eigenvalues --    3.81895   3.82678   3.82786   3.83374   3.84488
 Alpha virt. eigenvalues --    3.84807   3.85174   3.85572   3.86086   3.86389
 Alpha virt. eigenvalues --    3.86695   3.87605   3.88128   3.88600   3.88945
 Alpha virt. eigenvalues --    3.89495   3.90612   3.90755   3.91580   3.91812
 Alpha virt. eigenvalues --    3.92966   3.93524   3.93745   3.93962   3.94757
 Alpha virt. eigenvalues --    3.95580   3.96107   3.96512   3.96720   3.97453
 Alpha virt. eigenvalues --    3.98045   3.98483   3.99257   3.99401   3.99969
 Alpha virt. eigenvalues --    4.00327   4.00859   4.01518   4.02292   4.02761
 Alpha virt. eigenvalues --    4.03148   4.03266   4.03836   4.04161   4.05101
 Alpha virt. eigenvalues --    4.06035   4.06312   4.07043   4.07241   4.07599
 Alpha virt. eigenvalues --    4.07740   4.08439   4.09054   4.09997   4.10346
 Alpha virt. eigenvalues --    4.10868   4.11002   4.11858   4.12163   4.12815
 Alpha virt. eigenvalues --    4.13263   4.14316   4.14427   4.14749   4.15631
 Alpha virt. eigenvalues --    4.15873   4.16474   4.16752   4.17001   4.18045
 Alpha virt. eigenvalues --    4.18369   4.18814   4.19613   4.19827   4.20219
 Alpha virt. eigenvalues --    4.20513   4.21344   4.21819   4.22289   4.22500
 Alpha virt. eigenvalues --    4.23535   4.23896   4.24524   4.24994   4.25073
 Alpha virt. eigenvalues --    4.25337   4.25764   4.26654   4.27106   4.27678
 Alpha virt. eigenvalues --    4.27878   4.28329   4.28811   4.29202   4.29792
 Alpha virt. eigenvalues --    4.30402   4.30564   4.31469   4.32082   4.32770
 Alpha virt. eigenvalues --    4.33029   4.33676   4.33944   4.35348   4.36131
 Alpha virt. eigenvalues --    4.36415   4.36939   4.37530   4.38903   4.39728
 Alpha virt. eigenvalues --    4.39930   4.41261   4.41672   4.42231   4.42764
 Alpha virt. eigenvalues --    4.43408   4.44036   4.44560   4.45069   4.45878
 Alpha virt. eigenvalues --    4.46429   4.46801   4.48693   4.49288   4.49830
 Alpha virt. eigenvalues --    4.50248   4.50882   4.51316   4.52714   4.53438
 Alpha virt. eigenvalues --    4.54000   4.54413   4.54868   4.56224   4.56394
 Alpha virt. eigenvalues --    4.57931   4.58342   4.58542   4.59231   4.59939
 Alpha virt. eigenvalues --    4.60349   4.60991   4.62757   4.63140   4.63503
 Alpha virt. eigenvalues --    4.64483   4.65530   4.65583   4.66475   4.67500
 Alpha virt. eigenvalues --    4.68390   4.68850   4.70144   4.71014   4.71677
 Alpha virt. eigenvalues --    4.72074   4.72694   4.73382   4.74968   4.75720
 Alpha virt. eigenvalues --    4.76146   4.76568   4.76937   4.77523   4.78284
 Alpha virt. eigenvalues --    4.78739   4.79180   4.79461   4.80045   4.80415
 Alpha virt. eigenvalues --    4.81423   4.81684   4.81969   4.82695   4.84368
 Alpha virt. eigenvalues --    4.85857   4.86634   4.88082   4.88540   4.88779
 Alpha virt. eigenvalues --    4.89229   4.89476   4.91036   4.91914   4.92368
 Alpha virt. eigenvalues --    4.93147   4.94449   4.94954   4.95462   4.96306
 Alpha virt. eigenvalues --    4.97232   4.97346   4.97901   4.98261   4.99939
 Alpha virt. eigenvalues --    5.01463   5.03100   5.03515   5.03800   5.04361
 Alpha virt. eigenvalues --    5.06326   5.06784   5.07899   5.08519   5.09008
 Alpha virt. eigenvalues --    5.09399   5.10417   5.10847   5.11379   5.12686
 Alpha virt. eigenvalues --    5.13148   5.14600   5.15858   5.16017   5.16258
 Alpha virt. eigenvalues --    5.16480   5.17655   5.18480   5.18722   5.18881
 Alpha virt. eigenvalues --    5.19318   5.19872   5.20818   5.22521   5.22889
 Alpha virt. eigenvalues --    5.23482   5.23911   5.24085   5.25267   5.25402
 Alpha virt. eigenvalues --    5.26463   5.26722   5.27507   5.28768   5.30469
 Alpha virt. eigenvalues --    5.32611   5.32849   5.34914   5.36268   5.36661
 Alpha virt. eigenvalues --    5.37699   5.37951   5.38939   5.39540   5.40372
 Alpha virt. eigenvalues --    5.40841   5.42133   5.42666   5.43410   5.43908
 Alpha virt. eigenvalues --    5.45008   5.47069   5.47420   5.47878   5.49157
 Alpha virt. eigenvalues --    5.49825   5.51103   5.52695   5.53717   5.54701
 Alpha virt. eigenvalues --    5.56015   5.56622   5.57113   5.57693   5.59000
 Alpha virt. eigenvalues --    5.59580   5.60134   5.61378   5.62460   5.63539
 Alpha virt. eigenvalues --    5.64298   5.65020   5.66867   5.67679   5.68655
 Alpha virt. eigenvalues --    5.69017   5.70205   5.71411   5.72547   5.74828
 Alpha virt. eigenvalues --    5.76964   5.77679   5.79808   5.82552   5.83450
 Alpha virt. eigenvalues --    5.83819   5.84126   5.86791   5.87398   5.90584
 Alpha virt. eigenvalues --    5.93651   5.94055   5.98249   5.99456   6.00787
 Alpha virt. eigenvalues --    6.02165   6.07200   6.09495   6.10784   6.11675
 Alpha virt. eigenvalues --    6.12407   6.12969   6.14124   6.16622   6.23036
 Alpha virt. eigenvalues --    6.23125   6.24227   6.24287   6.24605   6.32392
 Alpha virt. eigenvalues --    6.33796   6.36202   6.36829   6.39595   6.39748
 Alpha virt. eigenvalues --    6.42008   6.43281   6.43540   6.46889   6.48288
 Alpha virt. eigenvalues --    6.49372   6.51226   6.52128   6.53020   6.61499
 Alpha virt. eigenvalues --    6.64472   6.67123   6.69978   6.77490   6.81008
 Alpha virt. eigenvalues --    6.83390   6.84881   6.96637   6.97409   7.02882
 Alpha virt. eigenvalues --    7.05310   7.06735   7.11640   7.11859   7.16006
 Alpha virt. eigenvalues --    7.18849   7.19973   7.27710   7.31524  22.33095
 Alpha virt. eigenvalues --   22.33879  22.40440  22.50226  22.51646  22.52679
 Alpha virt. eigenvalues --   22.59866  22.64317  22.68056  22.68557  22.70434
 Alpha virt. eigenvalues --   22.78268  22.81436  22.93856  22.95433  22.98795
 Alpha virt. eigenvalues --   22.99635  23.05634  23.06762  23.08734  23.10026
 Alpha virt. eigenvalues --   23.16752  23.17667  23.31241  23.37458  23.42534
 Alpha virt. eigenvalues --   23.44228  23.45973  23.53928  23.56617  23.57582
 Alpha virt. eigenvalues --   23.67589  23.73123  23.80733  23.92947  23.95864
 Alpha virt. eigenvalues --   24.05663  32.45753  32.70389  32.97396  33.01059
 Alpha virt. eigenvalues --   33.03990  33.14567  43.92600  43.95525  43.98098
 Alpha virt. eigenvalues --   43.99203  44.18213
  Beta  occ. eigenvalues -- -256.45324 -30.21675 -26.04747 -26.04537 -26.03781
  Beta  occ. eigenvalues --  -19.27360 -19.26239 -19.25869 -19.18890 -19.18688
  Beta  occ. eigenvalues --  -14.47860 -14.44394 -14.41780 -14.41179 -14.41007
  Beta  occ. eigenvalues --  -14.40952 -10.35932 -10.35696 -10.31261 -10.30086
  Beta  occ. eigenvalues --  -10.28322 -10.28022 -10.27764 -10.27674 -10.27621
  Beta  occ. eigenvalues --  -10.27590 -10.27547 -10.27471 -10.27418 -10.26925
  Beta  occ. eigenvalues --  -10.25834 -10.25508 -10.25482 -10.25439 -10.25225
  Beta  occ. eigenvalues --  -10.25212 -10.25206 -10.25153 -10.25080 -10.25067
  Beta  occ. eigenvalues --  -10.24948 -10.24877 -10.24764 -10.24581 -10.24325
  Beta  occ. eigenvalues --  -10.24244 -10.23984 -10.23792 -10.23431 -10.23213
  Beta  occ. eigenvalues --  -10.23009 -10.22926 -10.21429  -3.54124  -2.29588
  Beta  occ. eigenvalues --   -2.29446  -2.28560  -1.18517  -1.18412  -1.13548
  Beta  occ. eigenvalues --   -1.11323  -1.04667  -1.04548  -1.03991  -1.03852
  Beta  occ. eigenvalues --   -1.03487  -1.02746  -0.97628  -0.87947  -0.87678
  Beta  occ. eigenvalues --   -0.86258  -0.86037  -0.85826  -0.85159  -0.84902
  Beta  occ. eigenvalues --   -0.82315  -0.82286  -0.81337  -0.80935  -0.79040
  Beta  occ. eigenvalues --   -0.78687  -0.76725  -0.76425  -0.74949  -0.74420
  Beta  occ. eigenvalues --   -0.73255  -0.71406  -0.71106  -0.70093  -0.70005
  Beta  occ. eigenvalues --   -0.69650  -0.67414  -0.67251  -0.66822  -0.65775
  Beta  occ. eigenvalues --   -0.64980  -0.63155  -0.63056  -0.62611  -0.62127
  Beta  occ. eigenvalues --   -0.59995  -0.58970  -0.58228  -0.57260  -0.56340
  Beta  occ. eigenvalues --   -0.55980  -0.55577  -0.53647  -0.53343  -0.52851
  Beta  occ. eigenvalues --   -0.52717  -0.52627  -0.52271  -0.52025  -0.51897
  Beta  occ. eigenvalues --   -0.51804  -0.51476  -0.51255  -0.50850  -0.50791
  Beta  occ. eigenvalues --   -0.49403  -0.48951  -0.48756  -0.48579  -0.48090
  Beta  occ. eigenvalues --   -0.47742  -0.47617  -0.47521  -0.47281  -0.47034
  Beta  occ. eigenvalues --   -0.46715  -0.45983  -0.45773  -0.45584  -0.44867
  Beta  occ. eigenvalues --   -0.44366  -0.44157  -0.44022  -0.43810  -0.43343
  Beta  occ. eigenvalues --   -0.43252  -0.43153  -0.42613  -0.41995  -0.41821
  Beta  occ. eigenvalues --   -0.41322  -0.41174  -0.40950  -0.40783  -0.40353
  Beta  occ. eigenvalues --   -0.40237  -0.39668  -0.39577  -0.39190  -0.39057
  Beta  occ. eigenvalues --   -0.38740  -0.38481  -0.38158  -0.37576  -0.36862
  Beta  occ. eigenvalues --   -0.36630  -0.36188  -0.36115  -0.35308  -0.35008
  Beta  occ. eigenvalues --   -0.34395  -0.34064  -0.33876  -0.33689  -0.32618
  Beta  occ. eigenvalues --   -0.31647  -0.31528  -0.30569  -0.29311  -0.28982
  Beta  occ. eigenvalues --   -0.28264  -0.27082  -0.26941  -0.26180  -0.24729
  Beta  occ. eigenvalues --   -0.23353  -0.22645  -0.22169
  Beta virt. eigenvalues --   -0.12767  -0.11401  -0.10139  -0.08097  -0.06801
  Beta virt. eigenvalues --   -0.06400  -0.03587  -0.02106  -0.01521  -0.01356
  Beta virt. eigenvalues --   -0.01044  -0.00496   0.00648   0.02154   0.02614
  Beta virt. eigenvalues --    0.03086   0.03288   0.03482   0.03964   0.04202
  Beta virt. eigenvalues --    0.04424   0.05208   0.05625   0.05766   0.06106
  Beta virt. eigenvalues --    0.06550   0.06946   0.07171   0.07340   0.07418
  Beta virt. eigenvalues --    0.07655   0.07743   0.08074   0.08569   0.09160
  Beta virt. eigenvalues --    0.09393   0.09559   0.10094   0.10280   0.10521
  Beta virt. eigenvalues --    0.11003   0.11187   0.11638   0.11810   0.12012
  Beta virt. eigenvalues --    0.12172   0.12238   0.12632   0.12815   0.12910
  Beta virt. eigenvalues --    0.13356   0.13463   0.13797   0.14370   0.14423
  Beta virt. eigenvalues --    0.14498   0.14638   0.14878   0.15320   0.15444
  Beta virt. eigenvalues --    0.15826   0.16011   0.16102   0.16323   0.16514
  Beta virt. eigenvalues --    0.16760   0.16932   0.17176   0.17280   0.17689
  Beta virt. eigenvalues --    0.17713   0.17966   0.18338   0.18559   0.18878
  Beta virt. eigenvalues --    0.19025   0.19394   0.19521   0.19640   0.19834
  Beta virt. eigenvalues --    0.20150   0.20533   0.20648   0.20826   0.20922
  Beta virt. eigenvalues --    0.21141   0.21403   0.21444   0.21678   0.21934
  Beta virt. eigenvalues --    0.22192   0.22269   0.22359   0.22777   0.22877
  Beta virt. eigenvalues --    0.22953   0.23182   0.23616   0.23706   0.24096
  Beta virt. eigenvalues --    0.24639   0.24854   0.25087   0.25209   0.25319
  Beta virt. eigenvalues --    0.25380   0.25650   0.26004   0.26060   0.26439
  Beta virt. eigenvalues --    0.26695   0.26842   0.27222   0.27499   0.27612
  Beta virt. eigenvalues --    0.27777   0.27903   0.28247   0.28370   0.28512
  Beta virt. eigenvalues --    0.28679   0.29211   0.29549   0.29716   0.29948
  Beta virt. eigenvalues --    0.30408   0.30553   0.30831   0.31121   0.31520
  Beta virt. eigenvalues --    0.31779   0.31980   0.32589   0.32707   0.32788
  Beta virt. eigenvalues --    0.32948   0.33243   0.33726   0.33830   0.33968
  Beta virt. eigenvalues --    0.34476   0.34921   0.35037   0.35391   0.35608
  Beta virt. eigenvalues --    0.35745   0.36065   0.36359   0.36496   0.36725
  Beta virt. eigenvalues --    0.36857   0.37052   0.37275   0.37449   0.37532
  Beta virt. eigenvalues --    0.37667   0.37869   0.38040   0.38248   0.38565
  Beta virt. eigenvalues --    0.39006   0.39173   0.39300   0.39471   0.39542
  Beta virt. eigenvalues --    0.39757   0.40054   0.40181   0.40288   0.40617
  Beta virt. eigenvalues --    0.40700   0.40976   0.41261   0.41405   0.41578
  Beta virt. eigenvalues --    0.41922   0.42055   0.42438   0.42674   0.42795
  Beta virt. eigenvalues --    0.43177   0.43335   0.43659   0.43793   0.43980
  Beta virt. eigenvalues --    0.44220   0.44497   0.44639   0.44720   0.45191
  Beta virt. eigenvalues --    0.45343   0.45493   0.45843   0.45910   0.46198
  Beta virt. eigenvalues --    0.46318   0.46586   0.46811   0.46856   0.46960
  Beta virt. eigenvalues --    0.47080   0.47272   0.47666   0.47880   0.48023
  Beta virt. eigenvalues --    0.48131   0.48314   0.48596   0.48820   0.49002
  Beta virt. eigenvalues --    0.49161   0.49375   0.49513   0.49638   0.49893
  Beta virt. eigenvalues --    0.50038   0.50307   0.50591   0.50654   0.50869
  Beta virt. eigenvalues --    0.51174   0.51226   0.51505   0.51814   0.51831
  Beta virt. eigenvalues --    0.52036   0.52418   0.52630   0.52789   0.52881
  Beta virt. eigenvalues --    0.53036   0.53402   0.53759   0.53985   0.54058
  Beta virt. eigenvalues --    0.54398   0.54750   0.54838   0.54886   0.55248
  Beta virt. eigenvalues --    0.55438   0.55547   0.55773   0.55882   0.56493
  Beta virt. eigenvalues --    0.56724   0.57028   0.57155   0.57197   0.57510
  Beta virt. eigenvalues --    0.57888   0.58037   0.58216   0.58670   0.58759
  Beta virt. eigenvalues --    0.59061   0.59103   0.59744   0.60303   0.60484
  Beta virt. eigenvalues --    0.60602   0.60776   0.60928   0.61318   0.61461
  Beta virt. eigenvalues --    0.61647   0.61939   0.62378   0.62673   0.62852
  Beta virt. eigenvalues --    0.63097   0.63399   0.63630   0.63846   0.64492
  Beta virt. eigenvalues --    0.64823   0.64933   0.65087   0.65320   0.65601
  Beta virt. eigenvalues --    0.65704   0.65944   0.66261   0.66448   0.66622
  Beta virt. eigenvalues --    0.66801   0.67047   0.67281   0.67530   0.67692
  Beta virt. eigenvalues --    0.68030   0.68250   0.68514   0.68941   0.69043
  Beta virt. eigenvalues --    0.69285   0.69457   0.69966   0.70194   0.70487
  Beta virt. eigenvalues --    0.70675   0.71010   0.71188   0.71536   0.71786
  Beta virt. eigenvalues --    0.72047   0.72397   0.72786   0.73187   0.73291
  Beta virt. eigenvalues --    0.73588   0.74040   0.74222   0.74381   0.74932
  Beta virt. eigenvalues --    0.75113   0.75253   0.75650   0.75741   0.75920
  Beta virt. eigenvalues --    0.76313   0.76683   0.77204   0.77228   0.77383
  Beta virt. eigenvalues --    0.77694   0.78092   0.78511   0.79206   0.79285
  Beta virt. eigenvalues --    0.79692   0.80026   0.80501   0.80630   0.80954
  Beta virt. eigenvalues --    0.81330   0.81503   0.81852   0.82142   0.82476
  Beta virt. eigenvalues --    0.82769   0.83147   0.83676   0.83869   0.84085
  Beta virt. eigenvalues --    0.84406   0.84535   0.84948   0.85435   0.85868
  Beta virt. eigenvalues --    0.86112   0.86160   0.86714   0.86851   0.87172
  Beta virt. eigenvalues --    0.87635   0.88134   0.88371   0.88692   0.89318
  Beta virt. eigenvalues --    0.89731   0.90172   0.90246   0.90311   0.90983
  Beta virt. eigenvalues --    0.90999   0.91506   0.91694   0.91879   0.92465
  Beta virt. eigenvalues --    0.92779   0.93248   0.93624   0.93702   0.93903
  Beta virt. eigenvalues --    0.94345   0.94681   0.94788   0.95061   0.95342
  Beta virt. eigenvalues --    0.96359   0.96479   0.97265   0.97348   0.97457
  Beta virt. eigenvalues --    0.97586   0.97742   0.98029   0.98439   0.98738
  Beta virt. eigenvalues --    0.98913   0.99185   0.99952   1.00219   1.00537
  Beta virt. eigenvalues --    1.00776   1.01160   1.01265   1.01617   1.01750
  Beta virt. eigenvalues --    1.02329   1.02682   1.03094   1.03250   1.03332
  Beta virt. eigenvalues --    1.03662   1.03871   1.04128   1.04464   1.04972
  Beta virt. eigenvalues --    1.05257   1.05597   1.05842   1.06168   1.06553
  Beta virt. eigenvalues --    1.06840   1.07430   1.07551   1.07739   1.08349
  Beta virt. eigenvalues --    1.08585   1.09059   1.09292   1.09700   1.10063
  Beta virt. eigenvalues --    1.10477   1.10539   1.11159   1.11564   1.12026
  Beta virt. eigenvalues --    1.12171   1.12274   1.12760   1.12969   1.13619
  Beta virt. eigenvalues --    1.13887   1.14275   1.14350   1.14901   1.15013
  Beta virt. eigenvalues --    1.15773   1.16226   1.16930   1.17106   1.17374
  Beta virt. eigenvalues --    1.17597   1.17994   1.18793   1.18831   1.19328
  Beta virt. eigenvalues --    1.19686   1.20111   1.20461   1.20812   1.21163
  Beta virt. eigenvalues --    1.21535   1.21889   1.21996   1.22242   1.22921
  Beta virt. eigenvalues --    1.23559   1.23686   1.24063   1.24315   1.24807
  Beta virt. eigenvalues --    1.25200   1.25668   1.25788   1.26672   1.27309
  Beta virt. eigenvalues --    1.27591   1.28025   1.28571   1.28852   1.29579
  Beta virt. eigenvalues --    1.29650   1.30198   1.30370   1.30694   1.30932
  Beta virt. eigenvalues --    1.31283   1.31764   1.31949   1.32743   1.33048
  Beta virt. eigenvalues --    1.33551   1.34178   1.34479   1.34754   1.34976
  Beta virt. eigenvalues --    1.35661   1.35897   1.36370   1.36468   1.36768
  Beta virt. eigenvalues --    1.37970   1.38070   1.38375   1.39106   1.39591
  Beta virt. eigenvalues --    1.40006   1.40266   1.40528   1.41083   1.41578
  Beta virt. eigenvalues --    1.41774   1.42716   1.42976   1.43192   1.43391
  Beta virt. eigenvalues --    1.43624   1.44081   1.44274   1.44843   1.45099
  Beta virt. eigenvalues --    1.45500   1.45729   1.45918   1.46308   1.46491
  Beta virt. eigenvalues --    1.46663   1.46850   1.47265   1.47353   1.47746
  Beta virt. eigenvalues --    1.48131   1.48656   1.48831   1.49148   1.49249
  Beta virt. eigenvalues --    1.49441   1.50077   1.50470   1.50878   1.51030
  Beta virt. eigenvalues --    1.51229   1.51591   1.52431   1.52843   1.53202
  Beta virt. eigenvalues --    1.53513   1.53836   1.54229   1.54251   1.54900
  Beta virt. eigenvalues --    1.55093   1.55145   1.55467   1.55720   1.56037
  Beta virt. eigenvalues --    1.56571   1.56741   1.56900   1.57093   1.57444
  Beta virt. eigenvalues --    1.57794   1.57974   1.58403   1.58436   1.58939
  Beta virt. eigenvalues --    1.59541   1.59686   1.59807   1.59977   1.60290
  Beta virt. eigenvalues --    1.60525   1.60784   1.61350   1.61410   1.61631
  Beta virt. eigenvalues --    1.61943   1.62288   1.62785   1.62993   1.63016
  Beta virt. eigenvalues --    1.63317   1.63984   1.64087   1.64662   1.64894
  Beta virt. eigenvalues --    1.65045   1.65372   1.65793   1.66440   1.66795
  Beta virt. eigenvalues --    1.67202   1.67321   1.67559   1.67645   1.68350
  Beta virt. eigenvalues --    1.68782   1.69038   1.69566   1.69850   1.70146
  Beta virt. eigenvalues --    1.70324   1.70627   1.70962   1.71688   1.71827
  Beta virt. eigenvalues --    1.72243   1.72511   1.72526   1.73004   1.73355
  Beta virt. eigenvalues --    1.73542   1.74057   1.74513   1.74660   1.74885
  Beta virt. eigenvalues --    1.74929   1.75339   1.75750   1.76463   1.77017
  Beta virt. eigenvalues --    1.77396   1.77832   1.78263   1.78651   1.78731
  Beta virt. eigenvalues --    1.79124   1.79902   1.79966   1.80163   1.80334
  Beta virt. eigenvalues --    1.80623   1.81153   1.81652   1.82005   1.82366
  Beta virt. eigenvalues --    1.82524   1.82670   1.83076   1.83310   1.83617
  Beta virt. eigenvalues --    1.83970   1.84226   1.84602   1.85069   1.85767
  Beta virt. eigenvalues --    1.86200   1.86461   1.86732   1.87323   1.87548
  Beta virt. eigenvalues --    1.87926   1.88588   1.88704   1.89164   1.89834
  Beta virt. eigenvalues --    1.90151   1.90486   1.91028   1.91284   1.91713
  Beta virt. eigenvalues --    1.92153   1.92946   1.93137   1.93433   1.93530
  Beta virt. eigenvalues --    1.94005   1.94502   1.94730   1.95159   1.95741
  Beta virt. eigenvalues --    1.95948   1.96252   1.96391   1.96534   1.97493
  Beta virt. eigenvalues --    1.97757   1.97939   1.98184   1.98421   1.99092
  Beta virt. eigenvalues --    1.99332   1.99572   1.99869   2.00384   2.01346
  Beta virt. eigenvalues --    2.01721   2.02106   2.02239   2.03062   2.03214
  Beta virt. eigenvalues --    2.03544   2.03858   2.04063   2.05003   2.05223
  Beta virt. eigenvalues --    2.05894   2.06028   2.06713   2.06751   2.07466
[...]
    23 C(13)  Bbb    -0.0032    -0.434    -0.155    -0.145  0.8539  0.5168 -0.0607
              Bcc     0.0109     1.468     0.524     0.490  0.0203  0.0834  0.9963
 
              Baa    -0.0035    -0.468    -0.167    -0.156  0.9943 -0.1009  0.0336
    24 C(13)  Bbb    -0.0002    -0.027    -0.010    -0.009  0.0790  0.9120  0.4024
              Bcc     0.0037     0.495     0.177     0.165 -0.0712 -0.3975  0.9148
 
              Baa    -0.0073    -0.985    -0.351    -0.328  0.7655 -0.6091 -0.2075
    25 C(13)  Bbb     0.0014     0.187     0.067     0.062  0.6241  0.6242  0.4700
              Bcc     0.0059     0.797     0.285     0.266 -0.1568 -0.4892  0.8579
 
              Baa    -0.0029    -0.390    -0.139    -0.130 -0.4087  0.7025 -0.5826
    26 C(13)  Bbb    -0.0008    -0.108    -0.038    -0.036  0.7779  0.6020  0.1802
              Bcc     0.0037     0.497     0.178     0.166 -0.4773  0.3795  0.7925
 
              Baa    -0.0024    -0.325    -0.116    -0.109 -0.0228  0.1719  0.9848
    27 C(13)  Bbb     0.0002     0.023     0.008     0.008  0.8943 -0.4369  0.0969
              Bcc     0.0023     0.302     0.108     0.101  0.4469  0.8829 -0.1438
 
              Baa    -0.0020    -0.274    -0.098    -0.091  0.9470 -0.3051  0.1005
    28 C(13)  Bbb    -0.0009    -0.124    -0.044    -0.041  0.3190  0.9303 -0.1811
              Bcc     0.0030     0.398     0.142     0.133 -0.0383  0.2036  0.9783
 
              Baa    -0.0071    -0.957    -0.341    -0.319  0.7825  0.6223 -0.0206
    29 C(13)  Bbb    -0.0014    -0.182    -0.065    -0.061 -0.3444  0.4602  0.8183
              Bcc     0.0085     1.138     0.406     0.380 -0.5187  0.6332 -0.5744
 
              Baa    -0.0047    -0.632    -0.225    -0.211 -0.2399  0.0998  0.9657
    30 C(13)  Bbb    -0.0000    -0.002    -0.001    -0.001  0.8548  0.4933  0.1614
              Bcc     0.0047     0.634     0.226     0.211 -0.4603  0.8641 -0.2036
 
              Baa    -0.0076    -1.015    -0.362    -0.339  0.5080  0.8610 -0.0241
    31 C(13)  Bbb    -0.0037    -0.503    -0.179    -0.168  0.7654 -0.4640 -0.4459
              Bcc     0.0113     1.518     0.542     0.506  0.3951 -0.2080  0.8948
 
              Baa    -0.0073    -0.985    -0.352    -0.329 -0.0082 -0.0120  0.9999
    32 C(13)  Bbb    -0.0047    -0.630    -0.225    -0.210  0.3848  0.9229  0.0142
              Bcc     0.0120     1.615     0.576     0.539  0.9230 -0.3849  0.0029
 
              Baa    -0.0008    -0.101    -0.036    -0.034  0.1993  0.2412  0.9498
    33 C(13)  Bbb    -0.0005    -0.067    -0.024    -0.022  0.8440  0.4502 -0.2914
              Bcc     0.0013     0.168     0.060     0.056 -0.4979  0.8597 -0.1138
 
              Baa    -0.0009    -0.119    -0.043    -0.040  0.4251  0.8878 -0.1761
    34 C(13)  Bbb    -0.0006    -0.084    -0.030    -0.028  0.0727  0.1604  0.9844
              Bcc     0.0015     0.203     0.073     0.068  0.9022 -0.4313  0.0036
 
              Baa    -0.0011    -0.143    -0.051    -0.048  0.4028  0.7896 -0.4629
    35 C(13)  Bbb    -0.0006    -0.083    -0.030    -0.028 -0.1870  0.5660  0.8029
              Bcc     0.0017     0.226     0.081     0.075  0.8960 -0.2368  0.3757
 
              Baa    -0.0004    -0.054    -0.019    -0.018  0.1005  0.2566  0.9613
    36 C(13)  Bbb    -0.0004    -0.047    -0.017    -0.016  0.2387  0.9318 -0.2736
              Bcc     0.0007     0.100     0.036     0.034  0.9659 -0.2569 -0.0324
 
              Baa    -0.0006     0.041     0.015     0.014  0.0821  0.7521  0.6540
    37 O(17)  Bbb    -0.0004     0.027     0.010     0.009  0.1086 -0.6590  0.7442
              Bcc     0.0009    -0.069    -0.024    -0.023  0.9907  0.0100 -0.1358
 
              Baa    -0.0003     0.020     0.007     0.007  0.3557  0.5902  0.7247
    38 O(17)  Bbb    -0.0003     0.019     0.007     0.006  0.1680  0.7224 -0.6708
              Bcc     0.0005    -0.039    -0.014    -0.013  0.9194 -0.3603 -0.1579
 
              Baa    -0.0237    -0.912    -0.326    -0.304  0.6378  0.6967  0.3283
    39 N(14)  Bbb     0.0044     0.170     0.061     0.057  0.7615 -0.6343 -0.1334
              Bcc     0.0192     0.742     0.265     0.248 -0.1153 -0.3350  0.9351
 
              Baa    -0.0232    -0.896    -0.320    -0.299 -0.5661  0.7391  0.3651
    40 N(14)  Bbb     0.0107     0.412     0.147     0.137 -0.1047 -0.5038  0.8575
              Bcc     0.0126     0.485     0.173     0.162  0.8177  0.4471  0.3626
 
              Baa    -0.0267    -1.030    -0.367    -0.344 -0.3374 -0.5952  0.7293
    41 N(14)  Bbb     0.0065     0.250     0.089     0.083  0.7591 -0.6302 -0.1631
              Bcc     0.0202     0.780     0.278     0.260  0.5567  0.4986  0.6644
 
              Baa    -0.0308    -1.189    -0.424    -0.397  0.6361 -0.6280  0.4483
    42 N(14)  Bbb     0.0033     0.129     0.046     0.043  0.7092  0.7047 -0.0191
              Bcc     0.0275     1.061     0.378     0.354 -0.3039  0.3301  0.8937
 
              Baa    -0.9939   -17.207    -6.140    -5.740 -0.1751  0.9796 -0.0989
    43 Fe(57) Bbb     0.1076     1.863     0.665     0.622  0.9828  0.1798  0.0414
              Bcc     0.8862    15.343     5.475     5.118 -0.0583  0.0899  0.9942
 
              Baa    -0.0057    -0.218    -0.078    -0.073 -0.1186  0.9929  0.0125
    44 N(14)  Bbb    -0.0020    -0.077    -0.027    -0.026  0.8403  0.0937  0.5340
              Bcc     0.0077     0.295     0.105     0.098 -0.5290 -0.0738  0.8454
 
              Baa    -0.0186    -2.499    -0.892    -0.834 -0.0786  0.9741  0.2121
    45 C(13)  Bbb    -0.0032    -0.427    -0.153    -0.143  0.7569 -0.0802  0.6486
              Bcc     0.0218     2.927     1.044     0.976 -0.6488 -0.2115  0.7310
 
              Baa    -0.0381    -1.470    -0.525    -0.491  0.4788  0.1275  0.8686
    46 N(14)  Bbb     0.0146     0.561     0.200     0.187  0.0430  0.9848 -0.1682
              Bcc     0.0236     0.909     0.324     0.303  0.8769 -0.1179 -0.4661
 
              Baa    -0.0062    -0.834    -0.298    -0.278  0.2102  0.9539 -0.2143
    47 C(13)  Bbb    -0.0030    -0.406    -0.145    -0.136  0.9648 -0.1669  0.2032
              Bcc     0.0092     1.240     0.443     0.414 -0.1580  0.2495  0.9554
 
              Baa    -0.0044    -0.594    -0.212    -0.198 -0.5651  0.6935 -0.4469
    48 C(13)  Bbb    -0.0005    -0.071    -0.025    -0.024  0.6393  0.7105  0.2941
              Bcc     0.0050     0.665     0.237     0.222 -0.5215  0.1195  0.8448
 
              Baa    -0.0016    -0.864    -0.308    -0.288  0.3262  0.9417  0.0825
    49 H(1)   Bbb    -0.0013    -0.688    -0.246    -0.230  0.8583 -0.2585 -0.4433
              Bcc     0.0029     1.553     0.554     0.518  0.3961 -0.2155  0.8926
 
              Baa    -0.0527     3.816     1.362     1.273  0.5680  0.5721  0.5916
    50 O(17)  Bbb     0.0150    -1.087    -0.388    -0.362 -0.5565  0.7966 -0.2361
              Bcc     0.0377    -2.729    -0.974    -0.910 -0.6064 -0.1952  0.7709
 
              Baa    -0.0018    -0.959    -0.342    -0.320  0.0899  0.0080  0.9959
    51 H(1)   Bbb    -0.0014    -0.749    -0.267    -0.250 -0.0165  0.9998 -0.0065
              Bcc     0.0032     1.708     0.609     0.570  0.9958  0.0158 -0.0900
 
              Baa    -0.0015    -0.810    -0.289    -0.270  0.1563 -0.0681  0.9854
    52 H(1)   Bbb    -0.0012    -0.649    -0.232    -0.217  0.9875  0.0332 -0.1543
              Bcc     0.0027     1.459     0.521     0.487 -0.0222  0.9971  0.0725
 
              Baa    -0.0017    -0.886    -0.316    -0.296  0.1996  0.1706  0.9649
    53 H(1)   Bbb    -0.0012    -0.646    -0.230    -0.215 -0.0207  0.9852 -0.1699
              Bcc     0.0029     1.532     0.547     0.511  0.9797 -0.0139 -0.2001
 
              Baa    -0.0016    -0.847    -0.302    -0.282  0.7365 -0.0585 -0.6739
    54 H(1)   Bbb    -0.0015    -0.821    -0.293    -0.274  0.6763  0.0873  0.7315
              Bcc     0.0031     1.668     0.595     0.556 -0.0161  0.9945 -0.1039
 
              Baa    -0.0007    -0.385    -0.138    -0.129 -0.6231  0.1338  0.7706
    55 H(1)   Bbb    -0.0007    -0.364    -0.130    -0.122  0.7268 -0.2650  0.6337
              Bcc     0.0014     0.750     0.268     0.250  0.2890  0.9549  0.0678
 
              Baa    -0.0007    -0.375    -0.134    -0.125  0.0428  0.1689  0.9847
    56 H(1)   Bbb    -0.0006    -0.315    -0.112    -0.105  0.9135 -0.4058  0.0299
              Bcc     0.0013     0.689     0.246     0.230  0.4046  0.8982 -0.1716
 
              Baa    -0.0006    -0.337    -0.120    -0.113  0.3772 -0.3048  0.8746
    57 H(1)   Bbb    -0.0005    -0.291    -0.104    -0.097  0.7812 -0.4026 -0.4772
              Bcc     0.0012     0.628     0.224     0.210  0.4975  0.8631  0.0863
 
              Baa    -0.0009    -0.498    -0.178    -0.166  0.1279  0.0276  0.9914
    58 H(1)   Bbb    -0.0008    -0.415    -0.148    -0.139 -0.2527  0.9675  0.0057
              Bcc     0.0017     0.914     0.326     0.305  0.9591  0.2513 -0.1307
 
              Baa    -0.0007    -0.383    -0.137    -0.128 -0.5160  0.6391 -0.5704
    59 H(1)   Bbb    -0.0007    -0.362    -0.129    -0.121 -0.2389  0.5320  0.8123
              Bcc     0.0014     0.745     0.266     0.248  0.8226  0.5555 -0.1218
 
              Baa    -0.0006    -0.311    -0.111    -0.104 -0.2480  0.7145 -0.6542
    60 H(1)   Bbb    -0.0005    -0.264    -0.094    -0.088 -0.5646  0.4421  0.6970
              Bcc     0.0011     0.576     0.205     0.192  0.7872  0.5422  0.2937
 
              Baa    -0.0008    -0.413    -0.147    -0.138 -0.3806  0.5496  0.7437
    61 H(1)   Bbb    -0.0006    -0.316    -0.113    -0.105 -0.0384  0.7941 -0.6065
              Bcc     0.0014     0.729     0.260     0.243  0.9240  0.2594  0.2811
 
              Baa    -0.0006    -0.331    -0.118    -0.111 -0.0817 -0.2229  0.9714
    62 H(1)   Bbb    -0.0004    -0.220    -0.079    -0.074  0.8811  0.4394  0.1749
              Bcc     0.0010     0.552     0.197     0.184 -0.4658  0.8702  0.1605
 
              Baa    -0.0007    -0.354    -0.126    -0.118  0.2567  0.2152  0.9422
    63 H(1)   Bbb    -0.0004    -0.224    -0.080    -0.075  0.8179  0.4710 -0.3304
              Bcc     0.0011     0.578     0.206     0.193 -0.5149  0.8555 -0.0552
 
              Baa    -0.0008    -0.409    -0.146    -0.136  0.8142  0.2821 -0.5074
    64 H(1)   Bbb    -0.0007    -0.380    -0.136    -0.127  0.4856  0.1483  0.8615
              Bcc     0.0015     0.789     0.282     0.263 -0.3183  0.9479  0.0163
 
              Baa    -0.0012    -0.635    -0.226    -0.212  0.3873  0.9205  0.0518
    65 H(1)   Bbb    -0.0010    -0.518    -0.185    -0.173  0.0188 -0.0640  0.9978
              Bcc     0.0022     1.152     0.411     0.384  0.9217 -0.3855 -0.0421
 
              Baa    -0.0006    -0.330    -0.118    -0.110  0.8977 -0.1544  0.4127
    66 H(1)   Bbb    -0.0002    -0.124    -0.044    -0.041 -0.3933  0.1416  0.9084
              Bcc     0.0009     0.454     0.162     0.152  0.1987  0.9778 -0.0664
 
              Baa    -0.0013    -0.690    -0.246    -0.230  0.0081  0.9860 -0.1664
    67 H(1)   Bbb    -0.0002    -0.100    -0.036    -0.033  0.0364  0.1660  0.9855
              Bcc     0.0015     0.790     0.282     0.263  0.9993 -0.0140 -0.0345
 
              Baa    -0.0008    -0.422    -0.150    -0.141 -0.5608  0.6958 -0.4489
    68 H(1)   Bbb    -0.0004    -0.239    -0.085    -0.080 -0.1163  0.4705  0.8747
              Bcc     0.0012     0.661     0.236     0.221  0.8198  0.5427 -0.1829
 
              Baa    -0.0011    -0.568    -0.203    -0.190  0.2137  0.3837  0.8984
    69 H(1)   Bbb    -0.0005    -0.242    -0.086    -0.081 -0.6097  0.7709 -0.1842
              Bcc     0.0015     0.810     0.289     0.270  0.7633  0.5084 -0.3987
 
              Baa    -0.0012    -0.648    -0.231    -0.216 -0.3809  0.8416  0.3830
    70 H(1)   Bbb    -0.0005    -0.243    -0.087    -0.081  0.2132 -0.3231  0.9220
              Bcc     0.0017     0.891     0.318     0.297  0.8997  0.4328 -0.0564
 
              Baa    -0.0009    -0.466    -0.166    -0.155  0.9379 -0.3053 -0.1647
    71 H(1)   Bbb    -0.0008    -0.446    -0.159    -0.149  0.2251  0.1746  0.9586
              Bcc     0.0017     0.912     0.325     0.304  0.2639  0.9361 -0.2325
 
              Baa    -0.0004    -0.222    -0.079    -0.074 -0.0767  0.2627  0.9618
    72 H(1)   Bbb    -0.0003    -0.152    -0.054    -0.051  0.7552 -0.6145  0.2281
              Bcc     0.0007     0.373     0.133     0.124  0.6510  0.7439 -0.1512
 
              Baa    -0.0004    -0.234    -0.083    -0.078  0.9656 -0.2300  0.1216
    73 H(1)   Bbb    -0.0003    -0.156    -0.056    -0.052 -0.0669  0.2321  0.9704
              Bcc     0.0007     0.390     0.139     0.130  0.2514  0.9451 -0.2087
 
              Baa    -0.0006    -0.309    -0.110    -0.103  0.2076  0.1297  0.9696
    74 H(1)   Bbb    -0.0005    -0.267    -0.095    -0.089  0.8345  0.4936 -0.2447
              Bcc     0.0011     0.576     0.206     0.192 -0.5104  0.8599 -0.0058
 
              Baa    -0.0007    -0.397    -0.142    -0.132  0.0655 -0.2411  0.9683
    75 H(1)   Bbb    -0.0006    -0.317    -0.113    -0.106  0.9006  0.4321  0.0467
              Bcc     0.0013     0.714     0.255     0.238 -0.4296  0.8690  0.2455
 
              Baa    -0.0007    -0.390    -0.139    -0.130  0.8886  0.3122 -0.3359
    76 H(1)   Bbb    -0.0007    -0.380    -0.136    -0.127  0.3197  0.1033  0.9419
              Bcc     0.0014     0.770     0.275     0.257 -0.3288  0.9444  0.0080
 
              Baa    -0.0007    -0.386    -0.138    -0.129  0.6120  0.7834  0.1084
    77 H(1)   Bbb    -0.0006    -0.344    -0.123    -0.115  0.1085 -0.2189  0.9697
              Bcc     0.0014     0.729     0.260     0.243  0.7834 -0.5817 -0.2189
 
              Baa    -0.0009    -0.483    -0.172    -0.161  0.2835  0.1104  0.9526
    78 H(1)   Bbb    -0.0008    -0.428    -0.153    -0.143  0.2327  0.9558 -0.1800
              Bcc     0.0017     0.911     0.325     0.304  0.9303 -0.2726 -0.2452
 
              Baa    -0.0008    -0.402    -0.144    -0.134 -0.3063 -0.5702  0.7623
    79 H(1)   Bbb    -0.0006    -0.312    -0.111    -0.104  0.1103  0.7741  0.6234
              Bcc     0.0013     0.715     0.255     0.238  0.9455 -0.2751  0.1742
 
              Baa    -0.0006    -0.298    -0.106    -0.099  0.2941  0.6592  0.6921
    80 H(1)   Bbb    -0.0005    -0.248    -0.089    -0.083 -0.5064 -0.5066  0.6978
              Bcc     0.0010     0.546     0.195     0.182  0.8106 -0.5557  0.1848
 
              Baa    -0.0049    -2.608    -0.930    -0.870  0.9570 -0.0309 -0.2883
    81 H(1)   Bbb    -0.0042    -2.240    -0.799    -0.747  0.2077  0.7669  0.6072
              Bcc     0.0091     4.847     1.730     1.617  0.2024 -0.6410  0.7404
 
              Baa    -0.0043    -2.299    -0.820    -0.767 -0.0925 -0.6959  0.7122
    82 H(1)   Bbb    -0.0039    -2.081    -0.742    -0.694  0.9930 -0.1177  0.0140
              Bcc     0.0082     4.380     1.563     1.461  0.0740  0.7084  0.7019
 
              Baa    -0.0013    -0.678    -0.242    -0.226 -0.6240  0.7643 -0.1629
    83 H(1)   Bbb    -0.0009    -0.503    -0.179    -0.168  0.7280  0.4927 -0.4767
              Bcc     0.0022     1.181     0.421     0.394  0.2841  0.4160  0.8638
 
              Baa    -0.0080    -4.275    -1.526    -1.426  0.7912  0.6073 -0.0724
    84 H(1)   Bbb    -0.0051    -2.713    -0.968    -0.905 -0.6103  0.7915 -0.0309
              Bcc     0.0131     6.988     2.493     2.331  0.0386  0.0686  0.9969
 
              Baa    -0.0163    -8.709    -3.108    -2.905  0.8014 -0.3645 -0.4742
    85 H(1)   Bbb    -0.0137    -7.314    -2.610    -2.440  0.3338  0.9305 -0.1510
              Bcc     0.0300    16.023     5.718     5.345  0.4963 -0.0373  0.8673
 
              Baa    -0.0002    -0.097    -0.035    -0.032 -0.3285  0.4876  0.8089
    86 H(1)   Bbb    -0.0002    -0.097    -0.034    -0.032 -0.3097  0.7535 -0.5799
              Bcc     0.0004     0.194     0.069     0.065  0.8923  0.4410  0.0965
 
              Baa    -0.0002    -0.108    -0.039    -0.036  0.3156  0.7693 -0.5556
    87 H(1)   Bbb    -0.0002    -0.107    -0.038    -0.036  0.3395  0.4552  0.8231
              Bcc     0.0004     0.215     0.077     0.072  0.8861 -0.4484 -0.1175
 

 ---------------------------------------------------------------------------------

 1\1\GINC-NODE638\SP\UPBE1PBE\def2TZVP\C37H38Fe1N6O5(1+,2)\KLEICH\18-Se
 p-2022\0\\# PBE1PBE/def2TZVP empiricaldispersion=GD3BJ int=(grid=ultra
 fine) geom=check guess=read scrf=(smd,solvent=Chloroform)\\1ccg_III_D_
 solv\\1,2\C,0,-5.506,53.923,112.93\C,0,-7.562,57.972,114.378\C,0,-5.92
 6,60.126,110.472\C,0,-3.654,56.114,109.164\C,0,-6.228,54.827,113.698\C
 ,0,-6.758,54.532,114.942\C,0,-7.395,55.715,115.374\C,0,-7.147,56.642,1
 14.369\C,0,-8.23,55.922,116.645\C,0,-6.626,53.173,115.641\C,0,-5.472,5
 3.012,116.584\C,0,-5.394,51.617,117.224\O,0,-6.246,51.26,118.04\O,0,-4
 .475,50.847,116.942\C,0,-7.381,58.932,113.376\C,0,-7.941,60.211,113.41
 1\C,0,-7.522,60.812,112.232\C,0,-6.685,59.879,111.612\C,0,-8.919,60.67
 8,114.485\C,0,-7.826,62.055,111.651\C,0,-8.743,63.064,112.11\C,0,-5.08
 1,59.253,109.775\C,0,-4.298,59.622,108.683\C,0,-3.589,58.446,108.366\C
 ,0,-4.047,57.462,109.229\C,0,-4.188,61.047,108.081\C,0,-2.635,58.152,1
 07.378\C,0,-2.272,58.924,106.228\C,0,-4.,55.082,110.014\C,0,-3.674,53.
 753,109.834\C,0,-4.208,53.123,110.964\C,0,-4.83,54.109,111.715\C,0,-3.
 02,53.099,108.613\C,0,-4.19,51.63,111.27\C,0,-3.016,51.229,112.145\C,0
 ,-3.008,49.79,112.601\O,0,-2.443,49.528,113.657\O,0,-3.547,48.922,111.
 918\N,0,-6.462,56.1,113.359\N,0,-6.701,58.711,112.255\N,0,-4.921,57.95
 5,110.104\N,0,-4.723,55.274,111.116\Fe,0,-5.857,56.937,111.603\N,0,-9.
 264,56.772,109.591\C,0,-8.576,56.828,110.692\N,0,-7.374,56.4,110.42\C,
 0,-7.308,56.079,109.165\C,0,-8.548,56.317,108.604\H,0,-10.166,57.108,1
 09.493\O,0,-4.422,57.485,112.862\H,0,-5.45782113,52.93038101,113.32659
 342\H,0,-8.08069798,58.29811361,115.25521281\H,0,-5.99760271,61.116702
 63,110.07415412\H,0,-3.00493273,55.8547598,108.35381101\H,0,-8.2984840
 7,56.96786322,116.86036031\H,0,-9.21175387,55.52358038,116.49559734\H,
 0,-7.7619019,55.41887131,117.4651498\H,0,-6.44721884,52.46901742,114.8
 5528642\H,0,-7.5012008,53.08406969,116.25010997\H,0,-5.65300175,53.694
 07989,117.38830429\H,0,-4.58942939,53.11072806,115.98715673\H,0,-8.463
 71308,61.44873123,115.07116311\H,0,-9.8040266,61.05930165,114.01998713
 \H,0,-9.17510627,59.85346206,115.11701801\H,0,-7.30480633,62.28163664,
 110.74441686\H,0,-9.30143044,62.91003662,113.00963921\H,0,-8.86660125,
 63.96842137,111.55174851\H,0,-3.96248284,61.38427734,107.09090606\H,0,
 -3.16344207,60.7451661,108.01714588\H,0,-5.06293474,60.70293935,107.57
 010718\H,0,-2.1095021,57.22809277,107.50107472\H,0,-2.75434073,59.8600
 2192,106.03797265\H,0,-1.5183987,58.56487385,105.5586619\H,0,-2.276951
 81,52.4008133,108.93752229\H,0,-3.76507449,52.58672515,108.04086497\H,
 0,-2.56112515,53.85261299,108.00768906\H,0,-4.04362608,51.13631942,110
 .33204789\H,0,-5.07023292,51.43423488,111.84599134\H,0,-3.11319677,51.
 81093673,113.0376379\H,0,-2.14912823,51.33767231,111.52724304\H,0,-8.9
 296665,57.16293665,111.64470008\H,0,-6.44757409,55.69818255,108.655544
 09\H,0,-8.85064928,56.16247035,107.58939466\H,0,-3.67092348,58.0828997
 1,112.862\H,0,-4.10865359,56.57757836,112.862\H,0,-5.97701984,50.89062
 643,118.88428244\H,0,-3.01035,48.29644543,111.42577215\\Version=ES64L-
 G16RevA.03\State=2-A\HF=-3399.0748638\S2=0.884636\S2-1=0.\S2A=0.752684
 \RMSD=1.765e-09\Dipole=-2.9362607,1.5320714,-3.0577273\Quadrupole=-0.7
 094893,-29.0210219,29.7305112,-5.1276139,-21.4350076,11.4638113\PG=C01
  [X(C37H38Fe1N6O5)]\\@


 FRICTION IS A DRAG,
 AND ENTROPY AIN'T WHAT IT USED TO BE.
 Job cpu time:       2 days 23 hours 23 minutes 12.1 seconds.
 Elapsed time:       0 days 17 hours 53 minutes 26.8 seconds.
 File lengths (MBytes):  RWF=   3521 Int=      0 D2E=      0 Chk=    250 Scr=      1
 Normal termination of Gaussian 16 at Sun Sep 18 11:44:41 2022.
