 Entering Gaussian System, Link 0=g16
 Input=/net/work/kleich/bench/splitthejobs/1ccg/gfcfail/1ccg/1ccg12/1ccg16/1ccg16.com
 Output=/net/work/kleich/bench/splitthejobs/1ccg/gfcfail/1ccg/1ccg12/1ccg16/1ccg16.log
 Initial command:
 /afs/math/software/gaussian/g16.A03/g16/l1.exe "/scratch/kleich_gaussian.GXwlGY8/Gau-19253.inp" -scrdir="/scratch/kleich_gaussian.GXwlGY8/"
 Entering Link 1 = /afs/math/software/gaussian/g16.A03/g16/l1.exe PID=     19254.
  
 Copyright (c) 1988,1990,1992,1993,1995,1998,2003,2009,2016,
            Gaussian, Inc.  All Rights Reserved.
  
 This is part of the Gaussian(R) 16 program.  It is based on
 the Gaussian(R) 09 system (copyright 2009, Gaussian, Inc.),
 the Gaussian(R) 03 system (copyright 2003, Gaussian, Inc.),
 the Gaussian(R) 98 system (copyright 1998, Gaussian, Inc.),
 the Gaussian(R) 94 system (copyright 1995, Gaussian, Inc.),
 the Gaussian 92(TM) system (copyright 1992, Gaussian, Inc.),
 the Gaussian 90(TM) system (copyright 1990, Gaussian, Inc.),
 the Gaussian 88(TM) system (copyright 1988, Gaussian, Inc.),
 the Gaussian 86(TM) system (copyright 1986, Carnegie Mellon
 University), and the Gaussian 82(TM) system (copyright 1983,
 Carnegie Mellon University). Gaussian is a federally registered
 trademark of Gaussian, Inc.
  
 This software contains proprietary and confidential information,
 including trade secrets, belonging to Gaussian, Inc.
  
 This software is provided under written license and may be
 used, copied, transmitted, or stored only in accord with that
 written license.
  
 The following legend is applicable only to US Government
 contracts under FAR:
  
                    RESTRICTED RIGHTS LEGEND
  
 Use, reproduction and disclosure by the US Government is
 subject to restrictions as set forth in subparagraphs (a)
 and (c) of the Commercial Computer Software - Restricted
 Rights clause in FAR 52.227-19.
  
 Gaussian, Inc.
 340 Quinnipiac St., Bldg. 40, Wallingford CT 06492
  
  
 ---------------------------------------------------------------
 Warning -- This program may not be used in any manner that
 competes with the business of Gaussian, Inc. or will provide
 assistance to any competitor of Gaussian, Inc.  The licensee
 of this program is prohibited from giving any competitor of
 Gaussian, Inc. access to this program.  By using this program,
 the user acknowledges that Gaussian, Inc. is engaged in the
 business of creating and licensing software in the field of
 computational chemistry and represents and warrants to the
 licensee that it is not a competitor of Gaussian, Inc. and that
 it will not use this program in any manner prohibited above.
 ---------------------------------------------------------------
  

 Cite this work as:
 Gaussian 16, Revision A.03,
 M. J. Frisch, G. W. Trucks, H. B. Schlegel, G. E. Scuseria, 
 M. A. Robb, J. R. Cheeseman, G. Scalmani, V. Barone, 
 G. A. Petersson, H. Nakatsuji, X. Li, M. Caricato, A. V. Marenich, 
 J. Bloino, B. G. Janesko, R. Gomperts, B. Mennucci, H. P. Hratchian, 
 J. V. Ortiz, A. F. Izmaylov, J. L. Sonnenberg, D. Williams-Young, 
 F. Ding, F. Lipparini, F. Egidi, J. Goings, B. Peng, A. Petrone, 
 T. Henderson, D. Ranasinghe, V. G. Zakrzewski, J. Gao, N. Rega, 
 G. Zheng, W. Liang, M. Hada, M. Ehara, K. Toyota, R. Fukuda, 
 J. Hasegawa, M. Ishida, T. Nakajima, Y. Honda, O. Kitao, H. Nakai, 
 T. Vreven, K. Throssell, J. A. Montgomery, Jr., J. E. Peralta, 
 F. Ogliaro, M. J. Bearpark, J. J. Heyd, E. N. Brothers, K. N. Kudin, 
 V. N. Staroverov, T. A. Keith, R. Kobayashi, J. Normand, 
 K. Raghavachari, A. P. Rendell, J. C. Burant, S. S. Iyengar, 
 J. Tomasi, M. Cossi, J. M. Millam, M. Klene, C. Adamo, R. Cammi, 
 J. W. Ochterski, R. L. Martin, K. Morokuma, O. Farkas, 
 J. B. Foresman, and D. J. Fox, Gaussian, Inc., Wallingford CT, 2016.
 
 ******************************************
 Gaussian 16:  AM64L-G16RevA.03 25-Dec-2016
                30-Sep-2022 
 ******************************************
 %nprocs=12
 Will use up to   12 processors via shared memory.
 %mem=16GB
 %oldchk=1ccg_III_D.chk
 %chk=1ccg_III_H.chk
 Copying data from "1ccg_III_D.chk" to current chk file "1ccg_III_H.chk"
 IOpt=  2 FromEx=T IUOpen= 4 IOptOp= 5 NList=   0 IFRang= 0 IUIn= 4 IUOut= 2.
 ----------------------------------------------------------------------
 # PBE1PBE/def2TZVP empiricaldispersion=GD3BJ int=(grid=ultrafine) geom
 =check pop=nbo
 ----------------------------------------------------------------------
 1/29=2,38=1,172=1/1;
 2/12=2,40=1/2;
 3/5=44,7=101,11=2,14=-4,25=1,30=1,74=-13,75=-5,124=41/1,2,3;
 4//1;
 5/5=2,38=5/2;
 6/7=2,8=2,9=2,10=2,28=1,40=1/1,7;
 99/5=1,9=1/99;
 ----------
 1ccg_III_H
 ----------
 Structure from the checkpoint file:  "1ccg_III_H.chk"
 Charge =  1 Multiplicity = 6
 Z-Matrix found in chk file.
 C,0,-5.506,53.923,112.93
 C,0,-7.562,57.972,114.378
 C,0,-5.926,60.126,110.472
 C,0,-3.654,56.114,109.164
 C,0,-6.228,54.827,113.698
 C,0,-6.758,54.532,114.942
 C,0,-7.395,55.715,115.374
 C,0,-7.147,56.642,114.369
 C,0,-8.23,55.922,116.645
 C,0,-6.626,53.173,115.641
 C,0,-5.472,53.012,116.584
 C,0,-5.394,51.617,117.224
 O,0,-6.246,51.26,118.04
 O,0,-4.475,50.847,116.942
 C,0,-7.381,58.932,113.376
 C,0,-7.941,60.211,113.411
 C,0,-7.522,60.812,112.232
 C,0,-6.685,59.879,111.612
 C,0,-8.919,60.678,114.485
 C,0,-7.826,62.055,111.651
 C,0,-8.743,63.064,112.11
 C,0,-5.081,59.253,109.775
 C,0,-4.298,59.622,108.683
 C,0,-3.589,58.446,108.366
 C,0,-4.047,57.462,109.229
 C,0,-4.188,61.047,108.081
 C,0,-2.635,58.152,107.378
 C,0,-2.272,58.924,106.228
 C,0,-4.,55.082,110.014
 C,0,-3.674,53.753,109.834
 C,0,-4.208,53.123,110.964
 C,0,-4.83,54.109,111.715
 C,0,-3.02,53.099,108.613
 C,0,-4.19,51.63,111.27
 C,0,-3.016,51.229,112.145
 C,0,-3.008,49.79,112.601
 O,0,-2.443,49.528,113.657
 O,0,-3.547,48.922,111.918
 N,0,-6.462,56.1,113.359
 N,0,-6.701,58.711,112.255
 N,0,-4.921,57.955,110.104
 N,0,-4.723,55.274,111.116
 Fe,0,-5.857,56.937,111.603
 N,0,-9.264,56.772,109.591
 C,0,-8.576,56.828,110.692
 N,0,-7.374,56.4,110.42
 C,0,-7.308,56.079,109.165
 C,0,-8.548,56.317,108.604
 H,0,-10.166,57.108,109.493
 O,0,-4.422,57.485,112.862
 H,0,-5.45782113,52.93038101,113.32659342
 H,0,-8.08069798,58.29811361,115.25521281
 H,0,-5.99760271,61.11670263,110.07415412
 H,0,-3.00493273,55.8547598,108.35381101
 H,0,-8.29848407,56.96786322,116.86036031
 H,0,-9.21175387,55.52358038,116.49559734
 H,0,-7.7619019,55.41887131,117.4651498
 H,0,-6.44721884,52.46901742,114.85528642
 H,0,-7.5012008,53.08406969,116.25010997
 H,0,-5.65300175,53.69407989,117.38830429
 H,0,-4.58942939,53.11072806,115.98715673
 H,0,-8.46371308,61.44873123,115.07116311
 H,0,-9.8040266,61.05930165,114.01998713
 H,0,-9.17510627,59.85346206,115.11701801
 H,0,-7.30480633,62.28163664,110.74441686
 H,0,-9.30143044,62.91003662,113.00963921
 H,0,-8.86660125,63.96842137,111.55174851
 H,0,-3.96248284,61.38427734,107.09090606
 H,0,-3.16344207,60.7451661,108.01714588
 H,0,-5.06293474,60.70293935,107.57010718
 H,0,-2.1095021,57.22809277,107.50107472
 H,0,-2.75434073,59.86002192,106.03797265
 H,0,-1.5183987,58.56487385,105.5586619
 H,0,-2.27695181,52.4008133,108.93752229
 H,0,-3.76507449,52.58672515,108.04086497
 H,0,-2.56112515,53.85261299,108.00768906
 H,0,-4.04362608,51.13631942,110.33204789
 H,0,-5.07023292,51.43423488,111.84599134
 H,0,-3.11319677,51.81093673,113.0376379
 H,0,-2.14912823,51.33767231,111.52724304
 H,0,-8.9296665,57.16293665,111.64470008
 H,0,-6.44757409,55.69818255,108.65554409
 H,0,-8.85064928,56.16247035,107.58939466
 H,0,-3.67092348,58.08289971,112.862
 H,0,-4.10865359,56.57757836,112.862
 H,0,-5.97701984,50.89062643,118.88428244
 H,0,-3.01035,48.29644543,111.42577215
 Recover connectivity data from disk.
 Center=     -5.69504601     56.23397221    111.88815250
 Residue   0                        charge    0.00000000 layers R        AvRTP=      7.49740844    280.25480075     64.16799963
 Residue   4                        charge    0.00000000 layers R        AvRTP=      0.00000000      0.00000000      0.00000000
 Residue   2 PDB Number   575_A IMD charge    0.00000000 layers R        AvRTP=      3.58109175    174.28708208    130.98602261
 Residue   3 PDB Number   313_A HOH charge    0.00000000 layers R        AvRTP=      2.21717271     35.18893807     63.94527408
 Residue   1 PDB Number     1_A HEM charge    0.00000000 layers R        AvRTP=      0.29944987     23.66350593     57.69198574
 Stoichiometry    C37H38FeN6O5(1+,6)
 Framework group  C1[X(C37H38FeN6O5)]
 Deg. of freedom   255
 Full point group                 C1      NOp   1
 Largest Abelian subgroup         C1      NOp   1
 Largest concise Abelian subgroup C1      NOp   1
                         Standard orientation:                         
 ---------------------------------------------------------------------
 Center     Atomic      Atomic             Coordinates (Angstroms)
 Number     Number       Type             X           Y           Z
 ---------------------------------------------------------------------
      1          6           0       -2.341147   -0.087175    0.262138
      2          6           0        0.995264   -3.454204   -0.237578
      3          6           0        4.282185   -0.048016   -0.646326
      4          6           0        0.880258    3.318637   -0.398269
      5          6           0       -1.739433   -1.335050    0.166899
      6          6           0       -2.438089   -2.529722    0.156800
      7          6           0       -1.460638   -3.540642    0.036331
      8          6           0       -0.253692   -2.860163   -0.068963
      9          6           0       -1.671537   -5.060417    0.072694
     10          6           0       -3.964882   -2.642523    0.252103
     11          6           0       -4.716174   -2.701943   -1.043627
     12          6           0       -6.240043   -2.788572   -0.864662
     13          8           0       -6.753382   -3.808122   -0.399679
     14          8           0       -6.965770   -1.850150   -1.195826
     15          6           0        2.242116   -2.822105   -0.302203
     16          6           0        3.460591   -3.503376   -0.345264
     17          6           0        4.422473   -2.503552   -0.389279
     18          6           0        3.711319   -1.300676   -0.442255
     19          6           0        3.589811   -5.017051   -0.203352
     20          6           0        5.826668   -2.547984   -0.353391
     21          6           0        6.688241   -3.688815   -0.192611
     22          6           0        3.655693    1.203852   -0.694268
     23          6           0        4.309907    2.399294   -0.985190
     24          6           0        3.276689    3.357698   -0.976926
     25          6           0        2.117318    2.687864   -0.616413
     26          6           0        5.810632    2.552230   -1.345141
     27          6           0        3.268335    4.743920   -1.202791
     28          6           0        4.379370    5.643972   -1.278697
     29          6           0       -0.336058    2.734044   -0.104899
     30          6           0       -1.495196    3.413133    0.211575
     31          6           0       -2.441354    2.395890    0.381751
     32          6           0       -1.777510    1.194879    0.181837
     33          6           0       -1.669620    4.913025    0.468814
     34          6           0       -3.898665    2.565334    0.794718
     35          6           0       -4.837188    2.634942   -0.396513
     36          6           0       -6.308954    2.666210   -0.062378
     37          8           0       -7.093116    2.218160   -0.891441
     38          8           0       -6.690412    3.138002    1.006424
     39          7           0       -0.424535   -1.539306    0.027156
     40          7           0        2.404121   -1.502698   -0.273888
     41          7           0        2.336094    1.381642   -0.480508
     42          7           0       -0.507987    1.413529   -0.078889
     43         26           0        0.959964   -0.045150   -0.000976
     44          7           0        2.280541   -0.306056    3.723406
     45          6           0        1.737098   -0.806619    2.654394
     46          7           0        1.259811    0.189171    1.959721
     47          6           0        1.499839    1.300357    2.584281
     48          6           0        2.171460    0.990545    3.751289
     49          1           0        2.780947   -0.819336    4.373207
     50          8           0        0.651998   -0.387767   -1.932913
     51          1           0       -3.399030   -0.106564    0.421534
     52          1           0        1.001868   -4.520318   -0.328448
     53          1           0        5.343079   -0.040119   -0.785404
     54          1           0        0.881058    4.386340   -0.468343
     55          1           0       -0.824353   -5.548564   -0.361923
     56          1           0       -1.785917   -5.380454    1.087284
     57          1           0       -2.551373   -5.311778   -0.481928
     58          1           0       -4.284954   -1.735671    0.721224
     59          1           0       -4.148069   -3.583896    0.726613
     60          1           0       -4.423065   -3.618794   -1.510930
     61          1           0       -4.530858   -1.768772   -1.533269
     62          1           0        3.941349   -5.432917   -1.124426
     63          1           0        4.284184   -5.243998    0.578466
     64          1           0        2.634516   -5.435739    0.035422
     65          1           0        6.322107   -1.605619   -0.460107
     66          1           0        6.266819   -4.665859   -0.079973
     67          1           0        7.750470   -3.560279   -0.185667
     68          1           0        6.492506    3.366680   -1.216231
     69          1           0        5.387840    3.251809   -2.035601
     70          1           0        5.879880    2.561583   -0.277425
     71          1           0        2.303197    5.186301   -1.335858
     72          1           0        5.376169    5.275014   -1.155558
     73          1           0        4.212819    6.685514   -1.458557
     74          1           0       -2.559535    5.256870   -0.015667
     75          1           0       -1.746436    5.087769    1.521650
     76          1           0       -0.824731    5.442179    0.080150
     77          1           0       -3.961501    3.517706    1.278390
     78          1           0       -4.161496    1.675911    1.328335
     79          1           0       -4.685522    1.721866   -0.933346
     80          1           0       -4.631324    3.573210   -0.867865
     81          1           0        1.689860   -1.843012    2.392559
     82          1           0        1.226705    2.281046    2.254818
     83          1           0        2.521993    1.663246    4.505942
     84          1           0        1.048135   -0.131521   -2.768983
     85          1           0       -0.208135    0.029447   -1.845145
     86          1           0       -7.489499   -4.224820   -0.853656
     87          1           0       -7.130146    3.991169    1.024820
 ---------------------------------------------------------------------
 Rotational constants (GHZ):           0.0819071           0.0475467           0.0338762
 Standard basis: def2TZVP (5D, 7F)
 There are  2008 symmetry adapted cartesian basis functions of A   symmetry.
 There are  1761 symmetry adapted basis functions of A   symmetry.
  1761 basis functions,  2854 primitive gaussians,  2008 cartesian basis functions
   186 alpha electrons      181 beta electrons
       nuclear repulsion energy      7371.5366171953 Hartrees.
 NAtoms=   87 NActive=   87 NUniq=   87 SFac= 1.00D+00 NAtFMM=   60 NAOKFM=T Big=T
 Integral buffers will be    131072 words long.
 Raffenetti 2 integral format.
 Two-electron integral symmetry is turned on.
 Nuclear repulsion after empirical dispersion term =     7371.4146188558 Hartrees.
 One-electron integrals computed using PRISM.
   1 Symmetry operations used in ECPInt.
 ECPInt:  NShTT=  241860 NPrTT=  750929 LenC2=  176350 LenP2D=  356217.
 LDataN:  DoStor=T MaxTD1= 6 Len=  172
 NBasis=  1761 RedAO= T EigKep=  2.74D-06  NBF=  1761
 NBsUse=  1761 1.00D-06 EigRej= -1.00D+00 NBFU=  1761
 ExpMin= 4.20D-02 ExpMax= 3.01D+05 ExpMxC= 2.91D+03 IAcc=3 IRadAn=         5 AccDes= 0.00D+00
 Harris functional with IExCor= 1009 and IRadAn=       5 diagonalized for initial guess.
 HarFok:  IExCor= 1009 AccDes= 0.00D+00 IRadAn=         5 IDoV= 1 UseB2=F ITyADJ=14
 ICtDFT=  3500011 ScaDFX=  1.000000  1.000000  1.000000  1.000000
 FoFCou: FMM=F IPFlag=           0 FMFlag=      100000 FMFlg1=        2001
         NFxFlg=           0 DoJE=T BraDBF=F KetDBF=T FulRan=T
         wScrn=  0.000000 ICntrl=       500 IOpCl=  0 I1Cent=   200000004 NGrid=           0
         NMat0=    1 NMatS0=      1 NMatT0=    0 NMatD0=    1 NMtDS0=    0 NMtDT0=    0
 Petite list used in FoFCou.
 Initial guess <Sx>= 0.0000 <Sy>= 0.0000 <Sz>= 2.5000 <S**2>= 8.7500 S= 2.5000
 Requested convergence on RMS density matrix=1.00D-08 within 128 cycles.
 Requested convergence on MAX density matrix=1.00D-06.
 Requested convergence on             energy=1.00D-06.
 No special actions if energy rises.
 EnCoef did   100 forward-backward iterations
 EnCoef did   100 forward-backward iterations
 EnCoef did   100 forward-backward iterations
 EnCoef did   100 forward-backward iterations
 EnCoef did    29 forward-backward iterations
 EnCoef did    21 forward-backward iterations
 EnCoef did   100 forward-backward iterations
 Restarting incremental Fock formation.
 SCF Done:  E(UPBE1PBE) =  -3398.96419353     A.U. after   36 cycles
            NFock= 36  Conv=0.31D-08     -V/T= 2.0024
 <Sx>= 0.0000 <Sy>= 0.0000 <Sz>= 2.5000 <S**2>= 8.7592 S= 2.5015
 <L.S>= 0.000000000000E+00
 Annihilation of the first spin contaminant:
 S**2 before annihilation     8.7592,   after     8.7500

 **********************************************************************

            Population analysis using the SCF density.

 **********************************************************************

 Orbital symmetries:
 Alpha Orbitals:
       Occupied  (A) (A) (A) (A) (A) (A) (A) (A) (A) (A) (A) (A)
                 (A) (A) (A) (A) (A) (A) (A) (A) (A) (A) (A) (A)
                 (A) (A) (A) (A) (A) (A) (A) (A) (A) (A) (A) (A)
                 (A) (A) (A) (A) (A) (A) (A) (A) (A) (A) (A) (A)
                 (A) (A) (A) (A) (A) (A) (A) (A) (A) (A) (A) (A)
                 (A) (A) (A) (A) (A) (A) (A) (A) (A) (A) (A) (A)
                 (A) (A) (A) (A) (A) (A) (A) (A) (A) (A) (A) (A)
                 (A) (A) (A) (A) (A) (A) (A) (A) (A) (A) (A) (A)
                 (A) (A) (A) (A) (A) (A) (A) (A) (A) (A) (A) (A)
                 (A) (A) (A) (A) (A) (A) (A) (A) (A) (A) (A) (A)
                 (A) (A) (A) (A) (A) (A) (A) (A) (A) (A) (A) (A)
                 (A) (A) (A) (A) (A) (A) (A) (A) (A) (A) (A) (A)
                 (A) (A) (A) (A) (A) (A) (A) (A) (A) (A) (A) (A)
                 (A) (A) (A) (A) (A) (A) (A) (A) (A) (A) (A) (A)
                 (A) (A) (A) (A) (A) (A) (A) (A) (A) (A) (A) (A)
                 (A) (A) (A) (A) (A) (A)
       Virtual   (A) (A) (A) (A) (A) (A) (A) (A) (A) (A) (A) (A)
                 (A) (A) (A) (A) (A) (A) (A) (A) (A) (A) (A) (A)
                 (A) (A) (A) (A) (A) (A) (A) (A) (A) (A) (A) (A)
                 (A) (A) (A) (A) (A) (A) (A) (A) (A) (A) (A) (A)
                 (A) (A) (A) (A) (A) (A) (A) (A) (A) (A) (A) (A)
                 (A) (A) (A) (A) (A) (A) (A) (A) (A) (A) (A) (A)
                 (A) (A) (A) (A) (A) (A) (A) (A) (A) (A) (A) (A)
                 (A) (A) (A) (A) (A) (A) (A) (A) (A) (A) (A) (A)
                 (A) (A) (A) (A) (A) (A) (A) (A) (A) (A) (A) (A)
                 (A) (A) (A) (A) (A) (A) (A) (A) (A) (A) (A) (A)
                 (A) (A) (A) (A) (A) (A) (A) (A) (A) (A) (A) (A)
                 (A) (A) (A) (A) (A) (A) (A) (A) (A) (A) (A) (A)
                 (A) (A) (A) (A) (A) (A) (A) (A) (A) (A) (A) (A)
                 (A) (A) (A) (A) (A) (A) (A) (A) (A) (A) (A) (A)
                 (A) (A) (A) (A) (A) (A) (A) (A) (A) (A) (A) (A)
                 (A) (A) (A) (A) (A) (A) (A) (A) (A) (A) (A) (A)
                 (A) (A) (A) (A) (A) (A) (A) (A) (A) (A) (A) (A)
                 (A) (A) (A) (A) (A) (A) (A) (A) (A) (A) (A) (A)
                 (A) (A) (A) (A) (A) (A) (A) (A) (A) (A) (A) (A)
                 (A) (A) (A) (A) (A) (A) (A) (A) (A) (A) (A) (A)
                 (A) (A) (A) (A) (A) (A) (A) (A) (A) (A) (A) (A)
                 (A) (A) (A) (A) (A) (A) (A) (A) (A) (A) (A) (A)
                 (A) (A) (A) (A) (A) (A) (A) (A) (A) (A) (A) (A)
                 (A) (A) (A) (A) (A) (A) (A) (A) (A) (A) (A) (A)
                 (A) (A) (A) (A) (A) (A) (A) (A) (A) (A) (A) (A)
                 (A) (A) (A) (A) (A) (A) (A) (A) (A) (A) (A) (A)
                 (A) (A) (A) (A) (A) (A) (A) (A) (A) (A) (A) (A)
                 (A) (A) (A) (A) (A) (A) (A) (A) (A) (A) (A) (A)
                 (A) (A) (A) (A) (A) (A) (A) (A) (A) (A) (A) (A)
                 (A) (A) (A) (A) (A) (A) (A) (A) (A) (A) (A) (A)
                 (A) (A) (A) (A) (A) (A) (A) (A) (A) (A) (A) (A)
                 (A) (A) (A) (A) (A) (A) (A) (A) (A) (A) (A) (A)
                 (A) (A) (A) (A) (A) (A) (A) (A) (A) (A) (A) (A)
                 (A) (A) (A) (A) (A) (A) (A) (A) (A) (A) (A) (A)
                 (A) (A) (A) (A) (A) (A) (A) (A) (A) (A) (A) (A)
                 (A) (A) (A) (A) (A) (A) (A) (A) (A) (A) (A) (A)
                 (A) (A) (A) (A) (A) (A) (A) (A) (A) (A) (A) (A)
                 (A) (A) (A) (A) (A) (A) (A) (A) (A) (A) (A) (A)
                 (A) (A) (A) (A) (A) (A) (A) (A) (A) (A) (A) (A)
                 (A) (A) (A) (A) (A) (A) (A) (A) (A) (A) (A) (A)
                 (A) (A) (A) (A) (A) (A) (A) (A) (A) (A) (A) (A)
                 (A) (A) (A) (A) (A) (A) (A) (A) (A) (A) (A) (A)
                 (A) (A) (A) (A) (A) (A) (A) (A) (A) (A) (A) (A)
                 (A) (A) (A) (A) (A) (A) (A) (A) (A) (A) (A) (A)
                 (A) (A) (A) (A) (A) (A) (A) (A) (A) (A) (A) (A)
                 (A) (A) (A) (A) (A) (A) (A) (A) (A) (A) (A) (A)
                 (A) (A) (A) (A) (A) (A) (A) (A) (A) (A) (A) (A)
                 (A) (A) (A) (A) (A) (A) (A) (A) (A) (A) (A) (A)
                 (A) (A) (A) (A) (A) (A) (A) (A) (A) (A) (A) (A)
                 (A) (A) (A) (A) (A) (A) (A) (A) (A) (A) (A) (A)
                 (A) (A) (A) (A) (A) (A) (A) (A) (A) (A) (A) (A)
                 (A) (A) (A) (A) (A) (A) (A) (A) (A) (A) (A) (A)
                 (A) (A) (A) (A) (A) (A) (A) (A) (A) (A) (A) (A)
                 (A) (A) (A) (A) (A) (A) (A) (A) (A) (A) (A) (A)
                 (A) (A) (A) (A) (A) (A) (A) (A) (A) (A) (A) (A)
                 (A) (A) (A) (A) (A) (A) (A) (A) (A) (A) (A) (A)
                 (A) (A) (A) (A) (A) (A) (A) (A) (A) (A) (A) (A)
                 (A) (A) (A) (A) (A) (A) (A) (A) (A) (A) (A) (A)
                 (A) (A) (A) (A) (A) (A) (A) (A) (A) (A) (A) (A)
                 (A) (A) (A) (A) (A) (A) (A) (A) (A) (A) (A) (A)
                 (A) (A) (A) (A) (A) (A) (A) (A) (A) (A) (A) (A)
                 (A) (A) (A) (A) (A) (A) (A) (A) (A) (A) (A) (A)
                 (A) (A) (A) (A) (A) (A) (A) (A) (A) (A) (A) (A)
                 (A) (A) (A) (A) (A) (A) (A) (A) (A) (A) (A) (A)
                 (A) (A) (A) (A) (A) (A) (A) (A) (A) (A) (A) (A)
                 (A) (A) (A) (A) (A) (A) (A) (A) (A) (A) (A) (A)
                 (A) (A) (A) (A) (A) (A) (A) (A) (A) (A) (A) (A)
                 (A) (A) (A) (A) (A) (A) (A) (A) (A) (A) (A) (A)
                 (A) (A) (A) (A) (A) (A) (A) (A) (A) (A) (A) (A)
                 (A) (A) (A) (A) (A) (A) (A) (A) (A) (A) (A) (A)
                 (A) (A) (A) (A) (A) (A) (A) (A) (A) (A) (A) (A)
                 (A) (A) (A) (A) (A) (A) (A) (A) (A) (A) (A) (A)
                 (A) (A) (A) (A) (A) (A) (A) (A) (A) (A) (A) (A)
                 (A) (A) (A) (A) (A) (A) (A) (A) (A) (A) (A) (A)
                 (A) (A) (A) (A) (A) (A) (A) (A) (A) (A) (A) (A)
                 (A) (A) (A) (A) (A) (A) (A) (A) (A) (A) (A) (A)
                 (A) (A) (A) (A) (A) (A) (A) (A) (A) (A) (A) (A)
                 (A) (A) (A) (A) (A) (A) (A) (A) (A) (A) (A) (A)
                 (A) (A) (A) (A) (A) (A) (A) (A) (A) (A) (A) (A)
                 (A) (A) (A) (A) (A) (A) (A) (A) (A) (A) (A) (A)
                 (A) (A) (A) (A) (A) (A) (A) (A) (A) (A) (A) (A)
                 (A) (A) (A) (A) (A) (A) (A) (A) (A) (A) (A) (A)
                 (A) (A) (A) (A) (A) (A) (A) (A) (A) (A) (A) (A)
                 (A) (A) (A) (A) (A) (A) (A) (A) (A) (A) (A) (A)
                 (A) (A) (A) (A) (A) (A) (A) (A) (A) (A) (A) (A)
                 (A) (A) (A) (A) (A) (A) (A) (A) (A) (A) (A) (A)
                 (A) (A) (A) (A) (A) (A) (A) (A) (A) (A) (A) (A)
                 (A) (A) (A) (A) (A) (A) (A) (A) (A) (A) (A) (A)
                 (A) (A) (A) (A) (A) (A) (A) (A) (A) (A) (A) (A)
                 (A) (A) (A) (A) (A) (A) (A) (A) (A) (A) (A) (A)
                 (A) (A) (A) (A) (A) (A) (A) (A) (A) (A) (A) (A)
                 (A) (A) (A) (A) (A) (A) (A) (A) (A) (A) (A) (A)
                 (A) (A) (A) (A) (A) (A) (A) (A) (A) (A) (A) (A)
                 (A) (A) (A) (A) (A) (A) (A) (A) (A) (A) (A) (A)
                 (A) (A) (A) (A) (A) (A) (A) (A) (A) (A) (A) (A)
                 (A) (A) (A) (A) (A) (A) (A) (A) (A) (A) (A) (A)
                 (A) (A) (A) (A) (A) (A) (A) (A) (A) (A) (A) (A)
                 (A) (A) (A) (A) (A) (A) (A) (A) (A) (A) (A) (A)
                 (A) (A) (A) (A) (A) (A) (A) (A) (A) (A) (A) (A)
                 (A) (A) (A) (A) (A) (A) (A) (A) (A) (A) (A) (A)
                 (A) (A) (A) (A) (A) (A) (A) (A) (A) (A) (A) (A)
                 (A) (A) (A) (A) (A) (A) (A) (A) (A) (A) (A) (A)
                 (A) (A) (A) (A) (A) (A) (A) (A) (A) (A) (A) (A)
                 (A) (A) (A) (A) (A) (A) (A) (A) (A) (A) (A) (A)
                 (A) (A) (A) (A) (A) (A) (A) (A) (A) (A) (A) (A)
                 (A) (A) (A) (A) (A) (A) (A) (A) (A) (A) (A) (A)
                 (A) (A) (A) (A) (A) (A) (A) (A) (A) (A) (A) (A)
                 (A) (A) (A) (A) (A) (A) (A) (A) (A) (A) (A) (A)
                 (A) (A) (A) (A) (A) (A) (A) (A) (A) (A) (A) (A)
                 (A) (A) (A) (A) (A) (A) (A) (A) (A) (A) (A) (A)
                 (A) (A) (A) (A) (A) (A) (A) (A) (A) (A) (A) (A)
                 (A) (A) (A) (A) (A) (A) (A) (A) (A) (A) (A) (A)
                 (A) (A) (A) (A) (A) (A) (A) (A) (A) (A) (A) (A)
                 (A) (A) (A) (A) (A) (A) (A) (A) (A) (A) (A) (A)
                 (A) (A) (A) (A) (A) (A) (A) (A) (A) (A) (A) (A)
                 (A) (A) (A) (A) (A) (A) (A) (A) (A) (A) (A) (A)
                 (A) (A) (A) (A) (A) (A) (A) (A) (A) (A) (A) (A)
                 (A) (A) (A) (A) (A) (A) (A) (A) (A) (A) (A) (A)
                 (A) (A) (A) (A) (A) (A) (A) (A) (A) (A) (A) (A)
                 (A) (A) (A) (A) (A) (A) (A) (A) (A) (A) (A) (A)
                 (A) (A) (A) (A) (A) (A) (A) (A) (A) (A) (A) (A)
                 (A) (A) (A) (A) (A) (A) (A) (A) (A) (A) (A) (A)
                 (A) (A) (A) (A) (A) (A) (A) (A) (A) (A) (A) (A)
                 (A) (A) (A) (A) (A) (A) (A) (A) (A) (A) (A) (A)
                 (A) (A) (A) (A) (A) (A) (A) (A) (A) (A) (A) (A)
                 (A) (A) (A) (A) (A) (A) (A) (A) (A) (A) (A) (A)
                 (A) (A) (A) (A) (A) (A) (A) (A) (A) (A) (A) (A)
                 (A) (A) (A) (A) (A) (A) (A) (A) (A) (A) (A) (A)
                 (A) (A) (A) (A) (A) (A) (A) (A) (A) (A) (A) (A)
                 (A) (A) (A) (A) (A) (A) (A) (A) (A) (A) (A) (A)
                 (A) (A) (A) (A) (A) (A) (A) (A) (A) (A) (A) (A)
                 (A) (A) (A)
 Beta  Orbitals:
       Occupied  (A) (A) (A) (A) (A) (A) (A) (A) (A) (A) (A) (A)
                 (A) (A) (A) (A) (A) (A) (A) (A) (A) (A) (A) (A)
                 (A) (A) (A) (A) (A) (A) (A) (A) (A) (A) (A) (A)
                 (A) (A) (A) (A) (A) (A) (A) (A) (A) (A) (A) (A)
                 (A) (A) (A) (A) (A) (A) (A) (A) (A) (A) (A) (A)
                 (A) (A) (A) (A) (A) (A) (A) (A) (A) (A) (A) (A)
                 (A) (A) (A) (A) (A) (A) (A) (A) (A) (A) (A) (A)
                 (A) (A) (A) (A) (A) (A) (A) (A) (A) (A) (A) (A)
                 (A) (A) (A) (A) (A) (A) (A) (A) (A) (A) (A) (A)
                 (A) (A) (A) (A) (A) (A) (A) (A) (A) (A) (A) (A)
                 (A) (A) (A) (A) (A) (A) (A) (A) (A) (A) (A) (A)
                 (A) (A) (A) (A) (A) (A) (A) (A) (A) (A) (A) (A)
                 (A) (A) (A) (A) (A) (A) (A) (A) (A) (A) (A) (A)
                 (A) (A) (A) (A) (A) (A) (A) (A) (A) (A) (A) (A)
                 (A) (A) (A) (A) (A) (A) (A) (A) (A) (A) (A) (A)
                 (A)
       Virtual   (A) (A) (A) (A) (A) (A) (A) (A) (A) (A) (A) (A)
                 (A) (A) (A) (A) (A) (A) (A) (A) (A) (A) (A) (A)
                 (A) (A) (A) (A) (A) (A) (A) (A) (A) (A) (A) (A)
                 (A) (A) (A) (A) (A) (A) (A) (A) (A) (A) (A) (A)
                 (A) (A) (A) (A) (A) (A) (A) (A) (A) (A) (A) (A)
                 (A) (A) (A) (A) (A) (A) (A) (A) (A) (A) (A) (A)
                 (A) (A) (A) (A) (A) (A) (A) (A) (A) (A) (A) (A)
                 (A) (A) (A) (A) (A) (A) (A) (A) (A) (A) (A) (A)
                 (A) (A) (A) (A) (A) (A) (A) (A) (A) (A) (A) (A)
                 (A) (A) (A) (A) (A) (A) (A) (A) (A) (A) (A) (A)
                 (A) (A) (A) (A) (A) (A) (A) (A) (A) (A) (A) (A)
                 (A) (A) (A) (A) (A) (A) (A) (A) (A) (A) (A) (A)
                 (A) (A) (A) (A) (A) (A) (A) (A) (A) (A) (A) (A)
                 (A) (A) (A) (A) (A) (A) (A) (A) (A) (A) (A) (A)
                 (A) (A) (A) (A) (A) (A) (A) (A) (A) (A) (A) (A)
                 (A) (A) (A) (A) (A) (A) (A) (A) (A) (A) (A) (A)
                 (A) (A) (A) (A) (A) (A) (A) (A) (A) (A) (A) (A)
                 (A) (A) (A) (A) (A) (A) (A) (A) (A) (A) (A) (A)
                 (A) (A) (A) (A) (A) (A) (A) (A) (A) (A) (A) (A)
                 (A) (A) (A) (A) (A) (A) (A) (A) (A) (A) (A) (A)
                 (A) (A) (A) (A) (A) (A) (A) (A) (A) (A) (A) (A)
                 (A) (A) (A) (A) (A) (A) (A) (A) (A) (A) (A) (A)
                 (A) (A) (A) (A) (A) (A) (A) (A) (A) (A) (A) (A)
                 (A) (A) (A) (A) (A) (A) (A) (A) (A) (A) (A) (A)
                 (A) (A) (A) (A) (A) (A) (A) (A) (A) (A) (A) (A)
                 (A) (A) (A) (A) (A) (A) (A) (A) (A) (A) (A) (A)
                 (A) (A) (A) (A) (A) (A) (A) (A) (A) (A) (A) (A)
                 (A) (A) (A) (A) (A) (A) (A) (A) (A) (A) (A) (A)
                 (A) (A) (A) (A) (A) (A) (A) (A) (A) (A) (A) (A)
                 (A) (A) (A) (A) (A) (A) (A) (A) (A) (A) (A) (A)
                 (A) (A) (A) (A) (A) (A) (A) (A) (A) (A) (A) (A)
                 (A) (A) (A) (A) (A) (A) (A) (A) (A) (A) (A) (A)
                 (A) (A) (A) (A) (A) (A) (A) (A) (A) (A) (A) (A)
                 (A) (A) (A) (A) (A) (A) (A) (A) (A) (A) (A) (A)
                 (A) (A) (A) (A) (A) (A) (A) (A) (A) (A) (A) (A)
                 (A) (A) (A) (A) (A) (A) (A) (A) (A) (A) (A) (A)
                 (A) (A) (A) (A) (A) (A) (A) (A) (A) (A) (A) (A)
                 (A) (A) (A) (A) (A) (A) (A) (A) (A) (A) (A) (A)
                 (A) (A) (A) (A) (A) (A) (A) (A) (A) (A) (A) (A)
                 (A) (A) (A) (A) (A) (A) (A) (A) (A) (A) (A) (A)
                 (A) (A) (A) (A) (A) (A) (A) (A) (A) (A) (A) (A)
                 (A) (A) (A) (A) (A) (A) (A) (A) (A) (A) (A) (A)
                 (A) (A) (A) (A) (A) (A) (A) (A) (A) (A) (A) (A)
                 (A) (A) (A) (A) (A) (A) (A) (A) (A) (A) (A) (A)
                 (A) (A) (A) (A) (A) (A) (A) (A) (A) (A) (A) (A)
                 (A) (A) (A) (A) (A) (A) (A) (A) (A) (A) (A) (A)
                 (A) (A) (A) (A) (A) (A) (A) (A) (A) (A) (A) (A)
                 (A) (A) (A) (A) (A) (A) (A) (A) (A) (A) (A) (A)
                 (A) (A) (A) (A) (A) (A) (A) (A) (A) (A) (A) (A)
                 (A) (A) (A) (A) (A) (A) (A) (A) (A) (A) (A) (A)
                 (A) (A) (A) (A) (A) (A) (A) (A) (A) (A) (A) (A)
                 (A) (A) (A) (A) (A) (A) (A) (A) (A) (A) (A) (A)
                 (A) (A) (A) (A) (A) (A) (A) (A) (A) (A) (A) (A)
                 (A) (A) (A) (A) (A) (A) (A) (A) (A) (A) (A) (A)
                 (A) (A) (A) (A) (A) (A) (A) (A) (A) (A) (A) (A)
                 (A) (A) (A) (A) (A) (A) (A) (A) (A) (A) (A) (A)
                 (A) (A) (A) (A) (A) (A) (A) (A) (A) (A) (A) (A)
                 (A) (A) (A) (A) (A) (A) (A) (A) (A) (A) (A) (A)
                 (A) (A) (A) (A) (A) (A) (A) (A) (A) (A) (A) (A)
                 (A) (A) (A) (A) (A) (A) (A) (A) (A) (A) (A) (A)
                 (A) (A) (A) (A) (A) (A) (A) (A) (A) (A) (A) (A)
                 (A) (A) (A) (A) (A) (A) (A) (A) (A) (A) (A) (A)
                 (A) (A) (A) (A) (A) (A) (A) (A) (A) (A) (A) (A)
                 (A) (A) (A) (A) (A) (A) (A) (A) (A) (A) (A) (A)
                 (A) (A) (A) (A) (A) (A) (A) (A) (A) (A) (A) (A)
                 (A) (A) (A) (A) (A) (A) (A) (A) (A) (A) (A) (A)
                 (A) (A) (A) (A) (A) (A) (A) (A) (A) (A) (A) (A)
                 (A) (A) (A) (A) (A) (A) (A) (A) (A) (A) (A) (A)
                 (A) (A) (A) (A) (A) (A) (A) (A) (A) (A) (A) (A)
                 (A) (A) (A) (A) (A) (A) (A) (A) (A) (A) (A) (A)
                 (A) (A) (A) (A) (A) (A) (A) (A) (A) (A) (A) (A)
                 (A) (A) (A) (A) (A) (A) (A) (A) (A) (A) (A) (A)
                 (A) (A) (A) (A) (A) (A) (A) (A) (A) (A) (A) (A)
                 (A) (A) (A) (A) (A) (A) (A) (A) (A) (A) (A) (A)
                 (A) (A) (A) (A) (A) (A) (A) (A) (A) (A) (A) (A)
                 (A) (A) (A) (A) (A) (A) (A) (A) (A) (A) (A) (A)
                 (A) (A) (A) (A) (A) (A) (A) (A) (A) (A) (A) (A)
                 (A) (A) (A) (A) (A) (A) (A) (A) (A) (A) (A) (A)
                 (A) (A) (A) (A) (A) (A) (A) (A) (A) (A) (A) (A)
                 (A) (A) (A) (A) (A) (A) (A) (A) (A) (A) (A) (A)
                 (A) (A) (A) (A) (A) (A) (A) (A) (A) (A) (A) (A)
                 (A) (A) (A) (A) (A) (A) (A) (A) (A) (A) (A) (A)
                 (A) (A) (A) (A) (A) (A) (A) (A) (A) (A) (A) (A)
                 (A) (A) (A) (A) (A) (A) (A) (A) (A) (A) (A) (A)
                 (A) (A) (A) (A) (A) (A) (A) (A) (A) (A) (A) (A)
                 (A) (A) (A) (A) (A) (A) (A) (A) (A) (A) (A) (A)
                 (A) (A) (A) (A) (A) (A) (A) (A) (A) (A) (A) (A)
                 (A) (A) (A) (A) (A) (A) (A) (A) (A) (A) (A) (A)
                 (A) (A) (A) (A) (A) (A) (A) (A) (A) (A) (A) (A)
                 (A) (A) (A) (A) (A) (A) (A) (A) (A) (A) (A) (A)
                 (A) (A) (A) (A) (A) (A) (A) (A) (A) (A) (A) (A)
                 (A) (A) (A) (A) (A) (A) (A) (A) (A) (A) (A) (A)
                 (A) (A) (A) (A) (A) (A) (A) (A) (A) (A) (A) (A)
                 (A) (A) (A) (A) (A) (A) (A) (A) (A) (A) (A) (A)
                 (A) (A) (A) (A) (A) (A) (A) (A) (A) (A) (A) (A)
                 (A) (A) (A) (A) (A) (A) (A) (A) (A) (A) (A) (A)
                 (A) (A) (A) (A) (A) (A) (A) (A) (A) (A) (A) (A)
                 (A) (A) (A) (A) (A) (A) (A) (A) (A) (A) (A) (A)
                 (A) (A) (A) (A) (A) (A) (A) (A) (A) (A) (A) (A)
                 (A) (A) (A) (A) (A) (A) (A) (A) (A) (A) (A) (A)
                 (A) (A) (A) (A) (A) (A) (A) (A) (A) (A) (A) (A)
                 (A) (A) (A) (A) (A) (A) (A) (A) (A) (A) (A) (A)
                 (A) (A) (A) (A) (A) (A) (A) (A) (A) (A) (A) (A)
                 (A) (A) (A) (A) (A) (A) (A) (A) (A) (A) (A) (A)
                 (A) (A) (A) (A) (A) (A) (A) (A) (A) (A) (A) (A)
                 (A) (A) (A) (A) (A) (A) (A) (A) (A) (A) (A) (A)
                 (A) (A) (A) (A) (A) (A) (A) (A) (A) (A) (A) (A)
                 (A) (A) (A) (A) (A) (A) (A) (A) (A) (A) (A) (A)
                 (A) (A) (A) (A) (A) (A) (A) (A) (A) (A) (A) (A)
                 (A) (A) (A) (A) (A) (A) (A) (A) (A) (A) (A) (A)
                 (A) (A) (A) (A) (A) (A) (A) (A) (A) (A) (A) (A)
                 (A) (A) (A) (A) (A) (A) (A) (A) (A) (A) (A) (A)
                 (A) (A) (A) (A) (A) (A) (A) (A) (A) (A) (A) (A)
                 (A) (A) (A) (A) (A) (A) (A) (A) (A) (A) (A) (A)
                 (A) (A) (A) (A) (A) (A) (A) (A) (A) (A) (A) (A)
                 (A) (A) (A) (A) (A) (A) (A) (A) (A) (A) (A) (A)
                 (A) (A) (A) (A) (A) (A) (A) (A) (A) (A) (A) (A)
                 (A) (A) (A) (A) (A) (A) (A) (A) (A) (A) (A) (A)
                 (A) (A) (A) (A) (A) (A) (A) (A) (A) (A) (A) (A)
                 (A) (A) (A) (A) (A) (A) (A) (A) (A) (A) (A) (A)
                 (A) (A) (A) (A) (A) (A) (A) (A) (A) (A) (A) (A)
                 (A) (A) (A) (A) (A) (A) (A) (A) (A) (A) (A) (A)
                 (A) (A) (A) (A) (A) (A) (A) (A) (A) (A) (A) (A)
                 (A) (A) (A) (A) (A) (A) (A) (A) (A) (A) (A) (A)
                 (A) (A) (A) (A) (A) (A) (A) (A) (A) (A) (A) (A)
                 (A) (A) (A) (A) (A) (A) (A) (A) (A) (A) (A) (A)
                 (A) (A) (A) (A) (A) (A) (A) (A) (A) (A) (A) (A)
                 (A) (A) (A) (A) (A) (A) (A) (A) (A) (A) (A) (A)
                 (A) (A) (A) (A) (A) (A) (A) (A) (A) (A) (A) (A)
                 (A) (A) (A) (A) (A) (A) (A) (A) (A) (A) (A) (A)
                 (A) (A) (A) (A) (A) (A) (A) (A) (A) (A) (A) (A)
                 (A) (A) (A) (A) (A) (A) (A) (A)
 The electronic state is 6-A.
 Alpha  occ. eigenvalues -- -256.56952 -30.39705 -26.21385 -26.21330 -26.21290
 Alpha  occ. eigenvalues --  -19.35299 -19.31948 -19.31648 -19.23698 -19.23597
 Alpha  occ. eigenvalues --  -14.57352 -14.51932 -14.48421 -14.47860 -14.47697
 Alpha  occ. eigenvalues --  -14.47581 -10.41145 -10.40782 -10.40363 -10.37659
 Alpha  occ. eigenvalues --  -10.36870 -10.35902 -10.35835 -10.35619 -10.35226
 Alpha  occ. eigenvalues --  -10.35151 -10.35145 -10.35143 -10.35102 -10.35092
 Alpha  occ. eigenvalues --  -10.33264 -10.33114 -10.32916 -10.32913 -10.32897
 Alpha  occ. eigenvalues --  -10.32886 -10.32792 -10.32605 -10.32595 -10.32540
 Alpha  occ. eigenvalues --  -10.32465 -10.32343 -10.32292 -10.32191 -10.31570
 Alpha  occ. eigenvalues --  -10.31473 -10.31189 -10.31084 -10.30799 -10.30669
 Alpha  occ. eigenvalues --  -10.30638 -10.30102 -10.29010  -3.82381  -2.58621
 Alpha  occ. eigenvalues --   -2.58390  -2.58329  -1.24088  -1.24014  -1.22660
 Alpha  occ. eigenvalues --   -1.20048  -1.12328  -1.11519  -1.11164  -1.10402
 Alpha  occ. eigenvalues --   -1.09487  -1.08922  -1.06793  -0.95682  -0.95331
 Alpha  occ. eigenvalues --   -0.93691  -0.93506  -0.93228  -0.92769  -0.92550
 Alpha  occ. eigenvalues --   -0.91464  -0.89839  -0.88548  -0.88349  -0.86516
 Alpha  occ. eigenvalues --   -0.86255  -0.84190  -0.84067  -0.82600  -0.81949
 Alpha  occ. eigenvalues --   -0.80982  -0.79689  -0.78362  -0.78067  -0.77258
 Alpha  occ. eigenvalues --   -0.76912  -0.76583  -0.74121  -0.73538  -0.73190
 Alpha  occ. eigenvalues --   -0.72528  -0.72358  -0.72138  -0.70263  -0.70047
 Alpha  occ. eigenvalues --   -0.67675  -0.66831  -0.65889  -0.65341  -0.64028
 Alpha  occ. eigenvalues --   -0.63864  -0.63728  -0.63134  -0.63080  -0.61992
 Alpha  occ. eigenvalues --   -0.60792  -0.60767  -0.60419  -0.60023  -0.59766
 Alpha  occ. eigenvalues --   -0.59456  -0.59109  -0.58863  -0.58460  -0.58212
 Alpha  occ. eigenvalues --   -0.57986  -0.57473  -0.57401  -0.57309  -0.57124
 Alpha  occ. eigenvalues --   -0.56870  -0.56316  -0.55958  -0.55641  -0.54939
 Alpha  occ. eigenvalues --   -0.54742  -0.54461  -0.54436  -0.53968  -0.53765
 Alpha  occ. eigenvalues --   -0.53465  -0.53134  -0.53068  -0.52681  -0.52257
 Alpha  occ. eigenvalues --   -0.51979  -0.51729  -0.51280  -0.51197  -0.50930
 Alpha  occ. eigenvalues --   -0.50801  -0.50618  -0.50183  -0.49945  -0.49277
 Alpha  occ. eigenvalues --   -0.48953  -0.48542  -0.48135  -0.47926  -0.47693
 Alpha  occ. eigenvalues --   -0.47000  -0.46837  -0.46724  -0.46010  -0.45802
 Alpha  occ. eigenvalues --   -0.45533  -0.45307  -0.45005  -0.44029  -0.43675
 Alpha  occ. eigenvalues --   -0.43199  -0.42492  -0.41839  -0.41486  -0.41155
 Alpha  occ. eigenvalues --   -0.39391  -0.39122  -0.38997  -0.38904  -0.38458
 Alpha  occ. eigenvalues --   -0.37148  -0.35532  -0.34975  -0.34521  -0.34261
 Alpha  occ. eigenvalues --   -0.33539  -0.33340  -0.32045  -0.30741  -0.30061
 Alpha  occ. eigenvalues --   -0.29369
 Alpha virt. eigenvalues --   -0.19108  -0.18818  -0.14284  -0.10899  -0.10408
 Alpha virt. eigenvalues --   -0.09920  -0.08718  -0.08081  -0.07411  -0.06918
 Alpha virt. eigenvalues --   -0.06832  -0.06316  -0.04710  -0.04414  -0.04329
 Alpha virt. eigenvalues --   -0.04124  -0.03461  -0.03404  -0.02454  -0.01966
 Alpha virt. eigenvalues --   -0.01826  -0.01533  -0.01224  -0.01100  -0.00988
 Alpha virt. eigenvalues --   -0.00912  -0.00452  -0.00005   0.00293   0.00379
 Alpha virt. eigenvalues --    0.00583   0.01070   0.01753   0.02194   0.02657
 Alpha virt. eigenvalues --    0.02832   0.03116   0.03215   0.03499   0.03929
 Alpha virt. eigenvalues --    0.04135   0.04590   0.04661   0.04789   0.05004
 Alpha virt. eigenvalues --    0.05285   0.05444   0.05747   0.06362   0.06511
 Alpha virt. eigenvalues --    0.06768   0.06877   0.07089   0.07128   0.07721
 Alpha virt. eigenvalues --    0.07885   0.08054   0.08094   0.08425   0.08755
 Alpha virt. eigenvalues --    0.08848   0.09074   0.09191   0.09423   0.09510
 Alpha virt. eigenvalues --    0.09851   0.10108   0.10443   0.10604   0.10959
 Alpha virt. eigenvalues --    0.11137   0.11361   0.11729   0.11878   0.12112
 Alpha virt. eigenvalues --    0.12154   0.12564   0.12919   0.12968   0.13220
 Alpha virt. eigenvalues --    0.13318   0.13619   0.13731   0.13983   0.14094
 Alpha virt. eigenvalues --    0.14211   0.14458   0.14806   0.14989   0.15300
 Alpha virt. eigenvalues --    0.15472   0.15607   0.15859   0.15987   0.16318
 Alpha virt. eigenvalues --    0.16473   0.16643   0.17161   0.17214   0.17383
 Alpha virt. eigenvalues --    0.17548   0.17781   0.18022   0.18252   0.18513
 Alpha virt. eigenvalues --    0.18899   0.18955   0.19247   0.19589   0.19919
 Alpha virt. eigenvalues --    0.20115   0.20346   0.20573   0.20787   0.20934
 Alpha virt. eigenvalues --    0.21104   0.21402   0.21609   0.21876   0.22209
 Alpha virt. eigenvalues --    0.22526   0.22799   0.22963   0.23274   0.23435
 Alpha virt. eigenvalues --    0.23528   0.24234   0.24288   0.24497   0.24775
 Alpha virt. eigenvalues --    0.24928   0.25169   0.25465   0.25568   0.26074
 Alpha virt. eigenvalues --    0.26361   0.26662   0.26786   0.27184   0.27538
 Alpha virt. eigenvalues --    0.27867   0.27954   0.28111   0.28526   0.28823
 Alpha virt. eigenvalues --    0.28925   0.29173   0.29390   0.29552   0.29740
 Alpha virt. eigenvalues --    0.29897   0.30049   0.30181   0.30485   0.30640
 Alpha virt. eigenvalues --    0.30712   0.30949   0.31366   0.31574   0.31673
 Alpha virt. eigenvalues --    0.31753   0.31983   0.32203   0.32357   0.32603
 Alpha virt. eigenvalues --    0.32785   0.33081   0.33211   0.33443   0.33816
 Alpha virt. eigenvalues --    0.33981   0.34308   0.34407   0.34593   0.34907
 Alpha virt. eigenvalues --    0.35310   0.35381   0.35736   0.35842   0.36395
 Alpha virt. eigenvalues --    0.36555   0.36858   0.36966   0.37000   0.37239
 Alpha virt. eigenvalues --    0.37539   0.38025   0.38117   0.38141   0.38315
 Alpha virt. eigenvalues --    0.38547   0.38817   0.39022   0.39318   0.39385
 Alpha virt. eigenvalues --    0.39523   0.39618   0.39771   0.40021   0.40217
 Alpha virt. eigenvalues --    0.40375   0.40570   0.40667   0.40810   0.41093
 Alpha virt. eigenvalues --    0.41214   0.41571   0.41765   0.41821   0.42088
 Alpha virt. eigenvalues --    0.42151   0.42489   0.42905   0.43202   0.43324
 Alpha virt. eigenvalues --    0.43451   0.43780   0.43815   0.44059   0.44184
 Alpha virt. eigenvalues --    0.44265   0.44636   0.44835   0.45120   0.45295
 Alpha virt. eigenvalues --    0.45393   0.45555   0.45769   0.45917   0.46338
 Alpha virt. eigenvalues --    0.46792   0.46891   0.47099   0.47198   0.47398
 Alpha virt. eigenvalues --    0.47811   0.48042   0.48265   0.48347   0.48539
 Alpha virt. eigenvalues --    0.48677   0.48856   0.49130   0.49565   0.49763
 Alpha virt. eigenvalues --    0.50017   0.50080   0.50278   0.50664   0.51044
 Alpha virt. eigenvalues --    0.51127   0.51498   0.51809   0.51969   0.52648
 Alpha virt. eigenvalues --    0.52795   0.52946   0.53079   0.53291   0.53749
 Alpha virt. eigenvalues --    0.53906   0.54033   0.54502   0.54644   0.54917
 Alpha virt. eigenvalues --    0.54969   0.55433   0.55802   0.55851   0.56090
 Alpha virt. eigenvalues --    0.56694   0.56939   0.57139   0.57551   0.57809
 Alpha virt. eigenvalues --    0.58051   0.58294   0.58410   0.58520   0.58686
 Alpha virt. eigenvalues --    0.59078   0.59190   0.59465   0.59669   0.59938
 Alpha virt. eigenvalues --    0.60242   0.60395   0.60540   0.60866   0.61110
 Alpha virt. eigenvalues --    0.61265   0.61520   0.61834   0.62181   0.62331
 Alpha virt. eigenvalues --    0.62717   0.62840   0.63042   0.63491   0.63804
 Alpha virt. eigenvalues --    0.63932   0.64092   0.64441   0.64766   0.65213
 Alpha virt. eigenvalues --    0.65598   0.65849   0.66148   0.66326   0.66666
 Alpha virt. eigenvalues --    0.66850   0.67466   0.67490   0.67816   0.68078
 Alpha virt. eigenvalues --    0.68140   0.68502   0.68873   0.69080   0.69371
 Alpha virt. eigenvalues --    0.69553   0.69621   0.70344   0.70426   0.70738
 Alpha virt. eigenvalues --    0.71718   0.72064   0.72414   0.72535   0.72858
 Alpha virt. eigenvalues --    0.73030   0.73329   0.73884   0.74071   0.74398
 Alpha virt. eigenvalues --    0.74987   0.75131   0.75901   0.76024   0.76110
 Alpha virt. eigenvalues --    0.76327   0.76797   0.77043   0.77277   0.77467
 Alpha virt. eigenvalues --    0.77752   0.78301   0.78432   0.78793   0.78978
 Alpha virt. eigenvalues --    0.79417   0.79639   0.79954   0.80513   0.80823
 Alpha virt. eigenvalues --    0.81267   0.81643   0.82223   0.82556   0.82800
 Alpha virt. eigenvalues --    0.82987   0.83364   0.83617   0.84002   0.84120
 Alpha virt. eigenvalues --    0.84491   0.84664   0.85193   0.85532   0.85910
 Alpha virt. eigenvalues --    0.86130   0.86456   0.86753   0.87105   0.87297
 Alpha virt. eigenvalues --    0.87629   0.87739   0.88591   0.89139   0.89345
 Alpha virt. eigenvalues --    0.89837   0.89864   0.90083   0.90314   0.90525
 Alpha virt. eigenvalues --    0.90920   0.91023   0.91242   0.91624   0.91975
 Alpha virt. eigenvalues --    0.92385   0.92669   0.92883   0.93283   0.93700
 Alpha virt. eigenvalues --    0.93921   0.94252   0.94573   0.94675   0.95224
 Alpha virt. eigenvalues --    0.95574   0.95764   0.95933   0.96220   0.96767
 Alpha virt. eigenvalues --    0.96882   0.97171   0.97734   0.97866   0.98142
 Alpha virt. eigenvalues --    0.98715   0.98906   0.99421   0.99579   0.99895
 Alpha virt. eigenvalues --    1.00475   1.00566   1.01018   1.01313   1.01576
 Alpha virt. eigenvalues --    1.02092   1.02253   1.02714   1.03001   1.03395
 Alpha virt. eigenvalues --    1.04129   1.04254   1.04636   1.04767   1.04972
 Alpha virt. eigenvalues --    1.05369   1.05959   1.06349   1.06652   1.06770
 Alpha virt. eigenvalues --    1.07299   1.07506   1.07842   1.08392   1.08823
 Alpha virt. eigenvalues --    1.09051   1.09502   1.09787   1.10100   1.10876
 Alpha virt. eigenvalues --    1.11070   1.11766   1.11819   1.12239   1.12322
 Alpha virt. eigenvalues --    1.13154   1.13548   1.13779   1.13847   1.14014
 Alpha virt. eigenvalues --    1.14424   1.14727   1.15217   1.15698   1.15926
 Alpha virt. eigenvalues --    1.16594   1.16900   1.17436   1.17846   1.18024
 Alpha virt. eigenvalues --    1.18684   1.19299   1.19873   1.20210   1.20573
 Alpha virt. eigenvalues --    1.21154   1.21634   1.21969   1.22389   1.22439
 Alpha virt. eigenvalues --    1.22852   1.23013   1.23482   1.23954   1.24058
 Alpha virt. eigenvalues --    1.24829   1.25353   1.25934   1.26645   1.26778
 Alpha virt. eigenvalues --    1.27142   1.27388   1.28004   1.28498   1.28858
 Alpha virt. eigenvalues --    1.29070   1.29378   1.30243   1.30447   1.30798
 Alpha virt. eigenvalues --    1.31530   1.31952   1.32325   1.32705   1.33130
 Alpha virt. eigenvalues --    1.33307   1.34385   1.34611   1.34803   1.35084
 Alpha virt. eigenvalues --    1.35404   1.35669   1.36088   1.36352   1.36774
 Alpha virt. eigenvalues --    1.36842   1.37235   1.37645   1.38310   1.38437
 Alpha virt. eigenvalues --    1.38633   1.38837   1.39008   1.39433   1.39612
 Alpha virt. eigenvalues --    1.39813   1.40032   1.40459   1.40957   1.41051
 Alpha virt. eigenvalues --    1.41210   1.41742   1.42179   1.42396   1.42958
 Alpha virt. eigenvalues --    1.43444   1.43493   1.43847   1.44267   1.44396
 Alpha virt. eigenvalues --    1.44983   1.45340   1.45475   1.46079   1.46542
 Alpha virt. eigenvalues --    1.46625   1.46784   1.47205   1.47699   1.47880
 Alpha virt. eigenvalues --    1.48141   1.48473   1.48756   1.49085   1.49443
 Alpha virt. eigenvalues --    1.49555   1.49670   1.50285   1.50393   1.50738
 Alpha virt. eigenvalues --    1.50940   1.51158   1.51726   1.51938   1.52120
 Alpha virt. eigenvalues --    1.52242   1.52549   1.52806   1.53043   1.53616
 Alpha virt. eigenvalues --    1.53826   1.54044   1.54161   1.54578   1.54882
 Alpha virt. eigenvalues --    1.55133   1.55357   1.55788   1.56337   1.56724
 Alpha virt. eigenvalues --    1.56852   1.57138   1.57500   1.57895   1.58017
 Alpha virt. eigenvalues --    1.58840   1.59044   1.59403   1.59712   1.59943
 Alpha virt. eigenvalues --    1.60024   1.60615   1.60919   1.61402   1.61870
 Alpha virt. eigenvalues --    1.62253   1.62349   1.62547   1.63034   1.63317
 Alpha virt. eigenvalues --    1.63681   1.63987   1.64487   1.64617   1.65023
 Alpha virt. eigenvalues --    1.65257   1.65657   1.65691   1.66161   1.66549
 Alpha virt. eigenvalues --    1.66896   1.67205   1.67238   1.67836   1.68467
 Alpha virt. eigenvalues --    1.68693   1.69013   1.69283   1.70156   1.70655
 Alpha virt. eigenvalues --    1.70958   1.71229   1.71748   1.72009   1.72105
 Alpha virt. eigenvalues --    1.72581   1.72916   1.73363   1.73437   1.73686
 Alpha virt. eigenvalues --    1.74493   1.74709   1.74852   1.75285   1.75416
 Alpha virt. eigenvalues --    1.75641   1.76054   1.76270   1.77231   1.77274
 Alpha virt. eigenvalues --    1.77650   1.77776   1.78629   1.78693   1.79264
 Alpha virt. eigenvalues --    1.79768   1.80032   1.80434   1.80727   1.81156
 Alpha virt. eigenvalues --    1.81635   1.82035   1.82658   1.83077   1.83640
 Alpha virt. eigenvalues --    1.83989   1.84283   1.84926   1.85114   1.85381
 Alpha virt. eigenvalues --    1.85762   1.85852   1.86546   1.86617   1.87044
 Alpha virt. eigenvalues --    1.87657   1.87859   1.88102   1.88502   1.88658
 Alpha virt. eigenvalues --    1.88827   1.89533   1.89807   1.89981   1.90398
 Alpha virt. eigenvalues --    1.90906   1.91301   1.91738   1.91901   1.92264
 Alpha virt. eigenvalues --    1.92714   1.93441   1.93711   1.94481   1.94750
 Alpha virt. eigenvalues --    1.95219   1.95373   1.96036   1.96534   1.97221
 Alpha virt. eigenvalues --    1.97445   1.97732   1.97926   1.98081   1.98842
 Alpha virt. eigenvalues --    1.99607   1.99821   2.00035   2.00414   2.00676
 Alpha virt. eigenvalues --    2.01225   2.01441   2.02048   2.02722   2.02884
 Alpha virt. eigenvalues --    2.03035   2.03738   2.03945   2.04049   2.04634
 Alpha virt. eigenvalues --    2.05119   2.05345   2.05615   2.06025   2.06664
 Alpha virt. eigenvalues --    2.06908   2.07702   2.07814   2.08036   2.08412
 Alpha virt. eigenvalues --    2.08671   2.09355   2.09517   2.09687   2.10222
 Alpha virt. eigenvalues --    2.10428   2.10753   2.11393   2.11566   2.11932
 Alpha virt. eigenvalues --    2.12568   2.13060   2.14110   2.14227   2.14617
 Alpha virt. eigenvalues --    2.14781   2.15582   2.15855   2.16360   2.17121
 Alpha virt. eigenvalues --    2.17397   2.18199   2.18519   2.18629   2.19688
 Alpha virt. eigenvalues --    2.19989   2.20195   2.20600   2.21470   2.21958
 Alpha virt. eigenvalues --    2.22272   2.22646   2.23363   2.23457   2.23941
 Alpha virt. eigenvalues --    2.24519   2.24850   2.25038   2.25438   2.25671
 Alpha virt. eigenvalues --    2.25784   2.26242   2.26573   2.26661   2.27276
 Alpha virt. eigenvalues --    2.28010   2.28690   2.29440   2.29676   2.29964
 Alpha virt. eigenvalues --    2.30179   2.30401   2.30741   2.30954   2.31477
 Alpha virt. eigenvalues --    2.31610   2.32123   2.32740   2.33019   2.33640
 Alpha virt. eigenvalues --    2.33908   2.34097   2.34390   2.34994   2.35528
 Alpha virt. eigenvalues --    2.35553   2.36158   2.36239   2.37233   2.37602
 Alpha virt. eigenvalues --    2.38031   2.38386   2.38592   2.38968   2.39753
 Alpha virt. eigenvalues --    2.40160   2.40639   2.41380   2.41805   2.41953
 Alpha virt. eigenvalues --    2.42443   2.42945   2.43347   2.43656   2.44297
 Alpha virt. eigenvalues --    2.44452   2.44723   2.45384   2.45450   2.45586
 Alpha virt. eigenvalues --    2.45951   2.46343   2.46951   2.47598   2.47666
 Alpha virt. eigenvalues --    2.48107   2.48264   2.48600   2.48893   2.49117
 Alpha virt. eigenvalues --    2.49503   2.49698   2.49824   2.50190   2.50744
 Alpha virt. eigenvalues --    2.51279   2.51322   2.51617   2.52415   2.52734
 Alpha virt. eigenvalues --    2.52902   2.53355   2.53632   2.54220   2.54785
 Alpha virt. eigenvalues --    2.54976   2.55209   2.55353   2.55626   2.55808
 Alpha virt. eigenvalues --    2.56507   2.56677   2.57131   2.57393   2.57736
 Alpha virt. eigenvalues --    2.58060   2.58564   2.58840   2.59299   2.59729
 Alpha virt. eigenvalues --    2.60163   2.60287   2.60931   2.61170   2.61679
 Alpha virt. eigenvalues --    2.62364   2.62728   2.62951   2.63270   2.63578
 Alpha virt. eigenvalues --    2.63773   2.64324   2.64680   2.64745   2.65594
 Alpha virt. eigenvalues --    2.65786   2.65839   2.66609   2.66830   2.67338
 Alpha virt. eigenvalues --    2.67477   2.67608   2.67703   2.68291   2.68707
 Alpha virt. eigenvalues --    2.69270   2.69497   2.69859   2.70003   2.70517
 Alpha virt. eigenvalues --    2.70983   2.71127   2.71975   2.72277   2.72517
 Alpha virt. eigenvalues --    2.72628   2.72854   2.73664   2.73849   2.74074
 Alpha virt. eigenvalues --    2.74681   2.74884   2.75322   2.75645   2.75778
 Alpha virt. eigenvalues --    2.76232   2.76490   2.76714   2.77325   2.77865
 Alpha virt. eigenvalues --    2.78244   2.78349   2.78585   2.78634   2.79067
 Alpha virt. eigenvalues --    2.79746   2.80091   2.80825   2.81021   2.81723
 Alpha virt. eigenvalues --    2.82298   2.82506   2.82599   2.82973   2.83238
 Alpha virt. eigenvalues --    2.83539   2.84015   2.84295   2.84714   2.85032
 Alpha virt. eigenvalues --    2.85269   2.85716   2.86147   2.86309   2.86550
 Alpha virt. eigenvalues --    2.86936   2.87123   2.87312   2.88017   2.88078
 Alpha virt. eigenvalues --    2.88406   2.88893   2.88934   2.89199   2.89735
 Alpha virt. eigenvalues --    2.89886   2.90026   2.90357   2.90924   2.91097
 Alpha virt. eigenvalues --    2.91338   2.91409   2.92125   2.92391   2.92442
 Alpha virt. eigenvalues --    2.92799   2.92935   2.93237   2.93302   2.93760
 Alpha virt. eigenvalues --    2.94110   2.94674   2.94832   2.95286   2.95471
 Alpha virt. eigenvalues --    2.96014   2.96533   2.96908   2.97226   2.97461
 Alpha virt. eigenvalues --    2.97603   2.97999   2.98251   2.98513   2.98976
 Alpha virt. eigenvalues --    2.99325   2.99683   2.99756   3.00011   3.00334
 Alpha virt. eigenvalues --    3.00935   3.01038   3.01248   3.01629   3.01951
 Alpha virt. eigenvalues --    3.02290   3.02417   3.03054   3.03171   3.03403
 Alpha virt. eigenvalues --    3.03614   3.04070   3.04451   3.04644   3.05002
 Alpha virt. eigenvalues --    3.05355   3.05658   3.05729   3.06019   3.06461
 Alpha virt. eigenvalues --    3.06770   3.07123   3.07381   3.07726   3.07908
 Alpha virt. eigenvalues --    3.08252   3.08586   3.08986   3.09152   3.09460
 Alpha virt. eigenvalues --    3.10118   3.10632   3.11314   3.11481   3.11562
 Alpha virt. eigenvalues --    3.11823   3.12330   3.12396   3.12861   3.13341
 Alpha virt. eigenvalues --    3.13518   3.14171   3.14344   3.14715   3.14919
 Alpha virt. eigenvalues --    3.15257   3.15688   3.15934   3.16208   3.16555
 Alpha virt. eigenvalues --    3.16650   3.16941   3.17341   3.17577   3.17775
 Alpha virt. eigenvalues --    3.18048   3.18225   3.18417   3.18768   3.19530
 Alpha virt. eigenvalues --    3.19575   3.19948   3.20104   3.20402   3.20724
 Alpha virt. eigenvalues --    3.21148   3.21400   3.21517   3.21731   3.21967
 Alpha virt. eigenvalues --    3.22252   3.22329   3.22474   3.22884   3.23258
 Alpha virt. eigenvalues --    3.23837   3.24058   3.24122   3.24375   3.24678
 Alpha virt. eigenvalues --    3.24710   3.25049   3.25339   3.25422   3.25740
 Alpha virt. eigenvalues --    3.26138   3.26272   3.26444   3.26613   3.26961
 Alpha virt. eigenvalues --    3.27193   3.27443   3.27814   3.27918   3.28366
 Alpha virt. eigenvalues --    3.28712   3.28916   3.29462   3.29524   3.29852
 Alpha virt. eigenvalues --    3.30281   3.30751   3.30962   3.31371   3.31539
 Alpha virt. eigenvalues --    3.31895   3.32221   3.32407   3.32649   3.32731
 Alpha virt. eigenvalues --    3.33099   3.33418   3.33847   3.34409   3.34523
 Alpha virt. eigenvalues --    3.35214   3.35466   3.35703   3.36199   3.36881
 Alpha virt. eigenvalues --    3.37075   3.37294   3.37649   3.37779   3.38514
 Alpha virt. eigenvalues --    3.39020   3.39269   3.39385   3.39959   3.40118
 Alpha virt. eigenvalues --    3.40253   3.40915   3.40972   3.41379   3.41929
 Alpha virt. eigenvalues --    3.42335   3.42477   3.42602   3.42972   3.43236
 Alpha virt. eigenvalues --    3.43835   3.44203   3.44684   3.44891   3.45074
 Alpha virt. eigenvalues --    3.45342   3.46445   3.46654   3.46748   3.47331
 Alpha virt. eigenvalues --    3.47359   3.47817   3.47833   3.48132   3.48653
 Alpha virt. eigenvalues --    3.49138   3.49588   3.50363   3.50501   3.50796
 Alpha virt. eigenvalues --    3.50938   3.51579   3.51968   3.52421   3.52967
 Alpha virt. eigenvalues --    3.53306   3.53596   3.53871   3.54582   3.55087
 Alpha virt. eigenvalues --    3.55386   3.55500   3.56059   3.56331   3.56602
 Alpha virt. eigenvalues --    3.56926   3.57081   3.57173   3.57709   3.58017
 Alpha virt. eigenvalues --    3.58813   3.59111   3.59560   3.59644   3.60087
 Alpha virt. eigenvalues --    3.60385   3.61031   3.61244   3.61514   3.62016
 Alpha virt. eigenvalues --    3.62352   3.62793   3.63100   3.63318   3.63581
 Alpha virt. eigenvalues --    3.63955   3.64629   3.64910   3.65379   3.65911
 Alpha virt. eigenvalues --    3.66359   3.66878   3.67139   3.67221   3.67494
 Alpha virt. eigenvalues --    3.67687   3.68277   3.68697   3.69542   3.69796
 Alpha virt. eigenvalues --    3.70334   3.70736   3.70875   3.71768   3.72152
 Alpha virt. eigenvalues --    3.72963   3.73492   3.73888   3.74330   3.74611
 Alpha virt. eigenvalues --    3.74881   3.75231   3.76456   3.76896   3.77162
 Alpha virt. eigenvalues --    3.77811   3.78193   3.78414   3.78702   3.79247
 Alpha virt. eigenvalues --    3.79410   3.80051   3.80833   3.81070   3.81987
 Alpha virt. eigenvalues --    3.82489   3.83454   3.83652   3.84022   3.84413
 Alpha virt. eigenvalues --    3.85209   3.85370   3.85679   3.86890   3.88107
 Alpha virt. eigenvalues --    3.88337   3.88529   3.89171   3.89748   3.89914
 Alpha virt. eigenvalues --    3.91086   3.91262   3.91813   3.91995   3.92179
 Alpha virt. eigenvalues --    3.92586   3.93355   3.93990   3.94259   3.95008
 Alpha virt. eigenvalues --    3.95375   3.95940   3.96343   3.96746   3.97253
 Alpha virt. eigenvalues --    3.97864   3.98687   3.99179   3.99593   3.99669
 Alpha virt. eigenvalues --    4.00808   4.01303   4.01665   4.02404   4.02586
 Alpha virt. eigenvalues --    4.02773   4.03833   4.04285   4.04990   4.05394
 Alpha virt. eigenvalues --    4.05547   4.06667   4.06993   4.07065   4.07767
 Alpha virt. eigenvalues --    4.08225   4.08806   4.09284   4.09835   4.10220
 Alpha virt. eigenvalues --    4.10588   4.11054   4.11920   4.12318   4.13126
 Alpha virt. eigenvalues --    4.13328   4.13935   4.14315   4.14856   4.15166
 Alpha virt. eigenvalues --    4.15529   4.16169   4.16559   4.16804   4.17193
 Alpha virt. eigenvalues --    4.18012   4.18096   4.18625   4.19269   4.19402
 Alpha virt. eigenvalues --    4.20533   4.21434   4.22003   4.22818   4.23176
 Alpha virt. eigenvalues --    4.23548   4.24475   4.25210   4.25442   4.25680
 Alpha virt. eigenvalues --    4.26330   4.26919   4.28117   4.28761   4.29019
 Alpha virt. eigenvalues --    4.29635   4.30859   4.31501   4.32130   4.33141
 Alpha virt. eigenvalues --    4.33405   4.34041   4.34477   4.35339   4.35630
 Alpha virt. eigenvalues --    4.36442   4.36834   4.37282   4.38395   4.38857
 Alpha virt. eigenvalues --    4.40875   4.41277   4.42292   4.42510   4.43519
 Alpha virt. eigenvalues --    4.43862   4.44542   4.45656   4.46181   4.46886
 Alpha virt. eigenvalues --    4.47520   4.48398   4.49028   4.50306   4.50780
 Alpha virt. eigenvalues --    4.50883   4.51276   4.51849   4.53060   4.53847
 Alpha virt. eigenvalues --    4.54323   4.55205   4.56014   4.56874   4.57861
 Alpha virt. eigenvalues --    4.58060   4.58759   4.59717   4.60371   4.61040
 Alpha virt. eigenvalues --    4.62368   4.62947   4.63604   4.64069   4.64730
 Alpha virt. eigenvalues --    4.65097   4.66608   4.67796   4.68039   4.68559
 Alpha virt. eigenvalues --    4.69181   4.69652   4.70278   4.70762   4.71061
 Alpha virt. eigenvalues --    4.71953   4.72637   4.73010   4.73650   4.74006
 Alpha virt. eigenvalues --    4.74319   4.74969   4.76679   4.77913   4.79117
 Alpha virt. eigenvalues --    4.80168   4.80684   4.81075   4.81577   4.81930
 Alpha virt. eigenvalues --    4.83509   4.83932   4.84365   4.85331   4.86414
 Alpha virt. eigenvalues --    4.87247   4.87626   4.88435   4.89079   4.89730
 Alpha virt. eigenvalues --    4.90014   4.90522   4.92383   4.93402   4.94965
 Alpha virt. eigenvalues --    4.95727   4.95910   4.96656   4.98460   4.98712
 Alpha virt. eigenvalues --    4.99761   5.00254   5.00761   5.01314   5.02160
 Alpha virt. eigenvalues --    5.03041   5.03742   5.04538   5.05198   5.06140
 Alpha virt. eigenvalues --    5.08407   5.08586   5.09342   5.10390   5.10743
 Alpha virt. eigenvalues --    5.10870   5.11000   5.11160   5.12091   5.13912
 Alpha virt. eigenvalues --    5.14125   5.14770   5.15865   5.16271   5.17227
 Alpha virt. eigenvalues --    5.17295   5.18059   5.18268   5.18879   5.19463
 Alpha virt. eigenvalues --    5.20780   5.21328   5.22623   5.24181   5.26669
 Alpha virt. eigenvalues --    5.27158   5.28218   5.28570   5.29608   5.29815
 Alpha virt. eigenvalues --    5.30339   5.31612   5.32322   5.33095   5.34259
 Alpha virt. eigenvalues --    5.34399   5.35146   5.35701   5.36392   5.39425
 Alpha virt. eigenvalues --    5.39764   5.40807   5.41161   5.41989   5.42351
 Alpha virt. eigenvalues --    5.44719   5.45364   5.46602   5.47902   5.48474
 Alpha virt. eigenvalues --    5.49197   5.50885   5.51932   5.52224   5.52507
 Alpha virt. eigenvalues --    5.54395   5.54768   5.56078   5.57356   5.58640
 Alpha virt. eigenvalues --    5.59074   5.60074   5.61767   5.62906   5.63357
 Alpha virt. eigenvalues --    5.64020   5.64947   5.66462   5.69035   5.69853
 Alpha virt. eigenvalues --    5.72120   5.74747   5.75496   5.78356   5.78740
 Alpha virt. eigenvalues --    5.79077   5.79493   5.81810   5.85957   5.88597
 Alpha virt. eigenvalues --    5.91587   5.92523   5.93273   5.94350   5.98816
 Alpha virt. eigenvalues --    6.02935   6.03925   6.04198   6.04680   6.05339
 Alpha virt. eigenvalues --    6.05838   6.08399   6.14885   6.15345   6.16651
 Alpha virt. eigenvalues --    6.17858   6.19122   6.27142   6.27613   6.28658
 Alpha virt. eigenvalues --    6.31864   6.31922   6.34226   6.34707   6.37901
 Alpha virt. eigenvalues --    6.38205   6.39929   6.41471   6.41636   6.45810
 Alpha virt. eigenvalues --    6.47466   6.48113   6.52819   6.58893   6.61303
 Alpha virt. eigenvalues --    6.61502   6.72091   6.75778   6.78764   6.80401
 Alpha virt. eigenvalues --    6.91429   6.92174   6.96696   6.97867   7.01573
 Alpha virt. eigenvalues --    7.03198   7.06415   7.11042   7.13839   7.14825
 Alpha virt. eigenvalues --    7.22373   7.26078  22.25746  22.26355  22.32894
 Alpha virt. eigenvalues --   22.42589  22.44046  22.44845  22.53085  22.57615
 Alpha virt. eigenvalues --   22.59174  22.61105  22.63038  22.70798  22.74306
 Alpha virt. eigenvalues --   22.86239  22.87839  22.91220  22.92027  22.97623
 Alpha virt. eigenvalues --   22.98362  23.01088  23.02180  23.08243  23.09699
 Alpha virt. eigenvalues --   23.23660  23.29868  23.35043  23.36682  23.38432
 Alpha virt. eigenvalues --   23.46394  23.49104  23.50142  23.62006  23.67825
 Alpha virt. eigenvalues --   23.73286  23.85366  23.88322  23.98071  32.36251
 Alpha virt. eigenvalues --   32.62701  32.90572  32.94135  32.97202  33.07688
 Alpha virt. eigenvalues --   43.87625  43.90733  43.92483  43.93511  44.10184
  Beta  occ. eigenvalues -- -256.56804 -30.29857 -26.13102 -26.13045 -26.13020
  Beta  occ. eigenvalues --  -19.35059 -19.31948 -19.31648 -19.23697 -19.23596
  Beta  occ. eigenvalues --  -14.57341 -14.51667 -14.48113 -14.47555 -14.47376
  Beta  occ. eigenvalues --  -14.47258 -10.41145 -10.40782 -10.40336 -10.37635
  Beta  occ. eigenvalues --  -10.36853 -10.35888 -10.35831 -10.35611 -10.35215
  Beta  occ. eigenvalues --  -10.35139 -10.35134 -10.35131 -10.35088 -10.35081
  Beta  occ. eigenvalues --  -10.33286 -10.33079 -10.32909 -10.32888 -10.32885
  Beta  occ. eigenvalues --  -10.32868 -10.32791 -10.32575 -10.32553 -10.32539
  Beta  occ. eigenvalues --  -10.32438 -10.32357 -10.32249 -10.32163 -10.31540
  Beta  occ. eigenvalues --  -10.31472 -10.31188 -10.31083 -10.30797 -10.30667
  Beta  occ. eigenvalues --  -10.30637 -10.30100 -10.28999  -3.58964  -2.33564
  Beta  occ. eigenvalues --   -2.33188  -2.33134  -1.24088  -1.24014  -1.22502
  Beta  occ. eigenvalues --   -1.19551  -1.11978  -1.11175  -1.10814  -1.10030
  Beta  occ. eigenvalues --   -1.09485  -1.08921  -1.06500  -0.95561  -0.95240
  Beta  occ. eigenvalues --   -0.93591  -0.93365  -0.93076  -0.92688  -0.92436
  Beta  occ. eigenvalues --   -0.91369  -0.89758  -0.88452  -0.88282  -0.86463
  Beta  occ. eigenvalues --   -0.86209  -0.84001  -0.83955  -0.82510  -0.81826
  Beta  occ. eigenvalues --   -0.80860  -0.79421  -0.78256  -0.77986  -0.77200
  Beta  occ. eigenvalues --   -0.76841  -0.76293  -0.74045  -0.73474  -0.73065
  Beta  occ. eigenvalues --   -0.72422  -0.72124  -0.71553  -0.70176  -0.69705
  Beta  occ. eigenvalues --   -0.67504  -0.66507  -0.65676  -0.64867  -0.63726
  Beta  occ. eigenvalues --   -0.63453  -0.62994  -0.61516  -0.60850  -0.60708
  Beta  occ. eigenvalues --   -0.60520  -0.60223  -0.59731  -0.59450  -0.59261
  Beta  occ. eigenvalues --   -0.58596  -0.58491  -0.58338  -0.58037  -0.57321
  Beta  occ. eigenvalues --   -0.57233  -0.56837  -0.56148  -0.55839  -0.55527
  Beta  occ. eigenvalues --   -0.55226  -0.54951  -0.54520  -0.54258  -0.53955
  Beta  occ. eigenvalues --   -0.53412  -0.53286  -0.53156  -0.53018  -0.52332
  Beta  occ. eigenvalues --   -0.52022  -0.51803  -0.51631  -0.51351  -0.50852
  Beta  occ. eigenvalues --   -0.50772  -0.50667  -0.50129  -0.49771  -0.49226
  Beta  occ. eigenvalues --   -0.48832  -0.48456  -0.48250  -0.48141  -0.48044
  Beta  occ. eigenvalues --   -0.47637  -0.47135  -0.46996  -0.46686  -0.46472
  Beta  occ. eigenvalues --   -0.45961  -0.45556  -0.45466  -0.45223  -0.44175
  Beta  occ. eigenvalues --   -0.43827  -0.42848  -0.42564  -0.42417  -0.41686
  Beta  occ. eigenvalues --   -0.41458  -0.41078  -0.39387  -0.39096  -0.38910
  Beta  occ. eigenvalues --   -0.38595  -0.37120  -0.35122  -0.34518  -0.34279
  Beta  occ. eigenvalues --   -0.33545  -0.33294  -0.31988  -0.30663  -0.29971
  Beta  occ. eigenvalues --   -0.29306
  Beta virt. eigenvalues --   -0.21408  -0.21125  -0.20139  -0.18117  -0.17850
  Beta virt. eigenvalues --   -0.14249  -0.14120  -0.13411  -0.10710  -0.10287
  Beta virt. eigenvalues --   -0.09473  -0.08567  -0.07757  -0.07370  -0.06857
  Beta virt. eigenvalues --   -0.06398  -0.06187  -0.04548  -0.04357  -0.04179
  Beta virt. eigenvalues --   -0.04043  -0.03421  -0.03221  -0.02329  -0.01835
  Beta virt. eigenvalues --   -0.01727  -0.01490  -0.01153  -0.01022  -0.00914
  Beta virt. eigenvalues --   -0.00692  -0.00414   0.00064   0.00329   0.00505
  Beta virt. eigenvalues --    0.00703   0.01108   0.01896   0.02244   0.02709
  Beta virt. eigenvalues --    0.02891   0.03172   0.03348   0.03679   0.03983
  Beta virt. eigenvalues --    0.04249   0.04646   0.04735   0.04917   0.05092
  Beta virt. eigenvalues --    0.05350   0.05513   0.05807   0.06405   0.06554
  Beta virt. eigenvalues --    0.06827   0.06946   0.07139   0.07180   0.07797
  Beta virt. eigenvalues --    0.07936   0.08110   0.08179   0.08499   0.08804
  Beta virt. eigenvalues --    0.08956   0.09118   0.09300   0.09577   0.09595
  Beta virt. eigenvalues --    0.09903   0.10200   0.10540   0.10704   0.11035
  Beta virt. eigenvalues --    0.11242   0.11452   0.11854   0.11966   0.12300
  Beta virt. eigenvalues --    0.12410   0.12664   0.13005   0.13167   0.13393
  Beta virt. eigenvalues --    0.13560   0.13707   0.13800   0.14054   0.14257
  Beta virt. eigenvalues --    0.14293   0.14655   0.14984   0.15136   0.15462
  Beta virt. eigenvalues --    0.15570   0.15790   0.16001   0.16206   0.16346
  Beta virt. eigenvalues --    0.16724   0.16976   0.17294   0.17364   0.17633
  Beta virt. eigenvalues --    0.17697   0.17906   0.18123   0.18446   0.18734
  Beta virt. eigenvalues --    0.18955   0.19192   0.19472   0.19863   0.20130
  Beta virt. eigenvalues --    0.20427   0.20494   0.20663   0.20948   0.21174
  Beta virt. eigenvalues --    0.21322   0.21549   0.21704   0.22115   0.22405
  Beta virt. eigenvalues --    0.22673   0.23095   0.23214   0.23436   0.23662
  Beta virt. eigenvalues --    0.23903   0.24362   0.24404   0.24804   0.25007
  Beta virt. eigenvalues --    0.25245   0.25318   0.25642   0.25784   0.26303
  Beta virt. eigenvalues --    0.26444   0.26905   0.26938   0.27489   0.27672
  Beta virt. eigenvalues --    0.28032   0.28100   0.28278   0.28610   0.28954
  Beta virt. eigenvalues --    0.29104   0.29279   0.29597   0.29721   0.29840
  Beta virt. eigenvalues --    0.30029   0.30137   0.30261   0.30561   0.30683
  Beta virt. eigenvalues --    0.30761   0.31077   0.31522   0.31708   0.31836
  Beta virt. eigenvalues --    0.31874   0.32137   0.32293   0.32454   0.32693
  Beta virt. eigenvalues --    0.32914   0.33230   0.33316   0.33599   0.33952
  Beta virt. eigenvalues --    0.34084   0.34421   0.34585   0.34774   0.35072
  Beta virt. eigenvalues --    0.35435   0.35492   0.35811   0.35986   0.36573
  Beta virt. eigenvalues --    0.36735   0.36956   0.37051   0.37098   0.37340
  Beta virt. eigenvalues --    0.37724   0.38147   0.38214   0.38308   0.38397
  Beta virt. eigenvalues --    0.38678   0.38894   0.39126   0.39382   0.39438
  Beta virt. eigenvalues --    0.39615   0.39758   0.39847   0.40076   0.40343
  Beta virt. eigenvalues --    0.40490   0.40662   0.40860   0.40954   0.41205
  Beta virt. eigenvalues --    0.41326   0.41646   0.41860   0.41904   0.42224
  Beta virt. eigenvalues --    0.42233   0.42596   0.42994   0.43265   0.43375
  Beta virt. eigenvalues --    0.43535   0.43866   0.43910   0.44170   0.44421
  Beta virt. eigenvalues --    0.44475   0.44728   0.44938   0.45201   0.45377
  Beta virt. eigenvalues --    0.45527   0.45638   0.45836   0.46040   0.46452
  Beta virt. eigenvalues --    0.46910   0.47059   0.47224   0.47273   0.47557
  Beta virt. eigenvalues --    0.47921   0.48184   0.48392   0.48435   0.48659
  Beta virt. eigenvalues --    0.48865   0.49037   0.49269   0.49677   0.49848
  Beta virt. eigenvalues --    0.50100   0.50209   0.50467   0.50729   0.51137
  Beta virt. eigenvalues --    0.51340   0.51603   0.51908   0.52044   0.52817
  Beta virt. eigenvalues --    0.53084   0.53114   0.53216   0.53414   0.53817
  Beta virt. eigenvalues --    0.53989   0.54118   0.54634   0.54773   0.55013
  Beta virt. eigenvalues --    0.55115   0.55533   0.55896   0.55994   0.56221
  Beta virt. eigenvalues --    0.56939   0.57158   0.57241   0.57660   0.57939
  Beta virt. eigenvalues --    0.58161   0.58369   0.58554   0.58725   0.58799
  Beta virt. eigenvalues --    0.59188   0.59312   0.59559   0.59789   0.60112
  Beta virt. eigenvalues --    0.60335   0.60481   0.60636   0.60978   0.61222
  Beta virt. eigenvalues --    0.61457   0.61624   0.61926   0.62318   0.62449
  Beta virt. eigenvalues --    0.62860   0.62967   0.63203   0.63597   0.63956
  Beta virt. eigenvalues --    0.64094   0.64236   0.64552   0.64870   0.65314
  Beta virt. eigenvalues --    0.65801   0.65997   0.66246   0.66407   0.66831
  Beta virt. eigenvalues --    0.67017   0.67555   0.67616   0.67935   0.68235
  Beta virt. eigenvalues --    0.68368   0.68606   0.68961   0.69186   0.69574
  Beta virt. eigenvalues --    0.69711   0.69800   0.70406   0.70620   0.70843
  Beta virt. eigenvalues --    0.71850   0.72222   0.72558   0.72718   0.72990
  Beta virt. eigenvalues --    0.73169   0.73433   0.74044   0.74269   0.74489
  Beta virt. eigenvalues --    0.75073   0.75205   0.76007   0.76176   0.76238
  Beta virt. eigenvalues --    0.76413   0.76870   0.77194   0.77358   0.77614
  Beta virt. eigenvalues --    0.77867   0.78427   0.78557   0.78877   0.79200
  Beta virt. eigenvalues --    0.79544   0.79786   0.80174   0.80598   0.80967
  Beta virt. eigenvalues --    0.81425   0.81803   0.82325   0.82698   0.82867
  Beta virt. eigenvalues --    0.83102   0.83488   0.83708   0.84125   0.84271
  Beta virt. eigenvalues --    0.84591   0.84809   0.85343   0.85673   0.86023
  Beta virt. eigenvalues --    0.86247   0.86582   0.86857   0.87207   0.87434
  Beta virt. eigenvalues --    0.87809   0.87884   0.88835   0.89242   0.89704
  Beta virt. eigenvalues --    0.89942   0.90106   0.90149   0.90424   0.90640
  Beta virt. eigenvalues --    0.91056   0.91278   0.91468   0.91780   0.92335
  Beta virt. eigenvalues --    0.92591   0.92979   0.93055   0.93614   0.94049
  Beta virt. eigenvalues --    0.94183   0.94433   0.94720   0.94950   0.95477
  Beta virt. eigenvalues --    0.95672   0.95976   0.96204   0.96387   0.96959
  Beta virt. eigenvalues --    0.97119   0.97383   0.97999   0.98032   0.98256
  Beta virt. eigenvalues --    0.99026   0.99069   0.99530   0.99899   1.00080
  Beta virt. eigenvalues --    1.00766   1.00849   1.01072   1.01704   1.01760
  Beta virt. eigenvalues --    1.02339   1.02488   1.02837   1.03197   1.03597
  Beta virt. eigenvalues --    1.04464   1.04516   1.04837   1.04987   1.05296
  Beta virt. eigenvalues --    1.05524   1.06285   1.06522   1.06778   1.06950
  Beta virt. eigenvalues --    1.07501   1.07677   1.08180   1.08656   1.09041
  Beta virt. eigenvalues --    1.09354   1.09838   1.09954   1.10450   1.11157
  Beta virt. eigenvalues --    1.11213   1.11843   1.12074   1.12454   1.12602
  Beta virt. eigenvalues --    1.13330   1.13632   1.13998   1.14087   1.14357
  Beta virt. eigenvalues --    1.14754   1.15196   1.15666   1.15941   1.16141
  Beta virt. eigenvalues --    1.16788   1.17223   1.17672   1.18124   1.18238
  Beta virt. eigenvalues --    1.19055   1.19660   1.20222   1.20404   1.20737
  Beta virt. eigenvalues --    1.21297   1.21989   1.22103   1.22545   1.22708
  Beta virt. eigenvalues --    1.23097   1.23257   1.23710   1.24145   1.24245
  Beta virt. eigenvalues --    1.24994   1.25572   1.26039   1.26821   1.27121
  Beta virt. eigenvalues --    1.27248   1.27524   1.28324   1.28695   1.29053
  Beta virt. eigenvalues --    1.29209   1.29463   1.30370   1.30597   1.30929
  Beta virt. eigenvalues --    1.31705   1.32114   1.32401   1.32876   1.33429
  Beta virt. eigenvalues --    1.33480   1.34473   1.34721   1.35099   1.35186
  Beta virt. eigenvalues --    1.35660   1.35798   1.36200   1.36465   1.36908
  Beta virt. eigenvalues --    1.36994   1.37425   1.37757   1.38405   1.38587
  Beta virt. eigenvalues --    1.38816   1.39043   1.39178   1.39524   1.39857
  Beta virt. eigenvalues --    1.39963   1.40183   1.40594   1.41066   1.41252
  Beta virt. eigenvalues --    1.41499   1.41839   1.42345   1.42480   1.43117
  Beta virt. eigenvalues --    1.43575   1.43607   1.43907   1.44385   1.44553
  Beta virt. eigenvalues --    1.45125   1.45517   1.45630   1.46240   1.46675
  Beta virt. eigenvalues --    1.46770   1.46953   1.47357   1.47838   1.47951
  Beta virt. eigenvalues --    1.48333   1.48565   1.48831   1.49194   1.49592
  Beta virt. eigenvalues --    1.49626   1.49760   1.50384   1.50456   1.50881
  Beta virt. eigenvalues --    1.51014   1.51283   1.51831   1.52038   1.52176
  Beta virt. eigenvalues --    1.52317   1.52626   1.52880   1.53105   1.53727
  Beta virt. eigenvalues --    1.53895   1.54120   1.54332   1.54706   1.55027
  Beta virt. eigenvalues --    1.55236   1.55442   1.55842   1.56439   1.56886
  Beta virt. eigenvalues --    1.56951   1.57257   1.57563   1.57949   1.58141
  Beta virt. eigenvalues --    1.58932   1.59123   1.59509   1.59760   1.60023
  Beta virt. eigenvalues --    1.60152   1.60731   1.61030   1.61492   1.61962
  Beta virt. eigenvalues --    1.62317   1.62445   1.62647   1.63131   1.63412
  Beta virt. eigenvalues --    1.63748   1.64092   1.64609   1.64719   1.65188
  Beta virt. eigenvalues --    1.65387   1.65731   1.65787   1.66256   1.66685
  Beta virt. eigenvalues --    1.67004   1.67276   1.67338   1.67961   1.68540
  Beta virt. eigenvalues --    1.68784   1.69094   1.69501   1.70238   1.70740
  Beta virt. eigenvalues --    1.71045   1.71376   1.71919   1.72143   1.72198
  Beta virt. eigenvalues --    1.72733   1.73032   1.73433   1.73510   1.73832
  Beta virt. eigenvalues --    1.74608   1.74806   1.74965   1.75381   1.75514
  Beta virt. eigenvalues --    1.75831   1.76294   1.76384   1.77319   1.77371
  Beta virt. eigenvalues --    1.77718   1.77870   1.78736   1.78922   1.79354
  Beta virt. eigenvalues --    1.79917   1.80214   1.80661   1.80858   1.81324
  Beta virt. eigenvalues --    1.81737   1.82210   1.82838   1.83203   1.83729
  Beta virt. eigenvalues --    1.84043   1.84521   1.85220   1.85288   1.85527
  Beta virt. eigenvalues --    1.85881   1.85966   1.86653   1.86855   1.87161
  Beta virt. eigenvalues --    1.87877   1.88084   1.88293   1.88681   1.88777
  Beta virt. eigenvalues --    1.88949   1.89803   1.89953   1.90206   1.90545
  Beta virt. eigenvalues --    1.91049   1.91500   1.91862   1.92106   1.92473
  Beta virt. eigenvalues --    1.92794   1.93586   1.93866   1.94693   1.94891
  Beta virt. eigenvalues --    1.95358   1.95598   1.96202   1.96696   1.97301
  Beta virt. eigenvalues --    1.97601   1.98026   1.98186   1.98302   1.99142
  Beta virt. eigenvalues --    1.99747   1.99991   2.00212   2.00648   2.00848
  Beta virt. eigenvalues --    2.01360   2.01602   2.02210   2.02823   2.02973
  Beta virt. eigenvalues --    2.03163   2.03882   2.04157   2.04364   2.04722
  Beta virt. eigenvalues --    2.05252   2.05585   2.05870   2.06121   2.06773
  Beta virt. eigenvalues --    2.07070   2.07847   2.07897   2.08173   2.08534
  Beta virt. eigenvalues --    2.08776   2.09603   2.09650   2.09994   2.10292
  Beta virt. eigenvalues --    2.10496   2.11000   2.11653   2.11703   2.12079
  Beta virt. eigenvalues --    2.12694   2.13168   2.14282   2.14348   2.14793
  Beta virt. eigenvalues --    2.14930   2.15723   2.15917   2.16504   2.17229
  Beta virt. eigenvalues --    2.17476   2.18360   2.18695   2.18806   2.20052
  Beta virt. eigenvalues --    2.20106   2.20323   2.20660   2.21722   2.22065
[...]
  1643. RY*(   3) H  86                  0.00022     1.73596   
  1644. RY*(   4) H  86                  0.00011     2.09886   
  1645. RY*(   5) H  86                  0.00000     3.11391   
  1646. RY*(   1) H  87                  0.00045     0.70591   
  1647. RY*(   2) H  87                  0.00040     0.79618   
  1648. RY*(   3) H  87                  0.00022     1.70598   
  1649. RY*(   4) H  87                  0.00012     1.23621   
  1650. RY*(   5) H  87                  0.00000     2.25758   
  1651. BD*(   1) C   1 - C   5          0.01155     0.46112   
  1652. BD*(   1) C   1 - C  32          0.01218     0.44366   
  1653. BD*(   1) C   1 - H  51          0.00662     0.34878   
  1654. BD*(   1) C   2 - C   8          0.01162     0.45156   
  1655. BD*(   1) C   2 - C  15          0.01148     0.44275   
  1656. BD*(   1) C   2 - H  52          0.00651     0.35190   
  1657. BD*(   1) C   3 - C  18          0.01100     0.45911   
  1658. BD*(   1) C   3 - C  22          0.01156     0.44452   
  1659. BD*(   1) C   3 - H  53          0.00725     0.36198   
  1660. BD*(   1) C   4 - C  25          0.01143     0.43408   
  1661. BD*(   1) C   4 - C  29          0.01184     0.47175   
  1662. BD*(   2) C   4 - C  29          0.20395    -0.06398  1722(v),1727(v),175(v)
                                                    266(g),1715(r),919(g)
  1663. BD*(   1) C   4 - H  54          0.00687     0.34774   
  1664. BD*(   1) C   5 - C   6          0.01488     0.46328   
  1665. BD*(   1) C   5 - N  39          0.01505     0.43632   
  1666. BD*(   2) C   5 - N  39          0.33011    -0.09454  1668(v),169(v),1727(r)
                                                    181(v),294(g),1175(g),183(v)
                                                    189(v),182(v),293(g)
  1667. BD*(   1) C   6 - C   7          0.01159     0.42772   
  1668. BD*(   2) C   6 - C   7          0.13706    -0.04809  1666(v),169(v),1676(v)
                                                    1674(v),1675(v)
  1669. BD*(   1) C   6 - C  10          0.01248     0.28603   
  1670. BD*(   1) C   7 - C   8          0.01484     0.44537   
  1671. BD*(   1) C   7 - C   9          0.00766     0.27202   
  1672. BD*(   1) C   8 - N  39          0.01444     0.43989   
  1673. BD*(   1) C   9 - H  55          0.00233     0.32198   
  1674. BD*(   1) C   9 - H  56          0.00411     0.31899   
  1675. BD*(   1) C   9 - H  57          0.00281     0.32081   
  1676. BD*(   1) C  10 - C  11          0.00775     0.30201   
  1677. BD*(   1) C  10 - H  58          0.00749     0.31895   
  1678. BD*(   1) C  10 - H  59          0.00714     0.31820   
  1679. BD*(   1) C  11 - C  12          0.03849     0.25869   
  1680. BD*(   1) C  11 - H  60          0.00640     0.30856   
  1681. BD*(   1) C  11 - H  61          0.00523     0.32257   
  1682. BD*(   1) C  12 - O  13          0.03444     0.46656   
  1683. BD*(   1) C  12 - O  14          0.02025     0.52181   
  1684. BD*(   2) C  12 - O  14          0.09768    -0.04685   
  1685. BD*(   1) O  13 - H  86          0.00712     0.31832   
  1686. BD*(   1) C  15 - C  16          0.01471     0.44703   
  1687. BD*(   1) C  15 - N  40          0.01414     0.44713   
  1688. BD*(   2) C  15 - N  40          0.32403    -0.09288  1690(v),174(v),182(v),553(g)
                                                    1201(g),183(v),215(v),181(v)
  1689. BD*(   1) C  16 - C  17          0.01364     0.47306   
  1690. BD*(   2) C  16 - C  17          0.16293    -0.04348  1699(v),1688(v),174(v)
                                                    1695(v),1696(v),605(g)
  1691. BD*(   1) C  16 - C  19          0.00756     0.28253   
  1692. BD*(   1) C  17 - C  18          0.01538     0.45232   
  1693. BD*(   1) C  17 - C  20          0.01158     0.45276   
  1694. BD*(   1) C  18 - N  40          0.01388     0.44342   
  1695. BD*(   1) C  19 - H  62          0.00439     0.32258   
  1696. BD*(   1) C  19 - H  63          0.00391     0.32035   
  1697. BD*(   1) C  19 - H  64          0.00296     0.32660   
  1698. BD*(   1) C  20 - C  21          0.00331     0.40390   
  1699. BD*(   2) C  20 - C  21          0.04742    -0.06523   
  1700. BD*(   1) C  20 - H  65          0.00720     0.36708   
  1701. BD*(   1) C  21 - H  66          0.00343     0.36120   
  1702. BD*(   1) C  21 - H  67          0.00192     0.36601   
  1703. BD*(   1) C  22 - C  23          0.02051     0.42919   
  1704. BD*(   1) C  22 - N  41          0.01384     0.41463   
  1705. BD*(   2) C  22 - N  41          0.34125    -0.10374  1707(v),168(v),175(v),181(v)
                                                    734(g),182(v),1227(g),241(v)
                                                    183(v),736(g),188(r)
  1706. BD*(   1) C  23 - C  24          0.02417     0.42144   
  1707. BD*(   2) C  23 - C  24          0.20449    -0.07019  1715(v),188(r),1705(v)
                                                    175(v),787(g),1712(v)
                                                    1758(r),1757(r)
  1708. BD*(   1) C  23 - C  26          0.01462     0.23554   
  1709. BD*(   1) C  24 - C  25          0.01557     0.46178   
  1710. BD*(   1) C  24 - C  27          0.01176     0.44349   
  1711. BD*(   1) C  25 - N  41          0.01359     0.44092   
  1712. BD*(   1) C  26 - H  68          0.02049     0.28506   
  1713. BD*(   1) C  26 - H  69          0.02655     0.26861   
  1714. BD*(   1) C  27 - C  28          0.00355     0.40277   
  1715. BD*(   2) C  27 - C  28          0.05136    -0.07186   
  1716. BD*(   1) C  27 - H  71          0.00756     0.35689   
  1717. BD*(   1) C  28 - H  72          0.00463     0.34780   
  1718. BD*(   1) C  28 - H  73          0.00253     0.35963   
  1719. BD*(   1) C  29 - C  30          0.01560     0.45704   
  1720. BD*(   1) C  29 - N  42          0.01509     0.44323   
  1721. BD*(   1) C  30 - C  31          0.01149     0.44124   
  1722. BD*(   2) C  30 - C  31          0.13755    -0.04626  1662(v),1727(v),1731(v)
                                                    1729(v),1728(v)
  1723. BD*(   1) C  30 - C  33          0.00772     0.27122   
  1724. BD*(   1) C  31 - C  32          0.01565     0.46089   
  1725. BD*(   1) C  31 - C  34          0.01153     0.29768   
  1726. BD*(   1) C  32 - N  42          0.01408     0.47135   
  1727. BD*(   2) C  32 - N  42          0.32766    -0.09250  1722(v),1662(v),1666(r)
                                                    182(v),994(g),1253(g),189(v)
                                                    183(v),993(g)
  1728. BD*(   1) C  33 - H  74          0.00313     0.31628   
  1729. BD*(   1) C  33 - H  75          0.00398     0.31574   
  1730. BD*(   1) C  33 - H  76          0.00228     0.32047   
  1731. BD*(   1) C  34 - C  35          0.00907     0.28937   
  1732. BD*(   1) C  34 - H  77          0.00613     0.32100   
  1733. BD*(   1) C  34 - H  78          0.00665     0.31941   
  1734. BD*(   1) C  35 - C  36          0.04070     0.29093   
  1735. BD*(   1) C  35 - H  79          0.00528     0.32310   
  1736. BD*(   1) C  35 - H  80          0.00584     0.30734   
  1737. BD*(   1) C  36 - O  37          0.02050     0.53835   
  1738. BD*(   2) C  36 - O  37          0.08700    -0.04708   
  1739. BD*(   1) C  36 - O  38          0.03614     0.47456   
  1740. BD*(   1) O  38 - H  87          0.00725     0.30940   
  1741. BD*(   1) N  39 -Fe  43          0.03284     0.25111   
  1742. BD*(   1) N  40 -Fe  43          0.03466     0.22715   
  1743. BD*(   1) N  41 -Fe  43          0.02984     0.24002   
  1744. BD*(   1) N  42 -Fe  43          0.03066     0.23478   
  1745. BD*(   1)Fe  43 - N  46          0.03612     0.14390   
  1746. BD*(   1) N  44 - C  45          0.01142     0.40735   
  1747. BD*(   2) N  44 - C  45          0.28777    -0.15954  1753(v),1332(g),182(r)
                                                    181(r),1334(g),1307(g)
                                                    1306(g)
  1748. BD*(   1) N  44 - C  48          0.00632     0.41037   
  1749. BD*(   1) N  44 - H  49          0.00791     0.32357   
  1750. BD*(   1) C  45 - N  46          0.01047     0.42589   
  1751. BD*(   1) C  45 - H  81          0.00727     0.26315   
  1752. BD*(   1) N  46 - C  47          0.00860     0.45921   
  1753. BD*(   2) N  46 - C  47          0.29777    -0.12166  1747(v),181(v),182(v)
                                                    1383(g),1358(g),1412(v)
                                                    1332(v),1398(g)
  1754. BD*(   1) C  47 - C  48          0.00859     0.42534   
  1755. BD*(   1) C  47 - H  82          0.00734     0.30886   
  1756. BD*(   1) C  48 - H  83          0.00515     3.23849   
       -------------------------------
              Total Lewis  169.94506  ( 96.6330%)
        Valence non-Lewis    5.58327  (  3.1747%)
        Rydberg non-Lewis    0.33818  (  0.1923%)
       -------------------------------
            Total unit  1  175.86650  (100.0000%)
           Charge unit  1    2.63350

 Molecular unit  2  (H2O)
   107. BD (   1) O  50 - H  84          0.99395    -0.92952  183(r),1745(r),182(r),181(r)
                                                    1358(r),1278(r),1360(r)
                                                    1178(r),1281(r),1175(r)
                                                    1280(r),1744(r),1742(r)
                                                    1284(r),1283(r),1254(r)
                                                    1200(r),1357(r),1182(r)
                                                    184(r)
   108. BD (   1) O  50 - H  85          0.97237    -0.92947  183(r),182(r),181(r),1745(r)
                                                    1744(r),1741(r),1278(r)
                                                    1743(r),1742(r),1284(r)
                                                    1281(r),1174(r),1360(r)
                                                    1227(r),1175(r),1177(r)
                                                    1358(r),1204(r),1357(r)
                                                    1720(r),1672(r),1255(r)
                                                    1183(r)
   165. CR (   1) O  50                  0.99991   -19.11941  183(r),1745(r),1281(r)
                                                    1743(r),182(r),181(r)
                                                    1282(r),1744(r),1280(r)
                                                    1278(r),184(r)
   186. LP (   1) O  50                  0.97493    -0.55432  183(r),181(r),1741(r)
                                                    1743(r),1742(r),182(r)
                                                    1744(r),1632(v),1637(v)
                                                    184(r),1278(r),1666(r)
                                                    1745(r),1359(r),1253(r)
                                                    1200(r),1230(r),1176(r)
                                                    1254(r),1360(r),1174(r)
                                                    1228(r),1227(r),1177(r)
                                                    1705(r),1727(r)
   187. LP (   2) O  50                  0.88765    -0.62147  183(r),1745(r),1758(g)
                                                    182(r),1633(v),1443(g)
                                                    1638(v),1742(r),1177(r)
                                                    184(r),1229(r),1200(r)
                                                    1741(r),1252(r),1283(r)
                                                    1203(r),1174(r),1227(r)
                                                    1366(r),1255(r),1226(r)
                                                    1287(r),1280(r),1284(r)
                                                    181(r),1694(r),1687(r)
                                                    1665(r),1278(r),1358(r)
                                                    1672(r),1253(r),1688(r)
                                                    1201(r),1711(r),1666(r)
                                                    1704(r)
  1440. RY*(   1) O  50                  0.00122     1.10397   
  1441. RY*(   2) O  50                  0.00064     0.77760   
  1442. RY*(   3) O  50                  0.00052     1.22738   
  1443. RY*(   4) O  50                  0.00020     1.06298   
  1444. RY*(   5) O  50                  0.00012     1.61211   
  1445. RY*(   6) O  50                  0.00011     1.67285   
  1446. RY*(   7) O  50                  0.00007     1.89121   
  1447. RY*(   8) O  50                  0.00005     3.17455   
  1448. RY*(   9) O  50                  0.00002     2.87839   
  1449. RY*(  10) O  50                  0.00002     2.16733   
  1450. RY*(  11) O  50                  0.00000     6.25397   
  1451. RY*(  12) O  50                  0.00000     2.90914   
  1452. RY*(  13) O  50                  0.00000     6.24253   
  1453. RY*(  14) O  50                  0.00000     3.29439   
  1454. RY*(  15) O  50                  0.00000     6.13913   
  1455. RY*(  16) O  50                  0.00000    41.91925   
  1456. RY*(  17) O  50                  0.00000     6.18261   
  1457. RY*(  18) O  50                  0.00001     3.61678   
  1458. RY*(  19) O  50                  0.00000     6.26309   
  1459. RY*(  20) O  50                  0.00000     5.31477   
  1460. RY*(  21) O  50                  0.00000     5.57678   
  1461. RY*(  22) O  50                  0.00000     5.34216   
  1462. RY*(  23) O  50                  0.00000     5.14048   
  1463. RY*(  24) O  50                  0.00000     5.20818   
  1464. RY*(  25) O  50                  0.00000     5.20862   
  1465. RY*(  26) O  50                  0.00000     5.50609   
  1631. RY*(   1) H  84                  0.00065     0.63326   
  1632. RY*(   2) H  84                  0.00031     2.10765   
  1633. RY*(   3) H  84                  0.00019     2.07652   
  1634. RY*(   4) H  84                  0.00010     2.13309   
  1635. RY*(   5) H  84                  0.00000     3.36586   
  1636. RY*(   1) H  85                  0.00074     1.11809   
  1637. RY*(   2) H  85                  0.00020     1.81813   
  1638. RY*(   3) H  85                  0.00014     2.10824   
  1639. RY*(   4) H  85                  0.00006     2.43919   
  1640. RY*(   5) H  85                  0.00002     3.25554   
  1757. BD*(   1) O  50 - H  84          0.00420     5.31966   
  1758. BD*(   1) O  50 - H  85          0.00788     2.60049   
       -------------------------------
              Total Lewis    4.82881  ( 99.6391%)
        Valence non-Lewis    0.01208  (  0.2493%)
        Rydberg non-Lewis    0.00541  (  0.1116%)
       -------------------------------
            Total unit  2    4.84630  (100.0000%)
           Charge unit  2    0.15370

 Molecular unit  3  (H)
   188. LP*(   1) H  70                  0.28610    -0.06182  1707(r),1713(r),1712(r)
                                                    1708(r),1561(g),1563(g)
                                                    852(r),855(r),837(r),854(r)
                                                    850(r),1706(r),842(r),838(r)
                                                    846(r),1705(r),839(r),856(r)
                                                    1710(r),848(r),1658(r)
                                                    849(r),1554(r),844(r),768(r)
                                                    763(r),1555(r),1662(r)
                                                    765(r)
  1561. RY*(   1) H  70                  0.00067     1.39326   
  1562. RY*(   2) H  70                  0.00016     2.20274   
  1563. RY*(   3) H  70                  0.00009     2.31027   
  1564. RY*(   4) H  70                  0.00003     1.36215   
  1565. RY*(   5) H  70                  0.00000     2.78176   
       -------------------------------
              Total Lewis    0.00000  (  0.0000%)
        Valence non-Lewis    0.28610  ( 99.6685%)
        Rydberg non-Lewis    0.00095  (  0.3315%)
       -------------------------------
            Total unit  3    0.28705  (100.0000%)
           Charge unit  3    0.21295
 1\1\GINC-NODE854\SP\UPBE1PBE\def2TZVP\C37H38Fe1N6O5(1+,6)\KLEICH\01-Oc
 t-2022\0\\# PBE1PBE/def2TZVP empiricaldispersion=GD3BJ int=(grid=ultra
 fine) geom=check pop=nbo\\1ccg_III_H\\1,6\C,0,-5.506,53.923,112.93\C,0
 ,-7.562,57.972,114.378\C,0,-5.926,60.126,110.472\C,0,-3.654,56.114,109
 .164\C,0,-6.228,54.827,113.698\C,0,-6.758,54.532,114.942\C,0,-7.395,55
 .715,115.374\C,0,-7.147,56.642,114.369\C,0,-8.23,55.922,116.645\C,0,-6
 .626,53.173,115.641\C,0,-5.472,53.012,116.584\C,0,-5.394,51.617,117.22
 4\O,0,-6.246,51.26,118.04\O,0,-4.475,50.847,116.942\C,0,-7.381,58.932,
 113.376\C,0,-7.941,60.211,113.411\C,0,-7.522,60.812,112.232\C,0,-6.685
 ,59.879,111.612\C,0,-8.919,60.678,114.485\C,0,-7.826,62.055,111.651\C,
 0,-8.743,63.064,112.11\C,0,-5.081,59.253,109.775\C,0,-4.298,59.622,108
 .683\C,0,-3.589,58.446,108.366\C,0,-4.047,57.462,109.229\C,0,-4.188,61
 .047,108.081\C,0,-2.635,58.152,107.378\C,0,-2.272,58.924,106.228\C,0,-
 4.,55.082,110.014\C,0,-3.674,53.753,109.834\C,0,-4.208,53.123,110.964\
 C,0,-4.83,54.109,111.715\C,0,-3.02,53.099,108.613\C,0,-4.19,51.63,111.
 27\C,0,-3.016,51.229,112.145\C,0,-3.008,49.79,112.601\O,0,-2.443,49.52
 8,113.657\O,0,-3.547,48.922,111.918\N,0,-6.462,56.1,113.359\N,0,-6.701
 ,58.711,112.255\N,0,-4.921,57.955,110.104\N,0,-4.723,55.274,111.116\Fe
 ,0,-5.857,56.937,111.603\N,0,-9.264,56.772,109.591\C,0,-8.576,56.828,1
 10.692\N,0,-7.374,56.4,110.42\C,0,-7.308,56.079,109.165\C,0,-8.548,56.
 317,108.604\H,0,-10.166,57.108,109.493\O,0,-4.422,57.485,112.862\H,0,-
 5.45782113,52.93038101,113.32659342\H,0,-8.08069798,58.29811361,115.25
 521281\H,0,-5.99760271,61.11670263,110.07415412\H,0,-3.00493273,55.854
 7598,108.35381101\H,0,-8.29848407,56.96786322,116.86036031\H,0,-9.2117
 5387,55.52358038,116.49559734\H,0,-7.7619019,55.41887131,117.4651498\H
 ,0,-6.44721884,52.46901742,114.85528642\H,0,-7.5012008,53.08406969,116
 .25010997\H,0,-5.65300175,53.69407989,117.38830429\H,0,-4.58942939,53.
 11072806,115.98715673\H,0,-8.46371308,61.44873123,115.07116311\H,0,-9.
 8040266,61.05930165,114.01998713\H,0,-9.17510627,59.85346206,115.11701
 801\H,0,-7.30480633,62.28163664,110.74441686\H,0,-9.30143044,62.910036
 62,113.00963921\H,0,-8.86660125,63.96842137,111.55174851\H,0,-3.962482
 84,61.38427734,107.09090606\H,0,-3.16344207,60.7451661,108.01714588\H,
 0,-5.06293474,60.70293935,107.57010718\H,0,-2.1095021,57.22809277,107.
 50107472\H,0,-2.75434073,59.86002192,106.03797265\H,0,-1.5183987,58.56
 487385,105.5586619\H,0,-2.27695181,52.4008133,108.93752229\H,0,-3.7650
 7449,52.58672515,108.04086497\H,0,-2.56112515,53.85261299,108.00768906
 \H,0,-4.04362608,51.13631942,110.33204789\H,0,-5.07023292,51.43423488,
 111.84599134\H,0,-3.11319677,51.81093673,113.0376379\H,0,-2.14912823,5
 1.33767231,111.52724304\H,0,-8.9296665,57.16293665,111.64470008\H,0,-6
 .44757409,55.69818255,108.65554409\H,0,-8.85064928,56.16247035,107.589
 39466\H,0,-3.67092348,58.08289971,112.862\H,0,-4.10865359,56.57757836,
 112.862\H,0,-5.97701984,50.89062643,118.88428244\H,0,-3.01035,48.29644
 543,111.42577215\\Version=AM64L-G16RevA.03\State=6-A\HF=-3398.9641935\
 S2=8.759207\S2-1=0.\S2A=8.750026\RMSD=3.051e-09\Dipole=-2.4257186,1.73
 3562,-2.6532249\Quadrupole=-6.299087,-17.4293937,23.7284807,-8.3841822
 ,-20.6325971,4.8547402\PG=C01 [X(C37H38Fe1N6O5)]\\@


 IT IS A SIMPLE TASK TO MAKE THINGS COMPLEX,
 BUT A COMPLEX TASK TO MAKE THEM SIMPLE.
 Job cpu time:       4 days 18 hours 57 minutes  7.0 seconds.
 Elapsed time:       1 days  4 hours 50 minutes  9.6 seconds.
 File lengths (MBytes):  RWF=   2849 Int=      0 D2E=      0 Chk=    240 Scr=      1
 Normal termination of Gaussian 16 at Sat Oct  1 15:27:58 2022.
