 Entering Gaussian System, Link 0=g16
 Input=/net/homes/chemie/zhartovska/work/BioModel/Konrad/1cck/1cck12/1cck16/1cck16.com
 Output=/net/homes/chemie/zhartovska/work/BioModel/Konrad/1cck/1cck12/1cck16/1cck16.log
 Initial command:
 /afs/math/software/gaussian/g16.A03/g16/l1.exe "/scratch/zhartovska_gaussian.PGNx6F4/Gau-5506.inp" -scrdir="/scratch/zhartovska_gaussian.PGNx6F4/"
 Entering Link 1 = /afs/math/software/gaussian/g16.A03/g16/l1.exe PID=      5507.
  
 Copyright (c) 1988,1990,1992,1993,1995,1998,2003,2009,2016,
            Gaussian, Inc.  All Rights Reserved.
  
 This is part of the Gaussian(R) 16 program.  It is based on
 the Gaussian(R) 09 system (copyright 2009, Gaussian, Inc.),
 the Gaussian(R) 03 system (copyright 2003, Gaussian, Inc.),
 the Gaussian(R) 98 system (copyright 1998, Gaussian, Inc.),
 the Gaussian(R) 94 system (copyright 1995, Gaussian, Inc.),
 the Gaussian 92(TM) system (copyright 1992, Gaussian, Inc.),
 the Gaussian 90(TM) system (copyright 1990, Gaussian, Inc.),
 the Gaussian 88(TM) system (copyright 1988, Gaussian, Inc.),
 the Gaussian 86(TM) system (copyright 1986, Carnegie Mellon
 University), and the Gaussian 82(TM) system (copyright 1983,
 Carnegie Mellon University). Gaussian is a federally registered
 trademark of Gaussian, Inc.
  
 This software contains proprietary and confidential information,
 including trade secrets, belonging to Gaussian, Inc.
  
 This software is provided under written license and may be
 used, copied, transmitted, or stored only in accord with that
 written license.
  
 The following legend is applicable only to US Government
 contracts under FAR:
  
                    RESTRICTED RIGHTS LEGEND
  
 Use, reproduction and disclosure by the US Government is
 subject to restrictions as set forth in subparagraphs (a)
 and (c) of the Commercial Computer Software - Restricted
 Rights clause in FAR 52.227-19.
  
 Gaussian, Inc.
 340 Quinnipiac St., Bldg. 40, Wallingford CT 06492
  
  
 ---------------------------------------------------------------
 Warning -- This program may not be used in any manner that
 competes with the business of Gaussian, Inc. or will provide
 assistance to any competitor of Gaussian, Inc.  The licensee
 of this program is prohibited from giving any competitor of
 Gaussian, Inc. access to this program.  By using this program,
 the user acknowledges that Gaussian, Inc. is engaged in the
 business of creating and licensing software in the field of
 computational chemistry and represents and warrants to the
 licensee that it is not a competitor of Gaussian, Inc. and that
 it will not use this program in any manner prohibited above.
 ---------------------------------------------------------------
  

 Cite this work as:
 Gaussian 16, Revision A.03,
 M. J. Frisch, G. W. Trucks, H. B. Schlegel, G. E. Scuseria, 
 M. A. Robb, J. R. Cheeseman, G. Scalmani, V. Barone, 
 G. A. Petersson, H. Nakatsuji, X. Li, M. Caricato, A. V. Marenich, 
 J. Bloino, B. G. Janesko, R. Gomperts, B. Mennucci, H. P. Hratchian, 
 J. V. Ortiz, A. F. Izmaylov, J. L. Sonnenberg, D. Williams-Young, 
 F. Ding, F. Lipparini, F. Egidi, J. Goings, B. Peng, A. Petrone, 
 T. Henderson, D. Ranasinghe, V. G. Zakrzewski, J. Gao, N. Rega, 
 G. Zheng, W. Liang, M. Hada, M. Ehara, K. Toyota, R. Fukuda, 
 J. Hasegawa, M. Ishida, T. Nakajima, Y. Honda, O. Kitao, H. Nakai, 
 T. Vreven, K. Throssell, J. A. Montgomery, Jr., J. E. Peralta, 
 F. Ogliaro, M. J. Bearpark, J. J. Heyd, E. N. Brothers, K. N. Kudin, 
 V. N. Staroverov, T. A. Keith, R. Kobayashi, J. Normand, 
 K. Raghavachari, A. P. Rendell, J. C. Burant, S. S. Iyengar, 
 J. Tomasi, M. Cossi, J. M. Millam, M. Klene, C. Adamo, R. Cammi, 
 J. W. Ochterski, R. L. Martin, K. Morokuma, O. Farkas, 
 J. B. Foresman, and D. J. Fox, Gaussian, Inc., Wallingford CT, 2016.
 
 ******************************************
 Gaussian 16:  ES64L-G16RevA.03 25-Dec-2016
                 8-Sep-2022 
 ******************************************
 %nprocs=12
 Will use up to   12 processors via shared memory.
 %mem=16GB
 %oldchk=1cck_III_D.chk
 %chk=1cck_III_H.chk
 Copying data from "1cck_III_D.chk" to current chk file "1cck_III_H.chk"
 IOpt=  2 FromEx=T IUOpen= 4 IOptOp= 5 NList=   0 IFRang= 0 IUIn= 4 IUOut= 2.
 ----------------------------------------------------------------------
 # PBE1PBE/def2TZVP empiricaldispersion=GD3BJ scf=maxcycle=999 geom=che
 ck pop=nbo
 ----------------------------------------------------------------------
 1/29=2,38=1,172=1/1;
 2/12=2,40=1/2;
 3/5=44,7=101,11=2,14=-4,25=1,30=1,74=-13,124=41/1,2,3;
 4//1;
 5/5=2,7=999,38=5/2;
 6/7=2,8=2,9=2,10=2,28=1,40=1/1,7;
 99/5=1,9=1/99;
 ----------
 1cck_III_H
 ----------
 Structure from the checkpoint file:  "1cck_III_H.chk"
 Charge =  1 Multiplicity = 6
 Z-Matrix found in chk file.
 C,0,-8.983,54.799,107.567001
 C,0,-8.54,55.606998,108.792
 N,0,-9.235,56.48,109.509003
 C,0,-7.314,55.534,109.401001
 C,0,-8.503,56.910999,110.500999
 N,0,-7.319,56.334999,110.436996
 H,0,-10.068,56.903999,109.240997
 Fe,0,-5.819,56.952,111.661003
 C,0,-5.402,53.929001,112.991997
 C,0,-7.54,57.979,114.383003
 C,0,-5.948,60.127998,110.458
 C,0,-3.64,56.141998,109.214996
 N,0,-6.453,56.078999,113.372002
 C,0,-6.162,54.831001,113.746002
 C,0,-6.72,54.561001,114.978996
 C,0,-7.402,55.723999,115.358002
 C,0,-7.134,56.641998,114.375
 C,0,-8.3,55.936001,116.572998
 C,0,-6.63,53.219002,115.699997
 C,0,-5.402,53.037998,116.555
 C,0,-5.327,51.671001,117.238998
 O,0,-6.233,51.285,117.983002
 O,0,-4.34,50.955002,117.054001
 N,0,-6.811,58.708,112.205002
 C,0,-7.412,58.931999,113.367996
 C,0,-7.948,60.220001,113.431
 C,0,-7.516,60.838001,112.250999
 C,0,-6.724,59.891998,111.598
 C,0,-8.881,60.683998,114.561996
 C,0,-7.822,62.084999,111.697998
 C,0,-8.33176962,62.9262641,112.69616128
 N,0,-4.944,57.963001,110.096001
 C,0,-5.105,59.257,109.750999
 C,0,-4.341,59.617001,108.634003
 C,0,-3.612,58.455002,108.348
 C,0,-4.065,57.478001,109.233002
 C,0,-4.249,61.014999,107.987
 C,0,-2.607,58.181999,107.403
 C,0,-2.176,58.978001,106.297997
 N,0,-4.692,55.285,111.160004
 C,0,-3.961,55.115002,110.064003
 C,0,-3.616,53.791,109.886002
 C,0,-4.152,53.131001,110.990997
 C,0,-4.763,54.104,111.761002
 C,0,-2.941,53.191002,108.672997
 C,0,-4.125,51.634998,111.255997
 C,0,-2.886,51.203999,112.029999
 C,0,-2.951,49.791,112.564003
 O,0,-2.38,49.560001,113.612
 O,0,-3.559,48.915001,111.950996
 O,0,-4.281,57.657001,113.107002
 H,0,-6.02075276,50.85383657,118.81405507
 H,0,-4.53580591,53.15947432,115.93867922
 H,0,-5.39545363,53.79770233,117.30846299
 H,0,-7.49290101,53.11366467,116.32386068
 H,0,-6.64652785,52.44080115,114.96581019
 H,0,-7.80365999,56.57085129,117.27692392
 H,0,-9.21621309,56.39406599,116.26375693
 H,0,-8.50993654,54.99177269,117.03044696
 H,0,-8.00987808,58.31744685,115.28276314
 H,0,-8.40289455,61.45945002,115.12323511
 H,0,-9.79188291,61.05708943,114.14247829
 H,0,-9.09738873,59.8582961,115.20720317
 H,0,-8.55324801,61.96324539,110.92640717
 H,0,-9.39447857,62.99771319,112.59396186
 H,0,-8.092229,62.52398892,113.65829171
 H,0,-6.00605471,61.12206124,110.06637782
 H,0,-3.35563943,61.07898593,107.40158343
 H,0,-5.0998343,61.17352026,107.3578323
 H,0,-4.22773686,61.76181106,108.75297625
 H,0,-3.42966867,58.10066188,113.107002
 H,0,-4.98306459,58.31175691,113.107002
 H,0,-3.0223172,59.2488198,105.70192286
 H,0,-1.69764829,59.86346229,106.66136726
 H,0,-2.88765363,57.24455215,106.97018717
 H,0,-2.96705916,55.88704928,108.42312999
 H,0,-2.00000711,52.77026722,108.96007647
 H,0,-3.56360037,52.42448775,108.26102044
 H,0,-2.78180374,53.95372908,107.93964582
 H,0,-5.29353662,52.95623425,113.4242707
 H,0,-4.14547357,51.11738831,110.31974861
 H,0,-4.99487428,51.36759288,111.81876981
 H,0,-2.03699757,51.28402804,111.38370942
 H,0,-2.75094383,51.87265857,112.85434978
 H,0,-3.07357034,48.23642198,111.47613965
 H,0,-8.81336631,57.61591516,111.24374119
 H,0,-6.49267758,54.92595861,109.08380208
 H,0,-8.24970345,54.05092057,107.34893372
 H,0,-9.92244831,54.32895732,107.77046291
 H,0,-9.08607588,55.45311462,106.72651934
 Recover connectivity data from disk.
 Stoichiometry    C38H40FeN6O5(1+,6)
 Framework group  C1[X(C38H40FeN6O5)]
 Deg. of freedom   264
 Full point group                 C1      NOp   1
 Largest Abelian subgroup         C1      NOp   1
 Largest concise Abelian subgroup C1      NOp   1
                         Standard orientation:                         
 ---------------------------------------------------------------------
 Center     Atomic      Atomic             Coordinates (Angstroms)
 Number     Number       Type             X           Y           Z
 ---------------------------------------------------------------------
      1          6           0       -1.368806   -2.208983    4.940654
      2          6           0       -1.479203   -1.211500    3.781960
      3          7           0       -2.075098   -0.026779    3.757533
      4          6           0       -0.927204   -1.363969    2.536433
      5          6           0       -1.897537    0.526963    2.588139
      6          7           0       -1.195197   -0.293121    1.831894
      7          1           0       -2.719374    0.301471    4.407650
      8         26           0       -0.940744    0.109620   -0.143438
      9          6           0        2.380381    0.118184    0.088961
     10          6           0       -1.008055    3.489105   -0.163676
     11          6           0       -4.289239    0.101342   -0.725102
     12          6           0       -0.862758   -3.218087   -0.697857
     13          7           0        0.444264    1.573916    0.027429
     14          6           0        1.762538    1.374358    0.093648
     15          6           0        2.423966    2.583209    0.169359
     16          6           0        1.429592    3.569364    0.162103
     17          6           0        0.247385    2.895532   -0.008704
     18          6           0        1.593570    5.074121    0.352848
     19          6           0        3.936172    2.741186    0.300432
     20          6           0        4.689093    2.756661   -1.005189
     21          6           0        6.204857    2.885166   -0.837538
     22          8           0        6.695761    3.841906   -0.231702
     23          8           0        6.942937    2.027706   -1.328503
     24          7           0       -2.447189    1.556402   -0.174801
     25          6           0       -2.260885    2.870721   -0.217065
     26          6           0       -3.473618    3.561387   -0.266798
     27          6           0       -4.443870    2.558728   -0.386106
     28          6           0       -3.738046    1.355687   -0.441770
     29          6           0       -3.575034    5.087424   -0.105985
     30          6           0       -5.840408    2.620391   -0.367901
     31          6           0       -6.253880    3.929699   -0.648392
     32          7           0       -2.340887   -1.320041   -0.625772
     33          6           0       -3.663379   -1.150258   -0.829661
     34          6           0       -4.316749   -2.344584   -1.157791
     35          6           0       -3.274860   -3.278976   -1.227492
     36          6           0       -2.116573   -2.606978   -0.840503
     37          6           0       -5.813172   -2.519527   -1.491839
     38          6           0       -3.249795   -4.636576   -1.593382
     39          6           0       -4.345803   -5.527297   -1.807379
     40          7           0        0.530323   -1.345911   -0.275375
     41          6           0        0.348929   -2.656899   -0.388897
     42          6           0        1.509016   -3.353596   -0.119634
     43          6           0        2.465142   -2.370638    0.132407
     44          6           0        1.818935   -1.157387   -0.020547
     45          6           0        1.647940   -4.853090    0.019009
     46          6           0        3.907440   -2.594309    0.555166
     47          6           0        4.849139   -2.721200   -0.635239
     48          6           0        6.315647   -2.656009   -0.273219
     49          8           0        7.073200   -2.162660   -1.085880
     50          8           0        6.716690   -3.091898    0.804733
     51          8           0       -0.662430    0.698115   -2.271724
     52          1           0        7.471353    4.285507   -0.582807
     53          1           0        4.479424    1.848728   -1.531113
     54          1           0        4.339267    3.580593   -1.591411
     55          1           0        4.135385    3.658144    0.814634
     56          1           0        4.308742    1.932740    0.894155
     57          1           0        1.424046    5.572307   -0.578803
     58          1           0        0.886101    5.421070    1.076736
     59          1           0        2.585566    5.284342    0.694388
     60          1           0       -1.011017    4.555357   -0.253102
     61          1           0       -3.933272    5.519060   -1.017168
     62          1           0       -4.253341    5.318019    0.688764
     63          1           0       -2.609053    5.486983    0.122341
     64          1           0       -6.197540    2.332978    0.598924
     65          1           0       -6.557990    4.409652    0.258285
     66          1           0       -5.442874    4.473947   -1.085385
     67          1           0       -5.347013    0.095530   -0.886291
     68          1           0       -5.953727   -3.432580   -2.031726
     69          1           0       -6.379838   -2.550683   -0.584745
     70          1           0       -6.143517   -1.696616   -2.090663
     71          1           0       -0.897122    0.389467   -3.149935
     72          1           0       -1.372329    1.242562   -1.923556
     73          1           0       -4.996915   -5.502004   -0.958667
     74          1           0       -4.885786   -5.225119   -2.680309
     75          1           0       -2.656723   -5.110818   -0.839552
     76          1           0       -0.849985   -4.276739   -0.852753
     77          1           0        2.317510   -5.220073   -0.730591
     78          1           0        2.035122   -5.087277    0.988621
     79          1           0        0.689484   -5.312870   -0.102907
     80          1           0        3.446003    0.137299    0.183753
     81          1           0        3.962406   -3.490703    1.136851
     82          1           0        4.222757   -1.769406    1.159327
     83          1           0        4.660182   -3.656450   -1.119493
     84          1           0        4.634000   -1.931215   -1.324106
     85          1           0        7.204886   -3.917874    0.836796
     86          1           0       -2.262267    1.488441    2.292450
     87          1           0       -0.371839   -2.213461    2.197564
     88          1           0       -0.663531   -2.972859    4.687710
     89          1           0       -1.040319   -1.697718    5.821338
     90          1           0       -2.325508   -2.652647    5.121719
 ---------------------------------------------------------------------
 Rotational constants (GHZ):           0.0753431           0.0461685           0.0339717
 Standard basis: def2TZVP (5D, 7F)
 There are  2056 symmetry adapted cartesian basis functions of A   symmetry.
 There are  1804 symmetry adapted basis functions of A   symmetry.
  1804 basis functions,  2921 primitive gaussians,  2056 cartesian basis functions
   190 alpha electrons      185 beta electrons
       nuclear repulsion energy      7604.7015608305 Hartrees.
 NAtoms=   90 NActive=   90 NUniq=   90 SFac= 1.00D+00 NAtFMM=   60 NAOKFM=T Big=T
 Integral buffers will be    131072 words long.
 Raffenetti 2 integral format.
 Two-electron integral symmetry is turned on.
 Nuclear repulsion after empirical dispersion term =     7604.5764181603 Hartrees.
 One-electron integrals computed using PRISM.
   1 Symmetry operations used in ECPInt.
 ECPInt:  NShTT=  255255 NPrTT=  790653 LenC2=  185418 LenP2D=  372529.
 LDataN:  DoStor=T MaxTD1= 6 Len=  172
 NBasis=  1804 RedAO= T EigKep=  2.63D-06  NBF=  1804
 NBsUse=  1804 1.00D-06 EigRej= -1.00D+00 NBFU=  1804
 ExpMin= 4.20D-02 ExpMax= 3.01D+05 ExpMxC= 2.91D+03 IAcc=3 IRadAn=         5 AccDes= 0.00D+00
 Harris functional with IExCor= 1009 and IRadAn=       5 diagonalized for initial guess.
 HarFok:  IExCor= 1009 AccDes= 0.00D+00 IRadAn=         5 IDoV= 1 UseB2=F ITyADJ=14
 ICtDFT=  3500011 ScaDFX=  1.000000  1.000000  1.000000  1.000000
 FoFCou: FMM=F IPFlag=           0 FMFlag=      100000 FMFlg1=        2001
         NFxFlg=           0 DoJE=T BraDBF=F KetDBF=T FulRan=T
         wScrn=  0.000000 ICntrl=       500 IOpCl=  0 I1Cent=   200000004 NGrid=           0
         NMat0=    1 NMatS0=      1 NMatT0=    0 NMatD0=    1 NMtDS0=    0 NMtDT0=    0
 Petite list used in FoFCou.
 Initial guess <Sx>= 0.0000 <Sy>= 0.0000 <Sz>= 2.5000 <S**2>= 8.7500 S= 2.5000
 Requested convergence on RMS density matrix=1.00D-08 within 999 cycles.
 Requested convergence on MAX density matrix=1.00D-06.
 Requested convergence on             energy=1.00D-06.
 No special actions if energy rises.
 EnCoef did     2 forward-backward iterations
 EnCoef did   100 forward-backward iterations
 EnCoef did   100 forward-backward iterations
 EnCoef did    10 forward-backward iterations
 EnCoef did     3 forward-backward iterations
 EnCoef did     7 forward-backward iterations
 EnCoef did   100 forward-backward iterations
 EnCoef did     1 forward-backward iterations
 Restarting incremental Fock formation.
 Restarting incremental Fock formation.
 SCF Done:  E(UPBE1PBE) =  -3438.28575052     A.U. after   49 cycles
            NFock= 49  Conv=0.18D-08     -V/T= 2.0025
 <Sx>= 0.0000 <Sy>= 0.0000 <Sz>= 2.5000 <S**2>= 8.8848 S= 2.5224
 <L.S>= 0.000000000000E+00
 Annihilation of the first spin contaminant:
 S**2 before annihilation     8.8848,   after     8.7549

 **********************************************************************

            Population analysis using the SCF density.

 **********************************************************************

 Orbital symmetries:
 Alpha Orbitals:
       Occupied  (A) (A) (A) (A) (A) (A) (A) (A) (A) (A) (A) (A)
                 (A) (A) (A) (A) (A) (A) (A) (A) (A) (A) (A) (A)
                 (A) (A) (A) (A) (A) (A) (A) (A) (A) (A) (A) (A)
                 (A) (A) (A) (A) (A) (A) (A) (A) (A) (A) (A) (A)
                 (A) (A) (A) (A) (A) (A) (A) (A) (A) (A) (A) (A)
                 (A) (A) (A) (A) (A) (A) (A) (A) (A) (A) (A) (A)
                 (A) (A) (A) (A) (A) (A) (A) (A) (A) (A) (A) (A)
                 (A) (A) (A) (A) (A) (A) (A) (A) (A) (A) (A) (A)
                 (A) (A) (A) (A) (A) (A) (A) (A) (A) (A) (A) (A)
                 (A) (A) (A) (A) (A) (A) (A) (A) (A) (A) (A) (A)
                 (A) (A) (A) (A) (A) (A) (A) (A) (A) (A) (A) (A)
                 (A) (A) (A) (A) (A) (A) (A) (A) (A) (A) (A) (A)
                 (A) (A) (A) (A) (A) (A) (A) (A) (A) (A) (A) (A)
                 (A) (A) (A) (A) (A) (A) (A) (A) (A) (A) (A) (A)
                 (A) (A) (A) (A) (A) (A) (A) (A) (A) (A) (A) (A)
                 (A) (A) (A) (A) (A) (A) (A) (A) (A) (A)
       Virtual   (A) (A) (A) (A) (A) (A) (A) (A) (A) (A) (A) (A)
                 (A) (A) (A) (A) (A) (A) (A) (A) (A) (A) (A) (A)
                 (A) (A) (A) (A) (A) (A) (A) (A) (A) (A) (A) (A)
                 (A) (A) (A) (A) (A) (A) (A) (A) (A) (A) (A) (A)
                 (A) (A) (A) (A) (A) (A) (A) (A) (A) (A) (A) (A)
                 (A) (A) (A) (A) (A) (A) (A) (A) (A) (A) (A) (A)
                 (A) (A) (A) (A) (A) (A) (A) (A) (A) (A) (A) (A)
                 (A) (A) (A) (A) (A) (A) (A) (A) (A) (A) (A) (A)
                 (A) (A) (A) (A) (A) (A) (A) (A) (A) (A) (A) (A)
                 (A) (A) (A) (A) (A) (A) (A) (A) (A) (A) (A) (A)
                 (A) (A) (A) (A) (A) (A) (A) (A) (A) (A) (A) (A)
                 (A) (A) (A) (A) (A) (A) (A) (A) (A) (A) (A) (A)
                 (A) (A) (A) (A) (A) (A) (A) (A) (A) (A) (A) (A)
                 (A) (A) (A) (A) (A) (A) (A) (A) (A) (A) (A) (A)
                 (A) (A) (A) (A) (A) (A) (A) (A) (A) (A) (A) (A)
                 (A) (A) (A) (A) (A) (A) (A) (A) (A) (A) (A) (A)
                 (A) (A) (A) (A) (A) (A) (A) (A) (A) (A) (A) (A)
                 (A) (A) (A) (A) (A) (A) (A) (A) (A) (A) (A) (A)
                 (A) (A) (A) (A) (A) (A) (A) (A) (A) (A) (A) (A)
                 (A) (A) (A) (A) (A) (A) (A) (A) (A) (A) (A) (A)
                 (A) (A) (A) (A) (A) (A) (A) (A) (A) (A) (A) (A)
                 (A) (A) (A) (A) (A) (A) (A) (A) (A) (A) (A) (A)
                 (A) (A) (A) (A) (A) (A) (A) (A) (A) (A) (A) (A)
                 (A) (A) (A) (A) (A) (A) (A) (A) (A) (A) (A) (A)
                 (A) (A) (A) (A) (A) (A) (A) (A) (A) (A) (A) (A)
                 (A) (A) (A) (A) (A) (A) (A) (A) (A) (A) (A) (A)
                 (A) (A) (A) (A) (A) (A) (A) (A) (A) (A) (A) (A)
                 (A) (A) (A) (A) (A) (A) (A) (A) (A) (A) (A) (A)
                 (A) (A) (A) (A) (A) (A) (A) (A) (A) (A) (A) (A)
                 (A) (A) (A) (A) (A) (A) (A) (A) (A) (A) (A) (A)
                 (A) (A) (A) (A) (A) (A) (A) (A) (A) (A) (A) (A)
                 (A) (A) (A) (A) (A) (A) (A) (A) (A) (A) (A) (A)
                 (A) (A) (A) (A) (A) (A) (A) (A) (A) (A) (A) (A)
                 (A) (A) (A) (A) (A) (A) (A) (A) (A) (A) (A) (A)
                 (A) (A) (A) (A) (A) (A) (A) (A) (A) (A) (A) (A)
                 (A) (A) (A) (A) (A) (A) (A) (A) (A) (A) (A) (A)
                 (A) (A) (A) (A) (A) (A) (A) (A) (A) (A) (A) (A)
                 (A) (A) (A) (A) (A) (A) (A) (A) (A) (A) (A) (A)
                 (A) (A) (A) (A) (A) (A) (A) (A) (A) (A) (A) (A)
                 (A) (A) (A) (A) (A) (A) (A) (A) (A) (A) (A) (A)
                 (A) (A) (A) (A) (A) (A) (A) (A) (A) (A) (A) (A)
                 (A) (A) (A) (A) (A) (A) (A) (A) (A) (A) (A) (A)
                 (A) (A) (A) (A) (A) (A) (A) (A) (A) (A) (A) (A)
                 (A) (A) (A) (A) (A) (A) (A) (A) (A) (A) (A) (A)
                 (A) (A) (A) (A) (A) (A) (A) (A) (A) (A) (A) (A)
                 (A) (A) (A) (A) (A) (A) (A) (A) (A) (A) (A) (A)
                 (A) (A) (A) (A) (A) (A) (A) (A) (A) (A) (A) (A)
                 (A) (A) (A) (A) (A) (A) (A) (A) (A) (A) (A) (A)
                 (A) (A) (A) (A) (A) (A) (A) (A) (A) (A) (A) (A)
                 (A) (A) (A) (A) (A) (A) (A) (A) (A) (A) (A) (A)
                 (A) (A) (A) (A) (A) (A) (A) (A) (A) (A) (A) (A)
                 (A) (A) (A) (A) (A) (A) (A) (A) (A) (A) (A) (A)
                 (A) (A) (A) (A) (A) (A) (A) (A) (A) (A) (A) (A)
                 (A) (A) (A) (A) (A) (A) (A) (A) (A) (A) (A) (A)
                 (A) (A) (A) (A) (A) (A) (A) (A) (A) (A) (A) (A)
                 (A) (A) (A) (A) (A) (A) (A) (A) (A) (A) (A) (A)
                 (A) (A) (A) (A) (A) (A) (A) (A) (A) (A) (A) (A)
                 (A) (A) (A) (A) (A) (A) (A) (A) (A) (A) (A) (A)
                 (A) (A) (A) (A) (A) (A) (A) (A) (A) (A) (A) (A)
                 (A) (A) (A) (A) (A) (A) (A) (A) (A) (A) (A) (A)
                 (A) (A) (A) (A) (A) (A) (A) (A) (A) (A) (A) (A)
                 (A) (A) (A) (A) (A) (A) (A) (A) (A) (A) (A) (A)
                 (A) (A) (A) (A) (A) (A) (A) (A) (A) (A) (A) (A)
                 (A) (A) (A) (A) (A) (A) (A) (A) (A) (A) (A) (A)
                 (A) (A) (A) (A) (A) (A) (A) (A) (A) (A) (A) (A)
                 (A) (A) (A) (A) (A) (A) (A) (A) (A) (A) (A) (A)
                 (A) (A) (A) (A) (A) (A) (A) (A) (A) (A) (A) (A)
                 (A) (A) (A) (A) (A) (A) (A) (A) (A) (A) (A) (A)
                 (A) (A) (A) (A) (A) (A) (A) (A) (A) (A) (A) (A)
                 (A) (A) (A) (A) (A) (A) (A) (A) (A) (A) (A) (A)
                 (A) (A) (A) (A) (A) (A) (A) (A) (A) (A) (A) (A)
                 (A) (A) (A) (A) (A) (A) (A) (A) (A) (A) (A) (A)
                 (A) (A) (A) (A) (A) (A) (A) (A) (A) (A) (A) (A)
                 (A) (A) (A) (A) (A) (A) (A) (A) (A) (A) (A) (A)
                 (A) (A) (A) (A) (A) (A) (A) (A) (A) (A) (A) (A)
                 (A) (A) (A) (A) (A) (A) (A) (A) (A) (A) (A) (A)
                 (A) (A) (A) (A) (A) (A) (A) (A) (A) (A) (A) (A)
                 (A) (A) (A) (A) (A) (A) (A) (A) (A) (A) (A) (A)
                 (A) (A) (A) (A) (A) (A) (A) (A) (A) (A) (A) (A)
                 (A) (A) (A) (A) (A) (A) (A) (A) (A) (A) (A) (A)
                 (A) (A) (A) (A) (A) (A) (A) (A) (A) (A) (A) (A)
                 (A) (A) (A) (A) (A) (A) (A) (A) (A) (A) (A) (A)
                 (A) (A) (A) (A) (A) (A) (A) (A) (A) (A) (A) (A)
                 (A) (A) (A) (A) (A) (A) (A) (A) (A) (A) (A) (A)
                 (A) (A) (A) (A) (A) (A) (A) (A) (A) (A) (A) (A)
                 (A) (A) (A) (A) (A) (A) (A) (A) (A) (A) (A) (A)
                 (A) (A) (A) (A) (A) (A) (A) (A) (A) (A) (A) (A)
                 (A) (A) (A) (A) (A) (A) (A) (A) (A) (A) (A) (A)
                 (A) (A) (A) (A) (A) (A) (A) (A) (A) (A) (A) (A)
                 (A) (A) (A) (A) (A) (A) (A) (A) (A) (A) (A) (A)
                 (A) (A) (A) (A) (A) (A) (A) (A) (A) (A) (A) (A)
                 (A) (A) (A) (A) (A) (A) (A) (A) (A) (A) (A) (A)
                 (A) (A) (A) (A) (A) (A) (A) (A) (A) (A) (A) (A)
                 (A) (A) (A) (A) (A) (A) (A) (A) (A) (A) (A) (A)
                 (A) (A) (A) (A) (A) (A) (A) (A) (A) (A) (A) (A)
                 (A) (A) (A) (A) (A) (A) (A) (A) (A) (A) (A) (A)
                 (A) (A) (A) (A) (A) (A) (A) (A) (A) (A) (A) (A)
                 (A) (A) (A) (A) (A) (A) (A) (A) (A) (A) (A) (A)
                 (A) (A) (A) (A) (A) (A) (A) (A) (A) (A) (A) (A)
                 (A) (A) (A) (A) (A) (A) (A) (A) (A) (A) (A) (A)
                 (A) (A) (A) (A) (A) (A) (A) (A) (A) (A) (A) (A)
                 (A) (A) (A) (A) (A) (A) (A) (A) (A) (A) (A) (A)
                 (A) (A) (A) (A) (A) (A) (A) (A) (A) (A) (A) (A)
                 (A) (A) (A) (A) (A) (A) (A) (A) (A) (A) (A) (A)
                 (A) (A) (A) (A) (A) (A) (A) (A) (A) (A) (A) (A)
                 (A) (A) (A) (A) (A) (A) (A) (A) (A) (A) (A) (A)
                 (A) (A) (A) (A) (A) (A) (A) (A) (A) (A) (A) (A)
                 (A) (A) (A) (A) (A) (A) (A) (A) (A) (A) (A) (A)
                 (A) (A) (A) (A) (A) (A) (A) (A) (A) (A) (A) (A)
                 (A) (A) (A) (A) (A) (A) (A) (A) (A) (A) (A) (A)
                 (A) (A) (A) (A) (A) (A) (A) (A) (A) (A) (A) (A)
                 (A) (A) (A) (A) (A) (A) (A) (A) (A) (A) (A) (A)
                 (A) (A) (A) (A) (A) (A) (A) (A) (A) (A) (A) (A)
                 (A) (A) (A) (A) (A) (A) (A) (A) (A) (A) (A) (A)
                 (A) (A) (A) (A) (A) (A) (A) (A) (A) (A) (A) (A)
                 (A) (A) (A) (A) (A) (A) (A) (A) (A) (A) (A) (A)
                 (A) (A) (A) (A) (A) (A) (A) (A) (A) (A) (A) (A)
                 (A) (A) (A) (A) (A) (A) (A) (A) (A) (A) (A) (A)
                 (A) (A) (A) (A) (A) (A) (A) (A) (A) (A) (A) (A)
                 (A) (A) (A) (A) (A) (A) (A) (A) (A) (A) (A) (A)
                 (A) (A) (A) (A) (A) (A) (A) (A) (A) (A) (A) (A)
                 (A) (A) (A) (A) (A) (A) (A) (A) (A) (A) (A) (A)
                 (A) (A) (A) (A) (A) (A) (A) (A) (A) (A) (A) (A)
                 (A) (A) (A) (A) (A) (A) (A) (A) (A) (A) (A) (A)
                 (A) (A) (A) (A) (A) (A) (A) (A) (A) (A) (A) (A)
                 (A) (A) (A) (A) (A) (A) (A) (A) (A) (A) (A) (A)
                 (A) (A) (A) (A) (A) (A) (A) (A) (A) (A) (A) (A)
                 (A) (A) (A) (A) (A) (A) (A) (A) (A) (A) (A) (A)
                 (A) (A) (A) (A) (A) (A) (A) (A) (A) (A) (A) (A)
                 (A) (A) (A) (A) (A) (A) (A) (A) (A) (A) (A) (A)
                 (A) (A) (A) (A) (A) (A) (A) (A) (A) (A) (A) (A)
                 (A) (A) (A) (A) (A) (A) (A) (A) (A) (A) (A) (A)
                 (A) (A) (A) (A) (A) (A) (A) (A) (A) (A) (A) (A)
                 (A) (A) (A) (A) (A) (A) (A) (A) (A) (A) (A) (A)
                 (A) (A) (A) (A) (A) (A)
 Beta  Orbitals:
       Occupied  (A) (A) (A) (A) (A) (A) (A) (A) (A) (A) (A) (A)
                 (A) (A) (A) (A) (A) (A) (A) (A) (A) (A) (A) (A)
                 (A) (A) (A) (A) (A) (A) (A) (A) (A) (A) (A) (A)
                 (A) (A) (A) (A) (A) (A) (A) (A) (A) (A) (A) (A)
                 (A) (A) (A) (A) (A) (A) (A) (A) (A) (A) (A) (A)
                 (A) (A) (A) (A) (A) (A) (A) (A) (A) (A) (A) (A)
                 (A) (A) (A) (A) (A) (A) (A) (A) (A) (A) (A) (A)
                 (A) (A) (A) (A) (A) (A) (A) (A) (A) (A) (A) (A)
                 (A) (A) (A) (A) (A) (A) (A) (A) (A) (A) (A) (A)
                 (A) (A) (A) (A) (A) (A) (A) (A) (A) (A) (A) (A)
                 (A) (A) (A) (A) (A) (A) (A) (A) (A) (A) (A) (A)
                 (A) (A) (A) (A) (A) (A) (A) (A) (A) (A) (A) (A)
                 (A) (A) (A) (A) (A) (A) (A) (A) (A) (A) (A) (A)
                 (A) (A) (A) (A) (A) (A) (A) (A) (A) (A) (A) (A)
                 (A) (A) (A) (A) (A) (A) (A) (A) (A) (A) (A) (A)
                 (A) (A) (A) (A) (A)
       Virtual   (A) (A) (A) (A) (A) (A) (A) (A) (A) (A) (A) (A)
                 (A) (A) (A) (A) (A) (A) (A) (A) (A) (A) (A) (A)
                 (A) (A) (A) (A) (A) (A) (A) (A) (A) (A) (A) (A)
                 (A) (A) (A) (A) (A) (A) (A) (A) (A) (A) (A) (A)
                 (A) (A) (A) (A) (A) (A) (A) (A) (A) (A) (A) (A)
                 (A) (A) (A) (A) (A) (A) (A) (A) (A) (A) (A) (A)
                 (A) (A) (A) (A) (A) (A) (A) (A) (A) (A) (A) (A)
                 (A) (A) (A) (A) (A) (A) (A) (A) (A) (A) (A) (A)
                 (A) (A) (A) (A) (A) (A) (A) (A) (A) (A) (A) (A)
                 (A) (A) (A) (A) (A) (A) (A) (A) (A) (A) (A) (A)
                 (A) (A) (A) (A) (A) (A) (A) (A) (A) (A) (A) (A)
                 (A) (A) (A) (A) (A) (A) (A) (A) (A) (A) (A) (A)
                 (A) (A) (A) (A) (A) (A) (A) (A) (A) (A) (A) (A)
                 (A) (A) (A) (A) (A) (A) (A) (A) (A) (A) (A) (A)
                 (A) (A) (A) (A) (A) (A) (A) (A) (A) (A) (A) (A)
                 (A) (A) (A) (A) (A) (A) (A) (A) (A) (A) (A) (A)
                 (A) (A) (A) (A) (A) (A) (A) (A) (A) (A) (A) (A)
                 (A) (A) (A) (A) (A) (A) (A) (A) (A) (A) (A) (A)
                 (A) (A) (A) (A) (A) (A) (A) (A) (A) (A) (A) (A)
                 (A) (A) (A) (A) (A) (A) (A) (A) (A) (A) (A) (A)
                 (A) (A) (A) (A) (A) (A) (A) (A) (A) (A) (A) (A)
                 (A) (A) (A) (A) (A) (A) (A) (A) (A) (A) (A) (A)
                 (A) (A) (A) (A) (A) (A) (A) (A) (A) (A) (A) (A)
                 (A) (A) (A) (A) (A) (A) (A) (A) (A) (A) (A) (A)
                 (A) (A) (A) (A) (A) (A) (A) (A) (A) (A) (A) (A)
                 (A) (A) (A) (A) (A) (A) (A) (A) (A) (A) (A) (A)
                 (A) (A) (A) (A) (A) (A) (A) (A) (A) (A) (A) (A)
                 (A) (A) (A) (A) (A) (A) (A) (A) (A) (A) (A) (A)
                 (A) (A) (A) (A) (A) (A) (A) (A) (A) (A) (A) (A)
                 (A) (A) (A) (A) (A) (A) (A) (A) (A) (A) (A) (A)
                 (A) (A) (A) (A) (A) (A) (A) (A) (A) (A) (A) (A)
                 (A) (A) (A) (A) (A) (A) (A) (A) (A) (A) (A) (A)
                 (A) (A) (A) (A) (A) (A) (A) (A) (A) (A) (A) (A)
                 (A) (A) (A) (A) (A) (A) (A) (A) (A) (A) (A) (A)
                 (A) (A) (A) (A) (A) (A) (A) (A) (A) (A) (A) (A)
                 (A) (A) (A) (A) (A) (A) (A) (A) (A) (A) (A) (A)
                 (A) (A) (A) (A) (A) (A) (A) (A) (A) (A) (A) (A)
                 (A) (A) (A) (A) (A) (A) (A) (A) (A) (A) (A) (A)
                 (A) (A) (A) (A) (A) (A) (A) (A) (A) (A) (A) (A)
                 (A) (A) (A) (A) (A) (A) (A) (A) (A) (A) (A) (A)
                 (A) (A) (A) (A) (A) (A) (A) (A) (A) (A) (A) (A)
                 (A) (A) (A) (A) (A) (A) (A) (A) (A) (A) (A) (A)
                 (A) (A) (A) (A) (A) (A) (A) (A) (A) (A) (A) (A)
                 (A) (A) (A) (A) (A) (A) (A) (A) (A) (A) (A) (A)
                 (A) (A) (A) (A) (A) (A) (A) (A) (A) (A) (A) (A)
                 (A) (A) (A) (A) (A) (A) (A) (A) (A) (A) (A) (A)
                 (A) (A) (A) (A) (A) (A) (A) (A) (A) (A) (A) (A)
                 (A) (A) (A) (A) (A) (A) (A) (A) (A) (A) (A) (A)
                 (A) (A) (A) (A) (A) (A) (A) (A) (A) (A) (A) (A)
                 (A) (A) (A) (A) (A) (A) (A) (A) (A) (A) (A) (A)
                 (A) (A) (A) (A) (A) (A) (A) (A) (A) (A) (A) (A)
                 (A) (A) (A) (A) (A) (A) (A) (A) (A) (A) (A) (A)
                 (A) (A) (A) (A) (A) (A) (A) (A) (A) (A) (A) (A)
                 (A) (A) (A) (A) (A) (A) (A) (A) (A) (A) (A) (A)
                 (A) (A) (A) (A) (A) (A) (A) (A) (A) (A) (A) (A)
                 (A) (A) (A) (A) (A) (A) (A) (A) (A) (A) (A) (A)
                 (A) (A) (A) (A) (A) (A) (A) (A) (A) (A) (A) (A)
                 (A) (A) (A) (A) (A) (A) (A) (A) (A) (A) (A) (A)
                 (A) (A) (A) (A) (A) (A) (A) (A) (A) (A) (A) (A)
                 (A) (A) (A) (A) (A) (A) (A) (A) (A) (A) (A) (A)
                 (A) (A) (A) (A) (A) (A) (A) (A) (A) (A) (A) (A)
                 (A) (A) (A) (A) (A) (A) (A) (A) (A) (A) (A) (A)
                 (A) (A) (A) (A) (A) (A) (A) (A) (A) (A) (A) (A)
                 (A) (A) (A) (A) (A) (A) (A) (A) (A) (A) (A) (A)
                 (A) (A) (A) (A) (A) (A) (A) (A) (A) (A) (A) (A)
                 (A) (A) (A) (A) (A) (A) (A) (A) (A) (A) (A) (A)
                 (A) (A) (A) (A) (A) (A) (A) (A) (A) (A) (A) (A)
                 (A) (A) (A) (A) (A) (A) (A) (A) (A) (A) (A) (A)
                 (A) (A) (A) (A) (A) (A) (A) (A) (A) (A) (A) (A)
                 (A) (A) (A) (A) (A) (A) (A) (A) (A) (A) (A) (A)
                 (A) (A) (A) (A) (A) (A) (A) (A) (A) (A) (A) (A)
                 (A) (A) (A) (A) (A) (A) (A) (A) (A) (A) (A) (A)
                 (A) (A) (A) (A) (A) (A) (A) (A) (A) (A) (A) (A)
                 (A) (A) (A) (A) (A) (A) (A) (A) (A) (A) (A) (A)
                 (A) (A) (A) (A) (A) (A) (A) (A) (A) (A) (A) (A)
                 (A) (A) (A) (A) (A) (A) (A) (A) (A) (A) (A) (A)
                 (A) (A) (A) (A) (A) (A) (A) (A) (A) (A) (A) (A)
                 (A) (A) (A) (A) (A) (A) (A) (A) (A) (A) (A) (A)
                 (A) (A) (A) (A) (A) (A) (A) (A) (A) (A) (A) (A)
                 (A) (A) (A) (A) (A) (A) (A) (A) (A) (A) (A) (A)
                 (A) (A) (A) (A) (A) (A) (A) (A) (A) (A) (A) (A)
                 (A) (A) (A) (A) (A) (A) (A) (A) (A) (A) (A) (A)
                 (A) (A) (A) (A) (A) (A) (A) (A) (A) (A) (A) (A)
                 (A) (A) (A) (A) (A) (A) (A) (A) (A) (A) (A) (A)
                 (A) (A) (A) (A) (A) (A) (A) (A) (A) (A) (A) (A)
                 (A) (A) (A) (A) (A) (A) (A) (A) (A) (A) (A) (A)
                 (A) (A) (A) (A) (A) (A) (A) (A) (A) (A) (A) (A)
                 (A) (A) (A) (A) (A) (A) (A) (A) (A) (A) (A) (A)
                 (A) (A) (A) (A) (A) (A) (A) (A) (A) (A) (A) (A)
                 (A) (A) (A) (A) (A) (A) (A) (A) (A) (A) (A) (A)
                 (A) (A) (A) (A) (A) (A) (A) (A) (A) (A) (A) (A)
                 (A) (A) (A) (A) (A) (A) (A) (A) (A) (A) (A) (A)
                 (A) (A) (A) (A) (A) (A) (A) (A) (A) (A) (A) (A)
                 (A) (A) (A) (A) (A) (A) (A) (A) (A) (A) (A) (A)
                 (A) (A) (A) (A) (A) (A) (A) (A) (A) (A) (A) (A)
                 (A) (A) (A) (A) (A) (A) (A) (A) (A) (A) (A) (A)
                 (A) (A) (A) (A) (A) (A) (A) (A) (A) (A) (A) (A)
                 (A) (A) (A) (A) (A) (A) (A) (A) (A) (A) (A) (A)
                 (A) (A) (A) (A) (A) (A) (A) (A) (A) (A) (A) (A)
                 (A) (A) (A) (A) (A) (A) (A) (A) (A) (A) (A) (A)
                 (A) (A) (A) (A) (A) (A) (A) (A) (A) (A) (A) (A)
                 (A) (A) (A) (A) (A) (A) (A) (A) (A) (A) (A) (A)
                 (A) (A) (A) (A) (A) (A) (A) (A) (A) (A) (A) (A)
                 (A) (A) (A) (A) (A) (A) (A) (A) (A) (A) (A) (A)
                 (A) (A) (A) (A) (A) (A) (A) (A) (A) (A) (A) (A)
                 (A) (A) (A) (A) (A) (A) (A) (A) (A) (A) (A) (A)
                 (A) (A) (A) (A) (A) (A) (A) (A) (A) (A) (A) (A)
                 (A) (A) (A) (A) (A) (A) (A) (A) (A) (A) (A) (A)
                 (A) (A) (A) (A) (A) (A) (A) (A) (A) (A) (A) (A)
                 (A) (A) (A) (A) (A) (A) (A) (A) (A) (A) (A) (A)
                 (A) (A) (A) (A) (A) (A) (A) (A) (A) (A) (A) (A)
                 (A) (A) (A) (A) (A) (A) (A) (A) (A) (A) (A) (A)
                 (A) (A) (A) (A) (A) (A) (A) (A) (A) (A) (A) (A)
                 (A) (A) (A) (A) (A) (A) (A) (A) (A) (A) (A) (A)
                 (A) (A) (A) (A) (A) (A) (A) (A) (A) (A) (A) (A)
                 (A) (A) (A) (A) (A) (A) (A) (A) (A) (A) (A) (A)
                 (A) (A) (A) (A) (A) (A) (A) (A) (A) (A) (A) (A)
                 (A) (A) (A) (A) (A) (A) (A) (A) (A) (A) (A) (A)
                 (A) (A) (A) (A) (A) (A) (A) (A) (A) (A) (A) (A)
                 (A) (A) (A) (A) (A) (A) (A) (A) (A) (A) (A) (A)
                 (A) (A) (A) (A) (A) (A) (A) (A) (A) (A) (A) (A)
                 (A) (A) (A) (A) (A) (A) (A) (A) (A) (A) (A) (A)
                 (A) (A) (A) (A) (A) (A) (A) (A) (A) (A) (A) (A)
                 (A) (A) (A) (A) (A) (A) (A) (A) (A) (A) (A) (A)
                 (A) (A) (A) (A) (A) (A) (A) (A) (A) (A) (A) (A)
                 (A) (A) (A) (A) (A) (A) (A) (A) (A) (A) (A) (A)
                 (A) (A) (A) (A) (A) (A) (A) (A) (A) (A) (A) (A)
                 (A) (A) (A) (A) (A) (A) (A) (A) (A) (A) (A) (A)
                 (A) (A) (A) (A) (A) (A) (A) (A) (A) (A) (A) (A)
                 (A) (A) (A) (A) (A) (A) (A) (A) (A) (A) (A) (A)
                 (A) (A) (A) (A) (A) (A) (A) (A) (A) (A) (A) (A)
                 (A) (A) (A) (A) (A) (A) (A) (A) (A) (A) (A) (A)
                 (A) (A) (A) (A) (A) (A) (A) (A) (A) (A) (A) (A)
                 (A) (A) (A) (A) (A) (A) (A) (A) (A) (A) (A) (A)
                 (A) (A) (A) (A) (A) (A) (A) (A) (A) (A) (A)
 The electronic state is 6-A.
 Alpha  occ. eigenvalues -- -256.54054 -30.34673 -26.18177 -26.15904 -26.15841
 Alpha  occ. eigenvalues --  -19.32927 -19.32153 -19.31530 -19.23605 -19.23296
 Alpha  occ. eigenvalues --  -14.56251 -14.50937 -14.49819 -14.49660 -14.48803
 Alpha  occ. eigenvalues --  -14.48235 -10.41057 -10.40658 -10.39365 -10.36995
 Alpha  occ. eigenvalues --  -10.35961 -10.35845 -10.35831 -10.35510 -10.35174
 Alpha  occ. eigenvalues --  -10.35151 -10.35115 -10.34772 -10.34371 -10.34112
 Alpha  occ. eigenvalues --  -10.33629 -10.33250 -10.33201 -10.32994 -10.32993
 Alpha  occ. eigenvalues --  -10.32946 -10.32713 -10.32655 -10.32616 -10.32609
 Alpha  occ. eigenvalues --  -10.32431 -10.32431 -10.32380 -10.32050 -10.31926
 Alpha  occ. eigenvalues --  -10.31779 -10.31454 -10.31213 -10.31083 -10.30930
 Alpha  occ. eigenvalues --  -10.30691 -10.30581 -10.30417 -10.29965  -3.74252
 Alpha  occ. eigenvalues --   -2.54192  -2.48102  -2.47934  -1.23987  -1.23987
 Alpha  occ. eigenvalues --   -1.20580  -1.17052  -1.12536  -1.11720  -1.11244
 Alpha  occ. eigenvalues --   -1.10594  -1.09900  -1.08686  -1.05116  -0.95743
 Alpha  occ. eigenvalues --   -0.95370  -0.94611  -0.93311  -0.93157  -0.92821
 Alpha  occ. eigenvalues --   -0.92434  -0.91963  -0.89642  -0.88232  -0.87984
 Alpha  occ. eigenvalues --   -0.87553  -0.86427  -0.85136  -0.83348  -0.82908
 Alpha  occ. eigenvalues --   -0.82565  -0.82331  -0.80720  -0.78381  -0.78120
 Alpha  occ. eigenvalues --   -0.77868  -0.77197  -0.76878  -0.74717  -0.74274
 Alpha  occ. eigenvalues --   -0.73766  -0.73503  -0.72125  -0.70249  -0.69917
 Alpha  occ. eigenvalues --   -0.69513  -0.68585  -0.67569  -0.66531  -0.65995
 Alpha  occ. eigenvalues --   -0.64649  -0.64204  -0.63213  -0.63155  -0.61391
 Alpha  occ. eigenvalues --   -0.61086  -0.60442  -0.60095  -0.59861  -0.59361
 Alpha  occ. eigenvalues --   -0.58779  -0.58174  -0.57670  -0.57457  -0.57333
 Alpha  occ. eigenvalues --   -0.57200  -0.56975  -0.56663  -0.56221  -0.55856
 Alpha  occ. eigenvalues --   -0.55542  -0.55437  -0.54686  -0.54437  -0.54300
 Alpha  occ. eigenvalues --   -0.54213  -0.53753  -0.53595  -0.53428  -0.53380
 Alpha  occ. eigenvalues --   -0.52976  -0.52820  -0.52738  -0.52556  -0.52352
 Alpha  occ. eigenvalues --   -0.51827  -0.51808  -0.51585  -0.51347  -0.51059
 Alpha  occ. eigenvalues --   -0.50577  -0.50519  -0.50385  -0.50348  -0.50161
 Alpha  occ. eigenvalues --   -0.49956  -0.49543  -0.49205  -0.49000  -0.48714
 Alpha  occ. eigenvalues --   -0.48294  -0.48077  -0.47862  -0.47424  -0.46916
 Alpha  occ. eigenvalues --   -0.46696  -0.46303  -0.45619  -0.45531  -0.45345
 Alpha  occ. eigenvalues --   -0.44891  -0.44635  -0.44281  -0.43879  -0.43224
 Alpha  occ. eigenvalues --   -0.42905  -0.42124  -0.41608  -0.40699  -0.39778
 Alpha  occ. eigenvalues --   -0.39667  -0.38864  -0.38790  -0.37581  -0.37252
 Alpha  occ. eigenvalues --   -0.35361  -0.34766  -0.34482  -0.34236  -0.34142
 Alpha  occ. eigenvalues --   -0.33211  -0.33156  -0.32026  -0.30341  -0.28417
 Alpha virt. eigenvalues --   -0.21770  -0.19359  -0.18250  -0.15319  -0.11882
 Alpha virt. eigenvalues --   -0.09409  -0.07658  -0.07201  -0.06420  -0.05953
 Alpha virt. eigenvalues --   -0.05513  -0.05174  -0.04827  -0.04215  -0.03604
 Alpha virt. eigenvalues --   -0.03349  -0.03280  -0.03012  -0.02708  -0.02147
 Alpha virt. eigenvalues --   -0.01922  -0.01569  -0.01321  -0.00944  -0.00767
 Alpha virt. eigenvalues --   -0.00529  -0.00187  -0.00086   0.00085   0.00839
 Alpha virt. eigenvalues --    0.01152   0.01459   0.01683   0.01983   0.02227
 Alpha virt. eigenvalues --    0.02511   0.02737   0.03271   0.03457   0.03710
 Alpha virt. eigenvalues --    0.03803   0.04117   0.04317   0.04434   0.04621
 Alpha virt. eigenvalues --    0.04708   0.04965   0.05168   0.05260   0.05642
 Alpha virt. eigenvalues --    0.05903   0.06056   0.06365   0.06602   0.06802
 Alpha virt. eigenvalues --    0.06988   0.07267   0.07544   0.07903   0.07969
 Alpha virt. eigenvalues --    0.08194   0.08921   0.09027   0.09443   0.09469
 Alpha virt. eigenvalues --    0.09575   0.09638   0.09815   0.09885   0.10331
 Alpha virt. eigenvalues --    0.10580   0.10897   0.11220   0.11456   0.11677
 Alpha virt. eigenvalues --    0.11975   0.12168   0.12349   0.12526   0.12937
 Alpha virt. eigenvalues --    0.12990   0.13060   0.13478   0.13569   0.13778
 Alpha virt. eigenvalues --    0.13955   0.14160   0.14543   0.14655   0.14938
 Alpha virt. eigenvalues --    0.15266   0.15474   0.15549   0.15646   0.15770
 Alpha virt. eigenvalues --    0.16112   0.16356   0.16455   0.16766   0.16893
 Alpha virt. eigenvalues --    0.17289   0.17510   0.17727   0.17758   0.18028
 Alpha virt. eigenvalues --    0.18129   0.18377   0.18495   0.18859   0.18934
 Alpha virt. eigenvalues --    0.19099   0.19273   0.19548   0.19781   0.19831
 Alpha virt. eigenvalues --    0.20045   0.20545   0.20824   0.20871   0.21078
 Alpha virt. eigenvalues --    0.21241   0.21561   0.21798   0.22027   0.22317
 Alpha virt. eigenvalues --    0.22364   0.22691   0.23026   0.23188   0.23335
 Alpha virt. eigenvalues --    0.23425   0.23737   0.24015   0.24321   0.24500
 Alpha virt. eigenvalues --    0.24713   0.25145   0.25416   0.25815   0.25873
 Alpha virt. eigenvalues --    0.25977   0.26324   0.26868   0.27246   0.27424
 Alpha virt. eigenvalues --    0.27634   0.28089   0.28254   0.28558   0.28750
 Alpha virt. eigenvalues --    0.28891   0.29099   0.29310   0.29484   0.29825
 Alpha virt. eigenvalues --    0.29904   0.30235   0.30468   0.30629   0.30780
 Alpha virt. eigenvalues --    0.30903   0.31074   0.31476   0.31659   0.31947
 Alpha virt. eigenvalues --    0.32067   0.32295   0.32537   0.32692   0.32837
 Alpha virt. eigenvalues --    0.32972   0.33276   0.33459   0.33819   0.34041
 Alpha virt. eigenvalues --    0.34358   0.34531   0.34717   0.34786   0.34936
 Alpha virt. eigenvalues --    0.35012   0.35540   0.35682   0.35702   0.36253
 Alpha virt. eigenvalues --    0.36437   0.36538   0.36631   0.36818   0.37123
 Alpha virt. eigenvalues --    0.37301   0.37561   0.37768   0.37930   0.38333
 Alpha virt. eigenvalues --    0.38542   0.38614   0.38867   0.38933   0.39167
 Alpha virt. eigenvalues --    0.39454   0.39575   0.39758   0.39866   0.40121
 Alpha virt. eigenvalues --    0.40202   0.40471   0.40628   0.40765   0.40932
 Alpha virt. eigenvalues --    0.41173   0.41306   0.41575   0.41817   0.41927
 Alpha virt. eigenvalues --    0.42073   0.42157   0.42520   0.42542   0.42769
 Alpha virt. eigenvalues --    0.42816   0.43173   0.43343   0.43445   0.43756
 Alpha virt. eigenvalues --    0.43884   0.43996   0.44282   0.44559   0.44724
 Alpha virt. eigenvalues --    0.44775   0.45069   0.45326   0.45404   0.45543
 Alpha virt. eigenvalues --    0.45784   0.46041   0.46432   0.46608   0.46975
 Alpha virt. eigenvalues --    0.47068   0.47288   0.47440   0.47731   0.48141
 Alpha virt. eigenvalues --    0.48309   0.48388   0.48771   0.48896   0.49083
 Alpha virt. eigenvalues --    0.49156   0.49436   0.49632   0.50076   0.50156
 Alpha virt. eigenvalues --    0.50440   0.50776   0.51166   0.51434   0.51530
 Alpha virt. eigenvalues --    0.51865   0.52146   0.52165   0.52717   0.52786
 Alpha virt. eigenvalues --    0.53343   0.53485   0.53737   0.53801   0.54316
 Alpha virt. eigenvalues --    0.54494   0.54663   0.54905   0.54920   0.55342
 Alpha virt. eigenvalues --    0.55573   0.55684   0.55887   0.56088   0.56422
 Alpha virt. eigenvalues --    0.56654   0.56737   0.57042   0.57368   0.57626
 Alpha virt. eigenvalues --    0.57785   0.58055   0.58485   0.58645   0.58961
 Alpha virt. eigenvalues --    0.59155   0.59549   0.59634   0.59866   0.60020
 Alpha virt. eigenvalues --    0.60399   0.60672   0.61099   0.61259   0.61361
 Alpha virt. eigenvalues --    0.61597   0.61780   0.62240   0.62703   0.62988
 Alpha virt. eigenvalues --    0.63102   0.63315   0.63623   0.64303   0.64401
 Alpha virt. eigenvalues --    0.64876   0.65103   0.65301   0.65720   0.65865
 Alpha virt. eigenvalues --    0.66184   0.66624   0.66822   0.67057   0.67371
 Alpha virt. eigenvalues --    0.67534   0.68029   0.68473   0.68538   0.68764
 Alpha virt. eigenvalues --    0.69231   0.69439   0.69789   0.69826   0.70098
 Alpha virt. eigenvalues --    0.70518   0.70718   0.70970   0.71344   0.71667
 Alpha virt. eigenvalues --    0.72283   0.72661   0.72900   0.73333   0.73867
 Alpha virt. eigenvalues --    0.74070   0.74309   0.74662   0.74827   0.75354
 Alpha virt. eigenvalues --    0.75650   0.75718   0.75896   0.76395   0.76562
 Alpha virt. eigenvalues --    0.76970   0.77225   0.77330   0.77671   0.77774
 Alpha virt. eigenvalues --    0.78228   0.78925   0.79153   0.79254   0.79584
 Alpha virt. eigenvalues --    0.79969   0.80359   0.80580   0.80973   0.81127
 Alpha virt. eigenvalues --    0.81358   0.81906   0.82266   0.82815   0.82949
 Alpha virt. eigenvalues --    0.83510   0.83667   0.83896   0.84277   0.84626
 Alpha virt. eigenvalues --    0.84932   0.85001   0.85189   0.85372   0.86018
 Alpha virt. eigenvalues --    0.86405   0.86556   0.87021   0.87221   0.87454
 Alpha virt. eigenvalues --    0.87827   0.88113   0.88625   0.88705   0.88808
 Alpha virt. eigenvalues --    0.89357   0.89805   0.90087   0.90183   0.90419
 Alpha virt. eigenvalues --    0.90999   0.91031   0.91627   0.91923   0.92068
 Alpha virt. eigenvalues --    0.92724   0.92809   0.93038   0.93682   0.93829
 Alpha virt. eigenvalues --    0.94321   0.94404   0.94732   0.95116   0.95339
 Alpha virt. eigenvalues --    0.95608   0.95677   0.96124   0.96376   0.96404
 Alpha virt. eigenvalues --    0.97174   0.97423   0.97721   0.97800   0.98155
 Alpha virt. eigenvalues --    0.98474   0.98645   0.98715   0.99100   0.99672
 Alpha virt. eigenvalues --    0.99929   1.00238   1.00436   1.00863   1.00941
 Alpha virt. eigenvalues --    1.01435   1.01513   1.02308   1.02952   1.03137
 Alpha virt. eigenvalues --    1.03319   1.03681   1.04107   1.04554   1.04895
 Alpha virt. eigenvalues --    1.05218   1.05641   1.05776   1.06099   1.06484
 Alpha virt. eigenvalues --    1.06735   1.06955   1.07338   1.07650   1.07999
 Alpha virt. eigenvalues --    1.08355   1.08733   1.08885   1.09355   1.09936
 Alpha virt. eigenvalues --    1.10326   1.10716   1.11327   1.11545   1.11892
 Alpha virt. eigenvalues --    1.12239   1.12617   1.13360   1.13787   1.14164
 Alpha virt. eigenvalues --    1.14604   1.14979   1.15187   1.15392   1.15918
 Alpha virt. eigenvalues --    1.16258   1.16614   1.16901   1.17409   1.17612
 Alpha virt. eigenvalues --    1.17924   1.18588   1.18743   1.18889   1.19611
 Alpha virt. eigenvalues --    1.20101   1.20604   1.20890   1.21223   1.21453
 Alpha virt. eigenvalues --    1.21857   1.22073   1.22923   1.23472   1.23822
 Alpha virt. eigenvalues --    1.24344   1.24531   1.24668   1.25378   1.25953
 Alpha virt. eigenvalues --    1.26200   1.26491   1.27540   1.27693   1.27772
 Alpha virt. eigenvalues --    1.28280   1.28586   1.28953   1.29381   1.29727
 Alpha virt. eigenvalues --    1.29785   1.30401   1.30790   1.31076   1.31602
 Alpha virt. eigenvalues --    1.32096   1.32440   1.32856   1.33021   1.33350
 Alpha virt. eigenvalues --    1.33803   1.33950   1.34584   1.34733   1.35035
 Alpha virt. eigenvalues --    1.35913   1.36197   1.36810   1.37300   1.37452
 Alpha virt. eigenvalues --    1.37759   1.37941   1.38652   1.38919   1.39039
 Alpha virt. eigenvalues --    1.39275   1.39700   1.40004   1.40409   1.40606
 Alpha virt. eigenvalues --    1.40819   1.41307   1.41583   1.42142   1.42464
 Alpha virt. eigenvalues --    1.42739   1.42943   1.43293   1.43562   1.43749
 Alpha virt. eigenvalues --    1.44058   1.44356   1.44505   1.44864   1.44912
 Alpha virt. eigenvalues --    1.45144   1.45556   1.46042   1.46125   1.46226
 Alpha virt. eigenvalues --    1.46484   1.46881   1.47248   1.47304   1.47653
 Alpha virt. eigenvalues --    1.47950   1.48103   1.48257   1.48741   1.49125
 Alpha virt. eigenvalues --    1.49402   1.49879   1.49984   1.50310   1.50564
 Alpha virt. eigenvalues --    1.50744   1.50926   1.51415   1.51693   1.52005
 Alpha virt. eigenvalues --    1.52567   1.52737   1.53047   1.53233   1.53695
 Alpha virt. eigenvalues --    1.53773   1.53966   1.54058   1.54468   1.54555
 Alpha virt. eigenvalues --    1.55015   1.55173   1.55502   1.55778   1.56091
 Alpha virt. eigenvalues --    1.56508   1.56747   1.56898   1.57198   1.57603
 Alpha virt. eigenvalues --    1.57897   1.58147   1.58459   1.58745   1.58800
 Alpha virt. eigenvalues --    1.59341   1.59834   1.59940   1.60312   1.60797
 Alpha virt. eigenvalues --    1.60979   1.61328   1.61391   1.62182   1.62332
 Alpha virt. eigenvalues --    1.62814   1.63285   1.63332   1.63849   1.64067
 Alpha virt. eigenvalues --    1.64489   1.64853   1.64994   1.65361   1.65942
 Alpha virt. eigenvalues --    1.66226   1.66363   1.66703   1.67224   1.67711
 Alpha virt. eigenvalues --    1.67828   1.68051   1.68399   1.68563   1.68846
 Alpha virt. eigenvalues --    1.69590   1.70212   1.71012   1.71244   1.71601
 Alpha virt. eigenvalues --    1.72006   1.72392   1.73035   1.73654   1.73952
 Alpha virt. eigenvalues --    1.74031   1.74510   1.74690   1.75451   1.75745
 Alpha virt. eigenvalues --    1.76120   1.76516   1.77052   1.77214   1.77675
 Alpha virt. eigenvalues --    1.78009   1.78229   1.78576   1.79220   1.79938
 Alpha virt. eigenvalues --    1.80244   1.80720   1.80796   1.81334   1.81610
 Alpha virt. eigenvalues --    1.82100   1.82422   1.82757   1.82809   1.83253
 Alpha virt. eigenvalues --    1.83729   1.84094   1.84308   1.84436   1.84638
 Alpha virt. eigenvalues --    1.85323   1.85724   1.86065   1.86665   1.86720
 Alpha virt. eigenvalues --    1.87248   1.87345   1.88192   1.88374   1.88751
 Alpha virt. eigenvalues --    1.89079   1.89134   1.89635   1.89860   1.90059
 Alpha virt. eigenvalues --    1.90892   1.91083   1.91222   1.91460   1.92195
 Alpha virt. eigenvalues --    1.92547   1.93086   1.93437   1.93650   1.94084
 Alpha virt. eigenvalues --    1.94315   1.94423   1.95323   1.95721   1.95955
 Alpha virt. eigenvalues --    1.96514   1.96928   1.97316   1.97599   1.97802
 Alpha virt. eigenvalues --    1.98281   1.98587   1.98801   1.99409   2.00033
 Alpha virt. eigenvalues --    2.00300   2.00470   2.00660   2.01030   2.01582
 Alpha virt. eigenvalues --    2.01899   2.02246   2.02347   2.03102   2.03249
 Alpha virt. eigenvalues --    2.03614   2.04159   2.04392   2.05150   2.05308
 Alpha virt. eigenvalues --    2.05964   2.06438   2.07013   2.07272   2.07795
 Alpha virt. eigenvalues --    2.08221   2.08402   2.08710   2.08763   2.09238
 Alpha virt. eigenvalues --    2.09515   2.10314   2.10392   2.10727   2.11224
 Alpha virt. eigenvalues --    2.11691   2.12005   2.12068   2.12723   2.12960
 Alpha virt. eigenvalues --    2.13668   2.14429   2.14857   2.14960   2.15632
 Alpha virt. eigenvalues --    2.15980   2.16513   2.16714   2.16937   2.17371
 Alpha virt. eigenvalues --    2.17878   2.18065   2.18728   2.18910   2.19319
 Alpha virt. eigenvalues --    2.19920   2.20132   2.20282   2.20639   2.21034
 Alpha virt. eigenvalues --    2.21554   2.21865   2.22590   2.23023   2.23342
 Alpha virt. eigenvalues --    2.23774   2.24043   2.24504   2.24560   2.25121
 Alpha virt. eigenvalues --    2.25664   2.26120   2.26283   2.26978   2.27109
 Alpha virt. eigenvalues --    2.27631   2.28168   2.28358   2.28682   2.29026
 Alpha virt. eigenvalues --    2.29639   2.30042   2.30395   2.30895   2.31187
 Alpha virt. eigenvalues --    2.31407   2.31770   2.32249   2.32448   2.32676
 Alpha virt. eigenvalues --    2.33223   2.33586   2.33970   2.34343   2.34691
 Alpha virt. eigenvalues --    2.35117   2.35220   2.35822   2.36207   2.36821
 Alpha virt. eigenvalues --    2.37201   2.37526   2.38014   2.38680   2.39035
 Alpha virt. eigenvalues --    2.39409   2.40023   2.40821   2.41344   2.41538
 Alpha virt. eigenvalues --    2.41647   2.42225   2.42552   2.43113   2.43328
 Alpha virt. eigenvalues --    2.43728   2.43887   2.44043   2.44569   2.45068
 Alpha virt. eigenvalues --    2.45249   2.45501   2.45865   2.46184   2.46575
 Alpha virt. eigenvalues --    2.47052   2.47390   2.48035   2.48279   2.48452
 Alpha virt. eigenvalues --    2.48992   2.49423   2.49680   2.49993   2.50447
 Alpha virt. eigenvalues --    2.50907   2.51058   2.51522   2.51755   2.51886
 Alpha virt. eigenvalues --    2.52202   2.52652   2.52812   2.52909   2.53660
 Alpha virt. eigenvalues --    2.54044   2.54146   2.54446   2.55035   2.55110
 Alpha virt. eigenvalues --    2.55176   2.55441   2.56201   2.56611   2.56900
 Alpha virt. eigenvalues --    2.56956   2.57128   2.57761   2.57916   2.58338
 Alpha virt. eigenvalues --    2.58370   2.59477   2.59646   2.59955   2.60134
 Alpha virt. eigenvalues --    2.60434   2.60704   2.61054   2.61281   2.61298
 Alpha virt. eigenvalues --    2.61834   2.62406   2.62647   2.62925   2.63281
 Alpha virt. eigenvalues --    2.63478   2.63607   2.63951   2.64323   2.64567
 Alpha virt. eigenvalues --    2.64746   2.65619   2.66046   2.66320   2.66375
 Alpha virt. eigenvalues --    2.67166   2.67386   2.67772   2.68160   2.68491
 Alpha virt. eigenvalues --    2.68622   2.69029   2.69282   2.69895   2.70555
 Alpha virt. eigenvalues --    2.70637   2.70707   2.71151   2.71657   2.72560
 Alpha virt. eigenvalues --    2.72683   2.73107   2.73266   2.73514   2.73709
 Alpha virt. eigenvalues --    2.74466   2.74989   2.75217   2.75396   2.75913
 Alpha virt. eigenvalues --    2.76192   2.76348   2.76809   2.77149   2.77539
 Alpha virt. eigenvalues --    2.77998   2.78319   2.78408   2.78947   2.79182
 Alpha virt. eigenvalues --    2.79465   2.79842   2.80057   2.80613   2.80921
 Alpha virt. eigenvalues --    2.81697   2.82064   2.82342   2.82787   2.83396
 Alpha virt. eigenvalues --    2.83576   2.83608   2.84080   2.84326   2.84782
 Alpha virt. eigenvalues --    2.85098   2.85266   2.85590   2.85900   2.86107
 Alpha virt. eigenvalues --    2.86748   2.86830   2.87316   2.87434   2.88008
 Alpha virt. eigenvalues --    2.88136   2.88226   2.88369   2.88614   2.89438
 Alpha virt. eigenvalues --    2.89807   2.89878   2.90485   2.90825   2.91065
 Alpha virt. eigenvalues --    2.91378   2.91538   2.91669   2.92059   2.92464
 Alpha virt. eigenvalues --    2.92688   2.92867   2.93223   2.93925   2.94181
 Alpha virt. eigenvalues --    2.94297   2.94946   2.95050   2.95841   2.96122
 Alpha virt. eigenvalues --    2.96442   2.96669   2.96835   2.96933   2.97464
 Alpha virt. eigenvalues --    2.97971   2.98241   2.98755   2.99139   2.99305
 Alpha virt. eigenvalues --    2.99710   3.00028   3.00251   3.00364   3.00665
 Alpha virt. eigenvalues --    3.00792   3.01225   3.01657   3.01798   3.02124
 Alpha virt. eigenvalues --    3.02320   3.02696   3.03066   3.03474   3.03813
 Alpha virt. eigenvalues --    3.03970   3.04513   3.04879   3.04938   3.05343
 Alpha virt. eigenvalues --    3.05614   3.05971   3.06378   3.06583   3.06846
 Alpha virt. eigenvalues --    3.07198   3.07422   3.07681   3.07906   3.08270
 Alpha virt. eigenvalues --    3.08389   3.08694   3.08829   3.09370   3.09490
 Alpha virt. eigenvalues --    3.10067   3.10173   3.10372   3.11000   3.11242
 Alpha virt. eigenvalues --    3.11467   3.11770   3.12114   3.12502   3.12619
 Alpha virt. eigenvalues --    3.13002   3.13063   3.13671   3.13829   3.14038
 Alpha virt. eigenvalues --    3.14535   3.14791   3.15339   3.15605   3.15874
 Alpha virt. eigenvalues --    3.16108   3.16516   3.16691   3.17131   3.17229
 Alpha virt. eigenvalues --    3.17482   3.17777   3.18004   3.18216   3.18430
 Alpha virt. eigenvalues --    3.18639   3.19043   3.19181   3.19301   3.19536
 Alpha virt. eigenvalues --    3.19993   3.20312   3.20748   3.21068   3.21227
 Alpha virt. eigenvalues --    3.21476   3.21838   3.22394   3.22600   3.22950
 Alpha virt. eigenvalues --    3.23251   3.23416   3.23790   3.23876   3.24185
 Alpha virt. eigenvalues --    3.24432   3.24860   3.24899   3.25286   3.25333
 Alpha virt. eigenvalues --    3.25380   3.25936   3.26179   3.26283   3.26625
 Alpha virt. eigenvalues --    3.26984   3.27295   3.27573   3.27772   3.28214
 Alpha virt. eigenvalues --    3.28267   3.28337   3.28626   3.28935   3.29014
 Alpha virt. eigenvalues --    3.29295   3.29464   3.30039   3.30281   3.30475
 Alpha virt. eigenvalues --    3.30597   3.30807   3.31268   3.31385   3.31755
 Alpha virt. eigenvalues --    3.32045   3.32504   3.32710   3.33000   3.33345
 Alpha virt. eigenvalues --    3.33705   3.33885   3.34187   3.34635   3.34776
 Alpha virt. eigenvalues --    3.35678   3.35974   3.36205   3.36374   3.36936
 Alpha virt. eigenvalues --    3.37178   3.37431   3.37726   3.37769   3.38442
 Alpha virt. eigenvalues --    3.38618   3.38927   3.39057   3.39598   3.40286
 Alpha virt. eigenvalues --    3.40683   3.41133   3.41398   3.41783   3.42128
 Alpha virt. eigenvalues --    3.42470   3.42901   3.43182   3.43422   3.43857
 Alpha virt. eigenvalues --    3.44255   3.44483   3.45171   3.45711   3.45841
 Alpha virt. eigenvalues --    3.46067   3.46317   3.46924   3.47331   3.47554
 Alpha virt. eigenvalues --    3.47862   3.47973   3.48535   3.48816   3.49452
 Alpha virt. eigenvalues --    3.49907   3.50333   3.50477   3.50728   3.51324
 Alpha virt. eigenvalues --    3.51406   3.52115   3.52720   3.53192   3.53659
 Alpha virt. eigenvalues --    3.54102   3.54405   3.55231   3.55311   3.55536
 Alpha virt. eigenvalues --    3.55872   3.56141   3.56488   3.56991   3.57456
 Alpha virt. eigenvalues --    3.57852   3.58193   3.58317   3.58986   3.59316
 Alpha virt. eigenvalues --    3.59469   3.59962   3.60399   3.60727   3.61024
 Alpha virt. eigenvalues --    3.61455   3.61651   3.62045   3.62317   3.62814
 Alpha virt. eigenvalues --    3.63190   3.63218   3.63542   3.63990   3.64380
 Alpha virt. eigenvalues --    3.64637   3.64898   3.65316   3.65618   3.65833
 Alpha virt. eigenvalues --    3.66016   3.66511   3.66869   3.67447   3.67724
 Alpha virt. eigenvalues --    3.67873   3.68169   3.68730   3.69410   3.69666
 Alpha virt. eigenvalues --    3.69847   3.70732   3.71125   3.71352   3.71872
 Alpha virt. eigenvalues --    3.72249   3.72718   3.73044   3.73222   3.73716
 Alpha virt. eigenvalues --    3.74073   3.74683   3.75142   3.76061   3.76438
 Alpha virt. eigenvalues --    3.76794   3.77139   3.77405   3.78017   3.78641
 Alpha virt. eigenvalues --    3.79136   3.79347   3.79592   3.80038   3.80533
 Alpha virt. eigenvalues --    3.81448   3.81966   3.82857   3.82952   3.83516
 Alpha virt. eigenvalues --    3.84138   3.84639   3.85143   3.85635   3.86255
 Alpha virt. eigenvalues --    3.86640   3.87546   3.87906   3.88418   3.88629
 Alpha virt. eigenvalues --    3.89205   3.89502   3.89570   3.90068   3.90204
 Alpha virt. eigenvalues --    3.90818   3.91061   3.92344   3.92488   3.92808
 Alpha virt. eigenvalues --    3.94020   3.94217   3.94661   3.94728   3.95552
 Alpha virt. eigenvalues --    3.95887   3.96346   3.96526   3.96876   3.97482
 Alpha virt. eigenvalues --    3.98071   3.99333   4.00029   4.00648   4.00951
 Alpha virt. eigenvalues --    4.01164   4.01517   4.02044   4.03000   4.03157
 Alpha virt. eigenvalues --    4.03675   4.04172   4.04434   4.05282   4.05575
 Alpha virt. eigenvalues --    4.06382   4.06539   4.07108   4.08126   4.08744
 Alpha virt. eigenvalues --    4.09094   4.09410   4.10670   4.11101   4.11514
 Alpha virt. eigenvalues --    4.11928   4.12352   4.13223   4.13518   4.13958
 Alpha virt. eigenvalues --    4.14082   4.14732   4.15055   4.15220   4.16107
 Alpha virt. eigenvalues --    4.16464   4.16656   4.17564   4.17733   4.18666
 Alpha virt. eigenvalues --    4.18901   4.20232   4.20521   4.21404   4.21835
 Alpha virt. eigenvalues --    4.22934   4.23219   4.24192   4.24612   4.25138
 Alpha virt. eigenvalues --    4.25355   4.25967   4.26403   4.26640   4.26999
 Alpha virt. eigenvalues --    4.28379   4.28631   4.28936   4.29507   4.29943
 Alpha virt. eigenvalues --    4.31039   4.31451   4.31838   4.32296   4.32848
 Alpha virt. eigenvalues --    4.33624   4.34792   4.34888   4.35693   4.36011
 Alpha virt. eigenvalues --    4.36349   4.36651   4.37163   4.38138   4.38549
 Alpha virt. eigenvalues --    4.39019   4.39699   4.40077   4.40479   4.40940
 Alpha virt. eigenvalues --    4.42550   4.42902   4.44246   4.45211   4.45542
 Alpha virt. eigenvalues --    4.45769   4.46479   4.46869   4.47368   4.47923
 Alpha virt. eigenvalues --    4.48594   4.49369   4.51114   4.52248   4.53400
 Alpha virt. eigenvalues --    4.53918   4.55151   4.55367   4.55880   4.56635
 Alpha virt. eigenvalues --    4.57239   4.58165   4.58594   4.59460   4.60072
 Alpha virt. eigenvalues --    4.60656   4.61390   4.62011   4.62967   4.63159
 Alpha virt. eigenvalues --    4.63691   4.64413   4.65215   4.67138   4.67496
 Alpha virt. eigenvalues --    4.67847   4.68239   4.68487   4.69483   4.70357
 Alpha virt. eigenvalues --    4.71000   4.71740   4.71933   4.72692   4.73677
 Alpha virt. eigenvalues --    4.74389   4.74747   4.76465   4.76874   4.77786
 Alpha virt. eigenvalues --    4.78884   4.79268   4.79880   4.80338   4.80797
 Alpha virt. eigenvalues --    4.81344   4.81788   4.82493   4.82839   4.84337
 Alpha virt. eigenvalues --    4.85019   4.85751   4.86524   4.86844   4.87574
 Alpha virt. eigenvalues --    4.88375   4.90412   4.91018   4.91340   4.92004
 Alpha virt. eigenvalues --    4.92215   4.93343   4.94227   4.95152   4.96585
 Alpha virt. eigenvalues --    4.96986   4.97573   4.98534   4.99086   4.99919
 Alpha virt. eigenvalues --    4.99955   5.00526   5.00867   5.01776   5.02348
 Alpha virt. eigenvalues --    5.03088   5.03963   5.05901   5.06229   5.08604
 Alpha virt. eigenvalues --    5.09929   5.10405   5.10510   5.10676   5.11191
 Alpha virt. eigenvalues --    5.11381   5.11777   5.13909   5.14236   5.14541
 Alpha virt. eigenvalues --    5.15897   5.16445   5.16670   5.17196   5.18017
 Alpha virt. eigenvalues --    5.18768   5.18951   5.19180   5.20701   5.21291
 Alpha virt. eigenvalues --    5.21574   5.23043   5.27210   5.27668   5.28306
 Alpha virt. eigenvalues --    5.28785   5.29224   5.30617   5.31355   5.32236
 Alpha virt. eigenvalues --    5.32560   5.32969   5.33976   5.34619   5.35475
 Alpha virt. eigenvalues --    5.36144   5.37499   5.39166   5.39523   5.40390
 Alpha virt. eigenvalues --    5.41979   5.42542   5.44426   5.44860   5.46287
 Alpha virt. eigenvalues --    5.47413   5.47761   5.49414   5.50441   5.51309
 Alpha virt. eigenvalues --    5.51800   5.53452   5.54040   5.54270   5.55295
 Alpha virt. eigenvalues --    5.56512   5.58459   5.58992   5.59800   5.60174
 Alpha virt. eigenvalues --    5.61582   5.62603   5.63544   5.64710   5.65757
 Alpha virt. eigenvalues --    5.67287   5.69258   5.69977   5.71969   5.73935
 Alpha virt. eigenvalues --    5.76038   5.76811   5.78717   5.78801   5.79167
 Alpha virt. eigenvalues --    5.85514   5.87549   5.88918   5.91322   5.92750
 Alpha virt. eigenvalues --    5.94740   5.94946   5.97947   6.02231   6.03000
 Alpha virt. eigenvalues --    6.03824   6.04689   6.06186   6.06667   6.07903
 Alpha virt. eigenvalues --    6.15108   6.15832   6.16286   6.17805   6.20515
 Alpha virt. eigenvalues --    6.27158   6.28366   6.29054   6.31319   6.31474
 Alpha virt. eigenvalues --    6.33376   6.36130   6.37113   6.38698   6.38996
 Alpha virt. eigenvalues --    6.40646   6.41639   6.41988   6.45356   6.47226
 Alpha virt. eigenvalues --    6.48344   6.59046   6.59993   6.61536   6.71330
 Alpha virt. eigenvalues --    6.75885   6.78695   6.80395   6.91179   6.92501
 Alpha virt. eigenvalues --    6.97441   6.98947   7.01886   7.02228   7.08469
 Alpha virt. eigenvalues --    7.10308   7.14558   7.15922   7.22769   7.27442
 Alpha virt. eigenvalues --   22.26023  22.26821  22.37703  22.42833  22.45602
 Alpha virt. eigenvalues --   22.46227  22.47950  22.56453  22.58729  22.64425
 Alpha virt. eigenvalues --   22.67899  22.68755  22.71358  22.79136  22.86888
 Alpha virt. eigenvalues --   22.87439  22.87924  22.92039  22.97904  22.98997
 Alpha virt. eigenvalues --   23.01763  23.08103  23.10254  23.24464  23.29719
 Alpha virt. eigenvalues --   23.31354  23.34032  23.40220  23.42305  23.45353
 Alpha virt. eigenvalues --   23.48001  23.50894  23.61018  23.69662  23.72167
 Alpha virt. eigenvalues --   23.85057  23.86399  23.98581  32.40196  32.61455
 Alpha virt. eigenvalues --   32.87194  32.91076  32.93108  33.04020  43.87465
 Alpha virt. eigenvalues --   43.91870  43.92563  43.95104  44.00999
  Beta  occ. eigenvalues -- -256.53949 -30.28173 -26.11581 -26.11375 -26.10582
  Beta  occ. eigenvalues --  -19.32767 -19.32153 -19.31530 -19.23605 -19.23296
  Beta  occ. eigenvalues --  -14.56241 -14.50648 -14.49868 -14.49623 -14.48965
  Beta  occ. eigenvalues --  -14.48339 -10.41057 -10.40658 -10.39339 -10.36978
  Beta  occ. eigenvalues --  -10.35962 -10.35940 -10.35789 -10.35591 -10.35123
  Beta  occ. eigenvalues --  -10.35107 -10.35045 -10.34777 -10.34367 -10.34188
  Beta  occ. eigenvalues --  -10.33283 -10.33174 -10.33123 -10.33090 -10.33041
  Beta  occ. eigenvalues --  -10.32836 -10.32663 -10.32653 -10.32546 -10.32429
  Beta  occ. eigenvalues --  -10.32397 -10.32382 -10.32106 -10.31775 -10.31467
  Beta  occ. eigenvalues --  -10.31239 -10.31214 -10.31083 -10.30937 -10.30695
  Beta  occ. eigenvalues --  -10.30585 -10.30452 -10.30415 -10.29965  -3.58551
  Beta  occ. eigenvalues --   -2.34609  -2.34178  -2.30853  -1.23987  -1.23987
  Beta  occ. eigenvalues --   -1.20423  -1.16731  -1.12551  -1.11700  -1.11219
  Beta  occ. eigenvalues --   -1.10608  -1.09899  -1.08686  -1.04814  -0.95727
  Beta  occ. eigenvalues --   -0.95136  -0.93535  -0.93274  -0.93089  -0.92802
  Beta  occ. eigenvalues --   -0.92286  -0.91901  -0.89427  -0.88237  -0.87696
  Beta  occ. eigenvalues --   -0.86410  -0.86294  -0.84422  -0.83270  -0.82817
  Beta  occ. eigenvalues --   -0.82446  -0.81988  -0.80724  -0.78314  -0.77939
  Beta  occ. eigenvalues --   -0.77813  -0.77090  -0.76803  -0.74576  -0.74055
  Beta  occ. eigenvalues --   -0.73597  -0.72418  -0.71527  -0.70179  -0.69838
  Beta  occ. eigenvalues --   -0.69124  -0.68431  -0.67491  -0.66470  -0.65533
  Beta  occ. eigenvalues --   -0.64288  -0.63854  -0.63167  -0.63047  -0.61042
  Beta  occ. eigenvalues --   -0.60829  -0.60307  -0.59867  -0.59510  -0.59297
  Beta  occ. eigenvalues --   -0.58751  -0.58034  -0.57395  -0.57249  -0.56995
  Beta  occ. eigenvalues --   -0.56801  -0.56153  -0.55853  -0.55750  -0.55466
  Beta  occ. eigenvalues --   -0.55083  -0.54583  -0.54162  -0.54039  -0.53609
  Beta  occ. eigenvalues --   -0.53553  -0.53394  -0.53261  -0.53161  -0.52725
  Beta  occ. eigenvalues --   -0.52569  -0.52468  -0.52301  -0.51902  -0.51605
  Beta  occ. eigenvalues --   -0.51520  -0.51495  -0.51063  -0.50585  -0.50504
  Beta  occ. eigenvalues --   -0.50225  -0.50017  -0.49893  -0.49068  -0.48914
  Beta  occ. eigenvalues --   -0.48664  -0.48433  -0.47932  -0.47731  -0.47411
  Beta  occ. eigenvalues --   -0.47108  -0.46637  -0.46545  -0.46349  -0.45970
  Beta  occ. eigenvalues --   -0.45512  -0.45295  -0.44851  -0.44517  -0.44008
  Beta  occ. eigenvalues --   -0.43657  -0.43142  -0.42914  -0.42320  -0.41598
  Beta  occ. eigenvalues --   -0.39762  -0.39557  -0.39476  -0.38864  -0.38786
  Beta  occ. eigenvalues --   -0.37648  -0.36691  -0.35486  -0.34930  -0.34688
  Beta  occ. eigenvalues --   -0.33920  -0.33281  -0.33196  -0.31171  -0.30093
  Beta virt. eigenvalues --   -0.20984  -0.20069  -0.18358  -0.17356  -0.16464
  Beta virt. eigenvalues --   -0.15005  -0.14308  -0.13242  -0.12338  -0.10665
  Beta virt. eigenvalues --   -0.09023  -0.07448  -0.07162  -0.06406  -0.05845
  Beta virt. eigenvalues --   -0.05226  -0.04936  -0.04747  -0.04123  -0.03469
  Beta virt. eigenvalues --   -0.03082  -0.02994  -0.02791  -0.02352  -0.02055
  Beta virt. eigenvalues --   -0.01730  -0.01234  -0.01149  -0.00818  -0.00572
  Beta virt. eigenvalues --   -0.00413  -0.00144  -0.00009   0.00269   0.01040
  Beta virt. eigenvalues --    0.01371   0.01616   0.01858   0.02158   0.02469
  Beta virt. eigenvalues --    0.02693   0.02940   0.03362   0.03503   0.03803
  Beta virt. eigenvalues --    0.03937   0.04234   0.04432   0.04699   0.04703
  Beta virt. eigenvalues --    0.04875   0.05110   0.05232   0.05335   0.05954
  Beta virt. eigenvalues --    0.06038   0.06240   0.06658   0.06700   0.06914
  Beta virt. eigenvalues --    0.07250   0.07349   0.07770   0.08004   0.08074
  Beta virt. eigenvalues --    0.08268   0.09035   0.09093   0.09497   0.09651
  Beta virt. eigenvalues --    0.09689   0.09945   0.10088   0.10191   0.10467
  Beta virt. eigenvalues --    0.10755   0.11298   0.11310   0.11834   0.12084
  Beta virt. eigenvalues --    0.12238   0.12483   0.12625   0.12974   0.13064
  Beta virt. eigenvalues --    0.13201   0.13442   0.13729   0.13769   0.14084
  Beta virt. eigenvalues --    0.14123   0.14435   0.14681   0.14960   0.15153
  Beta virt. eigenvalues --    0.15512   0.15711   0.15774   0.15856   0.15997
  Beta virt. eigenvalues --    0.16421   0.16559   0.16664   0.16952   0.17392
  Beta virt. eigenvalues --    0.17560   0.17755   0.17934   0.18051   0.18337
  Beta virt. eigenvalues --    0.18547   0.18658   0.19030   0.19149   0.19265
  Beta virt. eigenvalues --    0.19474   0.19650   0.19897   0.20017   0.20374
  Beta virt. eigenvalues --    0.20522   0.20973   0.21061   0.21286   0.21390
  Beta virt. eigenvalues --    0.21611   0.21972   0.22133   0.22352   0.22470
  Beta virt. eigenvalues --    0.22957   0.23139   0.23410   0.23529   0.23647
  Beta virt. eigenvalues --    0.23920   0.24096   0.24304   0.24513   0.24906
  Beta virt. eigenvalues --    0.25272   0.25440   0.25618   0.25923   0.26121
  Beta virt. eigenvalues --    0.26247   0.26585   0.27103   0.27369   0.27619
  Beta virt. eigenvalues --    0.27953   0.28390   0.28478   0.28743   0.28897
  Beta virt. eigenvalues --    0.29028   0.29324   0.29638   0.29838   0.29999
  Beta virt. eigenvalues --    0.30244   0.30475   0.30777   0.30898   0.31006
  Beta virt. eigenvalues --    0.31048   0.31286   0.31624   0.31995   0.32127
  Beta virt. eigenvalues --    0.32227   0.32452   0.32659   0.32903   0.33153
  Beta virt. eigenvalues --    0.33240   0.33464   0.33845   0.33998   0.34161
  Beta virt. eigenvalues --    0.34512   0.34669   0.34785   0.34954   0.35039
  Beta virt. eigenvalues --    0.35160   0.35639   0.35814   0.35986   0.36520
  Beta virt. eigenvalues --    0.36642   0.36703   0.36838   0.37072   0.37321
  Beta virt. eigenvalues --    0.37422   0.37716   0.37900   0.38148   0.38547
  Beta virt. eigenvalues --    0.38803   0.38941   0.38992   0.39132   0.39413
  Beta virt. eigenvalues --    0.39719   0.39802   0.39980   0.40012   0.40314
  Beta virt. eigenvalues --    0.40388   0.40561   0.40720   0.40909   0.41241
  Beta virt. eigenvalues --    0.41302   0.41458   0.41822   0.42080   0.42137
  Beta virt. eigenvalues --    0.42357   0.42466   0.42691   0.42780   0.42995
  Beta virt. eigenvalues --    0.43250   0.43440   0.43643   0.43670   0.44043
  Beta virt. eigenvalues --    0.44129   0.44327   0.44459   0.44798   0.44880
  Beta virt. eigenvalues --    0.44942   0.45267   0.45506   0.45566   0.45859
  Beta virt. eigenvalues --    0.45941   0.46222   0.46527   0.46849   0.47080
  Beta virt. eigenvalues --    0.47308   0.47365   0.47689   0.47980   0.48295
  Beta virt. eigenvalues --    0.48445   0.48583   0.48942   0.49195   0.49232
  Beta virt. eigenvalues --    0.49391   0.49542   0.49726   0.50174   0.50246
  Beta virt. eigenvalues --    0.50610   0.51123   0.51305   0.51541   0.52018
  Beta virt. eigenvalues --    0.52058   0.52313   0.52498   0.52858   0.52992
  Beta virt. eigenvalues --    0.53433   0.53764   0.53945   0.53995   0.54513
  Beta virt. eigenvalues --    0.54646   0.54949   0.55089   0.55210   0.55487
  Beta virt. eigenvalues --    0.55805   0.55876   0.56065   0.56327   0.56599
  Beta virt. eigenvalues --    0.56821   0.56988   0.57198   0.57501   0.57782
  Beta virt. eigenvalues --    0.57949   0.58282   0.58709   0.58771   0.59195
  Beta virt. eigenvalues --    0.59305   0.59715   0.59809   0.60027   0.60176
  Beta virt. eigenvalues --    0.60593   0.60936   0.61230   0.61378   0.61459
  Beta virt. eigenvalues --    0.61751   0.62043   0.62458   0.62806   0.63098
  Beta virt. eigenvalues --    0.63334   0.63483   0.63796   0.64430   0.64629
  Beta virt. eigenvalues --    0.65017   0.65276   0.65465   0.65896   0.66037
  Beta virt. eigenvalues --    0.66392   0.66793   0.66948   0.67155   0.67555
  Beta virt. eigenvalues --    0.67638   0.68121   0.68622   0.68792   0.68886
  Beta virt. eigenvalues --    0.69437   0.69622   0.69890   0.70028   0.70274
  Beta virt. eigenvalues --    0.70774   0.70841   0.71193   0.71501   0.71781
  Beta virt. eigenvalues --    0.72498   0.72931   0.73109   0.73491   0.74085
  Beta virt. eigenvalues --    0.74244   0.74755   0.74790   0.75040   0.75549
  Beta virt. eigenvalues --    0.75858   0.75900   0.76201   0.76629   0.76951
  Beta virt. eigenvalues --    0.77173   0.77470   0.77588   0.77977   0.78175
  Beta virt. eigenvalues --    0.78635   0.79325   0.79432   0.79585   0.80127
  Beta virt. eigenvalues --    0.80212   0.80643   0.80843   0.81255   0.81503
  Beta virt. eigenvalues --    0.81637   0.82180   0.82491   0.82999   0.83215
  Beta virt. eigenvalues --    0.83694   0.83947   0.84063   0.84598   0.84854
  Beta virt. eigenvalues --    0.85152   0.85254   0.85395   0.85967   0.86189
  Beta virt. eigenvalues --    0.86538   0.86838   0.87294   0.87428   0.87838
  Beta virt. eigenvalues --    0.88116   0.88510   0.88726   0.88969   0.89038
  Beta virt. eigenvalues --    0.89560   0.90151   0.90303   0.90476   0.90691
  Beta virt. eigenvalues --    0.91205   0.91445   0.92051   0.92126   0.92431
  Beta virt. eigenvalues --    0.93066   0.93266   0.93564   0.93945   0.94003
  Beta virt. eigenvalues --    0.94667   0.94843   0.94993   0.95413   0.95853
  Beta virt. eigenvalues --    0.95955   0.96201   0.96526   0.96721   0.96967
  Beta virt. eigenvalues --    0.97608   0.97640   0.98030   0.98280   0.98479
  Beta virt. eigenvalues --    0.98687   0.99102   0.99210   0.99350   1.00016
  Beta virt. eigenvalues --    1.00150   1.00616   1.00751   1.01260   1.01527
  Beta virt. eigenvalues --    1.01670   1.01774   1.02883   1.03292   1.03413
  Beta virt. eigenvalues --    1.03684   1.04190   1.04423   1.04817   1.05344
  Beta virt. eigenvalues --    1.05744   1.05835   1.06211   1.06375   1.06747
  Beta virt. eigenvalues --    1.07066   1.07345   1.07678   1.08047   1.08306
  Beta virt. eigenvalues --    1.08433   1.09158   1.09376   1.09458   1.10188
  Beta virt. eigenvalues --    1.10664   1.10919   1.11571   1.11832   1.12176
  Beta virt. eigenvalues --    1.12582   1.12915   1.13592   1.14194   1.14582
  Beta virt. eigenvalues --    1.14818   1.15216   1.15431   1.15645   1.16107
  Beta virt. eigenvalues --    1.16610   1.17062   1.17321   1.17637   1.17950
  Beta virt. eigenvalues --    1.18215   1.18786   1.18961   1.19338   1.19824
  Beta virt. eigenvalues --    1.20353   1.20876   1.21137   1.21353   1.21736
  Beta virt. eigenvalues --    1.22194   1.22698   1.23082   1.23683   1.24077
  Beta virt. eigenvalues --    1.24513   1.24729   1.24963   1.25550   1.26065
  Beta virt. eigenvalues --    1.26538   1.27432   1.27830   1.27917   1.28052
  Beta virt. eigenvalues --    1.28427   1.28706   1.29275   1.29627   1.29941
  Beta virt. eigenvalues --    1.30204   1.30928   1.30977   1.31279   1.32114
  Beta virt. eigenvalues --    1.32562   1.32712   1.33067   1.33213   1.33889
  Beta virt. eigenvalues --    1.34106   1.34277   1.34899   1.35155   1.35318
  Beta virt. eigenvalues --    1.36142   1.36404   1.36991   1.37487   1.37668
  Beta virt. eigenvalues --    1.38106   1.38392   1.38963   1.39036   1.39425
  Beta virt. eigenvalues --    1.39686   1.40112   1.40509   1.40667   1.40725
  Beta virt. eigenvalues --    1.41282   1.41760   1.42020   1.42410   1.42863
  Beta virt. eigenvalues --    1.42907   1.43317   1.43559   1.43921   1.44091
  Beta virt. eigenvalues --    1.44329   1.44608   1.44671   1.45068   1.45161
  Beta virt. eigenvalues --    1.45486   1.45848   1.46210   1.46427   1.46682
  Beta virt. eigenvalues --    1.46852   1.46993   1.47405   1.47679   1.47873
  Beta virt. eigenvalues --    1.48153   1.48299   1.48492   1.49166   1.49273
  Beta virt. eigenvalues --    1.49527   1.50138   1.50295   1.50437   1.50719
  Beta virt. eigenvalues --    1.50962   1.51080   1.51573   1.51980   1.52295
  Beta virt. eigenvalues --    1.52684   1.53094   1.53115   1.53548   1.53957
  Beta virt. eigenvalues --    1.53976   1.54149   1.54204   1.54599   1.54706
  Beta virt. eigenvalues --    1.55232   1.55382   1.55648   1.55941   1.56286
  Beta virt. eigenvalues --    1.56611   1.56932   1.57216   1.57589   1.57729
  Beta virt. eigenvalues --    1.58052   1.58325   1.58674   1.58918   1.59064
  Beta virt. eigenvalues --    1.59825   1.60107   1.60348   1.60497   1.61188
  Beta virt. eigenvalues --    1.61373   1.61687   1.62015   1.62395   1.62485
  Beta virt. eigenvalues --    1.63055   1.63437   1.63776   1.63950   1.64440
  Beta virt. eigenvalues --    1.64754   1.65021   1.65134   1.65543   1.66190
  Beta virt. eigenvalues --    1.66438   1.66467   1.66824   1.67415   1.67873
  Beta virt. eigenvalues --    1.67969   1.68435   1.68693   1.69055   1.69623
  Beta virt. eigenvalues --    1.70089   1.70446   1.71152   1.71455   1.71791
  Beta virt. eigenvalues --    1.72281   1.72515   1.73248   1.73740   1.74207
  Beta virt. eigenvalues --    1.74249   1.74691   1.74868   1.75612   1.75923
  Beta virt. eigenvalues --    1.76268   1.76823   1.77162   1.77344   1.77843
  Beta virt. eigenvalues --    1.78158   1.78474   1.78955   1.79489   1.80145
  Beta virt. eigenvalues --    1.80516   1.80827   1.81049   1.81639   1.81842
  Beta virt. eigenvalues --    1.82421   1.82557   1.82899   1.83211   1.83581
  Beta virt. eigenvalues --    1.84048   1.84320   1.84517   1.84654   1.84882
  Beta virt. eigenvalues --    1.85555   1.85890   1.86364   1.86890   1.87151
[...]
  1625. RY*(   1) H  76                  0.00098     0.64477   
  1626. RY*(   2) H  76                  0.00014     2.07071   
  1627. RY*(   3) H  76                  0.00012     2.16961   
  1628. RY*(   4) H  76                  0.00006     3.05325   
  1629. RY*(   5) H  76                  0.00000     3.14939   
  1630. RY*(   1) H  77                  0.00039     0.92144   
  1631. RY*(   2) H  77                  0.00008     1.64944   
  1632. RY*(   3) H  77                  0.00003     2.06144   
  1633. RY*(   4) H  77                  0.00003     2.02687   
  1634. RY*(   5) H  77                  0.00000     2.86426   
  1635. RY*(   1) H  78                  0.00039     0.95762   
  1636. RY*(   2) H  78                  0.00008     1.64365   
  1637. RY*(   3) H  78                  0.00003     2.07883   
  1638. RY*(   4) H  78                  0.00003     1.94145   
  1639. RY*(   5) H  78                  0.00000     2.85038   
  1640. RY*(   1) H  79                  0.00022     1.29273   
  1641. RY*(   2) H  79                  0.00008     1.87961   
  1642. RY*(   3) H  79                  0.00004     2.03520   
  1643. RY*(   4) H  79                  0.00001     2.05410   
  1644. RY*(   5) H  79                  0.00000     2.44417   
  1645. RY*(   1) H  80                  0.00068     0.62750   
  1646. RY*(   2) H  80                  0.00016     2.19989   
  1647. RY*(   3) H  80                  0.00012     2.18066   
  1648. RY*(   4) H  80                  0.00005     3.04951   
  1649. RY*(   5) H  80                  0.00000     3.18954   
  1650. RY*(   1) H  81                  0.00040     1.62775   
  1651. RY*(   2) H  81                  0.00008     2.64504   
  1652. RY*(   3) H  81                  0.00007     2.23219   
  1653. RY*(   4) H  81                  0.00003     1.51713   
  1654. RY*(   5) H  81                  0.00000     2.85590   
  1655. RY*(   1) H  82                  0.00061     0.52800   
  1656. RY*(   2) H  82                  0.00007     2.23776   
  1657. RY*(   3) H  82                  0.00007     2.61405   
  1658. RY*(   4) H  82                  0.00007     2.39457   
  1659. RY*(   5) H  82                  0.00000     2.97512   
  1660. RY*(   1) H  83                  0.00031     1.21645   
  1661. RY*(   2) H  83                  0.00007     2.16916   
  1662. RY*(   3) H  83                  0.00005     1.57671   
  1663. RY*(   4) H  83                  0.00003     2.40184   
  1664. RY*(   5) H  83                  0.00000     2.87746   
  1665. RY*(   1) H  84                  0.00034     1.28130   
  1666. RY*(   2) H  84                  0.00006     1.41750   
  1667. RY*(   3) H  84                  0.00006     2.49630   
  1668. RY*(   4) H  84                  0.00004     2.26328   
  1669. RY*(   5) H  84                  0.00001     2.95369   
  1670. RY*(   1) H  85                  0.00043     0.78132   
  1671. RY*(   2) H  85                  0.00040     1.90343   
  1672. RY*(   3) H  85                  0.00022     1.94443   
  1673. RY*(   4) H  85                  0.00012     2.12732   
  1674. RY*(   5) H  85                  0.00000     3.13568   
  1713. BD*(   1) C   9 - C  14          0.01147     0.44759   
  1714. BD*(   1) C   9 - C  44          0.01182     0.45202   
  1715. BD*(   1) C   9 - H  80          0.00563     0.34852   
  1716. BD*(   1) C  10 - C  17          0.01187     0.44934   
  1717. BD*(   2) C  10 - C  17          0.19801    -0.06631  1732(v),1750(v),1728(v)
                                                    414(g),175(r)
  1718. BD*(   1) C  10 - C  25          0.01188     0.44306   
  1719. BD*(   1) C  10 - H  60          0.00598     0.34644   
  1720. BD*(   1) C  11 - C  28          0.01132     0.44620   
  1721. BD*(   1) C  11 - C  33          0.01124     0.44056   
  1722. BD*(   1) C  11 - H  67          0.00586     0.35071   
  1723. BD*(   1) C  12 - C  36          0.01197     0.44566   
  1724. BD*(   1) C  12 - C  41          0.01193     0.49320   
  1725. BD*(   2) C  12 - C  41          0.18297    -0.05440  1786(v),1783(v),189(v)
                                                    466(g),174(r)
  1726. BD*(   1) C  12 - H  76          0.00732     0.35023   
  1727. BD*(   1) N  13 - C  14          0.01489     0.43726   
  1728. BD*(   2) N  13 - C  14          0.32211    -0.09207  1732(v),1717(v),1783(r)
                                                    519(g),493(g),175(r),171(r)
                                                    173(r),388(v),174(r),1709(r)
                                                    1803(r)
  1729. BD*(   1) N  13 - C  17          0.01476     0.43428   
  1730. BD*(   1) C  14 - C  15          0.01437     0.47042   
  1731. BD*(   1) C  15 - C  16          0.01157     0.45409   
  1732. BD*(   2) C  15 - C  16          0.13041    -0.04261  1717(v),1728(v),1739(v)
                                                    1736(v),1786(r),1737(v)
  1733. BD*(   1) C  15 - C  19          0.01179     0.29561   
  1734. BD*(   1) C  16 - C  17          0.01455     0.48070   
  1735. BD*(   1) C  16 - C  18          0.00790     0.28469   
  1736. BD*(   1) C  18 - H  57          0.00391     0.31929   
  1737. BD*(   1) C  18 - H  58          0.00330     0.31893   
  1738. BD*(   1) C  18 - H  59          0.00250     0.32693   
  1739. BD*(   1) C  19 - C  20          0.00774     0.29505   
  1740. BD*(   1) C  19 - H  55          0.00718     0.32960   
  1741. BD*(   1) C  19 - H  56          0.00780     0.32220   
  1742. BD*(   1) C  20 - C  21          0.03649     0.26563   
  1743. BD*(   1) C  20 - H  53          0.00523     0.33159   
  1744. BD*(   1) C  20 - H  54          0.00660     0.31655   
  1745. BD*(   1) C  21 - O  22          0.03453     0.46387   
  1746. BD*(   1) C  21 - O  23          0.02061     0.51840   
  1747. BD*(   2) C  21 - O  23          0.10018    -0.04181  1746(g),1748(v),1739(v)
                                                    1744(v),710(g)
  1748. BD*(   1) O  22 - H  52          0.00700     0.32042   
  1749. BD*(   1) N  24 - C  25          0.01529     0.43322   
  1750. BD*(   2) N  24 - C  25          0.33310    -0.10980  1717(v),1754(v),805(g)
                                                    175(r),779(g),1709(r),781(g)
                                                    172(r),1804(r),174(r),169(r)
                                                    166(r),361(r)
  1751. BD*(   1) N  24 - C  28          0.01458     0.42899   
  1752. BD*(   1) C  25 - C  26          0.01610     0.43781   
  1753. BD*(   1) C  26 - C  27          0.01822     0.44185   
  1754. BD*(   2) C  26 - C  27          0.16246    -0.05666  1750(v),1762(v),1763(v)
                                                    1758(v),1759(v)
  1755. BD*(   1) C  26 - C  29          0.00787     0.25852   
  1756. BD*(   1) C  27 - C  28          0.02149     0.44573   
  1757. BD*(   1) C  27 - C  30          0.01237     0.43444   
  1758. BD*(   1) C  29 - H  61          0.00426     0.31102   
  1759. BD*(   1) C  29 - H  62          0.00385     0.31074   
  1760. BD*(   1) C  29 - H  63          0.00413     0.32574   
  1761. BD*(   1) C  30 - C  31          0.00322     0.43397   
  1762. BD*(   2) C  30 - C  31          0.03954    -0.10046   
  1763. BD*(   1) C  30 - H  64          0.00948     0.32664   
  1764. BD*(   1) C  31 - H  65          0.00328     0.32997   
  1765. BD*(   1) C  31 - H  66          0.00670     0.35273   
  1766. BD*(   1) N  32 - C  33          0.01448     0.40755   
  1767. BD*(   2) N  32 - C  33          0.35027    -0.10873  187(v),178(v),189(v),1013(g)
                                                    987(g),174(r),1709(r),440(v)
                                                    171(r),175(r),989(g),173(r)
                                                    170(r),169(r)
  1768. BD*(   1) N  32 - C  36          0.01322     0.44763   
  1769. BD*(   1) C  33 - C  34          0.01453     0.43707   
  1770. BD*(   1) C  34 - C  35          0.01471     0.44898   
  1771. BD*(   1) C  34 - C  37          0.00705     0.26626   
  1772. BD*(   1) C  35 - C  36          0.01597     0.44573   
  1773. BD*(   1) C  35 - C  38          0.00955     0.44851   
  1774. BD*(   1) C  37 - H  68          0.00229     0.32604   
  1775. BD*(   1) C  37 - H  69          0.00304     0.31916   
  1776. BD*(   1) C  37 - H  70          0.00228     0.32190   
  1777. BD*(   1) C  38 - C  39          0.00271     0.42876   
  1778. BD*(   1) C  38 - H  75          0.00527     0.31754   
  1779. BD*(   1) C  39 - H  73          0.00073     0.34706   
  1780. BD*(   1) C  39 - H  74          0.00250     0.34179   
  1781. BD*(   1) N  40 - C  41          0.01488     0.45018   
  1782. BD*(   1) N  40 - C  44          0.01400     0.45183   
  1783. BD*(   2) N  40 - C  44          0.31313    -0.09030  1786(v),1725(v),1728(r)
                                                    1299(g),174(r),1195(g)
                                                    388(v),1297(g),1298(g)
                                                    1197(g),168(r),170(r),173(r)
                                                    175(r),169(r),171(r)
  1784. BD*(   1) C  41 - C  42          0.01587     0.47355   
  1785. BD*(   1) C  42 - C  43          0.01179     0.45975   
  1786. BD*(   2) C  42 - C  43          0.12971    -0.04254  1725(v),1783(v),1793(v)
                                                    1790(v),1791(v),1732(r)
  1787. BD*(   1) C  42 - C  45          0.00784     0.29722   
  1788. BD*(   1) C  43 - C  44          0.01514     0.46886   
  1789. BD*(   1) C  43 - C  46          0.01130     0.30253   
  1790. BD*(   1) C  45 - H  77          0.00412     0.31845   
  1791. BD*(   1) C  45 - H  78          0.00369     0.31712   
  1792. BD*(   1) C  45 - H  79          0.00254     0.32336   
  1793. BD*(   1) C  46 - C  47          0.00875     0.28320   
  1794. BD*(   1) C  46 - H  81          0.00664     0.32754   
  1795. BD*(   1) C  46 - H  82          0.00688     0.32461   
  1796. BD*(   1) C  47 - C  48          0.04048     0.28873   
  1797. BD*(   1) C  47 - H  83          0.00609     0.31494   
  1798. BD*(   1) C  47 - H  84          0.00528     0.33232   
  1799. BD*(   1) C  48 - O  49          0.01979     0.56146   
  1800. BD*(   2) C  48 - O  49          0.08505    -0.04409   
  1801. BD*(   1) C  48 - O  50          0.03616     0.47511   
  1802. BD*(   1) O  50 - H  85          0.00701     0.31149   
       -------------------------------
              Total Lewis  143.01302  ( 97.2202%)
        Valence non-Lewis    3.78920  (  2.5759%)
        Rydberg non-Lewis    0.29999  (  0.2039%)
       -------------------------------
            Total unit  4  147.10221  (100.0000%)
           Charge unit  4    0.89779

 Molecular unit  5  (H2O)
   106. BD (   1) O  51 - H  71          0.99719    -0.88906  174(r),175(r),169(r),362(r)
                                                    170(r),495(r),363(r),332(r)
                                                    171(r),499(r),365(r),493(r)
                                                    366(r),330(r),364(r),361(r)
                                                    329(r),1194(r),1193(r)
   107. BD (   1) O  51 - H  72          0.97606    -0.91027  175(r),174(r),170(r),169(r)
                                                    172(r),1602(v),361(r),331(r)
                                                    173(r),362(r),360(r),171(r)
                                                    364(r),366(r),168(r),780(r)
                                                    778(r),1195(r),494(r),332(r)
                                                    1751(r),492(r)
   165. CR (   1) O  51                  0.99993   -19.11281  174(r),175(r),169(r),170(r)
                                                    1602(v),173(r),364(r),171(r)
   197. LP (   1) O  51                  0.98622    -0.58496  171(r),174(r),175(r),169(r)
                                                    170(r),1600(v),1605(v)
                                                    172(r),332(r),362(r),987(r)
                                                    1728(r),780(r),492(r)
                                                    1750(r),1194(r),779(r)
                                                    168(r)
   198. LP (   2) O  51                  0.92050    -0.57054  174(r),175(r),170(r),169(r)
                                                    1804(g),1601(v),1607(v)
                                                    173(r),366(r),780(r),364(r)
                                                    988(r),9(r),332(r),492(r)
                                                    987(r),494(r),1194(r),361(r)
                                                    363(r),778(r),986(r),172(r)
                                                    779(r),782(r),992(r),493(r)
  1479. RY*(   1) O  51                  0.00043     1.21502   
  1480. RY*(   2) O  51                  0.00028     0.80784   
  1481. RY*(   3) O  51                  0.00023     0.78022   
  1482. RY*(   4) O  51                  0.00009     0.90759   
  1483. RY*(   5) O  51                  0.00001     3.01991   
  1484. RY*(   6) O  51                  0.00001     2.27233   
  1485. RY*(   7) O  51                  0.00000     2.94914   
  1486. RY*(   8) O  51                  0.00001     5.52960   
  1487. RY*(   9) O  51                  0.00001     3.21451   
  1488. RY*(  10) O  51                  0.00001     2.21014   
  1489. RY*(  11) O  51                  0.00000     6.33275   
  1490. RY*(  12) O  51                  0.00000    41.72382   
  1491. RY*(  13) O  51                  0.00000     6.44453   
  1492. RY*(  14) O  51                  0.00001     2.13324   
  1493. RY*(  15) O  51                  0.00000     6.40841   
  1494. RY*(  16) O  51                  0.00001     1.87168   
  1495. RY*(  17) O  51                  0.00000     6.15859   
  1496. RY*(  18) O  51                  0.00001     2.52884   
  1497. RY*(  19) O  51                  0.00000     6.48156   
  1498. RY*(  20) O  51                  0.00000     5.47723   
  1499. RY*(  21) O  51                  0.00000     5.35789   
  1500. RY*(  22) O  51                  0.00000     5.42407   
  1501. RY*(  23) O  51                  0.00000     5.12917   
  1502. RY*(  24) O  51                  0.00000     5.41753   
  1503. RY*(  25) O  51                  0.00000     5.20790   
  1504. RY*(  26) O  51                  0.00000     5.33251   
  1600. RY*(   1) H  71                  0.00056     1.32664   
  1601. RY*(   2) H  71                  0.00037     1.92173   
  1602. RY*(   3) H  71                  0.00022     1.74932   
  1603. RY*(   4) H  71                  0.00013     1.49894   
  1604. RY*(   5) H  71                  0.00000     2.81967   
  1605. RY*(   1) H  72                  0.00054     1.98422   
  1606. RY*(   2) H  72                  0.00044     1.29318   
  1607. RY*(   3) H  72                  0.00034     2.53571   
  1608. RY*(   4) H  72                  0.00009     1.81310   
  1609. RY*(   5) H  72                  0.00004     2.77066   
  1803. BD*(   1) O  51 - H  71          0.00173     0.34408   
  1804. BD*(   1) O  51 - H  72          0.00855     0.33078   
       -------------------------------
              Total Lewis    4.87989  ( 99.7122%)
        Valence non-Lewis    0.01028  (  0.2101%)
        Rydberg non-Lewis    0.00381  (  0.0778%)
       -------------------------------
            Total unit  5    4.89398  (100.0000%)
           Charge unit  5    0.10602
 1\1\GINC-NODE695\SP\UPBE1PBE\def2TZVP\C38H40Fe1N6O5(1+,6)\ZHARTOVSKA\0
 9-Sep-2022\0\\# PBE1PBE/def2TZVP empiricaldispersion=GD3BJ scf=maxcycl
 e=999 geom=check pop=nbo\\1cck_III_H\\1,6\C,0,-8.983,54.799,107.567001
 \C,0,-8.54,55.606998,108.792\N,0,-9.235,56.48,109.509003\C,0,-7.314,55
 .534,109.401001\C,0,-8.503,56.910999,110.500999\N,0,-7.319,56.334999,1
 10.436996\H,0,-10.068,56.903999,109.240997\Fe,0,-5.819,56.952,111.6610
 03\C,0,-5.402,53.929001,112.991997\C,0,-7.54,57.979,114.383003\C,0,-5.
 948,60.127998,110.458\C,0,-3.64,56.141998,109.214996\N,0,-6.453,56.078
 999,113.372002\C,0,-6.162,54.831001,113.746002\C,0,-6.72,54.561001,114
 .978996\C,0,-7.402,55.723999,115.358002\C,0,-7.134,56.641998,114.375\C
 ,0,-8.3,55.936001,116.572998\C,0,-6.63,53.219002,115.699997\C,0,-5.402
 ,53.037998,116.555\C,0,-5.327,51.671001,117.238998\O,0,-6.233,51.285,1
 17.983002\O,0,-4.34,50.955002,117.054001\N,0,-6.811,58.708,112.205002\
 C,0,-7.412,58.931999,113.367996\C,0,-7.948,60.220001,113.431\C,0,-7.51
 6,60.838001,112.250999\C,0,-6.724,59.891998,111.598\C,0,-8.881,60.6839
 98,114.561996\C,0,-7.822,62.084999,111.697998\C,0,-8.33176962,62.92626
 41,112.69616128\N,0,-4.944,57.963001,110.096001\C,0,-5.105,59.257,109.
 750999\C,0,-4.341,59.617001,108.634003\C,0,-3.612,58.455002,108.348\C,
 0,-4.065,57.478001,109.233002\C,0,-4.249,61.014999,107.987\C,0,-2.607,
 58.181999,107.403\C,0,-2.176,58.978001,106.297997\N,0,-4.692,55.285,11
 1.160004\C,0,-3.961,55.115002,110.064003\C,0,-3.616,53.791,109.886002\
 C,0,-4.152,53.131001,110.990997\C,0,-4.763,54.104,111.761002\C,0,-2.94
 1,53.191002,108.672997\C,0,-4.125,51.634998,111.255997\C,0,-2.886,51.2
 03999,112.029999\C,0,-2.951,49.791,112.564003\O,0,-2.38,49.560001,113.
 612\O,0,-3.559,48.915001,111.950996\O,0,-4.281,57.657001,113.107002\H,
 0,-6.02075276,50.85383657,118.81405507\H,0,-4.53580591,53.15947432,115
 .93867922\H,0,-5.39545363,53.79770233,117.30846299\H,0,-7.49290101,53.
 11366467,116.32386068\H,0,-6.64652785,52.44080115,114.96581019\H,0,-7.
 80365999,56.57085129,117.27692392\H,0,-9.21621309,56.39406599,116.2637
 5693\H,0,-8.50993654,54.99177269,117.03044696\H,0,-8.00987808,58.31744
 685,115.28276314\H,0,-8.40289455,61.45945002,115.12323511\H,0,-9.79188
 291,61.05708943,114.14247829\H,0,-9.09738873,59.8582961,115.20720317\H
 ,0,-8.55324801,61.96324539,110.92640717\H,0,-9.39447857,62.99771319,11
 2.59396186\H,0,-8.092229,62.52398892,113.65829171\H,0,-6.00605471,61.1
 2206124,110.06637782\H,0,-3.35563943,61.07898593,107.40158343\H,0,-5.0
 998343,61.17352026,107.3578323\H,0,-4.22773686,61.76181106,108.7529762
 5\H,0,-3.42966867,58.10066188,113.107002\H,0,-4.98306459,58.31175691,1
 13.107002\H,0,-3.0223172,59.2488198,105.70192286\H,0,-1.69764829,59.86
 346229,106.66136726\H,0,-2.88765363,57.24455215,106.97018717\H,0,-2.96
 705916,55.88704928,108.42312999\H,0,-2.00000711,52.77026722,108.960076
 47\H,0,-3.56360037,52.42448775,108.26102044\H,0,-2.78180374,53.9537290
 8,107.93964582\H,0,-5.29353662,52.95623425,113.4242707\H,0,-4.14547357
 ,51.11738831,110.31974861\H,0,-4.99487428,51.36759288,111.81876981\H,0
 ,-2.03699757,51.28402804,111.38370942\H,0,-2.75094383,51.87265857,112.
 85434978\H,0,-3.07357034,48.23642198,111.47613965\H,0,-8.81336631,57.6
 1591516,111.24374119\H,0,-6.49267758,54.92595861,109.08380208\H,0,-8.2
 4970345,54.05092057,107.34893372\H,0,-9.92244831,54.32895732,107.77046
 291\H,0,-9.08607588,55.45311462,106.72651934\\Version=ES64L-G16RevA.03
 \State=6-A\HF=-3438.2857505\S2=8.884812\S2-1=0.\S2A=8.754945\RMSD=1.81
 4e-09\Dipole=-3.2053266,1.8525444,-2.3029374\Quadrupole=-9.7209381,-6.
 4868175,16.2077556,-4.3551123,-14.6409484,11.8468916\PG=C01 [X(C38H40F
 e1N6O5)]\\@


 IT WAS AN ACT OF DESPARATION. FOR SIX YEARS I HAD STRUGGLED WITH THE
 BLACKBODY THEORY. I KNEW THE PROBLEM WAS FUNDAMENTAL, AND I KNEW
 THE ANSWER. I HAD TO FIND A THEORETICAL EXPLANATION AT ANY COST,
 EXCEPT FOR THE INVIOLABLITY OF THE TWO LAWS OF THERMODYNAMICS.
   -- MAX PLANCK, 1931
 Job cpu time:       2 days 22 hours  9 minutes 39.0 seconds.
 Elapsed time:       0 days 17 hours 36 minutes 22.8 seconds.
 File lengths (MBytes):  RWF=   2989 Int=      0 D2E=      0 Chk=    250 Scr=      1
 Normal termination of Gaussian 16 at Fri Sep  9 03:12:10 2022.
