 Entering Gaussian System, Link 0=g16
 Input=/net/homes/chemie/zhartovska/work/BioModel/Konrad/1cpo/1cpo12/1cpo16/1cpo16.com
 Output=/net/homes/chemie/zhartovska/work/BioModel/Konrad/1cpo/1cpo12/1cpo16/1cpo16.log
 Initial command:
 /afs/math/software/gaussian/g16.A03/g16/l1.exe "/scratch/zhartovska_gaussian.s3zrpAk/Gau-8457.inp" -scrdir="/scratch/zhartovska_gaussian.s3zrpAk/"
 Entering Link 1 = /afs/math/software/gaussian/g16.A03/g16/l1.exe PID=      8458.
  
 Copyright (c) 1988,1990,1992,1993,1995,1998,2003,2009,2016,
            Gaussian, Inc.  All Rights Reserved.
  
 This is part of the Gaussian(R) 16 program.  It is based on
 the Gaussian(R) 09 system (copyright 2009, Gaussian, Inc.),
 the Gaussian(R) 03 system (copyright 2003, Gaussian, Inc.),
 the Gaussian(R) 98 system (copyright 1998, Gaussian, Inc.),
 the Gaussian(R) 94 system (copyright 1995, Gaussian, Inc.),
 the Gaussian 92(TM) system (copyright 1992, Gaussian, Inc.),
 the Gaussian 90(TM) system (copyright 1990, Gaussian, Inc.),
 the Gaussian 88(TM) system (copyright 1988, Gaussian, Inc.),
 the Gaussian 86(TM) system (copyright 1986, Carnegie Mellon
 University), and the Gaussian 82(TM) system (copyright 1983,
 Carnegie Mellon University). Gaussian is a federally registered
 trademark of Gaussian, Inc.
  
 This software contains proprietary and confidential information,
 including trade secrets, belonging to Gaussian, Inc.
  
 This software is provided under written license and may be
 used, copied, transmitted, or stored only in accord with that
 written license.
  
 The following legend is applicable only to US Government
 contracts under FAR:
  
                    RESTRICTED RIGHTS LEGEND
  
 Use, reproduction and disclosure by the US Government is
 subject to restrictions as set forth in subparagraphs (a)
 and (c) of the Commercial Computer Software - Restricted
 Rights clause in FAR 52.227-19.
  
 Gaussian, Inc.
 340 Quinnipiac St., Bldg. 40, Wallingford CT 06492
  
  
 ---------------------------------------------------------------
 Warning -- This program may not be used in any manner that
 competes with the business of Gaussian, Inc. or will provide
 assistance to any competitor of Gaussian, Inc.  The licensee
 of this program is prohibited from giving any competitor of
 Gaussian, Inc. access to this program.  By using this program,
 the user acknowledges that Gaussian, Inc. is engaged in the
 business of creating and licensing software in the field of
 computational chemistry and represents and warrants to the
 licensee that it is not a competitor of Gaussian, Inc. and that
 it will not use this program in any manner prohibited above.
 ---------------------------------------------------------------
  

 Cite this work as:
 Gaussian 16, Revision A.03,
 M. J. Frisch, G. W. Trucks, H. B. Schlegel, G. E. Scuseria, 
 M. A. Robb, J. R. Cheeseman, G. Scalmani, V. Barone, 
 G. A. Petersson, H. Nakatsuji, X. Li, M. Caricato, A. V. Marenich, 
 J. Bloino, B. G. Janesko, R. Gomperts, B. Mennucci, H. P. Hratchian, 
 J. V. Ortiz, A. F. Izmaylov, J. L. Sonnenberg, D. Williams-Young, 
 F. Ding, F. Lipparini, F. Egidi, J. Goings, B. Peng, A. Petrone, 
 T. Henderson, D. Ranasinghe, V. G. Zakrzewski, J. Gao, N. Rega, 
 G. Zheng, W. Liang, M. Hada, M. Ehara, K. Toyota, R. Fukuda, 
 J. Hasegawa, M. Ishida, T. Nakajima, Y. Honda, O. Kitao, H. Nakai, 
 T. Vreven, K. Throssell, J. A. Montgomery, Jr., J. E. Peralta, 
 F. Ogliaro, M. J. Bearpark, J. J. Heyd, E. N. Brothers, K. N. Kudin, 
 V. N. Staroverov, T. A. Keith, R. Kobayashi, J. Normand, 
 K. Raghavachari, A. P. Rendell, J. C. Burant, S. S. Iyengar, 
 J. Tomasi, M. Cossi, J. M. Millam, M. Klene, C. Adamo, R. Cammi, 
 J. W. Ochterski, R. L. Martin, K. Morokuma, O. Farkas, 
 J. B. Foresman, and D. J. Fox, Gaussian, Inc., Wallingford CT, 2016.
 
 ******************************************
 Gaussian 16:  ES64L-G16RevA.03 25-Dec-2016
                30-Nov-2022 
 ******************************************
 %nprocs=12
 Will use up to   12 processors via shared memory.
 %mem=16GB
 %oldchk=1cpo_III_D.chk
 %chk=1cpo_III_H.chk
 Copying data from "1cpo_III_D.chk" to current chk file "1cpo_III_H.chk"
 IOpt=  2 FromEx=T IUOpen= 4 IOptOp= 5 NList=   0 IFRang= 0 IUIn= 4 IUOut= 2.
 ----------------------------------------------------------------------
 # PBE1PBE/def2TZVP empiricaldispersion=GD3BJ scf=maxcycle=999 geom=che
 ck pop=nbo
 ----------------------------------------------------------------------
 1/29=2,38=1,172=1/1;
 2/12=2,40=1/2;
 3/5=44,7=101,11=2,14=-4,25=1,30=1,74=-13,124=41/1,2,3;
 4//1;
 5/5=2,7=999,38=5/2;
 6/7=2,8=2,9=2,10=2,28=1,40=1/1,7;
 99/5=1,9=1/99;
 ----------
 1cpo_III_H
 ----------
 Structure from the checkpoint file:  "1cpo_III_H.chk"
 Charge =  1 Multiplicity = 6
 Z-Matrix found in chk file.
 C,0,39.537998,-0.794,5.207
 S,0,38.03392141,-1.11851475,6.10189876
 C,0,38.470001,1.241,1.71
 C,0,38.207001,-3.562,2.326
 C,0,34.162998,-2.989,4.879
 C,0,34.547001,1.849,4.502
 C,0,38.791,-0.121,1.704
 C,0,39.887001,-0.717,0.972
 C,0,39.783001,-2.053,1.11
 C,0,38.667999,-2.302,1.984
 C,0,40.647999,-3.112,0.473
 C,0,40.936001,0.054,0.225
 C,0,40.355,0.615,-1.069
 C,0,41.040001,1.884,-1.489
 O,0,40.57,2.973,-1.091
 O,0,42.042,1.804,-2.234
 C,0,37.137001,-3.843,3.159
 C,0,36.700001,-5.174,3.528
 C,0,35.554001,-5.028,4.232
 C,0,35.285999,-3.592,4.314
 C,0,37.431999,-6.484,3.19
 C,0,34.946999,-6.207,4.676
 C,0,33.895,-6.333,5.558
 C,0,33.944,-1.614,5.037
 C,0,32.749001,-1.037,5.609
 C,0,32.959,0.305,5.696
 C,0,34.155998,0.587,4.944
 C,0,31.51,-1.853,5.944
 C,0,32.256001,1.338,6.324
 C,0,30.90427054,1.16727,6.65202133
 C,0,35.657001,2.127,3.714
 C,0,35.973,3.417,3.133
 C,0,37.07,3.246,2.357
 C,0,37.433998,1.843,2.429
 C,0,35.178001,4.703,3.333
 C,0,37.765999,4.308,1.52
 C,0,39.055,4.903,2.096
 C,0,39.705002,5.928,1.183
 O,0,40.587002,6.668,1.654
 O,0,39.345001,6.,-0.005
 N,0,38.126999,-1.103,2.413
 N,0,36.352001,-2.902,3.784
 N,0,34.805,-0.601,4.662
 N,0,36.566002,1.185,3.28
 Fe,0,36.534,-0.853,3.659
 H,0,40.37185059,-1.16830862,5.76331189
 H,0,39.49800131,-1.27946307,4.25430599
 H,0,39.64827803,0.26084517,5.06543736
 H,0,38.32544857,-1.5539017,7.30254447
 H,0,41.16016414,3.6841629,-0.83108922
 H,0,40.46661003,-0.1134716,-1.84473986
 H,0,39.31343461,0.81336418,-0.92514872
 H,0,41.75480306,-0.59477481,-0.0064183
 H,0,41.28475677,0.86052627,0.83556105
 H,0,40.0018081,6.04235538,-0.70386369
 H,0,38.82812247,5.371808,3.03069014
 H,0,39.75091102,4.1090699,2.27001966
 H,0,37.99815649,3.87772311,0.56823075
 H,0,37.07455227,5.10932296,1.36289196
 H,0,39.07616137,1.88329599,1.10590938
 H,0,41.56826555,-3.1930889,1.01284633
 H,0,40.13677823,-4.05168406,0.49639202
 H,0,40.85252189,-2.84240707,-0.5420813
 H,0,38.72687928,-4.39802645,1.90685044
 H,0,35.73763132,5.53128543,2.95134944
 H,0,34.24651783,4.63125509,2.81137583
 H,0,34.99207458,4.84872996,4.37659673
 H,0,33.93799641,2.67832554,4.79565382
 H,0,31.7261372,-2.51118127,6.75946436
 H,0,30.71275438,-1.19440939,6.21887787
 H,0,31.21944579,-2.42748207,5.08933714
 H,0,33.39031148,-3.64219176,5.22713226
 H,0,38.3701161,-6.51120329,3.703903
 H,0,36.83333509,-7.31632299,3.49616982
 H,0,37.60172559,-6.53571325,2.13481347
 H,0,32.75019209,2.25873467,6.55404961
 H,0,30.61588392,1.01788649,7.67153971
 H,0,30.16058121,1.18629478,5.88295421
 H,0,34.03938488,-6.12075709,6.59675211
 H,0,32.93409926,-6.64304106,5.20381883
 H,0,35.34637092,-7.11935115,4.28482555
 Recover connectivity data from disk.
 Stoichiometry    C35H36FeN4O4S(1+,6)
 Framework group  C1[X(C35H36FeN4O4S)]
 Deg. of freedom   237
 Full point group                 C1      NOp   1
 Largest Abelian subgroup         C1      NOp   1
 Largest concise Abelian subgroup C1      NOp   1
                         Standard orientation:                         
 ---------------------------------------------------------------------
 Center     Atomic      Atomic             Coordinates (Angstroms)
 Number     Number       Type             X           Y           Z
 ---------------------------------------------------------------------
      1          6           0       -0.115849   -1.148897    3.136053
      2         16           0       -1.612746   -0.207226    2.933680
      3          6           0        2.342646   -0.261906   -0.131958
      4          6           0       -1.321712   -3.437900   -0.186582
      5          6           0       -4.449186    0.212277   -0.495150
      6          6           0       -0.809233    3.428447   -0.174485
      7          6           0        1.613531   -1.453944   -0.057399
      8          6           0        2.185316   -2.782506   -0.041826
      9          6           0        1.164868   -3.659898   -0.102025
     10          6           0       -0.052567   -2.893977   -0.084100
     11          6           0        1.250531   -5.163631   -0.185227
     12          6           0        3.653789   -3.080560    0.045366
     13          6           0        4.330407   -2.787000   -1.289823
     14          6           0        5.769333   -2.392901   -1.116145
     15          8           0        6.041716   -1.178619   -0.987492
     16          8           0        6.640275   -3.291130   -1.124667
     17          6           0       -2.515407   -2.735933   -0.177394
     18          6           0       -3.831718   -3.336575   -0.249807
     19          6           0       -4.719520   -2.321114   -0.354182
     20          6           0       -3.947882   -1.078272   -0.330398
     21          6           0       -4.133960   -4.843753   -0.192977
     22          6           0       -6.065936   -2.685291   -0.455015
     23          6           0       -7.169424   -1.862086   -0.383263
     24          6           0       -3.727715    1.408606   -0.386405
     25          6           0       -4.290309    2.723905   -0.590396
     26          6           0       -3.315342    3.623795   -0.286635
     27          6           0       -2.088852    2.877896   -0.155519
     28          6           0       -5.695986    2.953308   -1.123921
     29          6           0       -3.322984    5.011859   -0.116632
     30          6           0       -4.356348    5.779888   -0.669997
     31          6           0        0.383121    2.717050   -0.124147
     32          6           0        1.706728    3.282583   -0.296643
     33          6           0        2.585143    2.251579   -0.281039
     34          6           0        1.814914    1.031950   -0.121849
     35          6           0        2.024383    4.759810   -0.503321
     36          6           0        4.093756    2.339944   -0.451643
     37          6           0        4.937776    2.239048    0.823023
     38          6           0        6.432591    2.299879    0.561247
     39          8           0        7.195852    2.503501    1.522151
     40          8           0        6.854447    2.142581   -0.597814
     41          7           0        0.238566   -1.546725    0.036221
     42          7           0       -2.629332   -1.369575   -0.065958
     43          7           0       -2.383171    1.528245   -0.093142
     44          7           0        0.473482    1.345697   -0.009137
     45         26           0       -1.093653   -0.006419    0.109102
     46          1           0       -0.167565   -1.709785    4.045795
     47          1           0       -0.001656   -1.819129    2.309827
     48          1           0        0.721494   -0.483839    3.174189
     49          1           0       -2.322685   -0.274179    4.032590
     50          1           0        6.723937   -0.902404   -0.371147
     51          1           0        4.281228   -3.661646   -1.904212
     52          1           0        3.807992   -1.990053   -1.776504
     53          1           0        3.791667   -4.112340    0.292996
     54          1           0        4.094165   -2.471597    0.807031
     55          1           0        7.590927    1.549708   -0.764243
     56          1           0        4.671119    3.044388    1.475112
     57          1           0        4.712737    1.313535    1.310550
     58          1           0        4.397477    1.553988   -1.111133
     59          1           0        4.318058    3.274288   -0.922376
     60          1           0        3.406639   -0.349579   -0.203606
     61          1           0        1.451826   -5.563721    0.786528
     62          1           0        0.322230   -5.554313   -0.546510
     63          1           0        2.038299   -5.439501   -0.854717
     64          1           0       -1.386316   -4.501683   -0.281936
     65          1           0        3.078970    4.914411   -0.409282
     66          1           0        1.705553    5.059994   -1.479609
     67          1           0        1.511494    5.341462    0.233921
     68          1           0       -0.738376    4.494490   -0.233057
     69          1           0       -6.410815    2.629920   -0.396364
     70          1           0       -5.836240    3.995198   -1.323157
     71          1           0       -5.829826    2.396197   -2.027588
     72          1           0       -5.489995    0.297818   -0.728170
     73          1           0       -3.873950   -5.223488    0.772992
     74          1           0       -5.176600   -5.005394   -0.370950
     75          1           0       -3.561572   -5.350775   -0.941443
     76          1           0       -2.539836    5.487499    0.435948
     77          1           0       -5.112880    6.194330   -0.036911
     78          1           0       -4.388813    5.951852   -1.725589
     79          1           0       -7.449704   -1.423330    0.551529
     80          1           0       -7.745627   -1.661908   -1.262364
     81          1           0       -6.262987   -3.726139   -0.605702
 ---------------------------------------------------------------------
 Rotational constants (GHZ):           0.0906511           0.0492011           0.0347377
 Standard basis: def2TZVP (5D, 7F)
 There are  1858 symmetry adapted cartesian basis functions of A   symmetry.
 There are  1631 symmetry adapted basis functions of A   symmetry.
  1631 basis functions,  2652 primitive gaussians,  1858 cartesian basis functions
   176 alpha electrons      171 beta electrons
       nuclear repulsion energy      6503.9273010918 Hartrees.
 NAtoms=   81 NActive=   81 NUniq=   81 SFac= 1.00D+00 NAtFMM=   60 NAOKFM=T Big=T
 Integral buffers will be    131072 words long.
 Raffenetti 2 integral format.
 Two-electron integral symmetry is turned on.
 Nuclear repulsion after empirical dispersion term =     6503.8116124394 Hartrees.
 One-electron integrals computed using PRISM.
   1 Symmetry operations used in ECPInt.
 ECPInt:  NShTT=  208335 NPrTT=  650379 LenC2=  150697 LenP2D=  306195.
 LDataN:  DoStor=T MaxTD1= 6 Len=  172
 NBasis=  1631 RedAO= T EigKep=  3.33D-06  NBF=  1631
 NBsUse=  1631 1.00D-06 EigRej= -1.00D+00 NBFU=  1631
 ExpMin= 4.20D-02 ExpMax= 3.01D+05 ExpMxC= 2.91D+03 IAcc=3 IRadAn=         5 AccDes= 0.00D+00
 Harris functional with IExCor= 1009 and IRadAn=       5 diagonalized for initial guess.
 HarFok:  IExCor= 1009 AccDes= 0.00D+00 IRadAn=         5 IDoV= 1 UseB2=F ITyADJ=14
 ICtDFT=  3500011 ScaDFX=  1.000000  1.000000  1.000000  1.000000
 FoFCou: FMM=F IPFlag=           0 FMFlag=      100000 FMFlg1=        2001
         NFxFlg=           0 DoJE=T BraDBF=F KetDBF=T FulRan=T
         wScrn=  0.000000 ICntrl=       500 IOpCl=  0 I1Cent=   200000004 NGrid=           0
         NMat0=    1 NMatS0=      1 NMatT0=    0 NMatD0=    1 NMtDS0=    0 NMtDT0=    0
 Petite list used in FoFCou.
 Initial guess <Sx>= 0.0000 <Sy>= 0.0000 <Sz>= 2.5000 <S**2>= 8.7500 S= 2.5000
 Requested convergence on RMS density matrix=1.00D-08 within 999 cycles.
 Requested convergence on MAX density matrix=1.00D-06.
 Requested convergence on             energy=1.00D-06.
 No special actions if energy rises.
 EnCoef did     2 forward-backward iterations
 EnCoef did   100 forward-backward iterations
 EnCoef did   100 forward-backward iterations
 EnCoef did   100 forward-backward iterations
 EnCoef did     5 forward-backward iterations
 EnCoef did     2 forward-backward iterations
 EnCoef did    14 forward-backward iterations
 EnCoef did     4 forward-backward iterations
 EnCoef did   100 forward-backward iterations
 Rare condition: small coef for last iteration:  0.000D+00
 Restarting incremental Fock formation.
 Rare condition: small coef for last iteration:  0.000D+00
 Rare condition: small coef for last iteration:  0.000D+00
 Restarting incremental Fock formation.
 Restarting incremental Fock formation.
 Restarting incremental Fock formation.
 SCF Done:  E(UPBE1PBE) =  -3535.16105095     A.U. after   89 cycles
            NFock= 89  Conv=0.20D-08     -V/T= 2.0028
 <Sx>= 0.0000 <Sy>= 0.0000 <Sz>= 2.5000 <S**2>= 9.0932 S= 2.5567
 <L.S>= 0.000000000000E+00
 Annihilation of the first spin contaminant:
 S**2 before annihilation     9.0932,   after     8.7675

 **********************************************************************

            Population analysis using the SCF density.

 **********************************************************************

 Orbital symmetries:
 Alpha Orbitals:
       Occupied  (A) (A) (A) (A) (A) (A) (A) (A) (A) (A) (A) (A)
                 (A) (A) (A) (A) (A) (A) (A) (A) (A) (A) (A) (A)
                 (A) (A) (A) (A) (A) (A) (A) (A) (A) (A) (A) (A)
                 (A) (A) (A) (A) (A) (A) (A) (A) (A) (A) (A) (A)
                 (A) (A) (A) (A) (A) (A) (A) (A) (A) (A) (A) (A)
                 (A) (A) (A) (A) (A) (A) (A) (A) (A) (A) (A) (A)
                 (A) (A) (A) (A) (A) (A) (A) (A) (A) (A) (A) (A)
                 (A) (A) (A) (A) (A) (A) (A) (A) (A) (A) (A) (A)
                 (A) (A) (A) (A) (A) (A) (A) (A) (A) (A) (A) (A)
                 (A) (A) (A) (A) (A) (A) (A) (A) (A) (A) (A) (A)
                 (A) (A) (A) (A) (A) (A) (A) (A) (A) (A) (A) (A)
                 (A) (A) (A) (A) (A) (A) (A) (A) (A) (A) (A) (A)
                 (A) (A) (A) (A) (A) (A) (A) (A) (A) (A) (A) (A)
                 (A) (A) (A) (A) (A) (A) (A) (A) (A) (A) (A) (A)
                 (A) (A) (A) (A) (A) (A) (A) (A)
       Virtual   (A) (A) (A) (A) (A) (A) (A) (A) (A) (A) (A) (A)
                 (A) (A) (A) (A) (A) (A) (A) (A) (A) (A) (A) (A)
                 (A) (A) (A) (A) (A) (A) (A) (A) (A) (A) (A) (A)
                 (A) (A) (A) (A) (A) (A) (A) (A) (A) (A) (A) (A)
                 (A) (A) (A) (A) (A) (A) (A) (A) (A) (A) (A) (A)
                 (A) (A) (A) (A) (A) (A) (A) (A) (A) (A) (A) (A)
                 (A) (A) (A) (A) (A) (A) (A) (A) (A) (A) (A) (A)
                 (A) (A) (A) (A) (A) (A) (A) (A) (A) (A) (A) (A)
                 (A) (A) (A) (A) (A) (A) (A) (A) (A) (A) (A) (A)
                 (A) (A) (A) (A) (A) (A) (A) (A) (A) (A) (A) (A)
                 (A) (A) (A) (A) (A) (A) (A) (A) (A) (A) (A) (A)
                 (A) (A) (A) (A) (A) (A) (A) (A) (A) (A) (A) (A)
                 (A) (A) (A) (A) (A) (A) (A) (A) (A) (A) (A) (A)
                 (A) (A) (A) (A) (A) (A) (A) (A) (A) (A) (A) (A)
                 (A) (A) (A) (A) (A) (A) (A) (A) (A) (A) (A) (A)
                 (A) (A) (A) (A) (A) (A) (A) (A) (A) (A) (A) (A)
                 (A) (A) (A) (A) (A) (A) (A) (A) (A) (A) (A) (A)
                 (A) (A) (A) (A) (A) (A) (A) (A) (A) (A) (A) (A)
                 (A) (A) (A) (A) (A) (A) (A) (A) (A) (A) (A) (A)
                 (A) (A) (A) (A) (A) (A) (A) (A) (A) (A) (A) (A)
                 (A) (A) (A) (A) (A) (A) (A) (A) (A) (A) (A) (A)
                 (A) (A) (A) (A) (A) (A) (A) (A) (A) (A) (A) (A)
                 (A) (A) (A) (A) (A) (A) (A) (A) (A) (A) (A) (A)
                 (A) (A) (A) (A) (A) (A) (A) (A) (A) (A) (A) (A)
                 (A) (A) (A) (A) (A) (A) (A) (A) (A) (A) (A) (A)
                 (A) (A) (A) (A) (A) (A) (A) (A) (A) (A) (A) (A)
                 (A) (A) (A) (A) (A) (A) (A) (A) (A) (A) (A) (A)
                 (A) (A) (A) (A) (A) (A) (A) (A) (A) (A) (A) (A)
                 (A) (A) (A) (A) (A) (A) (A) (A) (A) (A) (A) (A)
                 (A) (A) (A) (A) (A) (A) (A) (A) (A) (A) (A) (A)
                 (A) (A) (A) (A) (A) (A) (A) (A) (A) (A) (A) (A)
                 (A) (A) (A) (A) (A) (A) (A) (A) (A) (A) (A) (A)
                 (A) (A) (A) (A) (A) (A) (A) (A) (A) (A) (A) (A)
                 (A) (A) (A) (A) (A) (A) (A) (A) (A) (A) (A) (A)
                 (A) (A) (A) (A) (A) (A) (A) (A) (A) (A) (A) (A)
                 (A) (A) (A) (A) (A) (A) (A) (A) (A) (A) (A) (A)
                 (A) (A) (A) (A) (A) (A) (A) (A) (A) (A) (A) (A)
                 (A) (A) (A) (A) (A) (A) (A) (A) (A) (A) (A) (A)
                 (A) (A) (A) (A) (A) (A) (A) (A) (A) (A) (A) (A)
                 (A) (A) (A) (A) (A) (A) (A) (A) (A) (A) (A) (A)
                 (A) (A) (A) (A) (A) (A) (A) (A) (A) (A) (A) (A)
                 (A) (A) (A) (A) (A) (A) (A) (A) (A) (A) (A) (A)
                 (A) (A) (A) (A) (A) (A) (A) (A) (A) (A) (A) (A)
                 (A) (A) (A) (A) (A) (A) (A) (A) (A) (A) (A) (A)
                 (A) (A) (A) (A) (A) (A) (A) (A) (A) (A) (A) (A)
                 (A) (A) (A) (A) (A) (A) (A) (A) (A) (A) (A) (A)
                 (A) (A) (A) (A) (A) (A) (A) (A) (A) (A) (A) (A)
                 (A) (A) (A) (A) (A) (A) (A) (A) (A) (A) (A) (A)
                 (A) (A) (A) (A) (A) (A) (A) (A) (A) (A) (A) (A)
                 (A) (A) (A) (A) (A) (A) (A) (A) (A) (A) (A) (A)
                 (A) (A) (A) (A) (A) (A) (A) (A) (A) (A) (A) (A)
                 (A) (A) (A) (A) (A) (A) (A) (A) (A) (A) (A) (A)
                 (A) (A) (A) (A) (A) (A) (A) (A) (A) (A) (A) (A)
                 (A) (A) (A) (A) (A) (A) (A) (A) (A) (A) (A) (A)
                 (A) (A) (A) (A) (A) (A) (A) (A) (A) (A) (A) (A)
                 (A) (A) (A) (A) (A) (A) (A) (A) (A) (A) (A) (A)
                 (A) (A) (A) (A) (A) (A) (A) (A) (A) (A) (A) (A)
                 (A) (A) (A) (A) (A) (A) (A) (A) (A) (A) (A) (A)
                 (A) (A) (A) (A) (A) (A) (A) (A) (A) (A) (A) (A)
                 (A) (A) (A) (A) (A) (A) (A) (A) (A) (A) (A) (A)
                 (A) (A) (A) (A) (A) (A) (A) (A) (A) (A) (A) (A)
                 (A) (A) (A) (A) (A) (A) (A) (A) (A) (A) (A) (A)
                 (A) (A) (A) (A) (A) (A) (A) (A) (A) (A) (A) (A)
                 (A) (A) (A) (A) (A) (A) (A) (A) (A) (A) (A) (A)
                 (A) (A) (A) (A) (A) (A) (A) (A) (A) (A) (A) (A)
                 (A) (A) (A) (A) (A) (A) (A) (A) (A) (A) (A) (A)
                 (A) (A) (A) (A) (A) (A) (A) (A) (A) (A) (A) (A)
                 (A) (A) (A) (A) (A) (A) (A) (A) (A) (A) (A) (A)
                 (A) (A) (A) (A) (A) (A) (A) (A) (A) (A) (A) (A)
                 (A) (A) (A) (A) (A) (A) (A) (A) (A) (A) (A) (A)
                 (A) (A) (A) (A) (A) (A) (A) (A) (A) (A) (A) (A)
                 (A) (A) (A) (A) (A) (A) (A) (A) (A) (A) (A) (A)
                 (A) (A) (A) (A) (A) (A) (A) (A) (A) (A) (A) (A)
                 (A) (A) (A) (A) (A) (A) (A) (A) (A) (A) (A) (A)
                 (A) (A) (A) (A) (A) (A) (A) (A) (A) (A) (A) (A)
                 (A) (A) (A) (A) (A) (A) (A) (A) (A) (A) (A) (A)
                 (A) (A) (A) (A) (A) (A) (A) (A) (A) (A) (A) (A)
                 (A) (A) (A) (A) (A) (A) (A) (A) (A) (A) (A) (A)
                 (A) (A) (A) (A) (A) (A) (A) (A) (A) (A) (A) (A)
                 (A) (A) (A) (A) (A) (A) (A) (A) (A) (A) (A) (A)
                 (A) (A) (A) (A) (A) (A) (A) (A) (A) (A) (A) (A)
                 (A) (A) (A) (A) (A) (A) (A) (A) (A) (A) (A) (A)
                 (A) (A) (A) (A) (A) (A) (A) (A) (A) (A) (A) (A)
                 (A) (A) (A) (A) (A) (A) (A) (A) (A) (A) (A) (A)
                 (A) (A) (A) (A) (A) (A) (A) (A) (A) (A) (A) (A)
                 (A) (A) (A) (A) (A) (A) (A) (A) (A) (A) (A) (A)
                 (A) (A) (A) (A) (A) (A) (A) (A) (A) (A) (A) (A)
                 (A) (A) (A) (A) (A) (A) (A) (A) (A) (A) (A) (A)
                 (A) (A) (A) (A) (A) (A) (A) (A) (A) (A) (A) (A)
                 (A) (A) (A) (A) (A) (A) (A) (A) (A) (A) (A) (A)
                 (A) (A) (A) (A) (A) (A) (A) (A) (A) (A) (A) (A)
                 (A) (A) (A) (A) (A) (A) (A) (A) (A) (A) (A) (A)
                 (A) (A) (A) (A) (A) (A) (A) (A) (A) (A) (A) (A)
                 (A) (A) (A) (A) (A) (A) (A) (A) (A) (A) (A) (A)
                 (A) (A) (A) (A) (A) (A) (A) (A) (A) (A) (A) (A)
                 (A) (A) (A) (A) (A) (A) (A) (A) (A) (A) (A) (A)
                 (A) (A) (A) (A) (A) (A) (A) (A) (A) (A) (A) (A)
                 (A) (A) (A) (A) (A) (A) (A) (A) (A) (A) (A) (A)
                 (A) (A) (A) (A) (A) (A) (A) (A) (A) (A) (A) (A)
                 (A) (A) (A) (A) (A) (A) (A) (A) (A) (A) (A) (A)
                 (A) (A) (A) (A) (A) (A) (A) (A) (A) (A) (A) (A)
                 (A) (A) (A) (A) (A) (A) (A) (A) (A) (A) (A) (A)
                 (A) (A) (A) (A) (A) (A) (A) (A) (A) (A) (A) (A)
                 (A) (A) (A) (A) (A) (A) (A) (A) (A) (A) (A) (A)
                 (A) (A) (A) (A) (A) (A) (A) (A) (A) (A) (A) (A)
                 (A) (A) (A) (A) (A) (A) (A) (A) (A) (A) (A) (A)
                 (A) (A) (A) (A) (A) (A) (A) (A) (A) (A) (A) (A)
                 (A) (A) (A) (A) (A) (A) (A) (A) (A) (A) (A) (A)
                 (A) (A) (A) (A) (A) (A) (A) (A) (A) (A) (A) (A)
                 (A) (A) (A) (A) (A) (A) (A) (A) (A) (A) (A) (A)
                 (A) (A) (A) (A) (A) (A) (A) (A) (A) (A) (A) (A)
                 (A) (A) (A) (A) (A) (A) (A) (A) (A) (A) (A) (A)
                 (A) (A) (A) (A) (A) (A) (A) (A) (A) (A) (A) (A)
                 (A) (A) (A) (A) (A) (A) (A) (A) (A) (A) (A) (A)
                 (A) (A) (A) (A) (A) (A) (A) (A) (A) (A) (A) (A)
                 (A) (A) (A) (A) (A) (A) (A) (A) (A) (A) (A) (A)
                 (A) (A) (A) (A) (A) (A) (A) (A) (A) (A) (A) (A)
                 (A) (A) (A) (A) (A) (A) (A) (A) (A) (A) (A) (A)
                 (A) (A) (A) (A) (A) (A) (A) (A) (A) (A) (A) (A)
                 (A) (A) (A) (A) (A) (A) (A) (A) (A) (A) (A) (A)
                 (A) (A) (A) (A) (A) (A) (A) (A) (A) (A) (A) (A)
                 (A) (A) (A)
 Beta  Orbitals:
       Occupied  (A) (A) (A) (A) (A) (A) (A) (A) (A) (A) (A) (A)
                 (A) (A) (A) (A) (A) (A) (A) (A) (A) (A) (A) (A)
                 (A) (A) (A) (A) (A) (A) (A) (A) (A) (A) (A) (A)
                 (A) (A) (A) (A) (A) (A) (A) (A) (A) (A) (A) (A)
                 (A) (A) (A) (A) (A) (A) (A) (A) (A) (A) (A) (A)
                 (A) (A) (A) (A) (A) (A) (A) (A) (A) (A) (A) (A)
                 (A) (A) (A) (A) (A) (A) (A) (A) (A) (A) (A) (A)
                 (A) (A) (A) (A) (A) (A) (A) (A) (A) (A) (A) (A)
                 (A) (A) (A) (A) (A) (A) (A) (A) (A) (A) (A) (A)
                 (A) (A) (A) (A) (A) (A) (A) (A) (A) (A) (A) (A)
                 (A) (A) (A) (A) (A) (A) (A) (A) (A) (A) (A) (A)
                 (A) (A) (A) (A) (A) (A) (A) (A) (A) (A) (A) (A)
                 (A) (A) (A) (A) (A) (A) (A) (A) (A) (A) (A) (A)
                 (A) (A) (A) (A) (A) (A) (A) (A) (A) (A) (A) (A)
                 (A) (A) (A)
       Virtual   (A) (A) (A) (A) (A) (A) (A) (A) (A) (A) (A) (A)
                 (A) (A) (A) (A) (A) (A) (A) (A) (A) (A) (A) (A)
                 (A) (A) (A) (A) (A) (A) (A) (A) (A) (A) (A) (A)
                 (A) (A) (A) (A) (A) (A) (A) (A) (A) (A) (A) (A)
                 (A) (A) (A) (A) (A) (A) (A) (A) (A) (A) (A) (A)
                 (A) (A) (A) (A) (A) (A) (A) (A) (A) (A) (A) (A)
                 (A) (A) (A) (A) (A) (A) (A) (A) (A) (A) (A) (A)
                 (A) (A) (A) (A) (A) (A) (A) (A) (A) (A) (A) (A)
                 (A) (A) (A) (A) (A) (A) (A) (A) (A) (A) (A) (A)
                 (A) (A) (A) (A) (A) (A) (A) (A) (A) (A) (A) (A)
                 (A) (A) (A) (A) (A) (A) (A) (A) (A) (A) (A) (A)
                 (A) (A) (A) (A) (A) (A) (A) (A) (A) (A) (A) (A)
                 (A) (A) (A) (A) (A) (A) (A) (A) (A) (A) (A) (A)
                 (A) (A) (A) (A) (A) (A) (A) (A) (A) (A) (A) (A)
                 (A) (A) (A) (A) (A) (A) (A) (A) (A) (A) (A) (A)
                 (A) (A) (A) (A) (A) (A) (A) (A) (A) (A) (A) (A)
                 (A) (A) (A) (A) (A) (A) (A) (A) (A) (A) (A) (A)
                 (A) (A) (A) (A) (A) (A) (A) (A) (A) (A) (A) (A)
                 (A) (A) (A) (A) (A) (A) (A) (A) (A) (A) (A) (A)
                 (A) (A) (A) (A) (A) (A) (A) (A) (A) (A) (A) (A)
                 (A) (A) (A) (A) (A) (A) (A) (A) (A) (A) (A) (A)
                 (A) (A) (A) (A) (A) (A) (A) (A) (A) (A) (A) (A)
                 (A) (A) (A) (A) (A) (A) (A) (A) (A) (A) (A) (A)
                 (A) (A) (A) (A) (A) (A) (A) (A) (A) (A) (A) (A)
                 (A) (A) (A) (A) (A) (A) (A) (A) (A) (A) (A) (A)
                 (A) (A) (A) (A) (A) (A) (A) (A) (A) (A) (A) (A)
                 (A) (A) (A) (A) (A) (A) (A) (A) (A) (A) (A) (A)
                 (A) (A) (A) (A) (A) (A) (A) (A) (A) (A) (A) (A)
                 (A) (A) (A) (A) (A) (A) (A) (A) (A) (A) (A) (A)
                 (A) (A) (A) (A) (A) (A) (A) (A) (A) (A) (A) (A)
                 (A) (A) (A) (A) (A) (A) (A) (A) (A) (A) (A) (A)
                 (A) (A) (A) (A) (A) (A) (A) (A) (A) (A) (A) (A)
                 (A) (A) (A) (A) (A) (A) (A) (A) (A) (A) (A) (A)
                 (A) (A) (A) (A) (A) (A) (A) (A) (A) (A) (A) (A)
                 (A) (A) (A) (A) (A) (A) (A) (A) (A) (A) (A) (A)
                 (A) (A) (A) (A) (A) (A) (A) (A) (A) (A) (A) (A)
                 (A) (A) (A) (A) (A) (A) (A) (A) (A) (A) (A) (A)
                 (A) (A) (A) (A) (A) (A) (A) (A) (A) (A) (A) (A)
                 (A) (A) (A) (A) (A) (A) (A) (A) (A) (A) (A) (A)
                 (A) (A) (A) (A) (A) (A) (A) (A) (A) (A) (A) (A)
                 (A) (A) (A) (A) (A) (A) (A) (A) (A) (A) (A) (A)
                 (A) (A) (A) (A) (A) (A) (A) (A) (A) (A) (A) (A)
                 (A) (A) (A) (A) (A) (A) (A) (A) (A) (A) (A) (A)
                 (A) (A) (A) (A) (A) (A) (A) (A) (A) (A) (A) (A)
                 (A) (A) (A) (A) (A) (A) (A) (A) (A) (A) (A) (A)
                 (A) (A) (A) (A) (A) (A) (A) (A) (A) (A) (A) (A)
                 (A) (A) (A) (A) (A) (A) (A) (A) (A) (A) (A) (A)
                 (A) (A) (A) (A) (A) (A) (A) (A) (A) (A) (A) (A)
                 (A) (A) (A) (A) (A) (A) (A) (A) (A) (A) (A) (A)
                 (A) (A) (A) (A) (A) (A) (A) (A) (A) (A) (A) (A)
                 (A) (A) (A) (A) (A) (A) (A) (A) (A) (A) (A) (A)
                 (A) (A) (A) (A) (A) (A) (A) (A) (A) (A) (A) (A)
                 (A) (A) (A) (A) (A) (A) (A) (A) (A) (A) (A) (A)
                 (A) (A) (A) (A) (A) (A) (A) (A) (A) (A) (A) (A)
                 (A) (A) (A) (A) (A) (A) (A) (A) (A) (A) (A) (A)
                 (A) (A) (A) (A) (A) (A) (A) (A) (A) (A) (A) (A)
                 (A) (A) (A) (A) (A) (A) (A) (A) (A) (A) (A) (A)
                 (A) (A) (A) (A) (A) (A) (A) (A) (A) (A) (A) (A)
                 (A) (A) (A) (A) (A) (A) (A) (A) (A) (A) (A) (A)
                 (A) (A) (A) (A) (A) (A) (A) (A) (A) (A) (A) (A)
                 (A) (A) (A) (A) (A) (A) (A) (A) (A) (A) (A) (A)
                 (A) (A) (A) (A) (A) (A) (A) (A) (A) (A) (A) (A)
                 (A) (A) (A) (A) (A) (A) (A) (A) (A) (A) (A) (A)
                 (A) (A) (A) (A) (A) (A) (A) (A) (A) (A) (A) (A)
                 (A) (A) (A) (A) (A) (A) (A) (A) (A) (A) (A) (A)
                 (A) (A) (A) (A) (A) (A) (A) (A) (A) (A) (A) (A)
                 (A) (A) (A) (A) (A) (A) (A) (A) (A) (A) (A) (A)
                 (A) (A) (A) (A) (A) (A) (A) (A) (A) (A) (A) (A)
                 (A) (A) (A) (A) (A) (A) (A) (A) (A) (A) (A) (A)
                 (A) (A) (A) (A) (A) (A) (A) (A) (A) (A) (A) (A)
                 (A) (A) (A) (A) (A) (A) (A) (A) (A) (A) (A) (A)
                 (A) (A) (A) (A) (A) (A) (A) (A) (A) (A) (A) (A)
                 (A) (A) (A) (A) (A) (A) (A) (A) (A) (A) (A) (A)
                 (A) (A) (A) (A) (A) (A) (A) (A) (A) (A) (A) (A)
                 (A) (A) (A) (A) (A) (A) (A) (A) (A) (A) (A) (A)
                 (A) (A) (A) (A) (A) (A) (A) (A) (A) (A) (A) (A)
                 (A) (A) (A) (A) (A) (A) (A) (A) (A) (A) (A) (A)
                 (A) (A) (A) (A) (A) (A) (A) (A) (A) (A) (A) (A)
                 (A) (A) (A) (A) (A) (A) (A) (A) (A) (A) (A) (A)
                 (A) (A) (A) (A) (A) (A) (A) (A) (A) (A) (A) (A)
                 (A) (A) (A) (A) (A) (A) (A) (A) (A) (A) (A) (A)
                 (A) (A) (A) (A) (A) (A) (A) (A) (A) (A) (A) (A)
                 (A) (A) (A) (A) (A) (A) (A) (A) (A) (A) (A) (A)
                 (A) (A) (A) (A) (A) (A) (A) (A) (A) (A) (A) (A)
                 (A) (A) (A) (A) (A) (A) (A) (A) (A) (A) (A) (A)
                 (A) (A) (A) (A) (A) (A) (A) (A) (A) (A) (A) (A)
                 (A) (A) (A) (A) (A) (A) (A) (A) (A) (A) (A) (A)
                 (A) (A) (A) (A) (A) (A) (A) (A) (A) (A) (A) (A)
                 (A) (A) (A) (A) (A) (A) (A) (A) (A) (A) (A) (A)
                 (A) (A) (A) (A) (A) (A) (A) (A) (A) (A) (A) (A)
                 (A) (A) (A) (A) (A) (A) (A) (A) (A) (A) (A) (A)
                 (A) (A) (A) (A) (A) (A) (A) (A) (A) (A) (A) (A)
                 (A) (A) (A) (A) (A) (A) (A) (A) (A) (A) (A) (A)
                 (A) (A) (A) (A) (A) (A) (A) (A) (A) (A) (A) (A)
                 (A) (A) (A) (A) (A) (A) (A) (A) (A) (A) (A) (A)
                 (A) (A) (A) (A) (A) (A) (A) (A) (A) (A) (A) (A)
                 (A) (A) (A) (A) (A) (A) (A) (A) (A) (A) (A) (A)
                 (A) (A) (A) (A) (A) (A) (A) (A) (A) (A) (A) (A)
                 (A) (A) (A) (A) (A) (A) (A) (A) (A) (A) (A) (A)
                 (A) (A) (A) (A) (A) (A) (A) (A) (A) (A) (A) (A)
                 (A) (A) (A) (A) (A) (A) (A) (A) (A) (A) (A) (A)
                 (A) (A) (A) (A) (A) (A) (A) (A) (A) (A) (A) (A)
                 (A) (A) (A) (A) (A) (A) (A) (A) (A) (A) (A) (A)
                 (A) (A) (A) (A) (A) (A) (A) (A) (A) (A) (A) (A)
                 (A) (A) (A) (A) (A) (A) (A) (A) (A) (A) (A) (A)
                 (A) (A) (A) (A) (A) (A) (A) (A) (A) (A) (A) (A)
                 (A) (A) (A) (A) (A) (A) (A) (A) (A) (A) (A) (A)
                 (A) (A) (A) (A) (A) (A) (A) (A) (A) (A) (A) (A)
                 (A) (A) (A) (A) (A) (A) (A) (A) (A) (A) (A) (A)
                 (A) (A) (A) (A) (A) (A) (A) (A) (A) (A) (A) (A)
                 (A) (A) (A) (A) (A) (A) (A) (A) (A) (A) (A) (A)
                 (A) (A) (A) (A) (A) (A) (A) (A) (A) (A) (A) (A)
                 (A) (A) (A) (A) (A) (A) (A) (A) (A) (A) (A) (A)
                 (A) (A) (A) (A) (A) (A) (A) (A) (A) (A) (A) (A)
                 (A) (A) (A) (A) (A) (A) (A) (A) (A) (A) (A) (A)
                 (A) (A) (A) (A) (A) (A) (A) (A) (A) (A) (A) (A)
                 (A) (A) (A) (A) (A) (A) (A) (A) (A) (A) (A) (A)
                 (A) (A) (A) (A) (A) (A) (A) (A) (A) (A) (A) (A)
                 (A) (A) (A) (A) (A) (A) (A) (A) (A) (A) (A) (A)
                 (A) (A) (A) (A) (A) (A) (A) (A) (A) (A) (A) (A)
                 (A) (A) (A) (A) (A) (A) (A) (A) (A) (A) (A) (A)
                 (A) (A) (A) (A) (A) (A) (A) (A)
 The electronic state is 6-A.
 Alpha  occ. eigenvalues -- -256.47977 -89.10787 -30.28696 -26.11839 -26.10506
 Alpha  occ. eigenvalues --  -26.09410 -19.35132 -19.34008 -19.25474 -19.25058
 Alpha  occ. eigenvalues --  -14.50276 -14.49175 -14.49129 -14.48528 -10.43129
 Alpha  occ. eigenvalues --  -10.42815 -10.38688 -10.37573 -10.37487 -10.37464
 Alpha  occ. eigenvalues --  -10.37364 -10.37183 -10.37016 -10.36961 -10.36624
 Alpha  occ. eigenvalues --  -10.35884 -10.35613 -10.35448 -10.34238 -10.34067
 Alpha  occ. eigenvalues --  -10.33965 -10.33897 -10.33654 -10.33639 -10.33557
 Alpha  occ. eigenvalues --  -10.33454 -10.33273 -10.33244 -10.33082 -10.32843
 Alpha  occ. eigenvalues --  -10.32773 -10.32731 -10.32470 -10.31517 -10.31471
 Alpha  occ. eigenvalues --  -10.31422 -10.31161 -10.30989 -10.30604  -8.08937
 Alpha  occ. eigenvalues --   -6.02609  -6.02263  -6.01736  -3.71343  -2.50304
 Alpha  occ. eigenvalues --   -2.47389  -2.45016  -1.25574  -1.25176  -1.10674
 Alpha  occ. eigenvalues --   -1.10222  -1.10049  -1.09264  -1.09159  -1.07932
 Alpha  occ. eigenvalues --   -0.97564  -0.95548  -0.94804  -0.94382  -0.93387
 Alpha  occ. eigenvalues --   -0.92747  -0.92497  -0.90604  -0.90280  -0.89767
 Alpha  occ. eigenvalues --   -0.88750  -0.87953  -0.87181  -0.85463  -0.83757
 Alpha  occ. eigenvalues --   -0.83085  -0.82401  -0.80670  -0.80013  -0.78707
 Alpha  occ. eigenvalues --   -0.78133  -0.77285  -0.76174  -0.76031  -0.74671
 Alpha  occ. eigenvalues --   -0.74385  -0.73281  -0.70868  -0.69842  -0.67858
 Alpha  occ. eigenvalues --   -0.66709  -0.65828  -0.65146  -0.64187  -0.63796
 Alpha  occ. eigenvalues --   -0.63652  -0.62337  -0.61242  -0.60966  -0.60232
 Alpha  occ. eigenvalues --   -0.59789  -0.59693  -0.59069  -0.58886  -0.58417
 Alpha  occ. eigenvalues --   -0.57860  -0.57426  -0.56949  -0.56822  -0.56755
 Alpha  occ. eigenvalues --   -0.56132  -0.56017  -0.55678  -0.55225  -0.55094
 Alpha  occ. eigenvalues --   -0.55046  -0.54675  -0.54395  -0.54066  -0.53638
 Alpha  occ. eigenvalues --   -0.53520  -0.52957  -0.52844  -0.52663  -0.52331
 Alpha  occ. eigenvalues --   -0.52251  -0.51932  -0.51821  -0.51574  -0.51069
 Alpha  occ. eigenvalues --   -0.50974  -0.50820  -0.50739  -0.50141  -0.50126
 Alpha  occ. eigenvalues --   -0.49536  -0.49227  -0.49156  -0.48765  -0.48217
 Alpha  occ. eigenvalues --   -0.48118  -0.47995  -0.47388  -0.47003  -0.46458
 Alpha  occ. eigenvalues --   -0.46325  -0.45955  -0.45701  -0.44841  -0.44446
 Alpha  occ. eigenvalues --   -0.44292  -0.44067  -0.43703  -0.43258  -0.41785
 Alpha  occ. eigenvalues --   -0.40922  -0.40693  -0.40315  -0.40087  -0.38881
 Alpha  occ. eigenvalues --   -0.37953  -0.35894  -0.35588  -0.35235  -0.34754
 Alpha  occ. eigenvalues --   -0.34203  -0.34096  -0.31853  -0.31680  -0.31282
 Alpha  occ. eigenvalues --   -0.28995
 Alpha virt. eigenvalues --   -0.21420  -0.20302  -0.17492  -0.17015  -0.11132
 Alpha virt. eigenvalues --   -0.09160  -0.08221  -0.07564  -0.07172  -0.06643
 Alpha virt. eigenvalues --   -0.06048  -0.05265  -0.04790  -0.04112  -0.04006
 Alpha virt. eigenvalues --   -0.03670  -0.03466  -0.02731  -0.02522  -0.02113
 Alpha virt. eigenvalues --   -0.01415  -0.01269  -0.01067  -0.00639  -0.00437
 Alpha virt. eigenvalues --   -0.00111   0.00196   0.00816   0.00927   0.01132
 Alpha virt. eigenvalues --    0.01374   0.01967   0.02208   0.02305   0.02416
 Alpha virt. eigenvalues --    0.02603   0.03012   0.03208   0.03527   0.03713
 Alpha virt. eigenvalues --    0.03774   0.04112   0.04390   0.04662   0.04904
 Alpha virt. eigenvalues --    0.05021   0.05096   0.05381   0.05558   0.05827
 Alpha virt. eigenvalues --    0.06120   0.06174   0.06324   0.06487   0.06935
 Alpha virt. eigenvalues --    0.06965   0.07418   0.07814   0.07933   0.08075
 Alpha virt. eigenvalues --    0.08372   0.08429   0.08696   0.09088   0.09341
 Alpha virt. eigenvalues --    0.09594   0.09980   0.10288   0.10580   0.10866
 Alpha virt. eigenvalues --    0.10962   0.11226   0.11481   0.11636   0.11765
 Alpha virt. eigenvalues --    0.11904   0.12153   0.12273   0.12755   0.12822
 Alpha virt. eigenvalues --    0.13143   0.13294   0.13493   0.13621   0.13905
 Alpha virt. eigenvalues --    0.14437   0.14637   0.14789   0.14964   0.15085
 Alpha virt. eigenvalues --    0.15330   0.15434   0.15974   0.16085   0.16587
 Alpha virt. eigenvalues --    0.16833   0.16867   0.17120   0.17310   0.17488
 Alpha virt. eigenvalues --    0.17940   0.18064   0.18378   0.18579   0.18999
 Alpha virt. eigenvalues --    0.19463   0.19557   0.19712   0.19892   0.20163
 Alpha virt. eigenvalues --    0.20341   0.20649   0.20921   0.21060   0.21322
 Alpha virt. eigenvalues --    0.21650   0.21875   0.22244   0.22535   0.22839
 Alpha virt. eigenvalues --    0.22987   0.23235   0.23410   0.23756   0.23949
 Alpha virt. eigenvalues --    0.24259   0.24747   0.24833   0.25197   0.25412
 Alpha virt. eigenvalues --    0.25609   0.25676   0.26061   0.26127   0.26545
 Alpha virt. eigenvalues --    0.27121   0.27245   0.27482   0.27788   0.28005
 Alpha virt. eigenvalues --    0.28286   0.28493   0.28682   0.29303   0.29480
 Alpha virt. eigenvalues --    0.29620   0.29882   0.29962   0.30188   0.30532
 Alpha virt. eigenvalues --    0.30597   0.30864   0.31180   0.31334   0.31584
 Alpha virt. eigenvalues --    0.31776   0.32245   0.32280   0.32608   0.32878
 Alpha virt. eigenvalues --    0.33045   0.33383   0.33464   0.33797   0.33990
 Alpha virt. eigenvalues --    0.34180   0.34404   0.34596   0.34743   0.35136
 Alpha virt. eigenvalues --    0.35530   0.35581   0.35799   0.35979   0.36058
 Alpha virt. eigenvalues --    0.36332   0.36367   0.36502   0.36930   0.37023
 Alpha virt. eigenvalues --    0.37351   0.37729   0.37742   0.37863   0.37999
 Alpha virt. eigenvalues --    0.38152   0.38303   0.38379   0.38900   0.39032
 Alpha virt. eigenvalues --    0.39130   0.39329   0.39432   0.39628   0.39915
 Alpha virt. eigenvalues --    0.40116   0.40183   0.40547   0.40586   0.40871
 Alpha virt. eigenvalues --    0.41021   0.41271   0.41444   0.41555   0.42072
 Alpha virt. eigenvalues --    0.42220   0.42263   0.42491   0.42588   0.42858
 Alpha virt. eigenvalues --    0.43091   0.43191   0.43809   0.43919   0.44074
 Alpha virt. eigenvalues --    0.44179   0.44436   0.44721   0.44970   0.45128
 Alpha virt. eigenvalues --    0.45554   0.45657   0.46105   0.46158   0.46471
 Alpha virt. eigenvalues --    0.46810   0.47034   0.47110   0.47347   0.47818
 Alpha virt. eigenvalues --    0.48201   0.48218   0.48650   0.48824   0.49141
 Alpha virt. eigenvalues --    0.49463   0.49983   0.50300   0.50380   0.50735
 Alpha virt. eigenvalues --    0.50843   0.51055   0.51497   0.51690   0.52299
 Alpha virt. eigenvalues --    0.52552   0.52859   0.52884   0.53213   0.53496
 Alpha virt. eigenvalues --    0.53620   0.53800   0.53865   0.54387   0.54553
 Alpha virt. eigenvalues --    0.55083   0.55202   0.55417   0.55789   0.56089
 Alpha virt. eigenvalues --    0.56339   0.56564   0.56606   0.56915   0.57129
 Alpha virt. eigenvalues --    0.57355   0.57842   0.58335   0.58545   0.58554
 Alpha virt. eigenvalues --    0.58891   0.58971   0.59212   0.59225   0.59735
 Alpha virt. eigenvalues --    0.60067   0.60160   0.60655   0.60830   0.61338
 Alpha virt. eigenvalues --    0.61545   0.61621   0.61739   0.62229   0.62389
 Alpha virt. eigenvalues --    0.62693   0.63042   0.63135   0.63532   0.64157
 Alpha virt. eigenvalues --    0.64624   0.64983   0.65236   0.65592   0.65919
 Alpha virt. eigenvalues --    0.66330   0.66454   0.66811   0.67031   0.67294
 Alpha virt. eigenvalues --    0.67442   0.67726   0.68103   0.68530   0.69270
 Alpha virt. eigenvalues --    0.69472   0.69789   0.70089   0.70204   0.70466
 Alpha virt. eigenvalues --    0.70883   0.71724   0.72026   0.72583   0.72827
 Alpha virt. eigenvalues --    0.73320   0.73929   0.74190   0.74459   0.74734
 Alpha virt. eigenvalues --    0.75402   0.75736   0.76372   0.76523   0.76980
 Alpha virt. eigenvalues --    0.77354   0.77566   0.77791   0.77911   0.78360
 Alpha virt. eigenvalues --    0.78859   0.79259   0.79581   0.79763   0.80111
 Alpha virt. eigenvalues --    0.80276   0.80699   0.81198   0.81346   0.81693
 Alpha virt. eigenvalues --    0.81820   0.82236   0.82570   0.82670   0.83044
 Alpha virt. eigenvalues --    0.83522   0.83701   0.83924   0.84461   0.84681
 Alpha virt. eigenvalues --    0.84963   0.85465   0.85698   0.86334   0.86611
 Alpha virt. eigenvalues --    0.86839   0.86982   0.87086   0.87793   0.88069
 Alpha virt. eigenvalues --    0.88286   0.88474   0.88913   0.89117   0.89666
 Alpha virt. eigenvalues --    0.89811   0.90272   0.90452   0.90697   0.90953
 Alpha virt. eigenvalues --    0.91224   0.91610   0.91959   0.92485   0.92614
 Alpha virt. eigenvalues --    0.93088   0.93331   0.93561   0.93969   0.94175
 Alpha virt. eigenvalues --    0.94939   0.95252   0.95390   0.95827   0.96037
 Alpha virt. eigenvalues --    0.96447   0.96851   0.97050   0.97286   0.97739
 Alpha virt. eigenvalues --    0.97893   0.98090   0.98344   0.98904   0.99495
 Alpha virt. eigenvalues --    0.99520   1.00083   1.00509   1.00943   1.01058
 Alpha virt. eigenvalues --    1.01533   1.01673   1.02177   1.02652   1.02810
 Alpha virt. eigenvalues --    1.03295   1.03941   1.04485   1.04580   1.04901
 Alpha virt. eigenvalues --    1.05370   1.05618   1.06006   1.06772   1.07178
 Alpha virt. eigenvalues --    1.08052   1.08365   1.09299   1.09346   1.09637
 Alpha virt. eigenvalues --    1.10279   1.10621   1.10892   1.11634   1.11678
 Alpha virt. eigenvalues --    1.11984   1.12224   1.12481   1.13204   1.13436
 Alpha virt. eigenvalues --    1.13805   1.13973   1.14363   1.15021   1.15208
 Alpha virt. eigenvalues --    1.15474   1.15817   1.16014   1.17020   1.17773
 Alpha virt. eigenvalues --    1.18141   1.18455   1.18753   1.19202   1.19741
 Alpha virt. eigenvalues --    1.19917   1.20568   1.20758   1.20894   1.22081
 Alpha virt. eigenvalues --    1.22508   1.22891   1.23485   1.23841   1.24068
 Alpha virt. eigenvalues --    1.24747   1.25541   1.26125   1.26275   1.26612
 Alpha virt. eigenvalues --    1.27189   1.27415   1.28351   1.28553   1.28714
 Alpha virt. eigenvalues --    1.29064   1.30644   1.30872   1.31283   1.31662
 Alpha virt. eigenvalues --    1.31858   1.32657   1.33451   1.33830   1.33905
 Alpha virt. eigenvalues --    1.34115   1.34555   1.34982   1.35661   1.35911
 Alpha virt. eigenvalues --    1.36043   1.36440   1.36612   1.37117   1.37334
 Alpha virt. eigenvalues --    1.37840   1.38142   1.38274   1.38756   1.38994
 Alpha virt. eigenvalues --    1.39117   1.39526   1.39764   1.40112   1.40307
 Alpha virt. eigenvalues --    1.40935   1.41256   1.41765   1.42035   1.42306
 Alpha virt. eigenvalues --    1.42527   1.42850   1.43302   1.43394   1.43920
 Alpha virt. eigenvalues --    1.44248   1.44450   1.45048   1.45434   1.45806
 Alpha virt. eigenvalues --    1.45942   1.46731   1.46916   1.47248   1.47554
 Alpha virt. eigenvalues --    1.47706   1.47864   1.48039   1.48365   1.48406
 Alpha virt. eigenvalues --    1.48633   1.48915   1.49385   1.49550   1.49833
 Alpha virt. eigenvalues --    1.50058   1.50275   1.50351   1.50977   1.51310
 Alpha virt. eigenvalues --    1.51497   1.51717   1.52106   1.52380   1.52705
 Alpha virt. eigenvalues --    1.52999   1.53166   1.53614   1.53731   1.53902
 Alpha virt. eigenvalues --    1.54453   1.54595   1.54792   1.55088   1.55730
 Alpha virt. eigenvalues --    1.55853   1.56801   1.57015   1.57219   1.57600
 Alpha virt. eigenvalues --    1.57917   1.58322   1.58553   1.58727   1.59297
 Alpha virt. eigenvalues --    1.59422   1.59966   1.60177   1.60407   1.60738
 Alpha virt. eigenvalues --    1.61231   1.61547   1.61870   1.62660   1.62813
 Alpha virt. eigenvalues --    1.63280   1.63669   1.64019   1.64277   1.64574
 Alpha virt. eigenvalues --    1.64989   1.65300   1.65561   1.65678   1.66106
 Alpha virt. eigenvalues --    1.66723   1.67410   1.67978   1.68124   1.68509
 Alpha virt. eigenvalues --    1.69260   1.69572   1.69647   1.70404   1.70649
 Alpha virt. eigenvalues --    1.71252   1.71736   1.72240   1.72631   1.73503
 Alpha virt. eigenvalues --    1.73866   1.74222   1.74296   1.74946   1.75111
 Alpha virt. eigenvalues --    1.75331   1.75960   1.76599   1.76708   1.77047
 Alpha virt. eigenvalues --    1.77270   1.78044   1.78285   1.78639   1.78818
 Alpha virt. eigenvalues --    1.78962   1.79248   1.79898   1.80090   1.81146
 Alpha virt. eigenvalues --    1.81243   1.81905   1.82083   1.82950   1.83031
 Alpha virt. eigenvalues --    1.83350   1.83626   1.84087   1.84283   1.84715
 Alpha virt. eigenvalues --    1.85445   1.85931   1.86070   1.86341   1.86486
 Alpha virt. eigenvalues --    1.87143   1.87414   1.87893   1.88602   1.88716
 Alpha virt. eigenvalues --    1.89343   1.89621   1.90169   1.90569   1.90687
 Alpha virt. eigenvalues --    1.91512   1.92032   1.92404   1.92774   1.93514
 Alpha virt. eigenvalues --    1.93634   1.93987   1.94182   1.94746   1.94992
 Alpha virt. eigenvalues --    1.95243   1.95376   1.95903   1.96470   1.96585
 Alpha virt. eigenvalues --    1.96918   1.97268   1.97626   1.97942   1.98521
 Alpha virt. eigenvalues --    1.98940   1.99287   1.99606   2.00007   2.00096
 Alpha virt. eigenvalues --    2.00838   2.01351   2.01744   2.02236   2.02372
 Alpha virt. eigenvalues --    2.02736   2.03556   2.03855   2.04355   2.04604
 Alpha virt. eigenvalues --    2.04817   2.05229   2.05660   2.06177   2.06552
 Alpha virt. eigenvalues --    2.06809   2.07286   2.07831   2.07943   2.08187
 Alpha virt. eigenvalues --    2.08347   2.09168   2.09832   2.10602   2.10951
 Alpha virt. eigenvalues --    2.11293   2.11461   2.12303   2.12459   2.12696
 Alpha virt. eigenvalues --    2.13107   2.13687   2.14064   2.14595   2.15055
 Alpha virt. eigenvalues --    2.15710   2.15961   2.16337   2.16440   2.16785
 Alpha virt. eigenvalues --    2.17413   2.17830   2.18376   2.18926   2.19402
 Alpha virt. eigenvalues --    2.19791   2.20034   2.20420   2.21219   2.21409
 Alpha virt. eigenvalues --    2.21975   2.22263   2.22507   2.23069   2.23447
 Alpha virt. eigenvalues --    2.24113   2.24680   2.25526   2.26392   2.26766
 Alpha virt. eigenvalues --    2.27310   2.27473   2.27740   2.28049   2.28582
 Alpha virt. eigenvalues --    2.28904   2.28996   2.29363   2.29682   2.30063
 Alpha virt. eigenvalues --    2.30419   2.30966   2.31398   2.31867   2.32385
 Alpha virt. eigenvalues --    2.32878   2.33200   2.33362   2.33581   2.34027
 Alpha virt. eigenvalues --    2.34624   2.34825   2.35437   2.35755   2.35801
 Alpha virt. eigenvalues --    2.36455   2.36970   2.37360   2.37953   2.38366
 Alpha virt. eigenvalues --    2.39126   2.39526   2.41260   2.41519   2.41720
 Alpha virt. eigenvalues --    2.42405   2.42739   2.43326   2.44054   2.44459
 Alpha virt. eigenvalues --    2.44664   2.45120   2.45736   2.46020   2.46377
 Alpha virt. eigenvalues --    2.47022   2.47343   2.47583   2.48224   2.48249
 Alpha virt. eigenvalues --    2.48661   2.48724   2.48982   2.49460   2.49629
 Alpha virt. eigenvalues --    2.50168   2.50205   2.50693   2.51112   2.51198
 Alpha virt. eigenvalues --    2.51534   2.51716   2.52369   2.53214   2.53336
 Alpha virt. eigenvalues --    2.53841   2.53962   2.54647   2.54852   2.55183
 Alpha virt. eigenvalues --    2.55671   2.56147   2.56489   2.56786   2.56986
 Alpha virt. eigenvalues --    2.57338   2.58085   2.58111   2.58320   2.58908
 Alpha virt. eigenvalues --    2.59198   2.59422   2.60065   2.60440   2.61088
 Alpha virt. eigenvalues --    2.61522   2.61992   2.62250   2.62959   2.63042
 Alpha virt. eigenvalues --    2.63623   2.63814   2.63874   2.64391   2.65036
 Alpha virt. eigenvalues --    2.65189   2.65639   2.66216   2.66426   2.66477
 Alpha virt. eigenvalues --    2.66908   2.67125   2.67553   2.67731   2.68502
 Alpha virt. eigenvalues --    2.68571   2.69275   2.69556   2.69727   2.70229
 Alpha virt. eigenvalues --    2.70300   2.70537   2.70756   2.71427   2.71779
 Alpha virt. eigenvalues --    2.72002   2.72411   2.72946   2.73277   2.73983
 Alpha virt. eigenvalues --    2.74273   2.74349   2.74976   2.75338   2.75543
 Alpha virt. eigenvalues --    2.75814   2.76375   2.76549   2.76879   2.77497
 Alpha virt. eigenvalues --    2.77700   2.78131   2.78185   2.78837   2.79001
 Alpha virt. eigenvalues --    2.79871   2.80040   2.80745   2.80976   2.81139
 Alpha virt. eigenvalues --    2.81216   2.82010   2.82696   2.83144   2.83210
 Alpha virt. eigenvalues --    2.83313   2.83702   2.84436   2.84885   2.85034
 Alpha virt. eigenvalues --    2.85394   2.85954   2.86692   2.86881   2.87441
 Alpha virt. eigenvalues --    2.87956   2.88127   2.88618   2.88982   2.89350
 Alpha virt. eigenvalues --    2.89939   2.90034   2.90398   2.91047   2.91264
 Alpha virt. eigenvalues --    2.91505   2.91777   2.91949   2.92221   2.92911
 Alpha virt. eigenvalues --    2.93199   2.93650   2.94097   2.94398   2.94650
 Alpha virt. eigenvalues --    2.95165   2.95331   2.95537   2.96158   2.96572
 Alpha virt. eigenvalues --    2.96731   2.97245   2.97824   2.97882   2.98053
 Alpha virt. eigenvalues --    2.98608   2.99028   2.99270   2.99674   2.99890
 Alpha virt. eigenvalues --    3.00242   3.00314   3.00755   3.01032   3.01406
 Alpha virt. eigenvalues --    3.01556   3.01935   3.02077   3.02106   3.02689
 Alpha virt. eigenvalues --    3.02878   3.03370   3.03677   3.04021   3.04321
 Alpha virt. eigenvalues --    3.04788   3.04903   3.05397   3.05689   3.05951
 Alpha virt. eigenvalues --    3.06347   3.06691   3.07170   3.07340   3.07878
 Alpha virt. eigenvalues --    3.08460   3.08560   3.08707   3.09133   3.09535
 Alpha virt. eigenvalues --    3.09861   3.09900   3.10306   3.10635   3.10669
 Alpha virt. eigenvalues --    3.11434   3.11548   3.11906   3.12351   3.12717
 Alpha virt. eigenvalues --    3.12850   3.13089   3.13471   3.13527   3.14126
 Alpha virt. eigenvalues --    3.14557   3.14708   3.14894   3.15072   3.15372
 Alpha virt. eigenvalues --    3.15845   3.16353   3.16550   3.17057   3.17310
 Alpha virt. eigenvalues --    3.17405   3.17923   3.18319   3.18778   3.18994
 Alpha virt. eigenvalues --    3.19143   3.19444   3.19570   3.19761   3.20349
 Alpha virt. eigenvalues --    3.20480   3.20618   3.21325   3.21570   3.21927
 Alpha virt. eigenvalues --    3.22289   3.22355   3.22491   3.22867   3.23022
 Alpha virt. eigenvalues --    3.23548   3.23849   3.24031   3.24328   3.24947
 Alpha virt. eigenvalues --    3.25028   3.25536   3.25644   3.25910   3.26315
 Alpha virt. eigenvalues --    3.26815   3.26983   3.27142   3.27429   3.27644
 Alpha virt. eigenvalues --    3.28146   3.28232   3.28807   3.28996   3.29128
 Alpha virt. eigenvalues --    3.29424   3.29808   3.29907   3.30669   3.30808
 Alpha virt. eigenvalues --    3.31080   3.31448   3.31977   3.32035   3.32533
 Alpha virt. eigenvalues --    3.32835   3.33086   3.33520   3.33709   3.34003
 Alpha virt. eigenvalues --    3.34537   3.34773   3.35053   3.35399   3.35461
 Alpha virt. eigenvalues --    3.36107   3.36210   3.36461   3.36953   3.37735
 Alpha virt. eigenvalues --    3.37869   3.38160   3.38469   3.38619   3.39143
 Alpha virt. eigenvalues --    3.39574   3.39836   3.40283   3.40664   3.40932
 Alpha virt. eigenvalues --    3.41454   3.41653   3.42105   3.42413   3.42913
 Alpha virt. eigenvalues --    3.43487   3.43974   3.44251   3.44966   3.45200
 Alpha virt. eigenvalues --    3.45718   3.46044   3.46511   3.47201   3.47372
 Alpha virt. eigenvalues --    3.48034   3.48309   3.48719   3.48835   3.49110
 Alpha virt. eigenvalues --    3.49900   3.50009   3.50535   3.50601   3.51089
 Alpha virt. eigenvalues --    3.51294   3.51745   3.52447   3.52980   3.53332
 Alpha virt. eigenvalues --    3.53925   3.54048   3.54391   3.55020   3.55369
 Alpha virt. eigenvalues --    3.55887   3.55948   3.56795   3.57000   3.57534
 Alpha virt. eigenvalues --    3.57671   3.57934   3.58098   3.59012   3.59144
 Alpha virt. eigenvalues --    3.59347   3.60182   3.60395   3.60701   3.61341
 Alpha virt. eigenvalues --    3.61842   3.62445   3.62866   3.63400   3.63855
 Alpha virt. eigenvalues --    3.64104   3.64221   3.64728   3.65161   3.65627
 Alpha virt. eigenvalues --    3.66288   3.66755   3.67351   3.67586   3.68562
 Alpha virt. eigenvalues --    3.68789   3.69160   3.70174   3.70518   3.71010
 Alpha virt. eigenvalues --    3.71601   3.72122   3.72341   3.72644   3.73553
 Alpha virt. eigenvalues --    3.74400   3.74517   3.75300   3.75772   3.75953
 Alpha virt. eigenvalues --    3.76976   3.77464   3.78205   3.79378   3.79637
 Alpha virt. eigenvalues --    3.80114   3.81686   3.82074   3.82655   3.82929
 Alpha virt. eigenvalues --    3.83336   3.84016   3.84132   3.85278   3.85511
 Alpha virt. eigenvalues --    3.85795   3.86057   3.86706   3.86850   3.87815
 Alpha virt. eigenvalues --    3.88411   3.89444   3.89841   3.90531   3.90650
 Alpha virt. eigenvalues --    3.91166   3.91513   3.92213   3.92478   3.93011
 Alpha virt. eigenvalues --    3.93317   3.93917   3.94481   3.94735   3.95401
 Alpha virt. eigenvalues --    3.96156   3.96908   3.97100   3.97502   3.97942
 Alpha virt. eigenvalues --    3.98914   3.99282   3.99887   4.00501   4.01099
 Alpha virt. eigenvalues --    4.01659   4.01848   4.02300   4.02611   4.03175
 Alpha virt. eigenvalues --    4.03777   4.03872   4.04967   4.05191   4.05757
 Alpha virt. eigenvalues --    4.06849   4.07466   4.08023   4.08225   4.08609
 Alpha virt. eigenvalues --    4.09300   4.09831   4.10410   4.10639   4.11700
 Alpha virt. eigenvalues --    4.12199   4.12833   4.13550   4.13788   4.14713
 Alpha virt. eigenvalues --    4.15507   4.15666   4.16149   4.17614   4.18112
 Alpha virt. eigenvalues --    4.18669   4.18971   4.20498   4.20903   4.21422
 Alpha virt. eigenvalues --    4.21916   4.22599   4.23483   4.24657   4.25166
 Alpha virt. eigenvalues --    4.25555   4.25892   4.26513   4.27289   4.27753
 Alpha virt. eigenvalues --    4.28389   4.28912   4.29419   4.30124   4.30816
 Alpha virt. eigenvalues --    4.31195   4.31445   4.31944   4.32988   4.33386
 Alpha virt. eigenvalues --    4.33897   4.34760   4.35197   4.36505   4.36787
 Alpha virt. eigenvalues --    4.37637   4.38106   4.38900   4.39673   4.40325
 Alpha virt. eigenvalues --    4.41205   4.41508   4.42090   4.42643   4.43435
 Alpha virt. eigenvalues --    4.44113   4.45254   4.45729   4.47172   4.47527
 Alpha virt. eigenvalues --    4.48099   4.48635   4.49108   4.50006   4.50831
 Alpha virt. eigenvalues --    4.52765   4.52888   4.53424   4.53992   4.54742
 Alpha virt. eigenvalues --    4.55632   4.56556   4.57538   4.58237   4.58732
 Alpha virt. eigenvalues --    4.59163   4.59944   4.60589   4.60798   4.62661
 Alpha virt. eigenvalues --    4.63487   4.64473   4.65617   4.66033   4.66482
 Alpha virt. eigenvalues --    4.66949   4.67570   4.68058   4.68708   4.69502
 Alpha virt. eigenvalues --    4.70902   4.71314   4.71840   4.72749   4.73313
 Alpha virt. eigenvalues --    4.74243   4.75374   4.76385   4.77767   4.78342
 Alpha virt. eigenvalues --    4.79675   4.80015   4.80622   4.80837   4.81552
 Alpha virt. eigenvalues --    4.82847   4.83461   4.84631   4.85233   4.86390
 Alpha virt. eigenvalues --    4.87461   4.88134   4.89302   4.89771   4.89901
 Alpha virt. eigenvalues --    4.90671   4.92638   4.93822   4.96801   4.98667
 Alpha virt. eigenvalues --    5.01287   5.01683   5.02495   5.03830   5.04702
 Alpha virt. eigenvalues --    5.05010   5.06499   5.07087   5.08583   5.09554
 Alpha virt. eigenvalues --    5.10280   5.10361   5.11064   5.11898   5.12694
 Alpha virt. eigenvalues --    5.13865   5.14387   5.15462   5.16566   5.17770
 Alpha virt. eigenvalues --    5.18005   5.20072   5.20686   5.21340   5.21531
 Alpha virt. eigenvalues --    5.22175   5.23423   5.24118   5.25089   5.26361
 Alpha virt. eigenvalues --    5.29008   5.30513   5.32002   5.33421   5.34225
 Alpha virt. eigenvalues --    5.35105   5.36871   5.38328   5.38548   5.41638
 Alpha virt. eigenvalues --    5.44313   5.44712   5.46392   5.47090   5.48508
 Alpha virt. eigenvalues --    5.49204   5.50241   5.51450   5.52415   5.53238
 Alpha virt. eigenvalues --    5.55512   5.57671   5.59146   5.60750   5.61192
 Alpha virt. eigenvalues --    5.62067   5.63186   5.64133   5.68680   5.70203
 Alpha virt. eigenvalues --    5.70971   5.73123   5.73997   5.76659   5.81940
 Alpha virt. eigenvalues --    5.83673   5.84338   5.85016   5.86902   5.91367
 Alpha virt. eigenvalues --    5.92947   5.93482   5.95621   6.00249   6.01275
 Alpha virt. eigenvalues --    6.02906   6.08923   6.11179   6.11886   6.17333
 Alpha virt. eigenvalues --    6.17767   6.23735   6.24195   6.24738   6.26944
 Alpha virt. eigenvalues --    6.28164   6.36099   6.36736   6.39334   6.41336
 Alpha virt. eigenvalues --    6.45897   6.46828   6.57390   6.60997   6.68936
 Alpha virt. eigenvalues --    6.70295   6.76199   6.76445   6.86852   6.87625
 Alpha virt. eigenvalues --    6.94792   6.96272   7.05549   7.06859   7.09054
 Alpha virt. eigenvalues --    7.09722   7.23415   7.25797   8.88712   9.07152
 Alpha virt. eigenvalues --    9.27569  19.41221  22.27695  22.31839  22.34292
 Alpha virt. eigenvalues --   22.46174  22.47202  22.48279  22.49689  22.55841
 Alpha virt. eigenvalues --   22.60060  22.63523  22.65001  22.66304  22.69180
 Alpha virt. eigenvalues --   22.76142  22.77858  22.79192  22.80415  22.84539
 Alpha virt. eigenvalues --   22.90668  22.91733  23.00417  23.09008  23.13273
 Alpha virt. eigenvalues --   23.20192  23.23420  23.26957  23.37667  23.42611
 Alpha virt. eigenvalues --   23.50260  23.53096  23.54615  23.61253  23.64588
 Alpha virt. eigenvalues --   23.66652  23.72480  32.73752  32.76085  32.78498
 Alpha virt. eigenvalues --   32.84369  43.86166  43.88013  43.91103  43.93175
  Beta  occ. eigenvalues -- -256.47851 -89.10766 -30.20425 -26.04030 -26.03733
  Beta  occ. eigenvalues --  -26.03157 -19.35132 -19.34008 -19.25472 -19.25058
  Beta  occ. eigenvalues --  -14.50172 -14.49056 -14.49007 -14.48392 -10.43128
  Beta  occ. eigenvalues --  -10.42815 -10.38649 -10.37921 -10.37412 -10.37400
  Beta  occ. eigenvalues --  -10.37296 -10.37023 -10.36942 -10.36831 -10.36574
  Beta  occ. eigenvalues --  -10.35951 -10.35542 -10.34163 -10.34061 -10.33981
  Beta  occ. eigenvalues --  -10.33952 -10.33835 -10.33773 -10.33751 -10.33581
  Beta  occ. eigenvalues --  -10.33413 -10.33304 -10.33165 -10.33064 -10.32817
  Beta  occ. eigenvalues --  -10.32811 -10.32734 -10.32470 -10.31519 -10.31467
  Beta  occ. eigenvalues --  -10.31418 -10.31167 -10.30990 -10.30606  -8.08911
  Beta  occ. eigenvalues --   -6.02594  -6.02227  -6.01708  -3.51185  -2.26581
  Beta  occ. eigenvalues --   -2.25682  -2.25425  -1.25574  -1.25176  -1.10465
  Beta  occ. eigenvalues --   -1.10220  -1.10049  -1.09008  -1.08884  -1.07661
  Beta  occ. eigenvalues --   -0.97354  -0.95417  -0.94598  -0.94272  -0.93332
  Beta  occ. eigenvalues --   -0.92625  -0.92389  -0.90244  -0.89937  -0.89516
  Beta  occ. eigenvalues --   -0.88629  -0.87742  -0.87195  -0.85041  -0.83507
  Beta  occ. eigenvalues --   -0.83054  -0.82374  -0.80535  -0.79944  -0.78576
  Beta  occ. eigenvalues --   -0.77816  -0.77124  -0.75956  -0.75421  -0.74599
  Beta  occ. eigenvalues --   -0.74267  -0.73117  -0.70653  -0.69631  -0.67637
  Beta  occ. eigenvalues --   -0.66560  -0.65657  -0.64723  -0.64009  -0.63579
  Beta  occ. eigenvalues --   -0.63334  -0.61898  -0.60941  -0.60704  -0.60130
  Beta  occ. eigenvalues --   -0.59700  -0.59266  -0.59041  -0.58753  -0.58202
  Beta  occ. eigenvalues --   -0.57670  -0.57217  -0.56713  -0.56581  -0.56431
  Beta  occ. eigenvalues --   -0.56079  -0.55771  -0.55505  -0.55007  -0.54890
  Beta  occ. eigenvalues --   -0.54778  -0.54250  -0.54141  -0.53727  -0.53538
  Beta  occ. eigenvalues --   -0.53104  -0.52582  -0.52389  -0.52172  -0.52064
  Beta  occ. eigenvalues --   -0.51685  -0.51329  -0.51191  -0.51090  -0.50805
  Beta  occ. eigenvalues --   -0.50706  -0.50418  -0.49943  -0.49367  -0.49092
  Beta  occ. eigenvalues --   -0.48942  -0.48633  -0.48373  -0.48054  -0.47899
  Beta  occ. eigenvalues --   -0.47501  -0.46558  -0.46154  -0.45770  -0.44906
  Beta  occ. eigenvalues --   -0.44415  -0.44186  -0.44118  -0.43445  -0.42736
  Beta  occ. eigenvalues --   -0.42407  -0.42020  -0.40718  -0.40173  -0.39868
  Beta  occ. eigenvalues --   -0.39114  -0.37898  -0.36357  -0.35765  -0.34984
  Beta  occ. eigenvalues --   -0.34538  -0.34086  -0.32275  -0.31450  -0.30354
  Beta  occ. eigenvalues --   -0.29053
  Beta virt. eigenvalues --   -0.25057  -0.20643  -0.18666  -0.16860  -0.16454
  Beta virt. eigenvalues --   -0.14604  -0.13062  -0.12335  -0.10875  -0.09139
  Beta virt. eigenvalues --   -0.08183  -0.07007  -0.06641  -0.06469  -0.06439
  Beta virt. eigenvalues --   -0.05494  -0.05063  -0.04569  -0.03756  -0.03568
  Beta virt. eigenvalues --   -0.03298  -0.03008  -0.02485  -0.02374  -0.01802
  Beta virt. eigenvalues --   -0.01261  -0.01019  -0.00954  -0.00502  -0.00028
  Beta virt. eigenvalues --    0.00230   0.00499   0.00979   0.01126   0.01319
  Beta virt. eigenvalues --    0.01531   0.02044   0.02441   0.02518   0.02605
  Beta virt. eigenvalues --    0.02800   0.03255   0.03325   0.03621   0.03844
  Beta virt. eigenvalues --    0.04065   0.04304   0.04494   0.04782   0.05006
  Beta virt. eigenvalues --    0.05082   0.05214   0.05568   0.05650   0.05930
  Beta virt. eigenvalues --    0.06255   0.06358   0.06461   0.06680   0.07088
  Beta virt. eigenvalues --    0.07353   0.07761   0.07994   0.08275   0.08388
  Beta virt. eigenvalues --    0.08525   0.08556   0.08978   0.09213   0.09424
  Beta virt. eigenvalues --    0.09644   0.10218   0.10392   0.10538   0.10873
  Beta virt. eigenvalues --    0.11172   0.11353   0.11637   0.11811   0.11897
  Beta virt. eigenvalues --    0.12158   0.12164   0.12437   0.12850   0.13166
  Beta virt. eigenvalues --    0.13296   0.13447   0.13764   0.14091   0.14137
  Beta virt. eigenvalues --    0.14624   0.14935   0.14987   0.15245   0.15549
  Beta virt. eigenvalues --    0.15657   0.15940   0.16382   0.16672   0.16841
  Beta virt. eigenvalues --    0.17002   0.17033   0.17408   0.17573   0.17744
  Beta virt. eigenvalues --    0.18077   0.18296   0.18496   0.18808   0.19075
  Beta virt. eigenvalues --    0.19641   0.19711   0.19889   0.20103   0.20288
  Beta virt. eigenvalues --    0.20523   0.20914   0.21008   0.21178   0.21502
  Beta virt. eigenvalues --    0.21791   0.22234   0.22483   0.22921   0.23073
  Beta virt. eigenvalues --    0.23367   0.23461   0.23552   0.23924   0.24156
  Beta virt. eigenvalues --    0.24432   0.24935   0.25196   0.25354   0.25644
  Beta virt. eigenvalues --    0.25831   0.25907   0.26249   0.26456   0.26735
  Beta virt. eigenvalues --    0.27268   0.27406   0.27621   0.28042   0.28173
  Beta virt. eigenvalues --    0.28573   0.28674   0.28886   0.29396   0.29615
  Beta virt. eigenvalues --    0.29751   0.30071   0.30147   0.30563   0.30706
  Beta virt. eigenvalues --    0.30805   0.31049   0.31323   0.31625   0.31747
  Beta virt. eigenvalues --    0.31891   0.32350   0.32490   0.32716   0.32994
  Beta virt. eigenvalues --    0.33174   0.33466   0.33712   0.34025   0.34154
  Beta virt. eigenvalues --    0.34398   0.34581   0.34747   0.34875   0.35364
  Beta virt. eigenvalues --    0.35642   0.35856   0.36057   0.36187   0.36303
  Beta virt. eigenvalues --    0.36546   0.36622   0.36767   0.37110   0.37188
  Beta virt. eigenvalues --    0.37453   0.37847   0.37873   0.37955   0.38185
  Beta virt. eigenvalues --    0.38267   0.38441   0.38620   0.39083   0.39130
  Beta virt. eigenvalues --    0.39292   0.39551   0.39583   0.39756   0.40104
  Beta virt. eigenvalues --    0.40241   0.40357   0.40670   0.40891   0.40980
  Beta virt. eigenvalues --    0.41243   0.41364   0.41590   0.41811   0.42213
  Beta virt. eigenvalues --    0.42339   0.42423   0.42648   0.42817   0.43015
  Beta virt. eigenvalues --    0.43238   0.43321   0.43980   0.44035   0.44280
  Beta virt. eigenvalues --    0.44426   0.44590   0.44857   0.45095   0.45328
  Beta virt. eigenvalues --    0.45674   0.45764   0.46238   0.46534   0.46686
  Beta virt. eigenvalues --    0.46901   0.47277   0.47327   0.47496   0.47992
  Beta virt. eigenvalues --    0.48349   0.48402   0.48818   0.49057   0.49234
  Beta virt. eigenvalues --    0.49653   0.50163   0.50390   0.50587   0.50905
  Beta virt. eigenvalues --    0.51057   0.51232   0.51697   0.51866   0.52429
  Beta virt. eigenvalues --    0.52774   0.53019   0.53054   0.53424   0.53689
  Beta virt. eigenvalues --    0.53813   0.53917   0.53999   0.54635   0.54754
  Beta virt. eigenvalues --    0.55304   0.55492   0.55544   0.56025   0.56277
  Beta virt. eigenvalues --    0.56488   0.56733   0.56863   0.57057   0.57440
  Beta virt. eigenvalues --    0.57504   0.57998   0.58488   0.58652   0.58662
  Beta virt. eigenvalues --    0.58994   0.59126   0.59331   0.59477   0.60205
  Beta virt. eigenvalues --    0.60269   0.60526   0.60802   0.61092   0.61510
  Beta virt. eigenvalues --    0.61679   0.61790   0.62056   0.62418   0.62606
  Beta virt. eigenvalues --    0.62875   0.63142   0.63634   0.63637   0.64297
  Beta virt. eigenvalues --    0.64738   0.65104   0.65340   0.65677   0.66050
  Beta virt. eigenvalues --    0.66491   0.66635   0.66902   0.67176   0.67383
  Beta virt. eigenvalues --    0.67701   0.67960   0.68250   0.68806   0.69409
  Beta virt. eigenvalues --    0.69660   0.69922   0.70296   0.70487   0.70577
  Beta virt. eigenvalues --    0.70973   0.71823   0.72098   0.72768   0.72937
  Beta virt. eigenvalues --    0.73411   0.74018   0.74477   0.74612   0.74828
  Beta virt. eigenvalues --    0.75479   0.75885   0.76480   0.76619   0.77083
  Beta virt. eigenvalues --    0.77545   0.77712   0.77971   0.78095   0.78459
  Beta virt. eigenvalues --    0.78918   0.79453   0.79706   0.79980   0.80196
  Beta virt. eigenvalues --    0.80451   0.80818   0.81275   0.81459   0.81901
  Beta virt. eigenvalues --    0.82217   0.82446   0.82729   0.82949   0.83243
  Beta virt. eigenvalues --    0.83792   0.83952   0.84114   0.84706   0.84877
  Beta virt. eigenvalues --    0.85053   0.85728   0.85863   0.86559   0.86797
  Beta virt. eigenvalues --    0.86981   0.87108   0.87274   0.87933   0.88306
  Beta virt. eigenvalues --    0.88458   0.88639   0.89101   0.89286   0.89876
  Beta virt. eigenvalues --    0.90037   0.90553   0.90841   0.91063   0.91363
  Beta virt. eigenvalues --    0.91461   0.91999   0.92110   0.92623   0.93060
  Beta virt. eigenvalues --    0.93232   0.93748   0.93842   0.94388   0.94701
  Beta virt. eigenvalues --    0.95259   0.95593   0.95823   0.96160   0.96369
  Beta virt. eigenvalues --    0.96685   0.97031   0.97438   0.97735   0.98182
  Beta virt. eigenvalues --    0.98258   0.98583   0.98747   0.99172   0.99713
  Beta virt. eigenvalues --    1.00062   1.00323   1.00875   1.01168   1.01443
  Beta virt. eigenvalues --    1.01804   1.02078   1.02461   1.02850   1.03147
  Beta virt. eigenvalues --    1.03666   1.04152   1.04824   1.04924   1.05161
  Beta virt. eigenvalues --    1.05984   1.06209   1.06764   1.07130   1.07622
  Beta virt. eigenvalues --    1.08303   1.08617   1.09577   1.09713   1.09889
  Beta virt. eigenvalues --    1.10649   1.10878   1.11099   1.12021   1.12095
  Beta virt. eigenvalues --    1.12221   1.12466   1.12661   1.13517   1.13713
  Beta virt. eigenvalues --    1.14034   1.14350   1.14665   1.15272   1.15475
  Beta virt. eigenvalues --    1.15782   1.15969   1.16487   1.17138   1.17989
  Beta virt. eigenvalues --    1.18536   1.18560   1.19086   1.19322   1.20022
  Beta virt. eigenvalues --    1.20118   1.20699   1.21022   1.21131   1.22250
  Beta virt. eigenvalues --    1.22662   1.22984   1.23540   1.23966   1.24295
  Beta virt. eigenvalues --    1.24923   1.25645   1.26326   1.26730   1.26791
  Beta virt. eigenvalues --    1.27425   1.27634   1.28543   1.28747   1.29007
  Beta virt. eigenvalues --    1.29270   1.30842   1.31107   1.31368   1.31915
  Beta virt. eigenvalues --    1.32234   1.32930   1.33596   1.34007   1.34160
  Beta virt. eigenvalues --    1.34379   1.34895   1.35213   1.35858   1.36211
  Beta virt. eigenvalues --    1.36376   1.36690   1.37124   1.37275   1.37632
  Beta virt. eigenvalues --    1.38018   1.38304   1.38577   1.38911   1.39138
  Beta virt. eigenvalues --    1.39395   1.39881   1.40033   1.40285   1.40488
  Beta virt. eigenvalues --    1.41288   1.41524   1.42087   1.42283   1.42614
  Beta virt. eigenvalues --    1.42841   1.43223   1.43396   1.43769   1.44208
  Beta virt. eigenvalues --    1.44422   1.44760   1.45114   1.45633   1.45936
  Beta virt. eigenvalues --    1.46444   1.47019   1.47027   1.47404   1.47541
  Beta virt. eigenvalues --    1.47725   1.47966   1.48168   1.48486   1.48738
  Beta virt. eigenvalues --    1.48749   1.49424   1.49502   1.49794   1.49870
  Beta virt. eigenvalues --    1.50215   1.50433   1.50500   1.51148   1.51454
  Beta virt. eigenvalues --    1.51604   1.51871   1.52240   1.52600   1.52912
  Beta virt. eigenvalues --    1.53184   1.53320   1.53767   1.53884   1.54074
  Beta virt. eigenvalues --    1.54725   1.54839   1.55169   1.55249   1.55806
  Beta virt. eigenvalues --    1.56189   1.56991   1.57177   1.57512   1.57847
  Beta virt. eigenvalues --    1.58151   1.58437   1.58629   1.58970   1.59393
  Beta virt. eigenvalues --    1.59507   1.60120   1.60307   1.60513   1.60900
  Beta virt. eigenvalues --    1.61394   1.61684   1.62019   1.62774   1.62903
  Beta virt. eigenvalues --    1.63417   1.63949   1.64392   1.64524   1.64826
  Beta virt. eigenvalues --    1.65129   1.65510   1.65677   1.65831   1.66202
  Beta virt. eigenvalues --    1.66858   1.67514   1.68135   1.68349   1.68681
  Beta virt. eigenvalues --    1.69537   1.69796   1.69873   1.70667   1.70791
  Beta virt. eigenvalues --    1.71489   1.72027   1.72429   1.72827   1.73784
  Beta virt. eigenvalues --    1.74040   1.74486   1.74530   1.75076   1.75623
  Beta virt. eigenvalues --    1.75798   1.76208   1.76818   1.77087   1.77220
  Beta virt. eigenvalues --    1.77452   1.78288   1.78442   1.78799   1.78984
  Beta virt. eigenvalues --    1.79108   1.79416   1.80123   1.80244   1.81344
  Beta virt. eigenvalues --    1.81418   1.82040   1.82327   1.83041   1.83219
  Beta virt. eigenvalues --    1.83499   1.83866   1.84447   1.84670   1.84948
  Beta virt. eigenvalues --    1.85559   1.86162   1.86217   1.86434   1.86740
  Beta virt. eigenvalues --    1.87258   1.87710   1.88132   1.88734   1.88957
  Beta virt. eigenvalues --    1.89553   1.89950   1.90395   1.90779   1.90879
  Beta virt. eigenvalues --    1.91738   1.92215   1.92703   1.92957   1.93900
  Beta virt. eigenvalues --    1.93965   1.94252   1.94323   1.95050   1.95249
  Beta virt. eigenvalues --    1.95458   1.95524   1.96116   1.96686   1.96969
  Beta virt. eigenvalues --    1.97117   1.97537   1.97906   1.98058   1.98690
  Beta virt. eigenvalues --    1.99231   1.99450   1.99947   2.00120   2.00520
  Beta virt. eigenvalues --    2.01203   2.01569   2.02113   2.02458   2.02542
  Beta virt. eigenvalues --    2.02847   2.03711   2.04188   2.04568   2.04686
  Beta virt. eigenvalues --    2.04961   2.05373   2.05764   2.06457   2.06706
  Beta virt. eigenvalues --    2.06978   2.07391   2.07960   2.08222   2.08353
  Beta virt. eigenvalues --    2.08433   2.09318   2.09999   2.10804   2.11144
  Beta virt. eigenvalues --    2.11432   2.11595   2.12456   2.12598   2.12814
  Beta virt. eigenvalues --    2.13364   2.13811   2.14373   2.14692   2.15369
  Beta virt. eigenvalues --    2.15963   2.16101   2.16551   2.16685   2.16994
  Beta virt. eigenvalues --    2.17529   2.17917   2.18675   2.19361   2.19676
  Beta virt. eigenvalues --    2.19966   2.20133   2.20532   2.21442   2.21696
  Beta virt. eigenvalues --    2.22326   2.22554   2.22852   2.23445   2.23603
  Beta virt. eigenvalues --    2.24409   2.25112   2.25604   2.26560   2.27105
  Beta virt. eigenvalues --    2.27635   2.27683   2.27952   2.28389   2.28744
  Beta virt. eigenvalues --    2.29176   2.29231   2.29524   2.30008   2.30318
  Beta virt. eigenvalues --    2.30612   2.31152   2.31577   2.32015   2.32533
  Beta virt. eigenvalues --    2.33152   2.33482   2.33545   2.33906   2.34257
  Beta virt. eigenvalues --    2.34893   2.35015   2.35728   2.36033   2.36216
  Beta virt. eigenvalues --    2.36621   2.37045   2.37673   2.38219   2.38609
  Beta virt. eigenvalues --    2.39437   2.39807   2.41449   2.41610   2.41844
  Beta virt. eigenvalues --    2.42584   2.42970   2.43482   2.44195   2.44649
  Beta virt. eigenvalues --    2.44929   2.45229   2.45878   2.46088   2.46520
  Beta virt. eigenvalues --    2.47143   2.47478   2.47778   2.48292   2.48362
  Beta virt. eigenvalues --    2.48764   2.48881   2.49133   2.49578   2.49700
  Beta virt. eigenvalues --    2.50281   2.50427   2.50862   2.51218   2.51322
  Beta virt. eigenvalues --    2.51688   2.51889   2.52461   2.53373   2.53429
  Beta virt. eigenvalues --    2.53999   2.54130   2.54806   2.54958   2.55324
  Beta virt. eigenvalues --    2.55806   2.56270   2.56597   2.56983   2.57208
  Beta virt. eigenvalues --    2.57605   2.58192   2.58389   2.58620   2.59108
  Beta virt. eigenvalues --    2.59452   2.59535   2.60456   2.60792   2.61395
  Beta virt. eigenvalues --    2.61744   2.62339   2.62486   2.63175   2.63471
  Beta virt. eigenvalues --    2.63799   2.64025   2.64094   2.64487   2.65298
  Beta virt. eigenvalues --    2.65656   2.65836   2.66503   2.66529   2.66929
  Beta virt. eigenvalues --    2.67224   2.67484   2.67639   2.68210   2.68692
  Beta virt. eigenvalues --    2.69163   2.69494   2.69910   2.69976   2.70323
  Beta virt. eigenvalues --    2.70573   2.70649   2.71143   2.71493   2.71870
  Beta virt. eigenvalues --    2.72148   2.72638   2.73160   2.73456   2.74096
  Beta virt. eigenvalues --    2.74448   2.74706   2.75178   2.75502   2.75821
  Beta virt. eigenvalues --    2.76012   2.76604   2.76646   2.77043   2.77783
  Beta virt. eigenvalues --    2.77914   2.78370   2.78649   2.78950   2.79173
  Beta virt. eigenvalues --    2.79748   2.80098   2.80926   2.81114   2.81295
  Beta virt. eigenvalues --    2.81858   2.82246   2.82805   2.83265   2.83344
  Beta virt. eigenvalues --    2.83430   2.83886   2.84562   2.85007   2.85345
  Beta virt. eigenvalues --    2.85633   2.86234   2.86945   2.87123   2.87835
  Beta virt. eigenvalues --    2.88272   2.88327   2.88786   2.89292   2.89646
  Beta virt. eigenvalues --    2.90088   2.90230   2.90691   2.91134   2.91415
  Beta virt. eigenvalues --    2.91823   2.92022   2.92199   2.92372   2.93108
  Beta virt. eigenvalues --    2.93439   2.93996   2.94227   2.94517   2.94921
  Beta virt. eigenvalues --    2.95273   2.95751   2.95768   2.96373   2.96794
  Beta virt. eigenvalues --    2.97085   2.97381   2.98130   2.98176   2.98465
  Beta virt. eigenvalues --    2.98694   2.99442   2.99495   3.00054   3.00127
  Beta virt. eigenvalues --    3.00448   3.00692   3.01234   3.01305   3.01596
  Beta virt. eigenvalues --    3.01942   3.02073   3.02271   3.02649   3.02911
  Beta virt. eigenvalues --    3.03034   3.03625   3.03823   3.04293   3.04488
  Beta virt. eigenvalues --    3.05083   3.05224   3.05684   3.05916   3.06063
  Beta virt. eigenvalues --    3.06688   3.06863   3.07378   3.07672   3.08363
  Beta virt. eigenvalues --    3.08587   3.08669   3.08932   3.09358   3.09671
  Beta virt. eigenvalues --    3.09989   3.10148   3.10527   3.10873   3.10896
  Beta virt. eigenvalues --    3.11578   3.11896   3.12140   3.12493   3.12875
  Beta virt. eigenvalues --    3.12995   3.13409   3.13542   3.13836   3.14208
  Beta virt. eigenvalues --    3.14737   3.14915   3.15068   3.15330   3.15696
  Beta virt. eigenvalues --    3.15946   3.16532   3.16608   3.17124   3.17466
  Beta virt. eigenvalues --    3.17583   3.18208   3.18522   3.18909   3.19179
  Beta virt. eigenvalues --    3.19306   3.19554   3.19809   3.19981   3.20519
  Beta virt. eigenvalues --    3.20791   3.20914   3.21502   3.21737   3.22141
  Beta virt. eigenvalues --    3.22426   3.22579   3.22706   3.22983   3.23201
  Beta virt. eigenvalues --    3.23677   3.23986   3.24197   3.24557   3.25130
  Beta virt. eigenvalues --    3.25277   3.25715   3.25979   3.26144   3.26533
  Beta virt. eigenvalues --    3.26908   3.27143   3.27266   3.27632   3.27888
  Beta virt. eigenvalues --    3.28367   3.28455   3.28910   3.29041   3.29268
  Beta virt. eigenvalues --    3.29562   3.29980   3.30106   3.30754   3.31001
  Beta virt. eigenvalues --    3.31325   3.31742   3.32162   3.32218   3.32681
  Beta virt. eigenvalues --    3.32991   3.33250   3.33710   3.33965   3.34145
  Beta virt. eigenvalues --    3.34742   3.35019   3.35157   3.35546   3.35699
  Beta virt. eigenvalues --    3.36242   3.36495   3.36651   3.37157   3.37921
  Beta virt. eigenvalues --    3.38195   3.38609   3.38810   3.38961   3.39420
[...]
  1522. RY*(   3) H  79                  0.00004     2.23003   
  1523. RY*(   4) H  79                  0.00001     2.06500   
  1524. RY*(   5) H  79                  0.00001     2.91552   
  1525. RY*(   1) H  80                  0.00045     1.00184   
  1526. RY*(   2) H  80                  0.00015     1.29381   
  1527. RY*(   3) H  80                  0.00001     2.41893   
  1528. RY*(   4) H  80                  0.00001     2.15531   
  1529. RY*(   5) H  80                  0.00002     2.69262   
  1530. RY*(   1) H  81                  0.00054     1.28724   
  1531. RY*(   2) H  81                  0.00010     1.95586   
  1532. RY*(   3) H  81                  0.00008     1.58831   
  1533. RY*(   4) H  81                  0.00004     2.74263   
  1534. RY*(   5) H  81                  0.00001     3.01366   
  1540. BD*(   1) C   3 - C   7          0.01025     0.43707   
  1541. BD*(   1) C   3 - C  34          0.01008     0.44202   
  1542. BD*(   2) C   3 - C  34          0.16656    -0.06770  1558(v),1614(v),1554(r)
                                                    1545(r),236(g),1046(g)
                                                    180(r),178(r),179(r)
  1543. BD*(   1) C   3 - H  60          0.00613     0.33810   
  1544. BD*(   1) C   4 - C  10          0.01023     0.45693   
  1545. BD*(   2) C   4 - C  10          0.14583    -0.06690  1579(v),1560(v),1558(v)
                                                    1542(r),262(g),180(r),178(r)
                                                    1537(r)
  1546. BD*(   1) C   4 - C  17          0.01028     0.45254   
  1547. BD*(   1) C   4 - H  64          0.00642     0.33306   
  1548. BD*(   1) C   5 - C  20          0.00953     0.43646   
  1549. BD*(   2) C   5 - C  20          0.17592    -0.07816  1585(v),1596(v),288(g)
                                                    682(g),179(r),178(r),180(r)
  1550. BD*(   1) C   5 - C  24          0.00988     0.43032   
  1551. BD*(   1) C   5 - H  72          0.00543     0.33260   
  1552. BD*(   1) C   6 - C  27          0.00967     0.44581   
  1553. BD*(   1) C   6 - C  31          0.00972     0.45478   
  1554. BD*(   2) C   6 - C  31          0.18028    -0.06483  1614(v),162(v),1542(r)
                                                    314(g),968(g),180(r),178(r)
  1555. BD*(   1) C   6 - H  68          0.00589     0.33584   
  1556. BD*(   1) C   7 - C   8          0.01728     0.37673   
  1557. BD*(   1) C   7 - N  41          0.01306     0.35428   
  1558. BD*(   2) C   7 - N  41          0.27171    -0.11110  1542(v),1560(v),1545(v)
                                                    179(r),180(r),342(g),236(v)
                                                    1225(g),178(r),343(g)
                                                    1537(r)
  1559. BD*(   1) C   8 - C   9          0.01090     0.51582   
  1560. BD*(   2) C   8 - C   9          0.09287    -0.03477   
  1561. BD*(   1) C   8 - C  12          0.01098     0.30862   
  1562. BD*(   1) C   9 - C  10          0.01718     0.38778   
  1563. BD*(   1) C   9 - C  11          0.00852     0.29595   
  1564. BD*(   1) C  10 - N  41          0.01335     0.35092   
  1565. BD*(   1) C  11 - H  61          0.00410     0.31438   
  1566. BD*(   1) C  11 - H  62          0.00262     0.31668   
  1567. BD*(   1) C  11 - H  63          0.00300     0.31728   
  1568. BD*(   1) C  12 - C  13          0.00687     0.26130   
  1569. BD*(   1) C  12 - H  53          0.00552     0.32417   
  1570. BD*(   1) C  12 - H  54          0.00727     0.31067   
  1571. BD*(   1) C  13 - C  14          0.03259     0.27597   
  1572. BD*(   1) C  13 - H  51          0.00503     0.31805   
  1573. BD*(   1) C  13 - H  52          0.00678     0.31047   
  1574. BD*(   1) C  14 - O  15          0.03694     0.40809   
  1575. BD*(   1) C  14 - O  16          0.01841     0.47230   
  1576. BD*(   2) C  14 - O  16          0.10370    -0.07622  1568(v),1577(v)
  1577. BD*(   1) O  15 - H  50          0.00735     0.29517   
  1578. BD*(   1) C  17 - C  18          0.01728     0.35901   
  1579. BD*(   2) C  17 - C  18          0.19361    -0.09007  1585(v),1545(v),1587(v)
                                                    1589(v),262(v),179(r),178(r)
  1580. BD*(   1) C  17 - N  42          0.01359     0.35453   
  1581. BD*(   1) C  18 - C  19          0.00975     0.47846   
  1582. BD*(   1) C  18 - C  21          0.00775     0.24502   
  1583. BD*(   1) C  19 - C  20          0.02053     0.34187   
  1584. BD*(   1) C  19 - C  22          0.01086     0.41087   
  1585. BD*(   2) C  19 - C  22          0.15030    -0.09147  1579(v),1549(v),161(v)
                                                    1592(v),1593(v),730(g)
                                                    659(g)
  1586. BD*(   1) C  20 - N  42          0.01204     0.35231   
  1587. BD*(   1) C  21 - H  73          0.00422     0.29992   
  1588. BD*(   1) C  21 - H  74          0.00332     0.30953   
  1589. BD*(   1) C  21 - H  75          0.00355     0.29950   
  1590. BD*(   1) C  22 - C  23          0.00340     0.44795   
  1591. BD*(   1) C  22 - H  81          0.00812     0.31446   
  1592. BD*(   1) C  23 - H  79          0.00806     0.31558   
  1593. BD*(   1) C  23 - H  80          0.00806     0.31529   
  1594. BD*(   1) C  24 - C  25          0.01576     0.37456   
  1595. BD*(   1) C  24 - N  43          0.01299     0.35405   
  1596. BD*(   2) C  24 - N  43          0.31309    -0.11443  1549(v),1598(v),162(v)
                                                    179(r),784(g),178(r),288(v)
                                                    180(r),1277(g)
  1597. BD*(   1) C  25 - C  26          0.01239     0.49616   
  1598. BD*(   2) C  25 - C  26          0.16230    -0.04646  1607(v),1596(v),162(v)
                                                    1603(v),1605(v),836(g)
                                                    810(g),1608(v)
  1599. BD*(   1) C  25 - C  28          0.00827     0.27944   
  1600. BD*(   1) C  26 - C  27          0.01888     0.38259   
  1601. BD*(   1) C  26 - C  29          0.01149     0.42669   
  1602. BD*(   1) C  27 - N  43          0.01296     0.35591   
  1603. BD*(   1) C  28 - H  69          0.00481     0.31046   
  1604. BD*(   1) C  28 - H  70          0.00475     0.32762   
  1605. BD*(   1) C  28 - H  71          0.00272     0.31161   
  1606. BD*(   1) C  29 - C  30          0.00326     0.42731   
  1607. BD*(   2) C  29 - C  30          0.08943    -0.08981   
  1608. BD*(   1) C  29 - H  76          0.01211     0.31919   
  1609. BD*(   1) C  30 - H  77          0.00353     0.32611   
  1610. BD*(   1) C  30 - H  78          0.00358     0.32440   
  1611. BD*(   1) C  31 - C  32          0.01720     0.37767   
  1612. BD*(   1) C  31 - N  44          0.01226     0.36593   
  1613. BD*(   1) C  32 - C  33          0.00997     0.50811   
  1614. BD*(   2) C  32 - C  33          0.09142    -0.03110   
  1615. BD*(   1) C  32 - C  35          0.00822     0.28402   
  1616. BD*(   1) C  33 - C  34          0.01744     0.37594   
  1617. BD*(   1) C  33 - C  36          0.01195     0.29925   
  1618. BD*(   1) C  34 - N  44          0.01236     0.36140   
  1619. BD*(   1) C  35 - H  65          0.00249     0.32545   
  1620. BD*(   1) C  35 - H  66          0.00395     0.31897   
  1621. BD*(   1) C  35 - H  67          0.00312     0.31857   
  1622. BD*(   1) C  36 - C  37          0.00922     0.26965   
  1623. BD*(   1) C  36 - H  58          0.00734     0.32093   
  1624. BD*(   1) C  36 - H  59          0.00647     0.32341   
  1625. BD*(   1) C  37 - C  38          0.03595     0.26379   
  1626. BD*(   1) C  37 - H  56          0.00534     0.31769   
  1627. BD*(   1) C  37 - H  57          0.00567     0.30537   
  1628. BD*(   1) C  38 - O  39          0.02323     0.47269   
  1629. BD*(   2) C  38 - O  39          0.09839    -0.05375   
  1630. BD*(   1) C  38 - O  40          0.03627     0.42784   
  1631. BD*(   1) O  40 - H  55          0.00726     0.30005   
       -------------------------------
              Total Lewis  143.61641  ( 97.3859%)
        Valence non-Lewis    3.57978  (  2.4274%)
        Rydberg non-Lewis    0.27532  (  0.1867%)
       -------------------------------
            Total unit  2  147.47151  (100.0000%)
           Charge unit  2    0.52849

 Molecular unit  3  (Fe)
   146. CR (   1)Fe  45                  1.00000  -250.82756  1602(r),1564(r),1557(r)
                                                    1595(r),1580(r),1586(r)
                                                    1612(r),1618(r)
   147. CR (   2)Fe  45                  1.00000   -34.56680  175(g),1602(r),1557(r)
                                                    1564(r),1595(r),1580(r)
                                                    1586(r),1612(r),1618(r)
   148. CR (   3)Fe  45                  0.99770    -4.73305  175(g),178(g),1602(r)
                                                    1564(r),1557(r),1595(r)
                                                    1580(r),1586(r),1612(r)
                                                    1618(r),180(g),1539(r)
                                                    1594(r),1550(r),1552(r)
                                                    1556(r),1540(r),1562(r)
                                                    1616(r),1544(r),1251(r)
                                                    1600(r),1546(r),1583(r)
                                                    1541(r)
   149. CR (   4)Fe  45                  1.00000   -25.97248   
   150. CR (   5)Fe  45                  0.99922    -2.29964  1602(r),1580(r),1564(r)
                                                    1612(r),1618(r),1586(r)
                                                    1251(r)
   151. CR (   6)Fe  45                  1.00000   -25.98032   
   152. CR (   7)Fe  45                  0.99920    -2.30097  1557(r),1595(r),1586(r)
                                                    1618(r),1602(r),1564(r)
   153. CR (   8)Fe  45                  1.00000   -25.97607   
   154. CR (   9)Fe  45                  0.99932    -2.32173  180(g),178(g),1539(r)
                                                    1596(r),1558(r)
   173. LP (   1)Fe  45                  0.87505    -0.30462  1302(r),1250(r),1224(r)
                                                    175(g),1276(r),1328(g)
                                                    162(r),1558(r),1332(g)
                                                    1539(r),1596(r),1303(r)
                                                    680(r),1227(r),1279(r)
                                                    1044(r),184(r),1251(r)
                                                    1305(r),1554(r),862(r)
                                                    1042(r),340(r),210(r),186(r)
                                                    343(r),1254(r),342(r)
                                                    1549(r),964(r),1536(r)
                                                    603(r),784(r),418(r),347(r)
                                                    1045(r),868(r),1049(r)
                                                    209(r),208(r)
   174. LP*(   2)Fe  45                  0.23703    -0.16070  1339(g),1305(r),1279(r)
                                                    1253(r),1227(r),1224(r)
                                                    1250(r),1276(r),1251(r)
                                                    1302(r),1552(r),1225(r)
                                                    1303(r),1540(r),1550(r)
                                                    1544(r),1602(r),1553(r)
                                                    1541(r),1557(r),1548(r)
                                                    1283(r),1231(r),1546(r)
   175. LP*(   3)Fe  45                  0.14122     0.04482  178(g),1332(g),1328(g)
                                                    180(g),1346(g),1539(r)
                                                    181(g),1276(r),1224(r)
                                                    1251(r),1303(r),1277(r)
                                                    1302(r),1337(g),1225(r)
                                                    1250(r),862(r),1618(r)
                                                    1580(r),1557(r),1595(r)
                                                    1602(r),1586(r),1564(r)
                                                    1612(r),1279(r),687(r)
                                                    1045(r),343(r),1049(r)
                                                    347(r),603(r),421(r),785(r)
                                                    1536(r),1537(r),868(r)
                                                    681(r),967(r),1305(r),419(r)
                                                    1253(r),1042(r),782(r)
                                                    222(r),1044(r),680(r),792(r)
                                                    610(r),971(r),678(r),860(r)
                                                    600(r),964(r),973(r),679(r)
                                                    228(r),211(r),341(r),214(r)
                                                    302(r),185(r),1465(r),861(r)
                                                    428(r),863(r),601(r),974(r)
                                                    340(r),1445(r),291(r)
                                                    1485(r),783(r),239(r),684(r)
                                                    965(r),418(r),420(r),265(r)
                                                    1425(r),870(r),789(r),606(r)
                                                    279(r),317(r),342(r),602(r)
                                                    1043(r),1546(r),1360(r)
                                                    1227(r),1541(r),1552(r)
                                                    331(r),250(r),1553(r)
                                                    1550(r)
   176. LP*(   4)Fe  45                  0.08831     0.35359   
   177. LP*(   5)Fe  45                  0.08488     0.39487   
   178. LP*(   6)Fe  45                  0.07014    -0.01364   
   179. LP*(   7)Fe  45                  0.05445    -0.08168   
   180. LP*(   8)Fe  45                  0.03029    -0.01732   
   181. LP*(   9)Fe  45                  0.01785     0.03778   
  1328. RY*(   1)Fe  45                  0.00156     0.45190   
  1329. RY*(   2)Fe  45                  0.00104     0.39898   
  1330. RY*(   3)Fe  45                  0.00081     0.43187   
  1331. RY*(   4)Fe  45                  0.00072     0.53603   
  1332. RY*(   5)Fe  45                  0.00058     0.68709   
  1333. RY*(   6)Fe  45                  0.00030     0.64648   
  1334. RY*(   7)Fe  45                  0.00007     1.73014   
  1335. RY*(   8)Fe  45                  0.00004     1.99675   
  1336. RY*(   9)Fe  45                  0.00003     2.07260   
  1337. RY*(  10)Fe  45                  0.00004     1.54191   
  1338. RY*(  11)Fe  45                  0.00003     4.06671   
  1339. RY*(  12)Fe  45                  0.00003     2.59863   
  1340. RY*(  13)Fe  45                  0.00002     1.87235   
  1341. RY*(  14)Fe  45                  0.00002     3.59719   
  1342. RY*(  15)Fe  45                  0.00001     2.08798   
  1343. RY*(  16)Fe  45                  0.00000     4.03442   
  1344. RY*(  17)Fe  45                  0.00001     2.03142   
  1345. RY*(  18)Fe  45                  0.00000     3.51787   
  1346. RY*(  19)Fe  45                  0.00001     2.30850   
  1347. RY*(  20)Fe  45                  0.00000     3.68478   
  1348. RY*(  21)Fe  45                  0.00001     3.99405   
  1349. RY*(  22)Fe  45                  0.00000     3.96757   
  1350. RY*(  23)Fe  45                  0.00000     4.04743   
  1351. RY*(  24)Fe  45                  0.00000     4.06462   
  1352. RY*(  25)Fe  45                  0.00000     3.61951   
  1353. RY*(  26)Fe  45                  0.00001     4.23041   
  1354. RY*(  27)Fe  45                  0.00001     4.19227   
       -------------------------------
              Total Lewis    9.87048  ( 93.1178%)
        Valence non-Lewis    0.72417  (  6.8318%)
        Rydberg non-Lewis    0.00535  (  0.0504%)
       -------------------------------
            Total unit  3   10.59999  (100.0000%)
           Charge unit  3    2.40001
 1\1\GINC-NODE491\SP\UPBE1PBE\def2TZVP\C35H36Fe1N4O4S1(1+,6)\ZHARTOVSKA
 \01-Dec-2022\0\\# PBE1PBE/def2TZVP empiricaldispersion=GD3BJ scf=maxcy
 cle=999 geom=check pop=nbo\\1cpo_III_H\\1,6\C,0,39.537998,-0.794,5.207
 \S,0,38.03392141,-1.11851475,6.10189876\C,0,38.470001,1.241,1.71\C,0,3
 8.207001,-3.562,2.326\C,0,34.162998,-2.989,4.879\C,0,34.547001,1.849,4
 .502\C,0,38.791,-0.121,1.704\C,0,39.887001,-0.717,0.972\C,0,39.783001,
 -2.053,1.11\C,0,38.667999,-2.302,1.984\C,0,40.647999,-3.112,0.473\C,0,
 40.936001,0.054,0.225\C,0,40.355,0.615,-1.069\C,0,41.040001,1.884,-1.4
 89\O,0,40.57,2.973,-1.091\O,0,42.042,1.804,-2.234\C,0,37.137001,-3.843
 ,3.159\C,0,36.700001,-5.174,3.528\C,0,35.554001,-5.028,4.232\C,0,35.28
 5999,-3.592,4.314\C,0,37.431999,-6.484,3.19\C,0,34.946999,-6.207,4.676
 \C,0,33.895,-6.333,5.558\C,0,33.944,-1.614,5.037\C,0,32.749001,-1.037,
 5.609\C,0,32.959,0.305,5.696\C,0,34.155998,0.587,4.944\C,0,31.51,-1.85
 3,5.944\C,0,32.256001,1.338,6.324\C,0,30.90427054,1.16727,6.65202133\C
 ,0,35.657001,2.127,3.714\C,0,35.973,3.417,3.133\C,0,37.07,3.246,2.357\
 C,0,37.433998,1.843,2.429\C,0,35.178001,4.703,3.333\C,0,37.765999,4.30
 8,1.52\C,0,39.055,4.903,2.096\C,0,39.705002,5.928,1.183\O,0,40.587002,
 6.668,1.654\O,0,39.345001,6.,-0.005\N,0,38.126999,-1.103,2.413\N,0,36.
 352001,-2.902,3.784\N,0,34.805,-0.601,4.662\N,0,36.566002,1.185,3.28\F
 e,0,36.534,-0.853,3.659\H,0,40.37185059,-1.16830862,5.76331189\H,0,39.
 49800131,-1.27946307,4.25430599\H,0,39.64827803,0.26084517,5.06543736\
 H,0,38.32544857,-1.5539017,7.30254447\H,0,41.16016414,3.6841629,-0.831
 08922\H,0,40.46661003,-0.1134716,-1.84473986\H,0,39.31343461,0.8133641
 8,-0.92514872\H,0,41.75480306,-0.59477481,-0.0064183\H,0,41.28475677,0
 .86052627,0.83556105\H,0,40.0018081,6.04235538,-0.70386369\H,0,38.8281
 2247,5.371808,3.03069014\H,0,39.75091102,4.1090699,2.27001966\H,0,37.9
 9815649,3.87772311,0.56823075\H,0,37.07455227,5.10932296,1.36289196\H,
 0,39.07616137,1.88329599,1.10590938\H,0,41.56826555,-3.1930889,1.01284
 633\H,0,40.13677823,-4.05168406,0.49639202\H,0,40.85252189,-2.84240707
 ,-0.5420813\H,0,38.72687928,-4.39802645,1.90685044\H,0,35.73763132,5.5
 3128543,2.95134944\H,0,34.24651783,4.63125509,2.81137583\H,0,34.992074
 58,4.84872996,4.37659673\H,0,33.93799641,2.67832554,4.79565382\H,0,31.
 7261372,-2.51118127,6.75946436\H,0,30.71275438,-1.19440939,6.21887787\
 H,0,31.21944579,-2.42748207,5.08933714\H,0,33.39031148,-3.64219176,5.2
 2713226\H,0,38.3701161,-6.51120329,3.703903\H,0,36.83333509,-7.3163229
 9,3.49616982\H,0,37.60172559,-6.53571325,2.13481347\H,0,32.75019209,2.
 25873467,6.55404961\H,0,30.61588392,1.01788649,7.67153971\H,0,30.16058
 121,1.18629478,5.88295421\H,0,34.03938488,-6.12075709,6.59675211\H,0,3
 2.93409926,-6.64304106,5.20381883\H,0,35.34637092,-7.11935115,4.284825
 55\\Version=ES64L-G16RevA.03\State=6-A\HF=-3535.1610509\S2=9.093193\S2
 -1=0.\S2A=8.767508\RMSD=2.038e-09\Dipole=-2.8607757,-3.9174154,1.96251
 7\Quadrupole=-2.1553591,25.1642886,-23.0089294,-3.1442677,-20.2077776,
 -16.0563813\PG=C01 [X(C35H36Fe1N4O4S1)]\\@


 LIFE IS SO UNCERTAIN - EAT DESSERT FIRST.
 Job cpu time:       5 days  2 hours 44 minutes 34.5 seconds.
 Elapsed time:       1 days  6 hours 47 minutes 56.7 seconds.
 File lengths (MBytes):  RWF=   2445 Int=      0 D2E=      0 Chk=    207 Scr=      1
 Normal termination of Gaussian 16 at Thu Dec  1 22:12:26 2022.
