 Initial command:
 /afs/math/software/gaussian/g16.A03/g16/l1.exe "/scratch/kleich_gaussian.k45Vbu7/Gau-24381.inp" -scrdir="/scratch/kleich_gaussian.k45Vbu7/"
 Entering Link 1 = /afs/math/software/gaussian/g16.A03/g16/l1.exe PID=     24566.
  
 Copyright (c) 1988,1990,1992,1993,1995,1998,2003,2009,2016,
            Gaussian, Inc.  All Rights Reserved.
  
 This is part of the Gaussian(R) 16 program.  It is based on
 the Gaussian(R) 09 system (copyright 2009, Gaussian, Inc.),
 the Gaussian(R) 03 system (copyright 2003, Gaussian, Inc.),
 the Gaussian(R) 98 system (copyright 1998, Gaussian, Inc.),
 the Gaussian(R) 94 system (copyright 1995, Gaussian, Inc.),
 the Gaussian 92(TM) system (copyright 1992, Gaussian, Inc.),
 the Gaussian 90(TM) system (copyright 1990, Gaussian, Inc.),
 the Gaussian 88(TM) system (copyright 1988, Gaussian, Inc.),
 the Gaussian 86(TM) system (copyright 1986, Carnegie Mellon
 University), and the Gaussian 82(TM) system (copyright 1983,
 Carnegie Mellon University). Gaussian is a federally registered
 trademark of Gaussian, Inc.
  
 This software contains proprietary and confidential information,
 including trade secrets, belonging to Gaussian, Inc.
  
 This software is provided under written license and may be
 used, copied, transmitted, or stored only in accord with that
 written license.
  
 The following legend is applicable only to US Government
 contracts under FAR:
  
                    RESTRICTED RIGHTS LEGEND
  
 Use, reproduction and disclosure by the US Government is
 subject to restrictions as set forth in subparagraphs (a)
 and (c) of the Commercial Computer Software - Restricted
 Rights clause in FAR 52.227-19.
  
 Gaussian, Inc.
 340 Quinnipiac St., Bldg. 40, Wallingford CT 06492
  
  
 ---------------------------------------------------------------
 Warning -- This program may not be used in any manner that
 competes with the business of Gaussian, Inc. or will provide
 assistance to any competitor of Gaussian, Inc.  The licensee
 of this program is prohibited from giving any competitor of
 Gaussian, Inc. access to this program.  By using this program,
 the user acknowledges that Gaussian, Inc. is engaged in the
 business of creating and licensing software in the field of
 computational chemistry and represents and warrants to the
 licensee that it is not a competitor of Gaussian, Inc. and that
 it will not use this program in any manner prohibited above.
 ---------------------------------------------------------------
  

 Cite this work as:
 Gaussian 16, Revision A.03,
 M. J. Frisch, G. W. Trucks, H. B. Schlegel, G. E. Scuseria, 
 M. A. Robb, J. R. Cheeseman, G. Scalmani, V. Barone, 
 G. A. Petersson, H. Nakatsuji, X. Li, M. Caricato, A. V. Marenich, 
 J. Bloino, B. G. Janesko, R. Gomperts, B. Mennucci, H. P. Hratchian, 
 J. V. Ortiz, A. F. Izmaylov, J. L. Sonnenberg, D. Williams-Young, 
 F. Ding, F. Lipparini, F. Egidi, J. Goings, B. Peng, A. Petrone, 
 T. Henderson, D. Ranasinghe, V. G. Zakrzewski, J. Gao, N. Rega, 
 G. Zheng, W. Liang, M. Hada, M. Ehara, K. Toyota, R. Fukuda, 
 J. Hasegawa, M. Ishida, T. Nakajima, Y. Honda, O. Kitao, H. Nakai, 
 T. Vreven, K. Throssell, J. A. Montgomery, Jr., J. E. Peralta, 
 F. Ogliaro, M. J. Bearpark, J. J. Heyd, E. N. Brothers, K. N. Kudin, 
 V. N. Staroverov, T. A. Keith, R. Kobayashi, J. Normand, 
 K. Raghavachari, A. P. Rendell, J. C. Burant, S. S. Iyengar, 
 J. Tomasi, M. Cossi, J. M. Millam, M. Klene, C. Adamo, R. Cammi, 
 J. W. Ochterski, R. L. Martin, K. Morokuma, O. Farkas, 
 J. B. Foresman, and D. J. Fox, Gaussian, Inc., Wallingford CT, 2016.
 
 ******************************************
 Gaussian 16:  ES64L-G16RevA.03 25-Dec-2016
                 6-Sep-2022 
 ******************************************
 %nprocs=12
 Will use up to   12 processors via shared memory.
 %mem=16GB
 %chk=1ctj_III_D.chk
 ----------------------------------------------------------------------
 # PBE1PBE/def2TZVP empiricaldispersion=GD3BJ int=(grid=ultrafine) geom
 =check guess=read scrf=(smd,solvent=Chloroform)
 ----------------------------------------------------------------------
 1/29=2,38=1,172=1/1;
 2/12=2,40=1/2;
 3/5=44,7=101,11=2,14=-4,25=1,30=1,70=32201,72=7,74=-13,75=-5,116=-2,124=41/1,2,3;
 4/5=1/1;
 5/5=2,38=6,53=7/2;
 6/7=2,8=2,9=2,10=2,28=1/1;
 99/5=1,9=1/99;
 ---------------
 1ctj_III_D_solv
 ---------------
 Structure from the checkpoint file:  "1ctj_III_D.chk"
 Charge =  1 Multiplicity = 2
 Z-Matrix found in chk file.
 C,0,17.385,43.116,-18.171
 C,0,16.646,44.283,-17.629
 N,0,17.192,45.153,-16.726
 C,0,15.354,44.655,-17.762
 C,0,16.223,46.009,-16.352
 N,0,15.105,45.741,-16.934
 C,0,11.228,50.126,-17.291
 C,0,10.692,48.716,-17.503
 S,0,11.192,47.599,-16.165
 C,0,9.859,46.393,-16.206
 Fe,0,13.258,46.586,-16.683
 C,0,14.112,48.106,-13.777
 C,0,12.342,43.796,-14.983
 C,0,12.062,45.238,-19.575
 C,0,14.539,49.179,-18.442
 N,0,13.269,46.034,-14.737
 C,0,13.692,46.802,-13.682
 C,0,13.546,46.034,-12.457
 C,0,13.036,44.844,-12.789
 C,0,12.842,44.823,-14.225
 C,0,12.674,43.689,-11.857
 C,0,14.032,46.507,-11.078
 C,0,15.559,46.477,-10.964
 C,0,16.109,47.3,-9.807
 O,0,17.303,47.008,-9.454
 O,0,15.414,48.196,-9.329
 N,0,12.373,44.867,-17.193
 C,0,12.092,43.817,-16.329
 C,0,11.458,42.747,-17.065
 C,0,11.319,43.178,-18.339
 C,0,11.877,44.496,-18.421
 C,0,11.118,41.373,-16.491
 C,0,10.705,42.45,-19.528
 C,0,9.207,42.154,-19.34
 N,0,13.301,47.115,-18.61
 C,0,12.79,46.403,-19.667
 C,0,13.156,47.044,-20.932
 C,0,13.92,48.097,-20.624
 C,0,13.987,48.168,-19.179
 C,0,12.755,46.497,-22.32
 C,0,14.747,49.003,-21.545
 C,0,13.915,49.773,-22.585
 N,0,14.091,48.302,-16.212
 C,0,14.53,49.3,-17.081
 C,0,14.947,50.46,-16.332
 C,0,14.756,50.189,-15.024
 C,0,14.305,48.819,-14.945
 C,0,15.368,51.794,-16.965
 C,0,14.943,51.157,-13.855
 C,0,13.661,51.997,-13.611
 C,0,13.865,53.009,-12.515
 O,0,14.074,52.625,-11.351
 O,0,13.718,54.197,-12.862
 H,0,17.58804681,43.27348459,-19.20968696
 H,0,18.30719827,43.00025896,-17.6408544
 H,0,16.79265016,42.23272905,-18.05329656
 H,0,18.13828841,45.15312787,-16.40267629
 H,0,14.63681319,44.18698821,-18.40348892
 H,0,16.36341726,46.8114914,-15.65832101
 H,0,11.17812751,50.66872246,-18.21179589
 H,0,10.63763839,50.62444342,-16.55077887
 H,0,12.24474083,50.07527162,-16.9615084
 H,0,11.15969794,48.34762147,-18.39207587
 H,0,9.62580296,48.78911841,-17.45029742
 H,0,10.14001742,45.53129306,-15.63732579
 H,0,9.66920482,46.10545759,-17.21901389
 H,0,8.97452668,46.82457433,-15.78605888
 H,0,14.30862979,48.61907374,-12.85885401
 H,0,12.1244658,42.88294577,-14.46927745
 H,0,11.60078485,44.87594842,-20.47004148
 H,0,15.02955358,49.95714664,-18.9885757
 H,0,12.50518782,42.80417847,-12.43448879
 H,0,11.78600637,43.9346192,-11.31290579
 H,0,13.4772518,43.51921094,-11.1708089
 H,0,13.66546159,45.79258497,-10.37077955
 H,0,13.74644303,47.53500383,-10.99697323
 H,0,15.92701028,46.94302578,-11.85410584
 H,0,15.81523066,45.46108477,-10.74683164
 H,0,10.38304623,40.90038838,-17.1085607
 H,0,10.73146261,41.48628266,-15.49970999
 H,0,12.00130869,40.76979158,-16.46262126
 H,0,11.19095593,41.49786943,-19.57484249
 H,0,10.77138306,43.12579409,-20.35491937
 H,0,8.65935996,42.54257751,-20.17306536
 H,0,9.05758506,41.0963582,-19.277
 H,0,8.86221801,42.61720064,-18.4391834
 H,0,12.96412465,47.23339021,-23.0675937
 H,0,13.31379432,45.60859605,-22.52829625
 H,0,11.70933841,46.27014788,-22.32547351
 H,0,15.37919241,48.34722466,-22.10641914
 H,0,15.17851579,49.74753713,-20.90910804
 H,0,14.46884204,50.62228183,-22.92687624
 H,0,13.69776571,49.13176613,-23.41357008
 H,0,12.99971915,50.10050287,-22.13789505
 H,0,15.41269502,52.54938278,-16.2084954
 H,0,16.33125485,51.68553259,-17.41807274
 H,0,14.65343743,52.07672516,-17.70955814
 H,0,15.7043967,51.84720662,-14.15297631
 H,0,15.07973135,50.55369181,-12.98194573
 H,0,12.91693527,51.31477247,-13.25627012
 H,0,13.49117691,52.55481909,-14.50816106
 H,0,14.4869676,54.74865685,-13.02313209
 H,0,15.82900403,48.9597727,-8.9215409
 Recover connectivity data from disk.
 Stoichiometry    C41H50FeN6O4S(1+,2)
 Framework group  C1[X(C41H50FeN6O4S)]
 Deg. of freedom   303
 Full point group                 C1      NOp   1
 Largest Abelian subgroup         C1      NOp   1
 Largest concise Abelian subgroup C1      NOp   1
                         Standard orientation:                         
 ---------------------------------------------------------------------
 Center     Atomic      Atomic             Coordinates (Angstroms)
 Number     Number       Type             X           Y           Z
 ---------------------------------------------------------------------
      1          6           0        2.732842   -1.806351    4.866406
      2          6           0        1.865983   -1.204270    3.823416
      3          7           0        0.532504   -0.966886    4.012910
      4          6           0        2.111084   -0.907844    2.528273
      5          6           0        0.027008   -0.539774    2.840893
      6          7           0        0.929825   -0.502531    1.922195
      7          6           0       -0.116658    3.046120   -2.627393
      8          6           0        0.947675    1.974047   -2.822824
      9         16           0        0.339272    0.330616   -2.357081
     10          6           0        1.365063   -0.723098   -3.391704
     11         26           0        0.758187   -0.072001   -0.071199
     12          6           0       -2.613036   -0.417539   -0.074510
     13          6           0        1.123113   -3.386568   -0.698599
     14          6           0        4.115420    0.384435   -0.434289
     15          6           0        0.450783    3.138183    0.957836
     16          7           0       -0.513403   -1.628607   -0.298750
     17          6           0       -1.882390   -1.569231   -0.234513
     18          6           0       -2.418047   -2.904268   -0.440699
     19          6           0       -1.381717   -3.725970   -0.633701
     20          6           0       -0.165795   -2.941041   -0.558905
     21          6           0       -1.418561   -5.226516   -0.917778
     22          6           0       -3.906093   -3.266769   -0.314700
     23          6           0       -4.380155   -3.256343    1.141591
     24          6           0       -5.893673   -3.201405    1.298829
     25          8           0       -6.332790   -3.563402    2.444099
     26          8           0       -6.575646   -2.782577    0.364046
     27          7           0        2.318344   -1.251409   -0.487365
     28          6           0        2.258856   -2.621892   -0.702296
     29          6           0        3.588049   -3.123950   -0.966370
     30          6           0        4.417690   -2.056341   -0.958302
     31          6           0        3.633096   -0.891520   -0.670524
     32          6           0        3.950299   -4.599677   -1.121154
     33          6           0        5.922820   -2.019324   -1.190498
     34          6           0        6.320954   -2.466809   -2.607612
     35          7           0        2.012715    1.458471    0.209569
     36          6           0        3.376325    1.440448    0.049702
     37          6           0        3.954638    2.708308    0.500422
     38          6           0        2.944580    3.447766    0.969842
     39          6           0        1.727827    2.690476    0.761084
     40          6           0        5.467311    3.020727    0.472745
     41          6           0        2.984404    4.768057    1.749747
     42          6           0        3.625533    5.935881    0.980419
     43          7           0       -0.755453    1.123677    0.302477
     44          6           0       -0.705369    2.464634    0.680910
     45          6           0       -2.036514    3.019017    0.715602
     46          6           0       -2.892932    2.041892    0.351511
     47          6           0       -2.106039    0.843079    0.177757
     48          6           0       -2.351093    4.500680    0.966999
     49          6           0       -4.398912    2.185330    0.127897
     50          6           0       -4.709694    2.652631   -1.319067
     51          6           0       -6.184974    2.874719   -1.522047
     52          8           0       -6.969615    1.912679   -1.452403
     53          8           0       -6.503094    4.037156   -1.839699
     54          1           0        3.430387   -1.074434    5.216587
     55          1           0        2.128023   -2.141943    5.682784
     56          1           0        3.265209   -2.636840    4.451950
     57          1           0        0.025647   -1.088438    4.866327
     58          1           0        3.064081   -0.974839    2.046394
     59          1           0       -0.996301   -0.265517    2.690821
     60          1           0        0.346116    4.010834   -2.619210
     61          1           0       -0.824059    2.996666   -3.428666
     62          1           0       -0.619659    2.883926   -1.697026
     63          1           0        1.737156    2.206715   -2.139095
     64          1           0        1.144452    1.934518   -3.873831
     65          1           0        1.295553   -1.734738   -3.050159
     66          1           0        2.382497   -0.396696   -3.335226
     67          1           0        1.027574   -0.664912   -4.405418
     68          1           0       -3.676628   -0.504542   -0.152633
     69          1           0        1.255329   -4.441737   -0.817077
     70          1           0        5.148722    0.565008   -0.645430
     71          1           0        0.345872    4.119091    1.372217
     72          1           0       -0.437189   -5.636136   -0.799370
     73          1           0       -1.755458   -5.391645   -1.919842
     74          1           0       -2.088842   -5.702786   -0.233095
     75          1           0       -3.996734   -4.278421   -0.651219
     76          1           0       -4.446478   -2.487589   -0.810444
     77          1           0       -4.010079   -2.344703    1.562134
     78          1           0       -4.078231   -4.196723    1.553208
     79          1           0        4.891163   -4.685186   -1.623512
     80          1           0        3.193920   -5.094432   -1.693873
     81          1           0        4.019585   -5.053212   -0.154507
     82          1           0        6.342858   -2.742533   -0.523089
     83          1           0        6.208642   -0.991057   -1.113865
     84          1           0        6.925558   -1.710915   -3.063657
     85          1           0        6.874951   -3.380454   -2.550680
     86          1           0        5.439249   -2.620279   -3.194079
     87          1           0        5.619725    4.063043    0.660484
     88          1           0        5.964015    2.446198    1.226470
     89          1           0        5.865910    2.769328   -0.487889
     90          1           0        3.621335    4.589643    2.590811
     91          1           0        1.962566    5.046547    1.902026
     92          1           0        3.301553    6.863158    1.404791
     93          1           0        4.691054    5.865512    1.048344
     94          1           0        3.329912    5.891216   -0.046963
     95          1           0       -3.374719    4.694367    0.722919
     96          1           0       -2.180337    4.731653    1.997724
     97          1           0       -1.717449    5.108563    0.355548
     98          1           0       -4.727262    2.970682    0.776209
     99          1           0       -4.813582    1.203650    0.224081
    100          1           0       -4.435744    1.842757   -1.962461
    101          1           0       -4.242686    3.608491   -1.433678
    102          1           0       -6.869299    4.631627   -1.180839
    103          1           0       -7.419879   -2.359755    0.537515
 ---------------------------------------------------------------------
 Rotational constants (GHZ):           0.0649040           0.0437769           0.0340286
 Standard basis: def2TZVP (5D, 7F)
 There are  2230 symmetry adapted cartesian basis functions of A   symmetry.
 There are  1963 symmetry adapted basis functions of A   symmetry.
  1963 basis functions,  3172 primitive gaussians,  2230 cartesian basis functions
   206 alpha electrons      205 beta electrons
       nuclear repulsion energy      9034.5792672667 Hartrees.
 NAtoms=  103 NActive=  103 NUniq=  103 SFac= 1.00D+00 NAtFMM=   60 NAOKFM=T Big=T
 Integral buffers will be    131072 words long.
 Raffenetti 2 integral format.
 Two-electron integral symmetry is turned on.
 Nuclear repulsion after empirical dispersion term =     9034.4274506152 Hartrees.
 ------------------------------------------------------------------------------
 Polarizable Continuum Model (PCM)
 =================================
 Model                : PCM.
 Atomic radii         : SMD-Coulomb.
 Polarization charges : Total charges.
 Charge compensation  : None.
 Solution method      : On-the-fly selection.
 Cavity type          : VdW (van der Waals Surface) (Alpha=1.000).
 Cavity algorithm     : GePol (No added spheres)
                        Default sphere list used, NSphG=  103.
                        Lebedev-Laikov grids with approx.  5.0 points / Ang**2.
                        Smoothing algorithm: York/Karplus (Gamma=1.0000).
                        Polarization charges: spherical gaussians, with
                                              point-specific exponents (IZeta= 3).
                        Self-potential: point-specific (ISelfS= 7).
                        Self-field    : sphere-specific E.n sum rule (ISelfD= 2).
 Solvent              : Chloroform, Eps=   4.711300 Eps(inf)=   2.090627
 ------------------------------------------------------------------------------
 ------------------------------------------------------------------------------
 Atomic radii for non-electrostatic terms: SMD-CDS.
 ------------------------------------------------------------------------------
 Nuclear repulsion after PCM non-electrostatic terms =     9034.4065892945 Hartrees.
 One-electron integrals computed using PRISM.
   1 Symmetry operations used in ECPInt.
 ECPInt:  NShTT=  311655 NPrTT=  958403 LenC2=  228098 LenP2D=  454103.
 LDataN:  DoStor=T MaxTD1= 6 Len=  172
 NBasis=  1963 RedAO= T EigKep=  2.80D-06  NBF=  1963
 NBsUse=  1963 1.00D-06 EigRej= -1.00D+00 NBFU=  1963
 Initial guess from the checkpoint file:  "1ctj_III_D.chk"
 B after Tr=    -0.000000    0.000000    0.000000
         Rot=    1.000000    0.000000    0.000000    0.000000 Ang=   0.00 deg.
 Initial guess <Sx>= 0.0000 <Sy>= 0.0000 <Sz>= 0.5000 <S**2>= 0.8436 S= 0.5457
 Requested convergence on RMS density matrix=1.00D-08 within 128 cycles.
 Requested convergence on MAX density matrix=1.00D-06.
 Requested convergence on             energy=1.00D-06.
 No special actions if energy rises.
 Inv3:  Mode=1 IEnd=   149869872.
 Iteration    1 A*A^-1 deviation from unit magnitude is 1.34D-14 for   7066.
 Iteration    1 A*A^-1 deviation from orthogonality  is 3.05D-15 for   7059   2503.
 Iteration    1 A^-1*A deviation from unit magnitude is 1.37D-14 for   7066.
 Iteration    1 A^-1*A deviation from orthogonality  is 2.17D-14 for   5149   5104.
 Restarting incremental Fock formation.
 Restarting incremental Fock formation.
 Error on total polarization charges =  0.08131
 SCF Done:  E(UPBE1PBE) =  -3881.81774351     A.U. after   46 cycles
            NFock= 46  Conv=0.14D-08     -V/T= 2.0031
 <Sx>= 0.0000 <Sy>= 0.0000 <Sz>= 0.5000 <S**2>= 0.8381 S= 0.5431
 <L.S>= 0.000000000000E+00
 SMD-CDS (non-electrostatic) energy       (kcal/mol) =     -13.09
 (included in total energy above)
 Annihilation of the first spin contaminant:
 S**2 before annihilation     0.8381,   after     0.7516
 Hyperfine terms turned off by default for NAtoms > 100.

 **********************************************************************

            Population analysis using the SCF density.

 **********************************************************************

 Orbital symmetries:
 Alpha Orbitals:
       Occupied  (A) (A) (A) (A) (A) (A) (A) (A) (A) (A) (A) (A)
                 (A) (A) (A) (A) (A) (A) (A) (A) (A) (A) (A) (A)
                 (A) (A) (A) (A) (A) (A) (A) (A) (A) (A) (A) (A)
                 (A) (A) (A) (A) (A) (A) (A) (A) (A) (A) (A) (A)
                 (A) (A) (A) (A) (A) (A) (A) (A) (A) (A) (A) (A)
                 (A) (A) (A) (A) (A) (A) (A) (A) (A) (A) (A) (A)
                 (A) (A) (A) (A) (A) (A) (A) (A) (A) (A) (A) (A)
                 (A) (A) (A) (A) (A) (A) (A) (A) (A) (A) (A) (A)
                 (A) (A) (A) (A) (A) (A) (A) (A) (A) (A) (A) (A)
                 (A) (A) (A) (A) (A) (A) (A) (A) (A) (A) (A) (A)
                 (A) (A) (A) (A) (A) (A) (A) (A) (A) (A) (A) (A)
                 (A) (A) (A) (A) (A) (A) (A) (A) (A) (A) (A) (A)
                 (A) (A) (A) (A) (A) (A) (A) (A) (A) (A) (A) (A)
                 (A) (A) (A) (A) (A) (A) (A) (A) (A) (A) (A) (A)
                 (A) (A) (A) (A) (A) (A) (A) (A) (A) (A) (A) (A)
                 (A) (A) (A) (A) (A) (A) (A) (A) (A) (A) (A) (A)
                 (A) (A) (A) (A) (A) (A) (A) (A) (A) (A) (A) (A)
                 (A) (A)
       Virtual   (A) (A) (A) (A) (A) (A) (A) (A) (A) (A) (A) (A)
                 (A) (A) (A) (A) (A) (A) (A) (A) (A) (A) (A) (A)
                 (A) (A) (A) (A) (A) (A) (A) (A) (A) (A) (A) (A)
                 (A) (A) (A) (A) (A) (A) (A) (A) (A) (A) (A) (A)
                 (A) (A) (A) (A) (A) (A) (A) (A) (A) (A) (A) (A)
                 (A) (A) (A) (A) (A) (A) (A) (A) (A) (A) (A) (A)
                 (A) (A) (A) (A) (A) (A) (A) (A) (A) (A) (A) (A)
                 (A) (A) (A) (A) (A) (A) (A) (A) (A) (A) (A) (A)
                 (A) (A) (A) (A) (A) (A) (A) (A) (A) (A) (A) (A)
                 (A) (A) (A) (A) (A) (A) (A) (A) (A) (A) (A) (A)
                 (A) (A) (A) (A) (A) (A) (A) (A) (A) (A) (A) (A)
                 (A) (A) (A) (A) (A) (A) (A) (A) (A) (A) (A) (A)
                 (A) (A) (A) (A) (A) (A) (A) (A) (A) (A) (A) (A)
                 (A) (A) (A) (A) (A) (A) (A) (A) (A) (A) (A) (A)
                 (A) (A) (A) (A) (A) (A) (A) (A) (A) (A) (A) (A)
                 (A) (A) (A) (A) (A) (A) (A) (A) (A) (A) (A) (A)
                 (A) (A) (A) (A) (A) (A) (A) (A) (A) (A) (A) (A)
                 (A) (A) (A) (A) (A) (A) (A) (A) (A) (A) (A) (A)
                 (A) (A) (A) (A) (A) (A) (A) (A) (A) (A) (A) (A)
                 (A) (A) (A) (A) (A) (A) (A) (A) (A) (A) (A) (A)
                 (A) (A) (A) (A) (A) (A) (A) (A) (A) (A) (A) (A)
                 (A) (A) (A) (A) (A) (A) (A) (A) (A) (A) (A) (A)
                 (A) (A) (A) (A) (A) (A) (A) (A) (A) (A) (A) (A)
                 (A) (A) (A) (A) (A) (A) (A) (A) (A) (A) (A) (A)
                 (A) (A) (A) (A) (A) (A) (A) (A) (A) (A) (A) (A)
                 (A) (A) (A) (A) (A) (A) (A) (A) (A) (A) (A) (A)
                 (A) (A) (A) (A) (A) (A) (A) (A) (A) (A) (A) (A)
                 (A) (A) (A) (A) (A) (A) (A) (A) (A) (A) (A) (A)
                 (A) (A) (A) (A) (A) (A) (A) (A) (A) (A) (A) (A)
                 (A) (A) (A) (A) (A) (A) (A) (A) (A) (A) (A) (A)
                 (A) (A) (A) (A) (A) (A) (A) (A) (A) (A) (A) (A)
                 (A) (A) (A) (A) (A) (A) (A) (A) (A) (A) (A) (A)
                 (A) (A) (A) (A) (A) (A) (A) (A) (A) (A) (A) (A)
                 (A) (A) (A) (A) (A) (A) (A) (A) (A) (A) (A) (A)
                 (A) (A) (A) (A) (A) (A) (A) (A) (A) (A) (A) (A)
                 (A) (A) (A) (A) (A) (A) (A) (A) (A) (A) (A) (A)
                 (A) (A) (A) (A) (A) (A) (A) (A) (A) (A) (A) (A)
                 (A) (A) (A) (A) (A) (A) (A) (A) (A) (A) (A) (A)
                 (A) (A) (A) (A) (A) (A) (A) (A) (A) (A) (A) (A)
                 (A) (A) (A) (A) (A) (A) (A) (A) (A) (A) (A) (A)
                 (A) (A) (A) (A) (A) (A) (A) (A) (A) (A) (A) (A)
                 (A) (A) (A) (A) (A) (A) (A) (A) (A) (A) (A) (A)
                 (A) (A) (A) (A) (A) (A) (A) (A) (A) (A) (A) (A)
                 (A) (A) (A) (A) (A) (A) (A) (A) (A) (A) (A) (A)
                 (A) (A) (A) (A) (A) (A) (A) (A) (A) (A) (A) (A)
                 (A) (A) (A) (A) (A) (A) (A) (A) (A) (A) (A) (A)
                 (A) (A) (A) (A) (A) (A) (A) (A) (A) (A) (A) (A)
                 (A) (A) (A) (A) (A) (A) (A) (A) (A) (A) (A) (A)
                 (A) (A) (A) (A) (A) (A) (A) (A) (A) (A) (A) (A)
                 (A) (A) (A) (A) (A) (A) (A) (A) (A) (A) (A) (A)
                 (A) (A) (A) (A) (A) (A) (A) (A) (A) (A) (A) (A)
                 (A) (A) (A) (A) (A) (A) (A) (A) (A) (A) (A) (A)
                 (A) (A) (A) (A) (A) (A) (A) (A) (A) (A) (A) (A)
                 (A) (A) (A) (A) (A) (A) (A) (A) (A) (A) (A) (A)
                 (A) (A) (A) (A) (A) (A) (A) (A) (A) (A) (A) (A)
                 (A) (A) (A) (A) (A) (A) (A) (A) (A) (A) (A) (A)
                 (A) (A) (A) (A) (A) (A) (A) (A) (A) (A) (A) (A)
                 (A) (A) (A) (A) (A) (A) (A) (A) (A) (A) (A) (A)
                 (A) (A) (A) (A) (A) (A) (A) (A) (A) (A) (A) (A)
                 (A) (A) (A) (A) (A) (A) (A) (A) (A) (A) (A) (A)
                 (A) (A) (A) (A) (A) (A) (A) (A) (A) (A) (A) (A)
                 (A) (A) (A) (A) (A) (A) (A) (A) (A) (A) (A) (A)
                 (A) (A) (A) (A) (A) (A) (A) (A) (A) (A) (A) (A)
                 (A) (A) (A) (A) (A) (A) (A) (A) (A) (A) (A) (A)
                 (A) (A) (A) (A) (A) (A) (A) (A) (A) (A) (A) (A)
                 (A) (A) (A) (A) (A) (A) (A) (A) (A) (A) (A) (A)
                 (A) (A) (A) (A) (A) (A) (A) (A) (A) (A) (A) (A)
                 (A) (A) (A) (A) (A) (A) (A) (A) (A) (A) (A) (A)
                 (A) (A) (A) (A) (A) (A) (A) (A) (A) (A) (A) (A)
                 (A) (A) (A) (A) (A) (A) (A) (A) (A) (A) (A) (A)
                 (A) (A) (A) (A) (A) (A) (A) (A) (A) (A) (A) (A)
                 (A) (A) (A) (A) (A) (A) (A) (A) (A) (A) (A) (A)
                 (A) (A) (A) (A) (A) (A) (A) (A) (A) (A) (A) (A)
                 (A) (A) (A) (A) (A) (A) (A) (A) (A) (A) (A) (A)
                 (A) (A) (A) (A) (A) (A) (A) (A) (A) (A) (A) (A)
                 (A) (A) (A) (A) (A) (A) (A) (A) (A) (A) (A) (A)
                 (A) (A) (A) (A) (A) (A) (A) (A) (A) (A) (A) (A)
                 (A) (A) (A) (A) (A) (A) (A) (A) (A) (A) (A) (A)
                 (A) (A) (A) (A) (A) (A) (A) (A) (A) (A) (A) (A)
                 (A) (A) (A) (A) (A) (A) (A) (A) (A) (A) (A) (A)
                 (A) (A) (A) (A) (A) (A) (A) (A) (A) (A) (A) (A)
                 (A) (A) (A) (A) (A) (A) (A) (A) (A) (A) (A) (A)
                 (A) (A) (A) (A) (A) (A) (A) (A) (A) (A) (A) (A)
                 (A) (A) (A) (A) (A) (A) (A) (A) (A) (A) (A) (A)
                 (A) (A) (A) (A) (A) (A) (A) (A) (A) (A) (A) (A)
                 (A) (A) (A) (A) (A) (A) (A) (A) (A) (A) (A) (A)
                 (A) (A) (A) (A) (A) (A) (A) (A) (A) (A) (A) (A)
                 (A) (A) (A) (A) (A) (A) (A) (A) (A) (A) (A) (A)
                 (A) (A) (A) (A) (A) (A) (A) (A) (A) (A) (A) (A)
                 (A) (A) (A) (A) (A) (A) (A) (A) (A) (A) (A) (A)
                 (A) (A) (A) (A) (A) (A) (A) (A) (A) (A) (A) (A)
                 (A) (A) (A) (A) (A) (A) (A) (A) (A) (A) (A) (A)
                 (A) (A) (A) (A) (A) (A) (A) (A) (A) (A) (A) (A)
                 (A) (A) (A) (A) (A) (A) (A) (A) (A) (A) (A) (A)
                 (A) (A) (A) (A) (A) (A) (A) (A) (A) (A) (A) (A)
                 (A) (A) (A) (A) (A) (A) (A) (A) (A) (A) (A) (A)
                 (A) (A) (A) (A) (A) (A) (A) (A) (A) (A) (A) (A)
                 (A) (A) (A) (A) (A) (A) (A) (A) (A) (A) (A) (A)
                 (A) (A) (A) (A) (A) (A) (A) (A) (A) (A) (A) (A)
                 (A) (A) (A) (A) (A) (A) (A) (A) (A) (A) (A) (A)
                 (A) (A) (A) (A) (A) (A) (A) (A) (A) (A) (A) (A)
                 (A) (A) (A) (A) (A) (A) (A) (A) (A) (A) (A) (A)
                 (A) (A) (A) (A) (A) (A) (A) (A) (A) (A) (A) (A)
                 (A) (A) (A) (A) (A) (A) (A) (A) (A) (A) (A) (A)
                 (A) (A) (A) (A) (A) (A) (A) (A) (A) (A) (A) (A)
                 (A) (A) (A) (A) (A) (A) (A) (A) (A) (A) (A) (A)
                 (A) (A) (A) (A) (A) (A) (A) (A) (A) (A) (A) (A)
                 (A) (A) (A) (A) (A) (A) (A) (A) (A) (A) (A) (A)
                 (A) (A) (A) (A) (A) (A) (A) (A) (A) (A) (A) (A)
                 (A) (A) (A) (A) (A) (A) (A) (A) (A) (A) (A) (A)
                 (A) (A) (A) (A) (A) (A) (A) (A) (A) (A) (A) (A)
                 (A) (A) (A) (A) (A) (A) (A) (A) (A) (A) (A) (A)
                 (A) (A) (A) (A) (A) (A) (A) (A) (A) (A) (A) (A)
                 (A) (A) (A) (A) (A) (A) (A) (A) (A) (A) (A) (A)
                 (A) (A) (A) (A) (A) (A) (A) (A) (A) (A) (A) (A)
                 (A) (A) (A) (A) (A) (A) (A) (A) (A) (A) (A) (A)
                 (A) (A) (A) (A) (A) (A) (A) (A) (A) (A) (A) (A)
                 (A) (A) (A) (A) (A) (A) (A) (A) (A) (A) (A) (A)
                 (A) (A) (A) (A) (A) (A) (A) (A) (A) (A) (A) (A)
                 (A) (A) (A) (A) (A) (A) (A) (A) (A) (A) (A) (A)
                 (A) (A) (A) (A) (A) (A) (A) (A) (A) (A) (A) (A)
                 (A) (A) (A) (A) (A) (A) (A) (A) (A) (A) (A) (A)
                 (A) (A) (A) (A) (A) (A) (A) (A) (A) (A) (A) (A)
                 (A) (A) (A) (A) (A) (A) (A) (A) (A) (A) (A) (A)
                 (A) (A) (A) (A) (A) (A) (A) (A) (A) (A) (A) (A)
                 (A) (A) (A) (A) (A) (A) (A) (A) (A) (A) (A) (A)
                 (A) (A) (A) (A) (A) (A) (A) (A) (A) (A) (A) (A)
                 (A) (A) (A) (A) (A) (A) (A) (A) (A) (A) (A) (A)
                 (A) (A) (A) (A) (A) (A) (A) (A) (A) (A) (A) (A)
                 (A) (A) (A) (A) (A) (A) (A) (A) (A) (A) (A) (A)
                 (A) (A) (A) (A) (A) (A) (A) (A) (A) (A) (A) (A)
                 (A) (A) (A) (A) (A) (A) (A) (A) (A) (A) (A) (A)
                 (A) (A) (A) (A) (A) (A) (A) (A) (A) (A) (A) (A)
                 (A) (A) (A) (A) (A) (A) (A) (A) (A) (A) (A) (A)
                 (A) (A) (A) (A) (A) (A) (A) (A) (A) (A) (A) (A)
                 (A) (A) (A) (A) (A) (A) (A) (A) (A) (A) (A) (A)
                 (A) (A) (A) (A) (A) (A) (A) (A) (A) (A) (A) (A)
                 (A) (A) (A) (A) (A) (A) (A) (A) (A) (A) (A) (A)
                 (A) (A) (A) (A) (A) (A) (A) (A) (A) (A) (A) (A)
                 (A) (A) (A) (A) (A) (A) (A) (A) (A) (A) (A) (A)
                 (A) (A) (A) (A) (A) (A) (A) (A) (A) (A) (A) (A)
                 (A) (A) (A) (A) (A) (A) (A) (A) (A) (A) (A) (A)
                 (A) (A) (A) (A) (A) (A) (A) (A) (A) (A) (A) (A)
                 (A) (A) (A) (A) (A) (A) (A) (A) (A) (A) (A) (A)
                 (A) (A) (A) (A) (A) (A) (A) (A) (A) (A) (A) (A)
                 (A) (A) (A) (A) (A) (A) (A) (A) (A) (A) (A) (A)
                 (A) (A) (A) (A) (A)
 Beta  Orbitals:
       Occupied  (A) (A) (A) (A) (A) (A) (A) (A) (A) (A) (A) (A)
                 (A) (A) (A) (A) (A) (A) (A) (A) (A) (A) (A) (A)
                 (A) (A) (A) (A) (A) (A) (A) (A) (A) (A) (A) (A)
                 (A) (A) (A) (A) (A) (A) (A) (A) (A) (A) (A) (A)
                 (A) (A) (A) (A) (A) (A) (A) (A) (A) (A) (A) (A)
                 (A) (A) (A) (A) (A) (A) (A) (A) (A) (A) (A) (A)
                 (A) (A) (A) (A) (A) (A) (A) (A) (A) (A) (A) (A)
                 (A) (A) (A) (A) (A) (A) (A) (A) (A) (A) (A) (A)
                 (A) (A) (A) (A) (A) (A) (A) (A) (A) (A) (A) (A)
                 (A) (A) (A) (A) (A) (A) (A) (A) (A) (A) (A) (A)
                 (A) (A) (A) (A) (A) (A) (A) (A) (A) (A) (A) (A)
                 (A) (A) (A) (A) (A) (A) (A) (A) (A) (A) (A) (A)
                 (A) (A) (A) (A) (A) (A) (A) (A) (A) (A) (A) (A)
                 (A) (A) (A) (A) (A) (A) (A) (A) (A) (A) (A) (A)
                 (A) (A) (A) (A) (A) (A) (A) (A) (A) (A) (A) (A)
                 (A) (A) (A) (A) (A) (A) (A) (A) (A) (A) (A) (A)
                 (A) (A) (A) (A) (A) (A) (A) (A) (A) (A) (A) (A)
                 (A)
       Virtual   (A) (A) (A) (A) (A) (A) (A) (A) (A) (A) (A) (A)
                 (A) (A) (A) (A) (A) (A) (A) (A) (A) (A) (A) (A)
                 (A) (A) (A) (A) (A) (A) (A) (A) (A) (A) (A) (A)
                 (A) (A) (A) (A) (A) (A) (A) (A) (A) (A) (A) (A)
                 (A) (A) (A) (A) (A) (A) (A) (A) (A) (A) (A) (A)
                 (A) (A) (A) (A) (A) (A) (A) (A) (A) (A) (A) (A)
                 (A) (A) (A) (A) (A) (A) (A) (A) (A) (A) (A) (A)
                 (A) (A) (A) (A) (A) (A) (A) (A) (A) (A) (A) (A)
                 (A) (A) (A) (A) (A) (A) (A) (A) (A) (A) (A) (A)
                 (A) (A) (A) (A) (A) (A) (A) (A) (A) (A) (A) (A)
                 (A) (A) (A) (A) (A) (A) (A) (A) (A) (A) (A) (A)
                 (A) (A) (A) (A) (A) (A) (A) (A) (A) (A) (A) (A)
                 (A) (A) (A) (A) (A) (A) (A) (A) (A) (A) (A) (A)
                 (A) (A) (A) (A) (A) (A) (A) (A) (A) (A) (A) (A)
                 (A) (A) (A) (A) (A) (A) (A) (A) (A) (A) (A) (A)
                 (A) (A) (A) (A) (A) (A) (A) (A) (A) (A) (A) (A)
                 (A) (A) (A) (A) (A) (A) (A) (A) (A) (A) (A) (A)
                 (A) (A) (A) (A) (A) (A) (A) (A) (A) (A) (A) (A)
                 (A) (A) (A) (A) (A) (A) (A) (A) (A) (A) (A) (A)
                 (A) (A) (A) (A) (A) (A) (A) (A) (A) (A) (A) (A)
                 (A) (A) (A) (A) (A) (A) (A) (A) (A) (A) (A) (A)
                 (A) (A) (A) (A) (A) (A) (A) (A) (A) (A) (A) (A)
                 (A) (A) (A) (A) (A) (A) (A) (A) (A) (A) (A) (A)
                 (A) (A) (A) (A) (A) (A) (A) (A) (A) (A) (A) (A)
                 (A) (A) (A) (A) (A) (A) (A) (A) (A) (A) (A) (A)
                 (A) (A) (A) (A) (A) (A) (A) (A) (A) (A) (A) (A)
                 (A) (A) (A) (A) (A) (A) (A) (A) (A) (A) (A) (A)
                 (A) (A) (A) (A) (A) (A) (A) (A) (A) (A) (A) (A)
                 (A) (A) (A) (A) (A) (A) (A) (A) (A) (A) (A) (A)
                 (A) (A) (A) (A) (A) (A) (A) (A) (A) (A) (A) (A)
                 (A) (A) (A) (A) (A) (A) (A) (A) (A) (A) (A) (A)
                 (A) (A) (A) (A) (A) (A) (A) (A) (A) (A) (A) (A)
                 (A) (A) (A) (A) (A) (A) (A) (A) (A) (A) (A) (A)
                 (A) (A) (A) (A) (A) (A) (A) (A) (A) (A) (A) (A)
                 (A) (A) (A) (A) (A) (A) (A) (A) (A) (A) (A) (A)
                 (A) (A) (A) (A) (A) (A) (A) (A) (A) (A) (A) (A)
                 (A) (A) (A) (A) (A) (A) (A) (A) (A) (A) (A) (A)
                 (A) (A) (A) (A) (A) (A) (A) (A) (A) (A) (A) (A)
                 (A) (A) (A) (A) (A) (A) (A) (A) (A) (A) (A) (A)
                 (A) (A) (A) (A) (A) (A) (A) (A) (A) (A) (A) (A)
                 (A) (A) (A) (A) (A) (A) (A) (A) (A) (A) (A) (A)
                 (A) (A) (A) (A) (A) (A) (A) (A) (A) (A) (A) (A)
                 (A) (A) (A) (A) (A) (A) (A) (A) (A) (A) (A) (A)
                 (A) (A) (A) (A) (A) (A) (A) (A) (A) (A) (A) (A)
                 (A) (A) (A) (A) (A) (A) (A) (A) (A) (A) (A) (A)
                 (A) (A) (A) (A) (A) (A) (A) (A) (A) (A) (A) (A)
                 (A) (A) (A) (A) (A) (A) (A) (A) (A) (A) (A) (A)
                 (A) (A) (A) (A) (A) (A) (A) (A) (A) (A) (A) (A)
                 (A) (A) (A) (A) (A) (A) (A) (A) (A) (A) (A) (A)
                 (A) (A) (A) (A) (A) (A) (A) (A) (A) (A) (A) (A)
                 (A) (A) (A) (A) (A) (A) (A) (A) (A) (A) (A) (A)
                 (A) (A) (A) (A) (A) (A) (A) (A) (A) (A) (A) (A)
                 (A) (A) (A) (A) (A) (A) (A) (A) (A) (A) (A) (A)
                 (A) (A) (A) (A) (A) (A) (A) (A) (A) (A) (A) (A)
                 (A) (A) (A) (A) (A) (A) (A) (A) (A) (A) (A) (A)
                 (A) (A) (A) (A) (A) (A) (A) (A) (A) (A) (A) (A)
                 (A) (A) (A) (A) (A) (A) (A) (A) (A) (A) (A) (A)
                 (A) (A) (A) (A) (A) (A) (A) (A) (A) (A) (A) (A)
                 (A) (A) (A) (A) (A) (A) (A) (A) (A) (A) (A) (A)
                 (A) (A) (A) (A) (A) (A) (A) (A) (A) (A) (A) (A)
                 (A) (A) (A) (A) (A) (A) (A) (A) (A) (A) (A) (A)
                 (A) (A) (A) (A) (A) (A) (A) (A) (A) (A) (A) (A)
                 (A) (A) (A) (A) (A) (A) (A) (A) (A) (A) (A) (A)
                 (A) (A) (A) (A) (A) (A) (A) (A) (A) (A) (A) (A)
                 (A) (A) (A) (A) (A) (A) (A) (A) (A) (A) (A) (A)
                 (A) (A) (A) (A) (A) (A) (A) (A) (A) (A) (A) (A)
                 (A) (A) (A) (A) (A) (A) (A) (A) (A) (A) (A) (A)
                 (A) (A) (A) (A) (A) (A) (A) (A) (A) (A) (A) (A)
                 (A) (A) (A) (A) (A) (A) (A) (A) (A) (A) (A) (A)
                 (A) (A) (A) (A) (A) (A) (A) (A) (A) (A) (A) (A)
                 (A) (A) (A) (A) (A) (A) (A) (A) (A) (A) (A) (A)
                 (A) (A) (A) (A) (A) (A) (A) (A) (A) (A) (A) (A)
                 (A) (A) (A) (A) (A) (A) (A) (A) (A) (A) (A) (A)
                 (A) (A) (A) (A) (A) (A) (A) (A) (A) (A) (A) (A)
                 (A) (A) (A) (A) (A) (A) (A) (A) (A) (A) (A) (A)
                 (A) (A) (A) (A) (A) (A) (A) (A) (A) (A) (A) (A)
                 (A) (A) (A) (A) (A) (A) (A) (A) (A) (A) (A) (A)
                 (A) (A) (A) (A) (A) (A) (A) (A) (A) (A) (A) (A)
                 (A) (A) (A) (A) (A) (A) (A) (A) (A) (A) (A) (A)
                 (A) (A) (A) (A) (A) (A) (A) (A) (A) (A) (A) (A)
                 (A) (A) (A) (A) (A) (A) (A) (A) (A) (A) (A) (A)
                 (A) (A) (A) (A) (A) (A) (A) (A) (A) (A) (A) (A)
                 (A) (A) (A) (A) (A) (A) (A) (A) (A) (A) (A) (A)
                 (A) (A) (A) (A) (A) (A) (A) (A) (A) (A) (A) (A)
                 (A) (A) (A) (A) (A) (A) (A) (A) (A) (A) (A) (A)
                 (A) (A) (A) (A) (A) (A) (A) (A) (A) (A) (A) (A)
                 (A) (A) (A) (A) (A) (A) (A) (A) (A) (A) (A) (A)
                 (A) (A) (A) (A) (A) (A) (A) (A) (A) (A) (A) (A)
                 (A) (A) (A) (A) (A) (A) (A) (A) (A) (A) (A) (A)
                 (A) (A) (A) (A) (A) (A) (A) (A) (A) (A) (A) (A)
                 (A) (A) (A) (A) (A) (A) (A) (A) (A) (A) (A) (A)
                 (A) (A) (A) (A) (A) (A) (A) (A) (A) (A) (A) (A)
                 (A) (A) (A) (A) (A) (A) (A) (A) (A) (A) (A) (A)
                 (A) (A) (A) (A) (A) (A) (A) (A) (A) (A) (A) (A)
                 (A) (A) (A) (A) (A) (A) (A) (A) (A) (A) (A) (A)
                 (A) (A) (A) (A) (A) (A) (A) (A) (A) (A) (A) (A)
                 (A) (A) (A) (A) (A) (A) (A) (A) (A) (A) (A) (A)
                 (A) (A) (A) (A) (A) (A) (A) (A) (A) (A) (A) (A)
                 (A) (A) (A) (A) (A) (A) (A) (A) (A) (A) (A) (A)
                 (A) (A) (A) (A) (A) (A) (A) (A) (A) (A) (A) (A)
                 (A) (A) (A) (A) (A) (A) (A) (A) (A) (A) (A) (A)
                 (A) (A) (A) (A) (A) (A) (A) (A) (A) (A) (A) (A)
                 (A) (A) (A) (A) (A) (A) (A) (A) (A) (A) (A) (A)
                 (A) (A) (A) (A) (A) (A) (A) (A) (A) (A) (A) (A)
                 (A) (A) (A) (A) (A) (A) (A) (A) (A) (A) (A) (A)
                 (A) (A) (A) (A) (A) (A) (A) (A) (A) (A) (A) (A)
                 (A) (A) (A) (A) (A) (A) (A) (A) (A) (A) (A) (A)
                 (A) (A) (A) (A) (A) (A) (A) (A) (A) (A) (A) (A)
                 (A) (A) (A) (A) (A) (A) (A) (A) (A) (A) (A) (A)
                 (A) (A) (A) (A) (A) (A) (A) (A) (A) (A) (A) (A)
                 (A) (A) (A) (A) (A) (A) (A) (A) (A) (A) (A) (A)
                 (A) (A) (A) (A) (A) (A) (A) (A) (A) (A) (A) (A)
                 (A) (A) (A) (A) (A) (A) (A) (A) (A) (A) (A) (A)
                 (A) (A) (A) (A) (A) (A) (A) (A) (A) (A) (A) (A)
                 (A) (A) (A) (A) (A) (A) (A) (A) (A) (A) (A) (A)
                 (A) (A) (A) (A) (A) (A) (A) (A) (A) (A) (A) (A)
                 (A) (A) (A) (A) (A) (A) (A) (A) (A) (A) (A) (A)
                 (A) (A) (A) (A) (A) (A) (A) (A) (A) (A) (A) (A)
                 (A) (A) (A) (A) (A) (A) (A) (A) (A) (A) (A) (A)
                 (A) (A) (A) (A) (A) (A) (A) (A) (A) (A) (A) (A)
                 (A) (A) (A) (A) (A) (A) (A) (A) (A) (A) (A) (A)
                 (A) (A) (A) (A) (A) (A) (A) (A) (A) (A) (A) (A)
                 (A) (A) (A) (A) (A) (A) (A) (A) (A) (A) (A) (A)
                 (A) (A) (A) (A) (A) (A) (A) (A) (A) (A) (A) (A)
                 (A) (A) (A) (A) (A) (A) (A) (A) (A) (A) (A) (A)
                 (A) (A) (A) (A) (A) (A) (A) (A) (A) (A) (A) (A)
                 (A) (A) (A) (A) (A) (A) (A) (A) (A) (A) (A) (A)
                 (A) (A) (A) (A) (A) (A) (A) (A) (A) (A) (A) (A)
                 (A) (A) (A) (A) (A) (A) (A) (A) (A) (A) (A) (A)
                 (A) (A) (A) (A) (A) (A) (A) (A) (A) (A) (A) (A)
                 (A) (A) (A) (A) (A) (A) (A) (A) (A) (A) (A) (A)
                 (A) (A) (A) (A) (A) (A) (A) (A) (A) (A) (A) (A)
                 (A) (A) (A) (A) (A) (A) (A) (A) (A) (A) (A) (A)
                 (A) (A) (A) (A) (A) (A) (A) (A) (A) (A) (A) (A)
                 (A) (A) (A) (A) (A) (A) (A) (A) (A) (A) (A) (A)
                 (A) (A) (A) (A) (A) (A) (A) (A) (A) (A) (A) (A)
                 (A) (A) (A) (A) (A) (A) (A) (A) (A) (A) (A) (A)
                 (A) (A) (A) (A) (A) (A) (A) (A) (A) (A) (A) (A)
                 (A) (A) (A) (A) (A) (A) (A) (A) (A) (A) (A) (A)
                 (A) (A) (A) (A) (A) (A) (A) (A) (A) (A) (A) (A)
                 (A) (A) (A) (A) (A) (A) (A) (A) (A) (A) (A) (A)
                 (A) (A) (A) (A) (A) (A) (A) (A) (A) (A) (A) (A)
                 (A) (A) (A) (A) (A) (A) (A) (A) (A) (A) (A) (A)
                 (A) (A) (A) (A) (A) (A) (A) (A) (A) (A) (A) (A)
                 (A) (A) (A) (A) (A) (A) (A) (A) (A) (A) (A) (A)
                 (A) (A) (A) (A) (A) (A) (A) (A) (A) (A) (A) (A)
                 (A) (A) (A) (A) (A) (A)
 The electronic state is 2-A.
 Alpha  occ. eigenvalues -- -256.43039 -89.06976 -30.21744 -26.04890 -26.04338
 Alpha  occ. eigenvalues --  -26.02923 -19.28426 -19.26163 -19.20017 -19.18702
 Alpha  occ. eigenvalues --  -14.46103 -14.42866 -14.41444 -14.41196 -14.41038
 Alpha  occ. eigenvalues --  -14.40882 -10.36736 -10.36563 -10.30296 -10.27985
 Alpha  occ. eigenvalues --  -10.27818 -10.27791 -10.27711 -10.27703 -10.27700
 Alpha  occ. eigenvalues --  -10.27583 -10.27574 -10.27512 -10.26364 -10.25572
 Alpha  occ. eigenvalues --  -10.25363 -10.25020 -10.24932 -10.24852 -10.24686
 Alpha  occ. eigenvalues --  -10.24520 -10.24491 -10.24475 -10.24378 -10.24329
 Alpha  occ. eigenvalues --  -10.24308 -10.24267 -10.24203 -10.24123 -10.23912
 Alpha  occ. eigenvalues --  -10.23639 -10.23612 -10.23341 -10.23129 -10.23070
 Alpha  occ. eigenvalues --  -10.22933 -10.22641 -10.22470 -10.22364 -10.21897
 Alpha  occ. eigenvalues --  -10.21100 -10.20993  -8.04743  -5.98341  -5.98077
 Alpha  occ. eigenvalues --   -5.97640  -3.57376  -2.34697  -2.33452  -2.30524
 Alpha  occ. eigenvalues --   -1.19195  -1.17753  -1.08759  -1.04836  -1.02536
 Alpha  occ. eigenvalues --   -1.01310  -1.00307  -1.00153  -0.99183  -0.94046
 Alpha  occ. eigenvalues --   -0.87034  -0.86850  -0.85760  -0.85507  -0.84877
 Alpha  occ. eigenvalues --   -0.84579  -0.83932  -0.83822  -0.82785  -0.81310
 Alpha  occ. eigenvalues --   -0.80848  -0.79414  -0.79229  -0.78672  -0.78574
 Alpha  occ. eigenvalues --   -0.76296  -0.74642  -0.74294  -0.74075  -0.73485
 Alpha  occ. eigenvalues --   -0.71875  -0.71529  -0.71445  -0.69658  -0.68862
 Alpha  occ. eigenvalues --   -0.68493  -0.66753  -0.66583  -0.66345  -0.65599
 Alpha  occ. eigenvalues --   -0.65378  -0.63919  -0.62812  -0.62344  -0.60844
 Alpha  occ. eigenvalues --   -0.58677  -0.58345  -0.57526  -0.57474  -0.56296
 Alpha  occ. eigenvalues --   -0.55031  -0.54732  -0.54463  -0.53748  -0.52910
 Alpha  occ. eigenvalues --   -0.52739  -0.52209  -0.51916  -0.51346  -0.51036
 Alpha  occ. eigenvalues --   -0.50858  -0.50736  -0.50681  -0.50159  -0.50043
 Alpha  occ. eigenvalues --   -0.49575  -0.49066  -0.48546  -0.48441  -0.47786
 Alpha  occ. eigenvalues --   -0.47632  -0.47290  -0.47247  -0.46840  -0.46397
 Alpha  occ. eigenvalues --   -0.46350  -0.45914  -0.45649  -0.45542  -0.45157
 Alpha  occ. eigenvalues --   -0.44907  -0.44790  -0.44599  -0.44276  -0.43988
 Alpha  occ. eigenvalues --   -0.43875  -0.43684  -0.43367  -0.43267  -0.43080
 Alpha  occ. eigenvalues --   -0.42721  -0.42584  -0.42227  -0.41815  -0.41779
 Alpha  occ. eigenvalues --   -0.41669  -0.41195  -0.41104  -0.40757  -0.40598
 Alpha  occ. eigenvalues --   -0.40454  -0.40037  -0.39816  -0.39742  -0.39523
 Alpha  occ. eigenvalues --   -0.39294  -0.39103  -0.38820  -0.38686  -0.38637
 Alpha  occ. eigenvalues --   -0.38562  -0.38182  -0.37737  -0.37705  -0.37106
 Alpha  occ. eigenvalues --   -0.36774  -0.36300  -0.35921  -0.35760  -0.35599
 Alpha  occ. eigenvalues --   -0.35513  -0.35318  -0.35144  -0.34578  -0.34292
 Alpha  occ. eigenvalues --   -0.33729  -0.33159  -0.32029  -0.31815  -0.30898
 Alpha  occ. eigenvalues --   -0.30878  -0.29869  -0.29603  -0.28967  -0.26888
 Alpha  occ. eigenvalues --   -0.26790  -0.26378  -0.25964  -0.25701  -0.22343
 Alpha  occ. eigenvalues --   -0.21868
 Alpha virt. eigenvalues --   -0.10306  -0.09858  -0.09151  -0.05752  -0.03390
 Alpha virt. eigenvalues --   -0.02311  -0.00647   0.00392   0.00620   0.01153
 Alpha virt. eigenvalues --    0.01831   0.02016   0.02395   0.02712   0.03400
 Alpha virt. eigenvalues --    0.03479   0.03843   0.04204   0.04595   0.04903
 Alpha virt. eigenvalues --    0.04952   0.05326   0.05479   0.05823   0.06276
 Alpha virt. eigenvalues --    0.06413   0.06713   0.06944   0.07086   0.07373
 Alpha virt. eigenvalues --    0.07637   0.07756   0.08039   0.08452   0.08665
 Alpha virt. eigenvalues --    0.08902   0.09451   0.09658   0.09870   0.10055
 Alpha virt. eigenvalues --    0.10208   0.10563   0.10702   0.10909   0.11116
 Alpha virt. eigenvalues --    0.11265   0.11423   0.11596   0.11757   0.11871
 Alpha virt. eigenvalues --    0.11943   0.12148   0.12171   0.12504   0.12936
 Alpha virt. eigenvalues --    0.13049   0.13157   0.13402   0.13531   0.13583
 Alpha virt. eigenvalues --    0.13671   0.13847   0.13984   0.14158   0.14244
 Alpha virt. eigenvalues --    0.14310   0.14905   0.14974   0.15167   0.15270
 Alpha virt. eigenvalues --    0.15417   0.15660   0.15922   0.16157   0.16407
 Alpha virt. eigenvalues --    0.16666   0.16670   0.17010   0.17236   0.17588
 Alpha virt. eigenvalues --    0.17807   0.18217   0.18434   0.18587   0.18652
 Alpha virt. eigenvalues --    0.18918   0.18985   0.19164   0.19396   0.19592
 Alpha virt. eigenvalues --    0.19749   0.19853   0.20261   0.20428   0.20459
 Alpha virt. eigenvalues --    0.20809   0.21003   0.21232   0.21463   0.21562
 Alpha virt. eigenvalues --    0.21802   0.21858   0.22187   0.22370   0.22463
 Alpha virt. eigenvalues --    0.22494   0.23066   0.23126   0.23413   0.23487
 Alpha virt. eigenvalues --    0.23923   0.23988   0.24208   0.24345   0.24418
 Alpha virt. eigenvalues --    0.24552   0.24649   0.24730   0.24864   0.25156
 Alpha virt. eigenvalues --    0.25556   0.25682   0.25873   0.26255   0.26393
 Alpha virt. eigenvalues --    0.26914   0.26980   0.27203   0.27328   0.27504
 Alpha virt. eigenvalues --    0.27747   0.27984   0.28074   0.28472   0.28828
 Alpha virt. eigenvalues --    0.28926   0.29150   0.29288   0.29708   0.29847
 Alpha virt. eigenvalues --    0.30163   0.30356   0.30562   0.30718   0.30788
 Alpha virt. eigenvalues --    0.30936   0.31430   0.31642   0.31912   0.32213
 Alpha virt. eigenvalues --    0.32507   0.32541   0.32713   0.33257   0.33530
 Alpha virt. eigenvalues --    0.33596   0.33908   0.34395   0.34543   0.34771
 Alpha virt. eigenvalues --    0.35099   0.35134   0.35374   0.35424   0.35637
 Alpha virt. eigenvalues --    0.35776   0.36315   0.36625   0.36704   0.36885
 Alpha virt. eigenvalues --    0.37085   0.37267   0.37352   0.37725   0.37789
 Alpha virt. eigenvalues --    0.38086   0.38185   0.38469   0.38599   0.38764
 Alpha virt. eigenvalues --    0.39010   0.39068   0.39334   0.39598   0.39639
 Alpha virt. eigenvalues --    0.39924   0.40080   0.40162   0.40526   0.40673
 Alpha virt. eigenvalues --    0.40841   0.40925   0.41105   0.41455   0.41602
 Alpha virt. eigenvalues --    0.41686   0.41860   0.42007   0.42305   0.42468
 Alpha virt. eigenvalues --    0.42564   0.42785   0.42977   0.43185   0.43242
 Alpha virt. eigenvalues --    0.43559   0.43782   0.43847   0.44061   0.44160
 Alpha virt. eigenvalues --    0.44306   0.44633   0.44724   0.44844   0.44861
 Alpha virt. eigenvalues --    0.45149   0.45226   0.45378   0.45473   0.45591
 Alpha virt. eigenvalues --    0.45698   0.45916   0.46004   0.46168   0.46377
 Alpha virt. eigenvalues --    0.46612   0.46679   0.46891   0.47015   0.47085
 Alpha virt. eigenvalues --    0.47224   0.47587   0.47669   0.47814   0.47986
 Alpha virt. eigenvalues --    0.48296   0.48314   0.48468   0.48774   0.48842
 Alpha virt. eigenvalues --    0.49035   0.49094   0.49311   0.49398   0.49616
 Alpha virt. eigenvalues --    0.49928   0.49942   0.50127   0.50265   0.50470
 Alpha virt. eigenvalues --    0.50621   0.50836   0.51083   0.51436   0.51631
 Alpha virt. eigenvalues --    0.51796   0.51943   0.52161   0.52274   0.52425
 Alpha virt. eigenvalues --    0.52615   0.52729   0.52970   0.53024   0.53077
 Alpha virt. eigenvalues --    0.53392   0.53473   0.53559   0.53697   0.54038
 Alpha virt. eigenvalues --    0.54271   0.54465   0.54725   0.54854   0.55063
 Alpha virt. eigenvalues --    0.55242   0.55551   0.55790   0.56016   0.56193
 Alpha virt. eigenvalues --    0.56422   0.56804   0.56894   0.57232   0.57310
 Alpha virt. eigenvalues --    0.57405   0.57596   0.57888   0.58070   0.58212
 Alpha virt. eigenvalues --    0.58595   0.58846   0.58970   0.59214   0.59494
 Alpha virt. eigenvalues --    0.59668   0.59742   0.59944   0.60156   0.60708
 Alpha virt. eigenvalues --    0.60879   0.61124   0.61285   0.61786   0.61927
 Alpha virt. eigenvalues --    0.62153   0.62481   0.62654   0.62823   0.62957
 Alpha virt. eigenvalues --    0.63300   0.63648   0.63868   0.64195   0.64302
 Alpha virt. eigenvalues --    0.64657   0.65221   0.65399   0.65521   0.65762
 Alpha virt. eigenvalues --    0.65957   0.66326   0.66902   0.66949   0.67120
 Alpha virt. eigenvalues --    0.67555   0.67852   0.68055   0.68292   0.68518
 Alpha virt. eigenvalues --    0.68734   0.68910   0.69364   0.69408   0.69819
 Alpha virt. eigenvalues --    0.70077   0.70174   0.70580   0.70878   0.71191
 Alpha virt. eigenvalues --    0.71292   0.72001   0.72152   0.72378   0.72507
 Alpha virt. eigenvalues --    0.72891   0.72940   0.73449   0.73523   0.73940
 Alpha virt. eigenvalues --    0.74501   0.74616   0.74847   0.75026   0.75419
 Alpha virt. eigenvalues --    0.75608   0.75949   0.76408   0.76734   0.76975
 Alpha virt. eigenvalues --    0.77195   0.77549   0.77753   0.78111   0.78411
 Alpha virt. eigenvalues --    0.78841   0.78920   0.79553   0.79814   0.79873
 Alpha virt. eigenvalues --    0.80045   0.80544   0.80612   0.81087   0.81779
 Alpha virt. eigenvalues --    0.82011   0.82421   0.82622   0.82840   0.83094
 Alpha virt. eigenvalues --    0.83426   0.83760   0.84064   0.84247   0.84498
 Alpha virt. eigenvalues --    0.84710   0.84927   0.85487   0.85566   0.86015
 Alpha virt. eigenvalues --    0.86346   0.86791   0.87054   0.87248   0.87453
 Alpha virt. eigenvalues --    0.87643   0.87970   0.88144   0.88286   0.88560
 Alpha virt. eigenvalues --    0.88827   0.89059   0.89310   0.89720   0.89924
 Alpha virt. eigenvalues --    0.90026   0.90243   0.90920   0.90980   0.91317
 Alpha virt. eigenvalues --    0.91536   0.91863   0.91929   0.92060   0.92179
 Alpha virt. eigenvalues --    0.92762   0.92958   0.93404   0.93477   0.93800
 Alpha virt. eigenvalues --    0.94044   0.94262   0.94525   0.94679   0.94912
 Alpha virt. eigenvalues --    0.95144   0.95426   0.95689   0.96075   0.96390
 Alpha virt. eigenvalues --    0.96501   0.96824   0.97170   0.97267   0.97768
 Alpha virt. eigenvalues --    0.97827   0.98165   0.98402   0.98755   0.99136
 Alpha virt. eigenvalues --    0.99284   0.99533   0.99750   1.00020   1.00073
 Alpha virt. eigenvalues --    1.00558   1.00827   1.01245   1.01562   1.01666
 Alpha virt. eigenvalues --    1.02024   1.02304   1.02537   1.02764   1.03299
 Alpha virt. eigenvalues --    1.03542   1.03788   1.03970   1.04315   1.04448
 Alpha virt. eigenvalues --    1.04840   1.04933   1.05131   1.05608   1.05865
 Alpha virt. eigenvalues --    1.06064   1.06199   1.06426   1.06723   1.06872
 Alpha virt. eigenvalues --    1.07684   1.07878   1.08125   1.08384   1.08711
 Alpha virt. eigenvalues --    1.08892   1.09318   1.09635   1.10159   1.10424
 Alpha virt. eigenvalues --    1.10777   1.10947   1.11371   1.11611   1.11915
 Alpha virt. eigenvalues --    1.11998   1.12234   1.12385   1.12976   1.13409
 Alpha virt. eigenvalues --    1.13576   1.13934   1.14351   1.14891   1.15419
 Alpha virt. eigenvalues --    1.15521   1.15919   1.16098   1.16323   1.16664
 Alpha virt. eigenvalues --    1.17250   1.17644   1.18186   1.18305   1.18501
 Alpha virt. eigenvalues --    1.19140   1.19252   1.19655   1.20280   1.20538
 Alpha virt. eigenvalues --    1.20744   1.21187   1.21259   1.21670   1.21789
 Alpha virt. eigenvalues --    1.22081   1.22365   1.22731   1.23413   1.23813
 Alpha virt. eigenvalues --    1.24046   1.24282   1.24748   1.25095   1.25174
 Alpha virt. eigenvalues --    1.25554   1.25834   1.26197   1.26513   1.26830
 Alpha virt. eigenvalues --    1.27213   1.27440   1.27680   1.27999   1.28098
 Alpha virt. eigenvalues --    1.28304   1.28697   1.29234   1.29773   1.30262
 Alpha virt. eigenvalues --    1.30367   1.30393   1.31249   1.31742   1.31792
 Alpha virt. eigenvalues --    1.32447   1.32873   1.33256   1.33599   1.33761
 Alpha virt. eigenvalues --    1.34533   1.34878   1.35139   1.35323   1.35402
 Alpha virt. eigenvalues --    1.36029   1.36440   1.36509   1.37111   1.37474
 Alpha virt. eigenvalues --    1.38396   1.38886   1.39099   1.39381   1.39633
 Alpha virt. eigenvalues --    1.39978   1.40516   1.40949   1.41457   1.41561
 Alpha virt. eigenvalues --    1.42114   1.42505   1.42978   1.43769   1.43992
 Alpha virt. eigenvalues --    1.44751   1.45007   1.45444   1.45627   1.45899
 Alpha virt. eigenvalues --    1.46351   1.46740   1.46949   1.47595   1.47724
 Alpha virt. eigenvalues --    1.48095   1.48241   1.48518   1.48858   1.49273
 Alpha virt. eigenvalues --    1.49466   1.49802   1.49930   1.50357   1.50668
 Alpha virt. eigenvalues --    1.50782   1.51119   1.51430   1.51564   1.51757
 Alpha virt. eigenvalues --    1.52114   1.52788   1.52898   1.53215   1.53341
 Alpha virt. eigenvalues --    1.53688   1.53859   1.54124   1.54298   1.54619
 Alpha virt. eigenvalues --    1.54652   1.54771   1.55104   1.55159   1.55296
 Alpha virt. eigenvalues --    1.55836   1.55968   1.56240   1.56600   1.56745
 Alpha virt. eigenvalues --    1.56897   1.57553   1.57711   1.57779   1.58188
 Alpha virt. eigenvalues --    1.58280   1.58674   1.58993   1.59185   1.59496
 Alpha virt. eigenvalues --    1.59717   1.59881   1.60148   1.60259   1.60524
 Alpha virt. eigenvalues --    1.60784   1.61076   1.61537   1.61631   1.62109
 Alpha virt. eigenvalues --    1.62181   1.62571   1.62816   1.62904   1.63267
 Alpha virt. eigenvalues --    1.63280   1.63812   1.63981   1.64316   1.64616
 Alpha virt. eigenvalues --    1.64651   1.64950   1.65497   1.65606   1.65810
 Alpha virt. eigenvalues --    1.65989   1.66079   1.66529   1.66636   1.67361
 Alpha virt. eigenvalues --    1.67420   1.67606   1.67649   1.68198   1.68393
 Alpha virt. eigenvalues --    1.68659   1.68960   1.69441   1.69461   1.69551
 Alpha virt. eigenvalues --    1.69792   1.70109   1.70484   1.70804   1.70890
 Alpha virt. eigenvalues --    1.71091   1.71298   1.71455   1.71720   1.72031
 Alpha virt. eigenvalues --    1.72152   1.72815   1.73034   1.73108   1.73724
 Alpha virt. eigenvalues --    1.73786   1.73969   1.74287   1.74590   1.74718
 Alpha virt. eigenvalues --    1.75118   1.75401   1.75749   1.76115   1.76359
 Alpha virt. eigenvalues --    1.76625   1.76795   1.77878   1.78133   1.78253
 Alpha virt. eigenvalues --    1.78952   1.79565   1.79894   1.80206   1.80534
 Alpha virt. eigenvalues --    1.80552   1.81085   1.81485   1.81734   1.82338
 Alpha virt. eigenvalues --    1.82657   1.83086   1.83294   1.83463   1.83596
 Alpha virt. eigenvalues --    1.84090   1.84280   1.84602   1.84908   1.85406
 Alpha virt. eigenvalues --    1.85735   1.85944   1.86300   1.86700   1.87236
 Alpha virt. eigenvalues --    1.87303   1.87785   1.88006   1.88493   1.88674
 Alpha virt. eigenvalues --    1.88797   1.89502   1.89726   1.90181   1.90452
 Alpha virt. eigenvalues --    1.90648   1.90841   1.90932   1.91604   1.91817
 Alpha virt. eigenvalues --    1.91994   1.92570   1.92823   1.93163   1.93708
 Alpha virt. eigenvalues --    1.94134   1.94604   1.94676   1.94957   1.95090
 Alpha virt. eigenvalues --    1.95548   1.95981   1.96301   1.96602   1.96777
 Alpha virt. eigenvalues --    1.97272   1.97535   1.97749   1.98360   1.98508
 Alpha virt. eigenvalues --    1.98710   1.99222   1.99376   1.99679   1.99956
 Alpha virt. eigenvalues --    2.00673   2.00899   2.01180   2.01708   2.02128
 Alpha virt. eigenvalues --    2.02438   2.02656   2.03210   2.03685   2.03949
 Alpha virt. eigenvalues --    2.04455   2.04991   2.05336   2.05475   2.05975
 Alpha virt. eigenvalues --    2.06092   2.06361   2.06790   2.07143   2.07320
 Alpha virt. eigenvalues --    2.07565   2.07692   2.08323   2.08643   2.09159
 Alpha virt. eigenvalues --    2.09526   2.09815   2.10105   2.10564   2.10853
 Alpha virt. eigenvalues --    2.11305   2.11410   2.11960   2.12228   2.12314
 Alpha virt. eigenvalues --    2.12623   2.12934   2.13081   2.13326   2.13634
 Alpha virt. eigenvalues --    2.13957   2.14347   2.14520   2.14896   2.15140
 Alpha virt. eigenvalues --    2.15539   2.16036   2.16406   2.16944   2.17033
 Alpha virt. eigenvalues --    2.17412   2.17831   2.17986   2.18202   2.18511
 Alpha virt. eigenvalues --    2.18703   2.19185   2.19852   2.20078   2.20189
 Alpha virt. eigenvalues --    2.20788   2.20920   2.21548   2.21741   2.21993
 Alpha virt. eigenvalues --    2.22341   2.22998   2.23146   2.23315   2.23790
 Alpha virt. eigenvalues --    2.23861   2.24542   2.24923   2.25198   2.25502
 Alpha virt. eigenvalues --    2.26266   2.26542   2.26828   2.27125   2.27444
 Alpha virt. eigenvalues --    2.27695   2.28147   2.28453   2.29059   2.29156
 Alpha virt. eigenvalues --    2.29624   2.29970   2.30477   2.30850   2.30928
 Alpha virt. eigenvalues --    2.31119   2.31464   2.32048   2.32422   2.32546
 Alpha virt. eigenvalues --    2.32999   2.33586   2.33963   2.34432   2.34968
 Alpha virt. eigenvalues --    2.35050   2.35776   2.36025   2.36325   2.36657
 Alpha virt. eigenvalues --    2.36715   2.37199   2.37360   2.37765   2.38011
 Alpha virt. eigenvalues --    2.38393   2.38500   2.38703   2.39183   2.39297
 Alpha virt. eigenvalues --    2.39923   2.40386   2.40717   2.40963   2.41113
 Alpha virt. eigenvalues --    2.41516   2.41995   2.42173   2.42551   2.42835
 Alpha virt. eigenvalues --    2.43100   2.43632   2.43991   2.44053   2.44747
 Alpha virt. eigenvalues --    2.44957   2.45588   2.45750   2.45908   2.46036
 Alpha virt. eigenvalues --    2.46513   2.47051   2.47443   2.47815   2.47941
 Alpha virt. eigenvalues --    2.48671   2.48752   2.49279   2.49844   2.50559
 Alpha virt. eigenvalues --    2.50765   2.51020   2.51194   2.51747   2.52081
 Alpha virt. eigenvalues --    2.52119   2.52394   2.52614   2.52686   2.53361
 Alpha virt. eigenvalues --    2.53543   2.53732   2.54478   2.54626   2.54756
 Alpha virt. eigenvalues --    2.55375   2.55806   2.55970   2.56504   2.56662
 Alpha virt. eigenvalues --    2.56889   2.56984   2.57476   2.57654   2.57843
 Alpha virt. eigenvalues --    2.58061   2.58421   2.58800   2.59023   2.59400
 Alpha virt. eigenvalues --    2.59697   2.60185   2.60411   2.60563   2.60845
 Alpha virt. eigenvalues --    2.60937   2.61593   2.61662   2.61807   2.62186
 Alpha virt. eigenvalues --    2.62352   2.62475   2.62587   2.63339   2.63489
 Alpha virt. eigenvalues --    2.63657   2.64151   2.64570   2.64892   2.65252
 Alpha virt. eigenvalues --    2.65589   2.65913   2.66342   2.66773   2.66844
 Alpha virt. eigenvalues --    2.66984   2.67207   2.67527   2.67864   2.68234
 Alpha virt. eigenvalues --    2.68585   2.69014   2.69097   2.69789   2.70022
 Alpha virt. eigenvalues --    2.70423   2.70644   2.71185   2.71356   2.71717
 Alpha virt. eigenvalues --    2.71919   2.72276   2.72512   2.72930   2.73349
 Alpha virt. eigenvalues --    2.73682   2.73763   2.74077   2.74256   2.74692
 Alpha virt. eigenvalues --    2.75131   2.75505   2.75726   2.76008   2.76410
 Alpha virt. eigenvalues --    2.76799   2.77317   2.77505   2.77701   2.77852
 Alpha virt. eigenvalues --    2.78458   2.78581   2.78905   2.79192   2.79223
 Alpha virt. eigenvalues --    2.79785   2.79841   2.80367   2.81013   2.81140
 Alpha virt. eigenvalues --    2.81381   2.81617   2.81943   2.82057   2.82423
 Alpha virt. eigenvalues --    2.82643   2.83327   2.83522   2.84108   2.84205
 Alpha virt. eigenvalues --    2.84512   2.84818   2.85013   2.85222   2.85719
 Alpha virt. eigenvalues --    2.85732   2.86244   2.86601   2.86832   2.87328
 Alpha virt. eigenvalues --    2.87577   2.88220   2.88486   2.88567   2.88957
 Alpha virt. eigenvalues --    2.89183   2.89455   2.90198   2.90311   2.90778
 Alpha virt. eigenvalues --    2.90820   2.91031   2.91246   2.91782   2.91898
 Alpha virt. eigenvalues --    2.92071   2.92625   2.92986   2.93341   2.93659
 Alpha virt. eigenvalues --    2.94289   2.94498   2.94775   2.95252   2.95526
 Alpha virt. eigenvalues --    2.95609   2.95895   2.96090   2.96207   2.96620
 Alpha virt. eigenvalues --    2.97220   2.97476   2.97705   2.97820   2.98218
 Alpha virt. eigenvalues --    2.99172   2.99936   3.00200   3.00289   3.00803
 Alpha virt. eigenvalues --    3.00995   3.01246   3.01378   3.01964   3.02115
 Alpha virt. eigenvalues --    3.02586   3.02903   3.03201   3.03349   3.03517
 Alpha virt. eigenvalues --    3.03975   3.04149   3.04432   3.05155   3.05286
 Alpha virt. eigenvalues --    3.05528   3.05664   3.05846   3.06057   3.06580
 Alpha virt. eigenvalues --    3.06648   3.06972   3.07056   3.07459   3.07838
 Alpha virt. eigenvalues --    3.08031   3.08137   3.08447   3.08807   3.08933
 Alpha virt. eigenvalues --    3.09309   3.09468   3.09647   3.10010   3.10499
 Alpha virt. eigenvalues --    3.10618   3.10849   3.10923   3.11278   3.11696
 Alpha virt. eigenvalues --    3.11738   3.12473   3.12631   3.12907   3.13010
 Alpha virt. eigenvalues --    3.13332   3.13667   3.13972   3.14131   3.14220
 Alpha virt. eigenvalues --    3.14854   3.15100   3.15296   3.15520   3.15811
 Alpha virt. eigenvalues --    3.15899   3.16293   3.16508   3.16636   3.17402
 Alpha virt. eigenvalues --    3.17490   3.17653   3.18188   3.18453   3.18641
 Alpha virt. eigenvalues --    3.18849   3.19141   3.19546   3.19596   3.19796
 Alpha virt. eigenvalues --    3.20432   3.20594   3.21004   3.21147   3.21473
 Alpha virt. eigenvalues --    3.21498   3.22068   3.22361   3.22553   3.22823
 Alpha virt. eigenvalues --    3.23054   3.23493   3.23577   3.23887   3.24196
 Alpha virt. eigenvalues --    3.24242   3.24556   3.24858   3.24944   3.24970
 Alpha virt. eigenvalues --    3.25436   3.25644   3.25879   3.26058   3.26619
 Alpha virt. eigenvalues --    3.26852   3.27078   3.27318   3.27645   3.28149
 Alpha virt. eigenvalues --    3.28236   3.28381   3.28643   3.28938   3.29387
 Alpha virt. eigenvalues --    3.29625   3.29857   3.30240   3.30300   3.30454
 Alpha virt. eigenvalues --    3.30727   3.30932   3.31382   3.31446   3.31872
 Alpha virt. eigenvalues --    3.32326   3.32451   3.32685   3.32854   3.33011
 Alpha virt. eigenvalues --    3.33313   3.33569   3.33939   3.34220   3.34462
 Alpha virt. eigenvalues --    3.34548   3.34744   3.34852   3.35063   3.35299
 Alpha virt. eigenvalues --    3.35629   3.36069   3.36224   3.36476   3.36615
 Alpha virt. eigenvalues --    3.36890   3.37032   3.37315   3.37478   3.37988
 Alpha virt. eigenvalues --    3.38235   3.38335   3.38593   3.38919   3.39050
 Alpha virt. eigenvalues --    3.39345   3.39449   3.39673   3.39768   3.39938
 Alpha virt. eigenvalues --    3.40236   3.40400   3.40522   3.40864   3.41063
 Alpha virt. eigenvalues --    3.41436   3.41590   3.42085   3.42190   3.42529
 Alpha virt. eigenvalues --    3.42807   3.43126   3.43557   3.43719   3.43899
 Alpha virt. eigenvalues --    3.44032   3.44447   3.45085   3.45195   3.45670
 Alpha virt. eigenvalues --    3.45941   3.46324   3.46537   3.46638   3.47124
 Alpha virt. eigenvalues --    3.47286   3.47472   3.47632   3.48126   3.48425
 Alpha virt. eigenvalues --    3.48592   3.48983   3.49197   3.49366   3.49761
 Alpha virt. eigenvalues --    3.49834   3.50432   3.50437   3.51019   3.51420
 Alpha virt. eigenvalues --    3.51682   3.51949   3.52448   3.52748   3.53090
 Alpha virt. eigenvalues --    3.53676   3.54158   3.54360   3.54568   3.54826
 Alpha virt. eigenvalues --    3.54908   3.55187   3.55735   3.55943   3.56184
 Alpha virt. eigenvalues --    3.56787   3.57004   3.57129   3.57571   3.57841
 Alpha virt. eigenvalues --    3.57949   3.58324   3.58818   3.59371   3.59565
 Alpha virt. eigenvalues --    3.59826   3.60590   3.60839   3.61591   3.61713
 Alpha virt. eigenvalues --    3.62093   3.62389   3.62480   3.62661   3.62911
 Alpha virt. eigenvalues --    3.63546   3.63635   3.63943   3.64374   3.65221
 Alpha virt. eigenvalues --    3.65587   3.65763   3.65873   3.66630   3.66942
 Alpha virt. eigenvalues --    3.67221   3.67413   3.67663   3.67895   3.68729
 Alpha virt. eigenvalues --    3.68901   3.68968   3.69316   3.69725   3.70420
 Alpha virt. eigenvalues --    3.70500   3.71007   3.71500   3.71715   3.72076
 Alpha virt. eigenvalues --    3.72641   3.72806   3.73283   3.73405   3.73966
 Alpha virt. eigenvalues --    3.73987   3.74503   3.74674   3.75408   3.75802
 Alpha virt. eigenvalues --    3.76168   3.76353   3.76755   3.77000   3.77178
 Alpha virt. eigenvalues --    3.77597   3.78174   3.78622   3.78797   3.78859
 Alpha virt. eigenvalues --    3.79320   3.80103   3.80430   3.81146   3.81862
 Alpha virt. eigenvalues --    3.82200   3.82327   3.82814   3.83178   3.83541
 Alpha virt. eigenvalues --    3.84013   3.84175   3.84328   3.84890   3.85026
 Alpha virt. eigenvalues --    3.85488   3.85697   3.86473   3.87029   3.87512
 Alpha virt. eigenvalues --    3.87979   3.88094   3.89073   3.89277   3.89766
 Alpha virt. eigenvalues --    3.89966   3.90173   3.91256   3.91617   3.91959
 Alpha virt. eigenvalues --    3.92670   3.92917   3.93411   3.93609   3.94229
 Alpha virt. eigenvalues --    3.94671   3.94710   3.95188   3.95665   3.96015
 Alpha virt. eigenvalues --    3.96453   3.96715   3.97101   3.97696   3.97935
 Alpha virt. eigenvalues --    3.98499   3.98960   3.99471   4.00068   4.00466
 Alpha virt. eigenvalues --    4.00762   4.01195   4.01407   4.02415   4.02823
 Alpha virt. eigenvalues --    4.03352   4.03909   4.04602   4.05061   4.05573
 Alpha virt. eigenvalues --    4.05827   4.06262   4.06775   4.07027   4.07662
 Alpha virt. eigenvalues --    4.08645   4.08808   4.09600   4.09839   4.09983
 Alpha virt. eigenvalues --    4.11806   4.12225   4.12514   4.13152   4.14074
 Alpha virt. eigenvalues --    4.14672   4.15217   4.15375   4.15867   4.16528
 Alpha virt. eigenvalues --    4.16781   4.17513   4.17946   4.18573   4.18910
 Alpha virt. eigenvalues --    4.19141   4.19541   4.20671   4.20902   4.21465
 Alpha virt. eigenvalues --    4.21616   4.21945   4.22574   4.23447   4.23857
 Alpha virt. eigenvalues --    4.23869   4.24422   4.25359   4.25576   4.26603
 Alpha virt. eigenvalues --    4.26837   4.27489   4.28146   4.28624   4.28956
 Alpha virt. eigenvalues --    4.29524   4.29764   4.30454   4.31168   4.31931
 Alpha virt. eigenvalues --    4.32086   4.32306   4.32553   4.32997   4.33718
 Alpha virt. eigenvalues --    4.33991   4.34640   4.34703   4.35118   4.35779
 Alpha virt. eigenvalues --    4.36166   4.36367   4.36433   4.37462   4.37721
 Alpha virt. eigenvalues --    4.37983   4.38486   4.39093   4.40097   4.40555
 Alpha virt. eigenvalues --    4.41291   4.41431   4.41713   4.42548   4.42739
 Alpha virt. eigenvalues --    4.43061   4.44718   4.44798   4.45333   4.45938
 Alpha virt. eigenvalues --    4.46297   4.46796   4.47621   4.47873   4.48147
 Alpha virt. eigenvalues --    4.48715   4.48871   4.49175   4.49586   4.50357
 Alpha virt. eigenvalues --    4.50771   4.51391   4.51702   4.52151   4.52818
 Alpha virt. eigenvalues --    4.54148   4.54757   4.55353   4.55428   4.56169
 Alpha virt. eigenvalues --    4.57775   4.57912   4.58248   4.58933   4.59951
 Alpha virt. eigenvalues --    4.60102   4.60979   4.61503   4.62003   4.62901
 Alpha virt. eigenvalues --    4.63661   4.64162   4.64852   4.65179   4.66112
 Alpha virt. eigenvalues --    4.66621   4.67069   4.67551   4.68784   4.69151
 Alpha virt. eigenvalues --    4.69494   4.70083   4.70640   4.71222   4.71786
 Alpha virt. eigenvalues --    4.71954   4.72642   4.72961   4.74485   4.75062
 Alpha virt. eigenvalues --    4.75262   4.75500   4.75724   4.76428   4.76821
 Alpha virt. eigenvalues --    4.77638   4.78710   4.79344   4.79995   4.80759
 Alpha virt. eigenvalues --    4.81365   4.81939   4.83135   4.83242   4.83615
 Alpha virt. eigenvalues --    4.84774   4.85167   4.85563   4.86522   4.86935
 Alpha virt. eigenvalues --    4.88064   4.88423   4.88894   4.89539   4.90269
 Alpha virt. eigenvalues --    4.91088   4.91699   4.91846   4.92526   4.92767
 Alpha virt. eigenvalues --    4.93816   4.94694   4.95763   4.96907   4.97317
 Alpha virt. eigenvalues --    4.98045   4.99089   5.00003   5.00342   5.00816
 Alpha virt. eigenvalues --    5.01513   5.02925   5.03482   5.03574   5.04066
 Alpha virt. eigenvalues --    5.04778   5.06493   5.07138   5.08483   5.09755
 Alpha virt. eigenvalues --    5.10230   5.11544   5.15155   5.15772   5.16151
 Alpha virt. eigenvalues --    5.16468   5.16715   5.17749   5.18571   5.18832
 Alpha virt. eigenvalues --    5.19993   5.20446   5.21910   5.22125   5.22571
 Alpha virt. eigenvalues --    5.23007   5.23590   5.23788   5.24358   5.24665
 Alpha virt. eigenvalues --    5.26825   5.28169   5.29005   5.30167   5.31365
 Alpha virt. eigenvalues --    5.31880   5.32885   5.33438   5.33953   5.34837
 Alpha virt. eigenvalues --    5.36038   5.36564   5.38227   5.38904   5.41088
 Alpha virt. eigenvalues --    5.42174   5.43412   5.44687   5.45361   5.45766
 Alpha virt. eigenvalues --    5.46113   5.46680   5.48134   5.48739   5.49994
 Alpha virt. eigenvalues --    5.51785   5.53958   5.55987   5.56507   5.57041
 Alpha virt. eigenvalues --    5.57982   5.58320   5.58542   5.58972   5.59411
 Alpha virt. eigenvalues --    5.60788   5.61269   5.61642   5.62657   5.62923
 Alpha virt. eigenvalues --    5.63661   5.66274   5.70441   5.72644   5.76053
 Alpha virt. eigenvalues --    5.77208   5.77784   5.78809   5.81413   5.82343
 Alpha virt. eigenvalues --    5.83682   5.91784   5.93251   5.93781   5.95077
 Alpha virt. eigenvalues --    5.95359   5.96579   5.96721   5.99277   6.00772
 Alpha virt. eigenvalues --    6.01296   6.04326   6.08064   6.09264   6.09759
 Alpha virt. eigenvalues --    6.10686   6.12308   6.12361   6.13646   6.16496
 Alpha virt. eigenvalues --    6.17602   6.18688   6.25848   6.26285   6.28277
 Alpha virt. eigenvalues --    6.29692   6.32536   6.33206   6.34333   6.34404
 Alpha virt. eigenvalues --    6.40106   6.42014   6.43493   6.45754   6.49909
 Alpha virt. eigenvalues --    6.50830   6.64904   6.65132   6.73198   6.75554
 Alpha virt. eigenvalues --    6.79869   6.83630   6.89173   6.93812   6.99998
 Alpha virt. eigenvalues --    7.06332   7.10215   7.13811   7.18061   7.19033
 Alpha virt. eigenvalues --    7.25091   7.32446   9.25768   9.47445   9.59421
 Alpha virt. eigenvalues --   20.09779  22.46830  22.49505  22.50498  22.52078
 Alpha virt. eigenvalues --   22.53327  22.53930  22.54635  22.54975  22.55445
 Alpha virt. eigenvalues --   22.56097  22.59543  22.60929  22.64011  22.66163
 Alpha virt. eigenvalues --   22.66945  22.71056  22.81479  22.93277  22.94526
 Alpha virt. eigenvalues --   22.96016  22.96538  22.98578  23.06353  23.09491
 Alpha virt. eigenvalues --   23.13911  23.18536  23.23190  23.28180  23.29161
 Alpha virt. eigenvalues --   23.33965  23.38351  23.42207  23.49497  23.51160
 Alpha virt. eigenvalues --   23.52982  23.57821  23.61266  23.71647  23.76204
 Alpha virt. eigenvalues --   23.77542  23.87729  32.45572  32.80970  32.94590
 Alpha virt. eigenvalues --   33.01918  33.08313  33.14172  43.92568  43.95338
 Alpha virt. eigenvalues --   43.95816  43.98878
  Beta  occ. eigenvalues -- -256.43004 -89.07009 -30.19462 -26.02470 -26.02335
  Beta  occ. eigenvalues --  -26.01601 -19.28426 -19.26162 -19.20017 -19.18702
  Beta  occ. eigenvalues --  -14.46107 -14.42946 -14.41498 -14.41255 -14.41102
  Beta  occ. eigenvalues --  -14.40939 -10.36736 -10.36563 -10.30293 -10.27986
  Beta  occ. eigenvalues --  -10.27821 -10.27778 -10.27701 -10.27697 -10.27692
  Beta  occ. eigenvalues --  -10.27576 -10.27570 -10.27514 -10.26359 -10.25567
  Beta  occ. eigenvalues --  -10.25359 -10.25018 -10.24917 -10.24831 -10.24687
  Beta  occ. eigenvalues --  -10.24526 -10.24498 -10.24481 -10.24382 -10.24315
  Beta  occ. eigenvalues --  -10.24312 -10.24273 -10.24182 -10.24130 -10.23910
  Beta  occ. eigenvalues --  -10.23640 -10.23609 -10.23342 -10.23129 -10.23071
  Beta  occ. eigenvalues --  -10.22933 -10.22642 -10.22471 -10.22364 -10.21897
  Beta  occ. eigenvalues --  -10.21100 -10.20991  -8.04773  -5.98362  -5.98122
  Beta  occ. eigenvalues --   -5.97716  -3.51772  -2.27167  -2.26956  -2.26457
  Beta  occ. eigenvalues --   -1.19195  -1.17753  -1.08790  -1.04835  -1.02535
  Beta  occ. eigenvalues --   -1.01334  -1.00338  -1.00171  -0.99206  -0.94104
  Beta  occ. eigenvalues --   -0.87102  -0.86851  -0.85751  -0.85505  -0.84879
  Beta  occ. eigenvalues --   -0.84573  -0.83942  -0.83829  -0.82788  -0.81317
  Beta  occ. eigenvalues --   -0.80855  -0.79418  -0.79237  -0.78684  -0.78578
  Beta  occ. eigenvalues --   -0.76289  -0.74638  -0.74299  -0.74082  -0.73492
  Beta  occ. eigenvalues --   -0.71880  -0.71536  -0.71453  -0.69695  -0.68853
  Beta  occ. eigenvalues --   -0.68503  -0.66770  -0.66605  -0.66346  -0.65601
  Beta  occ. eigenvalues --   -0.65382  -0.63922  -0.62842  -0.62338  -0.60838
  Beta  occ. eigenvalues --   -0.58677  -0.58348  -0.57533  -0.57481  -0.56301
  Beta  occ. eigenvalues --   -0.55050  -0.54752  -0.54467  -0.53751  -0.52910
  Beta  occ. eigenvalues --   -0.52743  -0.52213  -0.51935  -0.51318  -0.51041
  Beta  occ. eigenvalues --   -0.50855  -0.50749  -0.50688  -0.50141  -0.50040
  Beta  occ. eigenvalues --   -0.49563  -0.49060  -0.48535  -0.48437  -0.47788
  Beta  occ. eigenvalues --   -0.47556  -0.47253  -0.47189  -0.46809  -0.46400
  Beta  occ. eigenvalues --   -0.46349  -0.45904  -0.45630  -0.45513  -0.45156
  Beta  occ. eigenvalues --   -0.44921  -0.44780  -0.44596  -0.44249  -0.43916
  Beta  occ. eigenvalues --   -0.43817  -0.43691  -0.43339  -0.43131  -0.43008
  Beta  occ. eigenvalues --   -0.42695  -0.42513  -0.42205  -0.41807  -0.41746
  Beta  occ. eigenvalues --   -0.41605  -0.41172  -0.41073  -0.40706  -0.40450
  Beta  occ. eigenvalues --   -0.40400  -0.40028  -0.39827  -0.39719  -0.39387
  Beta  occ. eigenvalues --   -0.39149  -0.38885  -0.38782  -0.38727  -0.38531
  Beta  occ. eigenvalues --   -0.38435  -0.37937  -0.37694  -0.37139  -0.36759
  Beta  occ. eigenvalues --   -0.36235  -0.35972  -0.35870  -0.35713  -0.35446
  Beta  occ. eigenvalues --   -0.35240  -0.34978  -0.34572  -0.34350  -0.33602
  Beta  occ. eigenvalues --   -0.33137  -0.31377  -0.30921  -0.30722  -0.30280
  Beta  occ. eigenvalues --   -0.29827  -0.28955  -0.28329  -0.27248  -0.26760
  Beta  occ. eigenvalues --   -0.26734  -0.26040  -0.25139  -0.22428  -0.21777
  Beta virt. eigenvalues --   -0.11986  -0.09897  -0.07987  -0.06409  -0.03373
  Beta virt. eigenvalues --   -0.02937  -0.02274  -0.00643   0.00391   0.00639
  Beta virt. eigenvalues --    0.01178   0.01838   0.02027   0.02398   0.02727
  Beta virt. eigenvalues --    0.03403   0.03497   0.04033   0.04205   0.04617
  Beta virt. eigenvalues --    0.04917   0.05133   0.05349   0.05505   0.05862
  Beta virt. eigenvalues --    0.06322   0.06418   0.06703   0.06943   0.07103
  Beta virt. eigenvalues --    0.07380   0.07653   0.07766   0.08051   0.08456
  Beta virt. eigenvalues --    0.08687   0.08904   0.09503   0.09672   0.09891
  Beta virt. eigenvalues --    0.10069   0.10231   0.10561   0.10713   0.10936
  Beta virt. eigenvalues --    0.11127   0.11298   0.11433   0.11631   0.11765
  Beta virt. eigenvalues --    0.11872   0.11989   0.12153   0.12176   0.12513
  Beta virt. eigenvalues --    0.12965   0.13055   0.13168   0.13410   0.13544
  Beta virt. eigenvalues --    0.13586   0.13673   0.13853   0.13997   0.14165
  Beta virt. eigenvalues --    0.14253   0.14316   0.14911   0.14978   0.15176
  Beta virt. eigenvalues --    0.15273   0.15458   0.15663   0.15962   0.16157
  Beta virt. eigenvalues --    0.16412   0.16671   0.16678   0.17014   0.17237
  Beta virt. eigenvalues --    0.17595   0.17815   0.18238   0.18442   0.18613
  Beta virt. eigenvalues --    0.18663   0.18931   0.18998   0.19183   0.19403
  Beta virt. eigenvalues --    0.19607   0.19768   0.19859   0.20268   0.20436
  Beta virt. eigenvalues --    0.20471   0.20833   0.21013   0.21237   0.21482
  Beta virt. eigenvalues --    0.21578   0.21823   0.21892   0.22190   0.22389
  Beta virt. eigenvalues --    0.22479   0.22495   0.23092   0.23129   0.23435
  Beta virt. eigenvalues --    0.23497   0.23927   0.23999   0.24250   0.24358
  Beta virt. eigenvalues --    0.24426   0.24623   0.24714   0.24758   0.24891
  Beta virt. eigenvalues --    0.25165   0.25562   0.25718   0.25975   0.26274
  Beta virt. eigenvalues --    0.26405   0.26944   0.27026   0.27209   0.27348
  Beta virt. eigenvalues --    0.27511   0.27756   0.28024   0.28118   0.28472
  Beta virt. eigenvalues --    0.28841   0.28963   0.29164   0.29370   0.29717
  Beta virt. eigenvalues --    0.29918   0.30170   0.30376   0.30587   0.30731
  Beta virt. eigenvalues --    0.30826   0.30957   0.31441   0.31661   0.31933
  Beta virt. eigenvalues --    0.32268   0.32532   0.32542   0.32721   0.33269
  Beta virt. eigenvalues --    0.33545   0.33649   0.33914   0.34403   0.34576
  Beta virt. eigenvalues --    0.34775   0.35112   0.35171   0.35391   0.35538
  Beta virt. eigenvalues --    0.35669   0.35799   0.36334   0.36636   0.36710
  Beta virt. eigenvalues --    0.36911   0.37089   0.37275   0.37375   0.37761
  Beta virt. eigenvalues --    0.37802   0.38093   0.38191   0.38505   0.38680
  Beta virt. eigenvalues --    0.38783   0.39027   0.39104   0.39353   0.39620
  Beta virt. eigenvalues --    0.39686   0.39962   0.40102   0.40173   0.40538
  Beta virt. eigenvalues --    0.40678   0.40848   0.40950   0.41133   0.41469
  Beta virt. eigenvalues --    0.41612   0.41696   0.41908   0.42050   0.42345
  Beta virt. eigenvalues --    0.42517   0.42582   0.42792   0.42998   0.43191
  Beta virt. eigenvalues --    0.43267   0.43567   0.43797   0.43866   0.44064
  Beta virt. eigenvalues --    0.44195   0.44343   0.44641   0.44784   0.44845
  Beta virt. eigenvalues --    0.44874   0.45158   0.45241   0.45390   0.45489
  Beta virt. eigenvalues --    0.45596   0.45705   0.45930   0.46016   0.46174
  Beta virt. eigenvalues --    0.46397   0.46633   0.46699   0.46895   0.47021
  Beta virt. eigenvalues --    0.47088   0.47247   0.47600   0.47677   0.47819
  Beta virt. eigenvalues --    0.47990   0.48319   0.48324   0.48468   0.48777
  Beta virt. eigenvalues --    0.48848   0.49061   0.49111   0.49324   0.49400
  Beta virt. eigenvalues --    0.49622   0.49929   0.49963   0.50140   0.50291
  Beta virt. eigenvalues --    0.50469   0.50651   0.50835   0.51080   0.51467
  Beta virt. eigenvalues --    0.51647   0.51813   0.51963   0.52163   0.52280
  Beta virt. eigenvalues --    0.52433   0.52681   0.52752   0.52976   0.53033
[...]
  Beta virt. eigenvalues --    3.39071   3.39358   3.39475   3.39686   3.39789
  Beta virt. eigenvalues --    3.39967   3.40247   3.40419   3.40541   3.40884
  Beta virt. eigenvalues --    3.41076   3.41449   3.41603   3.42099   3.42200
  Beta virt. eigenvalues --    3.42542   3.42816   3.43144   3.43568   3.43729
  Beta virt. eigenvalues --    3.43926   3.44043   3.44471   3.45114   3.45213
  Beta virt. eigenvalues --    3.45691   3.45962   3.46359   3.46566   3.46655
  Beta virt. eigenvalues --    3.47146   3.47295   3.47488   3.47670   3.48144
  Beta virt. eigenvalues --    3.48462   3.48604   3.49002   3.49230   3.49417
  Beta virt. eigenvalues --    3.49804   3.49856   3.50444   3.50462   3.51042
  Beta virt. eigenvalues --    3.51435   3.51700   3.51970   3.52476   3.52787
  Beta virt. eigenvalues --    3.53111   3.53705   3.54180   3.54375   3.54574
  Beta virt. eigenvalues --    3.54837   3.54942   3.55201   3.55749   3.55987
  Beta virt. eigenvalues --    3.56210   3.56836   3.57030   3.57158   3.57597
  Beta virt. eigenvalues --    3.57880   3.57983   3.58388   3.58833   3.59395
  Beta virt. eigenvalues --    3.59594   3.59845   3.60632   3.60874   3.61627
  Beta virt. eigenvalues --    3.61761   3.62126   3.62433   3.62522   3.62702
  Beta virt. eigenvalues --    3.62971   3.63564   3.63671   3.63985   3.64438
  Beta virt. eigenvalues --    3.65244   3.65606   3.65786   3.66078   3.66647
  Beta virt. eigenvalues --    3.67045   3.67252   3.67516   3.67715   3.67930
  Beta virt. eigenvalues --    3.68745   3.68927   3.68990   3.69333   3.69786
  Beta virt. eigenvalues --    3.70449   3.70517   3.71021   3.71528   3.71787
  Beta virt. eigenvalues --    3.72096   3.72659   3.72873   3.73343   3.73424
  Beta virt. eigenvalues --    3.73989   3.74153   3.74531   3.74725   3.75432
  Beta virt. eigenvalues --    3.75833   3.76200   3.76388   3.76783   3.77033
  Beta virt. eigenvalues --    3.77215   3.77677   3.78221   3.78670   3.78812
  Beta virt. eigenvalues --    3.78879   3.79365   3.80143   3.80476   3.81165
  Beta virt. eigenvalues --    3.81954   3.82279   3.82372   3.82881   3.83226
  Beta virt. eigenvalues --    3.83561   3.84026   3.84226   3.84351   3.84933
  Beta virt. eigenvalues --    3.85094   3.85501   3.85784   3.86689   3.87145
  Beta virt. eigenvalues --    3.87541   3.88067   3.88276   3.89117   3.89605
  Beta virt. eigenvalues --    3.89928   3.90070   3.90269   3.91632   3.91821
  Beta virt. eigenvalues --    3.92148   3.92785   3.92970   3.93540   3.93824
  Beta virt. eigenvalues --    3.94364   3.94710   3.95067   3.95240   3.95874
  Beta virt. eigenvalues --    3.96109   3.96509   3.97022   3.97216   3.98000
  Beta virt. eigenvalues --    3.98063   3.98628   3.99487   3.99937   4.00424
  Beta virt. eigenvalues --    4.00754   4.01279   4.01577   4.01675   4.02745
  Beta virt. eigenvalues --    4.02945   4.03605   4.04107   4.04789   4.05228
  Beta virt. eigenvalues --    4.05704   4.06268   4.06471   4.07370   4.08194
  Beta virt. eigenvalues --    4.08728   4.08997   4.09676   4.09945   4.11130
  Beta virt. eigenvalues --    4.11944   4.12565   4.12692   4.13194   4.13439
  Beta virt. eigenvalues --    4.14307   4.15284   4.15698   4.15941   4.16056
  Beta virt. eigenvalues --    4.16782   4.17073   4.17638   4.18126   4.18760
  Beta virt. eigenvalues --    4.18969   4.19281   4.19646   4.20795   4.21032
  Beta virt. eigenvalues --    4.21511   4.21984   4.22172   4.22732   4.23751
  Beta virt. eigenvalues --    4.24161   4.24232   4.25115   4.25418   4.25740
  Beta virt. eigenvalues --    4.26756   4.27224   4.27634   4.28258   4.29033
  Beta virt. eigenvalues --    4.29285   4.29661   4.30683   4.31095   4.31937
  Beta virt. eigenvalues --    4.32084   4.32157   4.32426   4.33007   4.33210
  Beta virt. eigenvalues --    4.33833   4.34498   4.34768   4.34973   4.35160
  Beta virt. eigenvalues --    4.36070   4.36265   4.36501   4.36546   4.37645
  Beta virt. eigenvalues --    4.37897   4.38067   4.38640   4.39151   4.40151
  Beta virt. eigenvalues --    4.40629   4.41356   4.41542   4.42112   4.42802
  Beta virt. eigenvalues --    4.43164   4.43336   4.44799   4.44882   4.45710
  Beta virt. eigenvalues --    4.46049   4.46352   4.46885   4.47713   4.47931
  Beta virt. eigenvalues --    4.48320   4.48828   4.48926   4.49349   4.49644
  Beta virt. eigenvalues --    4.50506   4.50869   4.51530   4.51977   4.52459
  Beta virt. eigenvalues --    4.52856   4.54208   4.54781   4.55385   4.55464
  Beta virt. eigenvalues --    4.56195   4.57801   4.57948   4.58314   4.58964
  Beta virt. eigenvalues --    4.59975   4.60126   4.60999   4.61524   4.62058
  Beta virt. eigenvalues --    4.62913   4.63694   4.64189   4.64866   4.65228
  Beta virt. eigenvalues --    4.66146   4.66729   4.67107   4.67604   4.68837
  Beta virt. eigenvalues --    4.69164   4.69529   4.70126   4.70735   4.71254
  Beta virt. eigenvalues --    4.71804   4.71965   4.72652   4.72973   4.74502
  Beta virt. eigenvalues --    4.75070   4.75273   4.75526   4.75730   4.76430
  Beta virt. eigenvalues --    4.76823   4.77642   4.78724   4.79354   4.80019
  Beta virt. eigenvalues --    4.80777   4.81378   4.81980   4.83159   4.83271
  Beta virt. eigenvalues --    4.83625   4.84792   4.85171   4.85565   4.86533
  Beta virt. eigenvalues --    4.86933   4.88075   4.88426   4.88920   4.89614
  Beta virt. eigenvalues --    4.90228   4.91099   4.91689   4.91878   4.92542
  Beta virt. eigenvalues --    4.92766   4.93851   4.94729   4.95733   4.96928
  Beta virt. eigenvalues --    4.97291   4.98083   4.99101   5.00026   5.00386
  Beta virt. eigenvalues --    5.00821   5.01531   5.02939   5.03487   5.03612
  Beta virt. eigenvalues --    5.04101   5.04752   5.06484   5.07133   5.08467
  Beta virt. eigenvalues --    5.09775   5.10232   5.11573   5.15161   5.15774
  Beta virt. eigenvalues --    5.16151   5.16467   5.16714   5.17746   5.18559
  Beta virt. eigenvalues --    5.18832   5.19984   5.20437   5.21940   5.22144
  Beta virt. eigenvalues --    5.22574   5.22985   5.23614   5.23791   5.24371
  Beta virt. eigenvalues --    5.24731   5.26760   5.28113   5.28990   5.30132
  Beta virt. eigenvalues --    5.31339   5.31852   5.32871   5.33372   5.33972
  Beta virt. eigenvalues --    5.34782   5.36008   5.36522   5.38196   5.38882
  Beta virt. eigenvalues --    5.41087   5.42161   5.43405   5.44631   5.45300
  Beta virt. eigenvalues --    5.45764   5.46109   5.46634   5.48095   5.48703
  Beta virt. eigenvalues --    5.49935   5.51761   5.53988   5.55986   5.56530
  Beta virt. eigenvalues --    5.57040   5.57976   5.58321   5.58553   5.58962
  Beta virt. eigenvalues --    5.59396   5.60751   5.61255   5.61646   5.62655
  Beta virt. eigenvalues --    5.62903   5.63629   5.66248   5.70402   5.72604
  Beta virt. eigenvalues --    5.76030   5.77186   5.77783   5.78809   5.81392
  Beta virt. eigenvalues --    5.82308   5.83658   5.91744   5.93205   5.93773
  Beta virt. eigenvalues --    5.95041   5.95352   5.96519   5.96657   5.99243
  Beta virt. eigenvalues --    6.00716   6.01250   6.04323   6.08039   6.09276
  Beta virt. eigenvalues --    6.09758   6.10644   6.12307   6.12376   6.13623
  Beta virt. eigenvalues --    6.16419   6.17602   6.18632   6.25772   6.26282
  Beta virt. eigenvalues --    6.28227   6.29641   6.32536   6.33206   6.34324
  Beta virt. eigenvalues --    6.34370   6.40107   6.42015   6.43494   6.45754
  Beta virt. eigenvalues --    6.49910   6.50830   6.64904   6.65133   6.73198
  Beta virt. eigenvalues --    6.75554   6.79869   6.83631   6.89173   6.93812
  Beta virt. eigenvalues --    6.99999   7.06332   7.10215   7.13811   7.18061
  Beta virt. eigenvalues --    7.19034   7.25091   7.32446   9.25685   9.47365
  Beta virt. eigenvalues --    9.59379  20.09724  22.46834  22.49505  22.50500
  Beta virt. eigenvalues --   22.52078  22.53329  22.53931  22.54636  22.54975
  Beta virt. eigenvalues --   22.55445  22.56097  22.59546  22.60931  22.64011
  Beta virt. eigenvalues --   22.66162  22.66944  22.71056  22.81481  22.93281
  Beta virt. eigenvalues --   22.94532  22.96021  22.96543  22.98575  23.06350
  Beta virt. eigenvalues --   23.09487  23.13914  23.18532  23.23197  23.28183
  Beta virt. eigenvalues --   23.29167  23.33964  23.38354  23.42214  23.49499
  Beta virt. eigenvalues --   23.51169  23.52988  23.57826  23.61268  23.71655
  Beta virt. eigenvalues --   23.76210  23.77548  23.87735  32.45569  32.80893
  Beta virt. eigenvalues --   32.94529  33.01862  33.08259  33.14111  43.92568
  Beta virt. eigenvalues --   43.95338  43.95816  43.98878
          Condensed to atoms (all electrons):
          Atomic-Atomic Spin Densities.
 Mulliken charges and spin densities:
               1          2
     1  C   -0.385580  -0.000183
     2  C    0.132388  -0.000133
     3  N   -0.202352  -0.000910
     4  C   -0.222105   0.001986
     5  C    0.010787   0.001581
     6  N    0.058597  -0.036468
     7  C   -0.377046  -0.000114
     8  C   -0.152907   0.004007
     9  S    0.053177  -0.047673
    10  C   -0.385606   0.004412
    11  Fe  -0.483465   1.165348
    12  C   -0.536232  -0.009996
    13  C   -0.549877  -0.005574
    14  C   -0.504528  -0.008699
    15  C   -0.527889  -0.005535
    16  N    0.060281  -0.041690
    17  C    0.263282   0.003748
    18  C    0.000513   0.013885
    19  C   -0.090547  -0.005225
    20  C    0.305865   0.012493
    21  C   -0.441085  -0.000323
    22  C   -0.309430  -0.001152
    23  C   -0.190543   0.000645
    24  C    0.278896   0.000063
    25  O   -0.454641   0.000103
    26  O   -0.305797   0.000001
    27  N    0.047746  -0.040103
    28  C    0.197653   0.011781
    29  C   -0.056913  -0.003365
    30  C   -0.039535   0.016697
    31  C    0.214999   0.002287
    32  C   -0.428591  -0.000516
    33  C   -0.175169  -0.001020
    34  C   -0.420093   0.000560
    35  N    0.003576  -0.040612
    36  C    0.216614   0.002511
    37  C   -0.067539   0.015652
    38  C   -0.101340  -0.005322
    39  C    0.391770   0.012987
    40  C   -0.414919  -0.000998
    41  C   -0.166653  -0.000272
    42  C   -0.410108  -0.000134
    43  N    0.078476  -0.039383
    44  C    0.127872   0.011120
    45  C   -0.046899  -0.003349
    46  C    0.048251   0.016552
    47  C    0.290240   0.004042
    48  C   -0.412927  -0.000467
    49  C   -0.391404  -0.001481
    50  C   -0.156302   0.001005
    51  C    0.303988   0.000115
    52  O   -0.393135   0.000093
    53  O   -0.365592   0.000009
    54  H    0.160933   0.000005
    55  H    0.149897  -0.000004
    56  H    0.162498   0.000000
    57  H    0.285492  -0.000150
    58  H    0.177898  -0.000358
    59  H    0.194373  -0.000443
    60  H    0.140158  -0.000070
    61  H    0.138918  -0.000121
    62  H    0.125871   0.000374
    63  H    0.144708  -0.001314
    64  H    0.165933  -0.000797
    65  H    0.180144  -0.000226
    66  H    0.163443  -0.000113
    67  H    0.187663  -0.002108
    68  H    0.160127   0.000123
    69  H    0.148621   0.000162
    70  H    0.152821   0.000110
    71  H    0.149947   0.000213
    72  H    0.148877  -0.000041
    73  H    0.162320  -0.000167
    74  H    0.154691  -0.000145
    75  H    0.150547   0.000025
    76  H    0.135351   0.000388
    77  H    0.148745  -0.000000
    78  H    0.143722   0.000007
    79  H    0.162115  -0.000108
    80  H    0.150852  -0.000010
    81  H    0.158274  -0.000009
    82  H    0.140082   0.000539
    83  H    0.117860   0.000015
    84  H    0.140012   0.000095
    85  H    0.134983   0.000021
    86  H    0.144291   0.000031
    87  H    0.145534   0.000002
    88  H    0.160720   0.000732
    89  H    0.153541   0.000375
    90  H    0.136157  -0.000157
    91  H    0.115032  -0.000070
    92  H    0.140330   0.000015
    93  H    0.130539   0.000005
    94  H    0.133544  -0.000012
    95  H    0.144465  -0.000094
    96  H    0.159640  -0.000003
    97  H    0.159615  -0.000029
    98  H    0.150905   0.000220
    99  H    0.128273   0.000201
   100  H    0.141831  -0.000083
   101  H    0.121562  -0.000044
   102  H    0.392843   0.000023
   103  H    0.385080   0.000007
 Sum of Mulliken charges =   1.00000   1.00000
 Mulliken charges and spin densities with hydrogens summed into heavy atoms:
               1          2
     1  C    0.087747  -0.000182
     2  C    0.132388  -0.000133
     3  N    0.083140  -0.001059
     4  C   -0.044207   0.001628
     5  C    0.205160   0.001138
     6  N    0.058597  -0.036468
     7  C    0.027900   0.000070
     8  C    0.157734   0.001896
     9  S    0.053177  -0.047673
    10  C    0.145645   0.001965
    11  Fe  -0.483465   1.165348
    12  C   -0.376105  -0.009873
    13  C   -0.401256  -0.005412
    14  C   -0.351707  -0.008589
    15  C   -0.377942  -0.005322
    16  N    0.060281  -0.041690
    17  C    0.263282   0.003748
    18  C    0.000513   0.013885
    19  C   -0.090547  -0.005225
    20  C    0.305865   0.012493
    21  C    0.024802  -0.000677
    22  C   -0.023532  -0.000740
    23  C    0.101924   0.000652
    24  C    0.278896   0.000063
    25  O   -0.454641   0.000103
    26  O    0.079283   0.000008
    27  N    0.047746  -0.040103
    28  C    0.197653   0.011781
    29  C   -0.056913  -0.003365
    30  C   -0.039535   0.016697
    31  C    0.214999   0.002287
    32  C    0.042651  -0.000642
    33  C    0.082773  -0.000466
    34  C   -0.000807   0.000706
    35  N    0.003576  -0.040612
    36  C    0.216614   0.002511
    37  C   -0.067539   0.015652
    38  C   -0.101340  -0.005322
    39  C    0.391770   0.012987
    40  C    0.044875   0.000111
    41  C    0.084536  -0.000499
    42  C   -0.005695  -0.000126
    43  N    0.078476  -0.039383
    44  C    0.127872   0.011120
    45  C   -0.046899  -0.003349
    46  C    0.048251   0.016552
    47  C    0.290240   0.004042
    48  C    0.050793  -0.000592
    49  C   -0.112226  -0.001060
    50  C    0.107090   0.000878
    51  C    0.303988   0.000115
    52  O   -0.393135   0.000093
    53  O    0.027250   0.000032
 Electronic spatial extent (au):  <R**2>=          34173.4807
 Charge=              1.0000 electrons
 Dipole moment (field-independent basis, Debye):
    X=              7.8154    Y=              4.1034    Z=              1.9652  Tot=              9.0432
 Quadrupole moment (field-independent basis, Debye-Ang):
   XX=           -283.4373   YY=           -254.1297   ZZ=           -282.1622
   XY=            -36.0782   XZ=              5.4813   YZ=             12.4701
 Traceless Quadrupole moment (field-independent basis, Debye-Ang):
   XX=            -10.1943   YY=             19.1133   ZZ=             -8.9191
   XY=            -36.0782   XZ=              5.4813   YZ=             12.4701
 Octapole moment (field-independent basis, Debye-Ang**2):
  XXX=            249.7638  YYY=            132.1226  ZZZ=            114.8150  XYY=            -33.4042
  XXY=            190.2430  XXZ=            -32.3153  XZZ=            142.7962  YZZ=             -5.4561
  YYZ=            -37.7017  XYZ=            -98.1925
 Hexadecapole moment (field-independent basis, Debye-Ang**3):
 XXXX=         -23144.2083 YYYY=         -13555.1623 ZZZZ=          -5031.9845 XXXY=          -1257.5528
 XXXZ=             95.9680 YYYX=          -1104.7265 YYYZ=            357.0268 ZZZX=            318.9231
 ZZZY=           -270.2542 XXYY=          -5510.6956 XXZZ=          -5611.1094 YYZZ=          -3619.6238
 XXYZ=            772.7419 YYXZ=            391.5336 ZZXY=           -277.0965
 N-N= 9.034406589294D+03 E-N=-2.715572595466D+04  KE= 3.869844219387D+03
 1\1\GINC-NODE482\SP\UPBE1PBE\def2TZVP\C41H50Fe1N6O4S1(1+,2)\KLEICH\07-
 Sep-2022\0\\# PBE1PBE/def2TZVP empiricaldispersion=GD3BJ int=(grid=ult
 rafine) geom=check guess=read scrf=(smd,solvent=Chloroform)\\1ctj_III_
 D_solv\\1,2\C,0,17.385,43.116,-18.171\C,0,16.646,44.283,-17.629\N,0,17
 .192,45.153,-16.726\C,0,15.354,44.655,-17.762\C,0,16.223,46.009,-16.35
 2\N,0,15.105,45.741,-16.934\C,0,11.228,50.126,-17.291\C,0,10.692,48.71
 6,-17.503\S,0,11.192,47.599,-16.165\C,0,9.859,46.393,-16.206\Fe,0,13.2
 58,46.586,-16.683\C,0,14.112,48.106,-13.777\C,0,12.342,43.796,-14.983\
 C,0,12.062,45.238,-19.575\C,0,14.539,49.179,-18.442\N,0,13.269,46.034,
 -14.737\C,0,13.692,46.802,-13.682\C,0,13.546,46.034,-12.457\C,0,13.036
 ,44.844,-12.789\C,0,12.842,44.823,-14.225\C,0,12.674,43.689,-11.857\C,
 0,14.032,46.507,-11.078\C,0,15.559,46.477,-10.964\C,0,16.109,47.3,-9.8
 07\O,0,17.303,47.008,-9.454\O,0,15.414,48.196,-9.329\N,0,12.373,44.867
 ,-17.193\C,0,12.092,43.817,-16.329\C,0,11.458,42.747,-17.065\C,0,11.31
 9,43.178,-18.339\C,0,11.877,44.496,-18.421\C,0,11.118,41.373,-16.491\C
 ,0,10.705,42.45,-19.528\C,0,9.207,42.154,-19.34\N,0,13.301,47.115,-18.
 61\C,0,12.79,46.403,-19.667\C,0,13.156,47.044,-20.932\C,0,13.92,48.097
 ,-20.624\C,0,13.987,48.168,-19.179\C,0,12.755,46.497,-22.32\C,0,14.747
 ,49.003,-21.545\C,0,13.915,49.773,-22.585\N,0,14.091,48.302,-16.212\C,
 0,14.53,49.3,-17.081\C,0,14.947,50.46,-16.332\C,0,14.756,50.189,-15.02
 4\C,0,14.305,48.819,-14.945\C,0,15.368,51.794,-16.965\C,0,14.943,51.15
 7,-13.855\C,0,13.661,51.997,-13.611\C,0,13.865,53.009,-12.515\O,0,14.0
 74,52.625,-11.351\O,0,13.718,54.197,-12.862\H,0,17.58804681,43.2734845
 9,-19.20968696\H,0,18.30719827,43.00025896,-17.6408544\H,0,16.79265016
 ,42.23272905,-18.05329656\H,0,18.13828841,45.15312787,-16.40267629\H,0
 ,14.63681319,44.18698821,-18.40348892\H,0,16.36341726,46.8114914,-15.6
 5832101\H,0,11.17812751,50.66872246,-18.21179589\H,0,10.63763839,50.62
 444342,-16.55077887\H,0,12.24474083,50.07527162,-16.9615084\H,0,11.159
 69794,48.34762147,-18.39207587\H,0,9.62580296,48.78911841,-17.45029742
 \H,0,10.14001742,45.53129306,-15.63732579\H,0,9.66920482,46.10545759,-
 17.21901389\H,0,8.97452668,46.82457433,-15.78605888\H,0,14.30862979,48
 .61907374,-12.85885401\H,0,12.1244658,42.88294577,-14.46927745\H,0,11.
 60078485,44.87594842,-20.47004148\H,0,15.02955358,49.95714664,-18.9885
 757\H,0,12.50518782,42.80417847,-12.43448879\H,0,11.78600637,43.934619
 2,-11.31290579\H,0,13.4772518,43.51921094,-11.1708089\H,0,13.66546159,
 45.79258497,-10.37077955\H,0,13.74644303,47.53500383,-10.99697323\H,0,
 15.92701028,46.94302578,-11.85410584\H,0,15.81523066,45.46108477,-10.7
 4683164\H,0,10.38304623,40.90038838,-17.1085607\H,0,10.73146261,41.486
 28266,-15.49970999\H,0,12.00130869,40.76979158,-16.46262126\H,0,11.190
 95593,41.49786943,-19.57484249\H,0,10.77138306,43.12579409,-20.3549193
 7\H,0,8.65935996,42.54257751,-20.17306536\H,0,9.05758506,41.0963582,-1
 9.277\H,0,8.86221801,42.61720064,-18.4391834\H,0,12.96412465,47.233390
 21,-23.0675937\H,0,13.31379432,45.60859605,-22.52829625\H,0,11.7093384
 1,46.27014788,-22.32547351\H,0,15.37919241,48.34722466,-22.10641914\H,
 0,15.17851579,49.74753713,-20.90910804\H,0,14.46884204,50.62228183,-22
 .92687624\H,0,13.69776571,49.13176613,-23.41357008\H,0,12.99971915,50.
 10050287,-22.13789505\H,0,15.41269502,52.54938278,-16.2084954\H,0,16.3
 3125485,51.68553259,-17.41807274\H,0,14.65343743,52.07672516,-17.70955
 814\H,0,15.7043967,51.84720662,-14.15297631\H,0,15.07973135,50.5536918
 1,-12.98194573\H,0,12.91693527,51.31477247,-13.25627012\H,0,13.4911769
 1,52.55481909,-14.50816106\H,0,14.4869676,54.74865685,-13.02313209\H,0
 ,15.82900403,48.9597727,-8.9215409\\Version=ES64L-G16RevA.03\State=2-A
 \HF=-3881.8177435\S2=0.838123\S2-1=0.\S2A=0.751585\RMSD=1.376e-09\Dipo
 le=0.0477122,-0.4743765,-3.5257913\Quadrupole=-6.5744416,28.5111562,-2
 1.9367147,12.9898641,-11.6743983,0.1782318\PG=C01 [X(C41H50Fe1N6O4S1)]
 \\@


 ABSOLUTISM, OBSOLETISM -- IF IT WORKS, IT'S OUT OF DATE

                          -- STAFFORD BEER
 Job cpu time:       4 days 18 hours 59 minutes 44.7 seconds.
 Elapsed time:       1 days  4 hours 51 minutes 22.4 seconds.
 File lengths (MBytes):  RWF=   4409 Int=      0 D2E=      0 Chk=    310 Scr=      1
 Normal termination of Gaussian 16 at Wed Sep  7 19:19:23 2022.
