 Entering Gaussian System, Link 0=g16
 Input=/net/work/kleich/bench/splitthejobs/1ctj/1ctj12/1ctj12.com
 Output=/net/work/kleich/bench/splitthejobs/1ctj/1ctj12/1ctj12.log
 Initial command:
 /afs/math/software/gaussian/g16.A03/g16/l1.exe "/scratch/kleich_gaussian.k45Vbu7/Gau-24381.inp" -scrdir="/scratch/kleich_gaussian.k45Vbu7/"
 Entering Link 1 = /afs/math/software/gaussian/g16.A03/g16/l1.exe PID=     24382.
  
 Copyright (c) 1988,1990,1992,1993,1995,1998,2003,2009,2016,
            Gaussian, Inc.  All Rights Reserved.
  
 This is part of the Gaussian(R) 16 program.  It is based on
 the Gaussian(R) 09 system (copyright 2009, Gaussian, Inc.),
 the Gaussian(R) 03 system (copyright 2003, Gaussian, Inc.),
 the Gaussian(R) 98 system (copyright 1998, Gaussian, Inc.),
 the Gaussian(R) 94 system (copyright 1995, Gaussian, Inc.),
 the Gaussian 92(TM) system (copyright 1992, Gaussian, Inc.),
 the Gaussian 90(TM) system (copyright 1990, Gaussian, Inc.),
 the Gaussian 88(TM) system (copyright 1988, Gaussian, Inc.),
 the Gaussian 86(TM) system (copyright 1986, Carnegie Mellon
 University), and the Gaussian 82(TM) system (copyright 1983,
 Carnegie Mellon University). Gaussian is a federally registered
 trademark of Gaussian, Inc.
  
 This software contains proprietary and confidential information,
 including trade secrets, belonging to Gaussian, Inc.
  
 This software is provided under written license and may be
 used, copied, transmitted, or stored only in accord with that
 written license.
  
 The following legend is applicable only to US Government
 contracts under FAR:
  
                    RESTRICTED RIGHTS LEGEND
  
 Use, reproduction and disclosure by the US Government is
 subject to restrictions as set forth in subparagraphs (a)
 and (c) of the Commercial Computer Software - Restricted
 Rights clause in FAR 52.227-19.
  
 Gaussian, Inc.
 340 Quinnipiac St., Bldg. 40, Wallingford CT 06492
  
  
 ---------------------------------------------------------------
 Warning -- This program may not be used in any manner that
 competes with the business of Gaussian, Inc. or will provide
 assistance to any competitor of Gaussian, Inc.  The licensee
 of this program is prohibited from giving any competitor of
 Gaussian, Inc. access to this program.  By using this program,
 the user acknowledges that Gaussian, Inc. is engaged in the
 business of creating and licensing software in the field of
 computational chemistry and represents and warrants to the
 licensee that it is not a competitor of Gaussian, Inc. and that
 it will not use this program in any manner prohibited above.
 ---------------------------------------------------------------
  

 Cite this work as:
 Gaussian 16, Revision A.03,
 M. J. Frisch, G. W. Trucks, H. B. Schlegel, G. E. Scuseria, 
 M. A. Robb, J. R. Cheeseman, G. Scalmani, V. Barone, 
 G. A. Petersson, H. Nakatsuji, X. Li, M. Caricato, A. V. Marenich, 
 J. Bloino, B. G. Janesko, R. Gomperts, B. Mennucci, H. P. Hratchian, 
 J. V. Ortiz, A. F. Izmaylov, J. L. Sonnenberg, D. Williams-Young, 
 F. Ding, F. Lipparini, F. Egidi, J. Goings, B. Peng, A. Petrone, 
 T. Henderson, D. Ranasinghe, V. G. Zakrzewski, J. Gao, N. Rega, 
 G. Zheng, W. Liang, M. Hada, M. Ehara, K. Toyota, R. Fukuda, 
 J. Hasegawa, M. Ishida, T. Nakajima, Y. Honda, O. Kitao, H. Nakai, 
 T. Vreven, K. Throssell, J. A. Montgomery, Jr., J. E. Peralta, 
 F. Ogliaro, M. J. Bearpark, J. J. Heyd, E. N. Brothers, K. N. Kudin, 
 V. N. Staroverov, T. A. Keith, R. Kobayashi, J. Normand, 
 K. Raghavachari, A. P. Rendell, J. C. Burant, S. S. Iyengar, 
 J. Tomasi, M. Cossi, J. M. Millam, M. Klene, C. Adamo, R. Cammi, 
 J. W. Ochterski, R. L. Martin, K. Morokuma, O. Farkas, 
 J. B. Foresman, and D. J. Fox, Gaussian, Inc., Wallingford CT, 2016.
 
 ******************************************
 Gaussian 16:  ES64L-G16RevA.03 25-Dec-2016
                 4-Sep-2022 
 ******************************************
 %nprocs=12
 Will use up to   12 processors via shared memory.
 %mem=16GB
 %oldchk=1ctj_II_S.chk
 %chk=1ctj_III_D.chk
 Copying data from "1ctj_II_S.chk" to current chk file "1ctj_III_D.chk"
 IOpt=  2 FromEx=T IUOpen= 4 IOptOp= 5 NList=   0 IFRang= 0 IUIn= 4 IUOut= 2.
 ----------------------------------------------------------------------
 # PBE1PBE/def2TZVP empiricaldispersion=GD3BJ int=(grid=ultrafine) geom
 =check pop=nbo
 ----------------------------------------------------------------------
 1/29=2,38=1,172=1/1;
 2/12=2,40=1/2;
 3/5=44,7=101,11=2,14=-4,25=1,30=1,74=-13,75=-5,124=41/1,2,3;
 4//1;
 5/5=2,38=5/2;
 6/7=2,8=2,9=2,10=2,28=1,40=1/1,7;
 99/5=1,9=1/99;
 ----------
 1ctj_III_D
 ----------
 Structure from the checkpoint file:  "1ctj_III_D.chk"
 Charge =  1 Multiplicity = 2
 Z-Matrix found in chk file.
 C,0,17.385,43.116,-18.171
 C,0,16.646,44.283,-17.629
 N,0,17.192,45.153,-16.726
 C,0,15.354,44.655,-17.762
 C,0,16.223,46.009,-16.352
 N,0,15.105,45.741,-16.934
 C,0,11.228,50.126,-17.291
 C,0,10.692,48.716,-17.503
 S,0,11.192,47.599,-16.165
 C,0,9.859,46.393,-16.206
 Fe,0,13.258,46.586,-16.683
 C,0,14.112,48.106,-13.777
 C,0,12.342,43.796,-14.983
 C,0,12.062,45.238,-19.575
 C,0,14.539,49.179,-18.442
 N,0,13.269,46.034,-14.737
 C,0,13.692,46.802,-13.682
 C,0,13.546,46.034,-12.457
 C,0,13.036,44.844,-12.789
 C,0,12.842,44.823,-14.225
 C,0,12.674,43.689,-11.857
 C,0,14.032,46.507,-11.078
 C,0,15.559,46.477,-10.964
 C,0,16.109,47.3,-9.807
 O,0,17.303,47.008,-9.454
 O,0,15.414,48.196,-9.329
 N,0,12.373,44.867,-17.193
 C,0,12.092,43.817,-16.329
 C,0,11.458,42.747,-17.065
 C,0,11.319,43.178,-18.339
 C,0,11.877,44.496,-18.421
 C,0,11.118,41.373,-16.491
 C,0,10.705,42.45,-19.528
 C,0,9.207,42.154,-19.34
 N,0,13.301,47.115,-18.61
 C,0,12.79,46.403,-19.667
 C,0,13.156,47.044,-20.932
 C,0,13.92,48.097,-20.624
 C,0,13.987,48.168,-19.179
 C,0,12.755,46.497,-22.32
 C,0,14.747,49.003,-21.545
 C,0,13.915,49.773,-22.585
 N,0,14.091,48.302,-16.212
 C,0,14.53,49.3,-17.081
 C,0,14.947,50.46,-16.332
 C,0,14.756,50.189,-15.024
 C,0,14.305,48.819,-14.945
 C,0,15.368,51.794,-16.965
 C,0,14.943,51.157,-13.855
 C,0,13.661,51.997,-13.611
 C,0,13.865,53.009,-12.515
 O,0,14.074,52.625,-11.351
 O,0,13.718,54.197,-12.862
 H,0,17.58804681,43.27348459,-19.20968696
 H,0,18.30719827,43.00025896,-17.6408544
 H,0,16.79265016,42.23272905,-18.05329656
 H,0,18.13828841,45.15312787,-16.40267629
 H,0,14.63681319,44.18698821,-18.40348892
 H,0,16.36341726,46.8114914,-15.65832101
 H,0,11.17812751,50.66872246,-18.21179589
 H,0,10.63763839,50.62444342,-16.55077887
 H,0,12.24474083,50.07527162,-16.9615084
 H,0,11.15969794,48.34762147,-18.39207587
 H,0,9.62580296,48.78911841,-17.45029742
 H,0,10.14001742,45.53129306,-15.63732579
 H,0,9.66920482,46.10545759,-17.21901389
 H,0,8.97452668,46.82457433,-15.78605888
 H,0,14.30862979,48.61907374,-12.85885401
 H,0,12.1244658,42.88294577,-14.46927745
 H,0,11.60078485,44.87594842,-20.47004148
 H,0,15.02955358,49.95714664,-18.9885757
 H,0,12.50518782,42.80417847,-12.43448879
 H,0,11.78600637,43.9346192,-11.31290579
 H,0,13.4772518,43.51921094,-11.1708089
 H,0,13.66546159,45.79258497,-10.37077955
 H,0,13.74644303,47.53500383,-10.99697323
 H,0,15.92701028,46.94302578,-11.85410584
 H,0,15.81523066,45.46108477,-10.74683164
 H,0,10.38304623,40.90038838,-17.1085607
 H,0,10.73146261,41.48628266,-15.49970999
 H,0,12.00130869,40.76979158,-16.46262126
 H,0,11.19095593,41.49786943,-19.57484249
 H,0,10.77138306,43.12579409,-20.35491937
 H,0,8.65935996,42.54257751,-20.17306536
 H,0,9.05758506,41.0963582,-19.277
 H,0,8.86221801,42.61720064,-18.4391834
 H,0,12.96412465,47.23339021,-23.0675937
 H,0,13.31379432,45.60859605,-22.52829625
 H,0,11.70933841,46.27014788,-22.32547351
 H,0,15.37919241,48.34722466,-22.10641914
 H,0,15.17851579,49.74753713,-20.90910804
 H,0,14.46884204,50.62228183,-22.92687624
 H,0,13.69776571,49.13176613,-23.41357008
 H,0,12.99971915,50.10050287,-22.13789505
 H,0,15.41269502,52.54938278,-16.2084954
 H,0,16.33125485,51.68553259,-17.41807274
 H,0,14.65343743,52.07672516,-17.70955814
 H,0,15.7043967,51.84720662,-14.15297631
 H,0,15.07973135,50.55369181,-12.98194573
 H,0,12.91693527,51.31477247,-13.25627012
 H,0,13.49117691,52.55481909,-14.50816106
 H,0,14.4869676,54.74865685,-13.02313209
 H,0,15.82900403,48.9597727,-8.9215409
 Recover connectivity data from disk.
 Stoichiometry    C41H50FeN6O4S(1+,2)
 Framework group  C1[X(C41H50FeN6O4S)]
 Deg. of freedom   303
 Full point group                 C1      NOp   1
 Largest Abelian subgroup         C1      NOp   1
 Largest concise Abelian subgroup C1      NOp   1
                         Standard orientation:                         
 ---------------------------------------------------------------------
 Center     Atomic      Atomic             Coordinates (Angstroms)
 Number     Number       Type             X           Y           Z
 ---------------------------------------------------------------------
      1          6           0        2.732842   -1.806351    4.866406
      2          6           0        1.865983   -1.204270    3.823416
      3          7           0        0.532504   -0.966886    4.012910
      4          6           0        2.111084   -0.907844    2.528273
      5          6           0        0.027008   -0.539774    2.840893
      6          7           0        0.929825   -0.502531    1.922195
      7          6           0       -0.116658    3.046120   -2.627393
      8          6           0        0.947675    1.974047   -2.822824
      9         16           0        0.339272    0.330616   -2.357081
     10          6           0        1.365063   -0.723098   -3.391704
     11         26           0        0.758187   -0.072001   -0.071199
     12          6           0       -2.613036   -0.417539   -0.074510
     13          6           0        1.123113   -3.386568   -0.698599
     14          6           0        4.115420    0.384435   -0.434289
     15          6           0        0.450783    3.138183    0.957836
     16          7           0       -0.513403   -1.628607   -0.298750
     17          6           0       -1.882390   -1.569231   -0.234513
     18          6           0       -2.418047   -2.904268   -0.440699
     19          6           0       -1.381717   -3.725970   -0.633701
     20          6           0       -0.165795   -2.941041   -0.558905
     21          6           0       -1.418561   -5.226516   -0.917778
     22          6           0       -3.906093   -3.266769   -0.314700
     23          6           0       -4.380155   -3.256343    1.141591
     24          6           0       -5.893673   -3.201405    1.298829
     25          8           0       -6.332790   -3.563402    2.444099
     26          8           0       -6.575646   -2.782577    0.364046
     27          7           0        2.318344   -1.251409   -0.487365
     28          6           0        2.258856   -2.621892   -0.702296
     29          6           0        3.588049   -3.123950   -0.966370
     30          6           0        4.417690   -2.056341   -0.958302
     31          6           0        3.633096   -0.891520   -0.670524
     32          6           0        3.950299   -4.599677   -1.121154
     33          6           0        5.922820   -2.019324   -1.190498
     34          6           0        6.320954   -2.466809   -2.607612
     35          7           0        2.012715    1.458471    0.209569
     36          6           0        3.376325    1.440448    0.049702
     37          6           0        3.954638    2.708308    0.500422
     38          6           0        2.944580    3.447766    0.969842
     39          6           0        1.727827    2.690476    0.761084
     40          6           0        5.467311    3.020727    0.472745
     41          6           0        2.984404    4.768057    1.749747
     42          6           0        3.625533    5.935881    0.980419
     43          7           0       -0.755453    1.123677    0.302477
     44          6           0       -0.705369    2.464634    0.680910
     45          6           0       -2.036514    3.019017    0.715602
     46          6           0       -2.892932    2.041892    0.351511
     47          6           0       -2.106039    0.843079    0.177757
     48          6           0       -2.351093    4.500680    0.966999
     49          6           0       -4.398912    2.185330    0.127897
     50          6           0       -4.709694    2.652631   -1.319067
     51          6           0       -6.184974    2.874719   -1.522047
     52          8           0       -6.969615    1.912679   -1.452403
     53          8           0       -6.503094    4.037156   -1.839699
     54          1           0        3.430387   -1.074434    5.216587
     55          1           0        2.128023   -2.141943    5.682784
     56          1           0        3.265209   -2.636840    4.451950
     57          1           0        0.025647   -1.088438    4.866327
     58          1           0        3.064081   -0.974839    2.046394
     59          1           0       -0.996301   -0.265517    2.690821
     60          1           0        0.346116    4.010834   -2.619210
     61          1           0       -0.824059    2.996666   -3.428666
     62          1           0       -0.619659    2.883926   -1.697026
     63          1           0        1.737156    2.206715   -2.139095
     64          1           0        1.144452    1.934518   -3.873831
     65          1           0        1.295553   -1.734738   -3.050159
     66          1           0        2.382497   -0.396696   -3.335226
     67          1           0        1.027574   -0.664912   -4.405418
     68          1           0       -3.676628   -0.504542   -0.152633
     69          1           0        1.255329   -4.441737   -0.817077
     70          1           0        5.148722    0.565008   -0.645430
     71          1           0        0.345872    4.119091    1.372217
     72          1           0       -0.437189   -5.636136   -0.799370
     73          1           0       -1.755458   -5.391645   -1.919842
     74          1           0       -2.088842   -5.702786   -0.233095
     75          1           0       -3.996734   -4.278421   -0.651219
     76          1           0       -4.446478   -2.487589   -0.810444
     77          1           0       -4.010079   -2.344703    1.562134
     78          1           0       -4.078231   -4.196723    1.553208
     79          1           0        4.891163   -4.685186   -1.623512
     80          1           0        3.193920   -5.094432   -1.693873
     81          1           0        4.019585   -5.053212   -0.154507
     82          1           0        6.342858   -2.742533   -0.523089
     83          1           0        6.208642   -0.991057   -1.113865
     84          1           0        6.925558   -1.710915   -3.063657
     85          1           0        6.874951   -3.380454   -2.550680
     86          1           0        5.439249   -2.620279   -3.194079
     87          1           0        5.619725    4.063043    0.660484
     88          1           0        5.964015    2.446198    1.226470
     89          1           0        5.865910    2.769328   -0.487889
     90          1           0        3.621335    4.589643    2.590811
     91          1           0        1.962566    5.046547    1.902026
     92          1           0        3.301553    6.863158    1.404791
     93          1           0        4.691054    5.865512    1.048344
     94          1           0        3.329912    5.891216   -0.046963
     95          1           0       -3.374719    4.694367    0.722919
     96          1           0       -2.180337    4.731653    1.997724
     97          1           0       -1.717449    5.108563    0.355548
     98          1           0       -4.727262    2.970682    0.776209
     99          1           0       -4.813582    1.203650    0.224081
    100          1           0       -4.435744    1.842757   -1.962461
    101          1           0       -4.242686    3.608491   -1.433678
    102          1           0       -6.869299    4.631627   -1.180839
    103          1           0       -7.419879   -2.359755    0.537515
 ---------------------------------------------------------------------
 Rotational constants (GHZ):           0.0649040           0.0437769           0.0340286
 Standard basis: def2TZVP (5D, 7F)
 There are  2230 symmetry adapted cartesian basis functions of A   symmetry.
 There are  1963 symmetry adapted basis functions of A   symmetry.
  1963 basis functions,  3172 primitive gaussians,  2230 cartesian basis functions
   206 alpha electrons      205 beta electrons
       nuclear repulsion energy      9034.5792672667 Hartrees.
 NAtoms=  103 NActive=  103 NUniq=  103 SFac= 1.00D+00 NAtFMM=   60 NAOKFM=T Big=T
 Integral buffers will be    131072 words long.
 Raffenetti 2 integral format.
 Two-electron integral symmetry is turned on.
 Nuclear repulsion after empirical dispersion term =     9034.4274506152 Hartrees.
 One-electron integrals computed using PRISM.
   1 Symmetry operations used in ECPInt.
 ECPInt:  NShTT=  311655 NPrTT=  958403 LenC2=  228098 LenP2D=  454103.
 LDataN:  DoStor=T MaxTD1= 6 Len=  172
 NBasis=  1963 RedAO= T EigKep=  2.80D-06  NBF=  1963
 NBsUse=  1963 1.00D-06 EigRej= -1.00D+00 NBFU=  1963
 ExpMin= 4.20D-02 ExpMax= 3.01D+05 ExpMxC= 2.91D+03 IAcc=3 IRadAn=         5 AccDes= 0.00D+00
 Harris functional with IExCor= 1009 and IRadAn=       5 diagonalized for initial guess.
 HarFok:  IExCor= 1009 AccDes= 0.00D+00 IRadAn=         5 IDoV= 1 UseB2=F ITyADJ=14
 ICtDFT=  3500011 ScaDFX=  1.000000  1.000000  1.000000  1.000000
 FoFCou: FMM=F IPFlag=           0 FMFlag=      100000 FMFlg1=        2001
         NFxFlg=           0 DoJE=T BraDBF=F KetDBF=T FulRan=T
         wScrn=  0.000000 ICntrl=       500 IOpCl=  0 I1Cent=   200000004 NGrid=           0
         NMat0=    1 NMatS0=      1 NMatT0=    0 NMatD0=    1 NMtDS0=    0 NMtDT0=    0
 Petite list used in FoFCou.
 Initial guess <Sx>= 0.0000 <Sy>= 0.0000 <Sz>= 0.5000 <S**2>= 0.7500 S= 0.5000
 Requested convergence on RMS density matrix=1.00D-08 within 128 cycles.
 Requested convergence on MAX density matrix=1.00D-06.
 Requested convergence on             energy=1.00D-06.
 No special actions if energy rises.
 EnCoef did    20 forward-backward iterations
 EnCoef did   100 forward-backward iterations
 EnCoef did    12 forward-backward iterations
 Restarting incremental Fock formation.
 Restarting incremental Fock formation.
 Restarting incremental Fock formation.
 SCF Done:  E(UPBE1PBE) =  -3881.71602307     A.U. after   66 cycles
            NFock= 66  Conv=0.11D-08     -V/T= 2.0031
 <Sx>= 0.0000 <Sy>= 0.0000 <Sz>= 0.5000 <S**2>= 0.8436 S= 0.5457
 <L.S>= 0.000000000000E+00
 Annihilation of the first spin contaminant:
 S**2 before annihilation     0.8436,   after     0.7517
 Hyperfine terms turned off by default for NAtoms > 100.

 **********************************************************************

            Population analysis using the SCF density.

 **********************************************************************

 Orbital symmetries:
 Alpha Orbitals:
       Occupied  (A) (A) (A) (A) (A) (A) (A) (A) (A) (A) (A) (A)
                 (A) (A) (A) (A) (A) (A) (A) (A) (A) (A) (A) (A)
                 (A) (A) (A) (A) (A) (A) (A) (A) (A) (A) (A) (A)
                 (A) (A) (A) (A) (A) (A) (A) (A) (A) (A) (A) (A)
                 (A) (A) (A) (A) (A) (A) (A) (A) (A) (A) (A) (A)
                 (A) (A) (A) (A) (A) (A) (A) (A) (A) (A) (A) (A)
                 (A) (A) (A) (A) (A) (A) (A) (A) (A) (A) (A) (A)
                 (A) (A) (A) (A) (A) (A) (A) (A) (A) (A) (A) (A)
                 (A) (A) (A) (A) (A) (A) (A) (A) (A) (A) (A) (A)
                 (A) (A) (A) (A) (A) (A) (A) (A) (A) (A) (A) (A)
                 (A) (A) (A) (A) (A) (A) (A) (A) (A) (A) (A) (A)
                 (A) (A) (A) (A) (A) (A) (A) (A) (A) (A) (A) (A)
                 (A) (A) (A) (A) (A) (A) (A) (A) (A) (A) (A) (A)
                 (A) (A) (A) (A) (A) (A) (A) (A) (A) (A) (A) (A)
                 (A) (A) (A) (A) (A) (A) (A) (A) (A) (A) (A) (A)
                 (A) (A) (A) (A) (A) (A) (A) (A) (A) (A) (A) (A)
                 (A) (A) (A) (A) (A) (A) (A) (A) (A) (A) (A) (A)
                 (A) (A)
       Virtual   (A) (A) (A) (A) (A) (A) (A) (A) (A) (A) (A) (A)
                 (A) (A) (A) (A) (A) (A) (A) (A) (A) (A) (A) (A)
                 (A) (A) (A) (A) (A) (A) (A) (A) (A) (A) (A) (A)
                 (A) (A) (A) (A) (A) (A) (A) (A) (A) (A) (A) (A)
                 (A) (A) (A) (A) (A) (A) (A) (A) (A) (A) (A) (A)
                 (A) (A) (A) (A) (A) (A) (A) (A) (A) (A) (A) (A)
                 (A) (A) (A) (A) (A) (A) (A) (A) (A) (A) (A) (A)
                 (A) (A) (A) (A) (A) (A) (A) (A) (A) (A) (A) (A)
                 (A) (A) (A) (A) (A) (A) (A) (A) (A) (A) (A) (A)
                 (A) (A) (A) (A) (A) (A) (A) (A) (A) (A) (A) (A)
                 (A) (A) (A) (A) (A) (A) (A) (A) (A) (A) (A) (A)
                 (A) (A) (A) (A) (A) (A) (A) (A) (A) (A) (A) (A)
                 (A) (A) (A) (A) (A) (A) (A) (A) (A) (A) (A) (A)
                 (A) (A) (A) (A) (A) (A) (A) (A) (A) (A) (A) (A)
                 (A) (A) (A) (A) (A) (A) (A) (A) (A) (A) (A) (A)
                 (A) (A) (A) (A) (A) (A) (A) (A) (A) (A) (A) (A)
                 (A) (A) (A) (A) (A) (A) (A) (A) (A) (A) (A) (A)
                 (A) (A) (A) (A) (A) (A) (A) (A) (A) (A) (A) (A)
                 (A) (A) (A) (A) (A) (A) (A) (A) (A) (A) (A) (A)
                 (A) (A) (A) (A) (A) (A) (A) (A) (A) (A) (A) (A)
                 (A) (A) (A) (A) (A) (A) (A) (A) (A) (A) (A) (A)
                 (A) (A) (A) (A) (A) (A) (A) (A) (A) (A) (A) (A)
                 (A) (A) (A) (A) (A) (A) (A) (A) (A) (A) (A) (A)
                 (A) (A) (A) (A) (A) (A) (A) (A) (A) (A) (A) (A)
                 (A) (A) (A) (A) (A) (A) (A) (A) (A) (A) (A) (A)
                 (A) (A) (A) (A) (A) (A) (A) (A) (A) (A) (A) (A)
                 (A) (A) (A) (A) (A) (A) (A) (A) (A) (A) (A) (A)
                 (A) (A) (A) (A) (A) (A) (A) (A) (A) (A) (A) (A)
                 (A) (A) (A) (A) (A) (A) (A) (A) (A) (A) (A) (A)
                 (A) (A) (A) (A) (A) (A) (A) (A) (A) (A) (A) (A)
                 (A) (A) (A) (A) (A) (A) (A) (A) (A) (A) (A) (A)
                 (A) (A) (A) (A) (A) (A) (A) (A) (A) (A) (A) (A)
                 (A) (A) (A) (A) (A) (A) (A) (A) (A) (A) (A) (A)
                 (A) (A) (A) (A) (A) (A) (A) (A) (A) (A) (A) (A)
                 (A) (A) (A) (A) (A) (A) (A) (A) (A) (A) (A) (A)
                 (A) (A) (A) (A) (A) (A) (A) (A) (A) (A) (A) (A)
                 (A) (A) (A) (A) (A) (A) (A) (A) (A) (A) (A) (A)
                 (A) (A) (A) (A) (A) (A) (A) (A) (A) (A) (A) (A)
                 (A) (A) (A) (A) (A) (A) (A) (A) (A) (A) (A) (A)
                 (A) (A) (A) (A) (A) (A) (A) (A) (A) (A) (A) (A)
                 (A) (A) (A) (A) (A) (A) (A) (A) (A) (A) (A) (A)
                 (A) (A) (A) (A) (A) (A) (A) (A) (A) (A) (A) (A)
                 (A) (A) (A) (A) (A) (A) (A) (A) (A) (A) (A) (A)
                 (A) (A) (A) (A) (A) (A) (A) (A) (A) (A) (A) (A)
                 (A) (A) (A) (A) (A) (A) (A) (A) (A) (A) (A) (A)
                 (A) (A) (A) (A) (A) (A) (A) (A) (A) (A) (A) (A)
                 (A) (A) (A) (A) (A) (A) (A) (A) (A) (A) (A) (A)
                 (A) (A) (A) (A) (A) (A) (A) (A) (A) (A) (A) (A)
                 (A) (A) (A) (A) (A) (A) (A) (A) (A) (A) (A) (A)
                 (A) (A) (A) (A) (A) (A) (A) (A) (A) (A) (A) (A)
                 (A) (A) (A) (A) (A) (A) (A) (A) (A) (A) (A) (A)
                 (A) (A) (A) (A) (A) (A) (A) (A) (A) (A) (A) (A)
                 (A) (A) (A) (A) (A) (A) (A) (A) (A) (A) (A) (A)
                 (A) (A) (A) (A) (A) (A) (A) (A) (A) (A) (A) (A)
                 (A) (A) (A) (A) (A) (A) (A) (A) (A) (A) (A) (A)
                 (A) (A) (A) (A) (A) (A) (A) (A) (A) (A) (A) (A)
                 (A) (A) (A) (A) (A) (A) (A) (A) (A) (A) (A) (A)
                 (A) (A) (A) (A) (A) (A) (A) (A) (A) (A) (A) (A)
                 (A) (A) (A) (A) (A) (A) (A) (A) (A) (A) (A) (A)
                 (A) (A) (A) (A) (A) (A) (A) (A) (A) (A) (A) (A)
                 (A) (A) (A) (A) (A) (A) (A) (A) (A) (A) (A) (A)
                 (A) (A) (A) (A) (A) (A) (A) (A) (A) (A) (A) (A)
                 (A) (A) (A) (A) (A) (A) (A) (A) (A) (A) (A) (A)
                 (A) (A) (A) (A) (A) (A) (A) (A) (A) (A) (A) (A)
                 (A) (A) (A) (A) (A) (A) (A) (A) (A) (A) (A) (A)
                 (A) (A) (A) (A) (A) (A) (A) (A) (A) (A) (A) (A)
                 (A) (A) (A) (A) (A) (A) (A) (A) (A) (A) (A) (A)
                 (A) (A) (A) (A) (A) (A) (A) (A) (A) (A) (A) (A)
                 (A) (A) (A) (A) (A) (A) (A) (A) (A) (A) (A) (A)
                 (A) (A) (A) (A) (A) (A) (A) (A) (A) (A) (A) (A)
                 (A) (A) (A) (A) (A) (A) (A) (A) (A) (A) (A) (A)
                 (A) (A) (A) (A) (A) (A) (A) (A) (A) (A) (A) (A)
                 (A) (A) (A) (A) (A) (A) (A) (A) (A) (A) (A) (A)
                 (A) (A) (A) (A) (A) (A) (A) (A) (A) (A) (A) (A)
                 (A) (A) (A) (A) (A) (A) (A) (A) (A) (A) (A) (A)
                 (A) (A) (A) (A) (A) (A) (A) (A) (A) (A) (A) (A)
                 (A) (A) (A) (A) (A) (A) (A) (A) (A) (A) (A) (A)
                 (A) (A) (A) (A) (A) (A) (A) (A) (A) (A) (A) (A)
                 (A) (A) (A) (A) (A) (A) (A) (A) (A) (A) (A) (A)
                 (A) (A) (A) (A) (A) (A) (A) (A) (A) (A) (A) (A)
                 (A) (A) (A) (A) (A) (A) (A) (A) (A) (A) (A) (A)
                 (A) (A) (A) (A) (A) (A) (A) (A) (A) (A) (A) (A)
                 (A) (A) (A) (A) (A) (A) (A) (A) (A) (A) (A) (A)
                 (A) (A) (A) (A) (A) (A) (A) (A) (A) (A) (A) (A)
                 (A) (A) (A) (A) (A) (A) (A) (A) (A) (A) (A) (A)
                 (A) (A) (A) (A) (A) (A) (A) (A) (A) (A) (A) (A)
                 (A) (A) (A) (A) (A) (A) (A) (A) (A) (A) (A) (A)
                 (A) (A) (A) (A) (A) (A) (A) (A) (A) (A) (A) (A)
                 (A) (A) (A) (A) (A) (A) (A) (A) (A) (A) (A) (A)
                 (A) (A) (A) (A) (A) (A) (A) (A) (A) (A) (A) (A)
                 (A) (A) (A) (A) (A) (A) (A) (A) (A) (A) (A) (A)
                 (A) (A) (A) (A) (A) (A) (A) (A) (A) (A) (A) (A)
                 (A) (A) (A) (A) (A) (A) (A) (A) (A) (A) (A) (A)
                 (A) (A) (A) (A) (A) (A) (A) (A) (A) (A) (A) (A)
                 (A) (A) (A) (A) (A) (A) (A) (A) (A) (A) (A) (A)
                 (A) (A) (A) (A) (A) (A) (A) (A) (A) (A) (A) (A)
                 (A) (A) (A) (A) (A) (A) (A) (A) (A) (A) (A) (A)
                 (A) (A) (A) (A) (A) (A) (A) (A) (A) (A) (A) (A)
                 (A) (A) (A) (A) (A) (A) (A) (A) (A) (A) (A) (A)
                 (A) (A) (A) (A) (A) (A) (A) (A) (A) (A) (A) (A)
                 (A) (A) (A) (A) (A) (A) (A) (A) (A) (A) (A) (A)
                 (A) (A) (A) (A) (A) (A) (A) (A) (A) (A) (A) (A)
                 (A) (A) (A) (A) (A) (A) (A) (A) (A) (A) (A) (A)
                 (A) (A) (A) (A) (A) (A) (A) (A) (A) (A) (A) (A)
                 (A) (A) (A) (A) (A) (A) (A) (A) (A) (A) (A) (A)
                 (A) (A) (A) (A) (A) (A) (A) (A) (A) (A) (A) (A)
                 (A) (A) (A) (A) (A) (A) (A) (A) (A) (A) (A) (A)
                 (A) (A) (A) (A) (A) (A) (A) (A) (A) (A) (A) (A)
                 (A) (A) (A) (A) (A) (A) (A) (A) (A) (A) (A) (A)
                 (A) (A) (A) (A) (A) (A) (A) (A) (A) (A) (A) (A)
                 (A) (A) (A) (A) (A) (A) (A) (A) (A) (A) (A) (A)
                 (A) (A) (A) (A) (A) (A) (A) (A) (A) (A) (A) (A)
                 (A) (A) (A) (A) (A) (A) (A) (A) (A) (A) (A) (A)
                 (A) (A) (A) (A) (A) (A) (A) (A) (A) (A) (A) (A)
                 (A) (A) (A) (A) (A) (A) (A) (A) (A) (A) (A) (A)
                 (A) (A) (A) (A) (A) (A) (A) (A) (A) (A) (A) (A)
                 (A) (A) (A) (A) (A) (A) (A) (A) (A) (A) (A) (A)
                 (A) (A) (A) (A) (A) (A) (A) (A) (A) (A) (A) (A)
                 (A) (A) (A) (A) (A) (A) (A) (A) (A) (A) (A) (A)
                 (A) (A) (A) (A) (A) (A) (A) (A) (A) (A) (A) (A)
                 (A) (A) (A) (A) (A) (A) (A) (A) (A) (A) (A) (A)
                 (A) (A) (A) (A) (A) (A) (A) (A) (A) (A) (A) (A)
                 (A) (A) (A) (A) (A) (A) (A) (A) (A) (A) (A) (A)
                 (A) (A) (A) (A) (A) (A) (A) (A) (A) (A) (A) (A)
                 (A) (A) (A) (A) (A) (A) (A) (A) (A) (A) (A) (A)
                 (A) (A) (A) (A) (A) (A) (A) (A) (A) (A) (A) (A)
                 (A) (A) (A) (A) (A) (A) (A) (A) (A) (A) (A) (A)
                 (A) (A) (A) (A) (A) (A) (A) (A) (A) (A) (A) (A)
                 (A) (A) (A) (A) (A) (A) (A) (A) (A) (A) (A) (A)
                 (A) (A) (A) (A) (A) (A) (A) (A) (A) (A) (A) (A)
                 (A) (A) (A) (A) (A) (A) (A) (A) (A) (A) (A) (A)
                 (A) (A) (A) (A) (A) (A) (A) (A) (A) (A) (A) (A)
                 (A) (A) (A) (A) (A) (A) (A) (A) (A) (A) (A) (A)
                 (A) (A) (A) (A) (A) (A) (A) (A) (A) (A) (A) (A)
                 (A) (A) (A) (A) (A) (A) (A) (A) (A) (A) (A) (A)
                 (A) (A) (A) (A) (A) (A) (A) (A) (A) (A) (A) (A)
                 (A) (A) (A) (A) (A) (A) (A) (A) (A) (A) (A) (A)
                 (A) (A) (A) (A) (A) (A) (A) (A) (A) (A) (A) (A)
                 (A) (A) (A) (A) (A) (A) (A) (A) (A) (A) (A) (A)
                 (A) (A) (A) (A) (A) (A) (A) (A) (A) (A) (A) (A)
                 (A) (A) (A) (A) (A) (A) (A) (A) (A) (A) (A) (A)
                 (A) (A) (A) (A) (A) (A) (A) (A) (A) (A) (A) (A)
                 (A) (A) (A) (A) (A) (A) (A) (A) (A) (A) (A) (A)
                 (A) (A) (A) (A) (A) (A) (A) (A) (A) (A) (A) (A)
                 (A) (A) (A) (A) (A) (A) (A) (A) (A) (A) (A) (A)
                 (A) (A) (A) (A) (A) (A) (A) (A) (A) (A) (A) (A)
                 (A) (A) (A) (A) (A)
 Beta  Orbitals:
       Occupied  (A) (A) (A) (A) (A) (A) (A) (A) (A) (A) (A) (A)
                 (A) (A) (A) (A) (A) (A) (A) (A) (A) (A) (A) (A)
                 (A) (A) (A) (A) (A) (A) (A) (A) (A) (A) (A) (A)
                 (A) (A) (A) (A) (A) (A) (A) (A) (A) (A) (A) (A)
                 (A) (A) (A) (A) (A) (A) (A) (A) (A) (A) (A) (A)
                 (A) (A) (A) (A) (A) (A) (A) (A) (A) (A) (A) (A)
                 (A) (A) (A) (A) (A) (A) (A) (A) (A) (A) (A) (A)
                 (A) (A) (A) (A) (A) (A) (A) (A) (A) (A) (A) (A)
                 (A) (A) (A) (A) (A) (A) (A) (A) (A) (A) (A) (A)
                 (A) (A) (A) (A) (A) (A) (A) (A) (A) (A) (A) (A)
                 (A) (A) (A) (A) (A) (A) (A) (A) (A) (A) (A) (A)
                 (A) (A) (A) (A) (A) (A) (A) (A) (A) (A) (A) (A)
                 (A) (A) (A) (A) (A) (A) (A) (A) (A) (A) (A) (A)
                 (A) (A) (A) (A) (A) (A) (A) (A) (A) (A) (A) (A)
                 (A) (A) (A) (A) (A) (A) (A) (A) (A) (A) (A) (A)
                 (A) (A) (A) (A) (A) (A) (A) (A) (A) (A) (A) (A)
                 (A) (A) (A) (A) (A) (A) (A) (A) (A) (A) (A) (A)
                 (A)
       Virtual   (A) (A) (A) (A) (A) (A) (A) (A) (A) (A) (A) (A)
                 (A) (A) (A) (A) (A) (A) (A) (A) (A) (A) (A) (A)
                 (A) (A) (A) (A) (A) (A) (A) (A) (A) (A) (A) (A)
                 (A) (A) (A) (A) (A) (A) (A) (A) (A) (A) (A) (A)
                 (A) (A) (A) (A) (A) (A) (A) (A) (A) (A) (A) (A)
                 (A) (A) (A) (A) (A) (A) (A) (A) (A) (A) (A) (A)
                 (A) (A) (A) (A) (A) (A) (A) (A) (A) (A) (A) (A)
                 (A) (A) (A) (A) (A) (A) (A) (A) (A) (A) (A) (A)
                 (A) (A) (A) (A) (A) (A) (A) (A) (A) (A) (A) (A)
                 (A) (A) (A) (A) (A) (A) (A) (A) (A) (A) (A) (A)
                 (A) (A) (A) (A) (A) (A) (A) (A) (A) (A) (A) (A)
                 (A) (A) (A) (A) (A) (A) (A) (A) (A) (A) (A) (A)
                 (A) (A) (A) (A) (A) (A) (A) (A) (A) (A) (A) (A)
                 (A) (A) (A) (A) (A) (A) (A) (A) (A) (A) (A) (A)
                 (A) (A) (A) (A) (A) (A) (A) (A) (A) (A) (A) (A)
                 (A) (A) (A) (A) (A) (A) (A) (A) (A) (A) (A) (A)
                 (A) (A) (A) (A) (A) (A) (A) (A) (A) (A) (A) (A)
                 (A) (A) (A) (A) (A) (A) (A) (A) (A) (A) (A) (A)
                 (A) (A) (A) (A) (A) (A) (A) (A) (A) (A) (A) (A)
                 (A) (A) (A) (A) (A) (A) (A) (A) (A) (A) (A) (A)
                 (A) (A) (A) (A) (A) (A) (A) (A) (A) (A) (A) (A)
                 (A) (A) (A) (A) (A) (A) (A) (A) (A) (A) (A) (A)
                 (A) (A) (A) (A) (A) (A) (A) (A) (A) (A) (A) (A)
                 (A) (A) (A) (A) (A) (A) (A) (A) (A) (A) (A) (A)
                 (A) (A) (A) (A) (A) (A) (A) (A) (A) (A) (A) (A)
                 (A) (A) (A) (A) (A) (A) (A) (A) (A) (A) (A) (A)
                 (A) (A) (A) (A) (A) (A) (A) (A) (A) (A) (A) (A)
                 (A) (A) (A) (A) (A) (A) (A) (A) (A) (A) (A) (A)
                 (A) (A) (A) (A) (A) (A) (A) (A) (A) (A) (A) (A)
                 (A) (A) (A) (A) (A) (A) (A) (A) (A) (A) (A) (A)
                 (A) (A) (A) (A) (A) (A) (A) (A) (A) (A) (A) (A)
                 (A) (A) (A) (A) (A) (A) (A) (A) (A) (A) (A) (A)
                 (A) (A) (A) (A) (A) (A) (A) (A) (A) (A) (A) (A)
                 (A) (A) (A) (A) (A) (A) (A) (A) (A) (A) (A) (A)
                 (A) (A) (A) (A) (A) (A) (A) (A) (A) (A) (A) (A)
                 (A) (A) (A) (A) (A) (A) (A) (A) (A) (A) (A) (A)
                 (A) (A) (A) (A) (A) (A) (A) (A) (A) (A) (A) (A)
                 (A) (A) (A) (A) (A) (A) (A) (A) (A) (A) (A) (A)
                 (A) (A) (A) (A) (A) (A) (A) (A) (A) (A) (A) (A)
                 (A) (A) (A) (A) (A) (A) (A) (A) (A) (A) (A) (A)
                 (A) (A) (A) (A) (A) (A) (A) (A) (A) (A) (A) (A)
                 (A) (A) (A) (A) (A) (A) (A) (A) (A) (A) (A) (A)
                 (A) (A) (A) (A) (A) (A) (A) (A) (A) (A) (A) (A)
                 (A) (A) (A) (A) (A) (A) (A) (A) (A) (A) (A) (A)
                 (A) (A) (A) (A) (A) (A) (A) (A) (A) (A) (A) (A)
                 (A) (A) (A) (A) (A) (A) (A) (A) (A) (A) (A) (A)
                 (A) (A) (A) (A) (A) (A) (A) (A) (A) (A) (A) (A)
                 (A) (A) (A) (A) (A) (A) (A) (A) (A) (A) (A) (A)
                 (A) (A) (A) (A) (A) (A) (A) (A) (A) (A) (A) (A)
                 (A) (A) (A) (A) (A) (A) (A) (A) (A) (A) (A) (A)
                 (A) (A) (A) (A) (A) (A) (A) (A) (A) (A) (A) (A)
                 (A) (A) (A) (A) (A) (A) (A) (A) (A) (A) (A) (A)
                 (A) (A) (A) (A) (A) (A) (A) (A) (A) (A) (A) (A)
                 (A) (A) (A) (A) (A) (A) (A) (A) (A) (A) (A) (A)
                 (A) (A) (A) (A) (A) (A) (A) (A) (A) (A) (A) (A)
                 (A) (A) (A) (A) (A) (A) (A) (A) (A) (A) (A) (A)
                 (A) (A) (A) (A) (A) (A) (A) (A) (A) (A) (A) (A)
                 (A) (A) (A) (A) (A) (A) (A) (A) (A) (A) (A) (A)
                 (A) (A) (A) (A) (A) (A) (A) (A) (A) (A) (A) (A)
                 (A) (A) (A) (A) (A) (A) (A) (A) (A) (A) (A) (A)
                 (A) (A) (A) (A) (A) (A) (A) (A) (A) (A) (A) (A)
                 (A) (A) (A) (A) (A) (A) (A) (A) (A) (A) (A) (A)
                 (A) (A) (A) (A) (A) (A) (A) (A) (A) (A) (A) (A)
                 (A) (A) (A) (A) (A) (A) (A) (A) (A) (A) (A) (A)
                 (A) (A) (A) (A) (A) (A) (A) (A) (A) (A) (A) (A)
                 (A) (A) (A) (A) (A) (A) (A) (A) (A) (A) (A) (A)
                 (A) (A) (A) (A) (A) (A) (A) (A) (A) (A) (A) (A)
                 (A) (A) (A) (A) (A) (A) (A) (A) (A) (A) (A) (A)
                 (A) (A) (A) (A) (A) (A) (A) (A) (A) (A) (A) (A)
                 (A) (A) (A) (A) (A) (A) (A) (A) (A) (A) (A) (A)
                 (A) (A) (A) (A) (A) (A) (A) (A) (A) (A) (A) (A)
                 (A) (A) (A) (A) (A) (A) (A) (A) (A) (A) (A) (A)
                 (A) (A) (A) (A) (A) (A) (A) (A) (A) (A) (A) (A)
                 (A) (A) (A) (A) (A) (A) (A) (A) (A) (A) (A) (A)
                 (A) (A) (A) (A) (A) (A) (A) (A) (A) (A) (A) (A)
                 (A) (A) (A) (A) (A) (A) (A) (A) (A) (A) (A) (A)
                 (A) (A) (A) (A) (A) (A) (A) (A) (A) (A) (A) (A)
                 (A) (A) (A) (A) (A) (A) (A) (A) (A) (A) (A) (A)
                 (A) (A) (A) (A) (A) (A) (A) (A) (A) (A) (A) (A)
                 (A) (A) (A) (A) (A) (A) (A) (A) (A) (A) (A) (A)
                 (A) (A) (A) (A) (A) (A) (A) (A) (A) (A) (A) (A)
                 (A) (A) (A) (A) (A) (A) (A) (A) (A) (A) (A) (A)
                 (A) (A) (A) (A) (A) (A) (A) (A) (A) (A) (A) (A)
                 (A) (A) (A) (A) (A) (A) (A) (A) (A) (A) (A) (A)
                 (A) (A) (A) (A) (A) (A) (A) (A) (A) (A) (A) (A)
                 (A) (A) (A) (A) (A) (A) (A) (A) (A) (A) (A) (A)
                 (A) (A) (A) (A) (A) (A) (A) (A) (A) (A) (A) (A)
                 (A) (A) (A) (A) (A) (A) (A) (A) (A) (A) (A) (A)
                 (A) (A) (A) (A) (A) (A) (A) (A) (A) (A) (A) (A)
                 (A) (A) (A) (A) (A) (A) (A) (A) (A) (A) (A) (A)
                 (A) (A) (A) (A) (A) (A) (A) (A) (A) (A) (A) (A)
                 (A) (A) (A) (A) (A) (A) (A) (A) (A) (A) (A) (A)
                 (A) (A) (A) (A) (A) (A) (A) (A) (A) (A) (A) (A)
                 (A) (A) (A) (A) (A) (A) (A) (A) (A) (A) (A) (A)
                 (A) (A) (A) (A) (A) (A) (A) (A) (A) (A) (A) (A)
                 (A) (A) (A) (A) (A) (A) (A) (A) (A) (A) (A) (A)
                 (A) (A) (A) (A) (A) (A) (A) (A) (A) (A) (A) (A)
                 (A) (A) (A) (A) (A) (A) (A) (A) (A) (A) (A) (A)
                 (A) (A) (A) (A) (A) (A) (A) (A) (A) (A) (A) (A)
                 (A) (A) (A) (A) (A) (A) (A) (A) (A) (A) (A) (A)
                 (A) (A) (A) (A) (A) (A) (A) (A) (A) (A) (A) (A)
                 (A) (A) (A) (A) (A) (A) (A) (A) (A) (A) (A) (A)
                 (A) (A) (A) (A) (A) (A) (A) (A) (A) (A) (A) (A)
                 (A) (A) (A) (A) (A) (A) (A) (A) (A) (A) (A) (A)
                 (A) (A) (A) (A) (A) (A) (A) (A) (A) (A) (A) (A)
                 (A) (A) (A) (A) (A) (A) (A) (A) (A) (A) (A) (A)
                 (A) (A) (A) (A) (A) (A) (A) (A) (A) (A) (A) (A)
                 (A) (A) (A) (A) (A) (A) (A) (A) (A) (A) (A) (A)
                 (A) (A) (A) (A) (A) (A) (A) (A) (A) (A) (A) (A)
                 (A) (A) (A) (A) (A) (A) (A) (A) (A) (A) (A) (A)
                 (A) (A) (A) (A) (A) (A) (A) (A) (A) (A) (A) (A)
                 (A) (A) (A) (A) (A) (A) (A) (A) (A) (A) (A) (A)
                 (A) (A) (A) (A) (A) (A) (A) (A) (A) (A) (A) (A)
                 (A) (A) (A) (A) (A) (A) (A) (A) (A) (A) (A) (A)
                 (A) (A) (A) (A) (A) (A) (A) (A) (A) (A) (A) (A)
                 (A) (A) (A) (A) (A) (A) (A) (A) (A) (A) (A) (A)
                 (A) (A) (A) (A) (A) (A) (A) (A) (A) (A) (A) (A)
                 (A) (A) (A) (A) (A) (A) (A) (A) (A) (A) (A) (A)
                 (A) (A) (A) (A) (A) (A) (A) (A) (A) (A) (A) (A)
                 (A) (A) (A) (A) (A) (A) (A) (A) (A) (A) (A) (A)
                 (A) (A) (A) (A) (A) (A) (A) (A) (A) (A) (A) (A)
                 (A) (A) (A) (A) (A) (A) (A) (A) (A) (A) (A) (A)
                 (A) (A) (A) (A) (A) (A) (A) (A) (A) (A) (A) (A)
                 (A) (A) (A) (A) (A) (A) (A) (A) (A) (A) (A) (A)
                 (A) (A) (A) (A) (A) (A) (A) (A) (A) (A) (A) (A)
                 (A) (A) (A) (A) (A) (A) (A) (A) (A) (A) (A) (A)
                 (A) (A) (A) (A) (A) (A) (A) (A) (A) (A) (A) (A)
                 (A) (A) (A) (A) (A) (A) (A) (A) (A) (A) (A) (A)
                 (A) (A) (A) (A) (A) (A) (A) (A) (A) (A) (A) (A)
                 (A) (A) (A) (A) (A) (A) (A) (A) (A) (A) (A) (A)
                 (A) (A) (A) (A) (A) (A) (A) (A) (A) (A) (A) (A)
                 (A) (A) (A) (A) (A) (A) (A) (A) (A) (A) (A) (A)
                 (A) (A) (A) (A) (A) (A) (A) (A) (A) (A) (A) (A)
                 (A) (A) (A) (A) (A) (A) (A) (A) (A) (A) (A) (A)
                 (A) (A) (A) (A) (A) (A) (A) (A) (A) (A) (A) (A)
                 (A) (A) (A) (A) (A) (A) (A) (A) (A) (A) (A) (A)
                 (A) (A) (A) (A) (A) (A) (A) (A) (A) (A) (A) (A)
                 (A) (A) (A) (A) (A) (A) (A) (A) (A) (A) (A) (A)
                 (A) (A) (A) (A) (A) (A) (A) (A) (A) (A) (A) (A)
                 (A) (A) (A) (A) (A) (A) (A) (A) (A) (A) (A) (A)
                 (A) (A) (A) (A) (A) (A) (A) (A) (A) (A) (A) (A)
                 (A) (A) (A) (A) (A) (A) (A) (A) (A) (A) (A) (A)
                 (A) (A) (A) (A) (A) (A) (A) (A) (A) (A) (A) (A)
                 (A) (A) (A) (A) (A) (A) (A) (A) (A) (A) (A) (A)
                 (A) (A) (A) (A) (A) (A) (A) (A) (A) (A) (A) (A)
                 (A) (A) (A) (A) (A) (A) (A) (A) (A) (A) (A) (A)
                 (A) (A) (A) (A) (A) (A)
 The electronic state is 2-A.
 Alpha  occ. eigenvalues -- -256.50678 -89.14725 -30.29379 -26.12518 -26.11967
 Alpha  occ. eigenvalues --  -26.10574 -19.34258 -19.32513 -19.25633 -19.23690
 Alpha  occ. eigenvalues --  -14.54809 -14.50986 -14.49004 -14.48729 -14.48489
 Alpha  occ. eigenvalues --  -14.48435 -10.42382 -10.42018 -10.38707 -10.36092
 Alpha  occ. eigenvalues --  -10.35520 -10.35333 -10.35225 -10.35212 -10.35167
 Alpha  occ. eigenvalues --  -10.35112 -10.35049 -10.35025 -10.34332 -10.33697
 Alpha  occ. eigenvalues --  -10.33611 -10.32535 -10.32434 -10.32284 -10.32147
 Alpha  occ. eigenvalues --  -10.32093 -10.32028 -10.31979 -10.31873 -10.31761
 Alpha  occ. eigenvalues --  -10.31756 -10.31727 -10.31666 -10.31604 -10.31588
 Alpha  occ. eigenvalues --  -10.30831 -10.30786 -10.30689 -10.30685 -10.30533
 Alpha  occ. eigenvalues --  -10.30533 -10.30249 -10.30078 -10.29802 -10.29665
 Alpha  occ. eigenvalues --  -10.28237 -10.28122  -8.12491  -6.06095  -6.05826
 Alpha  occ. eigenvalues --   -6.05378  -3.65014  -2.42326  -2.41062  -2.38199
 Alpha  occ. eigenvalues --   -1.24975  -1.23987  -1.17144  -1.10445  -1.08817
 Alpha  occ. eigenvalues --   -1.07754  -1.07690  -1.07461  -1.06667  -1.02462
 Alpha  occ. eigenvalues --   -0.94905  -0.94384  -0.93212  -0.92670  -0.92307
 Alpha  occ. eigenvalues --   -0.92004  -0.91464  -0.91331  -0.91186  -0.88537
 Alpha  occ. eigenvalues --   -0.87924  -0.87234  -0.86701  -0.86229  -0.85984
 Alpha  occ. eigenvalues --   -0.83609  -0.82678  -0.81968  -0.81443  -0.80966
 Alpha  occ. eigenvalues --   -0.79338  -0.78600  -0.78091  -0.77558  -0.76272
 Alpha  occ. eigenvalues --   -0.75960  -0.75326  -0.73510  -0.73265  -0.72836
 Alpha  occ. eigenvalues --   -0.72649  -0.72379  -0.70703  -0.69851  -0.68500
 Alpha  occ. eigenvalues --   -0.67042  -0.65830  -0.65012  -0.64960  -0.63771
 Alpha  occ. eigenvalues --   -0.62531  -0.62198  -0.61723  -0.60509  -0.59952
 Alpha  occ. eigenvalues --   -0.59499  -0.59292  -0.59191  -0.58620  -0.58480
 Alpha  occ. eigenvalues --   -0.58283  -0.58128  -0.57802  -0.57195  -0.57130
 Alpha  occ. eigenvalues --   -0.56672  -0.56520  -0.56181  -0.55668  -0.55262
 Alpha  occ. eigenvalues --   -0.55073  -0.54535  -0.54474  -0.54231  -0.53996
 Alpha  occ. eigenvalues --   -0.53888  -0.53789  -0.53514  -0.53224  -0.53041
 Alpha  occ. eigenvalues --   -0.52544  -0.52434  -0.52257  -0.52104  -0.51802
 Alpha  occ. eigenvalues --   -0.51412  -0.51206  -0.51052  -0.50935  -0.50739
 Alpha  occ. eigenvalues --   -0.50332  -0.50182  -0.49852  -0.49462  -0.49277
 Alpha  occ. eigenvalues --   -0.49238  -0.48741  -0.48161  -0.48113  -0.47983
 Alpha  occ. eigenvalues --   -0.47797  -0.47550  -0.47474  -0.47359  -0.47067
 Alpha  occ. eigenvalues --   -0.46721  -0.46468  -0.46269  -0.46118  -0.45986
 Alpha  occ. eigenvalues --   -0.45816  -0.45188  -0.45127  -0.44723  -0.44491
 Alpha  occ. eigenvalues --   -0.43757  -0.43470  -0.43376  -0.43297  -0.43148
 Alpha  occ. eigenvalues --   -0.42657  -0.42574  -0.41949  -0.41734  -0.41262
 Alpha  occ. eigenvalues --   -0.40764  -0.39718  -0.39622  -0.38454  -0.38314
 Alpha  occ. eigenvalues --   -0.38118  -0.37309  -0.35438  -0.34783  -0.34476
 Alpha  occ. eigenvalues --   -0.34015  -0.33915  -0.33238  -0.32857  -0.29883
 Alpha  occ. eigenvalues --   -0.29279
 Alpha virt. eigenvalues --   -0.17771  -0.17307  -0.16830  -0.13358  -0.10706
 Alpha virt. eigenvalues --   -0.08731  -0.07894  -0.07012  -0.06722  -0.06177
 Alpha virt. eigenvalues --   -0.05895  -0.05502  -0.05453  -0.05037  -0.04495
 Alpha virt. eigenvalues --   -0.03940  -0.03733  -0.03231  -0.02949  -0.02634
 Alpha virt. eigenvalues --   -0.02584  -0.02285  -0.01988  -0.01786  -0.01228
 Alpha virt. eigenvalues --   -0.01040  -0.00768  -0.00661  -0.00520  -0.00082
 Alpha virt. eigenvalues --    0.00145   0.00299   0.00539   0.01058   0.01106
 Alpha virt. eigenvalues --    0.01409   0.01966   0.02234   0.02365   0.02630
 Alpha virt. eigenvalues --    0.02830   0.03180   0.03248   0.03423   0.03751
 Alpha virt. eigenvalues --    0.03798   0.04026   0.04257   0.04394   0.04540
 Alpha virt. eigenvalues --    0.04658   0.04806   0.04883   0.05318   0.05464
 Alpha virt. eigenvalues --    0.05711   0.05753   0.05916   0.06104   0.06356
 Alpha virt. eigenvalues --    0.06423   0.06516   0.06679   0.06854   0.07056
 Alpha virt. eigenvalues --    0.07224   0.07260   0.07646   0.07786   0.08051
 Alpha virt. eigenvalues --    0.08147   0.08518   0.08586   0.08877   0.08959
 Alpha virt. eigenvalues --    0.09171   0.09562   0.09749   0.09998   0.10374
 Alpha virt. eigenvalues --    0.10870   0.11017   0.11147   0.11289   0.11660
 Alpha virt. eigenvalues --    0.11712   0.11915   0.12023   0.12221   0.12298
 Alpha virt. eigenvalues --    0.12681   0.12769   0.12936   0.13159   0.13507
 Alpha virt. eigenvalues --    0.13616   0.13812   0.13837   0.14166   0.14337
 Alpha virt. eigenvalues --    0.14532   0.14804   0.14920   0.15149   0.15224
 Alpha virt. eigenvalues --    0.15409   0.15723   0.15972   0.16096   0.16205
 Alpha virt. eigenvalues --    0.16315   0.16578   0.16745   0.16980   0.17113
 Alpha virt. eigenvalues --    0.17275   0.17283   0.17440   0.17742   0.17835
 Alpha virt. eigenvalues --    0.17976   0.18393   0.18715   0.18788   0.19142
 Alpha virt. eigenvalues --    0.19607   0.19738   0.20021   0.20198   0.20366
 Alpha virt. eigenvalues --    0.20567   0.20768   0.21153   0.21453   0.21486
 Alpha virt. eigenvalues --    0.21809   0.21900   0.22081   0.22361   0.22752
 Alpha virt. eigenvalues --    0.22948   0.23196   0.23241   0.23471   0.23534
 Alpha virt. eigenvalues --    0.23679   0.24229   0.24544   0.24704   0.24995
 Alpha virt. eigenvalues --    0.25150   0.25346   0.25572   0.25902   0.26099
 Alpha virt. eigenvalues --    0.26332   0.26771   0.27212   0.27255   0.27368
 Alpha virt. eigenvalues --    0.27760   0.27979   0.28051   0.28171   0.28361
 Alpha virt. eigenvalues --    0.28584   0.28910   0.29228   0.29468   0.29566
 Alpha virt. eigenvalues --    0.29662   0.29997   0.30400   0.30515   0.30601
 Alpha virt. eigenvalues --    0.30850   0.31082   0.31250   0.31323   0.31605
 Alpha virt. eigenvalues --    0.31714   0.31829   0.32027   0.32105   0.32235
 Alpha virt. eigenvalues --    0.32611   0.32696   0.32912   0.33290   0.33440
 Alpha virt. eigenvalues --    0.33608   0.33727   0.34000   0.34213   0.34471
 Alpha virt. eigenvalues --    0.34657   0.34663   0.34808   0.34970   0.35241
 Alpha virt. eigenvalues --    0.35343   0.35356   0.35688   0.35806   0.36131
 Alpha virt. eigenvalues --    0.36223   0.36436   0.36603   0.36702   0.37012
 Alpha virt. eigenvalues --    0.37146   0.37283   0.37471   0.37654   0.37758
 Alpha virt. eigenvalues --    0.37885   0.38057   0.38152   0.38243   0.38332
 Alpha virt. eigenvalues --    0.38580   0.38833   0.38889   0.38973   0.39265
 Alpha virt. eigenvalues --    0.39398   0.39607   0.39687   0.39813   0.39850
 Alpha virt. eigenvalues --    0.40149   0.40324   0.40424   0.40570   0.40751
 Alpha virt. eigenvalues --    0.41011   0.41200   0.41296   0.41568   0.41713
 Alpha virt. eigenvalues --    0.41841   0.41968   0.42080   0.42370   0.42599
 Alpha virt. eigenvalues --    0.42695   0.42915   0.42948   0.43104   0.43148
 Alpha virt. eigenvalues --    0.43336   0.43569   0.43806   0.44041   0.44358
 Alpha virt. eigenvalues --    0.44488   0.44702   0.44803   0.44955   0.45122
 Alpha virt. eigenvalues --    0.45303   0.45472   0.45786   0.45806   0.45998
 Alpha virt. eigenvalues --    0.46109   0.46209   0.46443   0.46692   0.46796
 Alpha virt. eigenvalues --    0.46972   0.47249   0.47584   0.47682   0.47925
 Alpha virt. eigenvalues --    0.48196   0.48326   0.48527   0.48760   0.48956
 Alpha virt. eigenvalues --    0.49056   0.49443   0.49677   0.49801   0.49923
 Alpha virt. eigenvalues --    0.50270   0.50471   0.50611   0.50742   0.50914
 Alpha virt. eigenvalues --    0.51090   0.51467   0.51757   0.52177   0.52332
 Alpha virt. eigenvalues --    0.52509   0.52688   0.52785   0.52963   0.53384
 Alpha virt. eigenvalues --    0.53740   0.53848   0.53985   0.54343   0.54671
 Alpha virt. eigenvalues --    0.54763   0.55151   0.55319   0.55685   0.55965
 Alpha virt. eigenvalues --    0.56098   0.56319   0.56652   0.57045   0.57324
 Alpha virt. eigenvalues --    0.57372   0.57704   0.58120   0.58359   0.58543
 Alpha virt. eigenvalues --    0.58871   0.59352   0.59494   0.59669   0.59803
 Alpha virt. eigenvalues --    0.60294   0.60409   0.60769   0.60958   0.61116
 Alpha virt. eigenvalues --    0.61466   0.61475   0.61960   0.62110   0.62445
 Alpha virt. eigenvalues --    0.62822   0.63044   0.63252   0.63434   0.63713
 Alpha virt. eigenvalues --    0.63844   0.64445   0.64658   0.64962   0.65161
 Alpha virt. eigenvalues --    0.65660   0.65789   0.66088   0.66270   0.66683
 Alpha virt. eigenvalues --    0.67234   0.67306   0.67454   0.67861   0.67882
 Alpha virt. eigenvalues --    0.68357   0.68732   0.69011   0.69310   0.69751
 Alpha virt. eigenvalues --    0.70013   0.70303   0.70808   0.71141   0.71335
 Alpha virt. eigenvalues --    0.71398   0.71789   0.72292   0.72415   0.72535
 Alpha virt. eigenvalues --    0.72801   0.73156   0.73317   0.73592   0.74370
 Alpha virt. eigenvalues --    0.74807   0.75065   0.75214   0.75414   0.75635
 Alpha virt. eigenvalues --    0.76043   0.76261   0.76614   0.76775   0.77126
 Alpha virt. eigenvalues --    0.77175   0.77603   0.78044   0.78217   0.78601
 Alpha virt. eigenvalues --    0.79184   0.79378   0.79725   0.79755   0.79998
 Alpha virt. eigenvalues --    0.80332   0.80643   0.81057   0.81205   0.81350
 Alpha virt. eigenvalues --    0.81453   0.81827   0.81975   0.82497   0.82684
 Alpha virt. eigenvalues --    0.82876   0.82972   0.83494   0.83849   0.83952
 Alpha virt. eigenvalues --    0.84312   0.84488   0.84617   0.84717   0.85025
 Alpha virt. eigenvalues --    0.85257   0.85811   0.86035   0.86144   0.86373
 Alpha virt. eigenvalues --    0.86620   0.86841   0.87106   0.87393   0.87534
 Alpha virt. eigenvalues --    0.87719   0.88021   0.88242   0.88789   0.88965
 Alpha virt. eigenvalues --    0.89043   0.89450   0.89811   0.89895   0.90305
 Alpha virt. eigenvalues --    0.90365   0.90764   0.91124   0.91368   0.91677
 Alpha virt. eigenvalues --    0.91828   0.92077   0.92354   0.92547   0.92661
 Alpha virt. eigenvalues --    0.93115   0.93426   0.93891   0.94194   0.94297
 Alpha virt. eigenvalues --    0.94580   0.94955   0.95060   0.95742   0.95913
 Alpha virt. eigenvalues --    0.96223   0.96610   0.96877   0.96980   0.97142
 Alpha virt. eigenvalues --    0.97444   0.97677   0.97932   0.98336   0.98644
 Alpha virt. eigenvalues --    0.98752   0.98822   0.99114   0.99325   0.99445
 Alpha virt. eigenvalues --    1.00335   1.00453   1.00869   1.01132   1.01239
 Alpha virt. eigenvalues --    1.01629   1.02003   1.02341   1.02864   1.03150
 Alpha virt. eigenvalues --    1.03403   1.03577   1.03987   1.04075   1.04537
 Alpha virt. eigenvalues --    1.04620   1.04908   1.05184   1.05701   1.05964
 Alpha virt. eigenvalues --    1.06128   1.06478   1.07094   1.07456   1.07915
 Alpha virt. eigenvalues --    1.08098   1.08400   1.08571   1.08937   1.09073
 Alpha virt. eigenvalues --    1.09742   1.10490   1.10605   1.10888   1.10963
 Alpha virt. eigenvalues --    1.11657   1.11760   1.12259   1.12793   1.12956
 Alpha virt. eigenvalues --    1.13219   1.13620   1.13721   1.14084   1.14225
 Alpha virt. eigenvalues --    1.14673   1.14821   1.15378   1.15883   1.16344
 Alpha virt. eigenvalues --    1.16571   1.16724   1.17313   1.17665   1.17725
 Alpha virt. eigenvalues --    1.18042   1.18387   1.18665   1.19002   1.19422
 Alpha virt. eigenvalues --    1.19590   1.19991   1.20261   1.20577   1.20709
 Alpha virt. eigenvalues --    1.20869   1.21155   1.21730   1.22550   1.22768
 Alpha virt. eigenvalues --    1.22839   1.23126   1.24087   1.24421   1.24676
 Alpha virt. eigenvalues --    1.25252   1.25569   1.25872   1.26077   1.26580
 Alpha virt. eigenvalues --    1.27135   1.27652   1.27727   1.28039   1.28159
 Alpha virt. eigenvalues --    1.28513   1.28761   1.29448   1.29864   1.30145
 Alpha virt. eigenvalues --    1.30691   1.31414   1.31717   1.31982   1.32039
 Alpha virt. eigenvalues --    1.32606   1.33222   1.33398   1.34001   1.34202
 Alpha virt. eigenvalues --    1.34810   1.34982   1.35816   1.36439   1.36809
 Alpha virt. eigenvalues --    1.37442   1.37813   1.38044   1.38173   1.38587
 Alpha virt. eigenvalues --    1.38977   1.39527   1.39569   1.40174   1.40338
 Alpha virt. eigenvalues --    1.40655   1.40689   1.41029   1.41388   1.41812
 Alpha virt. eigenvalues --    1.42046   1.42579   1.42733   1.42931   1.43069
 Alpha virt. eigenvalues --    1.43544   1.43616   1.43927   1.44062   1.44233
 Alpha virt. eigenvalues --    1.44954   1.45171   1.45363   1.45460   1.45700
 Alpha virt. eigenvalues --    1.46013   1.46203   1.46519   1.46933   1.47061
 Alpha virt. eigenvalues --    1.47215   1.47394   1.47508   1.47679   1.48064
 Alpha virt. eigenvalues --    1.48455   1.48726   1.48949   1.49182   1.49369
 Alpha virt. eigenvalues --    1.49543   1.50028   1.50125   1.50214   1.50711
 Alpha virt. eigenvalues --    1.50802   1.51063   1.51422   1.51704   1.52060
 Alpha virt. eigenvalues --    1.52236   1.52334   1.52730   1.52845   1.52995
 Alpha virt. eigenvalues --    1.53218   1.53571   1.54011   1.54179   1.54481
 Alpha virt. eigenvalues --    1.54733   1.54977   1.55321   1.55657   1.55843
 Alpha virt. eigenvalues --    1.56070   1.56265   1.56613   1.56807   1.57155
 Alpha virt. eigenvalues --    1.57256   1.57540   1.58027   1.58211   1.58319
 Alpha virt. eigenvalues --    1.58558   1.58593   1.59037   1.59273   1.59750
 Alpha virt. eigenvalues --    1.59916   1.60025   1.60100   1.60719   1.60786
 Alpha virt. eigenvalues --    1.61127   1.61383   1.61731   1.61962   1.62067
 Alpha virt. eigenvalues --    1.62296   1.62694   1.62974   1.63334   1.63523
 Alpha virt. eigenvalues --    1.63684   1.63797   1.63984   1.64214   1.64537
 Alpha virt. eigenvalues --    1.64754   1.65282   1.65509   1.65756   1.66140
 Alpha virt. eigenvalues --    1.66364   1.66537   1.66883   1.66999   1.67078
 Alpha virt. eigenvalues --    1.67536   1.67876   1.68262   1.68632   1.68954
 Alpha virt. eigenvalues --    1.69097   1.69222   1.70473   1.70622   1.70860
 Alpha virt. eigenvalues --    1.71348   1.72060   1.72490   1.72807   1.72869
 Alpha virt. eigenvalues --    1.73001   1.73642   1.73995   1.74527   1.75058
 Alpha virt. eigenvalues --    1.75327   1.75887   1.75950   1.76142   1.76278
 Alpha virt. eigenvalues --    1.76604   1.76793   1.77068   1.77420   1.78140
 Alpha virt. eigenvalues --    1.78452   1.78554   1.78797   1.79294   1.79872
 Alpha virt. eigenvalues --    1.79964   1.80290   1.80675   1.81058   1.81205
 Alpha virt. eigenvalues --    1.81400   1.82081   1.82310   1.82788   1.82846
 Alpha virt. eigenvalues --    1.83470   1.83718   1.83857   1.84281   1.84383
 Alpha virt. eigenvalues --    1.84820   1.85197   1.85493   1.85774   1.86276
 Alpha virt. eigenvalues --    1.86606   1.86753   1.87221   1.87486   1.87751
 Alpha virt. eigenvalues --    1.88020   1.88551   1.88882   1.89168   1.89307
 Alpha virt. eigenvalues --    1.89977   1.90204   1.90608   1.90763   1.91081
 Alpha virt. eigenvalues --    1.91344   1.91738   1.92080   1.92269   1.92510
 Alpha virt. eigenvalues --    1.93125   1.93369   1.93828   1.94195   1.94631
 Alpha virt. eigenvalues --    1.94923   1.95150   1.95903   1.96208   1.96827
 Alpha virt. eigenvalues --    1.96950   1.97493   1.97882   1.98206   1.98478
 Alpha virt. eigenvalues --    1.98732   1.99113   1.99520   1.99730   1.99865
 Alpha virt. eigenvalues --    2.00391   2.00563   2.00957   2.01197   2.01868
 Alpha virt. eigenvalues --    2.02154   2.02475   2.02649   2.03190   2.03478
 Alpha virt. eigenvalues --    2.03913   2.04047   2.04313   2.04714   2.04867
 Alpha virt. eigenvalues --    2.05353   2.05514   2.05877   2.05993   2.06554
 Alpha virt. eigenvalues --    2.06674   2.06768   2.06919   2.07395   2.07783
 Alpha virt. eigenvalues --    2.08145   2.08491   2.08936   2.09318   2.09629
 Alpha virt. eigenvalues --    2.10057   2.10325   2.10419   2.10645   2.11122
 Alpha virt. eigenvalues --    2.11489   2.11789   2.12261   2.12523   2.12663
 Alpha virt. eigenvalues --    2.13148   2.13492   2.14116   2.14252   2.14366
 Alpha virt. eigenvalues --    2.15041   2.15403   2.15544   2.15839   2.16196
 Alpha virt. eigenvalues --    2.16559   2.17245   2.17591   2.17853   2.18003
 Alpha virt. eigenvalues --    2.18931   2.19210   2.19415   2.19715   2.19882
 Alpha virt. eigenvalues --    2.20457   2.21042   2.21110   2.21327   2.21843
 Alpha virt. eigenvalues --    2.22134   2.22615   2.23193   2.23362   2.23496
 Alpha virt. eigenvalues --    2.23729   2.23904   2.24708   2.25082   2.25339
 Alpha virt. eigenvalues --    2.25700   2.25963   2.26649   2.26929   2.27501
 Alpha virt. eigenvalues --    2.27704   2.28323   2.28563   2.28867   2.29135
 Alpha virt. eigenvalues --    2.29559   2.29644   2.29908   2.30452   2.30684
 Alpha virt. eigenvalues --    2.30779   2.31134   2.31207   2.31762   2.31959
 Alpha virt. eigenvalues --    2.32438   2.32976   2.33104   2.33485   2.33780
 Alpha virt. eigenvalues --    2.33949   2.34434   2.34610   2.35060   2.35490
 Alpha virt. eigenvalues --    2.35664   2.36193   2.36456   2.36732   2.37279
 Alpha virt. eigenvalues --    2.37455   2.38071   2.38081   2.38298   2.38655
 Alpha virt. eigenvalues --    2.39200   2.39401   2.39949   2.40198   2.40440
 Alpha virt. eigenvalues --    2.41117   2.41130   2.41671   2.42343   2.42964
 Alpha virt. eigenvalues --    2.43357   2.43518   2.43732   2.44153   2.44540
 Alpha virt. eigenvalues --    2.44658   2.44899   2.44984   2.45183   2.45961
 Alpha virt. eigenvalues --    2.46091   2.46409   2.46921   2.46948   2.47142
 Alpha virt. eigenvalues --    2.47921   2.48185   2.48356   2.48758   2.49058
 Alpha virt. eigenvalues --    2.49333   2.49455   2.49707   2.50007   2.50218
 Alpha virt. eigenvalues --    2.50426   2.51133   2.51343   2.51527   2.51815
 Alpha virt. eigenvalues --    2.52172   2.52484   2.52772   2.53060   2.53329
 Alpha virt. eigenvalues --    2.53442   2.53930   2.54193   2.54305   2.54590
 Alpha virt. eigenvalues --    2.54725   2.55004   2.55421   2.55821   2.55887
 Alpha virt. eigenvalues --    2.56192   2.56684   2.57101   2.57245   2.57693
 Alpha virt. eigenvalues --    2.57823   2.58365   2.58788   2.59081   2.59340
 Alpha virt. eigenvalues --    2.59455   2.59481   2.59991   2.60453   2.60738
 Alpha virt. eigenvalues --    2.61017   2.61416   2.61530   2.62099   2.62634
 Alpha virt. eigenvalues --    2.62953   2.63092   2.63694   2.63817   2.64137
 Alpha virt. eigenvalues --    2.64339   2.64720   2.64805   2.65143   2.65579
 Alpha virt. eigenvalues --    2.66114   2.66248   2.66348   2.66874   2.67354
 Alpha virt. eigenvalues --    2.67765   2.68064   2.68367   2.68700   2.69071
 Alpha virt. eigenvalues --    2.69581   2.69802   2.69897   2.70163   2.70579
 Alpha virt. eigenvalues --    2.71114   2.71206   2.71385   2.71802   2.71856
 Alpha virt. eigenvalues --    2.72621   2.72835   2.73088   2.73383   2.73608
 Alpha virt. eigenvalues --    2.73818   2.74181   2.74511   2.74691   2.74871
 Alpha virt. eigenvalues --    2.75063   2.75612   2.75897   2.76291   2.76696
 Alpha virt. eigenvalues --    2.76975   2.77295   2.77676   2.77762   2.78190
 Alpha virt. eigenvalues --    2.78390   2.78696   2.79271   2.79379   2.79733
 Alpha virt. eigenvalues --    2.80019   2.80639   2.80969   2.81137   2.81771
 Alpha virt. eigenvalues --    2.82175   2.82229   2.82871   2.83030   2.83125
 Alpha virt. eigenvalues --    2.83213   2.83572   2.83659   2.84293   2.84451
 Alpha virt. eigenvalues --    2.84628   2.85228   2.85446   2.85808   2.86223
 Alpha virt. eigenvalues --    2.86679   2.86903   2.87190   2.87697   2.87987
 Alpha virt. eigenvalues --    2.88381   2.88548   2.88789   2.89154   2.89497
 Alpha virt. eigenvalues --    2.89786   2.90037   2.90283   2.90447   2.90783
 Alpha virt. eigenvalues --    2.91553   2.92384   2.92526   2.92819   2.93256
 Alpha virt. eigenvalues --    2.93521   2.93620   2.94043   2.94227   2.94625
 Alpha virt. eigenvalues --    2.95270   2.95589   2.95887   2.95976   2.96171
 Alpha virt. eigenvalues --    2.96534   2.96775   2.96957   2.97620   2.97733
 Alpha virt. eigenvalues --    2.98042   2.98386   2.98645   2.98737   2.99132
 Alpha virt. eigenvalues --    2.99424   2.99738   2.99832   3.00187   3.00387
 Alpha virt. eigenvalues --    3.00598   3.00773   3.00889   3.01292   3.01581
 Alpha virt. eigenvalues --    3.01838   3.01983   3.02323   3.02568   3.03123
 Alpha virt. eigenvalues --    3.03234   3.03305   3.03696   3.03864   3.04079
 Alpha virt. eigenvalues --    3.04290   3.04814   3.05184   3.05479   3.05573
 Alpha virt. eigenvalues --    3.05767   3.06205   3.06409   3.06522   3.06738
 Alpha virt. eigenvalues --    3.07357   3.07536   3.07749   3.08141   3.08274
 Alpha virt. eigenvalues --    3.08448   3.08698   3.09044   3.09400   3.09775
 Alpha virt. eigenvalues --    3.09917   3.10044   3.10755   3.10941   3.11265
 Alpha virt. eigenvalues --    3.11493   3.11633   3.12130   3.12331   3.12439
 Alpha virt. eigenvalues --    3.12898   3.13105   3.13694   3.13790   3.14079
 Alpha virt. eigenvalues --    3.14202   3.14697   3.14905   3.15037   3.15490
 Alpha virt. eigenvalues --    3.15844   3.16004   3.16203   3.16638   3.16747
 Alpha virt. eigenvalues --    3.16871   3.17284   3.17453   3.17654   3.17803
 Alpha virt. eigenvalues --    3.18021   3.18213   3.18588   3.18685   3.19304
 Alpha virt. eigenvalues --    3.19407   3.19697   3.19789   3.20073   3.20502
 Alpha virt. eigenvalues --    3.20724   3.20831   3.21076   3.21349   3.21801
 Alpha virt. eigenvalues --    3.22268   3.22462   3.22713   3.22929   3.23116
 Alpha virt. eigenvalues --    3.23419   3.23614   3.23963   3.24203   3.24456
 Alpha virt. eigenvalues --    3.24813   3.25036   3.25369   3.25450   3.25779
 Alpha virt. eigenvalues --    3.25851   3.26071   3.26554   3.26720   3.26824
 Alpha virt. eigenvalues --    3.26974   3.27315   3.27430   3.27733   3.27940
 Alpha virt. eigenvalues --    3.28295   3.28522   3.28774   3.29067   3.29348
 Alpha virt. eigenvalues --    3.29478   3.29554   3.29815   3.30014   3.30451
 Alpha virt. eigenvalues --    3.30670   3.30837   3.31032   3.31316   3.31564
 Alpha virt. eigenvalues --    3.31909   3.31959   3.32257   3.32401   3.32617
 Alpha virt. eigenvalues --    3.32675   3.33067   3.33263   3.33523   3.33762
 Alpha virt. eigenvalues --    3.33904   3.34059   3.34537   3.34782   3.35019
 Alpha virt. eigenvalues --    3.35415   3.35619   3.36129   3.36399   3.36414
 Alpha virt. eigenvalues --    3.36803   3.37244   3.37646   3.37806   3.38228
 Alpha virt. eigenvalues --    3.38420   3.38867   3.38963   3.39248   3.39646
 Alpha virt. eigenvalues --    3.39910   3.40142   3.40150   3.40759   3.40919
 Alpha virt. eigenvalues --    3.41211   3.41606   3.41813   3.42088   3.42276
 Alpha virt. eigenvalues --    3.42384   3.42994   3.43253   3.43584   3.44073
 Alpha virt. eigenvalues --    3.44177   3.44562   3.44997   3.45365   3.45919
 Alpha virt. eigenvalues --    3.46126   3.46740   3.46907   3.47027   3.47369
 Alpha virt. eigenvalues --    3.47447   3.47792   3.48161   3.48545   3.48672
 Alpha virt. eigenvalues --    3.49446   3.49614   3.49778   3.50109   3.50292
 Alpha virt. eigenvalues --    3.50768   3.51227   3.51514   3.51845   3.52083
 Alpha virt. eigenvalues --    3.52395   3.52853   3.53302   3.54149   3.54233
 Alpha virt. eigenvalues --    3.54611   3.54887   3.55017   3.55240   3.55373
 Alpha virt. eigenvalues --    3.55907   3.56195   3.56458   3.56776   3.57731
 Alpha virt. eigenvalues --    3.58051   3.58277   3.58476   3.59023   3.59436
 Alpha virt. eigenvalues --    3.59605   3.59852   3.60167   3.60386   3.61168
 Alpha virt. eigenvalues --    3.61268   3.61448   3.61847   3.62220   3.62944
 Alpha virt. eigenvalues --    3.63062   3.63512   3.63921   3.64379   3.64472
 Alpha virt. eigenvalues --    3.64852   3.65369   3.65615   3.65986   3.66214
 Alpha virt. eigenvalues --    3.66525   3.67051   3.67238   3.67667   3.68404
 Alpha virt. eigenvalues --    3.68554   3.68894   3.69182   3.69336   3.69614
 Alpha virt. eigenvalues --    3.69937   3.70662   3.71066   3.71339   3.71437
 Alpha virt. eigenvalues --    3.71877   3.72716   3.72958   3.73726   3.74260
 Alpha virt. eigenvalues --    3.74627   3.75052   3.75337   3.75819   3.76106
 Alpha virt. eigenvalues --    3.76453   3.76881   3.76928   3.77044   3.77772
 Alpha virt. eigenvalues --    3.78139   3.78356   3.78962   3.79588   3.80154
 Alpha virt. eigenvalues --    3.80391   3.80738   3.81782   3.81987   3.82258
 Alpha virt. eigenvalues --    3.82543   3.82702   3.83637   3.84207   3.84422
 Alpha virt. eigenvalues --    3.85187   3.85264   3.85941   3.86087   3.86479
 Alpha virt. eigenvalues --    3.86989   3.87276   3.87633   3.88070   3.88717
 Alpha virt. eigenvalues --    3.89034   3.89229   3.89804   3.90309   3.90546
 Alpha virt. eigenvalues --    3.91293   3.91505   3.92174   3.92437   3.93058
 Alpha virt. eigenvalues --    3.93423   3.93824   3.94067   3.95028   3.95317
 Alpha virt. eigenvalues --    3.95867   3.96491   3.97127   3.97681   3.98137
 Alpha virt. eigenvalues --    3.98312   3.98995   3.99284   3.99522   4.00112
 Alpha virt. eigenvalues --    4.01227   4.01264   4.02170   4.02348   4.02562
 Alpha virt. eigenvalues --    4.04331   4.04880   4.05152   4.05600   4.06455
 Alpha virt. eigenvalues --    4.07274   4.07796   4.07897   4.08311   4.09126
 Alpha virt. eigenvalues --    4.09354   4.10051   4.10454   4.11154   4.11611
 Alpha virt. eigenvalues --    4.11795   4.12200   4.13277   4.13397   4.13928
 Alpha virt. eigenvalues --    4.14136   4.14821   4.15147   4.15895   4.16189
 Alpha virt. eigenvalues --    4.16434   4.17118   4.17820   4.18197   4.19219
 Alpha virt. eigenvalues --    4.19370   4.19991   4.20696   4.21129   4.21706
 Alpha virt. eigenvalues --    4.22035   4.22350   4.22847   4.23913   4.24418
 Alpha virt. eigenvalues --    4.24636   4.24856   4.25178   4.25618   4.26218
 Alpha virt. eigenvalues --    4.26872   4.27199   4.27328   4.27642   4.28265
 Alpha virt. eigenvalues --    4.28498   4.28566   4.29493   4.30038   4.30152
 Alpha virt. eigenvalues --    4.30592   4.31231   4.31422   4.32559   4.32769
 Alpha virt. eigenvalues --    4.33725   4.33832   4.34228   4.34574   4.34995
 Alpha virt. eigenvalues --    4.35701   4.37148   4.37333   4.37833   4.38239
 Alpha virt. eigenvalues --    4.38598   4.39321   4.40086   4.40482   4.40657
 Alpha virt. eigenvalues --    4.41227   4.41381   4.42081   4.42624   4.42744
 Alpha virt. eigenvalues --    4.43274   4.44056   4.44245   4.44781   4.45470
 Alpha virt. eigenvalues --    4.46791   4.47232   4.47981   4.48201   4.48603
 Alpha virt. eigenvalues --    4.50358   4.50439   4.50961   4.51889   4.52588
 Alpha virt. eigenvalues --    4.52701   4.53494   4.54397   4.54652   4.55485
 Alpha virt. eigenvalues --    4.56119   4.56593   4.57252   4.57691   4.58562
 Alpha virt. eigenvalues --    4.58902   4.59448   4.59865   4.61147   4.61547
 Alpha virt. eigenvalues --    4.62015   4.62641   4.62969   4.63428   4.64137
 Alpha virt. eigenvalues --    4.64438   4.64909   4.65229   4.66978   4.67707
 Alpha virt. eigenvalues --    4.67798   4.68071   4.68401   4.68868   4.69166
 Alpha virt. eigenvalues --    4.70250   4.71292   4.71668   4.72473   4.73225
 Alpha virt. eigenvalues --    4.73820   4.74161   4.75178   4.75427   4.75820
 Alpha virt. eigenvalues --    4.77078   4.77721   4.77949   4.79022   4.79240
 Alpha virt. eigenvalues --    4.80474   4.80995   4.81272   4.82097   4.82749
 Alpha virt. eigenvalues --    4.83631   4.84002   4.84406   4.85098   4.85248
 Alpha virt. eigenvalues --    4.86401   4.87269   4.88063   4.89335   4.89835
 Alpha virt. eigenvalues --    4.90579   4.91537   4.92138   4.92844   4.93291
 Alpha virt. eigenvalues --    4.93805   4.94869   4.95799   4.96089   4.96571
 Alpha virt. eigenvalues --    4.97050   4.98783   4.99556   5.00705   5.01880
 Alpha virt. eigenvalues --    5.02769   5.03728   5.07641   5.08420   5.08794
 Alpha virt. eigenvalues --    5.10000   5.10795   5.10908   5.11325   5.12386
 Alpha virt. eigenvalues --    5.13334   5.13913   5.14995   5.15516   5.15752
 Alpha virt. eigenvalues --    5.16108   5.16439   5.16849   5.16915   5.17712
 Alpha virt. eigenvalues --    5.19250   5.20598   5.22160   5.23392   5.23880
 Alpha virt. eigenvalues --    5.24378   5.25750   5.26167   5.26576   5.27385
 Alpha virt. eigenvalues --    5.28351   5.28927   5.30407   5.31411   5.33199
 Alpha virt. eigenvalues --    5.34621   5.36702   5.37110   5.37837   5.38160
 Alpha virt. eigenvalues --    5.39141   5.40637   5.41037   5.41157   5.42342
 Alpha virt. eigenvalues --    5.43555   5.46073   5.48341   5.48875   5.50511
 Alpha virt. eigenvalues --    5.50942   5.51524   5.51737   5.52619   5.52915
 Alpha virt. eigenvalues --    5.53394   5.54235   5.55109   5.55284   5.55766
 Alpha virt. eigenvalues --    5.55873   5.58480   5.62326   5.64876   5.68501
 Alpha virt. eigenvalues --    5.69720   5.72378   5.72898   5.73649   5.74831
 Alpha virt. eigenvalues --    5.76068   5.84183   5.85720   5.87180   5.87860
 Alpha virt. eigenvalues --    5.89094   5.89156   5.89970   5.91547   5.93220
 Alpha virt. eigenvalues --    5.93741   5.98976   6.00165   6.01361   6.03011
 Alpha virt. eigenvalues --    6.03758   6.04662   6.06076   6.06898   6.08836
 Alpha virt. eigenvalues --    6.10428   6.11759   6.18333   6.20728   6.20979
 Alpha virt. eigenvalues --    6.22138   6.26647   6.26898   6.27926   6.28541
 Alpha virt. eigenvalues --    6.33965   6.36510   6.38342   6.40036   6.44326
 Alpha virt. eigenvalues --    6.45555   6.58690   6.59549   6.67603   6.69703
 Alpha virt. eigenvalues --    6.74848   6.78270   6.83908   6.87926   6.94969
 Alpha virt. eigenvalues --    7.00483   7.05016   7.07864   7.12338   7.13923
 Alpha virt. eigenvalues --    7.19118   7.26635   9.18053   9.39696   9.51666
 Alpha virt. eigenvalues --   20.02036  22.38888  22.42102  22.43072  22.44771
 Alpha virt. eigenvalues --   22.45626  22.46313  22.46591  22.47182  22.47609
 Alpha virt. eigenvalues --   22.48344  22.52457  22.54278  22.56516  22.58669
 Alpha virt. eigenvalues --   22.59423  22.63901  22.73232  22.85786  22.87044
 Alpha virt. eigenvalues --   22.88522  22.89101  22.90971  22.98707  23.01879
 Alpha virt. eigenvalues --   23.05635  23.10925  23.15705  23.20703  23.21671
 Alpha virt. eigenvalues --   23.25735  23.30845  23.34750  23.43399  23.43686
 Alpha virt. eigenvalues --   23.46078  23.50793  23.55060  23.64266  23.68745
 Alpha virt. eigenvalues --   23.70138  23.80244  32.36860  32.72935  32.87073
 Alpha virt. eigenvalues --   32.94374  33.00768  33.06599  43.87562  43.89618
 Alpha virt. eigenvalues --   43.90081  43.92670
  Beta  occ. eigenvalues -- -256.50643 -89.14757 -30.27102 -26.10111 -26.09980
  Beta  occ. eigenvalues --  -26.09232 -19.34258 -19.32513 -19.25633 -19.23689
  Beta  occ. eigenvalues --  -14.54812 -14.51065 -14.49057 -14.48787 -14.48554
  Beta  occ. eigenvalues --  -14.48491 -10.42381 -10.42018 -10.38704 -10.36095
  Beta  occ. eigenvalues --  -10.35522 -10.35321 -10.35227 -10.35199 -10.35156
  Beta  occ. eigenvalues --  -10.35099 -10.35050 -10.35026 -10.34327 -10.33692
  Beta  occ. eigenvalues --  -10.33607 -10.32536 -10.32417 -10.32262 -10.32148
  Beta  occ. eigenvalues --  -10.32099 -10.32033 -10.31985 -10.31880 -10.31767
  Beta  occ. eigenvalues --  -10.31763 -10.31734 -10.31643 -10.31604 -10.31570
  Beta  occ. eigenvalues --  -10.30832 -10.30786 -10.30686 -10.30686 -10.30534
  Beta  occ. eigenvalues --  -10.30531 -10.30251 -10.30079 -10.29803 -10.29666
  Beta  occ. eigenvalues --  -10.28238 -10.28120  -8.12522  -6.06116  -6.05871
  Beta  occ. eigenvalues --   -6.05454  -3.59421  -2.34827  -2.34632  -2.34069
  Beta  occ. eigenvalues --   -1.24974  -1.23986  -1.17173  -1.10444  -1.08840
  Beta  occ. eigenvalues --   -1.07783  -1.07707  -1.07460  -1.06689  -1.02518
  Beta  occ. eigenvalues --   -0.94979  -0.94382  -0.93203  -0.92664  -0.92308
  Beta  occ. eigenvalues --   -0.91998  -0.91476  -0.91338  -0.91190  -0.88542
  Beta  occ. eigenvalues --   -0.87931  -0.87248  -0.86699  -0.86244  -0.85985
  Beta  occ. eigenvalues --   -0.83603  -0.82683  -0.81963  -0.81450  -0.80972
  Beta  occ. eigenvalues --   -0.79342  -0.78608  -0.78100  -0.77596  -0.76261
  Beta  occ. eigenvalues --   -0.75969  -0.75359  -0.73514  -0.73268  -0.72839
  Beta  occ. eigenvalues --   -0.72650  -0.72382  -0.70733  -0.69844  -0.68493
  Beta  occ. eigenvalues --   -0.67042  -0.65833  -0.65019  -0.64968  -0.63775
  Beta  occ. eigenvalues --   -0.62550  -0.62218  -0.61730  -0.60509  -0.59978
  Beta  occ. eigenvalues --   -0.59485  -0.59292  -0.59194  -0.58615  -0.58491
  Beta  occ. eigenvalues --   -0.58283  -0.58109  -0.57806  -0.57183  -0.57128
  Beta  occ. eigenvalues --   -0.56659  -0.56520  -0.56180  -0.55642  -0.55163
  Beta  occ. eigenvalues --   -0.55072  -0.54534  -0.54452  -0.54227  -0.54000
  Beta  occ. eigenvalues --   -0.53879  -0.53742  -0.53483  -0.53193  -0.53047
  Beta  occ. eigenvalues --   -0.52543  -0.52419  -0.52247  -0.52097  -0.51772
  Beta  occ. eigenvalues --   -0.51359  -0.51168  -0.51019  -0.50803  -0.50641
  Beta  occ. eigenvalues --   -0.50289  -0.50118  -0.49831  -0.49425  -0.49227
  Beta  occ. eigenvalues --   -0.49179  -0.48738  -0.48146  -0.48010  -0.47922
  Beta  occ. eigenvalues --   -0.47759  -0.47541  -0.47443  -0.47338  -0.46821
  Beta  occ. eigenvalues --   -0.46566  -0.46485  -0.46170  -0.45967  -0.45787
  Beta  occ. eigenvalues --   -0.45410  -0.45147  -0.44824  -0.44538  -0.43819
  Beta  occ. eigenvalues --   -0.43521  -0.43351  -0.43263  -0.43062  -0.42654
  Beta  occ. eigenvalues --   -0.42485  -0.41999  -0.41730  -0.41216  -0.40744
  Beta  occ. eigenvalues --   -0.38989  -0.38489  -0.38391  -0.38122  -0.37805
  Beta  occ. eigenvalues --   -0.35977  -0.35464  -0.34803  -0.34699  -0.34366
  Beta  occ. eigenvalues --   -0.33887  -0.33198  -0.32520  -0.29962  -0.29189
  Beta virt. eigenvalues --   -0.19514  -0.17364  -0.15550  -0.14098  -0.10680
  Beta virt. eigenvalues --   -0.10534  -0.08716  -0.07895  -0.06991  -0.06712
  Beta virt. eigenvalues --   -0.06170  -0.05880  -0.05507  -0.05436  -0.05013
  Beta virt. eigenvalues --   -0.04481  -0.03935  -0.03593  -0.03206  -0.02920
  Beta virt. eigenvalues --   -0.02599  -0.02475  -0.02198  -0.01971  -0.01762
  Beta virt. eigenvalues --   -0.01187  -0.01024  -0.00767  -0.00642  -0.00509
  Beta virt. eigenvalues --   -0.00077   0.00150   0.00320   0.00549   0.01060
  Beta virt. eigenvalues --    0.01119   0.01416   0.02025   0.02264   0.02372
  Beta virt. eigenvalues --    0.02659   0.02842   0.03203   0.03249   0.03433
  Beta virt. eigenvalues --    0.03760   0.03823   0.04047   0.04274   0.04396
  Beta virt. eigenvalues --    0.04554   0.04676   0.04837   0.04900   0.05337
  Beta virt. eigenvalues --    0.05478   0.05720   0.05773   0.05921   0.06108
  Beta virt. eigenvalues --    0.06362   0.06429   0.06530   0.06683   0.06862
  Beta virt. eigenvalues --    0.07066   0.07229   0.07272   0.07651   0.07798
  Beta virt. eigenvalues --    0.08057   0.08180   0.08540   0.08597   0.08889
  Beta virt. eigenvalues --    0.08961   0.09177   0.09565   0.09751   0.10002
  Beta virt. eigenvalues --    0.10382   0.10888   0.11054   0.11151   0.11291
  Beta virt. eigenvalues --    0.11675   0.11722   0.11923   0.12032   0.12221
  Beta virt. eigenvalues --    0.12319   0.12721   0.12776   0.12947   0.13167
  Beta virt. eigenvalues --    0.13519   0.13643   0.13820   0.13868   0.14169
  Beta virt. eigenvalues --    0.14347   0.14574   0.14815   0.14927   0.15152
  Beta virt. eigenvalues --    0.15245   0.15422   0.15736   0.15994   0.16109
  Beta virt. eigenvalues --    0.16227   0.16355   0.16587   0.16756   0.17047
  Beta virt. eigenvalues --    0.17142   0.17288   0.17290   0.17476   0.17763
  Beta virt. eigenvalues --    0.17841   0.18006   0.18509   0.18732   0.18836
  Beta virt. eigenvalues --    0.19176   0.19605   0.19775   0.20029   0.20207
  Beta virt. eigenvalues --    0.20411   0.20574   0.20867   0.21162   0.21471
  Beta virt. eigenvalues --    0.21502   0.21830   0.21915   0.22114   0.22411
  Beta virt. eigenvalues --    0.22765   0.22961   0.23210   0.23274   0.23478
  Beta virt. eigenvalues --    0.23547   0.23718   0.24248   0.24568   0.24733
  Beta virt. eigenvalues --    0.25015   0.25171   0.25363   0.25578   0.25931
  Beta virt. eigenvalues --    0.26114   0.26363   0.26782   0.27235   0.27284
  Beta virt. eigenvalues --    0.27368   0.27800   0.28058   0.28120   0.28192
  Beta virt. eigenvalues --    0.28384   0.28592   0.28919   0.29230   0.29479
  Beta virt. eigenvalues --    0.29591   0.29668   0.30016   0.30427   0.30517
  Beta virt. eigenvalues --    0.30612   0.30890   0.31127   0.31308   0.31346
  Beta virt. eigenvalues --    0.31630   0.31745   0.31843   0.32037   0.32188
  Beta virt. eigenvalues --    0.32253   0.32638   0.32727   0.32914   0.33298
  Beta virt. eigenvalues --    0.33445   0.33622   0.33771   0.34024   0.34227
  Beta virt. eigenvalues --    0.34502   0.34666   0.34691   0.34833   0.35033
  Beta virt. eigenvalues --    0.35259   0.35359   0.35370   0.35715   0.35831
  Beta virt. eigenvalues --    0.36146   0.36226   0.36445   0.36679   0.36710
  Beta virt. eigenvalues --    0.37029   0.37169   0.37299   0.37477   0.37657
  Beta virt. eigenvalues --    0.37762   0.37911   0.38070   0.38155   0.38255
  Beta virt. eigenvalues --    0.38352   0.38591   0.38836   0.38912   0.38976
  Beta virt. eigenvalues --    0.39300   0.39412   0.39613   0.39692   0.39827
  Beta virt. eigenvalues --    0.39857   0.40156   0.40337   0.40432   0.40569
  Beta virt. eigenvalues --    0.40760   0.41017   0.41208   0.41299   0.41572
  Beta virt. eigenvalues --    0.41735   0.41857   0.41971   0.42109   0.42400
  Beta virt. eigenvalues --    0.42616   0.42710   0.42914   0.42949   0.43113
  Beta virt. eigenvalues --    0.43162   0.43347   0.43575   0.43817   0.44073
  Beta virt. eigenvalues --    0.44377   0.44523   0.44703   0.44805   0.44961
  Beta virt. eigenvalues --    0.45133   0.45362   0.45492   0.45792   0.45822
  Beta virt. eigenvalues --    0.46018   0.46116   0.46233   0.46460   0.46700
  Beta virt. eigenvalues --    0.46813   0.46995   0.47250   0.47600   0.47678
  Beta virt. eigenvalues --    0.47933   0.48212   0.48331   0.48540   0.48777
  Beta virt. eigenvalues --    0.48974   0.49061   0.49473   0.49688   0.49811
  Beta virt. eigenvalues --    0.49944   0.50275   0.50478   0.50632   0.50743
  Beta virt. eigenvalues --    0.50924   0.51101   0.51475   0.51773   0.52195
  Beta virt. eigenvalues --    0.52343   0.52513   0.52708   0.52824   0.52999
  Beta virt. eigenvalues --    0.53395   0.53781   0.53861   0.53994   0.54352
  Beta virt. eigenvalues --    0.54673   0.54777   0.55174   0.55346   0.55728
  Beta virt. eigenvalues --    0.56005   0.56112   0.56335   0.56673   0.57054
  Beta virt. eigenvalues --    0.57335   0.57394   0.57716   0.58130   0.58383
  Beta virt. eigenvalues --    0.58546   0.58891   0.59360   0.59500   0.59669
[...]
  1732. RY*(   4) H  82                  0.00003     2.35468   
  1733. RY*(   5) H  82                  0.00001     2.95951   
  1734. RY*(   1) H  83                  0.00037     1.59911   
  1735. RY*(   2) H  83                  0.00010     1.96617   
  1736. RY*(   3) H  83                  0.00004     2.20015   
  1737. RY*(   4) H  83                  0.00001     2.84376   
  1738. RY*(   5) H  83                  0.00001     2.05143   
  1739. RY*(   1) H  84                  0.00019     1.59020   
  1740. RY*(   2) H  84                  0.00005     1.78737   
  1741. RY*(   3) H  84                  0.00004     2.02849   
  1742. RY*(   4) H  84                  0.00003     1.10005   
  1743. RY*(   5) H  84                  0.00000     2.82233   
  1744. RY*(   1) H  85                  0.00022     1.39300   
  1745. RY*(   2) H  85                  0.00005     1.30915   
  1746. RY*(   3) H  85                  0.00006     1.77862   
  1747. RY*(   4) H  85                  0.00004     2.04127   
  1748. RY*(   5) H  85                  0.00000     2.86286   
  1749. RY*(   1) H  86                  0.00035     1.06767   
  1750. RY*(   2) H  86                  0.00007     1.92178   
  1751. RY*(   3) H  86                  0.00004     2.05185   
  1752. RY*(   4) H  86                  0.00000     2.56248   
  1753. RY*(   5) H  86                  0.00001     1.96923   
  1754. RY*(   1) H  87                  0.00033     0.92597   
  1755. RY*(   2) H  87                  0.00006     1.61346   
  1756. RY*(   3) H  87                  0.00005     2.12792   
  1757. RY*(   4) H  87                  0.00003     2.04761   
  1758. RY*(   5) H  87                  0.00000     2.96780   
  1759. RY*(   1) H  88                  0.00035     1.00084   
  1760. RY*(   2) H  88                  0.00008     1.62186   
  1761. RY*(   3) H  88                  0.00002     1.96247   
  1762. RY*(   4) H  88                  0.00003     2.05327   
  1763. RY*(   5) H  88                  0.00000     2.86541   
  1764. RY*(   1) H  89                  0.00025     1.06270   
  1765. RY*(   2) H  89                  0.00010     1.70563   
  1766. RY*(   3) H  89                  0.00003     2.12061   
  1767. RY*(   4) H  89                  0.00002     1.80562   
  1768. RY*(   5) H  89                  0.00000     2.87234   
  1769. RY*(   1) H  90                  0.00051     1.12837   
  1770. RY*(   2) H  90                  0.00009     1.90745   
  1771. RY*(   3) H  90                  0.00006     1.99481   
  1772. RY*(   4) H  90                  0.00003     2.30776   
  1773. RY*(   5) H  90                  0.00000     2.92796   
  1774. RY*(   1) H  91                  0.00042     1.57002   
  1775. RY*(   2) H  91                  0.00009     2.02856   
  1776. RY*(   3) H  91                  0.00004     2.19142   
  1777. RY*(   4) H  91                  0.00000     2.88790   
  1778. RY*(   5) H  91                  0.00001     1.96522   
  1779. RY*(   1) H  92                  0.00020     1.35720   
  1780. RY*(   2) H  92                  0.00005     1.61310   
  1781. RY*(   3) H  92                  0.00003     1.64165   
  1782. RY*(   4) H  92                  0.00004     1.98221   
  1783. RY*(   5) H  92                  0.00000     2.76974   
  1784. RY*(   1) H  93                  0.00030     1.05553   
  1785. RY*(   2) H  93                  0.00008     2.02338   
  1786. RY*(   3) H  93                  0.00005     1.44899   
  1787. RY*(   4) H  93                  0.00003     2.06363   
  1788. RY*(   5) H  93                  0.00000     2.87519   
  1789. RY*(   1) H  94                  0.00036     1.08668   
  1790. RY*(   2) H  94                  0.00006     1.85010   
  1791. RY*(   3) H  94                  0.00004     1.92646   
  1792. RY*(   4) H  94                  0.00001     1.72919   
  1793. RY*(   5) H  94                  0.00001     2.88055   
  1794. RY*(   1) H  95                  0.00032     0.92267   
  1795. RY*(   2) H  95                  0.00008     1.78187   
  1796. RY*(   3) H  95                  0.00003     1.91808   
  1797. RY*(   4) H  95                  0.00004     2.03957   
  1798. RY*(   5) H  95                  0.00000     2.94889   
  1799. RY*(   1) H  96                  0.00034     0.99963   
  1800. RY*(   2) H  96                  0.00009     1.60432   
  1801. RY*(   3) H  96                  0.00002     2.00845   
  1802. RY*(   4) H  96                  0.00003     2.10111   
  1803. RY*(   5) H  96                  0.00001     2.82313   
  1804. RY*(   1) H  97                  0.00031     1.02067   
  1805. RY*(   2) H  97                  0.00009     1.75123   
  1806. RY*(   3) H  97                  0.00003     2.08140   
  1807. RY*(   4) H  97                  0.00002     2.32880   
  1808. RY*(   5) H  97                  0.00001     2.40130   
  1809. RY*(   1) H  98                  0.00045     1.56361   
  1810. RY*(   2) H  98                  0.00009     2.64871   
  1811. RY*(   3) H  98                  0.00005     1.65283   
  1812. RY*(   4) H  98                  0.00006     2.12742   
  1813. RY*(   5) H  98                  0.00000     2.73844   
  1814. RY*(   1) H  99                  0.00055     1.52157   
  1815. RY*(   2) H  99                  0.00010     2.63995   
  1816. RY*(   3) H  99                  0.00006     1.32929   
  1817. RY*(   4) H  99                  0.00005     2.37694   
  1818. RY*(   5) H  99                  0.00000     3.01123   
  1819. RY*(   1) H 100                  0.00040     1.24802   
  1820. RY*(   2) H 100                  0.00006     1.49333   
  1821. RY*(   3) H 100                  0.00006     2.34156   
  1822. RY*(   4) H 100                  0.00001     2.69636   
  1823. RY*(   5) H 100                  0.00002     2.56086   
  1824. RY*(   1) H 101                  0.00049     0.99334   
  1825. RY*(   2) H 101                  0.00006     1.55349   
  1826. RY*(   3) H 101                  0.00005     2.45655   
  1827. RY*(   4) H 101                  0.00003     2.30663   
  1828. RY*(   5) H 101                  0.00001     3.01109   
  1829. RY*(   1) H 102                  0.00044     1.61352   
  1830. RY*(   2) H 102                  0.00033     1.02002   
  1831. RY*(   3) H 102                  0.00021     1.93934   
  1832. RY*(   4) H 102                  0.00013     2.08170   
  1833. RY*(   5) H 102                  0.00000     3.24756   
  1834. RY*(   1) H 103                  0.00076     0.88565   
  1835. RY*(   2) H 103                  0.00030     2.06873   
  1836. RY*(   3) H 103                  0.00024     1.73151   
  1837. RY*(   4) H 103                  0.00010     2.07517   
  1838. RY*(   5) H 103                  0.00000     3.09980   
  1853. BD*(   1) C   7 - C   8          0.00375     0.25701   
  1854. BD*(   1) C   7 - H  60          0.00331     0.31914   
  1855. BD*(   1) C   7 - H  61          0.00346     0.31953   
  1856. BD*(   1) C   7 - H  62          0.00443     0.33981   
  1857. BD*(   1) C   8 - S   9          0.01730     0.06113   
  1858. BD*(   1) C   8 - H  63          0.00959     0.30709   
  1859. BD*(   1) C   8 - H  64          0.00700     0.28451   
  1860. BD*(   1) S   9 - C  10          0.00935     0.06888   
  1861. BD*(   1) S   9 -Fe  11          0.04602     0.17844   
  1862. BD*(   1) C  10 - H  65          0.00354     0.30632   
  1863. BD*(   1) C  10 - H  66          0.00651     0.29697   
  1864. BD*(   1) C  10 - H  67          0.00566     0.29612   
  1865. BD*(   1)Fe  11 - N  16          0.03867     0.27766   
  1866. BD*(   1)Fe  11 - N  27          0.03646     0.27402   
  1867. BD*(   1)Fe  11 - N  35          0.03599     0.26999   
  1868. BD*(   1)Fe  11 - N  43          0.03859     0.29235   
  1869. BD*(   1) C  12 - C  17          0.01021     0.48898   
  1870. BD*(   2) C  12 - C  17          0.20109    -0.05222  1889(v),203(v),1874(r)
                                                    497(g),631(g)
  1871. BD*(   1) C  12 - C  47          0.01098     0.47600   
  1872. BD*(   1) C  12 - H  68          0.00718     0.35075   
  1873. BD*(   1) C  13 - C  20          0.01012     0.49319   
  1874. BD*(   2) C  13 - C  20          0.19520    -0.05034  1907(v),1889(v),1870(r)
                                                    709(g),1882(r),1878(r)
                                                    707(g),523(g)
  1875. BD*(   1) C  13 - C  28          0.01033     0.49540   
  1876. BD*(   1) C  13 - H  69          0.00752     0.35118   
  1877. BD*(   1) C  14 - C  31          0.01091     0.47320   
  1878. BD*(   2) C  14 - C  31          0.20906    -0.05694  1925(v),1911(v),1907(v)
                                                    995(g),549(g),1882(r)
                                                    1874(r),550(g)
  1879. BD*(   1) C  14 - C  36          0.01028     0.48392   
  1880. BD*(   1) C  14 - H  70          0.00745     0.35426   
  1881. BD*(   1) C  15 - C  39          0.01055     0.49654   
  1882. BD*(   2) C  15 - C  39          0.19237    -0.04981  1943(v),1929(v),1925(v)
                                                    575(g),1203(g),1874(r)
                                                    1878(r)
  1883. BD*(   1) C  15 - C  44          0.01063     0.49920   
  1884. BD*(   1) C  15 - H  71          0.00787     0.35071   
  1885. BD*(   1) N  16 - C  17          0.01382     0.39628   
  1886. BD*(   1) N  16 - C  20          0.01461     0.38150   
  1887. BD*(   1) C  17 - C  18          0.01738     0.38665   
  1888. BD*(   1) C  18 - C  19          0.00971     0.54602   
  1889. BD*(   2) C  18 - C  19          0.11055    -0.01798  1874(v),1870(v),1896(v)
                                                    1894(v),1895(v)
  1890. BD*(   1) C  18 - C  22          0.01218     0.29150   
  1891. BD*(   1) C  19 - C  20          0.01685     0.39191   
  1892. BD*(   1) C  19 - C  21          0.00904     0.29053   
  1893. BD*(   1) C  21 - H  72          0.00237     0.33077   
  1894. BD*(   1) C  21 - H  73          0.00413     0.32780   
  1895. BD*(   1) C  21 - H  74          0.00313     0.32752   
  1896. BD*(   1) C  22 - C  23          0.00868     0.27879   
  1897. BD*(   1) C  22 - H  75          0.00515     0.32858   
  1898. BD*(   1) C  22 - H  76          0.00691     0.32435   
  1899. BD*(   1) C  23 - C  24          0.03365     0.26868   
  1900. BD*(   1) C  23 - H  77          0.00577     0.31164   
  1901. BD*(   1) C  23 - H  78          0.00442     0.32092   
  1902. BD*(   1) C  24 - O  25          0.03618     0.37502   
  1903. BD*(   2) C  24 - O  25          0.10532    -0.00491  1902(g),1905(v),1900(v)
                                                    818(g),1896(v)
  1904. BD*(   1) C  24 - O  26          0.03364     0.45330   
  1905. BD*(   1) O  26 - H 103          0.00796     0.31328   
  1906. BD*(   1) N  27 - C  28          0.01538     0.37152   
  1907. BD*(   2) N  27 - C  28          0.33610    -0.10465  1874(v),1911(v),1878(v)
                                                    197(v),915(g),888(g)
  1908. BD*(   1) N  27 - C  31          0.01412     0.38893   
  1909. BD*(   1) C  28 - C  29          0.01661     0.39518   
  1910. BD*(   1) C  29 - C  30          0.01080     0.52132   
  1911. BD*(   2) C  29 - C  30          0.12024    -0.02460  1878(v),1907(v),1918(v)
                                                    1917(v),1919(v)
  1912. BD*(   1) C  29 - C  32          0.00865     0.28788   
  1913. BD*(   1) C  30 - C  31          0.01634     0.41038   
  1914. BD*(   1) C  30 - C  33          0.01162     0.30540   
  1915. BD*(   1) C  32 - H  79          0.00244     0.33156   
  1916. BD*(   1) C  32 - H  80          0.00289     0.32351   
  1917. BD*(   1) C  32 - H  81          0.00443     0.32357   
  1918. BD*(   1) C  33 - C  34          0.00398     0.27237   
  1919. BD*(   1) C  33 - H  82          0.00570     0.31610   
  1920. BD*(   1) C  33 - H  83          0.00480     0.32110   
  1921. BD*(   1) C  34 - H  84          0.00246     0.33927   
  1922. BD*(   1) C  34 - H  85          0.00215     0.33628   
  1923. BD*(   1) C  34 - H  86          0.00290     0.33583   
  1924. BD*(   1) N  35 - C  36          0.01404     0.38786   
  1925. BD*(   2) N  35 - C  36          0.32177    -0.10133  1878(v),1929(v),1882(v)
                                                    197(v),1123(g),1096(g)
                                                    1099(g),1849(r)
  1926. BD*(   1) N  35 - C  39          0.01483     0.38067   
  1927. BD*(   1) C  36 - C  37          0.01761     0.37107   
  1928. BD*(   1) C  37 - C  38          0.01006     0.54250   
  1929. BD*(   2) C  37 - C  38          0.10953    -0.02018  1882(v),1925(v),1936(v)
                                                    1934(v),1937(v)
  1930. BD*(   1) C  37 - C  40          0.00893     0.27004   
  1931. BD*(   1) C  38 - C  39          0.01629     0.39227   
  1932. BD*(   1) C  38 - C  41          0.01257     0.29139   
  1933. BD*(   1) C  40 - H  87          0.00272     0.33529   
  1934. BD*(   1) C  40 - H  88          0.00392     0.32333   
  1935. BD*(   1) C  40 - H  89          0.00283     0.32234   
  1936. BD*(   1) C  41 - C  42          0.00400     0.27121   
  1937. BD*(   1) C  41 - H  90          0.00628     0.31562   
  1938. BD*(   1) C  41 - H  91          0.00554     0.31932   
  1939. BD*(   1) C  42 - H  92          0.00293     0.33993   
  1940. BD*(   1) C  42 - H  93          0.00331     0.33472   
  1941. BD*(   1) C  42 - H  94          0.00349     0.33397   
  1942. BD*(   1) N  43 - C  44          0.01606     0.35881   
  1943. BD*(   2) N  43 - C  44          0.34096    -0.11035  1882(v),1947(v),203(v)
                                                    197(v),1331(g),196(v)
                                                    1304(g),1856(r)
  1944. BD*(   1) N  43 - C  47          0.01439     0.37111   
  1945. BD*(   1) C  44 - C  45          0.01624     0.39349   
  1946. BD*(   1) C  45 - C  46          0.01014     0.51828   
  1947. BD*(   2) C  45 - C  46          0.12157    -0.02996  1943(v),203(v),1954(v)
                                                    1952(v),1953(v)
  1948. BD*(   1) C  45 - C  48          0.00907     0.27432   
  1949. BD*(   1) C  46 - C  47          0.01669     0.39182   
  1950. BD*(   1) C  46 - C  49          0.01198     0.28834   
  1951. BD*(   1) C  48 - H  95          0.00229     0.31994   
  1952. BD*(   1) C  48 - H  96          0.00412     0.31828   
  1953. BD*(   1) C  48 - H  97          0.00330     0.31867   
  1954. BD*(   1) C  49 - C  50          0.00725     0.24698   
  1955. BD*(   1) C  49 - H  98          0.00629     0.31521   
  1956. BD*(   1) C  49 - H  99          0.00621     0.32347   
  1957. BD*(   1) C  50 - C  51          0.03880     0.28204   
  1958. BD*(   1) C  50 - H 100          0.00501     0.31318   
  1959. BD*(   1) C  50 - H 101          0.00572     0.31329   
  1960. BD*(   1) C  51 - O  52          0.02217     0.47489   
  1961. BD*(   2) C  51 - O  52          0.08739    -0.05710   
  1962. BD*(   1) C  51 - O  53          0.03604     0.43256   
  1963. BD*(   1) O  53 - H 102          0.00695     0.30146   
       -------------------------------
              Total Lewis  178.99237  ( 97.7140%)
        Valence non-Lewis    3.84247  (  2.0976%)
        Rydberg non-Lewis    0.34505  (  0.1884%)
       -------------------------------
            Total unit  2  183.17989  (100.0000%)
           Charge unit  2    0.82011
 1\1\GINC-NODE482\SP\UPBE1PBE\def2TZVP\C41H50Fe1N6O4S1(1+,2)\KLEICH\06-
 Sep-2022\0\\# PBE1PBE/def2TZVP empiricaldispersion=GD3BJ int=(grid=ult
 rafine) geom=check pop=nbo\\1ctj_III_D\\1,2\C,0,17.385,43.116,-18.171\
 C,0,16.646,44.283,-17.629\N,0,17.192,45.153,-16.726\C,0,15.354,44.655,
 -17.762\C,0,16.223,46.009,-16.352\N,0,15.105,45.741,-16.934\C,0,11.228
 ,50.126,-17.291\C,0,10.692,48.716,-17.503\S,0,11.192,47.599,-16.165\C,
 0,9.859,46.393,-16.206\Fe,0,13.258,46.586,-16.683\C,0,14.112,48.106,-1
 3.777\C,0,12.342,43.796,-14.983\C,0,12.062,45.238,-19.575\C,0,14.539,4
 9.179,-18.442\N,0,13.269,46.034,-14.737\C,0,13.692,46.802,-13.682\C,0,
 13.546,46.034,-12.457\C,0,13.036,44.844,-12.789\C,0,12.842,44.823,-14.
 225\C,0,12.674,43.689,-11.857\C,0,14.032,46.507,-11.078\C,0,15.559,46.
 477,-10.964\C,0,16.109,47.3,-9.807\O,0,17.303,47.008,-9.454\O,0,15.414
 ,48.196,-9.329\N,0,12.373,44.867,-17.193\C,0,12.092,43.817,-16.329\C,0
 ,11.458,42.747,-17.065\C,0,11.319,43.178,-18.339\C,0,11.877,44.496,-18
 .421\C,0,11.118,41.373,-16.491\C,0,10.705,42.45,-19.528\C,0,9.207,42.1
 54,-19.34\N,0,13.301,47.115,-18.61\C,0,12.79,46.403,-19.667\C,0,13.156
 ,47.044,-20.932\C,0,13.92,48.097,-20.624\C,0,13.987,48.168,-19.179\C,0
 ,12.755,46.497,-22.32\C,0,14.747,49.003,-21.545\C,0,13.915,49.773,-22.
 585\N,0,14.091,48.302,-16.212\C,0,14.53,49.3,-17.081\C,0,14.947,50.46,
 -16.332\C,0,14.756,50.189,-15.024\C,0,14.305,48.819,-14.945\C,0,15.368
 ,51.794,-16.965\C,0,14.943,51.157,-13.855\C,0,13.661,51.997,-13.611\C,
 0,13.865,53.009,-12.515\O,0,14.074,52.625,-11.351\O,0,13.718,54.197,-1
 2.862\H,0,17.58804681,43.27348459,-19.20968696\H,0,18.30719827,43.0002
 5896,-17.6408544\H,0,16.79265016,42.23272905,-18.05329656\H,0,18.13828
 841,45.15312787,-16.40267629\H,0,14.63681319,44.18698821,-18.40348892\
 H,0,16.36341726,46.8114914,-15.65832101\H,0,11.17812751,50.66872246,-1
 8.21179589\H,0,10.63763839,50.62444342,-16.55077887\H,0,12.24474083,50
 .07527162,-16.9615084\H,0,11.15969794,48.34762147,-18.39207587\H,0,9.6
 2580296,48.78911841,-17.45029742\H,0,10.14001742,45.53129306,-15.63732
 579\H,0,9.66920482,46.10545759,-17.21901389\H,0,8.97452668,46.82457433
 ,-15.78605888\H,0,14.30862979,48.61907374,-12.85885401\H,0,12.1244658,
 42.88294577,-14.46927745\H,0,11.60078485,44.87594842,-20.47004148\H,0,
 15.02955358,49.95714664,-18.9885757\H,0,12.50518782,42.80417847,-12.43
 448879\H,0,11.78600637,43.9346192,-11.31290579\H,0,13.4772518,43.51921
 094,-11.1708089\H,0,13.66546159,45.79258497,-10.37077955\H,0,13.746443
 03,47.53500383,-10.99697323\H,0,15.92701028,46.94302578,-11.85410584\H
 ,0,15.81523066,45.46108477,-10.74683164\H,0,10.38304623,40.90038838,-1
 7.1085607\H,0,10.73146261,41.48628266,-15.49970999\H,0,12.00130869,40.
 76979158,-16.46262126\H,0,11.19095593,41.49786943,-19.57484249\H,0,10.
 77138306,43.12579409,-20.35491937\H,0,8.65935996,42.54257751,-20.17306
 536\H,0,9.05758506,41.0963582,-19.277\H,0,8.86221801,42.61720064,-18.4
 391834\H,0,12.96412465,47.23339021,-23.0675937\H,0,13.31379432,45.6085
 9605,-22.52829625\H,0,11.70933841,46.27014788,-22.32547351\H,0,15.3791
 9241,48.34722466,-22.10641914\H,0,15.17851579,49.74753713,-20.90910804
 \H,0,14.46884204,50.62228183,-22.92687624\H,0,13.69776571,49.13176613,
 -23.41357008\H,0,12.99971915,50.10050287,-22.13789505\H,0,15.41269502,
 52.54938278,-16.2084954\H,0,16.33125485,51.68553259,-17.41807274\H,0,1
 4.65343743,52.07672516,-17.70955814\H,0,15.7043967,51.84720662,-14.152
 97631\H,0,15.07973135,50.55369181,-12.98194573\H,0,12.91693527,51.3147
 7247,-13.25627012\H,0,13.49117691,52.55481909,-14.50816106\H,0,14.4869
 676,54.74865685,-13.02313209\H,0,15.82900403,48.9597727,-8.9215409\\Ve
 rsion=ES64L-G16RevA.03\State=2-A\HF=-3881.7160231\S2=0.843557\S2-1=0.\
 S2A=0.751701\RMSD=1.077e-09\Dipole=0.0698632,-0.5601803,-3.0566557\Qua
 drupole=-9.3790975,25.4463993,-16.0673019,12.3525211,-8.8885958,1.8392
 051\PG=C01 [X(C41H50Fe1N6O4S1)]\\@


 YOU CAN WIPE THE SLATE CLEAN, BUT YOU'LL STILL
 HAVE TO EAT A LITTLE CHALK DUST.
 Job cpu time:       6 days 22 hours 15 minutes 15.0 seconds.
 Elapsed time:       1 days 17 hours 43 minutes  1.3 seconds.
 File lengths (MBytes):  RWF=   3538 Int=      0 D2E=      0 Chk=    310 Scr=      1
 Normal termination of Gaussian 16 at Tue Sep  6 14:28:00 2022.
