 Entering Gaussian System, Link 0=g16
 Input=/net/work/kleich/bench/splitthejobs/1ctj/1ctj05/1ctj05.com
 Output=/net/work/kleich/bench/splitthejobs/1ctj/1ctj05/1ctj05.log
 Initial command:
 /afs/math/software/gaussian/g16.A03/g16/l1.exe "/scratch/kleich_gaussian.i45exPr/Gau-30645.inp" -scrdir="/scratch/kleich_gaussian.i45exPr/"
 Entering Link 1 = /afs/math/software/gaussian/g16.A03/g16/l1.exe PID=     30646.
  
 Copyright (c) 1988,1990,1992,1993,1995,1998,2003,2009,2016,
            Gaussian, Inc.  All Rights Reserved.
  
 This is part of the Gaussian(R) 16 program.  It is based on
 the Gaussian(R) 09 system (copyright 2009, Gaussian, Inc.),
 the Gaussian(R) 03 system (copyright 2003, Gaussian, Inc.),
 the Gaussian(R) 98 system (copyright 1998, Gaussian, Inc.),
 the Gaussian(R) 94 system (copyright 1995, Gaussian, Inc.),
 the Gaussian 92(TM) system (copyright 1992, Gaussian, Inc.),
 the Gaussian 90(TM) system (copyright 1990, Gaussian, Inc.),
 the Gaussian 88(TM) system (copyright 1988, Gaussian, Inc.),
 the Gaussian 86(TM) system (copyright 1986, Carnegie Mellon
 University), and the Gaussian 82(TM) system (copyright 1983,
 Carnegie Mellon University). Gaussian is a federally registered
 trademark of Gaussian, Inc.
  
 This software contains proprietary and confidential information,
 including trade secrets, belonging to Gaussian, Inc.
  
 This software is provided under written license and may be
 used, copied, transmitted, or stored only in accord with that
 written license.
  
 The following legend is applicable only to US Government
 contracts under FAR:
  
                    RESTRICTED RIGHTS LEGEND
  
 Use, reproduction and disclosure by the US Government is
 subject to restrictions as set forth in subparagraphs (a)
 and (c) of the Commercial Computer Software - Restricted
 Rights clause in FAR 52.227-19.
  
 Gaussian, Inc.
 340 Quinnipiac St., Bldg. 40, Wallingford CT 06492
  
  
 ---------------------------------------------------------------
 Warning -- This program may not be used in any manner that
 competes with the business of Gaussian, Inc. or will provide
 assistance to any competitor of Gaussian, Inc.  The licensee
 of this program is prohibited from giving any competitor of
 Gaussian, Inc. access to this program.  By using this program,
 the user acknowledges that Gaussian, Inc. is engaged in the
 business of creating and licensing software in the field of
 computational chemistry and represents and warrants to the
 licensee that it is not a competitor of Gaussian, Inc. and that
 it will not use this program in any manner prohibited above.
 ---------------------------------------------------------------
  

 Cite this work as:
 Gaussian 16, Revision A.03,
 M. J. Frisch, G. W. Trucks, H. B. Schlegel, G. E. Scuseria, 
 M. A. Robb, J. R. Cheeseman, G. Scalmani, V. Barone, 
 G. A. Petersson, H. Nakatsuji, X. Li, M. Caricato, A. V. Marenich, 
 J. Bloino, B. G. Janesko, R. Gomperts, B. Mennucci, H. P. Hratchian, 
 J. V. Ortiz, A. F. Izmaylov, J. L. Sonnenberg, D. Williams-Young, 
 F. Ding, F. Lipparini, F. Egidi, J. Goings, B. Peng, A. Petrone, 
 T. Henderson, D. Ranasinghe, V. G. Zakrzewski, J. Gao, N. Rega, 
 G. Zheng, W. Liang, M. Hada, M. Ehara, K. Toyota, R. Fukuda, 
 J. Hasegawa, M. Ishida, T. Nakajima, Y. Honda, O. Kitao, H. Nakai, 
 T. Vreven, K. Throssell, J. A. Montgomery, Jr., J. E. Peralta, 
 F. Ogliaro, M. J. Bearpark, J. J. Heyd, E. N. Brothers, K. N. Kudin, 
 V. N. Staroverov, T. A. Keith, R. Kobayashi, J. Normand, 
 K. Raghavachari, A. P. Rendell, J. C. Burant, S. S. Iyengar, 
 J. Tomasi, M. Cossi, J. M. Millam, M. Klene, C. Adamo, R. Cammi, 
 J. W. Ochterski, R. L. Martin, K. Morokuma, O. Farkas, 
 J. B. Foresman, and D. J. Fox, Gaussian, Inc., Wallingford CT, 2016.
 
 ******************************************
 Gaussian 16:  ES64L-G16RevA.03 25-Dec-2016
                 4-Sep-2022 
 ******************************************
 %nprocs=12
 Will use up to   12 processors via shared memory.
 %mem=16GB
 %oldchk=1ctj_II_S.chk
 %chk=1ctj_II_Q.chk
 Copying data from "1ctj_II_S.chk" to current chk file "1ctj_II_Q.chk"
 IOpt=  2 FromEx=T IUOpen= 4 IOptOp= 5 NList=   0 IFRang= 0 IUIn= 4 IUOut= 2.
 ----------------------------------------------------------------------
 # PBE1PBE/def2TZVP empiricaldispersion=GD3BJ int=(grid=ultrafine) geom
 =check pop=nbo
 ----------------------------------------------------------------------
 1/29=2,38=1,172=1/1;
 2/12=2,40=1/2;
 3/5=44,7=101,11=2,14=-4,25=1,30=1,74=-13,75=-5,124=41/1,2,3;
 4//1;
 5/5=2,38=5/2;
 6/7=2,8=2,9=2,10=2,28=1,40=1/1,7;
 99/5=1,9=1/99;
 ---------
 1ctj_II_Q
 ---------
 Structure from the checkpoint file:  "1ctj_II_Q.chk"
 Charge =  0 Multiplicity = 5
 Z-Matrix found in chk file.
 C,0,17.385,43.116,-18.171
 C,0,16.646,44.283,-17.629
 N,0,17.192,45.153,-16.726
 C,0,15.354,44.655,-17.762
 C,0,16.223,46.009,-16.352
 N,0,15.105,45.741,-16.934
 C,0,11.228,50.126,-17.291
 C,0,10.692,48.716,-17.503
 S,0,11.192,47.599,-16.165
 C,0,9.859,46.393,-16.206
 Fe,0,13.258,46.586,-16.683
 C,0,14.112,48.106,-13.777
 C,0,12.342,43.796,-14.983
 C,0,12.062,45.238,-19.575
 C,0,14.539,49.179,-18.442
 N,0,13.269,46.034,-14.737
 C,0,13.692,46.802,-13.682
 C,0,13.546,46.034,-12.457
 C,0,13.036,44.844,-12.789
 C,0,12.842,44.823,-14.225
 C,0,12.674,43.689,-11.857
 C,0,14.032,46.507,-11.078
 C,0,15.559,46.477,-10.964
 C,0,16.109,47.3,-9.807
 O,0,17.303,47.008,-9.454
 O,0,15.414,48.196,-9.329
 N,0,12.373,44.867,-17.193
 C,0,12.092,43.817,-16.329
 C,0,11.458,42.747,-17.065
 C,0,11.319,43.178,-18.339
 C,0,11.877,44.496,-18.421
 C,0,11.118,41.373,-16.491
 C,0,10.705,42.45,-19.528
 C,0,9.207,42.154,-19.34
 N,0,13.301,47.115,-18.61
 C,0,12.79,46.403,-19.667
 C,0,13.156,47.044,-20.932
 C,0,13.92,48.097,-20.624
 C,0,13.987,48.168,-19.179
 C,0,12.755,46.497,-22.32
 C,0,14.747,49.003,-21.545
 C,0,13.915,49.773,-22.585
 N,0,14.091,48.302,-16.212
 C,0,14.53,49.3,-17.081
 C,0,14.947,50.46,-16.332
 C,0,14.756,50.189,-15.024
 C,0,14.305,48.819,-14.945
 C,0,15.368,51.794,-16.965
 C,0,14.943,51.157,-13.855
 C,0,13.661,51.997,-13.611
 C,0,13.865,53.009,-12.515
 O,0,14.074,52.625,-11.351
 O,0,13.718,54.197,-12.862
 H,0,17.58804681,43.27348459,-19.20968696
 H,0,18.30719827,43.00025896,-17.6408544
 H,0,16.79265016,42.23272905,-18.05329656
 H,0,18.13828841,45.15312787,-16.40267629
 H,0,14.63681319,44.18698821,-18.40348892
 H,0,16.36341726,46.8114914,-15.65832101
 H,0,11.17812751,50.66872246,-18.21179589
 H,0,10.63763839,50.62444342,-16.55077887
 H,0,12.24474083,50.07527162,-16.9615084
 H,0,11.15969794,48.34762147,-18.39207587
 H,0,9.62580296,48.78911841,-17.45029742
 H,0,10.14001742,45.53129306,-15.63732579
 H,0,9.66920482,46.10545759,-17.21901389
 H,0,8.97452668,46.82457433,-15.78605888
 H,0,14.30862979,48.61907374,-12.85885401
 H,0,12.1244658,42.88294577,-14.46927745
 H,0,11.60078485,44.87594842,-20.47004148
 H,0,15.02955358,49.95714664,-18.9885757
 H,0,12.50518782,42.80417847,-12.43448879
 H,0,11.78600637,43.9346192,-11.31290579
 H,0,13.4772518,43.51921094,-11.1708089
 H,0,13.66546159,45.79258497,-10.37077955
 H,0,13.74644303,47.53500383,-10.99697323
 H,0,15.92701028,46.94302578,-11.85410584
 H,0,15.81523066,45.46108477,-10.74683164
 H,0,10.38304623,40.90038838,-17.1085607
 H,0,10.73146261,41.48628266,-15.49970999
 H,0,12.00130869,40.76979158,-16.46262126
 H,0,11.19095593,41.49786943,-19.57484249
 H,0,10.77138306,43.12579409,-20.35491937
 H,0,8.65935996,42.54257751,-20.17306536
 H,0,9.05758506,41.0963582,-19.277
 H,0,8.86221801,42.61720064,-18.4391834
 H,0,12.96412465,47.23339021,-23.0675937
 H,0,13.31379432,45.60859605,-22.52829625
 H,0,11.70933841,46.27014788,-22.32547351
 H,0,15.37919241,48.34722466,-22.10641914
 H,0,15.17851579,49.74753713,-20.90910804
 H,0,14.46884204,50.62228183,-22.92687624
 H,0,13.69776571,49.13176613,-23.41357008
 H,0,12.99971915,50.10050287,-22.13789505
 H,0,15.41269502,52.54938278,-16.2084954
 H,0,16.33125485,51.68553259,-17.41807274
 H,0,14.65343743,52.07672516,-17.70955814
 H,0,15.7043967,51.84720662,-14.15297631
 H,0,15.07973135,50.55369181,-12.98194573
 H,0,12.91693527,51.31477247,-13.25627012
 H,0,13.49117691,52.55481909,-14.50816106
 H,0,14.4869676,54.74865685,-13.02313209
 H,0,15.82900403,48.9597727,-8.9215409
 Recover connectivity data from disk.
 Stoichiometry    C41H50FeN6O4S(5)
 Framework group  C1[X(C41H50FeN6O4S)]
 Deg. of freedom   303
 Full point group                 C1      NOp   1
 Largest Abelian subgroup         C1      NOp   1
 Largest concise Abelian subgroup C1      NOp   1
                         Standard orientation:                         
 ---------------------------------------------------------------------
 Center     Atomic      Atomic             Coordinates (Angstroms)
 Number     Number       Type             X           Y           Z
 ---------------------------------------------------------------------
      1          6           0        2.732842   -1.806351    4.866406
      2          6           0        1.865983   -1.204270    3.823416
      3          7           0        0.532504   -0.966886    4.012910
      4          6           0        2.111084   -0.907844    2.528273
      5          6           0        0.027008   -0.539774    2.840893
      6          7           0        0.929825   -0.502531    1.922195
      7          6           0       -0.116658    3.046120   -2.627393
      8          6           0        0.947675    1.974047   -2.822824
      9         16           0        0.339272    0.330616   -2.357081
     10          6           0        1.365063   -0.723098   -3.391704
     11         26           0        0.758187   -0.072001   -0.071199
     12          6           0       -2.613036   -0.417539   -0.074510
     13          6           0        1.123113   -3.386568   -0.698599
     14          6           0        4.115420    0.384435   -0.434289
     15          6           0        0.450783    3.138183    0.957836
     16          7           0       -0.513403   -1.628607   -0.298750
     17          6           0       -1.882390   -1.569231   -0.234513
     18          6           0       -2.418047   -2.904268   -0.440699
     19          6           0       -1.381717   -3.725970   -0.633701
     20          6           0       -0.165795   -2.941041   -0.558905
     21          6           0       -1.418561   -5.226516   -0.917778
     22          6           0       -3.906093   -3.266769   -0.314700
     23          6           0       -4.380155   -3.256343    1.141591
     24          6           0       -5.893673   -3.201405    1.298829
     25          8           0       -6.332790   -3.563402    2.444099
     26          8           0       -6.575646   -2.782577    0.364046
     27          7           0        2.318344   -1.251409   -0.487365
     28          6           0        2.258856   -2.621892   -0.702296
     29          6           0        3.588049   -3.123950   -0.966370
     30          6           0        4.417690   -2.056341   -0.958302
     31          6           0        3.633096   -0.891520   -0.670524
     32          6           0        3.950299   -4.599677   -1.121154
     33          6           0        5.922820   -2.019324   -1.190498
     34          6           0        6.320954   -2.466809   -2.607612
     35          7           0        2.012715    1.458471    0.209569
     36          6           0        3.376325    1.440448    0.049702
     37          6           0        3.954638    2.708308    0.500422
     38          6           0        2.944580    3.447766    0.969842
     39          6           0        1.727827    2.690476    0.761084
     40          6           0        5.467311    3.020727    0.472745
     41          6           0        2.984404    4.768057    1.749747
     42          6           0        3.625533    5.935881    0.980419
     43          7           0       -0.755453    1.123677    0.302477
     44          6           0       -0.705369    2.464634    0.680910
     45          6           0       -2.036514    3.019017    0.715602
     46          6           0       -2.892932    2.041892    0.351511
     47          6           0       -2.106039    0.843079    0.177757
     48          6           0       -2.351093    4.500680    0.966999
     49          6           0       -4.398912    2.185330    0.127897
     50          6           0       -4.709694    2.652631   -1.319067
     51          6           0       -6.184974    2.874719   -1.522047
     52          8           0       -6.969615    1.912679   -1.452403
     53          8           0       -6.503094    4.037156   -1.839699
     54          1           0        3.430387   -1.074434    5.216587
     55          1           0        2.128023   -2.141943    5.682784
     56          1           0        3.265209   -2.636840    4.451950
     57          1           0        0.025647   -1.088438    4.866327
     58          1           0        3.064081   -0.974839    2.046394
     59          1           0       -0.996301   -0.265517    2.690821
     60          1           0        0.346116    4.010834   -2.619210
     61          1           0       -0.824059    2.996666   -3.428666
     62          1           0       -0.619659    2.883926   -1.697026
     63          1           0        1.737156    2.206715   -2.139095
     64          1           0        1.144452    1.934518   -3.873831
     65          1           0        1.295553   -1.734738   -3.050159
     66          1           0        2.382497   -0.396696   -3.335226
     67          1           0        1.027574   -0.664912   -4.405418
     68          1           0       -3.676628   -0.504542   -0.152633
     69          1           0        1.255329   -4.441737   -0.817077
     70          1           0        5.148722    0.565008   -0.645430
     71          1           0        0.345872    4.119091    1.372217
     72          1           0       -0.437189   -5.636136   -0.799370
     73          1           0       -1.755458   -5.391645   -1.919842
     74          1           0       -2.088842   -5.702786   -0.233095
     75          1           0       -3.996734   -4.278421   -0.651219
     76          1           0       -4.446478   -2.487589   -0.810444
     77          1           0       -4.010079   -2.344703    1.562134
     78          1           0       -4.078231   -4.196723    1.553208
     79          1           0        4.891163   -4.685186   -1.623512
     80          1           0        3.193920   -5.094432   -1.693873
     81          1           0        4.019585   -5.053212   -0.154507
     82          1           0        6.342858   -2.742533   -0.523089
     83          1           0        6.208642   -0.991057   -1.113865
     84          1           0        6.925558   -1.710915   -3.063657
     85          1           0        6.874951   -3.380454   -2.550680
     86          1           0        5.439249   -2.620279   -3.194079
     87          1           0        5.619725    4.063043    0.660484
     88          1           0        5.964015    2.446198    1.226470
     89          1           0        5.865910    2.769328   -0.487889
     90          1           0        3.621335    4.589643    2.590811
     91          1           0        1.962566    5.046547    1.902026
     92          1           0        3.301553    6.863158    1.404791
     93          1           0        4.691054    5.865512    1.048344
     94          1           0        3.329912    5.891216   -0.046963
     95          1           0       -3.374719    4.694367    0.722919
     96          1           0       -2.180337    4.731653    1.997724
     97          1           0       -1.717449    5.108563    0.355548
     98          1           0       -4.727262    2.970682    0.776209
     99          1           0       -4.813582    1.203650    0.224081
    100          1           0       -4.435744    1.842757   -1.962461
    101          1           0       -4.242686    3.608491   -1.433678
    102          1           0       -6.869299    4.631627   -1.180839
    103          1           0       -7.419879   -2.359755    0.537515
 ---------------------------------------------------------------------
 Rotational constants (GHZ):           0.0649040           0.0437769           0.0340286
 Standard basis: def2TZVP (5D, 7F)
 There are  2230 symmetry adapted cartesian basis functions of A   symmetry.
 There are  1963 symmetry adapted basis functions of A   symmetry.
  1963 basis functions,  3172 primitive gaussians,  2230 cartesian basis functions
   208 alpha electrons      204 beta electrons
       nuclear repulsion energy      9034.5792672667 Hartrees.
 NAtoms=  103 NActive=  103 NUniq=  103 SFac= 1.00D+00 NAtFMM=   60 NAOKFM=T Big=T
 Integral buffers will be    131072 words long.
 Raffenetti 2 integral format.
 Two-electron integral symmetry is turned on.
 Nuclear repulsion after empirical dispersion term =     9034.4274506152 Hartrees.
 One-electron integrals computed using PRISM.
   1 Symmetry operations used in ECPInt.
 ECPInt:  NShTT=  311655 NPrTT=  958403 LenC2=  228098 LenP2D=  454103.
 LDataN:  DoStor=T MaxTD1= 6 Len=  172
 NBasis=  1963 RedAO= T EigKep=  2.80D-06  NBF=  1963
 NBsUse=  1963 1.00D-06 EigRej= -1.00D+00 NBFU=  1963
 ExpMin= 4.20D-02 ExpMax= 3.01D+05 ExpMxC= 2.91D+03 IAcc=3 IRadAn=         5 AccDes= 0.00D+00
 Harris functional with IExCor= 1009 and IRadAn=       5 diagonalized for initial guess.
 HarFok:  IExCor= 1009 AccDes= 0.00D+00 IRadAn=         5 IDoV= 1 UseB2=F ITyADJ=14
 ICtDFT=  3500011 ScaDFX=  1.000000  1.000000  1.000000  1.000000
 FoFCou: FMM=F IPFlag=           0 FMFlag=      100000 FMFlg1=        2001
         NFxFlg=           0 DoJE=T BraDBF=F KetDBF=T FulRan=T
         wScrn=  0.000000 ICntrl=       500 IOpCl=  0 I1Cent=   200000004 NGrid=           0
         NMat0=    1 NMatS0=      1 NMatT0=    0 NMatD0=    1 NMtDS0=    0 NMtDT0=    0
 Petite list used in FoFCou.
 Initial guess <Sx>= 0.0000 <Sy>= 0.0000 <Sz>= 2.0000 <S**2>= 6.0000 S= 2.0000
 Requested convergence on RMS density matrix=1.00D-08 within 128 cycles.
 Requested convergence on MAX density matrix=1.00D-06.
 Requested convergence on             energy=1.00D-06.
 No special actions if energy rises.
 EnCoef did     5 forward-backward iterations
 EnCoef did   100 forward-backward iterations
 EnCoef did     8 forward-backward iterations
 EnCoef did    16 forward-backward iterations
 EnCoef did     6 forward-backward iterations
 EnCoef did   100 forward-backward iterations
 Restarting incremental Fock formation.
 Restarting incremental Fock formation.
 SCF Done:  E(UPBE1PBE) =  -3881.87326083     A.U. after   56 cycles
            NFock= 56  Conv=0.14D-08     -V/T= 2.0027
 <Sx>= 0.0000 <Sy>= 0.0000 <Sz>= 2.0000 <S**2>= 6.2069 S= 2.0410
 <L.S>= 0.000000000000E+00
 Annihilation of the first spin contaminant:
 S**2 before annihilation     6.2069,   after     6.0019
 Hyperfine terms turned off by default for NAtoms > 100.

 **********************************************************************

            Population analysis using the SCF density.

 **********************************************************************

 Orbital symmetries:
 Alpha Orbitals:
       Occupied  (A) (A) (A) (A) (A) (A) (A) (A) (A) (A) (A) (A)
                 (A) (A) (A) (A) (A) (A) (A) (A) (A) (A) (A) (A)
                 (A) (A) (A) (A) (A) (A) (A) (A) (A) (A) (A) (A)
                 (A) (A) (A) (A) (A) (A) (A) (A) (A) (A) (A) (A)
                 (A) (A) (A) (A) (A) (A) (A) (A) (A) (A) (A) (A)
                 (A) (A) (A) (A) (A) (A) (A) (A) (A) (A) (A) (A)
                 (A) (A) (A) (A) (A) (A) (A) (A) (A) (A) (A) (A)
                 (A) (A) (A) (A) (A) (A) (A) (A) (A) (A) (A) (A)
                 (A) (A) (A) (A) (A) (A) (A) (A) (A) (A) (A) (A)
                 (A) (A) (A) (A) (A) (A) (A) (A) (A) (A) (A) (A)
                 (A) (A) (A) (A) (A) (A) (A) (A) (A) (A) (A) (A)
                 (A) (A) (A) (A) (A) (A) (A) (A) (A) (A) (A) (A)
                 (A) (A) (A) (A) (A) (A) (A) (A) (A) (A) (A) (A)
                 (A) (A) (A) (A) (A) (A) (A) (A) (A) (A) (A) (A)
                 (A) (A) (A) (A) (A) (A) (A) (A) (A) (A) (A) (A)
                 (A) (A) (A) (A) (A) (A) (A) (A) (A) (A) (A) (A)
                 (A) (A) (A) (A) (A) (A) (A) (A) (A) (A) (A) (A)
                 (A) (A) (A) (A)
       Virtual   (A) (A) (A) (A) (A) (A) (A) (A) (A) (A) (A) (A)
                 (A) (A) (A) (A) (A) (A) (A) (A) (A) (A) (A) (A)
                 (A) (A) (A) (A) (A) (A) (A) (A) (A) (A) (A) (A)
                 (A) (A) (A) (A) (A) (A) (A) (A) (A) (A) (A) (A)
                 (A) (A) (A) (A) (A) (A) (A) (A) (A) (A) (A) (A)
                 (A) (A) (A) (A) (A) (A) (A) (A) (A) (A) (A) (A)
                 (A) (A) (A) (A) (A) (A) (A) (A) (A) (A) (A) (A)
                 (A) (A) (A) (A) (A) (A) (A) (A) (A) (A) (A) (A)
                 (A) (A) (A) (A) (A) (A) (A) (A) (A) (A) (A) (A)
                 (A) (A) (A) (A) (A) (A) (A) (A) (A) (A) (A) (A)
                 (A) (A) (A) (A) (A) (A) (A) (A) (A) (A) (A) (A)
                 (A) (A) (A) (A) (A) (A) (A) (A) (A) (A) (A) (A)
                 (A) (A) (A) (A) (A) (A) (A) (A) (A) (A) (A) (A)
                 (A) (A) (A) (A) (A) (A) (A) (A) (A) (A) (A) (A)
                 (A) (A) (A) (A) (A) (A) (A) (A) (A) (A) (A) (A)
                 (A) (A) (A) (A) (A) (A) (A) (A) (A) (A) (A) (A)
                 (A) (A) (A) (A) (A) (A) (A) (A) (A) (A) (A) (A)
                 (A) (A) (A) (A) (A) (A) (A) (A) (A) (A) (A) (A)
                 (A) (A) (A) (A) (A) (A) (A) (A) (A) (A) (A) (A)
                 (A) (A) (A) (A) (A) (A) (A) (A) (A) (A) (A) (A)
                 (A) (A) (A) (A) (A) (A) (A) (A) (A) (A) (A) (A)
                 (A) (A) (A) (A) (A) (A) (A) (A) (A) (A) (A) (A)
                 (A) (A) (A) (A) (A) (A) (A) (A) (A) (A) (A) (A)
                 (A) (A) (A) (A) (A) (A) (A) (A) (A) (A) (A) (A)
                 (A) (A) (A) (A) (A) (A) (A) (A) (A) (A) (A) (A)
                 (A) (A) (A) (A) (A) (A) (A) (A) (A) (A) (A) (A)
                 (A) (A) (A) (A) (A) (A) (A) (A) (A) (A) (A) (A)
                 (A) (A) (A) (A) (A) (A) (A) (A) (A) (A) (A) (A)
                 (A) (A) (A) (A) (A) (A) (A) (A) (A) (A) (A) (A)
                 (A) (A) (A) (A) (A) (A) (A) (A) (A) (A) (A) (A)
                 (A) (A) (A) (A) (A) (A) (A) (A) (A) (A) (A) (A)
                 (A) (A) (A) (A) (A) (A) (A) (A) (A) (A) (A) (A)
                 (A) (A) (A) (A) (A) (A) (A) (A) (A) (A) (A) (A)
                 (A) (A) (A) (A) (A) (A) (A) (A) (A) (A) (A) (A)
                 (A) (A) (A) (A) (A) (A) (A) (A) (A) (A) (A) (A)
                 (A) (A) (A) (A) (A) (A) (A) (A) (A) (A) (A) (A)
                 (A) (A) (A) (A) (A) (A) (A) (A) (A) (A) (A) (A)
                 (A) (A) (A) (A) (A) (A) (A) (A) (A) (A) (A) (A)
                 (A) (A) (A) (A) (A) (A) (A) (A) (A) (A) (A) (A)
                 (A) (A) (A) (A) (A) (A) (A) (A) (A) (A) (A) (A)
                 (A) (A) (A) (A) (A) (A) (A) (A) (A) (A) (A) (A)
                 (A) (A) (A) (A) (A) (A) (A) (A) (A) (A) (A) (A)
                 (A) (A) (A) (A) (A) (A) (A) (A) (A) (A) (A) (A)
                 (A) (A) (A) (A) (A) (A) (A) (A) (A) (A) (A) (A)
                 (A) (A) (A) (A) (A) (A) (A) (A) (A) (A) (A) (A)
                 (A) (A) (A) (A) (A) (A) (A) (A) (A) (A) (A) (A)
                 (A) (A) (A) (A) (A) (A) (A) (A) (A) (A) (A) (A)
                 (A) (A) (A) (A) (A) (A) (A) (A) (A) (A) (A) (A)
                 (A) (A) (A) (A) (A) (A) (A) (A) (A) (A) (A) (A)
                 (A) (A) (A) (A) (A) (A) (A) (A) (A) (A) (A) (A)
                 (A) (A) (A) (A) (A) (A) (A) (A) (A) (A) (A) (A)
                 (A) (A) (A) (A) (A) (A) (A) (A) (A) (A) (A) (A)
                 (A) (A) (A) (A) (A) (A) (A) (A) (A) (A) (A) (A)
                 (A) (A) (A) (A) (A) (A) (A) (A) (A) (A) (A) (A)
                 (A) (A) (A) (A) (A) (A) (A) (A) (A) (A) (A) (A)
                 (A) (A) (A) (A) (A) (A) (A) (A) (A) (A) (A) (A)
                 (A) (A) (A) (A) (A) (A) (A) (A) (A) (A) (A) (A)
                 (A) (A) (A) (A) (A) (A) (A) (A) (A) (A) (A) (A)
                 (A) (A) (A) (A) (A) (A) (A) (A) (A) (A) (A) (A)
                 (A) (A) (A) (A) (A) (A) (A) (A) (A) (A) (A) (A)
                 (A) (A) (A) (A) (A) (A) (A) (A) (A) (A) (A) (A)
                 (A) (A) (A) (A) (A) (A) (A) (A) (A) (A) (A) (A)
                 (A) (A) (A) (A) (A) (A) (A) (A) (A) (A) (A) (A)
                 (A) (A) (A) (A) (A) (A) (A) (A) (A) (A) (A) (A)
                 (A) (A) (A) (A) (A) (A) (A) (A) (A) (A) (A) (A)
                 (A) (A) (A) (A) (A) (A) (A) (A) (A) (A) (A) (A)
                 (A) (A) (A) (A) (A) (A) (A) (A) (A) (A) (A) (A)
                 (A) (A) (A) (A) (A) (A) (A) (A) (A) (A) (A) (A)
                 (A) (A) (A) (A) (A) (A) (A) (A) (A) (A) (A) (A)
                 (A) (A) (A) (A) (A) (A) (A) (A) (A) (A) (A) (A)
                 (A) (A) (A) (A) (A) (A) (A) (A) (A) (A) (A) (A)
                 (A) (A) (A) (A) (A) (A) (A) (A) (A) (A) (A) (A)
                 (A) (A) (A) (A) (A) (A) (A) (A) (A) (A) (A) (A)
                 (A) (A) (A) (A) (A) (A) (A) (A) (A) (A) (A) (A)
                 (A) (A) (A) (A) (A) (A) (A) (A) (A) (A) (A) (A)
                 (A) (A) (A) (A) (A) (A) (A) (A) (A) (A) (A) (A)
                 (A) (A) (A) (A) (A) (A) (A) (A) (A) (A) (A) (A)
                 (A) (A) (A) (A) (A) (A) (A) (A) (A) (A) (A) (A)
                 (A) (A) (A) (A) (A) (A) (A) (A) (A) (A) (A) (A)
                 (A) (A) (A) (A) (A) (A) (A) (A) (A) (A) (A) (A)
                 (A) (A) (A) (A) (A) (A) (A) (A) (A) (A) (A) (A)
                 (A) (A) (A) (A) (A) (A) (A) (A) (A) (A) (A) (A)
                 (A) (A) (A) (A) (A) (A) (A) (A) (A) (A) (A) (A)
                 (A) (A) (A) (A) (A) (A) (A) (A) (A) (A) (A) (A)
                 (A) (A) (A) (A) (A) (A) (A) (A) (A) (A) (A) (A)
                 (A) (A) (A) (A) (A) (A) (A) (A) (A) (A) (A) (A)
                 (A) (A) (A) (A) (A) (A) (A) (A) (A) (A) (A) (A)
                 (A) (A) (A) (A) (A) (A) (A) (A) (A) (A) (A) (A)
                 (A) (A) (A) (A) (A) (A) (A) (A) (A) (A) (A) (A)
                 (A) (A) (A) (A) (A) (A) (A) (A) (A) (A) (A) (A)
                 (A) (A) (A) (A) (A) (A) (A) (A) (A) (A) (A) (A)
                 (A) (A) (A) (A) (A) (A) (A) (A) (A) (A) (A) (A)
                 (A) (A) (A) (A) (A) (A) (A) (A) (A) (A) (A) (A)
                 (A) (A) (A) (A) (A) (A) (A) (A) (A) (A) (A) (A)
                 (A) (A) (A) (A) (A) (A) (A) (A) (A) (A) (A) (A)
                 (A) (A) (A) (A) (A) (A) (A) (A) (A) (A) (A) (A)
                 (A) (A) (A) (A) (A) (A) (A) (A) (A) (A) (A) (A)
                 (A) (A) (A) (A) (A) (A) (A) (A) (A) (A) (A) (A)
                 (A) (A) (A) (A) (A) (A) (A) (A) (A) (A) (A) (A)
                 (A) (A) (A) (A) (A) (A) (A) (A) (A) (A) (A) (A)
                 (A) (A) (A) (A) (A) (A) (A) (A) (A) (A) (A) (A)
                 (A) (A) (A) (A) (A) (A) (A) (A) (A) (A) (A) (A)
                 (A) (A) (A) (A) (A) (A) (A) (A) (A) (A) (A) (A)
                 (A) (A) (A) (A) (A) (A) (A) (A) (A) (A) (A) (A)
                 (A) (A) (A) (A) (A) (A) (A) (A) (A) (A) (A) (A)
                 (A) (A) (A) (A) (A) (A) (A) (A) (A) (A) (A) (A)
                 (A) (A) (A) (A) (A) (A) (A) (A) (A) (A) (A) (A)
                 (A) (A) (A) (A) (A) (A) (A) (A) (A) (A) (A) (A)
                 (A) (A) (A) (A) (A) (A) (A) (A) (A) (A) (A) (A)
                 (A) (A) (A) (A) (A) (A) (A) (A) (A) (A) (A) (A)
                 (A) (A) (A) (A) (A) (A) (A) (A) (A) (A) (A) (A)
                 (A) (A) (A) (A) (A) (A) (A) (A) (A) (A) (A) (A)
                 (A) (A) (A) (A) (A) (A) (A) (A) (A) (A) (A) (A)
                 (A) (A) (A) (A) (A) (A) (A) (A) (A) (A) (A) (A)
                 (A) (A) (A) (A) (A) (A) (A) (A) (A) (A) (A) (A)
                 (A) (A) (A) (A) (A) (A) (A) (A) (A) (A) (A) (A)
                 (A) (A) (A) (A) (A) (A) (A) (A) (A) (A) (A) (A)
                 (A) (A) (A) (A) (A) (A) (A) (A) (A) (A) (A) (A)
                 (A) (A) (A) (A) (A) (A) (A) (A) (A) (A) (A) (A)
                 (A) (A) (A) (A) (A) (A) (A) (A) (A) (A) (A) (A)
                 (A) (A) (A) (A) (A) (A) (A) (A) (A) (A) (A) (A)
                 (A) (A) (A) (A) (A) (A) (A) (A) (A) (A) (A) (A)
                 (A) (A) (A) (A) (A) (A) (A) (A) (A) (A) (A) (A)
                 (A) (A) (A) (A) (A) (A) (A) (A) (A) (A) (A) (A)
                 (A) (A) (A) (A) (A) (A) (A) (A) (A) (A) (A) (A)
                 (A) (A) (A) (A) (A) (A) (A) (A) (A) (A) (A) (A)
                 (A) (A) (A) (A) (A) (A) (A) (A) (A) (A) (A) (A)
                 (A) (A) (A) (A) (A) (A) (A) (A) (A) (A) (A) (A)
                 (A) (A) (A) (A) (A) (A) (A) (A) (A) (A) (A) (A)
                 (A) (A) (A) (A) (A) (A) (A) (A) (A) (A) (A) (A)
                 (A) (A) (A) (A) (A) (A) (A) (A) (A) (A) (A) (A)
                 (A) (A) (A) (A) (A) (A) (A) (A) (A) (A) (A) (A)
                 (A) (A) (A) (A) (A) (A) (A) (A) (A) (A) (A) (A)
                 (A) (A) (A) (A) (A) (A) (A) (A) (A) (A) (A) (A)
                 (A) (A) (A) (A) (A) (A) (A) (A) (A) (A) (A) (A)
                 (A) (A) (A) (A) (A) (A) (A) (A) (A) (A) (A) (A)
                 (A) (A) (A) (A) (A) (A) (A) (A) (A) (A) (A) (A)
                 (A) (A) (A) (A) (A) (A) (A) (A) (A) (A) (A) (A)
                 (A) (A) (A) (A) (A) (A) (A) (A) (A) (A) (A) (A)
                 (A) (A) (A) (A) (A) (A) (A) (A) (A) (A) (A) (A)
                 (A) (A) (A) (A) (A) (A) (A) (A) (A) (A) (A) (A)
                 (A) (A) (A) (A) (A) (A) (A) (A) (A) (A) (A) (A)
                 (A) (A) (A) (A) (A) (A) (A) (A) (A) (A) (A) (A)
                 (A) (A) (A) (A) (A) (A) (A) (A) (A) (A) (A) (A)
                 (A) (A) (A) (A) (A) (A) (A) (A) (A) (A) (A) (A)
                 (A) (A) (A) (A) (A) (A) (A) (A) (A) (A) (A) (A)
                 (A) (A) (A)
 Beta  Orbitals:
       Occupied  (A) (A) (A) (A) (A) (A) (A) (A) (A) (A) (A) (A)
                 (A) (A) (A) (A) (A) (A) (A) (A) (A) (A) (A) (A)
                 (A) (A) (A) (A) (A) (A) (A) (A) (A) (A) (A) (A)
                 (A) (A) (A) (A) (A) (A) (A) (A) (A) (A) (A) (A)
                 (A) (A) (A) (A) (A) (A) (A) (A) (A) (A) (A) (A)
                 (A) (A) (A) (A) (A) (A) (A) (A) (A) (A) (A) (A)
                 (A) (A) (A) (A) (A) (A) (A) (A) (A) (A) (A) (A)
                 (A) (A) (A) (A) (A) (A) (A) (A) (A) (A) (A) (A)
                 (A) (A) (A) (A) (A) (A) (A) (A) (A) (A) (A) (A)
                 (A) (A) (A) (A) (A) (A) (A) (A) (A) (A) (A) (A)
                 (A) (A) (A) (A) (A) (A) (A) (A) (A) (A) (A) (A)
                 (A) (A) (A) (A) (A) (A) (A) (A) (A) (A) (A) (A)
                 (A) (A) (A) (A) (A) (A) (A) (A) (A) (A) (A) (A)
                 (A) (A) (A) (A) (A) (A) (A) (A) (A) (A) (A) (A)
                 (A) (A) (A) (A) (A) (A) (A) (A) (A) (A) (A) (A)
                 (A) (A) (A) (A) (A) (A) (A) (A) (A) (A) (A) (A)
                 (A) (A) (A) (A) (A) (A) (A) (A) (A) (A) (A) (A)
       Virtual   (A) (A) (A) (A) (A) (A) (A) (A) (A) (A) (A) (A)
                 (A) (A) (A) (A) (A) (A) (A) (A) (A) (A) (A) (A)
                 (A) (A) (A) (A) (A) (A) (A) (A) (A) (A) (A) (A)
                 (A) (A) (A) (A) (A) (A) (A) (A) (A) (A) (A) (A)
                 (A) (A) (A) (A) (A) (A) (A) (A) (A) (A) (A) (A)
                 (A) (A) (A) (A) (A) (A) (A) (A) (A) (A) (A) (A)
                 (A) (A) (A) (A) (A) (A) (A) (A) (A) (A) (A) (A)
                 (A) (A) (A) (A) (A) (A) (A) (A) (A) (A) (A) (A)
                 (A) (A) (A) (A) (A) (A) (A) (A) (A) (A) (A) (A)
                 (A) (A) (A) (A) (A) (A) (A) (A) (A) (A) (A) (A)
                 (A) (A) (A) (A) (A) (A) (A) (A) (A) (A) (A) (A)
                 (A) (A) (A) (A) (A) (A) (A) (A) (A) (A) (A) (A)
                 (A) (A) (A) (A) (A) (A) (A) (A) (A) (A) (A) (A)
                 (A) (A) (A) (A) (A) (A) (A) (A) (A) (A) (A) (A)
                 (A) (A) (A) (A) (A) (A) (A) (A) (A) (A) (A) (A)
                 (A) (A) (A) (A) (A) (A) (A) (A) (A) (A) (A) (A)
                 (A) (A) (A) (A) (A) (A) (A) (A) (A) (A) (A) (A)
                 (A) (A) (A) (A) (A) (A) (A) (A) (A) (A) (A) (A)
                 (A) (A) (A) (A) (A) (A) (A) (A) (A) (A) (A) (A)
                 (A) (A) (A) (A) (A) (A) (A) (A) (A) (A) (A) (A)
                 (A) (A) (A) (A) (A) (A) (A) (A) (A) (A) (A) (A)
                 (A) (A) (A) (A) (A) (A) (A) (A) (A) (A) (A) (A)
                 (A) (A) (A) (A) (A) (A) (A) (A) (A) (A) (A) (A)
                 (A) (A) (A) (A) (A) (A) (A) (A) (A) (A) (A) (A)
                 (A) (A) (A) (A) (A) (A) (A) (A) (A) (A) (A) (A)
                 (A) (A) (A) (A) (A) (A) (A) (A) (A) (A) (A) (A)
                 (A) (A) (A) (A) (A) (A) (A) (A) (A) (A) (A) (A)
                 (A) (A) (A) (A) (A) (A) (A) (A) (A) (A) (A) (A)
                 (A) (A) (A) (A) (A) (A) (A) (A) (A) (A) (A) (A)
                 (A) (A) (A) (A) (A) (A) (A) (A) (A) (A) (A) (A)
                 (A) (A) (A) (A) (A) (A) (A) (A) (A) (A) (A) (A)
                 (A) (A) (A) (A) (A) (A) (A) (A) (A) (A) (A) (A)
                 (A) (A) (A) (A) (A) (A) (A) (A) (A) (A) (A) (A)
                 (A) (A) (A) (A) (A) (A) (A) (A) (A) (A) (A) (A)
                 (A) (A) (A) (A) (A) (A) (A) (A) (A) (A) (A) (A)
                 (A) (A) (A) (A) (A) (A) (A) (A) (A) (A) (A) (A)
                 (A) (A) (A) (A) (A) (A) (A) (A) (A) (A) (A) (A)
                 (A) (A) (A) (A) (A) (A) (A) (A) (A) (A) (A) (A)
                 (A) (A) (A) (A) (A) (A) (A) (A) (A) (A) (A) (A)
                 (A) (A) (A) (A) (A) (A) (A) (A) (A) (A) (A) (A)
                 (A) (A) (A) (A) (A) (A) (A) (A) (A) (A) (A) (A)
                 (A) (A) (A) (A) (A) (A) (A) (A) (A) (A) (A) (A)
                 (A) (A) (A) (A) (A) (A) (A) (A) (A) (A) (A) (A)
                 (A) (A) (A) (A) (A) (A) (A) (A) (A) (A) (A) (A)
                 (A) (A) (A) (A) (A) (A) (A) (A) (A) (A) (A) (A)
                 (A) (A) (A) (A) (A) (A) (A) (A) (A) (A) (A) (A)
                 (A) (A) (A) (A) (A) (A) (A) (A) (A) (A) (A) (A)
                 (A) (A) (A) (A) (A) (A) (A) (A) (A) (A) (A) (A)
                 (A) (A) (A) (A) (A) (A) (A) (A) (A) (A) (A) (A)
                 (A) (A) (A) (A) (A) (A) (A) (A) (A) (A) (A) (A)
                 (A) (A) (A) (A) (A) (A) (A) (A) (A) (A) (A) (A)
                 (A) (A) (A) (A) (A) (A) (A) (A) (A) (A) (A) (A)
                 (A) (A) (A) (A) (A) (A) (A) (A) (A) (A) (A) (A)
                 (A) (A) (A) (A) (A) (A) (A) (A) (A) (A) (A) (A)
                 (A) (A) (A) (A) (A) (A) (A) (A) (A) (A) (A) (A)
                 (A) (A) (A) (A) (A) (A) (A) (A) (A) (A) (A) (A)
                 (A) (A) (A) (A) (A) (A) (A) (A) (A) (A) (A) (A)
                 (A) (A) (A) (A) (A) (A) (A) (A) (A) (A) (A) (A)
                 (A) (A) (A) (A) (A) (A) (A) (A) (A) (A) (A) (A)
                 (A) (A) (A) (A) (A) (A) (A) (A) (A) (A) (A) (A)
                 (A) (A) (A) (A) (A) (A) (A) (A) (A) (A) (A) (A)
                 (A) (A) (A) (A) (A) (A) (A) (A) (A) (A) (A) (A)
                 (A) (A) (A) (A) (A) (A) (A) (A) (A) (A) (A) (A)
                 (A) (A) (A) (A) (A) (A) (A) (A) (A) (A) (A) (A)
                 (A) (A) (A) (A) (A) (A) (A) (A) (A) (A) (A) (A)
                 (A) (A) (A) (A) (A) (A) (A) (A) (A) (A) (A) (A)
                 (A) (A) (A) (A) (A) (A) (A) (A) (A) (A) (A) (A)
                 (A) (A) (A) (A) (A) (A) (A) (A) (A) (A) (A) (A)
                 (A) (A) (A) (A) (A) (A) (A) (A) (A) (A) (A) (A)
                 (A) (A) (A) (A) (A) (A) (A) (A) (A) (A) (A) (A)
                 (A) (A) (A) (A) (A) (A) (A) (A) (A) (A) (A) (A)
                 (A) (A) (A) (A) (A) (A) (A) (A) (A) (A) (A) (A)
                 (A) (A) (A) (A) (A) (A) (A) (A) (A) (A) (A) (A)
                 (A) (A) (A) (A) (A) (A) (A) (A) (A) (A) (A) (A)
                 (A) (A) (A) (A) (A) (A) (A) (A) (A) (A) (A) (A)
                 (A) (A) (A) (A) (A) (A) (A) (A) (A) (A) (A) (A)
                 (A) (A) (A) (A) (A) (A) (A) (A) (A) (A) (A) (A)
                 (A) (A) (A) (A) (A) (A) (A) (A) (A) (A) (A) (A)
                 (A) (A) (A) (A) (A) (A) (A) (A) (A) (A) (A) (A)
                 (A) (A) (A) (A) (A) (A) (A) (A) (A) (A) (A) (A)
                 (A) (A) (A) (A) (A) (A) (A) (A) (A) (A) (A) (A)
                 (A) (A) (A) (A) (A) (A) (A) (A) (A) (A) (A) (A)
                 (A) (A) (A) (A) (A) (A) (A) (A) (A) (A) (A) (A)
                 (A) (A) (A) (A) (A) (A) (A) (A) (A) (A) (A) (A)
                 (A) (A) (A) (A) (A) (A) (A) (A) (A) (A) (A) (A)
                 (A) (A) (A) (A) (A) (A) (A) (A) (A) (A) (A) (A)
                 (A) (A) (A) (A) (A) (A) (A) (A) (A) (A) (A) (A)
                 (A) (A) (A) (A) (A) (A) (A) (A) (A) (A) (A) (A)
                 (A) (A) (A) (A) (A) (A) (A) (A) (A) (A) (A) (A)
                 (A) (A) (A) (A) (A) (A) (A) (A) (A) (A) (A) (A)
                 (A) (A) (A) (A) (A) (A) (A) (A) (A) (A) (A) (A)
                 (A) (A) (A) (A) (A) (A) (A) (A) (A) (A) (A) (A)
                 (A) (A) (A) (A) (A) (A) (A) (A) (A) (A) (A) (A)
                 (A) (A) (A) (A) (A) (A) (A) (A) (A) (A) (A) (A)
                 (A) (A) (A) (A) (A) (A) (A) (A) (A) (A) (A) (A)
                 (A) (A) (A) (A) (A) (A) (A) (A) (A) (A) (A) (A)
                 (A) (A) (A) (A) (A) (A) (A) (A) (A) (A) (A) (A)
                 (A) (A) (A) (A) (A) (A) (A) (A) (A) (A) (A) (A)
                 (A) (A) (A) (A) (A) (A) (A) (A) (A) (A) (A) (A)
                 (A) (A) (A) (A) (A) (A) (A) (A) (A) (A) (A) (A)
                 (A) (A) (A) (A) (A) (A) (A) (A) (A) (A) (A) (A)
                 (A) (A) (A) (A) (A) (A) (A) (A) (A) (A) (A) (A)
                 (A) (A) (A) (A) (A) (A) (A) (A) (A) (A) (A) (A)
                 (A) (A) (A) (A) (A) (A) (A) (A) (A) (A) (A) (A)
                 (A) (A) (A) (A) (A) (A) (A) (A) (A) (A) (A) (A)
                 (A) (A) (A) (A) (A) (A) (A) (A) (A) (A) (A) (A)
                 (A) (A) (A) (A) (A) (A) (A) (A) (A) (A) (A) (A)
                 (A) (A) (A) (A) (A) (A) (A) (A) (A) (A) (A) (A)
                 (A) (A) (A) (A) (A) (A) (A) (A) (A) (A) (A) (A)
                 (A) (A) (A) (A) (A) (A) (A) (A) (A) (A) (A) (A)
                 (A) (A) (A) (A) (A) (A) (A) (A) (A) (A) (A) (A)
                 (A) (A) (A) (A) (A) (A) (A) (A) (A) (A) (A) (A)
                 (A) (A) (A) (A) (A) (A) (A) (A) (A) (A) (A) (A)
                 (A) (A) (A) (A) (A) (A) (A) (A) (A) (A) (A) (A)
                 (A) (A) (A) (A) (A) (A) (A) (A) (A) (A) (A) (A)
                 (A) (A) (A) (A) (A) (A) (A) (A) (A) (A) (A) (A)
                 (A) (A) (A) (A) (A) (A) (A) (A) (A) (A) (A) (A)
                 (A) (A) (A) (A) (A) (A) (A) (A) (A) (A) (A) (A)
                 (A) (A) (A) (A) (A) (A) (A) (A) (A) (A) (A) (A)
                 (A) (A) (A) (A) (A) (A) (A) (A) (A) (A) (A) (A)
                 (A) (A) (A) (A) (A) (A) (A) (A) (A) (A) (A) (A)
                 (A) (A) (A) (A) (A) (A) (A) (A) (A) (A) (A) (A)
                 (A) (A) (A) (A) (A) (A) (A) (A) (A) (A) (A) (A)
                 (A) (A) (A) (A) (A) (A) (A) (A) (A) (A) (A) (A)
                 (A) (A) (A) (A) (A) (A) (A) (A) (A) (A) (A) (A)
                 (A) (A) (A) (A) (A) (A) (A) (A) (A) (A) (A) (A)
                 (A) (A) (A) (A) (A) (A) (A) (A) (A) (A) (A) (A)
                 (A) (A) (A) (A) (A) (A) (A) (A) (A) (A) (A) (A)
                 (A) (A) (A) (A) (A) (A) (A) (A) (A) (A) (A) (A)
                 (A) (A) (A) (A) (A) (A) (A) (A) (A) (A) (A) (A)
                 (A) (A) (A) (A) (A) (A) (A) (A) (A) (A) (A) (A)
                 (A) (A) (A) (A) (A) (A) (A) (A) (A) (A) (A) (A)
                 (A) (A) (A) (A) (A) (A) (A) (A) (A) (A) (A) (A)
                 (A) (A) (A) (A) (A) (A) (A) (A) (A) (A) (A) (A)
                 (A) (A) (A) (A) (A) (A) (A) (A) (A) (A) (A) (A)
                 (A) (A) (A) (A) (A) (A) (A) (A) (A) (A) (A) (A)
                 (A) (A) (A) (A) (A) (A) (A) (A) (A) (A) (A) (A)
                 (A) (A) (A) (A) (A) (A) (A) (A) (A) (A) (A) (A)
                 (A) (A) (A) (A) (A) (A) (A) (A) (A) (A) (A) (A)
                 (A) (A) (A) (A) (A) (A) (A) (A) (A) (A) (A) (A)
                 (A) (A) (A) (A) (A) (A) (A) (A) (A) (A) (A) (A)
                 (A) (A) (A) (A) (A) (A) (A) (A) (A) (A) (A) (A)
                 (A) (A) (A) (A) (A) (A) (A) (A) (A) (A) (A) (A)
                 (A) (A) (A) (A) (A) (A) (A) (A) (A) (A) (A) (A)
                 (A) (A) (A) (A) (A) (A) (A) (A) (A) (A) (A) (A)
                 (A) (A) (A) (A) (A) (A) (A) (A) (A) (A) (A) (A)
                 (A) (A) (A) (A) (A) (A) (A)
 The electronic state is 5-A.
 Alpha  occ. eigenvalues -- -256.32245 -89.00262 -30.13589 -25.96656 -25.94861
 Alpha  occ. eigenvalues --  -25.94689 -19.27249 -19.25669 -19.18456 -19.16622
 Alpha  occ. eigenvalues --  -14.44165 -14.37824 -14.35926 -14.35649 -14.35308
 Alpha  occ. eigenvalues --  -14.35300 -10.35068 -10.34773 -10.27241 -10.25598
 Alpha  occ. eigenvalues --  -10.24094 -10.23978 -10.23903 -10.23850 -10.23686
 Alpha  occ. eigenvalues --  -10.23446 -10.23236 -10.23222 -10.23205 -10.22823
 Alpha  occ. eigenvalues --  -10.22725 -10.22701 -10.22444 -10.22347 -10.21992
 Alpha  occ. eigenvalues --  -10.21924 -10.21800 -10.21783 -10.21753 -10.21689
 Alpha  occ. eigenvalues --  -10.21665 -10.21478 -10.21209 -10.21200 -10.21131
 Alpha  occ. eigenvalues --  -10.21122 -10.21103 -10.21040 -10.21013 -10.21009
 Alpha  occ. eigenvalues --  -10.20907 -10.20731 -10.20647 -10.20645 -10.20107
 Alpha  occ. eigenvalues --  -10.19881 -10.19270  -7.98239  -5.91878  -5.91586
 Alpha  occ. eigenvalues --   -5.91079  -3.56487  -2.35458  -2.31504  -2.31258
 Alpha  occ. eigenvalues --   -1.17938  -1.17069  -1.06096  -1.03323  -1.00429
 Alpha  occ. eigenvalues --   -0.97246  -0.96201  -0.96131  -0.95121  -0.91249
 Alpha  occ. eigenvalues --   -0.83793  -0.83372  -0.82955  -0.82732  -0.82245
 Alpha  occ. eigenvalues --   -0.82017  -0.81183  -0.80675  -0.80410  -0.79028
 Alpha  occ. eigenvalues --   -0.78428  -0.77218  -0.76577  -0.75832  -0.75132
 Alpha  occ. eigenvalues --   -0.73894  -0.72788  -0.72628  -0.71936  -0.71263
 Alpha  occ. eigenvalues --   -0.70218  -0.69739  -0.68980  -0.66247  -0.66013
 Alpha  occ. eigenvalues --   -0.65584  -0.64836  -0.64551  -0.64495  -0.63549
 Alpha  occ. eigenvalues --   -0.63338  -0.61738  -0.59190  -0.59034  -0.57322
 Alpha  occ. eigenvalues --   -0.56443  -0.55601  -0.54615  -0.54530  -0.53538
 Alpha  occ. eigenvalues --   -0.52876  -0.52300  -0.51708  -0.51611  -0.50885
 Alpha  occ. eigenvalues --   -0.50536  -0.50297  -0.49728  -0.49118  -0.48807
 Alpha  occ. eigenvalues --   -0.48668  -0.48143  -0.48058  -0.48006  -0.47872
 Alpha  occ. eigenvalues --   -0.47529  -0.47374  -0.46693  -0.46174  -0.45357
 Alpha  occ. eigenvalues --   -0.44952  -0.44666  -0.44373  -0.44219  -0.43927
 Alpha  occ. eigenvalues --   -0.43730  -0.43552  -0.43414  -0.43183  -0.43118
 Alpha  occ. eigenvalues --   -0.43011  -0.42878  -0.42770  -0.42425  -0.42314
 Alpha  occ. eigenvalues --   -0.42173  -0.41913  -0.41566  -0.41183  -0.40661
 Alpha  occ. eigenvalues --   -0.40362  -0.40062  -0.39915  -0.39785  -0.39555
 Alpha  occ. eigenvalues --   -0.39440  -0.39140  -0.39012  -0.38636  -0.38475
 Alpha  occ. eigenvalues --   -0.38391  -0.38089  -0.37626  -0.37426  -0.37233
 Alpha  occ. eigenvalues --   -0.37156  -0.37067  -0.37062  -0.36727  -0.36633
 Alpha  occ. eigenvalues --   -0.35962  -0.35437  -0.35333  -0.35201  -0.34956
 Alpha  occ. eigenvalues --   -0.34430  -0.34339  -0.33941  -0.33404  -0.33223
 Alpha  occ. eigenvalues --   -0.33104  -0.32278  -0.32099  -0.31754  -0.31699
 Alpha  occ. eigenvalues --   -0.31135  -0.31021  -0.30273  -0.28481  -0.28160
 Alpha  occ. eigenvalues --   -0.27444  -0.27396  -0.26546  -0.25803  -0.24148
 Alpha  occ. eigenvalues --   -0.23662  -0.23178  -0.22482  -0.22168  -0.18717
 Alpha  occ. eigenvalues --   -0.18170  -0.17621  -0.16828
 Alpha virt. eigenvalues --   -0.06921  -0.06134  -0.01672  -0.00058   0.00831
 Alpha virt. eigenvalues --    0.01423   0.02476   0.03007   0.03270   0.03479
 Alpha virt. eigenvalues --    0.03676   0.04715   0.04857   0.05172   0.05558
 Alpha virt. eigenvalues --    0.05815   0.05885   0.06192   0.06585   0.07001
 Alpha virt. eigenvalues --    0.07284   0.07494   0.07564   0.07914   0.08115
 Alpha virt. eigenvalues --    0.08535   0.08850   0.08919   0.09120   0.09182
 Alpha virt. eigenvalues --    0.09595   0.09813   0.10151   0.10592   0.10769
 Alpha virt. eigenvalues --    0.11073   0.11342   0.11441   0.11900   0.12051
 Alpha virt. eigenvalues --    0.12111   0.12381   0.12619   0.12681   0.13003
 Alpha virt. eigenvalues --    0.13305   0.13444   0.13530   0.13731   0.13810
 Alpha virt. eigenvalues --    0.13875   0.14185   0.14419   0.14671   0.14677
 Alpha virt. eigenvalues --    0.14740   0.14867   0.15014   0.15213   0.15278
 Alpha virt. eigenvalues --    0.15454   0.15615   0.15835   0.15990   0.16398
 Alpha virt. eigenvalues --    0.16535   0.16558   0.16929   0.17200   0.17482
 Alpha virt. eigenvalues --    0.17854   0.18034   0.18129   0.18456   0.18538
 Alpha virt. eigenvalues --    0.19105   0.19380   0.19461   0.19575   0.20020
 Alpha virt. eigenvalues --    0.20115   0.20394   0.20492   0.20648   0.20855
 Alpha virt. eigenvalues --    0.21085   0.21139   0.21369   0.21418   0.21609
 Alpha virt. eigenvalues --    0.21951   0.22172   0.22258   0.22701   0.22885
 Alpha virt. eigenvalues --    0.22936   0.23280   0.23446   0.23638   0.23755
 Alpha virt. eigenvalues --    0.24136   0.24202   0.24333   0.24731   0.24845
 Alpha virt. eigenvalues --    0.25155   0.25329   0.25474   0.25531   0.25730
 Alpha virt. eigenvalues --    0.25948   0.26168   0.26299   0.26436   0.26760
 Alpha virt. eigenvalues --    0.26824   0.27006   0.27166   0.27474   0.27689
 Alpha virt. eigenvalues --    0.28005   0.28248   0.28583   0.28903   0.29221
 Alpha virt. eigenvalues --    0.29329   0.29429   0.29679   0.29838   0.29973
 Alpha virt. eigenvalues --    0.30184   0.30547   0.30685   0.31086   0.31127
 Alpha virt. eigenvalues --    0.31370   0.31770   0.32048   0.32296   0.32495
 Alpha virt. eigenvalues --    0.32845   0.32905   0.33079   0.33301   0.33646
 Alpha virt. eigenvalues --    0.33838   0.34106   0.34343   0.34644   0.34831
 Alpha virt. eigenvalues --    0.35022   0.35433   0.35768   0.35949   0.36107
 Alpha virt. eigenvalues --    0.36252   0.36618   0.36888   0.37090   0.37328
 Alpha virt. eigenvalues --    0.37380   0.37554   0.37755   0.38016   0.38326
 Alpha virt. eigenvalues --    0.38597   0.38741   0.38983   0.39119   0.39318
 Alpha virt. eigenvalues --    0.39550   0.39835   0.39937   0.40077   0.40187
 Alpha virt. eigenvalues --    0.40514   0.40644   0.40810   0.41062   0.41225
 Alpha virt. eigenvalues --    0.41323   0.41530   0.41651   0.41729   0.41825
 Alpha virt. eigenvalues --    0.41956   0.42320   0.42489   0.42690   0.42859
 Alpha virt. eigenvalues --    0.43090   0.43414   0.43509   0.43534   0.43753
 Alpha virt. eigenvalues --    0.44158   0.44198   0.44288   0.44429   0.44661
 Alpha virt. eigenvalues --    0.44931   0.45080   0.45280   0.45448   0.45673
 Alpha virt. eigenvalues --    0.45776   0.45893   0.46086   0.46252   0.46416
 Alpha virt. eigenvalues --    0.46552   0.46563   0.46633   0.46798   0.46961
 Alpha virt. eigenvalues --    0.47079   0.47308   0.47401   0.47601   0.47660
 Alpha virt. eigenvalues --    0.47855   0.47995   0.48201   0.48326   0.48545
 Alpha virt. eigenvalues --    0.48679   0.48825   0.49071   0.49134   0.49315
 Alpha virt. eigenvalues --    0.49474   0.49657   0.49756   0.49991   0.50115
 Alpha virt. eigenvalues --    0.50333   0.50588   0.50651   0.50865   0.51015
 Alpha virt. eigenvalues --    0.51261   0.51382   0.51401   0.51756   0.51821
 Alpha virt. eigenvalues --    0.52105   0.52210   0.52458   0.52611   0.52843
 Alpha virt. eigenvalues --    0.53095   0.53351   0.53417   0.53648   0.53815
 Alpha virt. eigenvalues --    0.54126   0.54263   0.54504   0.54576   0.54705
 Alpha virt. eigenvalues --    0.54780   0.54882   0.54952   0.55245   0.55340
 Alpha virt. eigenvalues --    0.55610   0.55846   0.56157   0.56264   0.56660
 Alpha virt. eigenvalues --    0.56922   0.57116   0.57197   0.57453   0.57518
 Alpha virt. eigenvalues --    0.57949   0.58091   0.58272   0.58423   0.58719
 Alpha virt. eigenvalues --    0.58893   0.59194   0.59498   0.59598   0.59749
 Alpha virt. eigenvalues --    0.59982   0.60271   0.60425   0.60874   0.60999
 Alpha virt. eigenvalues --    0.61231   0.61372   0.61591   0.61872   0.62212
 Alpha virt. eigenvalues --    0.62274   0.62388   0.62816   0.63176   0.63370
 Alpha virt. eigenvalues --    0.63594   0.64108   0.64243   0.64585   0.64787
 Alpha virt. eigenvalues --    0.64998   0.65186   0.65306   0.65828   0.65990
 Alpha virt. eigenvalues --    0.66208   0.66366   0.66706   0.67063   0.67539
 Alpha virt. eigenvalues --    0.67676   0.68045   0.68227   0.68440   0.68827
 Alpha virt. eigenvalues --    0.69293   0.69379   0.69619   0.70045   0.70249
 Alpha virt. eigenvalues --    0.70410   0.70710   0.70880   0.71279   0.71403
 Alpha virt. eigenvalues --    0.71658   0.71869   0.72208   0.72400   0.72643
 Alpha virt. eigenvalues --    0.73026   0.73196   0.73671   0.73935   0.74173
 Alpha virt. eigenvalues --    0.74528   0.74941   0.75103   0.75395   0.75500
 Alpha virt. eigenvalues --    0.75931   0.76120   0.76365   0.76899   0.77099
 Alpha virt. eigenvalues --    0.77569   0.77707   0.77995   0.78181   0.78464
 Alpha virt. eigenvalues --    0.78949   0.79172   0.79434   0.79633   0.79932
 Alpha virt. eigenvalues --    0.80289   0.80519   0.80767   0.81458   0.81603
 Alpha virt. eigenvalues --    0.81995   0.82260   0.82440   0.82718   0.82927
 Alpha virt. eigenvalues --    0.83108   0.83780   0.84296   0.84397   0.84914
 Alpha virt. eigenvalues --    0.85120   0.85268   0.85559   0.85700   0.86389
 Alpha virt. eigenvalues --    0.86603   0.86853   0.86915   0.87123   0.87296
 Alpha virt. eigenvalues --    0.87588   0.88050   0.88289   0.88458   0.88977
 Alpha virt. eigenvalues --    0.89154   0.89426   0.89741   0.89947   0.90200
 Alpha virt. eigenvalues --    0.90455   0.90571   0.90673   0.91197   0.91431
 Alpha virt. eigenvalues --    0.91521   0.91921   0.92125   0.92497   0.92617
 Alpha virt. eigenvalues --    0.93000   0.93208   0.93551   0.93938   0.94104
 Alpha virt. eigenvalues --    0.94206   0.94429   0.94711   0.94933   0.95249
 Alpha virt. eigenvalues --    0.95685   0.95839   0.95915   0.96226   0.96533
 Alpha virt. eigenvalues --    0.96729   0.96844   0.97063   0.97320   0.97667
 Alpha virt. eigenvalues --    0.98001   0.98365   0.98558   0.98850   0.99201
 Alpha virt. eigenvalues --    0.99442   0.99695   0.99881   0.99998   1.00416
 Alpha virt. eigenvalues --    1.00493   1.00901   1.01473   1.01516   1.01805
 Alpha virt. eigenvalues --    1.01983   1.02270   1.02598   1.02785   1.03147
 Alpha virt. eigenvalues --    1.03644   1.03699   1.04044   1.04225   1.04370
 Alpha virt. eigenvalues --    1.04752   1.05013   1.05578   1.05694   1.05750
 Alpha virt. eigenvalues --    1.06238   1.06438   1.06802   1.07095   1.07397
 Alpha virt. eigenvalues --    1.07428   1.07863   1.08032   1.08251   1.08510
 Alpha virt. eigenvalues --    1.08671   1.08976   1.09179   1.09902   1.10131
 Alpha virt. eigenvalues --    1.10273   1.10462   1.11072   1.11244   1.11611
 Alpha virt. eigenvalues --    1.11893   1.12329   1.12670   1.12932   1.13336
 Alpha virt. eigenvalues --    1.13607   1.13783   1.14183   1.14364   1.14465
 Alpha virt. eigenvalues --    1.14736   1.15329   1.15704   1.16040   1.16437
 Alpha virt. eigenvalues --    1.16760   1.17273   1.17755   1.18203   1.18340
 Alpha virt. eigenvalues --    1.18661   1.18736   1.19033   1.19539   1.19992
 Alpha virt. eigenvalues --    1.20570   1.20804   1.20919   1.21406   1.21792
 Alpha virt. eigenvalues --    1.22004   1.22756   1.22929   1.23381   1.23581
 Alpha virt. eigenvalues --    1.23724   1.23977   1.24214   1.24632   1.24901
 Alpha virt. eigenvalues --    1.25268   1.25911   1.26307   1.26505   1.26877
 Alpha virt. eigenvalues --    1.27146   1.27291   1.27699   1.28014   1.28408
 Alpha virt. eigenvalues --    1.28911   1.29189   1.29301   1.29789   1.29988
 Alpha virt. eigenvalues --    1.30301   1.30537   1.30824   1.31000   1.31338
 Alpha virt. eigenvalues --    1.31867   1.32192   1.32519   1.32870   1.33001
 Alpha virt. eigenvalues --    1.33338   1.34188   1.34361   1.34845   1.35131
 Alpha virt. eigenvalues --    1.35589   1.36023   1.36176   1.36415   1.36921
 Alpha virt. eigenvalues --    1.37798   1.37819   1.38002   1.38395   1.38816
 Alpha virt. eigenvalues --    1.38990   1.39212   1.39910   1.41008   1.41281
 Alpha virt. eigenvalues --    1.41683   1.41888   1.42179   1.42378   1.43132
 Alpha virt. eigenvalues --    1.43335   1.43953   1.44285   1.44540   1.45140
 Alpha virt. eigenvalues --    1.45371   1.46060   1.46367   1.46683   1.47388
 Alpha virt. eigenvalues --    1.47881   1.48048   1.48340   1.48536   1.49307
 Alpha virt. eigenvalues --    1.49556   1.49923   1.50095   1.50539   1.50614
 Alpha virt. eigenvalues --    1.51175   1.51369   1.51474   1.51736   1.51993
 Alpha virt. eigenvalues --    1.52288   1.52335   1.52655   1.52800   1.53287
 Alpha virt. eigenvalues --    1.53557   1.53774   1.53901   1.54084   1.54218
 Alpha virt. eigenvalues --    1.54814   1.55019   1.55295   1.55571   1.55853
 Alpha virt. eigenvalues --    1.56042   1.56223   1.56355   1.56833   1.56957
 Alpha virt. eigenvalues --    1.57156   1.57289   1.57399   1.57777   1.58218
 Alpha virt. eigenvalues --    1.58417   1.58673   1.58934   1.58970   1.59731
 Alpha virt. eigenvalues --    1.59804   1.60012   1.60275   1.60637   1.61031
 Alpha virt. eigenvalues --    1.61187   1.61431   1.61513   1.61748   1.62228
 Alpha virt. eigenvalues --    1.62256   1.62370   1.62802   1.63034   1.63313
 Alpha virt. eigenvalues --    1.63507   1.63819   1.63941   1.64299   1.64671
 Alpha virt. eigenvalues --    1.64707   1.65102   1.65357   1.65580   1.65947
 Alpha virt. eigenvalues --    1.66009   1.66243   1.66693   1.66895   1.66898
 Alpha virt. eigenvalues --    1.67537   1.67830   1.68054   1.68183   1.68609
 Alpha virt. eigenvalues --    1.68737   1.68890   1.69441   1.69634   1.69948
 Alpha virt. eigenvalues --    1.70184   1.70448   1.70738   1.71220   1.71429
 Alpha virt. eigenvalues --    1.71482   1.71604   1.71816   1.72375   1.72529
 Alpha virt. eigenvalues --    1.72804   1.72923   1.73237   1.73306   1.73478
 Alpha virt. eigenvalues --    1.73839   1.74121   1.74383   1.74685   1.75259
 Alpha virt. eigenvalues --    1.75299   1.75413   1.76103   1.76275   1.76495
 Alpha virt. eigenvalues --    1.76769   1.76952   1.77267   1.77705   1.77989
 Alpha virt. eigenvalues --    1.78369   1.78579   1.78743   1.79176   1.79497
 Alpha virt. eigenvalues --    1.79848   1.80604   1.80875   1.81131   1.81652
 Alpha virt. eigenvalues --    1.82096   1.82586   1.82779   1.83126   1.83404
 Alpha virt. eigenvalues --    1.83772   1.84033   1.84497   1.84642   1.85348
 Alpha virt. eigenvalues --    1.85428   1.85857   1.86188   1.86243   1.86837
 Alpha virt. eigenvalues --    1.87211   1.87465   1.87833   1.88267   1.88393
 Alpha virt. eigenvalues --    1.89033   1.89132   1.89562   1.90026   1.90082
 Alpha virt. eigenvalues --    1.90580   1.90769   1.91286   1.91490   1.92013
 Alpha virt. eigenvalues --    1.92179   1.92391   1.92636   1.93031   1.93246
 Alpha virt. eigenvalues --    1.93381   1.93908   1.94272   1.94501   1.94793
 Alpha virt. eigenvalues --    1.95408   1.95899   1.96124   1.96635   1.96777
 Alpha virt. eigenvalues --    1.97000   1.97498   1.97685   1.98125   1.98428
 Alpha virt. eigenvalues --    1.98641   1.98992   1.99208   1.99490   2.00222
 Alpha virt. eigenvalues --    2.00372   2.00797   2.00953   2.01412   2.01587
 Alpha virt. eigenvalues --    2.01869   2.02152   2.02516   2.03282   2.03538
 Alpha virt. eigenvalues --    2.03595   2.03976   2.04864   2.05054   2.05440
 Alpha virt. eigenvalues --    2.05761   2.06163   2.06451   2.06920   2.07236
 Alpha virt. eigenvalues --    2.07690   2.07834   2.08347   2.08574   2.08625
 Alpha virt. eigenvalues --    2.09175   2.09379   2.09817   2.09997   2.10108
 Alpha virt. eigenvalues --    2.10712   2.10952   2.11551   2.12047   2.12164
 Alpha virt. eigenvalues --    2.12638   2.12833   2.13199   2.13591   2.13974
 Alpha virt. eigenvalues --    2.14439   2.14712   2.14855   2.15215   2.15308
 Alpha virt. eigenvalues --    2.15547   2.15869   2.16147   2.16422   2.16778
 Alpha virt. eigenvalues --    2.17175   2.17388   2.17642   2.17874   2.18700
 Alpha virt. eigenvalues --    2.18970   2.19369   2.19710   2.19925   2.20310
 Alpha virt. eigenvalues --    2.20474   2.20707   2.21108   2.21431   2.21754
 Alpha virt. eigenvalues --    2.22161   2.22610   2.22660   2.23227   2.23720
 Alpha virt. eigenvalues --    2.23863   2.24170   2.24215   2.24539   2.25119
 Alpha virt. eigenvalues --    2.25681   2.25784   2.25993   2.26379   2.26763
 Alpha virt. eigenvalues --    2.27170   2.27519   2.27894   2.28349   2.28924
 Alpha virt. eigenvalues --    2.29123   2.29260   2.29483   2.30346   2.30567
 Alpha virt. eigenvalues --    2.30906   2.31017   2.31394   2.31845   2.32150
 Alpha virt. eigenvalues --    2.32646   2.32931   2.33236   2.33614   2.33799
 Alpha virt. eigenvalues --    2.34060   2.34562   2.34897   2.35076   2.35518
 Alpha virt. eigenvalues --    2.36112   2.36254   2.36409   2.37240   2.37513
 Alpha virt. eigenvalues --    2.38194   2.38268   2.38796   2.38855   2.39245
 Alpha virt. eigenvalues --    2.39351   2.39576   2.39814   2.40213   2.40462
 Alpha virt. eigenvalues --    2.40846   2.41206   2.41485   2.42150   2.42594
 Alpha virt. eigenvalues --    2.42866   2.43109   2.43322   2.43739   2.44064
 Alpha virt. eigenvalues --    2.44468   2.44708   2.45008   2.45425   2.45890
 Alpha virt. eigenvalues --    2.46316   2.46646   2.46928   2.47199   2.47791
 Alpha virt. eigenvalues --    2.48193   2.48358   2.48571   2.48878   2.49578
 Alpha virt. eigenvalues --    2.49890   2.50263   2.50538   2.50934   2.51345
 Alpha virt. eigenvalues --    2.51633   2.52281   2.52807   2.53061   2.53318
 Alpha virt. eigenvalues --    2.53627   2.54207   2.54405   2.54636   2.54684
 Alpha virt. eigenvalues --    2.54797   2.55184   2.55469   2.55853   2.56066
 Alpha virt. eigenvalues --    2.56404   2.56910   2.57112   2.57548   2.57837
 Alpha virt. eigenvalues --    2.58155   2.58259   2.58683   2.58817   2.59069
 Alpha virt. eigenvalues --    2.59480   2.59981   2.60197   2.60378   2.60594
 Alpha virt. eigenvalues --    2.60913   2.61118   2.61642   2.61893   2.62519
 Alpha virt. eigenvalues --    2.62701   2.62762   2.62852   2.63157   2.63659
 Alpha virt. eigenvalues --    2.63810   2.64221   2.64387   2.64540   2.64689
 Alpha virt. eigenvalues --    2.65252   2.65661   2.65790   2.65988   2.66352
 Alpha virt. eigenvalues --    2.66899   2.67283   2.67607   2.67847   2.68497
 Alpha virt. eigenvalues --    2.68721   2.68837   2.69090   2.69315   2.69418
 Alpha virt. eigenvalues --    2.69897   2.70131   2.70906   2.71011   2.71228
 Alpha virt. eigenvalues --    2.71341   2.71751   2.72271   2.72565   2.73046
 Alpha virt. eigenvalues --    2.73422   2.73820   2.74083   2.74633   2.74671
 Alpha virt. eigenvalues --    2.74747   2.75124   2.75577   2.75688   2.76371
 Alpha virt. eigenvalues --    2.76621   2.76649   2.77101   2.77573   2.77979
 Alpha virt. eigenvalues --    2.78153   2.78380   2.78886   2.79399   2.79689
 Alpha virt. eigenvalues --    2.79861   2.80228   2.80423   2.80647   2.80744
 Alpha virt. eigenvalues --    2.81250   2.81562   2.81664   2.81994   2.82233
 Alpha virt. eigenvalues --    2.82590   2.83558   2.83566   2.83672   2.83829
 Alpha virt. eigenvalues --    2.84334   2.84580   2.84946   2.85129   2.85521
 Alpha virt. eigenvalues --    2.85813   2.86445   2.86801   2.87033   2.87358
 Alpha virt. eigenvalues --    2.87493   2.87670   2.88113   2.88376   2.88778
 Alpha virt. eigenvalues --    2.88978   2.89228   2.89857   2.89919   2.90233
 Alpha virt. eigenvalues --    2.90983   2.91254   2.91392   2.91509   2.91951
 Alpha virt. eigenvalues --    2.92601   2.92901   2.93196   2.93508   2.93650
 Alpha virt. eigenvalues --    2.93868   2.94467   2.94534   2.94764   2.95199
 Alpha virt. eigenvalues --    2.95451   2.95816   2.95994   2.96708   2.96996
 Alpha virt. eigenvalues --    2.97188   2.97703   2.97758   2.97929   2.98158
 Alpha virt. eigenvalues --    2.98507   2.98911   2.99154   2.99708   3.00149
 Alpha virt. eigenvalues --    3.00316   3.00454   3.00884   3.01700   3.02442
 Alpha virt. eigenvalues --    3.02677   3.02825   3.03317   3.03646   3.03709
 Alpha virt. eigenvalues --    3.03973   3.04470   3.04574   3.04860   3.05285
 Alpha virt. eigenvalues --    3.05687   3.06006   3.06192   3.06315   3.06667
 Alpha virt. eigenvalues --    3.06994   3.07495   3.07631   3.07929   3.08085
 Alpha virt. eigenvalues --    3.08204   3.08749   3.08954   3.09294   3.09474
 Alpha virt. eigenvalues --    3.09615   3.10070   3.10352   3.10432   3.10635
 Alpha virt. eigenvalues --    3.10970   3.11308   3.11431   3.11636   3.11961
 Alpha virt. eigenvalues --    3.12058   3.12393   3.12567   3.12844   3.13033
 Alpha virt. eigenvalues --    3.13166   3.13565   3.14132   3.14347   3.14878
 Alpha virt. eigenvalues --    3.14960   3.15486   3.15603   3.15941   3.16154
 Alpha virt. eigenvalues --    3.16427   3.16662   3.16761   3.17136   3.17277
 Alpha virt. eigenvalues --    3.17791   3.17881   3.18377   3.18425   3.18737
 Alpha virt. eigenvalues --    3.18870   3.19161   3.19665   3.19850   3.20029
 Alpha virt. eigenvalues --    3.20535   3.20917   3.21247   3.21398   3.21633
 Alpha virt. eigenvalues --    3.22028   3.22255   3.22412   3.23008   3.23309
 Alpha virt. eigenvalues --    3.23450   3.23573   3.23950   3.24066   3.24647
 Alpha virt. eigenvalues --    3.24858   3.25118   3.25367   3.25540   3.25760
 Alpha virt. eigenvalues --    3.26083   3.26425   3.26654   3.26746   3.26960
 Alpha virt. eigenvalues --    3.27071   3.27478   3.27555   3.27910   3.28226
 Alpha virt. eigenvalues --    3.28317   3.28717   3.29031   3.29530   3.29580
 Alpha virt. eigenvalues --    3.29889   3.30198   3.30664   3.30856   3.31100
 Alpha virt. eigenvalues --    3.31136   3.31580   3.31657   3.31915   3.32214
 Alpha virt. eigenvalues --    3.32564   3.32783   3.32988   3.33146   3.33383
 Alpha virt. eigenvalues --    3.33626   3.33933   3.34387   3.34777   3.34893
 Alpha virt. eigenvalues --    3.35084   3.35316   3.35440   3.35735   3.35863
 Alpha virt. eigenvalues --    3.36070   3.36678   3.36853   3.36954   3.37018
 Alpha virt. eigenvalues --    3.37129   3.37332   3.37754   3.38018   3.38480
 Alpha virt. eigenvalues --    3.38645   3.38847   3.39244   3.39454   3.39612
 Alpha virt. eigenvalues --    3.39955   3.40004   3.40396   3.40565   3.40766
 Alpha virt. eigenvalues --    3.41009   3.41210   3.41654   3.41829   3.41920
 Alpha virt. eigenvalues --    3.42061   3.42341   3.42479   3.42899   3.43092
 Alpha virt. eigenvalues --    3.43230   3.43363   3.43589   3.44106   3.44390
 Alpha virt. eigenvalues --    3.44583   3.44865   3.45100   3.45386   3.45548
 Alpha virt. eigenvalues --    3.45892   3.46282   3.46517   3.46604   3.46998
 Alpha virt. eigenvalues --    3.47551   3.47702   3.47978   3.48379   3.48816
 Alpha virt. eigenvalues --    3.49072   3.49105   3.49681   3.50036   3.50139
 Alpha virt. eigenvalues --    3.50365   3.50654   3.50880   3.51205   3.51399
 Alpha virt. eigenvalues --    3.51634   3.51724   3.52336   3.52455   3.52768
 Alpha virt. eigenvalues --    3.52934   3.53643   3.54066   3.54277   3.54550
 Alpha virt. eigenvalues --    3.54908   3.55057   3.55683   3.56448   3.56790
 Alpha virt. eigenvalues --    3.57053   3.57191   3.57296   3.57512   3.57806
 Alpha virt. eigenvalues --    3.58393   3.58548   3.59037   3.59328   3.59579
 Alpha virt. eigenvalues --    3.59727   3.59811   3.60325   3.60563   3.60736
 Alpha virt. eigenvalues --    3.61377   3.62035   3.62237   3.62532   3.63003
 Alpha virt. eigenvalues --    3.63572   3.63997   3.64433   3.64737   3.64872
 Alpha virt. eigenvalues --    3.65232   3.65506   3.65679   3.66211   3.66308
 Alpha virt. eigenvalues --    3.66685   3.67082   3.67894   3.68160   3.68356
 Alpha virt. eigenvalues --    3.68689   3.69248   3.69660   3.69780   3.70115
 Alpha virt. eigenvalues --    3.70333   3.70539   3.71421   3.71441   3.71610
 Alpha virt. eigenvalues --    3.72032   3.72481   3.72947   3.73252   3.73512
 Alpha virt. eigenvalues --    3.74050   3.74372   3.74699   3.75201   3.75427
 Alpha virt. eigenvalues --    3.75775   3.76011   3.76426   3.76717   3.77056
 Alpha virt. eigenvalues --    3.77435   3.77712   3.78294   3.78732   3.78807
 Alpha virt. eigenvalues --    3.79438   3.79607   3.79653   3.80092   3.80630
 Alpha virt. eigenvalues --    3.81286   3.81431   3.81625   3.81813   3.82522
 Alpha virt. eigenvalues --    3.83013   3.83373   3.84279   3.84581   3.84969
 Alpha virt. eigenvalues --    3.85179   3.85540   3.85865   3.86350   3.86685
 Alpha virt. eigenvalues --    3.86914   3.86960   3.87207   3.87815   3.87977
 Alpha virt. eigenvalues --    3.88875   3.89472   3.89741   3.90185   3.90464
 Alpha virt. eigenvalues --    3.91313   3.91710   3.92206   3.92398   3.92592
 Alpha virt. eigenvalues --    3.93826   3.94094   3.94430   3.95092   3.95402
 Alpha virt. eigenvalues --    3.95690   3.96310   3.96700   3.96944   3.97297
 Alpha virt. eigenvalues --    3.97599   3.98119   3.98427   3.98615   3.99290
 Alpha virt. eigenvalues --    3.99491   4.00093   4.00324   4.01116   4.01548
 Alpha virt. eigenvalues --    4.01897   4.02886   4.03062   4.03312   4.03800
 Alpha virt. eigenvalues --    4.03928   4.05000   4.05198   4.06158   4.06524
 Alpha virt. eigenvalues --    4.07139   4.07549   4.08041   4.08554   4.08796
 Alpha virt. eigenvalues --    4.09080   4.09533   4.10378   4.11079   4.11743
 Alpha virt. eigenvalues --    4.12218   4.12444   4.12619   4.14393   4.14770
 Alpha virt. eigenvalues --    4.15218   4.16129   4.16775   4.17583   4.17932
 Alpha virt. eigenvalues --    4.18236   4.18472   4.19160   4.19607   4.20506
 Alpha virt. eigenvalues --    4.21026   4.21149   4.21496   4.21849   4.22465
 Alpha virt. eigenvalues --    4.23251   4.23422   4.24009   4.24303   4.24617
 Alpha virt. eigenvalues --    4.25357   4.25754   4.26008   4.26678   4.27354
 Alpha virt. eigenvalues --    4.28286   4.28382   4.29086   4.29587   4.29869
 Alpha virt. eigenvalues --    4.30834   4.31014   4.31486   4.31865   4.32277
 Alpha virt. eigenvalues --    4.33207   4.33489   4.34241   4.34513   4.34710
 Alpha virt. eigenvalues --    4.34868   4.35627   4.36120   4.36223   4.37064
 Alpha virt. eigenvalues --    4.37451   4.37757   4.38405   4.38781   4.38834
 Alpha virt. eigenvalues --    4.39335   4.39817   4.40106   4.40354   4.41159
 Alpha virt. eigenvalues --    4.41379   4.42489   4.43114   4.43906   4.43970
 Alpha virt. eigenvalues --    4.44454   4.44741   4.45487   4.45606   4.46843
 Alpha virt. eigenvalues --    4.47311   4.47937   4.48245   4.48534   4.49280
 Alpha virt. eigenvalues --    4.49751   4.49959   4.50535   4.50906   4.51322
 Alpha virt. eigenvalues --    4.51560   4.51954   4.52878   4.53241   4.53904
 Alpha virt. eigenvalues --    4.53950   4.54676   4.55275   4.56458   4.56856
 Alpha virt. eigenvalues --    4.57519   4.58013   4.58823   4.59963   4.60096
 Alpha virt. eigenvalues --    4.60440   4.61142   4.62515   4.62685   4.63435
 Alpha virt. eigenvalues --    4.64098   4.64485   4.65736   4.66388   4.66877
 Alpha virt. eigenvalues --    4.67581   4.68012   4.68752   4.69120   4.69862
 Alpha virt. eigenvalues --    4.70469   4.71220   4.71614   4.72280   4.72928
 Alpha virt. eigenvalues --    4.73447   4.73842   4.74420   4.74697   4.75162
 Alpha virt. eigenvalues --    4.75410   4.76918   4.77515   4.77908   4.78069
 Alpha virt. eigenvalues --    4.78357   4.78812   4.78990   4.80571   4.81389
 Alpha virt. eigenvalues --    4.82372   4.83270   4.83548   4.84545   4.84733
 Alpha virt. eigenvalues --    4.85576   4.86102   4.86506   4.87378   4.88183
 Alpha virt. eigenvalues --    4.88442   4.89053   4.89894   4.90516   4.90961
 Alpha virt. eigenvalues --    4.92065   4.92485   4.93835   4.94172   4.94515
 Alpha virt. eigenvalues --    4.95415   4.95926   4.96261   4.96959   4.97791
 Alpha virt. eigenvalues --    4.99058   5.00080   5.00609   5.01352   5.02734
 Alpha virt. eigenvalues --    5.03061   5.03414   5.04163   5.05063   5.05711
 Alpha virt. eigenvalues --    5.06705   5.06959   5.07377   5.08446   5.10070
 Alpha virt. eigenvalues --    5.10315   5.11570   5.12620   5.13450   5.14466
 Alpha virt. eigenvalues --    5.17547   5.18154   5.18563   5.19406   5.19784
 Alpha virt. eigenvalues --    5.20693   5.20935   5.22191   5.22577   5.23348
 Alpha virt. eigenvalues --    5.23800   5.24609   5.24759   5.26466   5.26749
 Alpha virt. eigenvalues --    5.26824   5.27747   5.28208   5.30683   5.31099
 Alpha virt. eigenvalues --    5.32389   5.33560   5.33839   5.34917   5.35754
 Alpha virt. eigenvalues --    5.37384   5.37531   5.38781   5.39845   5.40428
 Alpha virt. eigenvalues --    5.41924   5.42469   5.43962   5.44504   5.45743
 Alpha virt. eigenvalues --    5.47943   5.48241   5.48912   5.49388   5.50392
 Alpha virt. eigenvalues --    5.51857   5.52299   5.53691   5.54952   5.57358
 Alpha virt. eigenvalues --    5.58256   5.59245   5.59703   5.60086   5.60593
 Alpha virt. eigenvalues --    5.61763   5.62293   5.62665   5.62881   5.64711
 Alpha virt. eigenvalues --    5.65174   5.66069   5.66352   5.66974   5.70028
 Alpha virt. eigenvalues --    5.73679   5.76423   5.79436   5.79861   5.80087
 Alpha virt. eigenvalues --    5.81293   5.85303   5.86219   5.87360   5.94828
 Alpha virt. eigenvalues --    5.95791   5.96888   5.97531   5.98848   6.00470
 Alpha virt. eigenvalues --    6.00722   6.03200   6.04794   6.05334   6.06343
 Alpha virt. eigenvalues --    6.10740   6.11400   6.13005   6.13957   6.14748
 Alpha virt. eigenvalues --    6.16383   6.17878   6.18805   6.20372   6.21784
 Alpha virt. eigenvalues --    6.28001   6.30289   6.32280   6.33629   6.33697
 Alpha virt. eigenvalues --    6.34923   6.35528   6.38268   6.40849   6.43526
 Alpha virt. eigenvalues --    6.45334   6.47060   6.51386   6.52577   6.65530
 Alpha virt. eigenvalues --    6.66568   6.74604   6.76710   6.81830   6.85347
 Alpha virt. eigenvalues --    6.90886   6.94831   7.01955   7.07413   7.11997
 Alpha virt. eigenvalues --    7.14812   7.19349   7.20972   7.26074   7.33659
 Alpha virt. eigenvalues --    9.31981   9.53598   9.65494  20.15964  22.49547
 Alpha virt. eigenvalues --   22.50878  22.52475  22.53391  22.55014  22.55479
 Alpha virt. eigenvalues --   22.56118  22.56572  22.57702  22.58685  22.60788
 Alpha virt. eigenvalues --   22.62502  22.65588  22.67809  22.68450  22.72894
 Alpha virt. eigenvalues --   22.84068  22.96870  22.98004  22.99405  23.00160
 Alpha virt. eigenvalues --   23.01971  23.09560  23.12973  23.16867  23.21872
 Alpha virt. eigenvalues --   23.26656  23.31749  23.32657  23.36359  23.42043
 Alpha virt. eigenvalues --   23.45877  23.51774  23.54610  23.56173  23.60712
 Alpha virt. eigenvalues --   23.63401  23.75030  23.79855  23.81202  23.91579
 Alpha virt. eigenvalues --   32.47485  32.86030  33.00123  33.07396  33.13808
 Alpha virt. eigenvalues --   33.19645  43.94605  43.96673  43.97129  43.99583
  Beta  occ. eigenvalues -- -256.32119 -89.00193 -30.05006 -25.88663 -25.88048
  Beta  occ. eigenvalues --  -25.87860 -19.27249 -19.25668 -19.18455 -19.16621
  Beta  occ. eigenvalues --  -14.44164 -14.37602 -14.35693 -14.35426 -14.35083
  Beta  occ. eigenvalues --  -14.35081 -10.35067 -10.34773 -10.27265 -10.25586
  Beta  occ. eigenvalues --  -10.24043 -10.23930 -10.23855 -10.23798 -10.23778
  Beta  occ. eigenvalues --  -10.23528 -10.23311 -10.23288 -10.23237 -10.22821
  Beta  occ. eigenvalues --  -10.22737 -10.22709 -10.22440 -10.22344 -10.22000
  Beta  occ. eigenvalues --  -10.21866 -10.21800 -10.21777 -10.21741 -10.21694
  Beta  occ. eigenvalues --  -10.21667 -10.21479 -10.21201 -10.21171 -10.21163
  Beta  occ. eigenvalues --  -10.21120 -10.21068 -10.21068 -10.21020 -10.21003
  Beta  occ. eigenvalues --  -10.20900 -10.20725 -10.20713 -10.20700 -10.20111
  Beta  occ. eigenvalues --  -10.19877 -10.19269  -7.98164  -5.91827  -5.91505
  Beta  occ. eigenvalues --   -5.90938  -3.35867  -2.10821  -2.10607  -2.10414
  Beta  occ. eigenvalues --   -1.17938  -1.17068  -1.06015  -1.03322  -1.00428
  Beta  occ. eigenvalues --   -0.97045  -0.96011  -0.95935  -0.94913  -0.91057
  Beta  occ. eigenvalues --   -0.83746  -0.83346  -0.82935  -0.82619  -0.82185
  Beta  occ. eigenvalues --   -0.81949  -0.81168  -0.80700  -0.80432  -0.79013
  Beta  occ. eigenvalues --   -0.78381  -0.77195  -0.76548  -0.75788  -0.75132
  Beta  occ. eigenvalues --   -0.73863  -0.72758  -0.72599  -0.71904  -0.71186
  Beta  occ. eigenvalues --   -0.70153  -0.69691  -0.68956  -0.66168  -0.65936
  Beta  occ. eigenvalues --   -0.65623  -0.64790  -0.64515  -0.64383  -0.63499
  Beta  occ. eigenvalues --   -0.63327  -0.61708  -0.59030  -0.59014  -0.57140
  Beta  occ. eigenvalues --   -0.56365  -0.55573  -0.54559  -0.54460  -0.53326
  Beta  occ. eigenvalues --   -0.52856  -0.52245  -0.51626  -0.51580  -0.50832
  Beta  occ. eigenvalues --   -0.50463  -0.50238  -0.49716  -0.48911  -0.48632
  Beta  occ. eigenvalues --   -0.48369  -0.48045  -0.47981  -0.47868  -0.47803
  Beta  occ. eigenvalues --   -0.47334  -0.47219  -0.46524  -0.46025  -0.45250
  Beta  occ. eigenvalues --   -0.44861  -0.44677  -0.44289  -0.44139  -0.43746
  Beta  occ. eigenvalues --   -0.43572  -0.43499  -0.43332  -0.43141  -0.43034
  Beta  occ. eigenvalues --   -0.42941  -0.42762  -0.42733  -0.42365  -0.42181
  Beta  occ. eigenvalues --   -0.41843  -0.41607  -0.41250  -0.41075  -0.40514
  Beta  occ. eigenvalues --   -0.40239  -0.39926  -0.39725  -0.39491  -0.39313
  Beta  occ. eigenvalues --   -0.39283  -0.38557  -0.38530  -0.38178  -0.38128
  Beta  occ. eigenvalues --   -0.37599  -0.37384  -0.37179  -0.37091  -0.37052
  Beta  occ. eigenvalues --   -0.36787  -0.36644  -0.36307  -0.35871  -0.35671
  Beta  occ. eigenvalues --   -0.35387  -0.35273  -0.35006  -0.34355  -0.34281
  Beta  occ. eigenvalues --   -0.33365  -0.33293  -0.33123  -0.32884  -0.32327
  Beta  occ. eigenvalues --   -0.31689  -0.31417  -0.31251  -0.31070  -0.29950
  Beta  occ. eigenvalues --   -0.29060  -0.28170  -0.27785  -0.27555  -0.26600
  Beta  occ. eigenvalues --   -0.24891  -0.24517  -0.23945  -0.23454  -0.23144
  Beta  occ. eigenvalues --   -0.22528  -0.18539  -0.18474  -0.14207
  Beta virt. eigenvalues --   -0.07296  -0.05480  -0.01697  -0.00257   0.00277
  Beta virt. eigenvalues --    0.00466   0.00835   0.01427   0.02464   0.03034
  Beta virt. eigenvalues --    0.03298   0.03576   0.03736   0.04706   0.04894
  Beta virt. eigenvalues --    0.05266   0.05571   0.05792   0.05916   0.06267
  Beta virt. eigenvalues --    0.06571   0.07068   0.07234   0.07469   0.07575
  Beta virt. eigenvalues --    0.07900   0.08194   0.08445   0.08540   0.08828
  Beta virt. eigenvalues --    0.08964   0.09082   0.09230   0.09491   0.09686
  Beta virt. eigenvalues --    0.09878   0.10162   0.10722   0.10860   0.11088
  Beta virt. eigenvalues --    0.11450   0.11540   0.11913   0.12047   0.12126
  Beta virt. eigenvalues --    0.12412   0.12637   0.12708   0.13043   0.13335
  Beta virt. eigenvalues --    0.13476   0.13578   0.13756   0.13913   0.14008
  Beta virt. eigenvalues --    0.14242   0.14447   0.14671   0.14722   0.14796
  Beta virt. eigenvalues --    0.14941   0.15035   0.15209   0.15353   0.15512
  Beta virt. eigenvalues --    0.15643   0.15873   0.16051   0.16432   0.16536
  Beta virt. eigenvalues --    0.16611   0.16968   0.17298   0.17541   0.17892
  Beta virt. eigenvalues --    0.18085   0.18180   0.18487   0.18592   0.19155
  Beta virt. eigenvalues --    0.19412   0.19486   0.19603   0.20029   0.20138
  Beta virt. eigenvalues --    0.20482   0.20590   0.20690   0.20901   0.21149
  Beta virt. eigenvalues --    0.21211   0.21420   0.21500   0.21662   0.22003
  Beta virt. eigenvalues --    0.22289   0.22333   0.22727   0.22916   0.23032
  Beta virt. eigenvalues --    0.23344   0.23471   0.23695   0.23828   0.24185
  Beta virt. eigenvalues --    0.24280   0.24355   0.24827   0.24887   0.25208
  Beta virt. eigenvalues --    0.25389   0.25501   0.25626   0.25783   0.25985
  Beta virt. eigenvalues --    0.26232   0.26352   0.26485   0.26873   0.26949
  Beta virt. eigenvalues --    0.27209   0.27420   0.27648   0.27863   0.28217
  Beta virt. eigenvalues --    0.28381   0.28748   0.29010   0.29382   0.29435
  Beta virt. eigenvalues --    0.29601   0.29709   0.29947   0.30102   0.30473
  Beta virt. eigenvalues --    0.30623   0.30731   0.31146   0.31318   0.31518
  Beta virt. eigenvalues --    0.31913   0.32209   0.32447   0.32585   0.32931
  Beta virt. eigenvalues --    0.33074   0.33122   0.33448   0.33729   0.34082
  Beta virt. eigenvalues --    0.34210   0.34435   0.34758   0.34915   0.35210
  Beta virt. eigenvalues --    0.35464   0.35863   0.36105   0.36154   0.36301
  Beta virt. eigenvalues --    0.36645   0.36969   0.37155   0.37388   0.37437
  Beta virt. eigenvalues --    0.37778   0.37946   0.38147   0.38402   0.38628
  Beta virt. eigenvalues --    0.38827   0.39028   0.39162   0.39393   0.39570
  Beta virt. eigenvalues --    0.39859   0.39953   0.40122   0.40211   0.40573
  Beta virt. eigenvalues --    0.40701   0.40888   0.41100   0.41390   0.41430
  Beta virt. eigenvalues --    0.41614   0.41730   0.41795   0.41961   0.42074
  Beta virt. eigenvalues --    0.42335   0.42659   0.42783   0.42950   0.43176
  Beta virt. eigenvalues --    0.43439   0.43590   0.43643   0.43779   0.44248
  Beta virt. eigenvalues --    0.44322   0.44426   0.44693   0.44723   0.45082
  Beta virt. eigenvalues --    0.45132   0.45407   0.45535   0.45741   0.45867
  Beta virt. eigenvalues --    0.46030   0.46220   0.46327   0.46461   0.46564
  Beta virt. eigenvalues --    0.46614   0.46760   0.46875   0.46986   0.47108
  Beta virt. eigenvalues --    0.47321   0.47475   0.47637   0.47682   0.47937
  Beta virt. eigenvalues --    0.48037   0.48245   0.48425   0.48622   0.48702
  Beta virt. eigenvalues --    0.48889   0.49097   0.49184   0.49400   0.49549
  Beta virt. eigenvalues --    0.49681   0.49798   0.50028   0.50185   0.50367
  Beta virt. eigenvalues --    0.50622   0.50682   0.50917   0.51086   0.51287
  Beta virt. eigenvalues --    0.51425   0.51519   0.51779   0.51847   0.52212
  Beta virt. eigenvalues --    0.52269   0.52617   0.52679   0.52888   0.53174
  Beta virt. eigenvalues --    0.53388   0.53476   0.53740   0.53879   0.54237
  Beta virt. eigenvalues --    0.54300   0.54545   0.54709   0.54739   0.54830
  Beta virt. eigenvalues --    0.54947   0.54989   0.55315   0.55379   0.55678
  Beta virt. eigenvalues --    0.55928   0.56326   0.56412   0.56691   0.56943
  Beta virt. eigenvalues --    0.57214   0.57231   0.57516   0.57558   0.57983
  Beta virt. eigenvalues --    0.58185   0.58331   0.58497   0.58805   0.58953
  Beta virt. eigenvalues --    0.59278   0.59551   0.59645   0.59819   0.60021
  Beta virt. eigenvalues --    0.60302   0.60465   0.60944   0.61092   0.61339
  Beta virt. eigenvalues --    0.61412   0.61651   0.61964   0.62303   0.62374
  Beta virt. eigenvalues --    0.62503   0.62895   0.63249   0.63412   0.63766
  Beta virt. eigenvalues --    0.64176   0.64342   0.64672   0.64896   0.65083
  Beta virt. eigenvalues --    0.65312   0.65353   0.65927   0.66121   0.66288
  Beta virt. eigenvalues --    0.66519   0.66800   0.67108   0.67563   0.67759
  Beta virt. eigenvalues --    0.68079   0.68286   0.68550   0.68973   0.69355
[...]
  1744. RY*(   2) H  84                  0.00005     1.71936   
  1745. RY*(   3) H  84                  0.00004     2.08265   
  1746. RY*(   4) H  84                  0.00003     1.50347   
  1747. RY*(   5) H  84                  0.00000     2.90733   
  1748. RY*(   1) H  85                  0.00025     1.29491   
  1749. RY*(   2) H  85                  0.00006     1.63043   
  1750. RY*(   3) H  85                  0.00006     1.87377   
  1751. RY*(   4) H  85                  0.00004     2.03925   
  1752. RY*(   5) H  85                  0.00000     2.93290   
  1753. RY*(   1) H  86                  0.00038     1.13779   
  1754. RY*(   2) H  86                  0.00007     2.02885   
  1755. RY*(   3) H  86                  0.00004     2.14923   
  1756. RY*(   4) H  86                  0.00002     1.72195   
  1757. RY*(   5) H  86                  0.00000     2.97031   
  1758. RY*(   1) H  87                  0.00036     1.00856   
  1759. RY*(   2) H  87                  0.00007     1.94662   
  1760. RY*(   3) H  87                  0.00005     1.99302   
  1761. RY*(   4) H  87                  0.00003     2.12687   
  1762. RY*(   5) H  87                  0.00000     3.05323   
  1763. RY*(   1) H  88                  0.00041     1.03511   
  1764. RY*(   2) H  88                  0.00009     1.74021   
  1765. RY*(   3) H  88                  0.00004     2.16680   
  1766. RY*(   4) H  88                  0.00002     2.05387   
  1767. RY*(   5) H  88                  0.00000     2.94678   
  1768. RY*(   1) H  89                  0.00029     1.08692   
  1769. RY*(   2) H  89                  0.00010     1.82586   
  1770. RY*(   3) H  89                  0.00003     2.13049   
  1771. RY*(   4) H  89                  0.00002     2.02248   
  1772. RY*(   5) H  89                  0.00000     2.94315   
  1773. RY*(   1) H  90                  0.00080     0.63972   
  1774. RY*(   2) H  90                  0.00009     2.34929   
  1775. RY*(   3) H  90                  0.00006     2.48072   
  1776. RY*(   4) H  90                  0.00003     2.40139   
  1777. RY*(   5) H  90                  0.00000     3.01653   
  1778. RY*(   1) H  91                  0.00045     1.66673   
  1779. RY*(   2) H  91                  0.00010     2.23604   
  1780. RY*(   3) H  91                  0.00004     2.33716   
  1781. RY*(   4) H  91                  0.00002     1.84254   
  1782. RY*(   5) H  91                  0.00000     3.05484   
  1783. RY*(   1) H  92                  0.00025     1.20395   
  1784. RY*(   2) H  92                  0.00005     1.63844   
  1785. RY*(   3) H  92                  0.00003     1.95397   
  1786. RY*(   4) H  92                  0.00004     2.07565   
  1787. RY*(   5) H  92                  0.00000     2.86282   
  1788. RY*(   1) H  93                  0.00034     1.04966   
  1789. RY*(   2) H  93                  0.00008     2.15074   
  1790. RY*(   3) H  93                  0.00006     1.53988   
  1791. RY*(   4) H  93                  0.00003     2.16699   
  1792. RY*(   5) H  93                  0.00000     2.94266   
  1793. RY*(   1) H  94                  0.00038     1.11592   
  1794. RY*(   2) H  94                  0.00006     1.94263   
  1795. RY*(   3) H  94                  0.00004     2.17122   
  1796. RY*(   4) H  94                  0.00003     1.80655   
  1797. RY*(   5) H  94                  0.00001     2.86308   
  1798. RY*(   1) H  95                  0.00037     0.98671   
  1799. RY*(   2) H  95                  0.00008     1.90469   
  1800. RY*(   3) H  95                  0.00003     2.01106   
  1801. RY*(   4) H  95                  0.00004     2.12773   
  1802. RY*(   5) H  95                  0.00000     3.03183   
  1803. RY*(   1) H  96                  0.00048     0.95073   
  1804. RY*(   2) H  96                  0.00009     1.77185   
  1805. RY*(   3) H  96                  0.00003     2.11153   
  1806. RY*(   4) H  96                  0.00003     2.20607   
  1807. RY*(   5) H  96                  0.00001     2.96072   
  1808. RY*(   1) H  97                  0.00045     0.97588   
  1809. RY*(   2) H  97                  0.00010     1.89645   
  1810. RY*(   3) H  97                  0.00003     2.10726   
  1811. RY*(   4) H  97                  0.00003     2.07371   
  1812. RY*(   5) H  97                  0.00000     2.97690   
  1813. RY*(   1) H  98                  0.00049     1.62712   
  1814. RY*(   2) H  98                  0.00010     2.73130   
  1815. RY*(   3) H  98                  0.00006     1.47197   
  1816. RY*(   4) H  98                  0.00006     2.46696   
  1817. RY*(   5) H  98                  0.00000     2.83888   
  1818. RY*(   1) H  99                  0.00056     1.61416   
  1819. RY*(   2) H  99                  0.00010     2.73255   
  1820. RY*(   3) H  99                  0.00006     1.39240   
  1821. RY*(   4) H  99                  0.00005     2.46672   
  1822. RY*(   5) H  99                  0.00000     3.09890   
  1823. RY*(   1) H 100                  0.00042     1.31822   
  1824. RY*(   2) H 100                  0.00006     1.55145   
  1825. RY*(   3) H 100                  0.00006     2.43134   
  1826. RY*(   4) H 100                  0.00001     2.79861   
  1827. RY*(   5) H 100                  0.00002     2.66918   
  1828. RY*(   1) H 101                  0.00049     1.06589   
  1829. RY*(   2) H 101                  0.00006     1.62518   
  1830. RY*(   3) H 101                  0.00005     2.55255   
  1831. RY*(   4) H 101                  0.00003     2.40187   
  1832. RY*(   5) H 101                  0.00001     3.10594   
  1833. RY*(   1) H 102                  0.00050     1.21682   
  1834. RY*(   2) H 102                  0.00036     1.55200   
  1835. RY*(   3) H 102                  0.00021     1.99012   
  1836. RY*(   4) H 102                  0.00013     2.15488   
  1837. RY*(   5) H 102                  0.00000     3.30388   
  1838. RY*(   1) H 103                  0.00089     0.91220   
  1839. RY*(   2) H 103                  0.00030     2.13171   
  1840. RY*(   3) H 103                  0.00025     1.83770   
  1841. RY*(   4) H 103                  0.00010     2.14119   
  1842. RY*(   5) H 103                  0.00000     3.16203   
  1857. BD*(   1) C   7 - C   8          0.00385     0.36510   
  1858. BD*(   1) C   7 - H  60          0.00382     0.41714   
  1859. BD*(   1) C   7 - H  61          0.00375     0.41813   
  1860. BD*(   1) C   7 - H  62          0.00467     0.44741   
  1861. BD*(   1) C   8 - S   9          0.01837     0.18984   
  1862. BD*(   1) C   8 - H  63          0.01023     0.42466   
  1863. BD*(   1) C   8 - H  64          0.00689     0.40565   
  1864. BD*(   1) S   9 - C  10          0.01126     0.19606   
  1865. BD*(   1) S   9 -Fe  11          0.03852     0.30605   
  1866. BD*(   1) C  10 - H  65          0.00360     0.42401   
  1867. BD*(   1) C  10 - H  66          0.00710     0.40947   
  1868. BD*(   1) C  10 - H  67          0.00614     0.40560   
  1869. BD*(   1) C  12 - C  17          0.01020     0.59844   
  1870. BD*(   2) C  12 - C  17          0.21812     0.05542  1889(v),28(v),1874(r),501(g)
                                                    632(g)
  1871. BD*(   1) C  12 - C  47          0.01095     0.58616   
  1872. BD*(   1) C  12 - H  68          0.00708     0.45365   
  1873. BD*(   1) C  13 - C  20          0.01018     0.60249   
  1874. BD*(   2) C  13 - C  20          0.20919     0.05705  1907(v),1889(v),28(v)
                                                    1870(r),527(g),713(g)
                                                    1882(r),710(g)
  1875. BD*(   1) C  13 - C  28          0.01037     0.60563   
  1876. BD*(   1) C  13 - H  69          0.00759     0.45266   
  1877. BD*(   1) C  14 - C  31          0.01087     0.58402   
  1878. BD*(   2) C  14 - C  31          0.22783     0.05093  1925(v),1911(v),1907(v)
                                                    553(g),1882(r),197(r)
                                                    1874(r),999(g)
  1879. BD*(   1) C  14 - C  36          0.01024     0.59450   
  1880. BD*(   1) C  14 - H  70          0.00730     0.45811   
  1881. BD*(   1) C  15 - C  39          0.01063     0.60555   
  1882. BD*(   2) C  15 - C  39          0.20369     0.05759  1929(v),1943(v),1925(v)
                                                    197(r),579(g),1878(r)
                                                    1874(r),1207(g)
  1883. BD*(   1) C  15 - C  44          0.01067     0.60865   
  1884. BD*(   1) C  15 - H  71          0.00789     0.45205   
  1885. BD*(   1) N  16 - C  17          0.01335     0.51136   
  1886. BD*(   1) N  16 - C  20          0.01369     0.49673   
  1887. BD*(   1) C  17 - C  18          0.01749     0.49591   
  1888. BD*(   1) C  18 - C  19          0.00948     0.64982   
  1889. BD*(   2) C  18 - C  19          0.12130     0.08324  1874(v),1870(v),1896(v)
                                                    1894(v),1895(v)
  1890. BD*(   1) C  18 - C  22          0.01237     0.38824   
  1891. BD*(   1) C  19 - C  20          0.01706     0.50133   
  1892. BD*(   1) C  19 - C  21          0.00952     0.38670   
  1893. BD*(   1) C  21 - H  72          0.00264     0.42056   
  1894. BD*(   1) C  21 - H  73          0.00496     0.41442   
  1895. BD*(   1) C  21 - H  74          0.00358     0.41374   
  1896. BD*(   1) C  22 - C  23          0.00890     0.36393   
  1897. BD*(   1) C  22 - H  75          0.00532     0.41328   
  1898. BD*(   1) C  22 - H  76          0.00713     0.41166   
  1899. BD*(   1) C  23 - C  24          0.03294     0.34620   
  1900. BD*(   1) C  23 - H  77          0.00598     0.39597   
  1901. BD*(   1) C  23 - H  78          0.00449     0.39928   
  1902. BD*(   1) C  24 - O  25          0.03760     0.44100   
  1903. BD*(   2) C  24 - O  25          0.10522     0.07099  1902(g),1905(v),1900(v)
                                                    1896(v)
  1904. BD*(   1) C  24 - O  26          0.03360     0.52446   
  1905. BD*(   1) O  26 - H 103          0.00840     0.37907   
  1906. BD*(   1) N  27 - C  28          0.01443     0.48742   
  1907. BD*(   2) N  27 - C  28          0.31566     0.01506  1874(v),1878(v),1911(v)
                                                    197(r),918(g),527(v),891(g)
                                                    920(g),28(r),193(r)
  1908. BD*(   1) N  27 - C  31          0.01361     0.50487   
  1909. BD*(   1) C  28 - C  29          0.01682     0.50510   
  1910. BD*(   1) C  29 - C  30          0.01049     0.62669   
  1911. BD*(   2) C  29 - C  30          0.13276     0.07754  1878(v),1907(v),1918(v)
                                                    1917(v),1919(v)
  1912. BD*(   1) C  29 - C  32          0.00911     0.38509   
  1913. BD*(   1) C  30 - C  31          0.01633     0.52079   
  1914. BD*(   1) C  30 - C  33          0.01186     0.40348   
  1915. BD*(   1) C  32 - H  79          0.00268     0.41916   
  1916. BD*(   1) C  32 - H  80          0.00361     0.41351   
  1917. BD*(   1) C  32 - H  81          0.00557     0.41199   
  1918. BD*(   1) C  33 - C  34          0.00451     0.35798   
  1919. BD*(   1) C  33 - H  82          0.00606     0.40195   
  1920. BD*(   1) C  33 - H  83          0.00503     0.41061   
  1921. BD*(   1) C  34 - H  84          0.00263     0.41766   
  1922. BD*(   1) C  34 - H  85          0.00228     0.41387   
  1923. BD*(   1) C  34 - H  86          0.00319     0.41972   
  1924. BD*(   1) N  35 - C  36          0.01355     0.50380   
  1925. BD*(   2) N  35 - C  36          0.33891     0.01226  1878(v),1882(v),1929(v)
                                                    197(r),1126(g),28(r),1853(r)
                                                    553(v),1100(g),193(r)
                                                    1128(g),1099(g)
  1926. BD*(   1) N  35 - C  39          0.01390     0.49561   
  1927. BD*(   1) C  36 - C  37          0.01778     0.48076   
  1928. BD*(   1) C  37 - C  38          0.00980     0.64649   
  1929. BD*(   2) C  37 - C  38          0.12112     0.08113  1882(v),1925(v),1936(v)
                                                    1934(v),1937(v),1935(v)
  1930. BD*(   1) C  37 - C  40          0.00940     0.36701   
  1931. BD*(   1) C  38 - C  39          0.01659     0.50116   
  1932. BD*(   1) C  38 - C  41          0.01274     0.38807   
  1933. BD*(   1) C  40 - H  87          0.00290     0.42152   
  1934. BD*(   1) C  40 - H  88          0.00436     0.41102   
  1935. BD*(   1) C  40 - H  89          0.00317     0.41080   
  1936. BD*(   1) C  41 - C  42          0.00476     0.35614   
  1937. BD*(   1) C  41 - H  90          0.00694     0.40154   
  1938. BD*(   1) C  41 - H  91          0.00568     0.40865   
  1939. BD*(   1) C  42 - H  92          0.00328     0.41601   
  1940. BD*(   1) C  42 - H  93          0.00354     0.41314   
  1941. BD*(   1) C  42 - H  94          0.00377     0.41545   
  1942. BD*(   1) N  43 - C  44          0.01493     0.47431   
  1943. BD*(   2) N  43 - C  44          0.32008     0.00893  1882(v),1947(v),197(r)
                                                    1334(g),193(r),579(v)
                                                    1336(g),1307(g),28(r)
                                                    1860(r),1853(r)
  1944. BD*(   1) N  43 - C  47          0.01378     0.48657   
  1945. BD*(   1) C  44 - C  45          0.01645     0.50254   
  1946. BD*(   1) C  45 - C  46          0.00990     0.62241   
  1947. BD*(   2) C  45 - C  46          0.13493     0.07146  1943(v),1954(v),1952(v)
                                                    1953(v)
  1948. BD*(   1) C  45 - C  48          0.00955     0.37116   
  1949. BD*(   1) C  46 - C  47          0.01678     0.50149   
  1950. BD*(   1) C  46 - C  49          0.01217     0.38561   
  1951. BD*(   1) C  48 - H  95          0.00251     0.40742   
  1952. BD*(   1) C  48 - H  96          0.00520     0.40646   
  1953. BD*(   1) C  48 - H  97          0.00424     0.40888   
  1954. BD*(   1) C  49 - C  50          0.00795     0.33257   
  1955. BD*(   1) C  49 - H  98          0.00655     0.40071   
  1956. BD*(   1) C  49 - H  99          0.00635     0.41176   
  1957. BD*(   1) C  50 - C  51          0.03787     0.36022   
  1958. BD*(   1) C  50 - H 100          0.00512     0.39651   
  1959. BD*(   1) C  50 - H 101          0.00579     0.39464   
  1960. BD*(   1) C  51 - O  52          0.02218     0.54623   
  1961. BD*(   2) C  51 - O  52          0.08805     0.01533   
  1962. BD*(   1) C  51 - O  53          0.03631     0.50315   
  1963. BD*(   1) O  53 - H 102          0.00711     0.36633   
       -------------------------------
              Total Lewis  176.99152  ( 97.1694%)
        Valence non-Lewis    4.81986  (  2.6461%)
        Rydberg non-Lewis    0.33605  (  0.1845%)
       -------------------------------
            Total unit  2  182.14744  (100.0000%)
           Charge unit  2    1.85256
 1\1\GINC-NODE501\SP\UPBE1PBE\def2TZVP\C41H50Fe1N6O4S1(5)\KLEICH\06-Sep
 -2022\0\\# PBE1PBE/def2TZVP empiricaldispersion=GD3BJ int=(grid=ultraf
 ine) geom=check pop=nbo\\1ctj_II_Q\\0,5\C,0,17.385,43.116,-18.171\C,0,
 16.646,44.283,-17.629\N,0,17.192,45.153,-16.726\C,0,15.354,44.655,-17.
 762\C,0,16.223,46.009,-16.352\N,0,15.105,45.741,-16.934\C,0,11.228,50.
 126,-17.291\C,0,10.692,48.716,-17.503\S,0,11.192,47.599,-16.165\C,0,9.
 859,46.393,-16.206\Fe,0,13.258,46.586,-16.683\C,0,14.112,48.106,-13.77
 7\C,0,12.342,43.796,-14.983\C,0,12.062,45.238,-19.575\C,0,14.539,49.17
 9,-18.442\N,0,13.269,46.034,-14.737\C,0,13.692,46.802,-13.682\C,0,13.5
 46,46.034,-12.457\C,0,13.036,44.844,-12.789\C,0,12.842,44.823,-14.225\
 C,0,12.674,43.689,-11.857\C,0,14.032,46.507,-11.078\C,0,15.559,46.477,
 -10.964\C,0,16.109,47.3,-9.807\O,0,17.303,47.008,-9.454\O,0,15.414,48.
 196,-9.329\N,0,12.373,44.867,-17.193\C,0,12.092,43.817,-16.329\C,0,11.
 458,42.747,-17.065\C,0,11.319,43.178,-18.339\C,0,11.877,44.496,-18.421
 \C,0,11.118,41.373,-16.491\C,0,10.705,42.45,-19.528\C,0,9.207,42.154,-
 19.34\N,0,13.301,47.115,-18.61\C,0,12.79,46.403,-19.667\C,0,13.156,47.
 044,-20.932\C,0,13.92,48.097,-20.624\C,0,13.987,48.168,-19.179\C,0,12.
 755,46.497,-22.32\C,0,14.747,49.003,-21.545\C,0,13.915,49.773,-22.585\
 N,0,14.091,48.302,-16.212\C,0,14.53,49.3,-17.081\C,0,14.947,50.46,-16.
 332\C,0,14.756,50.189,-15.024\C,0,14.305,48.819,-14.945\C,0,15.368,51.
 794,-16.965\C,0,14.943,51.157,-13.855\C,0,13.661,51.997,-13.611\C,0,13
 .865,53.009,-12.515\O,0,14.074,52.625,-11.351\O,0,13.718,54.197,-12.86
 2\H,0,17.58804681,43.27348459,-19.20968696\H,0,18.30719827,43.00025896
 ,-17.6408544\H,0,16.79265016,42.23272905,-18.05329656\H,0,18.13828841,
 45.15312787,-16.40267629\H,0,14.63681319,44.18698821,-18.40348892\H,0,
 16.36341726,46.8114914,-15.65832101\H,0,11.17812751,50.66872246,-18.21
 179589\H,0,10.63763839,50.62444342,-16.55077887\H,0,12.24474083,50.075
 27162,-16.9615084\H,0,11.15969794,48.34762147,-18.39207587\H,0,9.62580
 296,48.78911841,-17.45029742\H,0,10.14001742,45.53129306,-15.63732579\
 H,0,9.66920482,46.10545759,-17.21901389\H,0,8.97452668,46.82457433,-15
 .78605888\H,0,14.30862979,48.61907374,-12.85885401\H,0,12.1244658,42.8
 8294577,-14.46927745\H,0,11.60078485,44.87594842,-20.47004148\H,0,15.0
 2955358,49.95714664,-18.9885757\H,0,12.50518782,42.80417847,-12.434488
 79\H,0,11.78600637,43.9346192,-11.31290579\H,0,13.4772518,43.51921094,
 -11.1708089\H,0,13.66546159,45.79258497,-10.37077955\H,0,13.74644303,4
 7.53500383,-10.99697323\H,0,15.92701028,46.94302578,-11.85410584\H,0,1
 5.81523066,45.46108477,-10.74683164\H,0,10.38304623,40.90038838,-17.10
 85607\H,0,10.73146261,41.48628266,-15.49970999\H,0,12.00130869,40.7697
 9158,-16.46262126\H,0,11.19095593,41.49786943,-19.57484249\H,0,10.7713
 8306,43.12579409,-20.35491937\H,0,8.65935996,42.54257751,-20.17306536\
 H,0,9.05758506,41.0963582,-19.277\H,0,8.86221801,42.61720064,-18.43918
 34\H,0,12.96412465,47.23339021,-23.0675937\H,0,13.31379432,45.60859605
 ,-22.52829625\H,0,11.70933841,46.27014788,-22.32547351\H,0,15.37919241
 ,48.34722466,-22.10641914\H,0,15.17851579,49.74753713,-20.90910804\H,0
 ,14.46884204,50.62228183,-22.92687624\H,0,13.69776571,49.13176613,-23.
 41357008\H,0,12.99971915,50.10050287,-22.13789505\H,0,15.41269502,52.5
 4938278,-16.2084954\H,0,16.33125485,51.68553259,-17.41807274\H,0,14.65
 343743,52.07672516,-17.70955814\H,0,15.7043967,51.84720662,-14.1529763
 1\H,0,15.07973135,50.55369181,-12.98194573\H,0,12.91693527,51.31477247
 ,-13.25627012\H,0,13.49117691,52.55481909,-14.50816106\H,0,14.4869676,
 54.74865685,-13.02313209\H,0,15.82900403,48.9597727,-8.9215409\\Versio
 n=ES64L-G16RevA.03\State=5-A\HF=-3881.8732608\S2=6.206934\S2-1=0.\S2A=
 6.001924\RMSD=1.368e-09\Dipole=0.6770678,0.0492041,-2.1180856\Quadrupo
 le=0.4007491,21.6137742,-22.0145233,6.8132394,-12.7048911,-0.5626998\P
 G=C01 [X(C41H50Fe1N6O4S1)]\\@


 IF I AM NOT FOR MYSELF, WHO WILL BE?
 BUT IF I AM ONLY FOR MYSELF, WHAT AM I?
 THOUGH A SEEKER SINCE MY BIRTH,
 HERE IS ALL I'VE LEARNED ON EARTH,
 THIS IS THE GIST OF WHAT I KNOW:
 GIVE ADVICE AND BUY A FOE.

 PRESSED FOR RULES AND VERITIES,
 ALL I RECOLLECT ARE THESE:
 FEED A COLD TO STARVE A FEVER,
 ARGUE WITH NO TRUE-BELIEVER.
 THINK-TOO-LONG IS NEVER-ACT,
 SCRATCH A MYTH AND FIND A FACT.

 STITCH IN TIME SAVES TWENTY STITCHES,
 GIVE THE RICH TO PLEASE THEM, RICHES.
 GIVE TO LOVE YOU HEARTH AND HALL,
 BUT DO NOT GIVE ADVICE AT ALL.

                                  -- HILLEL
 Job cpu time:       6 days  6 hours 57 minutes 43.5 seconds.
 Elapsed time:       1 days 13 hours 52 minutes 40.6 seconds.
 File lengths (MBytes):  RWF=   3538 Int=      0 D2E=      0 Chk=    310 Scr=      1
 Normal termination of Gaussian 16 at Tue Sep  6 10:37:25 2022.
