 Initial command:
 /afs/math/software/gaussian/g16.A03/g16/l1.exe "/scratch/kleich_gaussian.AUGg7qv/Gau-23544.inp" -scrdir="/scratch/kleich_gaussian.AUGg7qv/"
 Entering Link 1 = /afs/math/software/gaussian/g16.A03/g16/l1.exe PID=      7076.
  
 Copyright (c) 1988,1990,1992,1993,1995,1998,2003,2009,2016,
            Gaussian, Inc.  All Rights Reserved.
  
 This is part of the Gaussian(R) 16 program.  It is based on
 the Gaussian(R) 09 system (copyright 2009, Gaussian, Inc.),
 the Gaussian(R) 03 system (copyright 2003, Gaussian, Inc.),
 the Gaussian(R) 98 system (copyright 1998, Gaussian, Inc.),
 the Gaussian(R) 94 system (copyright 1995, Gaussian, Inc.),
 the Gaussian 92(TM) system (copyright 1992, Gaussian, Inc.),
 the Gaussian 90(TM) system (copyright 1990, Gaussian, Inc.),
 the Gaussian 88(TM) system (copyright 1988, Gaussian, Inc.),
 the Gaussian 86(TM) system (copyright 1986, Carnegie Mellon
 University), and the Gaussian 82(TM) system (copyright 1983,
 Carnegie Mellon University). Gaussian is a federally registered
 trademark of Gaussian, Inc.
  
 This software contains proprietary and confidential information,
 including trade secrets, belonging to Gaussian, Inc.
  
 This software is provided under written license and may be
 used, copied, transmitted, or stored only in accord with that
 written license.
  
 The following legend is applicable only to US Government
 contracts under FAR:
  
                    RESTRICTED RIGHTS LEGEND
  
 Use, reproduction and disclosure by the US Government is
 subject to restrictions as set forth in subparagraphs (a)
 and (c) of the Commercial Computer Software - Restricted
 Rights clause in FAR 52.227-19.
  
 Gaussian, Inc.
 340 Quinnipiac St., Bldg. 40, Wallingford CT 06492
  
  
 ---------------------------------------------------------------
 Warning -- This program may not be used in any manner that
 competes with the business of Gaussian, Inc. or will provide
 assistance to any competitor of Gaussian, Inc.  The licensee
 of this program is prohibited from giving any competitor of
 Gaussian, Inc. access to this program.  By using this program,
 the user acknowledges that Gaussian, Inc. is engaged in the
 business of creating and licensing software in the field of
 computational chemistry and represents and warrants to the
 licensee that it is not a competitor of Gaussian, Inc. and that
 it will not use this program in any manner prohibited above.
 ---------------------------------------------------------------
  

 Cite this work as:
 Gaussian 16, Revision A.03,
 M. J. Frisch, G. W. Trucks, H. B. Schlegel, G. E. Scuseria, 
 M. A. Robb, J. R. Cheeseman, G. Scalmani, V. Barone, 
 G. A. Petersson, H. Nakatsuji, X. Li, M. Caricato, A. V. Marenich, 
 J. Bloino, B. G. Janesko, R. Gomperts, B. Mennucci, H. P. Hratchian, 
 J. V. Ortiz, A. F. Izmaylov, J. L. Sonnenberg, D. Williams-Young, 
 F. Ding, F. Lipparini, F. Egidi, J. Goings, B. Peng, A. Petrone, 
 T. Henderson, D. Ranasinghe, V. G. Zakrzewski, J. Gao, N. Rega, 
 G. Zheng, W. Liang, M. Hada, M. Ehara, K. Toyota, R. Fukuda, 
 J. Hasegawa, M. Ishida, T. Nakajima, Y. Honda, O. Kitao, H. Nakai, 
 T. Vreven, K. Throssell, J. A. Montgomery, Jr., J. E. Peralta, 
 F. Ogliaro, M. J. Bearpark, J. J. Heyd, E. N. Brothers, K. N. Kudin, 
 V. N. Staroverov, T. A. Keith, R. Kobayashi, J. Normand, 
 K. Raghavachari, A. P. Rendell, J. C. Burant, S. S. Iyengar, 
 J. Tomasi, M. Cossi, J. M. Millam, M. Klene, C. Adamo, R. Cammi, 
 J. W. Ochterski, R. L. Martin, K. Morokuma, O. Farkas, 
 J. B. Foresman, and D. J. Fox, Gaussian, Inc., Wallingford CT, 2016.
 
 ******************************************
 Gaussian 16:  ES64L-G16RevA.03 25-Dec-2016
                11-Sep-2022 
 ******************************************
 %nprocs=12
 Will use up to   12 processors via shared memory.
 %mem=16GB
 %chk=1ctj_III_H.chk
 ----------------------------------------------------------------------
 # PBE1PBE/def2TZVP empiricaldispersion=GD3BJ int=(grid=ultrafine) geom
 =check guess=read scrf=(smd,solvent=Chloroform)
 ----------------------------------------------------------------------
 1/29=2,38=1,172=1/1;
 2/12=2,40=1/2;
 3/5=44,7=101,11=2,14=-4,25=1,30=1,70=32201,72=7,74=-13,75=-5,116=-2,124=41/1,2,3;
 4/5=1/1;
 5/5=2,38=6,53=7/2;
 6/7=2,8=2,9=2,10=2,28=1/1;
 99/5=1,9=1/99;
 ---------------
 1ctj_III_H_solv
 ---------------
 Structure from the checkpoint file:  "1ctj_III_H.chk"
 Charge =  1 Multiplicity = 6
 Z-Matrix found in chk file.
 C,0,17.385,43.116,-18.171
 C,0,16.646,44.283,-17.629
 N,0,17.192,45.153,-16.726
 C,0,15.354,44.655,-17.762
 C,0,16.223,46.009,-16.352
 N,0,15.105,45.741,-16.934
 C,0,11.228,50.126,-17.291
 C,0,10.692,48.716,-17.503
 S,0,11.192,47.599,-16.165
 C,0,9.859,46.393,-16.206
 Fe,0,13.258,46.586,-16.683
 C,0,14.112,48.106,-13.777
 C,0,12.342,43.796,-14.983
 C,0,12.062,45.238,-19.575
 C,0,14.539,49.179,-18.442
 N,0,13.269,46.034,-14.737
 C,0,13.692,46.802,-13.682
 C,0,13.546,46.034,-12.457
 C,0,13.036,44.844,-12.789
 C,0,12.842,44.823,-14.225
 C,0,12.674,43.689,-11.857
 C,0,14.032,46.507,-11.078
 C,0,15.559,46.477,-10.964
 C,0,16.109,47.3,-9.807
 O,0,17.303,47.008,-9.454
 O,0,15.414,48.196,-9.329
 N,0,12.373,44.867,-17.193
 C,0,12.092,43.817,-16.329
 C,0,11.458,42.747,-17.065
 C,0,11.319,43.178,-18.339
 C,0,11.877,44.496,-18.421
 C,0,11.118,41.373,-16.491
 C,0,10.705,42.45,-19.528
 C,0,9.207,42.154,-19.34
 N,0,13.301,47.115,-18.61
 C,0,12.79,46.403,-19.667
 C,0,13.156,47.044,-20.932
 C,0,13.92,48.097,-20.624
 C,0,13.987,48.168,-19.179
 C,0,12.755,46.497,-22.32
 C,0,14.747,49.003,-21.545
 C,0,13.915,49.773,-22.585
 N,0,14.091,48.302,-16.212
 C,0,14.53,49.3,-17.081
 C,0,14.947,50.46,-16.332
 C,0,14.756,50.189,-15.024
 C,0,14.305,48.819,-14.945
 C,0,15.368,51.794,-16.965
 C,0,14.943,51.157,-13.855
 C,0,13.661,51.997,-13.611
 C,0,13.865,53.009,-12.515
 O,0,14.074,52.625,-11.351
 O,0,13.718,54.197,-12.862
 H,0,17.58804681,43.27348459,-19.20968696
 H,0,18.30719827,43.00025896,-17.6408544
 H,0,16.79265016,42.23272905,-18.05329656
 H,0,18.13828841,45.15312787,-16.40267629
 H,0,14.63681319,44.18698821,-18.40348892
 H,0,16.36341726,46.8114914,-15.65832101
 H,0,11.17812751,50.66872246,-18.21179589
 H,0,10.63763839,50.62444342,-16.55077887
 H,0,12.24474083,50.07527162,-16.9615084
 H,0,11.15969794,48.34762147,-18.39207587
 H,0,9.62580296,48.78911841,-17.45029742
 H,0,10.14001742,45.53129306,-15.63732579
 H,0,9.66920482,46.10545759,-17.21901389
 H,0,8.97452668,46.82457433,-15.78605888
 H,0,14.30862979,48.61907374,-12.85885401
 H,0,12.1244658,42.88294577,-14.46927745
 H,0,11.60078485,44.87594842,-20.47004148
 H,0,15.02955358,49.95714664,-18.9885757
 H,0,12.50518782,42.80417847,-12.43448879
 H,0,11.78600637,43.9346192,-11.31290579
 H,0,13.4772518,43.51921094,-11.1708089
 H,0,13.66546159,45.79258497,-10.37077955
 H,0,13.74644303,47.53500383,-10.99697323
 H,0,15.92701028,46.94302578,-11.85410584
 H,0,15.81523066,45.46108477,-10.74683164
 H,0,10.38304623,40.90038838,-17.1085607
 H,0,10.73146261,41.48628266,-15.49970999
 H,0,12.00130869,40.76979158,-16.46262126
 H,0,11.19095593,41.49786943,-19.57484249
 H,0,10.77138306,43.12579409,-20.35491937
 H,0,8.65935996,42.54257751,-20.17306536
 H,0,9.05758506,41.0963582,-19.277
 H,0,8.86221801,42.61720064,-18.4391834
 H,0,12.96412465,47.23339021,-23.0675937
 H,0,13.31379432,45.60859605,-22.52829625
 H,0,11.70933841,46.27014788,-22.32547351
 H,0,15.37919241,48.34722466,-22.10641914
 H,0,15.17851579,49.74753713,-20.90910804
 H,0,14.46884204,50.62228183,-22.92687624
 H,0,13.69776571,49.13176613,-23.41357008
 H,0,12.99971915,50.10050287,-22.13789505
 H,0,15.41269502,52.54938278,-16.2084954
 H,0,16.33125485,51.68553259,-17.41807274
 H,0,14.65343743,52.07672516,-17.70955814
 H,0,15.7043967,51.84720662,-14.15297631
 H,0,15.07973135,50.55369181,-12.98194573
 H,0,12.91693527,51.31477247,-13.25627012
 H,0,13.49117691,52.55481909,-14.50816106
 H,0,14.4869676,54.74865685,-13.02313209
 H,0,15.82900403,48.9597727,-8.9215409
 Recover connectivity data from disk.
 Stoichiometry    C41H50FeN6O4S(1+,6)
 Framework group  C1[X(C41H50FeN6O4S)]
 Deg. of freedom   303
 Full point group                 C1      NOp   1
 Largest Abelian subgroup         C1      NOp   1
 Largest concise Abelian subgroup C1      NOp   1
                         Standard orientation:                         
 ---------------------------------------------------------------------
 Center     Atomic      Atomic             Coordinates (Angstroms)
 Number     Number       Type             X           Y           Z
 ---------------------------------------------------------------------
      1          6           0        2.732842   -1.806351    4.866406
      2          6           0        1.865983   -1.204270    3.823416
      3          7           0        0.532504   -0.966886    4.012910
      4          6           0        2.111084   -0.907844    2.528273
      5          6           0        0.027008   -0.539774    2.840893
      6          7           0        0.929825   -0.502531    1.922195
      7          6           0       -0.116658    3.046120   -2.627393
      8          6           0        0.947675    1.974047   -2.822824
      9         16           0        0.339272    0.330616   -2.357081
     10          6           0        1.365063   -0.723098   -3.391704
     11         26           0        0.758187   -0.072001   -0.071199
     12          6           0       -2.613036   -0.417539   -0.074510
     13          6           0        1.123113   -3.386568   -0.698599
     14          6           0        4.115420    0.384435   -0.434289
     15          6           0        0.450783    3.138183    0.957836
     16          7           0       -0.513403   -1.628607   -0.298750
     17          6           0       -1.882390   -1.569231   -0.234513
     18          6           0       -2.418047   -2.904268   -0.440699
     19          6           0       -1.381717   -3.725970   -0.633701
     20          6           0       -0.165795   -2.941041   -0.558905
     21          6           0       -1.418561   -5.226516   -0.917778
     22          6           0       -3.906093   -3.266769   -0.314700
     23          6           0       -4.380155   -3.256343    1.141591
     24          6           0       -5.893673   -3.201405    1.298829
     25          8           0       -6.332790   -3.563402    2.444099
     26          8           0       -6.575646   -2.782577    0.364046
     27          7           0        2.318344   -1.251409   -0.487365
     28          6           0        2.258856   -2.621892   -0.702296
     29          6           0        3.588049   -3.123950   -0.966370
     30          6           0        4.417690   -2.056341   -0.958302
     31          6           0        3.633096   -0.891520   -0.670524
     32          6           0        3.950299   -4.599677   -1.121154
     33          6           0        5.922820   -2.019324   -1.190498
     34          6           0        6.320954   -2.466809   -2.607612
     35          7           0        2.012715    1.458471    0.209569
     36          6           0        3.376325    1.440448    0.049702
     37          6           0        3.954638    2.708308    0.500422
     38          6           0        2.944580    3.447766    0.969842
     39          6           0        1.727827    2.690476    0.761084
     40          6           0        5.467311    3.020727    0.472745
     41          6           0        2.984404    4.768057    1.749747
     42          6           0        3.625533    5.935881    0.980419
     43          7           0       -0.755453    1.123677    0.302477
     44          6           0       -0.705369    2.464634    0.680910
     45          6           0       -2.036514    3.019017    0.715602
     46          6           0       -2.892932    2.041892    0.351511
     47          6           0       -2.106039    0.843079    0.177757
     48          6           0       -2.351093    4.500680    0.966999
     49          6           0       -4.398912    2.185330    0.127897
     50          6           0       -4.709694    2.652631   -1.319067
     51          6           0       -6.184974    2.874719   -1.522047
     52          8           0       -6.969615    1.912679   -1.452403
     53          8           0       -6.503094    4.037156   -1.839699
     54          1           0        3.430387   -1.074434    5.216587
     55          1           0        2.128023   -2.141943    5.682784
     56          1           0        3.265209   -2.636840    4.451950
     57          1           0        0.025647   -1.088438    4.866327
     58          1           0        3.064081   -0.974839    2.046394
     59          1           0       -0.996301   -0.265517    2.690821
     60          1           0        0.346116    4.010834   -2.619210
     61          1           0       -0.824059    2.996666   -3.428666
     62          1           0       -0.619659    2.883926   -1.697026
     63          1           0        1.737156    2.206715   -2.139095
     64          1           0        1.144452    1.934518   -3.873831
     65          1           0        1.295553   -1.734738   -3.050159
     66          1           0        2.382497   -0.396696   -3.335226
     67          1           0        1.027574   -0.664912   -4.405418
     68          1           0       -3.676628   -0.504542   -0.152633
     69          1           0        1.255329   -4.441737   -0.817077
     70          1           0        5.148722    0.565008   -0.645430
     71          1           0        0.345872    4.119091    1.372217
     72          1           0       -0.437189   -5.636136   -0.799370
     73          1           0       -1.755458   -5.391645   -1.919842
     74          1           0       -2.088842   -5.702786   -0.233095
     75          1           0       -3.996734   -4.278421   -0.651219
     76          1           0       -4.446478   -2.487589   -0.810444
     77          1           0       -4.010079   -2.344703    1.562134
     78          1           0       -4.078231   -4.196723    1.553208
     79          1           0        4.891163   -4.685186   -1.623512
     80          1           0        3.193920   -5.094432   -1.693873
     81          1           0        4.019585   -5.053212   -0.154507
     82          1           0        6.342858   -2.742533   -0.523089
     83          1           0        6.208642   -0.991057   -1.113865
     84          1           0        6.925558   -1.710915   -3.063657
     85          1           0        6.874951   -3.380454   -2.550680
     86          1           0        5.439249   -2.620279   -3.194079
     87          1           0        5.619725    4.063043    0.660484
     88          1           0        5.964015    2.446198    1.226470
     89          1           0        5.865910    2.769328   -0.487889
     90          1           0        3.621335    4.589643    2.590811
     91          1           0        1.962566    5.046547    1.902026
     92          1           0        3.301553    6.863158    1.404791
     93          1           0        4.691054    5.865512    1.048344
     94          1           0        3.329912    5.891216   -0.046963
     95          1           0       -3.374719    4.694367    0.722919
     96          1           0       -2.180337    4.731653    1.997724
     97          1           0       -1.717449    5.108563    0.355548
     98          1           0       -4.727262    2.970682    0.776209
     99          1           0       -4.813582    1.203650    0.224081
    100          1           0       -4.435744    1.842757   -1.962461
    101          1           0       -4.242686    3.608491   -1.433678
    102          1           0       -6.869299    4.631627   -1.180839
    103          1           0       -7.419879   -2.359755    0.537515
 ---------------------------------------------------------------------
 Rotational constants (GHZ):           0.0649040           0.0437769           0.0340286
 Standard basis: def2TZVP (5D, 7F)
 There are  2230 symmetry adapted cartesian basis functions of A   symmetry.
 There are  1963 symmetry adapted basis functions of A   symmetry.
  1963 basis functions,  3172 primitive gaussians,  2230 cartesian basis functions
   208 alpha electrons      203 beta electrons
       nuclear repulsion energy      9034.5792672667 Hartrees.
 NAtoms=  103 NActive=  103 NUniq=  103 SFac= 1.00D+00 NAtFMM=   60 NAOKFM=T Big=T
 Integral buffers will be    131072 words long.
 Raffenetti 2 integral format.
 Two-electron integral symmetry is turned on.
 Nuclear repulsion after empirical dispersion term =     9034.4274506152 Hartrees.
 ------------------------------------------------------------------------------
 Polarizable Continuum Model (PCM)
 =================================
 Model                : PCM.
 Atomic radii         : SMD-Coulomb.
 Polarization charges : Total charges.
 Charge compensation  : None.
 Solution method      : On-the-fly selection.
 Cavity type          : VdW (van der Waals Surface) (Alpha=1.000).
 Cavity algorithm     : GePol (No added spheres)
                        Default sphere list used, NSphG=  103.
                        Lebedev-Laikov grids with approx.  5.0 points / Ang**2.
                        Smoothing algorithm: York/Karplus (Gamma=1.0000).
                        Polarization charges: spherical gaussians, with
                                              point-specific exponents (IZeta= 3).
                        Self-potential: point-specific (ISelfS= 7).
                        Self-field    : sphere-specific E.n sum rule (ISelfD= 2).
 Solvent              : Chloroform, Eps=   4.711300 Eps(inf)=   2.090627
 ------------------------------------------------------------------------------
 ------------------------------------------------------------------------------
 Atomic radii for non-electrostatic terms: SMD-CDS.
 ------------------------------------------------------------------------------
 Nuclear repulsion after PCM non-electrostatic terms =     9034.4065892945 Hartrees.
 One-electron integrals computed using PRISM.
   1 Symmetry operations used in ECPInt.
 ECPInt:  NShTT=  311655 NPrTT=  958403 LenC2=  228098 LenP2D=  454103.
 LDataN:  DoStor=T MaxTD1= 6 Len=  172
 NBasis=  1963 RedAO= T EigKep=  2.80D-06  NBF=  1963
 NBsUse=  1963 1.00D-06 EigRej= -1.00D+00 NBFU=  1963
 Initial guess from the checkpoint file:  "1ctj_III_H.chk"
 B after Tr=     0.000000   -0.000000    0.000000
         Rot=    1.000000   -0.000000    0.000000    0.000000 Ang=   0.00 deg.
 Initial guess <Sx>= 0.0000 <Sy>= 0.0000 <Sz>= 2.5000 <S**2>= 8.7601 S= 2.5017
 Requested convergence on RMS density matrix=1.00D-08 within 128 cycles.
 Requested convergence on MAX density matrix=1.00D-06.
 Requested convergence on             energy=1.00D-06.
 No special actions if energy rises.
 Inv3:  Mode=1 IEnd=   149869872.
 Iteration    1 A*A^-1 deviation from unit magnitude is 1.39D-14 for   7066.
 Iteration    1 A*A^-1 deviation from orthogonality  is 4.19D-15 for   5984   1177.
 Iteration    1 A^-1*A deviation from unit magnitude is 1.37D-14 for   7066.
 Iteration    1 A^-1*A deviation from orthogonality  is 1.79D-14 for   3449   3426.
 Error on total polarization charges =  0.08176
 SCF Done:  E(UPBE1PBE) =  -3881.80172759     A.U. after   16 cycles
            NFock= 16  Conv=0.51D-08     -V/T= 2.0028
 <Sx>= 0.0000 <Sy>= 0.0000 <Sz>= 2.5000 <S**2>= 8.7599 S= 2.5017
 <L.S>= 0.000000000000E+00
 SMD-CDS (non-electrostatic) energy       (kcal/mol) =     -13.09
 (included in total energy above)
 Annihilation of the first spin contaminant:
 S**2 before annihilation     8.7599,   after     8.7500
 Hyperfine terms turned off by default for NAtoms > 100.

 **********************************************************************

            Population analysis using the SCF density.

 **********************************************************************

 Orbital symmetries:
 Alpha Orbitals:
       Occupied  (A) (A) (A) (A) (A) (A) (A) (A) (A) (A) (A) (A)
                 (A) (A) (A) (A) (A) (A) (A) (A) (A) (A) (A) (A)
                 (A) (A) (A) (A) (A) (A) (A) (A) (A) (A) (A) (A)
                 (A) (A) (A) (A) (A) (A) (A) (A) (A) (A) (A) (A)
                 (A) (A) (A) (A) (A) (A) (A) (A) (A) (A) (A) (A)
                 (A) (A) (A) (A) (A) (A) (A) (A) (A) (A) (A) (A)
                 (A) (A) (A) (A) (A) (A) (A) (A) (A) (A) (A) (A)
                 (A) (A) (A) (A) (A) (A) (A) (A) (A) (A) (A) (A)
                 (A) (A) (A) (A) (A) (A) (A) (A) (A) (A) (A) (A)
                 (A) (A) (A) (A) (A) (A) (A) (A) (A) (A) (A) (A)
                 (A) (A) (A) (A) (A) (A) (A) (A) (A) (A) (A) (A)
                 (A) (A) (A) (A) (A) (A) (A) (A) (A) (A) (A) (A)
                 (A) (A) (A) (A) (A) (A) (A) (A) (A) (A) (A) (A)
                 (A) (A) (A) (A) (A) (A) (A) (A) (A) (A) (A) (A)
                 (A) (A) (A) (A) (A) (A) (A) (A) (A) (A) (A) (A)
                 (A) (A) (A) (A) (A) (A) (A) (A) (A) (A) (A) (A)
                 (A) (A) (A) (A) (A) (A) (A) (A) (A) (A) (A) (A)
                 (A) (A) (A) (A)
       Virtual   (A) (A) (A) (A) (A) (A) (A) (A) (A) (A) (A) (A)
                 (A) (A) (A) (A) (A) (A) (A) (A) (A) (A) (A) (A)
                 (A) (A) (A) (A) (A) (A) (A) (A) (A) (A) (A) (A)
                 (A) (A) (A) (A) (A) (A) (A) (A) (A) (A) (A) (A)
                 (A) (A) (A) (A) (A) (A) (A) (A) (A) (A) (A) (A)
                 (A) (A) (A) (A) (A) (A) (A) (A) (A) (A) (A) (A)
                 (A) (A) (A) (A) (A) (A) (A) (A) (A) (A) (A) (A)
                 (A) (A) (A) (A) (A) (A) (A) (A) (A) (A) (A) (A)
                 (A) (A) (A) (A) (A) (A) (A) (A) (A) (A) (A) (A)
                 (A) (A) (A) (A) (A) (A) (A) (A) (A) (A) (A) (A)
                 (A) (A) (A) (A) (A) (A) (A) (A) (A) (A) (A) (A)
                 (A) (A) (A) (A) (A) (A) (A) (A) (A) (A) (A) (A)
                 (A) (A) (A) (A) (A) (A) (A) (A) (A) (A) (A) (A)
                 (A) (A) (A) (A) (A) (A) (A) (A) (A) (A) (A) (A)
                 (A) (A) (A) (A) (A) (A) (A) (A) (A) (A) (A) (A)
                 (A) (A) (A) (A) (A) (A) (A) (A) (A) (A) (A) (A)
                 (A) (A) (A) (A) (A) (A) (A) (A) (A) (A) (A) (A)
                 (A) (A) (A) (A) (A) (A) (A) (A) (A) (A) (A) (A)
                 (A) (A) (A) (A) (A) (A) (A) (A) (A) (A) (A) (A)
                 (A) (A) (A) (A) (A) (A) (A) (A) (A) (A) (A) (A)
                 (A) (A) (A) (A) (A) (A) (A) (A) (A) (A) (A) (A)
                 (A) (A) (A) (A) (A) (A) (A) (A) (A) (A) (A) (A)
                 (A) (A) (A) (A) (A) (A) (A) (A) (A) (A) (A) (A)
                 (A) (A) (A) (A) (A) (A) (A) (A) (A) (A) (A) (A)
                 (A) (A) (A) (A) (A) (A) (A) (A) (A) (A) (A) (A)
                 (A) (A) (A) (A) (A) (A) (A) (A) (A) (A) (A) (A)
                 (A) (A) (A) (A) (A) (A) (A) (A) (A) (A) (A) (A)
                 (A) (A) (A) (A) (A) (A) (A) (A) (A) (A) (A) (A)
                 (A) (A) (A) (A) (A) (A) (A) (A) (A) (A) (A) (A)
                 (A) (A) (A) (A) (A) (A) (A) (A) (A) (A) (A) (A)
                 (A) (A) (A) (A) (A) (A) (A) (A) (A) (A) (A) (A)
                 (A) (A) (A) (A) (A) (A) (A) (A) (A) (A) (A) (A)
                 (A) (A) (A) (A) (A) (A) (A) (A) (A) (A) (A) (A)
                 (A) (A) (A) (A) (A) (A) (A) (A) (A) (A) (A) (A)
                 (A) (A) (A) (A) (A) (A) (A) (A) (A) (A) (A) (A)
                 (A) (A) (A) (A) (A) (A) (A) (A) (A) (A) (A) (A)
                 (A) (A) (A) (A) (A) (A) (A) (A) (A) (A) (A) (A)
                 (A) (A) (A) (A) (A) (A) (A) (A) (A) (A) (A) (A)
                 (A) (A) (A) (A) (A) (A) (A) (A) (A) (A) (A) (A)
                 (A) (A) (A) (A) (A) (A) (A) (A) (A) (A) (A) (A)
                 (A) (A) (A) (A) (A) (A) (A) (A) (A) (A) (A) (A)
                 (A) (A) (A) (A) (A) (A) (A) (A) (A) (A) (A) (A)
                 (A) (A) (A) (A) (A) (A) (A) (A) (A) (A) (A) (A)
                 (A) (A) (A) (A) (A) (A) (A) (A) (A) (A) (A) (A)
                 (A) (A) (A) (A) (A) (A) (A) (A) (A) (A) (A) (A)
                 (A) (A) (A) (A) (A) (A) (A) (A) (A) (A) (A) (A)
                 (A) (A) (A) (A) (A) (A) (A) (A) (A) (A) (A) (A)
                 (A) (A) (A) (A) (A) (A) (A) (A) (A) (A) (A) (A)
                 (A) (A) (A) (A) (A) (A) (A) (A) (A) (A) (A) (A)
                 (A) (A) (A) (A) (A) (A) (A) (A) (A) (A) (A) (A)
                 (A) (A) (A) (A) (A) (A) (A) (A) (A) (A) (A) (A)
                 (A) (A) (A) (A) (A) (A) (A) (A) (A) (A) (A) (A)
                 (A) (A) (A) (A) (A) (A) (A) (A) (A) (A) (A) (A)
                 (A) (A) (A) (A) (A) (A) (A) (A) (A) (A) (A) (A)
                 (A) (A) (A) (A) (A) (A) (A) (A) (A) (A) (A) (A)
                 (A) (A) (A) (A) (A) (A) (A) (A) (A) (A) (A) (A)
                 (A) (A) (A) (A) (A) (A) (A) (A) (A) (A) (A) (A)
                 (A) (A) (A) (A) (A) (A) (A) (A) (A) (A) (A) (A)
                 (A) (A) (A) (A) (A) (A) (A) (A) (A) (A) (A) (A)
                 (A) (A) (A) (A) (A) (A) (A) (A) (A) (A) (A) (A)
                 (A) (A) (A) (A) (A) (A) (A) (A) (A) (A) (A) (A)
                 (A) (A) (A) (A) (A) (A) (A) (A) (A) (A) (A) (A)
                 (A) (A) (A) (A) (A) (A) (A) (A) (A) (A) (A) (A)
                 (A) (A) (A) (A) (A) (A) (A) (A) (A) (A) (A) (A)
                 (A) (A) (A) (A) (A) (A) (A) (A) (A) (A) (A) (A)
                 (A) (A) (A) (A) (A) (A) (A) (A) (A) (A) (A) (A)
                 (A) (A) (A) (A) (A) (A) (A) (A) (A) (A) (A) (A)
                 (A) (A) (A) (A) (A) (A) (A) (A) (A) (A) (A) (A)
                 (A) (A) (A) (A) (A) (A) (A) (A) (A) (A) (A) (A)
                 (A) (A) (A) (A) (A) (A) (A) (A) (A) (A) (A) (A)
                 (A) (A) (A) (A) (A) (A) (A) (A) (A) (A) (A) (A)
                 (A) (A) (A) (A) (A) (A) (A) (A) (A) (A) (A) (A)
                 (A) (A) (A) (A) (A) (A) (A) (A) (A) (A) (A) (A)
                 (A) (A) (A) (A) (A) (A) (A) (A) (A) (A) (A) (A)
                 (A) (A) (A) (A) (A) (A) (A) (A) (A) (A) (A) (A)
                 (A) (A) (A) (A) (A) (A) (A) (A) (A) (A) (A) (A)
                 (A) (A) (A) (A) (A) (A) (A) (A) (A) (A) (A) (A)
                 (A) (A) (A) (A) (A) (A) (A) (A) (A) (A) (A) (A)
                 (A) (A) (A) (A) (A) (A) (A) (A) (A) (A) (A) (A)
                 (A) (A) (A) (A) (A) (A) (A) (A) (A) (A) (A) (A)
                 (A) (A) (A) (A) (A) (A) (A) (A) (A) (A) (A) (A)
                 (A) (A) (A) (A) (A) (A) (A) (A) (A) (A) (A) (A)
                 (A) (A) (A) (A) (A) (A) (A) (A) (A) (A) (A) (A)
                 (A) (A) (A) (A) (A) (A) (A) (A) (A) (A) (A) (A)
                 (A) (A) (A) (A) (A) (A) (A) (A) (A) (A) (A) (A)
                 (A) (A) (A) (A) (A) (A) (A) (A) (A) (A) (A) (A)
                 (A) (A) (A) (A) (A) (A) (A) (A) (A) (A) (A) (A)
                 (A) (A) (A) (A) (A) (A) (A) (A) (A) (A) (A) (A)
                 (A) (A) (A) (A) (A) (A) (A) (A) (A) (A) (A) (A)
                 (A) (A) (A) (A) (A) (A) (A) (A) (A) (A) (A) (A)
                 (A) (A) (A) (A) (A) (A) (A) (A) (A) (A) (A) (A)
                 (A) (A) (A) (A) (A) (A) (A) (A) (A) (A) (A) (A)
                 (A) (A) (A) (A) (A) (A) (A) (A) (A) (A) (A) (A)
                 (A) (A) (A) (A) (A) (A) (A) (A) (A) (A) (A) (A)
                 (A) (A) (A) (A) (A) (A) (A) (A) (A) (A) (A) (A)
                 (A) (A) (A) (A) (A) (A) (A) (A) (A) (A) (A) (A)
                 (A) (A) (A) (A) (A) (A) (A) (A) (A) (A) (A) (A)
                 (A) (A) (A) (A) (A) (A) (A) (A) (A) (A) (A) (A)
                 (A) (A) (A) (A) (A) (A) (A) (A) (A) (A) (A) (A)
                 (A) (A) (A) (A) (A) (A) (A) (A) (A) (A) (A) (A)
                 (A) (A) (A) (A) (A) (A) (A) (A) (A) (A) (A) (A)
                 (A) (A) (A) (A) (A) (A) (A) (A) (A) (A) (A) (A)
                 (A) (A) (A) (A) (A) (A) (A) (A) (A) (A) (A) (A)
                 (A) (A) (A) (A) (A) (A) (A) (A) (A) (A) (A) (A)
                 (A) (A) (A) (A) (A) (A) (A) (A) (A) (A) (A) (A)
                 (A) (A) (A) (A) (A) (A) (A) (A) (A) (A) (A) (A)
                 (A) (A) (A) (A) (A) (A) (A) (A) (A) (A) (A) (A)
                 (A) (A) (A) (A) (A) (A) (A) (A) (A) (A) (A) (A)
                 (A) (A) (A) (A) (A) (A) (A) (A) (A) (A) (A) (A)
                 (A) (A) (A) (A) (A) (A) (A) (A) (A) (A) (A) (A)
                 (A) (A) (A) (A) (A) (A) (A) (A) (A) (A) (A) (A)
                 (A) (A) (A) (A) (A) (A) (A) (A) (A) (A) (A) (A)
                 (A) (A) (A) (A) (A) (A) (A) (A) (A) (A) (A) (A)
                 (A) (A) (A) (A) (A) (A) (A) (A) (A) (A) (A) (A)
                 (A) (A) (A) (A) (A) (A) (A) (A) (A) (A) (A) (A)
                 (A) (A) (A) (A) (A) (A) (A) (A) (A) (A) (A) (A)
                 (A) (A) (A) (A) (A) (A) (A) (A) (A) (A) (A) (A)
                 (A) (A) (A) (A) (A) (A) (A) (A) (A) (A) (A) (A)
                 (A) (A) (A) (A) (A) (A) (A) (A) (A) (A) (A) (A)
                 (A) (A) (A) (A) (A) (A) (A) (A) (A) (A) (A) (A)
                 (A) (A) (A) (A) (A) (A) (A) (A) (A) (A) (A) (A)
                 (A) (A) (A) (A) (A) (A) (A) (A) (A) (A) (A) (A)
                 (A) (A) (A) (A) (A) (A) (A) (A) (A) (A) (A) (A)
                 (A) (A) (A) (A) (A) (A) (A) (A) (A) (A) (A) (A)
                 (A) (A) (A) (A) (A) (A) (A) (A) (A) (A) (A) (A)
                 (A) (A) (A) (A) (A) (A) (A) (A) (A) (A) (A) (A)
                 (A) (A) (A) (A) (A) (A) (A) (A) (A) (A) (A) (A)
                 (A) (A) (A) (A) (A) (A) (A) (A) (A) (A) (A) (A)
                 (A) (A) (A) (A) (A) (A) (A) (A) (A) (A) (A) (A)
                 (A) (A) (A) (A) (A) (A) (A) (A) (A) (A) (A) (A)
                 (A) (A) (A) (A) (A) (A) (A) (A) (A) (A) (A) (A)
                 (A) (A) (A) (A) (A) (A) (A) (A) (A) (A) (A) (A)
                 (A) (A) (A) (A) (A) (A) (A) (A) (A) (A) (A) (A)
                 (A) (A) (A) (A) (A) (A) (A) (A) (A) (A) (A) (A)
                 (A) (A) (A) (A) (A) (A) (A) (A) (A) (A) (A) (A)
                 (A) (A) (A) (A) (A) (A) (A) (A) (A) (A) (A) (A)
                 (A) (A) (A) (A) (A) (A) (A) (A) (A) (A) (A) (A)
                 (A) (A) (A) (A) (A) (A) (A) (A) (A) (A) (A) (A)
                 (A) (A) (A) (A) (A) (A) (A) (A) (A) (A) (A) (A)
                 (A) (A) (A) (A) (A) (A) (A) (A) (A) (A) (A) (A)
                 (A) (A) (A) (A) (A) (A) (A) (A) (A) (A) (A) (A)
                 (A) (A) (A) (A) (A) (A) (A) (A) (A) (A) (A) (A)
                 (A) (A) (A) (A) (A) (A) (A) (A) (A) (A) (A) (A)
                 (A) (A) (A) (A) (A) (A) (A) (A) (A) (A) (A) (A)
                 (A) (A) (A) (A) (A) (A) (A) (A) (A) (A) (A) (A)
                 (A) (A) (A) (A) (A) (A) (A) (A) (A) (A) (A) (A)
                 (A) (A) (A)
 Beta  Orbitals:
       Occupied  (A) (A) (A) (A) (A) (A) (A) (A) (A) (A) (A) (A)
                 (A) (A) (A) (A) (A) (A) (A) (A) (A) (A) (A) (A)
                 (A) (A) (A) (A) (A) (A) (A) (A) (A) (A) (A) (A)
                 (A) (A) (A) (A) (A) (A) (A) (A) (A) (A) (A) (A)
                 (A) (A) (A) (A) (A) (A) (A) (A) (A) (A) (A) (A)
                 (A) (A) (A) (A) (A) (A) (A) (A) (A) (A) (A) (A)
                 (A) (A) (A) (A) (A) (A) (A) (A) (A) (A) (A) (A)
                 (A) (A) (A) (A) (A) (A) (A) (A) (A) (A) (A) (A)
                 (A) (A) (A) (A) (A) (A) (A) (A) (A) (A) (A) (A)
                 (A) (A) (A) (A) (A) (A) (A) (A) (A) (A) (A) (A)
                 (A) (A) (A) (A) (A) (A) (A) (A) (A) (A) (A) (A)
                 (A) (A) (A) (A) (A) (A) (A) (A) (A) (A) (A) (A)
                 (A) (A) (A) (A) (A) (A) (A) (A) (A) (A) (A) (A)
                 (A) (A) (A) (A) (A) (A) (A) (A) (A) (A) (A) (A)
                 (A) (A) (A) (A) (A) (A) (A) (A) (A) (A) (A) (A)
                 (A) (A) (A) (A) (A) (A) (A) (A) (A) (A) (A) (A)
                 (A) (A) (A) (A) (A) (A) (A) (A) (A) (A) (A)
       Virtual   (A) (A) (A) (A) (A) (A) (A) (A) (A) (A) (A) (A)
                 (A) (A) (A) (A) (A) (A) (A) (A) (A) (A) (A) (A)
                 (A) (A) (A) (A) (A) (A) (A) (A) (A) (A) (A) (A)
                 (A) (A) (A) (A) (A) (A) (A) (A) (A) (A) (A) (A)
                 (A) (A) (A) (A) (A) (A) (A) (A) (A) (A) (A) (A)
                 (A) (A) (A) (A) (A) (A) (A) (A) (A) (A) (A) (A)
                 (A) (A) (A) (A) (A) (A) (A) (A) (A) (A) (A) (A)
                 (A) (A) (A) (A) (A) (A) (A) (A) (A) (A) (A) (A)
                 (A) (A) (A) (A) (A) (A) (A) (A) (A) (A) (A) (A)
                 (A) (A) (A) (A) (A) (A) (A) (A) (A) (A) (A) (A)
                 (A) (A) (A) (A) (A) (A) (A) (A) (A) (A) (A) (A)
                 (A) (A) (A) (A) (A) (A) (A) (A) (A) (A) (A) (A)
                 (A) (A) (A) (A) (A) (A) (A) (A) (A) (A) (A) (A)
                 (A) (A) (A) (A) (A) (A) (A) (A) (A) (A) (A) (A)
                 (A) (A) (A) (A) (A) (A) (A) (A) (A) (A) (A) (A)
                 (A) (A) (A) (A) (A) (A) (A) (A) (A) (A) (A) (A)
                 (A) (A) (A) (A) (A) (A) (A) (A) (A) (A) (A) (A)
                 (A) (A) (A) (A) (A) (A) (A) (A) (A) (A) (A) (A)
                 (A) (A) (A) (A) (A) (A) (A) (A) (A) (A) (A) (A)
                 (A) (A) (A) (A) (A) (A) (A) (A) (A) (A) (A) (A)
                 (A) (A) (A) (A) (A) (A) (A) (A) (A) (A) (A) (A)
                 (A) (A) (A) (A) (A) (A) (A) (A) (A) (A) (A) (A)
                 (A) (A) (A) (A) (A) (A) (A) (A) (A) (A) (A) (A)
                 (A) (A) (A) (A) (A) (A) (A) (A) (A) (A) (A) (A)
                 (A) (A) (A) (A) (A) (A) (A) (A) (A) (A) (A) (A)
                 (A) (A) (A) (A) (A) (A) (A) (A) (A) (A) (A) (A)
                 (A) (A) (A) (A) (A) (A) (A) (A) (A) (A) (A) (A)
                 (A) (A) (A) (A) (A) (A) (A) (A) (A) (A) (A) (A)
                 (A) (A) (A) (A) (A) (A) (A) (A) (A) (A) (A) (A)
                 (A) (A) (A) (A) (A) (A) (A) (A) (A) (A) (A) (A)
                 (A) (A) (A) (A) (A) (A) (A) (A) (A) (A) (A) (A)
                 (A) (A) (A) (A) (A) (A) (A) (A) (A) (A) (A) (A)
                 (A) (A) (A) (A) (A) (A) (A) (A) (A) (A) (A) (A)
                 (A) (A) (A) (A) (A) (A) (A) (A) (A) (A) (A) (A)
                 (A) (A) (A) (A) (A) (A) (A) (A) (A) (A) (A) (A)
                 (A) (A) (A) (A) (A) (A) (A) (A) (A) (A) (A) (A)
                 (A) (A) (A) (A) (A) (A) (A) (A) (A) (A) (A) (A)
                 (A) (A) (A) (A) (A) (A) (A) (A) (A) (A) (A) (A)
                 (A) (A) (A) (A) (A) (A) (A) (A) (A) (A) (A) (A)
                 (A) (A) (A) (A) (A) (A) (A) (A) (A) (A) (A) (A)
                 (A) (A) (A) (A) (A) (A) (A) (A) (A) (A) (A) (A)
                 (A) (A) (A) (A) (A) (A) (A) (A) (A) (A) (A) (A)
                 (A) (A) (A) (A) (A) (A) (A) (A) (A) (A) (A) (A)
                 (A) (A) (A) (A) (A) (A) (A) (A) (A) (A) (A) (A)
                 (A) (A) (A) (A) (A) (A) (A) (A) (A) (A) (A) (A)
                 (A) (A) (A) (A) (A) (A) (A) (A) (A) (A) (A) (A)
                 (A) (A) (A) (A) (A) (A) (A) (A) (A) (A) (A) (A)
                 (A) (A) (A) (A) (A) (A) (A) (A) (A) (A) (A) (A)
                 (A) (A) (A) (A) (A) (A) (A) (A) (A) (A) (A) (A)
                 (A) (A) (A) (A) (A) (A) (A) (A) (A) (A) (A) (A)
                 (A) (A) (A) (A) (A) (A) (A) (A) (A) (A) (A) (A)
                 (A) (A) (A) (A) (A) (A) (A) (A) (A) (A) (A) (A)
                 (A) (A) (A) (A) (A) (A) (A) (A) (A) (A) (A) (A)
                 (A) (A) (A) (A) (A) (A) (A) (A) (A) (A) (A) (A)
                 (A) (A) (A) (A) (A) (A) (A) (A) (A) (A) (A) (A)
                 (A) (A) (A) (A) (A) (A) (A) (A) (A) (A) (A) (A)
                 (A) (A) (A) (A) (A) (A) (A) (A) (A) (A) (A) (A)
                 (A) (A) (A) (A) (A) (A) (A) (A) (A) (A) (A) (A)
                 (A) (A) (A) (A) (A) (A) (A) (A) (A) (A) (A) (A)
                 (A) (A) (A) (A) (A) (A) (A) (A) (A) (A) (A) (A)
                 (A) (A) (A) (A) (A) (A) (A) (A) (A) (A) (A) (A)
                 (A) (A) (A) (A) (A) (A) (A) (A) (A) (A) (A) (A)
                 (A) (A) (A) (A) (A) (A) (A) (A) (A) (A) (A) (A)
                 (A) (A) (A) (A) (A) (A) (A) (A) (A) (A) (A) (A)
                 (A) (A) (A) (A) (A) (A) (A) (A) (A) (A) (A) (A)
                 (A) (A) (A) (A) (A) (A) (A) (A) (A) (A) (A) (A)
                 (A) (A) (A) (A) (A) (A) (A) (A) (A) (A) (A) (A)
                 (A) (A) (A) (A) (A) (A) (A) (A) (A) (A) (A) (A)
                 (A) (A) (A) (A) (A) (A) (A) (A) (A) (A) (A) (A)
                 (A) (A) (A) (A) (A) (A) (A) (A) (A) (A) (A) (A)
                 (A) (A) (A) (A) (A) (A) (A) (A) (A) (A) (A) (A)
                 (A) (A) (A) (A) (A) (A) (A) (A) (A) (A) (A) (A)
                 (A) (A) (A) (A) (A) (A) (A) (A) (A) (A) (A) (A)
                 (A) (A) (A) (A) (A) (A) (A) (A) (A) (A) (A) (A)
                 (A) (A) (A) (A) (A) (A) (A) (A) (A) (A) (A) (A)
                 (A) (A) (A) (A) (A) (A) (A) (A) (A) (A) (A) (A)
                 (A) (A) (A) (A) (A) (A) (A) (A) (A) (A) (A) (A)
                 (A) (A) (A) (A) (A) (A) (A) (A) (A) (A) (A) (A)
                 (A) (A) (A) (A) (A) (A) (A) (A) (A) (A) (A) (A)
                 (A) (A) (A) (A) (A) (A) (A) (A) (A) (A) (A) (A)
                 (A) (A) (A) (A) (A) (A) (A) (A) (A) (A) (A) (A)
                 (A) (A) (A) (A) (A) (A) (A) (A) (A) (A) (A) (A)
                 (A) (A) (A) (A) (A) (A) (A) (A) (A) (A) (A) (A)
                 (A) (A) (A) (A) (A) (A) (A) (A) (A) (A) (A) (A)
                 (A) (A) (A) (A) (A) (A) (A) (A) (A) (A) (A) (A)
                 (A) (A) (A) (A) (A) (A) (A) (A) (A) (A) (A) (A)
                 (A) (A) (A) (A) (A) (A) (A) (A) (A) (A) (A) (A)
                 (A) (A) (A) (A) (A) (A) (A) (A) (A) (A) (A) (A)
                 (A) (A) (A) (A) (A) (A) (A) (A) (A) (A) (A) (A)
                 (A) (A) (A) (A) (A) (A) (A) (A) (A) (A) (A) (A)
                 (A) (A) (A) (A) (A) (A) (A) (A) (A) (A) (A) (A)
                 (A) (A) (A) (A) (A) (A) (A) (A) (A) (A) (A) (A)
                 (A) (A) (A) (A) (A) (A) (A) (A) (A) (A) (A) (A)
                 (A) (A) (A) (A) (A) (A) (A) (A) (A) (A) (A) (A)
                 (A) (A) (A) (A) (A) (A) (A) (A) (A) (A) (A) (A)
                 (A) (A) (A) (A) (A) (A) (A) (A) (A) (A) (A) (A)
                 (A) (A) (A) (A) (A) (A) (A) (A) (A) (A) (A) (A)
                 (A) (A) (A) (A) (A) (A) (A) (A) (A) (A) (A) (A)
                 (A) (A) (A) (A) (A) (A) (A) (A) (A) (A) (A) (A)
                 (A) (A) (A) (A) (A) (A) (A) (A) (A) (A) (A) (A)
                 (A) (A) (A) (A) (A) (A) (A) (A) (A) (A) (A) (A)
                 (A) (A) (A) (A) (A) (A) (A) (A) (A) (A) (A) (A)
                 (A) (A) (A) (A) (A) (A) (A) (A) (A) (A) (A) (A)
                 (A) (A) (A) (A) (A) (A) (A) (A) (A) (A) (A) (A)
                 (A) (A) (A) (A) (A) (A) (A) (A) (A) (A) (A) (A)
                 (A) (A) (A) (A) (A) (A) (A) (A) (A) (A) (A) (A)
                 (A) (A) (A) (A) (A) (A) (A) (A) (A) (A) (A) (A)
                 (A) (A) (A) (A) (A) (A) (A) (A) (A) (A) (A) (A)
                 (A) (A) (A) (A) (A) (A) (A) (A) (A) (A) (A) (A)
                 (A) (A) (A) (A) (A) (A) (A) (A) (A) (A) (A) (A)
                 (A) (A) (A) (A) (A) (A) (A) (A) (A) (A) (A) (A)
                 (A) (A) (A) (A) (A) (A) (A) (A) (A) (A) (A) (A)
                 (A) (A) (A) (A) (A) (A) (A) (A) (A) (A) (A) (A)
                 (A) (A) (A) (A) (A) (A) (A) (A) (A) (A) (A) (A)
                 (A) (A) (A) (A) (A) (A) (A) (A) (A) (A) (A) (A)
                 (A) (A) (A) (A) (A) (A) (A) (A) (A) (A) (A) (A)
                 (A) (A) (A) (A) (A) (A) (A) (A) (A) (A) (A) (A)
                 (A) (A) (A) (A) (A) (A) (A) (A) (A) (A) (A) (A)
                 (A) (A) (A) (A) (A) (A) (A) (A) (A) (A) (A) (A)
                 (A) (A) (A) (A) (A) (A) (A) (A) (A) (A) (A) (A)
                 (A) (A) (A) (A) (A) (A) (A) (A) (A) (A) (A) (A)
                 (A) (A) (A) (A) (A) (A) (A) (A) (A) (A) (A) (A)
                 (A) (A) (A) (A) (A) (A) (A) (A) (A) (A) (A) (A)
                 (A) (A) (A) (A) (A) (A) (A) (A) (A) (A) (A) (A)
                 (A) (A) (A) (A) (A) (A) (A) (A) (A) (A) (A) (A)
                 (A) (A) (A) (A) (A) (A) (A) (A) (A) (A) (A) (A)
                 (A) (A) (A) (A) (A) (A) (A) (A) (A) (A) (A) (A)
                 (A) (A) (A) (A) (A) (A) (A) (A) (A) (A) (A) (A)
                 (A) (A) (A) (A) (A) (A) (A) (A) (A) (A) (A) (A)
                 (A) (A) (A) (A) (A) (A) (A) (A) (A) (A) (A) (A)
                 (A) (A) (A) (A) (A) (A) (A) (A) (A) (A) (A) (A)
                 (A) (A) (A) (A) (A) (A) (A) (A) (A) (A) (A) (A)
                 (A) (A) (A) (A) (A) (A) (A) (A) (A) (A) (A) (A)
                 (A) (A) (A) (A) (A) (A) (A) (A) (A) (A) (A) (A)
                 (A) (A) (A) (A) (A) (A) (A) (A) (A) (A) (A) (A)
                 (A) (A) (A) (A) (A) (A) (A) (A) (A) (A) (A) (A)
                 (A) (A) (A) (A) (A) (A) (A) (A) (A) (A) (A) (A)
                 (A) (A) (A) (A) (A) (A) (A) (A) (A) (A) (A) (A)
                 (A) (A) (A) (A) (A) (A) (A) (A) (A) (A) (A) (A)
                 (A) (A) (A) (A) (A) (A) (A) (A) (A) (A) (A) (A)
                 (A) (A) (A) (A) (A) (A) (A) (A) (A) (A) (A) (A)
                 (A) (A) (A) (A) (A) (A) (A) (A) (A) (A) (A) (A)
                 (A) (A) (A) (A) (A) (A) (A) (A) (A) (A) (A) (A)
                 (A) (A) (A) (A) (A) (A) (A) (A) (A) (A) (A) (A)
                 (A) (A) (A) (A) (A) (A) (A) (A) (A) (A) (A) (A)
                 (A) (A) (A) (A) (A) (A) (A) (A) (A) (A) (A) (A)
                 (A) (A) (A) (A) (A) (A) (A) (A)
 The electronic state is 6-A.
 Alpha  occ. eigenvalues -- -256.46469 -89.05019 -30.29309 -26.10964 -26.10926
 Alpha  occ. eigenvalues --  -26.10903 -19.28445 -19.26170 -19.20029 -19.18725
 Alpha  occ. eigenvalues --  -14.46007 -14.41555 -14.40519 -14.40261 -14.40028
 Alpha  occ. eigenvalues --  -14.39952 -10.36762 -10.36578 -10.30120 -10.28239
 Alpha  occ. eigenvalues --  -10.27908 -10.27902 -10.27780 -10.27763 -10.27761
 Alpha  occ. eigenvalues --  -10.27702 -10.27691 -10.27680 -10.25955 -10.25250
 Alpha  occ. eigenvalues --  -10.25144 -10.25125 -10.25090 -10.24952 -10.24767
 Alpha  occ. eigenvalues --  -10.24732 -10.24686 -10.24585 -10.24506 -10.24467
 Alpha  occ. eigenvalues --  -10.24433 -10.24347 -10.24320 -10.24167 -10.23954
 Alpha  occ. eigenvalues --  -10.23672 -10.23639 -10.23409 -10.23108 -10.23072
 Alpha  occ. eigenvalues --  -10.23012 -10.22674 -10.22548 -10.22428 -10.21693
 Alpha  occ. eigenvalues --  -10.21147 -10.21017  -8.03025  -5.96619  -5.96372
 Alpha  occ. eigenvalues --   -5.95942  -3.71975  -2.48129  -2.48089  -2.47921
 Alpha  occ. eigenvalues --   -1.19215  -1.17761  -1.08609  -1.04847  -1.02559
 Alpha  occ. eigenvalues --   -1.01573  -1.00510  -1.00399  -0.99407  -0.93969
 Alpha  occ. eigenvalues --   -0.87024  -0.86583  -0.85923  -0.85640  -0.85066
 Alpha  occ. eigenvalues --   -0.84765  -0.84093  -0.83964  -0.82686  -0.81454
 Alpha  occ. eigenvalues --   -0.80989  -0.79473  -0.78931  -0.78807  -0.78680
 Alpha  occ. eigenvalues --   -0.76425  -0.74746  -0.74245  -0.74185  -0.73655
 Alpha  occ. eigenvalues --   -0.72037  -0.71649  -0.71565  -0.69380  -0.68972
 Alpha  occ. eigenvalues --   -0.68638  -0.66861  -0.66700  -0.66462  -0.65730
 Alpha  occ. eigenvalues --   -0.65498  -0.63838  -0.62651  -0.62588  -0.61176
 Alpha  occ. eigenvalues --   -0.58720  -0.58483  -0.57739  -0.57666  -0.57059
 Alpha  occ. eigenvalues --   -0.55246  -0.54992  -0.54869  -0.54498  -0.53775
 Alpha  occ. eigenvalues --   -0.52904  -0.52835  -0.52262  -0.52095  -0.51474
 Alpha  occ. eigenvalues --   -0.51184  -0.51004  -0.50904  -0.50849  -0.50655
 Alpha  occ. eigenvalues --   -0.50379  -0.49616  -0.49337  -0.48900  -0.48508
 Alpha  occ. eigenvalues --   -0.48444  -0.48030  -0.47548  -0.47381  -0.47290
 Alpha  occ. eigenvalues --   -0.47252  -0.46838  -0.46468  -0.46343  -0.46218
 Alpha  occ. eigenvalues --   -0.46069  -0.45838  -0.45373  -0.45349  -0.45151
 Alpha  occ. eigenvalues --   -0.45009  -0.44743  -0.44402  -0.44083  -0.43964
 Alpha  occ. eigenvalues --   -0.43697  -0.43533  -0.43059  -0.43017  -0.42637
 Alpha  occ. eigenvalues --   -0.42409  -0.42312  -0.42102  -0.41849  -0.41758
 Alpha  occ. eigenvalues --   -0.41606  -0.41114  -0.40987  -0.40727  -0.40238
 Alpha  occ. eigenvalues --   -0.40139  -0.39917  -0.39627  -0.39330  -0.39134
 Alpha  occ. eigenvalues --   -0.39008  -0.38726  -0.38573  -0.38378  -0.37953
 Alpha  occ. eigenvalues --   -0.37919  -0.37439  -0.37244  -0.36721  -0.36256
 Alpha  occ. eigenvalues --   -0.35912  -0.35837  -0.35668  -0.35454  -0.35299
 Alpha  occ. eigenvalues --   -0.35113  -0.34503  -0.33253  -0.33013  -0.31194
 Alpha  occ. eigenvalues --   -0.31066  -0.30949  -0.29873  -0.29042  -0.27348
 Alpha  occ. eigenvalues --   -0.27011  -0.26668  -0.26626  -0.26095  -0.25127
 Alpha  occ. eigenvalues --   -0.24838  -0.22471  -0.21985
 Alpha virt. eigenvalues --   -0.10463  -0.10138  -0.03502  -0.02354  -0.00679
 Alpha virt. eigenvalues --    0.00347   0.00608   0.01119   0.01749   0.02018
 Alpha virt. eigenvalues --    0.02420   0.02650   0.03388   0.03424   0.03740
 Alpha virt. eigenvalues --    0.04190   0.04587   0.04809   0.04952   0.05321
 Alpha virt. eigenvalues --    0.05472   0.05736   0.06228   0.06423   0.06730
 Alpha virt. eigenvalues --    0.06948   0.07075   0.07372   0.07599   0.07771
 Alpha virt. eigenvalues --    0.08034   0.08437   0.08628   0.08883   0.09422
 Alpha virt. eigenvalues --    0.09596   0.09805   0.10001   0.10179   0.10515
 Alpha virt. eigenvalues --    0.10668   0.10760   0.11065   0.11210   0.11366
 Alpha virt. eigenvalues --    0.11534   0.11708   0.11853   0.11912   0.12120
 Alpha virt. eigenvalues --    0.12243   0.12446   0.12874   0.12979   0.13129
 Alpha virt. eigenvalues --    0.13376   0.13472   0.13566   0.13626   0.13807
 Alpha virt. eigenvalues --    0.13950   0.14125   0.14226   0.14263   0.14838
 Alpha virt. eigenvalues --    0.14958   0.15119   0.15229   0.15335   0.15609
 Alpha virt. eigenvalues --    0.15875   0.16137   0.16396   0.16571   0.16605
 Alpha virt. eigenvalues --    0.16946   0.17218   0.17550   0.17749   0.18080
 Alpha virt. eigenvalues --    0.18384   0.18454   0.18557   0.18808   0.18897
 Alpha virt. eigenvalues --    0.19113   0.19319   0.19545   0.19675   0.19796
 Alpha virt. eigenvalues --    0.20207   0.20292   0.20401   0.20697   0.20921
 Alpha virt. eigenvalues --    0.21180   0.21333   0.21416   0.21617   0.21776
 Alpha virt. eigenvalues --    0.22121   0.22271   0.22351   0.22471   0.22971
 Alpha virt. eigenvalues --    0.23047   0.23285   0.23381   0.23812   0.23917
 Alpha virt. eigenvalues --    0.24059   0.24206   0.24306   0.24362   0.24469
 Alpha virt. eigenvalues --    0.24627   0.24792   0.25103   0.25482   0.25531
 Alpha virt. eigenvalues --    0.25712   0.26156   0.26315   0.26802   0.26876
 Alpha virt. eigenvalues --    0.27151   0.27246   0.27430   0.27678   0.27877
 Alpha virt. eigenvalues --    0.27984   0.28420   0.28736   0.28836   0.29064
 Alpha virt. eigenvalues --    0.29092   0.29472   0.29677   0.30088   0.30297
 Alpha virt. eigenvalues --    0.30413   0.30533   0.30714   0.30812   0.31323
 Alpha virt. eigenvalues --    0.31487   0.31734   0.32031   0.32379   0.32460
 Alpha virt. eigenvalues --    0.32590   0.33207   0.33412   0.33440   0.33800
 Alpha virt. eigenvalues --    0.34249   0.34416   0.34694   0.34865   0.35011
 Alpha virt. eigenvalues --    0.35067   0.35281   0.35517   0.35673   0.36213
 Alpha virt. eigenvalues --    0.36546   0.36580   0.36795   0.37009   0.37186
 Alpha virt. eigenvalues --    0.37264   0.37540   0.37692   0.38017   0.38131
 Alpha virt. eigenvalues --    0.38199   0.38451   0.38548   0.38937   0.38950
 Alpha virt. eigenvalues --    0.39210   0.39421   0.39481   0.39801   0.39937
 Alpha virt. eigenvalues --    0.40106   0.40417   0.40634   0.40784   0.40861
 Alpha virt. eigenvalues --    0.40970   0.41342   0.41530   0.41596   0.41701
 Alpha virt. eigenvalues --    0.41880   0.42181   0.42360   0.42458   0.42701
 Alpha virt. eigenvalues --    0.42870   0.43106   0.43177   0.43493   0.43744
 Alpha virt. eigenvalues --    0.43782   0.43978   0.44042   0.44200   0.44594
 Alpha virt. eigenvalues --    0.44663   0.44784   0.44800   0.45094   0.45127
 Alpha virt. eigenvalues --    0.45286   0.45415   0.45539   0.45660   0.45851
 Alpha virt. eigenvalues --    0.45968   0.46109   0.46299   0.46518   0.46624
 Alpha virt. eigenvalues --    0.46868   0.46984   0.47060   0.47154   0.47523
 Alpha virt. eigenvalues --    0.47601   0.47786   0.47941   0.48229   0.48271
 Alpha virt. eigenvalues --    0.48406   0.48714   0.48767   0.48961   0.48997
 Alpha virt. eigenvalues --    0.49233   0.49340   0.49526   0.49879   0.49892
 Alpha virt. eigenvalues --    0.50062   0.50155   0.50419   0.50583   0.50759
 Alpha virt. eigenvalues --    0.51052   0.51301   0.51544   0.51711   0.51882
 Alpha virt. eigenvalues --    0.52113   0.52206   0.52370   0.52500   0.52635
 Alpha virt. eigenvalues --    0.52904   0.52950   0.52987   0.53295   0.53397
 Alpha virt. eigenvalues --    0.53504   0.53634   0.53897   0.54211   0.54422
 Alpha virt. eigenvalues --    0.54645   0.54810   0.54976   0.55167   0.55474
 Alpha virt. eigenvalues --    0.55704   0.55824   0.56046   0.56358   0.56699
 Alpha virt. eigenvalues --    0.56776   0.57127   0.57224   0.57311   0.57518
 Alpha virt. eigenvalues --    0.57816   0.57982   0.58141   0.58526   0.58742
 Alpha virt. eigenvalues --    0.58860   0.59142   0.59324   0.59554   0.59636
 Alpha virt. eigenvalues --    0.59826   0.60061   0.60622   0.60770   0.60917
 Alpha virt. eigenvalues --    0.61221   0.61681   0.61812   0.62046   0.62341
 Alpha virt. eigenvalues --    0.62457   0.62712   0.62859   0.63189   0.63533
 Alpha virt. eigenvalues --    0.63724   0.64084   0.64168   0.64553   0.65116
 Alpha virt. eigenvalues --    0.65301   0.65441   0.65590   0.65859   0.66186
 Alpha virt. eigenvalues --    0.66717   0.66844   0.66907   0.67389   0.67706
 Alpha virt. eigenvalues --    0.67894   0.68136   0.68421   0.68623   0.68717
 Alpha virt. eigenvalues --    0.69228   0.69311   0.69746   0.69916   0.70070
 Alpha virt. eigenvalues --    0.70491   0.70744   0.70995   0.71170   0.71897
 Alpha virt. eigenvalues --    0.71972   0.72184   0.72387   0.72733   0.72743
 Alpha virt. eigenvalues --    0.73324   0.73417   0.73811   0.74326   0.74525
 Alpha virt. eigenvalues --    0.74685   0.74868   0.75152   0.75447   0.75868
 Alpha virt. eigenvalues --    0.76347   0.76661   0.76880   0.77086   0.77443
 Alpha virt. eigenvalues --    0.77654   0.78031   0.78312   0.78648   0.78810
 Alpha virt. eigenvalues --    0.79339   0.79701   0.79726   0.79944   0.80460
 Alpha virt. eigenvalues --    0.80536   0.80936   0.81534   0.81944   0.82298
 Alpha virt. eigenvalues --    0.82496   0.82751   0.82986   0.83316   0.83604
 Alpha virt. eigenvalues --    0.83933   0.84125   0.84392   0.84561   0.84801
 Alpha virt. eigenvalues --    0.85336   0.85453   0.85941   0.86291   0.86637
 Alpha virt. eigenvalues --    0.86941   0.87163   0.87369   0.87590   0.87843
 Alpha virt. eigenvalues --    0.88044   0.88200   0.88491   0.88755   0.88983
 Alpha virt. eigenvalues --    0.89241   0.89575   0.89802   0.89948   0.90088
 Alpha virt. eigenvalues --    0.90858   0.90920   0.91198   0.91358   0.91626
 Alpha virt. eigenvalues --    0.91790   0.91957   0.92109   0.92686   0.92883
 Alpha virt. eigenvalues --    0.93334   0.93395   0.93686   0.93938   0.94110
 Alpha virt. eigenvalues --    0.94446   0.94619   0.94762   0.94974   0.95324
 Alpha virt. eigenvalues --    0.95560   0.95999   0.96232   0.96423   0.96761
 Alpha virt. eigenvalues --    0.97042   0.97165   0.97625   0.97710   0.98012
 Alpha virt. eigenvalues --    0.98248   0.98610   0.99000   0.99207   0.99417
 Alpha virt. eigenvalues --    0.99659   0.99886   0.99952   1.00419   1.00679
 Alpha virt. eigenvalues --    1.01096   1.01407   1.01521   1.01971   1.02141
 Alpha virt. eigenvalues --    1.02364   1.02674   1.02986   1.03448   1.03668
 Alpha virt. eigenvalues --    1.03791   1.04109   1.04311   1.04632   1.04811
 Alpha virt. eigenvalues --    1.05057   1.05408   1.05746   1.05838   1.06042
 Alpha virt. eigenvalues --    1.06339   1.06600   1.06759   1.07517   1.07722
 Alpha virt. eigenvalues --    1.07997   1.08285   1.08544   1.08711   1.09113
 Alpha virt. eigenvalues --    1.09465   1.09961   1.10195   1.10612   1.10813
 Alpha virt. eigenvalues --    1.11191   1.11372   1.11750   1.11828   1.12086
 Alpha virt. eigenvalues --    1.12292   1.12833   1.13181   1.13487   1.13749
 Alpha virt. eigenvalues --    1.14163   1.14821   1.15127   1.15337   1.15831
 Alpha virt. eigenvalues --    1.15980   1.16170   1.16519   1.17153   1.17479
 Alpha virt. eigenvalues --    1.17940   1.18085   1.18365   1.18890   1.18955
 Alpha virt. eigenvalues --    1.19553   1.19885   1.20261   1.20516   1.20957
 Alpha virt. eigenvalues --    1.21095   1.21494   1.21642   1.21913   1.22104
 Alpha virt. eigenvalues --    1.22556   1.23307   1.23603   1.23836   1.24122
 Alpha virt. eigenvalues --    1.24539   1.24881   1.24982   1.25299   1.25540
 Alpha virt. eigenvalues --    1.25912   1.26381   1.26702   1.27070   1.27203
 Alpha virt. eigenvalues --    1.27483   1.27669   1.27847   1.28101   1.28421
 Alpha virt. eigenvalues --    1.28975   1.29492   1.30010   1.30149   1.30204
 Alpha virt. eigenvalues --    1.31096   1.31510   1.31663   1.32201   1.32757
 Alpha virt. eigenvalues --    1.32921   1.33211   1.33458   1.34185   1.34514
 Alpha virt. eigenvalues --    1.34746   1.34973   1.35193   1.35735   1.36140
 Alpha virt. eigenvalues --    1.36361   1.36926   1.37335   1.38163   1.38689
 Alpha virt. eigenvalues --    1.38871   1.39087   1.39392   1.39708   1.40256
 Alpha virt. eigenvalues --    1.40726   1.41268   1.41367   1.41945   1.42234
 Alpha virt. eigenvalues --    1.42811   1.43421   1.43852   1.44539   1.44867
 Alpha virt. eigenvalues --    1.45219   1.45480   1.45728   1.46197   1.46491
 Alpha virt. eigenvalues --    1.46693   1.47370   1.47565   1.47904   1.48043
 Alpha virt. eigenvalues --    1.48287   1.48713   1.49050   1.49283   1.49580
 Alpha virt. eigenvalues --    1.49780   1.50135   1.50584   1.50655   1.50938
 Alpha virt. eigenvalues --    1.51258   1.51467   1.51584   1.51828   1.52618
 Alpha virt. eigenvalues --    1.52802   1.53044   1.53261   1.53579   1.53798
 Alpha virt. eigenvalues --    1.53994   1.54192   1.54328   1.54507   1.54635
 Alpha virt. eigenvalues --    1.54947   1.55005   1.55225   1.55775   1.55899
 Alpha virt. eigenvalues --    1.56162   1.56484   1.56693   1.56779   1.57411
 Alpha virt. eigenvalues --    1.57531   1.57710   1.58082   1.58200   1.58552
 Alpha virt. eigenvalues --    1.58872   1.59159   1.59342   1.59567   1.59721
 Alpha virt. eigenvalues --    1.60039   1.60119   1.60422   1.60754   1.60952
 Alpha virt. eigenvalues --    1.61365   1.61539   1.62051   1.62097   1.62453
 Alpha virt. eigenvalues --    1.62730   1.62819   1.63148   1.63205   1.63726
 Alpha virt. eigenvalues --    1.63879   1.64285   1.64517   1.64555   1.64914
 Alpha virt. eigenvalues --    1.65373   1.65553   1.65740   1.65925   1.66025
 Alpha virt. eigenvalues --    1.66416   1.66595   1.67299   1.67320   1.67525
 Alpha virt. eigenvalues --    1.67621   1.68078   1.68287   1.68600   1.68903
 Alpha virt. eigenvalues --    1.69379   1.69419   1.69477   1.69733   1.70052
 Alpha virt. eigenvalues --    1.70381   1.70730   1.70795   1.71042   1.71229
 Alpha virt. eigenvalues --    1.71363   1.71677   1.71978   1.72086   1.72728
 Alpha virt. eigenvalues --    1.72935   1.73024   1.73615   1.73776   1.73850
 Alpha virt. eigenvalues --    1.74136   1.74494   1.74653   1.75098   1.75327
 Alpha virt. eigenvalues --    1.75632   1.76134   1.76273   1.76570   1.76800
 Alpha virt. eigenvalues --    1.77801   1.78071   1.78196   1.78919   1.79420
 Alpha virt. eigenvalues --    1.79833   1.80122   1.80448   1.80498   1.81056
 Alpha virt. eigenvalues --    1.81392   1.81694   1.82267   1.82591   1.83007
 Alpha virt. eigenvalues --    1.83251   1.83360   1.83539   1.83987   1.84178
 Alpha virt. eigenvalues --    1.84525   1.84888   1.85298   1.85712   1.85870
 Alpha virt. eigenvalues --    1.86227   1.86606   1.87208   1.87264   1.87696
 Alpha virt. eigenvalues --    1.87921   1.88425   1.88625   1.88722   1.89405
 Alpha virt. eigenvalues --    1.89626   1.90064   1.90378   1.90614   1.90751
 Alpha virt. eigenvalues --    1.90850   1.91530   1.91690   1.91893   1.92482
 Alpha virt. eigenvalues --    1.92731   1.92950   1.93606   1.93971   1.94534
 Alpha virt. eigenvalues --    1.94614   1.94872   1.94990   1.95467   1.95836
 Alpha virt. eigenvalues --    1.96120   1.96436   1.96620   1.97164   1.97407
 Alpha virt. eigenvalues --    1.97627   1.98244   1.98341   1.98605   1.99090
 Alpha virt. eigenvalues --    1.99320   1.99571   1.99899   2.00573   2.00745
 Alpha virt. eigenvalues --    2.00991   2.01622   2.02037   2.02288   2.02550
 Alpha virt. eigenvalues --    2.03136   2.03643   2.03853   2.04262   2.04883
 Alpha virt. eigenvalues --    2.05243   2.05421   2.05895   2.05940   2.06282
 Alpha virt. eigenvalues --    2.06498   2.07000   2.07195   2.07388   2.07598
 Alpha virt. eigenvalues --    2.08191   2.08533   2.09068   2.09399   2.09724
 Alpha virt. eigenvalues --    2.09941   2.10491   2.10739   2.11153   2.11380
 Alpha virt. eigenvalues --    2.11814   2.12130   2.12190   2.12529   2.12779
 Alpha virt. eigenvalues --    2.12970   2.13199   2.13530   2.13891   2.14223
 Alpha virt. eigenvalues --    2.14325   2.14793   2.15011   2.15449   2.15899
 Alpha virt. eigenvalues --    2.16283   2.16778   2.16906   2.17329   2.17695
 Alpha virt. eigenvalues --    2.17818   2.18150   2.18463   2.18678   2.19032
 Alpha virt. eigenvalues --    2.19726   2.19936   2.20065   2.20733   2.20901
 Alpha virt. eigenvalues --    2.21415   2.21591   2.21978   2.22283   2.22934
 Alpha virt. eigenvalues --    2.23072   2.23250   2.23680   2.23762   2.24468
 Alpha virt. eigenvalues --    2.24791   2.25049   2.25326   2.26168   2.26409
 Alpha virt. eigenvalues --    2.26714   2.27039   2.27344   2.27587   2.28001
 Alpha virt. eigenvalues --    2.28319   2.28960   2.29077   2.29499   2.29827
 Alpha virt. eigenvalues --    2.30407   2.30662   2.30821   2.31005   2.31406
 Alpha virt. eigenvalues --    2.31924   2.32295   2.32377   2.32890   2.33490
 Alpha virt. eigenvalues --    2.33855   2.34291   2.34828   2.34916   2.35699
 Alpha virt. eigenvalues --    2.35811   2.36176   2.36497   2.36599   2.37074
 Alpha virt. eigenvalues --    2.37276   2.37611   2.37954   2.38287   2.38439
 Alpha virt. eigenvalues --    2.38566   2.38998   2.39173   2.39816   2.40214
 Alpha virt. eigenvalues --    2.40463   2.40790   2.40894   2.41337   2.41746
 Alpha virt. eigenvalues --    2.42035   2.42436   2.42771   2.42989   2.43425
 Alpha virt. eigenvalues --    2.43722   2.43880   2.44630   2.44881   2.45407
 Alpha virt. eigenvalues --    2.45492   2.45845   2.45949   2.46462   2.46922
 Alpha virt. eigenvalues --    2.47281   2.47606   2.47825   2.48467   2.48550
 Alpha virt. eigenvalues --    2.49245   2.49700   2.50334   2.50625   2.50889
 Alpha virt. eigenvalues --    2.51009   2.51465   2.51841   2.51959   2.52239
 Alpha virt. eigenvalues --    2.52413   2.52582   2.53194   2.53420   2.53653
 Alpha virt. eigenvalues --    2.54324   2.54513   2.54674   2.55244   2.55702
 Alpha virt. eigenvalues --    2.55810   2.56393   2.56489   2.56795   2.56846
 Alpha virt. eigenvalues --    2.57448   2.57482   2.57742   2.58019   2.58321
 Alpha virt. eigenvalues --    2.58722   2.58928   2.59243   2.59672   2.60083
 Alpha virt. eigenvalues --    2.60320   2.60401   2.60665   2.60875   2.61475
 Alpha virt. eigenvalues --    2.61558   2.61764   2.62066   2.62345   2.62434
 Alpha virt. eigenvalues --    2.62539   2.63206   2.63392   2.63554   2.64039
 Alpha virt. eigenvalues --    2.64461   2.64800   2.65086   2.65412   2.65766
 Alpha virt. eigenvalues --    2.66139   2.66668   2.66694   2.66921   2.67113
 Alpha virt. eigenvalues --    2.67431   2.67727   2.68118   2.68412   2.68867
 Alpha virt. eigenvalues --    2.68951   2.69663   2.69978   2.70334   2.70483
 Alpha virt. eigenvalues --    2.71064   2.71204   2.71575   2.71696   2.72103
 Alpha virt. eigenvalues --    2.72446   2.72798   2.73291   2.73520   2.73663
 Alpha virt. eigenvalues --    2.74079   2.74127   2.74543   2.75053   2.75380
 Alpha virt. eigenvalues --    2.75593   2.75885   2.76260   2.76688   2.77171
 Alpha virt. eigenvalues --    2.77288   2.77595   2.77741   2.78307   2.78462
 Alpha virt. eigenvalues --    2.78675   2.79073   2.79097   2.79667   2.79742
 Alpha virt. eigenvalues --    2.80258   2.80720   2.81109   2.81263   2.81504
 Alpha virt. eigenvalues --    2.81854   2.81981   2.82345   2.82544   2.83281
 Alpha virt. eigenvalues --    2.83360   2.84061   2.84124   2.84235   2.84669
 Alpha virt. eigenvalues --    2.84905   2.85043   2.85452   2.85657   2.86132
 Alpha virt. eigenvalues --    2.86465   2.86702   2.87022   2.87465   2.88209
 Alpha virt. eigenvalues --    2.88403   2.88590   2.88784   2.89105   2.89274
 Alpha virt. eigenvalues --    2.89920   2.90143   2.90738   2.90768   2.90951
 Alpha virt. eigenvalues --    2.91130   2.91449   2.91602   2.91905   2.92433
 Alpha virt. eigenvalues --    2.92842   2.93160   2.93521   2.94096   2.94420
 Alpha virt. eigenvalues --    2.94633   2.95040   2.95410   2.95527   2.95806
 Alpha virt. eigenvalues --    2.95975   2.96042   2.96555   2.97066   2.97265
 Alpha virt. eigenvalues --    2.97547   2.97585   2.98042   2.98913   2.99691
 Alpha virt. eigenvalues --    3.00001   3.00208   3.00692   3.00826   3.01087
 Alpha virt. eigenvalues --    3.01246   3.01681   3.01864   3.02510   3.02799
 Alpha virt. eigenvalues --    3.03076   3.03159   3.03535   3.03845   3.04073
 Alpha virt. eigenvalues --    3.04304   3.05000   3.05200   3.05398   3.05489
 Alpha virt. eigenvalues --    3.05694   3.05973   3.06391   3.06467   3.06815
 Alpha virt. eigenvalues --    3.06959   3.07337   3.07741   3.07919   3.08028
 Alpha virt. eigenvalues --    3.08393   3.08671   3.08859   3.09121   3.09384
 Alpha virt. eigenvalues --    3.09519   3.09917   3.10421   3.10560   3.10756
 Alpha virt. eigenvalues --    3.10818   3.11203   3.11563   3.11629   3.12383
 Alpha virt. eigenvalues --    3.12545   3.12814   3.12858   3.13219   3.13603
 Alpha virt. eigenvalues --    3.13900   3.14002   3.14175   3.14780   3.15016
 Alpha virt. eigenvalues --    3.15210   3.15449   3.15755   3.15775   3.16173
 Alpha virt. eigenvalues --    3.16419   3.16531   3.17345   3.17377   3.17597
 Alpha virt. eigenvalues --    3.18093   3.18342   3.18558   3.18772   3.19009
 Alpha virt. eigenvalues --    3.19483   3.19498   3.19687   3.20319   3.20497
 Alpha virt. eigenvalues --    3.20852   3.21048   3.21368   3.21433   3.21951
 Alpha virt. eigenvalues --    3.22231   3.22487   3.22753   3.22920   3.23371
 Alpha virt. eigenvalues --    3.23520   3.23810   3.24046   3.24148   3.24440
 Alpha virt. eigenvalues --    3.24770   3.24854   3.24896   3.25371   3.25571
 Alpha virt. eigenvalues --    3.25795   3.25987   3.26498   3.26744   3.26954
 Alpha virt. eigenvalues --    3.27150   3.27598   3.28036   3.28095   3.28303
 Alpha virt. eigenvalues --    3.28578   3.28834   3.29294   3.29529   3.29763
 Alpha virt. eigenvalues --    3.30104   3.30188   3.30361   3.30597   3.30828
 Alpha virt. eigenvalues --    3.31247   3.31330   3.31765   3.32228   3.32343
 Alpha virt. eigenvalues --    3.32599   3.32742   3.32926   3.33242   3.33522
 Alpha virt. eigenvalues --    3.33846   3.34122   3.34366   3.34439   3.34653
 Alpha virt. eigenvalues --    3.34754   3.34955   3.35213   3.35496   3.36018
 Alpha virt. eigenvalues --    3.36148   3.36435   3.36514   3.36773   3.36941
 Alpha virt. eigenvalues --    3.37202   3.37407   3.37902   3.38104   3.38240
 Alpha virt. eigenvalues --    3.38519   3.38823   3.38955   3.39245   3.39325
 Alpha virt. eigenvalues --    3.39574   3.39683   3.39825   3.40188   3.40311
 Alpha virt. eigenvalues --    3.40439   3.40785   3.41004   3.41391   3.41585
 Alpha virt. eigenvalues --    3.41998   3.42157   3.42428   3.42712   3.43052
 Alpha virt. eigenvalues --    3.43479   3.43622   3.43772   3.43990   3.44327
 Alpha virt. eigenvalues --    3.44960   3.45073   3.45577   3.45855   3.46189
 Alpha virt. eigenvalues --    3.46401   3.46523   3.47041   3.47194   3.47367
 Alpha virt. eigenvalues --    3.47463   3.47993   3.48324   3.48464   3.48869
 Alpha virt. eigenvalues --    3.49027   3.49237   3.49501   3.49711   3.50258
 Alpha virt. eigenvalues --    3.50305   3.50838   3.51289   3.51557   3.51855
 Alpha virt. eigenvalues --    3.52278   3.52608   3.52975   3.53637   3.53970
 Alpha virt. eigenvalues --    3.54213   3.54501   3.54674   3.54772   3.55060
 Alpha virt. eigenvalues --    3.55669   3.55769   3.56081   3.56606   3.56831
 Alpha virt. eigenvalues --    3.57007   3.57444   3.57712   3.57837   3.58156
 Alpha virt. eigenvalues --    3.58696   3.59257   3.59447   3.59738   3.60459
 Alpha virt. eigenvalues --    3.60728   3.61335   3.61434   3.61855   3.62075
 Alpha virt. eigenvalues --    3.62296   3.62541   3.62776   3.63442   3.63473
 Alpha virt. eigenvalues --    3.63664   3.64129   3.65099   3.65410   3.65588
 Alpha virt. eigenvalues --    3.65635   3.66590   3.66687   3.67107   3.67249
 Alpha virt. eigenvalues --    3.67464   3.67770   3.68646   3.68774   3.68887
 Alpha virt. eigenvalues --    3.69211   3.69347   3.70248   3.70351   3.70835
 Alpha virt. eigenvalues --    3.71346   3.71538   3.71975   3.72365   3.72520
 Alpha virt. eigenvalues --    3.73101   3.73278   3.73618   3.73819   3.74230
 Alpha virt. eigenvalues --    3.74414   3.75244   3.75500   3.75884   3.76168
 Alpha virt. eigenvalues --    3.76551   3.76876   3.76925   3.77463   3.77877
 Alpha virt. eigenvalues --    3.78472   3.78645   3.78681   3.79080   3.79796
 Alpha virt. eigenvalues --    3.80255   3.80947   3.81521   3.81888   3.82200
 Alpha virt. eigenvalues --    3.82641   3.83003   3.83392   3.83926   3.84029
 Alpha virt. eigenvalues --    3.84154   3.84369   3.84747   3.85247   3.85417
 Alpha virt. eigenvalues --    3.85946   3.86395   3.86918   3.87378   3.87509
 Alpha virt. eigenvalues --    3.88453   3.88803   3.89019   3.89249   3.89585
 Alpha virt. eigenvalues --    3.90158   3.90901   3.91266   3.91861   3.92436
 Alpha virt. eigenvalues --    3.92600   3.93055   3.93558   3.93806   3.94431
 Alpha virt. eigenvalues --    3.94506   3.94948   3.95460   3.95524   3.95881
 Alpha virt. eigenvalues --    3.96331   3.96635   3.97060   3.97559   3.97701
 Alpha virt. eigenvalues --    3.97957   3.98464   3.99044   3.99653   4.00067
 Alpha virt. eigenvalues --    4.00154   4.00560   4.01089   4.01602   4.02448
 Alpha virt. eigenvalues --    4.03412   4.03702   4.04268   4.04300   4.05144
 Alpha virt. eigenvalues --    4.05846   4.06067   4.06503   4.07877   4.08251
 Alpha virt. eigenvalues --    4.08487   4.09165   4.09267   4.10871   4.11481
 Alpha virt. eigenvalues --    4.11755   4.12388   4.12992   4.13571   4.13994
 Alpha virt. eigenvalues --    4.14390   4.14613   4.15469   4.16076   4.16584
 Alpha virt. eigenvalues --    4.16935   4.17587   4.17796   4.18678   4.18757
 Alpha virt. eigenvalues --    4.19358   4.19849   4.20300   4.21008   4.21525
 Alpha virt. eigenvalues --    4.21766   4.22109   4.22274   4.23083   4.23843
 Alpha virt. eigenvalues --    4.24236   4.24385   4.25006   4.25501   4.26296
 Alpha virt. eigenvalues --    4.26465   4.27272   4.27586   4.28577   4.28940
 Alpha virt. eigenvalues --    4.29097   4.30229   4.31408   4.31788   4.31929
 Alpha virt. eigenvalues --    4.32241   4.32698   4.32975   4.33602   4.34172
 Alpha virt. eigenvalues --    4.34327   4.34753   4.35011   4.35391   4.35997
 Alpha virt. eigenvalues --    4.36267   4.36715   4.37241   4.37829   4.38271
 Alpha virt. eigenvalues --    4.38845   4.39728   4.40122   4.40370   4.40800
 Alpha virt. eigenvalues --    4.41282   4.41297   4.42321   4.42667   4.44192
 Alpha virt. eigenvalues --    4.44484   4.44694   4.45401   4.45760   4.46174
 Alpha virt. eigenvalues --    4.46659   4.47445   4.47626   4.48331   4.48875
 Alpha virt. eigenvalues --    4.48905   4.49432   4.50204   4.50493   4.51021
 Alpha virt. eigenvalues --    4.51175   4.51773   4.52556   4.53953   4.54659
 Alpha virt. eigenvalues --    4.55111   4.55273   4.56109   4.57547   4.57772
 Alpha virt. eigenvalues --    4.57996   4.58832   4.59796   4.59977   4.60904
 Alpha virt. eigenvalues --    4.61380   4.61856   4.62729   4.63452   4.63917
 Alpha virt. eigenvalues --    4.64690   4.64904   4.65896   4.66356   4.66759
 Alpha virt. eigenvalues --    4.67380   4.68528   4.68922   4.69228   4.69738
 Alpha virt. eigenvalues --    4.69980   4.71112   4.71680   4.71851   4.72491
 Alpha virt. eigenvalues --    4.72927   4.74382   4.74898   4.75102   4.75301
 Alpha virt. eigenvalues --    4.75635   4.76488   4.76808   4.77565   4.78578
 Alpha virt. eigenvalues --    4.79135   4.79772   4.80452   4.81158   4.81488
 Alpha virt. eigenvalues --    4.82906   4.83315   4.83505   4.84646   4.84902
 Alpha virt. eigenvalues --    4.85404   4.86342   4.86825   4.87916   4.88150
 Alpha virt. eigenvalues --    4.88392   4.89083   4.89970   4.90850   4.91532
 Alpha virt. eigenvalues --    4.91683   4.92320   4.92628   4.93551   4.94504
 Alpha virt. eigenvalues --    4.95669   4.96733   4.97214   4.97768   4.98802
 Alpha virt. eigenvalues --    4.99848   5.00132   5.00485   5.01319   5.02780
 Alpha virt. eigenvalues --    5.03298   5.03461   5.03816   5.04669   5.06294
 Alpha virt. eigenvalues --    5.07028   5.08423   5.09630   5.10085   5.11376
 Alpha virt. eigenvalues --    5.14975   5.15631   5.16050   5.16397   5.16646
 Alpha virt. eigenvalues --    5.17605   5.18258   5.18799   5.19806   5.20377
 Alpha virt. eigenvalues --    5.21678   5.22041   5.22512   5.22688   5.23330
 Alpha virt. eigenvalues --    5.23597   5.23953   5.24400   5.26529   5.27863
 Alpha virt. eigenvalues --    5.28911   5.30007   5.31137   5.31666   5.32839
 Alpha virt. eigenvalues --    5.33221   5.33764   5.34587   5.35870   5.36355
 Alpha virt. eigenvalues --    5.38185   5.38643   5.41010   5.42105   5.43363
 Alpha virt. eigenvalues --    5.44561   5.45257   5.45592   5.46066   5.46425
 Alpha virt. eigenvalues --    5.47883   5.48402   5.49859   5.51830   5.53824
 Alpha virt. eigenvalues --    5.55793   5.55979   5.56964   5.57867   5.58286
 Alpha virt. eigenvalues --    5.58397   5.58752   5.59210   5.60641   5.61195
 Alpha virt. eigenvalues --    5.61405   5.62350   5.62783   5.63547   5.66135
 Alpha virt. eigenvalues --    5.70431   5.72604   5.75900   5.77066   5.77758
 Alpha virt. eigenvalues --    5.78797   5.81273   5.82153   5.83528   5.91447
 Alpha virt. eigenvalues --    5.93021   5.93742   5.94881   5.95317   5.96282
 Alpha virt. eigenvalues --    5.96462   5.99043   6.00430   6.01059   6.04290
 Alpha virt. eigenvalues --    6.07737   6.08852   6.09741   6.10094   6.11755
 Alpha virt. eigenvalues --    6.12286   6.12916   6.16247   6.17591   6.18739
 Alpha virt. eigenvalues --    6.25525   6.26252   6.28007   6.29436   6.32526
 Alpha virt. eigenvalues --    6.33184   6.34177   6.34335   6.40099   6.41994
 Alpha virt. eigenvalues --    6.43472   6.45744   6.49899   6.50808   6.64896
 Alpha virt. eigenvalues --    6.65113   6.73179   6.75544   6.79848   6.83620
 Alpha virt. eigenvalues --    6.89153   6.93804   6.99977   7.06324   7.10195
 Alpha virt. eigenvalues --    7.13803   7.18051   7.19011   7.25082   7.32427
 Alpha virt. eigenvalues --    9.27133   9.48737   9.60804  20.11228  22.47129
 Alpha virt. eigenvalues --   22.49482  22.50573  22.52037  22.53381  22.54058
 Alpha virt. eigenvalues --   22.54679  22.55020  22.55453  22.56282  22.59521
 Alpha virt. eigenvalues --   22.60888  22.63955  22.66114  22.66890  22.71012
 Alpha virt. eigenvalues --   22.81652  22.93123  22.94393  22.95861  22.96398
 Alpha virt. eigenvalues --   22.98485  23.06265  23.09411  23.14043  23.18452
 Alpha virt. eigenvalues --   23.23036  23.28028  23.29026  23.34082  23.38212
 Alpha virt. eigenvalues --   23.42063  23.49439  23.50993  23.52856  23.57695
 Alpha virt. eigenvalues --   23.61216  23.71497  23.76037  23.77411  23.87579
 Alpha virt. eigenvalues --   32.45674  32.82123  32.95435  33.02733  33.09128
 Alpha virt. eigenvalues --   33.15035  43.92545  43.95324  43.95799  43.98870
  Beta  occ. eigenvalues -- -256.46324 -89.04914 -30.19556 -26.02791 -26.02720
  Beta  occ. eigenvalues --  -26.02687 -19.28445 -19.26170 -19.20028 -19.18725
  Beta  occ. eigenvalues --  -14.45991 -14.41258 -14.40208 -14.39960 -14.39722
  Beta  occ. eigenvalues --  -14.39653 -10.36762 -10.36577 -10.30107 -10.28209
  Beta  occ. eigenvalues --  -10.27881 -10.27872 -10.27751 -10.27740 -10.27737
  Beta  occ. eigenvalues --  -10.27680 -10.27674 -10.27656 -10.25953 -10.25219
  Beta  occ. eigenvalues --  -10.25143 -10.25125 -10.25058 -10.24922 -10.24732
  Beta  occ. eigenvalues --  -10.24731 -10.24659 -10.24591 -10.24480 -10.24475
  Beta  occ. eigenvalues --  -10.24406 -10.24351 -10.24292 -10.24178 -10.23952
  Beta  occ. eigenvalues --  -10.23671 -10.23637 -10.23407 -10.23107 -10.23070
  Beta  occ. eigenvalues --  -10.23011 -10.22673 -10.22547 -10.22426 -10.21692
  Beta  occ. eigenvalues --  -10.21145 -10.21015  -8.02915  -5.96546  -5.96237
  Beta  occ. eigenvalues --   -5.95715  -3.48804  -2.23377  -2.23071  -2.23053
  Beta  occ. eigenvalues --   -1.19215  -1.17761  -1.08445  -1.04846  -1.02558
  Beta  occ. eigenvalues --   -1.01211  -1.00166  -1.00043  -0.99031  -0.93673
  Beta  occ. eigenvalues --   -0.86965  -0.86316  -0.85780  -0.85521  -0.84920
  Beta  occ. eigenvalues --   -0.84603  -0.84000  -0.83854  -0.82650  -0.81356
  Beta  occ. eigenvalues --   -0.80886  -0.79410  -0.78851  -0.78740  -0.78612
  Beta  occ. eigenvalues --   -0.76331  -0.74698  -0.74162  -0.74104  -0.73531
  Beta  occ. eigenvalues --   -0.71920  -0.71558  -0.71473  -0.69199  -0.68877
  Beta  occ. eigenvalues --   -0.68555  -0.66754  -0.66423  -0.66365  -0.65634
  Beta  occ. eigenvalues --   -0.65407  -0.63769  -0.62431  -0.62351  -0.60771
  Beta  occ. eigenvalues --   -0.58569  -0.58333  -0.57562  -0.57523  -0.56385
  Beta  occ. eigenvalues --   -0.55056  -0.54751  -0.54451  -0.53749  -0.52927
  Beta  occ. eigenvalues --   -0.52762  -0.52203  -0.51642  -0.51354  -0.51090
  Beta  occ. eigenvalues --   -0.50862  -0.50784  -0.50724  -0.50051  -0.49818
  Beta  occ. eigenvalues --   -0.49499  -0.49038  -0.48461  -0.48252  -0.47779
  Beta  occ. eigenvalues --   -0.47518  -0.47211  -0.47001  -0.46686  -0.46328
  Beta  occ. eigenvalues --   -0.46114  -0.45845  -0.45425  -0.45357  -0.45140
  Beta  occ. eigenvalues --   -0.44925  -0.44729  -0.44607  -0.44152  -0.43930
  Beta  occ. eigenvalues --   -0.43818  -0.43661  -0.43371  -0.43100  -0.42937
  Beta  occ. eigenvalues --   -0.42646  -0.42430  -0.42184  -0.41823  -0.41732
  Beta  occ. eigenvalues --   -0.41522  -0.41151  -0.41039  -0.40720  -0.40480
  Beta  occ. eigenvalues --   -0.40292  -0.39970  -0.39639  -0.39520  -0.39334
  Beta  occ. eigenvalues --   -0.39097  -0.38838  -0.38674  -0.38521  -0.38348
  Beta  occ. eigenvalues --   -0.38104  -0.37778  -0.37681  -0.37087  -0.36766
  Beta  occ. eigenvalues --   -0.36216  -0.35924  -0.35809  -0.35584  -0.35439
  Beta  occ. eigenvalues --   -0.35172  -0.34804  -0.34503  -0.34286  -0.33254
  Beta  occ. eigenvalues --   -0.32819  -0.31167  -0.30968  -0.29874  -0.29300
  Beta  occ. eigenvalues --   -0.29022  -0.27517  -0.26993  -0.26607  -0.26359
  Beta  occ. eigenvalues --   -0.25831  -0.22324  -0.21841
  Beta virt. eigenvalues --   -0.12653  -0.12477  -0.10341  -0.08419  -0.08139
  Beta virt. eigenvalues --   -0.04616  -0.03421  -0.02385  -0.01979  -0.00651
  Beta virt. eigenvalues --    0.00669   0.01081   0.01268   0.01905   0.02078
  Beta virt. eigenvalues --    0.02550   0.02855   0.03420   0.03668   0.04128
  Beta virt. eigenvalues --    0.04217   0.04674   0.05007   0.05221   0.05439
  Beta virt. eigenvalues --    0.05585   0.05865   0.06320   0.06490   0.06791
  Beta virt. eigenvalues --    0.06987   0.07157   0.07437   0.07674   0.07804
  Beta virt. eigenvalues --    0.08145   0.08474   0.08731   0.08920   0.09523
  Beta virt. eigenvalues --    0.09719   0.09904   0.10094   0.10269   0.10596
  Beta virt. eigenvalues --    0.10712   0.10945   0.11137   0.11304   0.11440
  Beta virt. eigenvalues --    0.11637   0.11768   0.11911   0.11991   0.12181
  Beta virt. eigenvalues --    0.12301   0.12501   0.13014   0.13033   0.13200
  Beta virt. eigenvalues --    0.13417   0.13555   0.13599   0.13655   0.13856
  Beta virt. eigenvalues --    0.14017   0.14167   0.14279   0.14304   0.14903
  Beta virt. eigenvalues --    0.14990   0.15189   0.15248   0.15494   0.15697
  Beta virt. eigenvalues --    0.16035   0.16187   0.16455   0.16646   0.16698
  Beta virt. eigenvalues --    0.17017   0.17327   0.17594   0.17826   0.18225
  Beta virt. eigenvalues --    0.18460   0.18615   0.18682   0.18935   0.19013
  Beta virt. eigenvalues --    0.19184   0.19406   0.19600   0.19800   0.19882
  Beta virt. eigenvalues --    0.20271   0.20458   0.20520   0.20810   0.21015
  Beta virt. eigenvalues --    0.21224   0.21536   0.21569   0.21826   0.21928
  Beta virt. eigenvalues --    0.22233   0.22398   0.22466   0.22538   0.23089
  Beta virt. eigenvalues --    0.23125   0.23460   0.23516   0.23930   0.24039
  Beta virt. eigenvalues --    0.24262   0.24442   0.24463   0.24659   0.24764
  Beta virt. eigenvalues --    0.24815   0.25020   0.25203   0.25578   0.25737
  Beta virt. eigenvalues --    0.25950   0.26289   0.26439   0.26974   0.27071
  Beta virt. eigenvalues --    0.27238   0.27361   0.27510   0.27773   0.28039
  Beta virt. eigenvalues --    0.28122   0.28481   0.28847   0.28972   0.29184
  Beta virt. eigenvalues --    0.29353   0.29764   0.29965   0.30189   0.30366
  Beta virt. eigenvalues --    0.30604   0.30766   0.30821   0.30954   0.31429
  Beta virt. eigenvalues --    0.31656   0.31895   0.32243   0.32513   0.32567
  Beta virt. eigenvalues --    0.32742   0.33268   0.33537   0.33655   0.33933
  Beta virt. eigenvalues --    0.34398   0.34580   0.34784   0.35094   0.35160
  Beta virt. eigenvalues --    0.35376   0.35496   0.35685   0.35821   0.36339
  Beta virt. eigenvalues --    0.36632   0.36699   0.36901   0.37131   0.37275
  Beta virt. eigenvalues --    0.37360   0.37732   0.37802   0.38084   0.38172
  Beta virt. eigenvalues --    0.38470   0.38660   0.38776   0.39032   0.39073
  Beta virt. eigenvalues --    0.39332   0.39593   0.39663   0.39947   0.40116
  Beta virt. eigenvalues --    0.40173   0.40531   0.40678   0.40871   0.40953
  Beta virt. eigenvalues --    0.41133   0.41458   0.41647   0.41678   0.41896
  Beta virt. eigenvalues --    0.42025   0.42340   0.42499   0.42582   0.42806
  Beta virt. eigenvalues --    0.42999   0.43198   0.43288   0.43589   0.43812
  Beta virt. eigenvalues --    0.43885   0.44098   0.44187   0.44332   0.44654
  Beta virt. eigenvalues --    0.44782   0.44862   0.44875   0.45149   0.45228
  Beta virt. eigenvalues --    0.45390   0.45507   0.45599   0.45722   0.45922
  Beta virt. eigenvalues --    0.46039   0.46179   0.46382   0.46609   0.46697
  Beta virt. eigenvalues --    0.46919   0.47039   0.47131   0.47230   0.47610
  Beta virt. eigenvalues --    0.47675   0.47847   0.48010   0.48323   0.48333
  Beta virt. eigenvalues --    0.48487   0.48781   0.48848   0.49059   0.49096
  Beta virt. eigenvalues --    0.49325   0.49392   0.49639   0.49929   0.49968
  Beta virt. eigenvalues --    0.50133   0.50306   0.50484   0.50705   0.50856
  Beta virt. eigenvalues --    0.51118   0.51470   0.51649   0.51817   0.51973
  Beta virt. eigenvalues --    0.52183   0.52285   0.52451   0.52669   0.52776
  Beta virt. eigenvalues --    0.52965   0.53026   0.53094   0.53399   0.53499
[...]
  Beta virt. eigenvalues --    3.37326   3.37535   3.38004   3.38261   3.38354
  Beta virt. eigenvalues --    3.38601   3.38940   3.39054   3.39326   3.39472
  Beta virt. eigenvalues --    3.39661   3.39789   3.39984   3.40292   3.40442
  Beta virt. eigenvalues --    3.40540   3.40895   3.41063   3.41508   3.41678
  Beta virt. eigenvalues --    3.42080   3.42252   3.42543   3.42833   3.43167
  Beta virt. eigenvalues --    3.43573   3.43729   3.43912   3.44079   3.44446
  Beta virt. eigenvalues --    3.45121   3.45189   3.45690   3.45985   3.46342
  Beta virt. eigenvalues --    3.46600   3.46654   3.47265   3.47284   3.47497
  Beta virt. eigenvalues --    3.47673   3.48112   3.48486   3.48575   3.48971
  Beta virt. eigenvalues --    3.49198   3.49371   3.49780   3.49863   3.50405
  Beta virt. eigenvalues --    3.50419   3.51034   3.51415   3.51714   3.52004
  Beta virt. eigenvalues --    3.52458   3.52772   3.53069   3.53799   3.54155
  Beta virt. eigenvalues --    3.54377   3.54575   3.54843   3.54937   3.55186
  Beta virt. eigenvalues --    3.55781   3.55964   3.56269   3.56789   3.57044
  Beta virt. eigenvalues --    3.57161   3.57593   3.57978   3.58015   3.58349
  Beta virt. eigenvalues --    3.58798   3.59389   3.59629   3.59857   3.60684
  Beta virt. eigenvalues --    3.60879   3.61606   3.61772   3.62109   3.62422
  Beta virt. eigenvalues --    3.62508   3.62749   3.63002   3.63599   3.63699
  Beta virt. eigenvalues --    3.64012   3.64472   3.65262   3.65586   3.65774
  Beta virt. eigenvalues --    3.66086   3.66677   3.67087   3.67247   3.67522
  Beta virt. eigenvalues --    3.67752   3.67923   3.68765   3.68919   3.68999
  Beta virt. eigenvalues --    3.69324   3.69776   3.70430   3.70498   3.71006
  Beta virt. eigenvalues --    3.71579   3.71787   3.72147   3.72706   3.72854
  Beta virt. eigenvalues --    3.73346   3.73427   3.74000   3.74134   3.74497
  Beta virt. eigenvalues --    3.74739   3.75476   3.75881   3.76234   3.76346
  Beta virt. eigenvalues --    3.76822   3.77069   3.77220   3.77750   3.78235
  Beta virt. eigenvalues --    3.78676   3.78792   3.78910   3.79369   3.80140
  Beta virt. eigenvalues --    3.80470   3.81183   3.82000   3.82301   3.82447
  Beta virt. eigenvalues --    3.82945   3.83211   3.83588   3.84090   3.84207
  Beta virt. eigenvalues --    3.84322   3.85027   3.85085   3.85524   3.85746
  Beta virt. eigenvalues --    3.86643   3.87137   3.87525   3.88110   3.88268
  Beta virt. eigenvalues --    3.89060   3.89632   3.89894   3.90059   3.90241
  Beta virt. eigenvalues --    3.91668   3.91872   3.92254   3.92798   3.93012
  Beta virt. eigenvalues --    3.93528   3.93903   3.94459   3.94756   3.95052
  Beta virt. eigenvalues --    3.95292   3.96043   3.96101   3.96516   3.97132
  Beta virt. eigenvalues --    3.97178   3.97971   3.98080   3.98627   3.99450
  Beta virt. eigenvalues --    3.99837   4.00464   4.00784   4.01248   4.01447
  Beta virt. eigenvalues --    4.01685   4.02729   4.03008   4.03673   4.04070
  Beta virt. eigenvalues --    4.04777   4.05225   4.05689   4.06274   4.06508
  Beta virt. eigenvalues --    4.07487   4.08226   4.08699   4.09102   4.09627
  Beta virt. eigenvalues --    4.09983   4.11133   4.11996   4.12539   4.12764
  Beta virt. eigenvalues --    4.13336   4.13389   4.14266   4.15242   4.15623
  Beta virt. eigenvalues --    4.15802   4.16062   4.16760   4.17024   4.17594
  Beta virt. eigenvalues --    4.18096   4.18773   4.18898   4.19231   4.19581
  Beta virt. eigenvalues --    4.20748   4.21020   4.21466   4.21954   4.22265
  Beta virt. eigenvalues --    4.22704   4.23772   4.24123   4.24239   4.25217
  Beta virt. eigenvalues --    4.25442   4.25761   4.26766   4.27235   4.27713
  Beta virt. eigenvalues --    4.28329   4.29143   4.29323   4.29673   4.30700
  Beta virt. eigenvalues --    4.31375   4.31986   4.32051   4.32318   4.32419
  Beta virt. eigenvalues --    4.33034   4.33092   4.33815   4.34492   4.34773
  Beta virt. eigenvalues --    4.35020   4.35278   4.36084   4.36374   4.36523
  Beta virt. eigenvalues --    4.36645   4.37613   4.37926   4.38075   4.38689
  Beta virt. eigenvalues --    4.39182   4.40158   4.40694   4.41413   4.41528
  Beta virt. eigenvalues --    4.41974   4.42898   4.43116   4.43239   4.44800
  Beta virt. eigenvalues --    4.44829   4.45575   4.45981   4.46411   4.46870
  Beta virt. eigenvalues --    4.47698   4.47880   4.48261   4.48814   4.49024
  Beta virt. eigenvalues --    4.49304   4.49652   4.50502   4.50862   4.51443
  Beta virt. eigenvalues --    4.51924   4.52350   4.52821   4.54134   4.54807
  Beta virt. eigenvalues --    4.55384   4.55436   4.56251   4.57797   4.57916
  Beta virt. eigenvalues --    4.58255   4.58934   4.59927   4.60120   4.61055
  Beta virt. eigenvalues --    4.61503   4.62096   4.62873   4.63667   4.64177
  Beta virt. eigenvalues --    4.64890   4.65181   4.66103   4.66707   4.67092
  Beta virt. eigenvalues --    4.67622   4.68828   4.69180   4.69514   4.70094
  Beta virt. eigenvalues --    4.70746   4.71289   4.71852   4.71989   4.72670
  Beta virt. eigenvalues --    4.73084   4.74506   4.75042   4.75254   4.75505
  Beta virt. eigenvalues --    4.75725   4.76564   4.76900   4.77703   4.78712
  Beta virt. eigenvalues --    4.79412   4.80017   4.80762   4.81378   4.82029
  Beta virt. eigenvalues --    4.83222   4.83492   4.83685   4.84848   4.85158
  Beta virt. eigenvalues --    4.85595   4.86505   4.87069   4.88097   4.88466
  Beta virt. eigenvalues --    4.89046   4.89643   4.90513   4.91184   4.91867
  Beta virt. eigenvalues --    4.91961   4.92705   4.92963   4.93917   4.94700
  Beta virt. eigenvalues --    4.96012   4.97036   4.97579   4.98125   4.99235
  Beta virt. eigenvalues --    5.00111   5.00472   5.00824   5.01687   5.02981
  Beta virt. eigenvalues --    5.03516   5.03654   5.04100   5.05063   5.06638
  Beta virt. eigenvalues --    5.07193   5.08636   5.09834   5.10229   5.11682
  Beta virt. eigenvalues --    5.15138   5.15734   5.16147   5.16458   5.16690
  Beta virt. eigenvalues --    5.17714   5.18771   5.18901   5.20079   5.20537
  Beta virt. eigenvalues --    5.21974   5.22189   5.22561   5.23140   5.23631
  Beta virt. eigenvalues --    5.23794   5.24565   5.24809   5.27158   5.28423
  Beta virt. eigenvalues --    5.29060   5.30302   5.31515   5.31947   5.32913
  Beta virt. eigenvalues --    5.33614   5.34134   5.34990   5.36196   5.36721
  Beta virt. eigenvalues --    5.38571   5.39021   5.41171   5.42275   5.43413
  Beta virt. eigenvalues --    5.44918   5.45568   5.45867   5.46100   5.46785
  Beta virt. eigenvalues --    5.48264   5.48842   5.50276   5.52056   5.54215
  Beta virt. eigenvalues --    5.56012   5.56809   5.57113   5.58012   5.58311
  Beta virt. eigenvalues --    5.58534   5.59029   5.59602   5.60875   5.61315
  Beta virt. eigenvalues --    5.61773   5.62686   5.63018   5.63905   5.66603
  Beta virt. eigenvalues --    5.70755   5.72876   5.76144   5.77278   5.77768
  Beta virt. eigenvalues --    5.78802   5.81731   5.82452   5.83777   5.91883
  Beta virt. eigenvalues --    5.93414   5.93788   5.95205   5.95389   5.96717
  Beta virt. eigenvalues --    5.96861   5.99548   6.00968   6.01422   6.04312
  Beta virt. eigenvalues --    6.08267   6.09519   6.09763   6.10916   6.12294
  Beta virt. eigenvalues --    6.12625   6.13834   6.16586   6.17594   6.18948
  Beta virt. eigenvalues --    6.25983   6.26281   6.28245   6.29681   6.32527
  Beta virt. eigenvalues --    6.33186   6.34307   6.34354   6.40099   6.41994
  Beta virt. eigenvalues --    6.43473   6.45745   6.49900   6.50809   6.64897
  Beta virt. eigenvalues --    6.65113   6.73179   6.75545   6.79848   6.83621
  Beta virt. eigenvalues --    6.89153   6.93804   6.99978   7.06324   7.10195
  Beta virt. eigenvalues --    7.13803   7.18052   7.19012   7.25083   7.32427
  Beta virt. eigenvalues --    9.27415   9.49018   9.60956  20.11416  22.47132
  Beta virt. eigenvalues --   22.49485  22.50575  22.52039  22.53383  22.54061
  Beta virt. eigenvalues --   22.54682  22.55022  22.55456  22.56283  22.59523
  Beta virt. eigenvalues --   22.60890  22.63957  22.66116  22.66892  22.71014
  Beta virt. eigenvalues --   22.81662  22.93153  22.94424  22.95892  22.96426
  Beta virt. eigenvalues --   22.98486  23.06264  23.09412  23.14059  23.18449
  Beta virt. eigenvalues --   23.23068  23.28055  23.29056  23.34094  23.38243
  Beta virt. eigenvalues --   23.42093  23.49447  23.51024  23.52881  23.57719
  Beta virt. eigenvalues --   23.61224  23.71527  23.76069  23.77441  23.87613
  Beta virt. eigenvalues --   32.45692  32.82429  32.95746  33.03043  33.09431
  Beta virt. eigenvalues --   33.15352  43.92545  43.95324  43.95799  43.98870
          Condensed to atoms (all electrons):
          Atomic-Atomic Spin Densities.
 Mulliken charges and spin densities:
               1          2
     1  C   -0.386196   0.000767
     2  C    0.130715   0.005158
     3  N   -0.202504   0.004993
     4  C   -0.219389   0.002134
     5  C    0.013090   0.007253
     6  N    0.034699   0.052358
     7  C   -0.374214  -0.001542
     8  C   -0.153548   0.002870
     9  S   -0.015467   0.113501
    10  C   -0.386879   0.000194
    11  Fe  -0.272671   4.360124
    12  C   -0.548056  -0.021299
    13  C   -0.555933  -0.019061
    14  C   -0.512660  -0.020247
    15  C   -0.533618  -0.025163
    16  N    0.013861   0.046241
    17  C    0.275570   0.023152
    18  C    0.004025   0.015342
    19  C   -0.087175   0.017442
    20  C    0.321990   0.020449
    21  C   -0.440289   0.000568
    22  C   -0.309766  -0.000274
    23  C   -0.190748   0.000594
    24  C    0.278908   0.000036
    25  O   -0.454467   0.000113
    26  O   -0.305713   0.000005
    27  N   -0.015458   0.049633
    28  C    0.216911   0.019635
    29  C   -0.051777   0.020734
    30  C   -0.037880   0.017831
    31  C    0.228300   0.022651
    32  C   -0.428262  -0.000201
    33  C   -0.174456   0.000272
    34  C   -0.420507   0.000692
    35  N   -0.051558   0.043670
    36  C    0.230700   0.017044
    37  C   -0.066124   0.018735
    38  C   -0.097200   0.015533
    39  C    0.406443   0.026883
    40  C   -0.415219  -0.000081
    41  C   -0.166070   0.000066
    42  C   -0.410611   0.000522
    43  N    0.023486   0.048460
    44  C    0.146347   0.022523
    45  C   -0.041444   0.019748
    46  C    0.051003   0.018591
    47  C    0.302792   0.025849
    48  C   -0.412482   0.000068
    49  C   -0.391411  -0.000619
    50  C   -0.156229   0.001045
    51  C    0.304061   0.000135
    52  O   -0.393037   0.000164
    53  O   -0.365474   0.000008
    54  H    0.160506   0.000113
    55  H    0.149365   0.000173
    56  H    0.161965   0.000073
    57  H    0.283857   0.001259
    58  H    0.176146   0.000783
    59  H    0.192080   0.000674
    60  H    0.138007   0.000315
    61  H    0.137117   0.000479
    62  H    0.123856   0.000587
    63  H    0.139295   0.002496
    64  H    0.161609   0.002121
    65  H    0.177126   0.000295
    66  H    0.159515   0.001105
    67  H    0.181653   0.003612
    68  H    0.160988   0.000448
    69  H    0.149265   0.000282
    70  H    0.153745   0.000610
    71  H    0.150554   0.000667
    72  H    0.149114   0.000039
    73  H    0.163338   0.000675
    74  H    0.155070   0.000474
    75  H    0.150582   0.000399
    76  H    0.135983   0.000351
    77  H    0.148699   0.000026
    78  H    0.143876  -0.000001
    79  H    0.162572   0.000391
    80  H    0.151787   0.000358
    81  H    0.159311   0.000907
    82  H    0.140148   0.000519
    83  H    0.117859  -0.000012
    84  H    0.140315   0.000142
    85  H    0.135098   0.000024
    86  H    0.144943   0.000074
    87  H    0.145552   0.000322
    88  H    0.161060   0.000673
    89  H    0.154112   0.000339
    90  H    0.136762   0.000585
    91  H    0.115210   0.000013
    92  H    0.140733   0.000158
    93  H    0.130823  -0.000032
    94  H    0.134297   0.000071
    95  H    0.144802   0.000408
    96  H    0.160489   0.000670
    97  H    0.160802   0.000450
    98  H    0.150901   0.000474
    99  H    0.128374   0.000162
   100  H    0.142512  -0.000024
   101  H    0.121766  -0.000051
   102  H    0.392868   0.000022
   103  H    0.385183   0.000004
 Sum of Mulliken charges =   1.00000   5.00000
 Mulliken charges and spin densities with hydrogens summed into heavy atoms:
               1          2
     1  C    0.085640   0.001125
     2  C    0.130715   0.005158
     3  N    0.081353   0.006252
     4  C   -0.043243   0.002917
     5  C    0.205170   0.007927
     6  N    0.034699   0.052358
     7  C    0.024766  -0.000162
     8  C    0.147356   0.007487
     9  S   -0.015467   0.113501
    10  C    0.131416   0.005207
    11  Fe  -0.272671   4.360124
    12  C   -0.387068  -0.020851
    13  C   -0.406668  -0.018779
    14  C   -0.358915  -0.019637
    15  C   -0.383065  -0.024496
    16  N    0.013861   0.046241
    17  C    0.275570   0.023152
    18  C    0.004025   0.015342
    19  C   -0.087175   0.017442
    20  C    0.321990   0.020449
    21  C    0.027234   0.001756
    22  C   -0.023201   0.000476
    23  C    0.101826   0.000619
    24  C    0.278908   0.000036
    25  O   -0.454467   0.000113
    26  O    0.079471   0.000008
    27  N   -0.015458   0.049633
    28  C    0.216911   0.019635
    29  C   -0.051777   0.020734
    30  C   -0.037880   0.017831
    31  C    0.228300   0.022651
    32  C    0.045408   0.001455
    33  C    0.083551   0.000780
    34  C   -0.000151   0.000932
    35  N   -0.051558   0.043670
    36  C    0.230700   0.017044
    37  C   -0.066124   0.018735
    38  C   -0.097200   0.015533
    39  C    0.406443   0.026883
    40  C    0.045505   0.001254
    41  C    0.085903   0.000663
    42  C   -0.004758   0.000719
    43  N    0.023486   0.048460
    44  C    0.146347   0.022523
    45  C   -0.041444   0.019748
    46  C    0.051003   0.018591
    47  C    0.302792   0.025849
    48  C    0.053611   0.001596
    49  C   -0.112136   0.000017
    50  C    0.108049   0.000970
    51  C    0.304061   0.000135
    52  O   -0.393037   0.000164
    53  O    0.027394   0.000030
 Electronic spatial extent (au):  <R**2>=          34174.7523
 Charge=              1.0000 electrons
 Dipole moment (field-independent basis, Debye):
    X=              7.8054    Y=              3.9783    Z=              2.5731  Tot=              9.1308
 Quadrupole moment (field-independent basis, Debye-Ang):
   XX=           -282.0224   YY=           -252.8204   ZZ=           -286.5967
   XY=            -36.1930   XZ=              5.4758   YZ=             13.7747
 Traceless Quadrupole moment (field-independent basis, Debye-Ang):
   XX=             -8.2093   YY=             20.9928   ZZ=            -12.7835
   XY=            -36.1930   XZ=              5.4758   YZ=             13.7747
 Octapole moment (field-independent basis, Debye-Ang**2):
  XXX=            251.5858  YYY=            130.5718  ZZZ=            122.9108  XYY=            -32.4472
  XXY=            190.2128  XXZ=            -33.2853  XZZ=            139.3480  YZZ=             -5.6232
  YYZ=            -36.2400  XYZ=            -96.6480
 Hexadecapole moment (field-independent basis, Debye-Ang**3):
 XXXX=         -23091.1227 YYYY=         -13500.5883 ZZZZ=          -5097.3915 XXXY=          -1261.2327
 XXXZ=             89.8050 YYYX=          -1104.3376 YYYZ=            374.6711 ZZZX=            320.1184
 ZZZY=           -258.4434 XXYY=          -5485.0281 XXZZ=          -5613.4634 YYZZ=          -3622.8228
 XXYZ=            779.5779 YYXZ=            391.4039 ZZXY=           -275.6857
 N-N= 9.034406589294D+03 E-N=-2.715553492557D+04  KE= 3.870964933054D+03
 1\1\GINC-NODE411\SP\UPBE1PBE\def2TZVP\C41H50Fe1N6O4S1(1+,6)\KLEICH\12-
 Sep-2022\0\\# PBE1PBE/def2TZVP empiricaldispersion=GD3BJ int=(grid=ult
 rafine) geom=check guess=read scrf=(smd,solvent=Chloroform)\\1ctj_III_
 H_solv\\1,6\C,0,17.385,43.116,-18.171\C,0,16.646,44.283,-17.629\N,0,17
 .192,45.153,-16.726\C,0,15.354,44.655,-17.762\C,0,16.223,46.009,-16.35
 2\N,0,15.105,45.741,-16.934\C,0,11.228,50.126,-17.291\C,0,10.692,48.71
 6,-17.503\S,0,11.192,47.599,-16.165\C,0,9.859,46.393,-16.206\Fe,0,13.2
 58,46.586,-16.683\C,0,14.112,48.106,-13.777\C,0,12.342,43.796,-14.983\
 C,0,12.062,45.238,-19.575\C,0,14.539,49.179,-18.442\N,0,13.269,46.034,
 -14.737\C,0,13.692,46.802,-13.682\C,0,13.546,46.034,-12.457\C,0,13.036
 ,44.844,-12.789\C,0,12.842,44.823,-14.225\C,0,12.674,43.689,-11.857\C,
 0,14.032,46.507,-11.078\C,0,15.559,46.477,-10.964\C,0,16.109,47.3,-9.8
 07\O,0,17.303,47.008,-9.454\O,0,15.414,48.196,-9.329\N,0,12.373,44.867
 ,-17.193\C,0,12.092,43.817,-16.329\C,0,11.458,42.747,-17.065\C,0,11.31
 9,43.178,-18.339\C,0,11.877,44.496,-18.421\C,0,11.118,41.373,-16.491\C
 ,0,10.705,42.45,-19.528\C,0,9.207,42.154,-19.34\N,0,13.301,47.115,-18.
 61\C,0,12.79,46.403,-19.667\C,0,13.156,47.044,-20.932\C,0,13.92,48.097
 ,-20.624\C,0,13.987,48.168,-19.179\C,0,12.755,46.497,-22.32\C,0,14.747
 ,49.003,-21.545\C,0,13.915,49.773,-22.585\N,0,14.091,48.302,-16.212\C,
 0,14.53,49.3,-17.081\C,0,14.947,50.46,-16.332\C,0,14.756,50.189,-15.02
 4\C,0,14.305,48.819,-14.945\C,0,15.368,51.794,-16.965\C,0,14.943,51.15
 7,-13.855\C,0,13.661,51.997,-13.611\C,0,13.865,53.009,-12.515\O,0,14.0
 74,52.625,-11.351\O,0,13.718,54.197,-12.862\H,0,17.58804681,43.2734845
 9,-19.20968696\H,0,18.30719827,43.00025896,-17.6408544\H,0,16.79265016
 ,42.23272905,-18.05329656\H,0,18.13828841,45.15312787,-16.40267629\H,0
 ,14.63681319,44.18698821,-18.40348892\H,0,16.36341726,46.8114914,-15.6
 5832101\H,0,11.17812751,50.66872246,-18.21179589\H,0,10.63763839,50.62
 444342,-16.55077887\H,0,12.24474083,50.07527162,-16.9615084\H,0,11.159
 69794,48.34762147,-18.39207587\H,0,9.62580296,48.78911841,-17.45029742
 \H,0,10.14001742,45.53129306,-15.63732579\H,0,9.66920482,46.10545759,-
 17.21901389\H,0,8.97452668,46.82457433,-15.78605888\H,0,14.30862979,48
 .61907374,-12.85885401\H,0,12.1244658,42.88294577,-14.46927745\H,0,11.
 60078485,44.87594842,-20.47004148\H,0,15.02955358,49.95714664,-18.9885
 757\H,0,12.50518782,42.80417847,-12.43448879\H,0,11.78600637,43.934619
 2,-11.31290579\H,0,13.4772518,43.51921094,-11.1708089\H,0,13.66546159,
 45.79258497,-10.37077955\H,0,13.74644303,47.53500383,-10.99697323\H,0,
 15.92701028,46.94302578,-11.85410584\H,0,15.81523066,45.46108477,-10.7
 4683164\H,0,10.38304623,40.90038838,-17.1085607\H,0,10.73146261,41.486
 28266,-15.49970999\H,0,12.00130869,40.76979158,-16.46262126\H,0,11.190
 95593,41.49786943,-19.57484249\H,0,10.77138306,43.12579409,-20.3549193
 7\H,0,8.65935996,42.54257751,-20.17306536\H,0,9.05758506,41.0963582,-1
 9.277\H,0,8.86221801,42.61720064,-18.4391834\H,0,12.96412465,47.233390
 21,-23.0675937\H,0,13.31379432,45.60859605,-22.52829625\H,0,11.7093384
 1,46.27014788,-22.32547351\H,0,15.37919241,48.34722466,-22.10641914\H,
 0,15.17851579,49.74753713,-20.90910804\H,0,14.46884204,50.62228183,-22
 .92687624\H,0,13.69776571,49.13176613,-23.41357008\H,0,12.99971915,50.
 10050287,-22.13789505\H,0,15.41269502,52.54938278,-16.2084954\H,0,16.3
 3125485,51.68553259,-17.41807274\H,0,14.65343743,52.07672516,-17.70955
 814\H,0,15.7043967,51.84720662,-14.15297631\H,0,15.07973135,50.5536918
 1,-12.98194573\H,0,12.91693527,51.31477247,-13.25627012\H,0,13.4911769
 1,52.55481909,-14.50816106\H,0,14.4869676,54.74865685,-13.02313209\H,0
 ,15.82900403,48.9597727,-8.9215409\\Version=ES64L-G16RevA.03\State=6-A
 \HF=-3881.8017276\S2=8.759929\S2-1=0.\S2A=8.75003\RMSD=5.094e-09\Dipol
 e=0.2758733,-0.560629,-3.5375827\Quadrupole=-9.0061364,29.5137628,-20.
 5076264,14.6030328,-11.4672124,0.0554189\PG=C01 [X(C41H50Fe1N6O4S1)]\\
 @


 A FOOL CAN ASK MORE QUESTIONS THAN
 A WISE MAN CAN ANSWER.
 Job cpu time:       2 days 12 hours 52 minutes  7.7 seconds.
 Elapsed time:       0 days 15 hours 17 minutes 32.8 seconds.
 File lengths (MBytes):  RWF=   4409 Int=      0 D2E=      0 Chk=    298 Scr=      1
 Normal termination of Gaussian 16 at Mon Sep 12 14:17:17 2022.
