 Entering Gaussian System, Link 0=g16
 Input=/net/homes/chemie/zhartovska/work/BioModel/Konrad/1cxc/1cxc12/1cxc12.com
 Output=/net/homes/chemie/zhartovska/work/BioModel/Konrad/1cxc/1cxc12/1cxc12.log
 Initial command:
 /afs/math/software/gaussian/g16.A03/g16/l1.exe "/scratch/zhartovska_gaussian.U8z8flx/Gau-18622.inp" -scrdir="/scratch/zhartovska_gaussian.U8z8flx/"
 Entering Link 1 = /afs/math/software/gaussian/g16.A03/g16/l1.exe PID=     18623.
  
 Copyright (c) 1988,1990,1992,1993,1995,1998,2003,2009,2016,
            Gaussian, Inc.  All Rights Reserved.
  
 This is part of the Gaussian(R) 16 program.  It is based on
 the Gaussian(R) 09 system (copyright 2009, Gaussian, Inc.),
 the Gaussian(R) 03 system (copyright 2003, Gaussian, Inc.),
 the Gaussian(R) 98 system (copyright 1998, Gaussian, Inc.),
 the Gaussian(R) 94 system (copyright 1995, Gaussian, Inc.),
 the Gaussian 92(TM) system (copyright 1992, Gaussian, Inc.),
 the Gaussian 90(TM) system (copyright 1990, Gaussian, Inc.),
 the Gaussian 88(TM) system (copyright 1988, Gaussian, Inc.),
 the Gaussian 86(TM) system (copyright 1986, Carnegie Mellon
 University), and the Gaussian 82(TM) system (copyright 1983,
 Carnegie Mellon University). Gaussian is a federally registered
 trademark of Gaussian, Inc.
  
 This software contains proprietary and confidential information,
 including trade secrets, belonging to Gaussian, Inc.
  
 This software is provided under written license and may be
 used, copied, transmitted, or stored only in accord with that
 written license.
  
 The following legend is applicable only to US Government
 contracts under FAR:
  
                    RESTRICTED RIGHTS LEGEND
  
 Use, reproduction and disclosure by the US Government is
 subject to restrictions as set forth in subparagraphs (a)
 and (c) of the Commercial Computer Software - Restricted
 Rights clause in FAR 52.227-19.
  
 Gaussian, Inc.
 340 Quinnipiac St., Bldg. 40, Wallingford CT 06492
  
  
 ---------------------------------------------------------------
 Warning -- This program may not be used in any manner that
 competes with the business of Gaussian, Inc. or will provide
 assistance to any competitor of Gaussian, Inc.  The licensee
 of this program is prohibited from giving any competitor of
 Gaussian, Inc. access to this program.  By using this program,
 the user acknowledges that Gaussian, Inc. is engaged in the
 business of creating and licensing software in the field of
 computational chemistry and represents and warrants to the
 licensee that it is not a competitor of Gaussian, Inc. and that
 it will not use this program in any manner prohibited above.
 ---------------------------------------------------------------
  

 Cite this work as:
 Gaussian 16, Revision A.03,
 M. J. Frisch, G. W. Trucks, H. B. Schlegel, G. E. Scuseria, 
 M. A. Robb, J. R. Cheeseman, G. Scalmani, V. Barone, 
 G. A. Petersson, H. Nakatsuji, X. Li, M. Caricato, A. V. Marenich, 
 J. Bloino, B. G. Janesko, R. Gomperts, B. Mennucci, H. P. Hratchian, 
 J. V. Ortiz, A. F. Izmaylov, J. L. Sonnenberg, D. Williams-Young, 
 F. Ding, F. Lipparini, F. Egidi, J. Goings, B. Peng, A. Petrone, 
 T. Henderson, D. Ranasinghe, V. G. Zakrzewski, J. Gao, N. Rega, 
 G. Zheng, W. Liang, M. Hada, M. Ehara, K. Toyota, R. Fukuda, 
 J. Hasegawa, M. Ishida, T. Nakajima, Y. Honda, O. Kitao, H. Nakai, 
 T. Vreven, K. Throssell, J. A. Montgomery, Jr., J. E. Peralta, 
 F. Ogliaro, M. J. Bearpark, J. J. Heyd, E. N. Brothers, K. N. Kudin, 
 V. N. Staroverov, T. A. Keith, R. Kobayashi, J. Normand, 
 K. Raghavachari, A. P. Rendell, J. C. Burant, S. S. Iyengar, 
 J. Tomasi, M. Cossi, J. M. Millam, M. Klene, C. Adamo, R. Cammi, 
 J. W. Ochterski, R. L. Martin, K. Morokuma, O. Farkas, 
 J. B. Foresman, and D. J. Fox, Gaussian, Inc., Wallingford CT, 2016.
 
 ******************************************
 Gaussian 16:  ES64L-G16RevA.03 25-Dec-2016
                 3-Nov-2022 
 ******************************************
 %nprocs=12
 Will use up to   12 processors via shared memory.
 %mem=16GB
 %oldchk=1cxc_II_S.chk
 %chk=1cxc_III_D.chk
 Copying data from "1cxc_II_S.chk" to current chk file "1cxc_III_D.chk"
 IOpt=  2 FromEx=T IUOpen= 4 IOptOp= 5 NList=   0 IFRang= 0 IUIn= 4 IUOut= 2.
 ----------------------------------------------------------------------
 # PBE1PBE/def2TZVP empiricaldispersion=GD3BJ scf=maxcycle=999 geom=che
 ck pop=nbo
 ----------------------------------------------------------------------
 1/29=2,38=1,172=1/1;
 2/12=2,40=1/2;
 3/5=44,7=101,11=2,14=-4,25=1,30=1,74=-13,124=41/1,2,3;
 4//1;
 5/5=2,7=999,38=5/2;
 6/7=2,8=2,9=2,10=2,28=1,40=1/1,7;
 99/5=1,9=1/99;
 ----------
 1cxc_III_D
 ----------
 Structure from the checkpoint file:  "1cxc_III_D.chk"
 Charge =  1 Multiplicity = 2
 Z-Matrix found in chk file.
 C,0,78.752998,25.169001,20.826
 C,0,79.831001,25.295,19.747
 N,0,79.633003,26.038,18.579
 C,0,81.039001,24.628,19.697001
 C,0,80.745003,25.796,17.85
 N,0,81.569,24.989,18.445
 C,0,87.301003,25.139999,16.516001
 C,0,86.764999,24.030001,17.419001
 S,0,85.233002,23.263,16.796
 C,0,85.511002,21.620001,17.33
 Fe,0,83.263,24.167999,17.721001
 C,0,82.996002,25.962999,14.866
 C,0,81.308998,21.716,16.389999
 C,0,83.694,22.281,20.549999
 C,0,84.963997,26.739,19.207001
 N,0,82.372002,23.871,15.983
 C,0,82.376999,24.725,14.891
 C,0,81.637001,24.15,13.781
 C,0,81.183998,22.943001,14.193
 C,0,81.616997,22.796,15.572
 C,0,80.466003,21.92,13.324
 C,0,81.334999,24.801001,12.439
 C,0,79.931,25.385,12.44
 C,0,79.619003,26.367001,11.322
 O,0,78.959999,27.35,11.59
 O,0,80.199997,26.236,10.25
 N,0,82.657997,22.391001,18.323
 C,0,81.778999,21.535999,17.674
 C,0,81.483002,20.371,18.490999
 C,0,82.213997,20.472,19.645
 C,0,82.927002,21.74,19.533001
 C,0,80.526001,19.236,18.107
 C,0,82.306999,19.500999,20.683001
 C,0,82.9152898,18.11683185,20.39031754
 N,0,84.172997,24.438999,19.468
 C,0,84.263,23.537001,20.524
 C,0,84.920998,24.139999,21.666
 C,0,85.278,25.389999,21.291
 C,0,84.799004,25.573999,19.934999
 C,0,84.983002,23.559,23.070999
 C,0,85.932999,26.341,22.066999
 C,0,87.223999,26.094999,22.693001
 N,0,83.831001,25.954,17.169001
 C,0,84.523003,26.914,17.905001
 C,0,84.813004,28.082001,17.101999
 C,0,84.324997,27.841,15.865
 C,0,83.692001,26.537001,15.919
 C,0,85.566002,29.334,17.547001
 C,0,84.656998,28.629,14.607
 C,0,85.712997,27.910999,13.768
 C,0,86.494003,28.816999,12.805
 O,0,87.511002,28.375999,12.29
 O,0,85.924004,29.778,12.316
 H,0,86.43022184,21.57302177,17.87564443
 H,0,84.70511162,21.30901652,17.9614502
 H,0,85.56766673,20.97328741,16.47944098
 H,0,88.24425242,24.84304872,16.10734336
 H,0,86.60798121,25.31851601,15.7205436
 H,0,87.42611681,26.03571797,17.08778248
 H,0,87.51439658,23.27176807,17.51057656
 H,0,86.57236195,24.44057225,18.38813578
 H,0,79.12190644,25.56925979,21.74719458
 H,0,77.88163149,25.71201109,20.52473527
 H,0,78.50176896,24.13763976,20.96045431
 H,0,78.8513545,26.61378281,18.3392089
 H,0,80.92646676,26.22368306,16.8861234
 H,0,81.47066703,23.9869344,20.43700056
 H,0,81.95421749,19.73332004,21.66609415
 H,0,83.85878024,18.02952899,20.88741311
 H,0,82.25356177,17.35428537,20.7446322
 H,0,83.05617101,18.00495467,19.33554933
 H,0,80.98605398,18.29389506,18.32075109
 H,0,79.62077427,19.3268281,18.67021828
 H,0,80.30341413,19.29531498,17.06209004
 H,0,83.85757957,21.68066302,21.42048003
 H,0,85.87046113,23.90254227,23.56017689
 H,0,84.12460964,23.87533449,23.62597201
 H,0,84.99753538,22.4905747,23.01481931
 H,0,87.94397837,26.78756088,22.30974163
 H,0,87.13664338,26.22080101,23.75198299
 H,0,87.54031088,25.09581473,22.4774144
 H,0,85.46791514,27.29400028,22.20978369
 H,0,85.46455636,27.55789718,19.68002081
 H,0,80.65692379,20.96616905,15.9931958
 H,0,81.06813756,21.03969104,13.23803423
 H,0,79.52741006,21.66781123,13.77159817
 H,0,80.29777381,22.33341767,12.35153675
 H,0,82.043032,25.58246942,12.25762642
 H,0,81.41219975,24.06689388,11.66438604
 H,0,79.23398844,24.57568552,12.37608641
 H,0,79.77924741,25.88484069,13.3738257
 H,0,81.15956392,26.2325026,10.22138026
 H,0,82.93195666,26.52437317,13.95734317
 H,0,86.50193577,29.38944365,17.03139071
 H,0,84.98176819,30.20117925,17.31990848
 H,0,85.74185198,29.28852686,18.60147195
 H,0,85.02679343,29.59378163,14.88511463
 H,0,83.7680099,28.74897633,14.02372833
 H,0,86.41026659,27.44356199,14.43148908
 H,0,85.22748885,27.14886917,13.19499044
 H,0,86.43468283,30.50249908,11.94734268
 Recover connectivity data from disk.
 Stoichiometry    C41H48FeN6O4S(1+,2)
 Framework group  C1[X(C41H48FeN6O4S)]
 Deg. of freedom   297
 Full point group                 C1      NOp   1
 Largest Abelian subgroup         C1      NOp   1
 Largest concise Abelian subgroup C1      NOp   1
                         Standard orientation:                         
 ---------------------------------------------------------------------
 Center     Atomic      Atomic             Coordinates (Angstroms)
 Number     Number       Type             X           Y           Z
 ---------------------------------------------------------------------
      1          6           0        2.696950   -1.802421    4.862558
      2          6           0        1.755409   -1.282022    3.774029
      3          7           0        0.364424   -1.370551    3.887166
      4          6           0        2.109695   -0.798069    2.530276
      5          6           0       -0.085529   -0.928021    2.692068
      6          7           0        0.875895   -0.600703    1.884125
      7          6           0       -0.614060    3.099490   -2.664315
      8          6           0        0.712625    2.342734   -2.619238
      9         16           0        0.519372    0.555136   -2.318269
     10          6           0        1.842575   -0.033833   -3.300173
     11         26           0        0.755783   -0.067386   -0.057266
     12          6           0       -2.624426   -0.135793    0.060431
     13          6           0        0.820637   -3.390412   -0.802439
     14          6           0        4.168467    0.059620   -0.352581
     15          6           0        0.750698    3.189102    0.994823
     16          7           0       -0.606837   -1.466726   -0.353662
     17          6           0       -1.982683   -1.315000   -0.277306
     18          6           0       -2.658953   -2.562205   -0.589497
     19          6           0       -1.696791   -3.474485   -0.861144
     20          6           0       -0.427221   -2.792289   -0.678007
     21          6           0       -1.933142   -4.891036   -1.365853
     22          6           0       -4.154488   -2.838469   -0.534509
     23          6           0       -4.515216   -3.532218    0.769660
     24          6           0       -5.992850   -3.547930    1.127351
     25          8           0       -6.303814   -3.368755    2.286486
     26          8           0       -6.814597   -3.544247    0.217068
     27          7           0        2.170944   -1.366176   -0.500680
     28          6           0        2.027952   -2.731208   -0.703436
     29          6           0        3.319770   -3.370873   -0.888791
     30          6           0        4.280354   -2.395356   -0.845012
     31          6           0        3.552636   -1.157257   -0.587559
     32          6           0        3.545480   -4.872386   -1.103371
     33          6           0        5.675172   -2.561132   -1.081529
     34          6           0        6.172237   -3.022260   -2.464239
     35          7           0        2.140401    1.333608    0.214006
     36          6           0        3.514454    1.212135    0.029454
     37          6           0        4.200065    2.425612    0.427126
     38          6           0        3.243115    3.304280    0.804968
     39          6           0        1.971984    2.617356    0.684988
     40          6           0        5.703040    2.586150    0.602399
     41          6           0        3.435187    4.601558    1.269489
     42          6           0        4.149461    5.614921    0.506610
     43          7           0       -0.622963    1.225613    0.437044
     44          6           0       -0.468171    2.542545    0.865871
     45          6           0       -1.749869    3.184099    1.062841
     46          6           0       -2.698313    2.278760    0.735407
     47          6           0       -1.998005    1.059743    0.378225
     48          6           0       -1.992886    4.623551    1.511678
     49          6           0       -4.167940    2.579401    0.483323
     50          6           0       -4.465699    2.664210   -1.012915
     51          6           0       -5.727189    3.462400   -1.373069
     52          8           0       -5.894836    3.787021   -2.539477
     53          8           0       -6.668257    3.448155   -0.597356
     54          1           0        2.369471    0.795750   -3.723343
     55          1           0        2.510189   -0.607626   -2.691936
     56          1           0        1.457190   -0.649772   -4.085665
     57          1           0       -0.769186    3.489064   -3.648727
     58          1           0       -1.413275    2.433427   -2.414286
     59          1           0       -0.588741    3.905905   -1.961496
     60          1           0        1.216519    2.479847   -3.553150
     61          1           0        1.316691    2.757532   -1.839528
     62          1           0        3.288347   -0.994038    5.238945
     63          1           0        2.121616   -2.224785    5.659740
     64          1           0        3.339166   -2.552276    4.450034
     65          1           0       -0.171961   -1.687256    4.669463
     66          1           0       -1.122694   -0.855360    2.439265
     67          1           0        3.092232   -0.615913    2.147732
     68          1           0        6.377580   -2.365267   -0.298484
     69          1           0        6.679769   -2.214288   -2.948484
     70          1           0        6.844983   -3.845727   -2.345012
     71          1           0        5.337323   -3.327160   -3.059936
     72          1           0        4.237634   -5.017855   -1.906280
     73          1           0        3.941370   -5.305034   -0.208392
     74          1           0        2.614930   -5.341971   -1.345167
     75          1           0        5.230083    0.109981   -0.476414
     76          1           0        5.976872    3.604023    0.418415
     77          1           0        5.976209    2.318352    1.601680
     78          1           0        6.212904    1.948961   -0.089648
     79          1           0        3.490907    6.430803    0.293203
     80          1           0        4.982879    5.968980    1.076659
     81          1           0        4.499615    5.189842   -0.410777
     82          1           0        3.041023    4.865719    2.228527
     83          1           0        0.747155    4.195751    1.357513
     84          1           0        0.846967   -4.443607   -0.989487
     85          1           0       -1.522890   -4.992525   -2.348856
     86          1           0       -1.458276   -5.588123   -0.707468
     87          1           0       -2.984393   -5.088170   -1.396003
     88          1           0       -4.687822   -1.913345   -0.602343
     89          1           0       -4.428737   -3.466018   -1.356621
     90          1           0       -4.175970   -4.545401    0.712444
     91          1           0       -3.986135   -3.046064    1.562521
     92          1           0       -6.798182   -2.846027   -0.441583
     93          1           0       -3.694218   -0.147930    0.077705
     94          1           0       -2.423229    5.180597    0.705821
     95          1           0       -2.662383    4.628693    2.346331
     96          1           0       -1.063303    5.069843    1.797335
     97          1           0       -4.418987    3.511919    0.944069
     98          1           0       -4.763743    1.802953    0.915811
     99          1           0       -3.628123    3.120211   -1.498127
    100          1           0       -4.576369    1.669616   -1.391642
    101          1           0       -7.339523    4.132833   -0.644439
 ---------------------------------------------------------------------
 Rotational constants (GHZ):           0.0637788           0.0447909           0.0339875
 Standard basis: def2TZVP (5D, 7F)
 There are  2218 symmetry adapted cartesian basis functions of A   symmetry.
 There are  1951 symmetry adapted basis functions of A   symmetry.
  1951 basis functions,  3156 primitive gaussians,  2218 cartesian basis functions
   205 alpha electrons      204 beta electrons
       nuclear repulsion energy      8961.5051956933 Hartrees.
 NAtoms=  101 NActive=  101 NUniq=  101 SFac= 1.00D+00 NAtFMM=   60 NAOKFM=T Big=T
 Integral buffers will be    131072 words long.
 Raffenetti 2 integral format.
 Two-electron integral symmetry is turned on.
 Nuclear repulsion after empirical dispersion term =     8961.3547778686 Hartrees.
 One-electron integrals computed using PRISM.
   1 Symmetry operations used in ECPInt.
 ECPInt:  NShTT=  305371 NPrTT=  941867 LenC2=  223623 LenP2D=  446174.
 LDataN:  DoStor=T MaxTD1= 6 Len=  172
 NBasis=  1951 RedAO= T EigKep=  2.87D-06  NBF=  1951
 NBsUse=  1951 1.00D-06 EigRej= -1.00D+00 NBFU=  1951
 ExpMin= 4.20D-02 ExpMax= 3.01D+05 ExpMxC= 2.91D+03 IAcc=3 IRadAn=         5 AccDes= 0.00D+00
 Harris functional with IExCor= 1009 and IRadAn=       5 diagonalized for initial guess.
 HarFok:  IExCor= 1009 AccDes= 0.00D+00 IRadAn=         5 IDoV= 1 UseB2=F ITyADJ=14
 ICtDFT=  3500011 ScaDFX=  1.000000  1.000000  1.000000  1.000000
 FoFCou: FMM=F IPFlag=           0 FMFlag=      100000 FMFlg1=        2001
         NFxFlg=           0 DoJE=T BraDBF=F KetDBF=T FulRan=T
         wScrn=  0.000000 ICntrl=       500 IOpCl=  0 I1Cent=   200000004 NGrid=           0
         NMat0=    1 NMatS0=      1 NMatT0=    0 NMatD0=    1 NMtDS0=    0 NMtDT0=    0
 Petite list used in FoFCou.
 Initial guess <Sx>= 0.0000 <Sy>= 0.0000 <Sz>= 0.5000 <S**2>= 0.7500 S= 0.5000
 Requested convergence on RMS density matrix=1.00D-08 within 999 cycles.
 Requested convergence on MAX density matrix=1.00D-06.
 Requested convergence on             energy=1.00D-06.
 No special actions if energy rises.
 EnCoef did   100 forward-backward iterations
 EnCoef did     5 forward-backward iterations
 EnCoef did     7 forward-backward iterations
 EnCoef did   100 forward-backward iterations
 EnCoef did   100 forward-backward iterations
 EnCoef did    14 forward-backward iterations
 EnCoef did     3 forward-backward iterations
 EnCoef did     2 forward-backward iterations
 EnCoef did     1 forward-backward iterations
 Restarting incremental Fock formation.
 Rare condition: small coef for last iteration:  0.000D+00
 Rare condition: small coef for last iteration:  0.000D+00
 Rare condition: small coef for last iteration:  0.000D+00
 Rare condition: small coef for last iteration:  0.000D+00
 Rare condition: small coef for last iteration:  0.000D+00
 Restarting incremental Fock formation.
 Restarting incremental Fock formation.
 SCF Done:  E(UPBE1PBE) =  -3880.38039312     A.U. after   69 cycles
            NFock= 69  Conv=0.21D-08     -V/T= 2.0030
 <Sx>= 0.0000 <Sy>= 0.0000 <Sz>= 0.5000 <S**2>= 0.9687 S= 0.6040
 <L.S>= 0.000000000000E+00
 Annihilation of the first spin contaminant:
 S**2 before annihilation     0.9687,   after     0.7676
 Hyperfine terms turned off by default for NAtoms > 100.

 **********************************************************************

            Population analysis using the SCF density.

 **********************************************************************

 Orbital symmetries:
 Alpha Orbitals:
       Occupied  (A) (A) (A) (A) (A) (A) (A) (A) (A) (A) (A) (A)
                 (A) (A) (A) (A) (A) (A) (A) (A) (A) (A) (A) (A)
                 (A) (A) (A) (A) (A) (A) (A) (A) (A) (A) (A) (A)
                 (A) (A) (A) (A) (A) (A) (A) (A) (A) (A) (A) (A)
                 (A) (A) (A) (A) (A) (A) (A) (A) (A) (A) (A) (A)
                 (A) (A) (A) (A) (A) (A) (A) (A) (A) (A) (A) (A)
                 (A) (A) (A) (A) (A) (A) (A) (A) (A) (A) (A) (A)
                 (A) (A) (A) (A) (A) (A) (A) (A) (A) (A) (A) (A)
                 (A) (A) (A) (A) (A) (A) (A) (A) (A) (A) (A) (A)
                 (A) (A) (A) (A) (A) (A) (A) (A) (A) (A) (A) (A)
                 (A) (A) (A) (A) (A) (A) (A) (A) (A) (A) (A) (A)
                 (A) (A) (A) (A) (A) (A) (A) (A) (A) (A) (A) (A)
                 (A) (A) (A) (A) (A) (A) (A) (A) (A) (A) (A) (A)
                 (A) (A) (A) (A) (A) (A) (A) (A) (A) (A) (A) (A)
                 (A) (A) (A) (A) (A) (A) (A) (A) (A) (A) (A) (A)
                 (A) (A) (A) (A) (A) (A) (A) (A) (A) (A) (A) (A)
                 (A) (A) (A) (A) (A) (A) (A) (A) (A) (A) (A) (A)
                 (A)
       Virtual   (A) (A) (A) (A) (A) (A) (A) (A) (A) (A) (A) (A)
                 (A) (A) (A) (A) (A) (A) (A) (A) (A) (A) (A) (A)
                 (A) (A) (A) (A) (A) (A) (A) (A) (A) (A) (A) (A)
                 (A) (A) (A) (A) (A) (A) (A) (A) (A) (A) (A) (A)
                 (A) (A) (A) (A) (A) (A) (A) (A) (A) (A) (A) (A)
                 (A) (A) (A) (A) (A) (A) (A) (A) (A) (A) (A) (A)
                 (A) (A) (A) (A) (A) (A) (A) (A) (A) (A) (A) (A)
                 (A) (A) (A) (A) (A) (A) (A) (A) (A) (A) (A) (A)
                 (A) (A) (A) (A) (A) (A) (A) (A) (A) (A) (A) (A)
                 (A) (A) (A) (A) (A) (A) (A) (A) (A) (A) (A) (A)
                 (A) (A) (A) (A) (A) (A) (A) (A) (A) (A) (A) (A)
                 (A) (A) (A) (A) (A) (A) (A) (A) (A) (A) (A) (A)
                 (A) (A) (A) (A) (A) (A) (A) (A) (A) (A) (A) (A)
                 (A) (A) (A) (A) (A) (A) (A) (A) (A) (A) (A) (A)
                 (A) (A) (A) (A) (A) (A) (A) (A) (A) (A) (A) (A)
                 (A) (A) (A) (A) (A) (A) (A) (A) (A) (A) (A) (A)
                 (A) (A) (A) (A) (A) (A) (A) (A) (A) (A) (A) (A)
                 (A) (A) (A) (A) (A) (A) (A) (A) (A) (A) (A) (A)
                 (A) (A) (A) (A) (A) (A) (A) (A) (A) (A) (A) (A)
                 (A) (A) (A) (A) (A) (A) (A) (A) (A) (A) (A) (A)
                 (A) (A) (A) (A) (A) (A) (A) (A) (A) (A) (A) (A)
                 (A) (A) (A) (A) (A) (A) (A) (A) (A) (A) (A) (A)
                 (A) (A) (A) (A) (A) (A) (A) (A) (A) (A) (A) (A)
                 (A) (A) (A) (A) (A) (A) (A) (A) (A) (A) (A) (A)
                 (A) (A) (A) (A) (A) (A) (A) (A) (A) (A) (A) (A)
                 (A) (A) (A) (A) (A) (A) (A) (A) (A) (A) (A) (A)
                 (A) (A) (A) (A) (A) (A) (A) (A) (A) (A) (A) (A)
                 (A) (A) (A) (A) (A) (A) (A) (A) (A) (A) (A) (A)
                 (A) (A) (A) (A) (A) (A) (A) (A) (A) (A) (A) (A)
                 (A) (A) (A) (A) (A) (A) (A) (A) (A) (A) (A) (A)
                 (A) (A) (A) (A) (A) (A) (A) (A) (A) (A) (A) (A)
                 (A) (A) (A) (A) (A) (A) (A) (A) (A) (A) (A) (A)
                 (A) (A) (A) (A) (A) (A) (A) (A) (A) (A) (A) (A)
                 (A) (A) (A) (A) (A) (A) (A) (A) (A) (A) (A) (A)
                 (A) (A) (A) (A) (A) (A) (A) (A) (A) (A) (A) (A)
                 (A) (A) (A) (A) (A) (A) (A) (A) (A) (A) (A) (A)
                 (A) (A) (A) (A) (A) (A) (A) (A) (A) (A) (A) (A)
                 (A) (A) (A) (A) (A) (A) (A) (A) (A) (A) (A) (A)
                 (A) (A) (A) (A) (A) (A) (A) (A) (A) (A) (A) (A)
                 (A) (A) (A) (A) (A) (A) (A) (A) (A) (A) (A) (A)
                 (A) (A) (A) (A) (A) (A) (A) (A) (A) (A) (A) (A)
                 (A) (A) (A) (A) (A) (A) (A) (A) (A) (A) (A) (A)
                 (A) (A) (A) (A) (A) (A) (A) (A) (A) (A) (A) (A)
                 (A) (A) (A) (A) (A) (A) (A) (A) (A) (A) (A) (A)
                 (A) (A) (A) (A) (A) (A) (A) (A) (A) (A) (A) (A)
                 (A) (A) (A) (A) (A) (A) (A) (A) (A) (A) (A) (A)
                 (A) (A) (A) (A) (A) (A) (A) (A) (A) (A) (A) (A)
                 (A) (A) (A) (A) (A) (A) (A) (A) (A) (A) (A) (A)
                 (A) (A) (A) (A) (A) (A) (A) (A) (A) (A) (A) (A)
                 (A) (A) (A) (A) (A) (A) (A) (A) (A) (A) (A) (A)
                 (A) (A) (A) (A) (A) (A) (A) (A) (A) (A) (A) (A)
                 (A) (A) (A) (A) (A) (A) (A) (A) (A) (A) (A) (A)
                 (A) (A) (A) (A) (A) (A) (A) (A) (A) (A) (A) (A)
                 (A) (A) (A) (A) (A) (A) (A) (A) (A) (A) (A) (A)
                 (A) (A) (A) (A) (A) (A) (A) (A) (A) (A) (A) (A)
                 (A) (A) (A) (A) (A) (A) (A) (A) (A) (A) (A) (A)
                 (A) (A) (A) (A) (A) (A) (A) (A) (A) (A) (A) (A)
                 (A) (A) (A) (A) (A) (A) (A) (A) (A) (A) (A) (A)
                 (A) (A) (A) (A) (A) (A) (A) (A) (A) (A) (A) (A)
                 (A) (A) (A) (A) (A) (A) (A) (A) (A) (A) (A) (A)
                 (A) (A) (A) (A) (A) (A) (A) (A) (A) (A) (A) (A)
                 (A) (A) (A) (A) (A) (A) (A) (A) (A) (A) (A) (A)
                 (A) (A) (A) (A) (A) (A) (A) (A) (A) (A) (A) (A)
                 (A) (A) (A) (A) (A) (A) (A) (A) (A) (A) (A) (A)
                 (A) (A) (A) (A) (A) (A) (A) (A) (A) (A) (A) (A)
                 (A) (A) (A) (A) (A) (A) (A) (A) (A) (A) (A) (A)
                 (A) (A) (A) (A) (A) (A) (A) (A) (A) (A) (A) (A)
                 (A) (A) (A) (A) (A) (A) (A) (A) (A) (A) (A) (A)
                 (A) (A) (A) (A) (A) (A) (A) (A) (A) (A) (A) (A)
                 (A) (A) (A) (A) (A) (A) (A) (A) (A) (A) (A) (A)
                 (A) (A) (A) (A) (A) (A) (A) (A) (A) (A) (A) (A)
                 (A) (A) (A) (A) (A) (A) (A) (A) (A) (A) (A) (A)
                 (A) (A) (A) (A) (A) (A) (A) (A) (A) (A) (A) (A)
                 (A) (A) (A) (A) (A) (A) (A) (A) (A) (A) (A) (A)
                 (A) (A) (A) (A) (A) (A) (A) (A) (A) (A) (A) (A)
                 (A) (A) (A) (A) (A) (A) (A) (A) (A) (A) (A) (A)
                 (A) (A) (A) (A) (A) (A) (A) (A) (A) (A) (A) (A)
                 (A) (A) (A) (A) (A) (A) (A) (A) (A) (A) (A) (A)
                 (A) (A) (A) (A) (A) (A) (A) (A) (A) (A) (A) (A)
                 (A) (A) (A) (A) (A) (A) (A) (A) (A) (A) (A) (A)
                 (A) (A) (A) (A) (A) (A) (A) (A) (A) (A) (A) (A)
                 (A) (A) (A) (A) (A) (A) (A) (A) (A) (A) (A) (A)
                 (A) (A) (A) (A) (A) (A) (A) (A) (A) (A) (A) (A)
                 (A) (A) (A) (A) (A) (A) (A) (A) (A) (A) (A) (A)
                 (A) (A) (A) (A) (A) (A) (A) (A) (A) (A) (A) (A)
                 (A) (A) (A) (A) (A) (A) (A) (A) (A) (A) (A) (A)
                 (A) (A) (A) (A) (A) (A) (A) (A) (A) (A) (A) (A)
                 (A) (A) (A) (A) (A) (A) (A) (A) (A) (A) (A) (A)
                 (A) (A) (A) (A) (A) (A) (A) (A) (A) (A) (A) (A)
                 (A) (A) (A) (A) (A) (A) (A) (A) (A) (A) (A) (A)
                 (A) (A) (A) (A) (A) (A) (A) (A) (A) (A) (A) (A)
                 (A) (A) (A) (A) (A) (A) (A) (A) (A) (A) (A) (A)
                 (A) (A) (A) (A) (A) (A) (A) (A) (A) (A) (A) (A)
                 (A) (A) (A) (A) (A) (A) (A) (A) (A) (A) (A) (A)
                 (A) (A) (A) (A) (A) (A) (A) (A) (A) (A) (A) (A)
                 (A) (A) (A) (A) (A) (A) (A) (A) (A) (A) (A) (A)
                 (A) (A) (A) (A) (A) (A) (A) (A) (A) (A) (A) (A)
                 (A) (A) (A) (A) (A) (A) (A) (A) (A) (A) (A) (A)
                 (A) (A) (A) (A) (A) (A) (A) (A) (A) (A) (A) (A)
                 (A) (A) (A) (A) (A) (A) (A) (A) (A) (A) (A) (A)
                 (A) (A) (A) (A) (A) (A) (A) (A) (A) (A) (A) (A)
                 (A) (A) (A) (A) (A) (A) (A) (A) (A) (A) (A) (A)
                 (A) (A) (A) (A) (A) (A) (A) (A) (A) (A) (A) (A)
                 (A) (A) (A) (A) (A) (A) (A) (A) (A) (A) (A) (A)
                 (A) (A) (A) (A) (A) (A) (A) (A) (A) (A) (A) (A)
                 (A) (A) (A) (A) (A) (A) (A) (A) (A) (A) (A) (A)
                 (A) (A) (A) (A) (A) (A) (A) (A) (A) (A) (A) (A)
                 (A) (A) (A) (A) (A) (A) (A) (A) (A) (A) (A) (A)
                 (A) (A) (A) (A) (A) (A) (A) (A) (A) (A) (A) (A)
                 (A) (A) (A) (A) (A) (A) (A) (A) (A) (A) (A) (A)
                 (A) (A) (A) (A) (A) (A) (A) (A) (A) (A) (A) (A)
                 (A) (A) (A) (A) (A) (A) (A) (A) (A) (A) (A) (A)
                 (A) (A) (A) (A) (A) (A) (A) (A) (A) (A) (A) (A)
                 (A) (A) (A) (A) (A) (A) (A) (A) (A) (A) (A) (A)
                 (A) (A) (A) (A) (A) (A) (A) (A) (A) (A) (A) (A)
                 (A) (A) (A) (A) (A) (A) (A) (A) (A) (A) (A) (A)
                 (A) (A) (A) (A) (A) (A) (A) (A) (A) (A) (A) (A)
                 (A) (A) (A) (A) (A) (A) (A) (A) (A) (A) (A) (A)
                 (A) (A) (A) (A) (A) (A) (A) (A) (A) (A) (A) (A)
                 (A) (A) (A) (A) (A) (A) (A) (A) (A) (A) (A) (A)
                 (A) (A) (A) (A) (A) (A) (A) (A) (A) (A) (A) (A)
                 (A) (A) (A) (A) (A) (A) (A) (A) (A) (A) (A) (A)
                 (A) (A) (A) (A) (A) (A) (A) (A) (A) (A) (A) (A)
                 (A) (A) (A) (A) (A) (A) (A) (A) (A) (A) (A) (A)
                 (A) (A) (A) (A) (A) (A) (A) (A) (A) (A) (A) (A)
                 (A) (A) (A) (A) (A) (A) (A) (A) (A) (A) (A) (A)
                 (A) (A) (A) (A) (A) (A) (A) (A) (A) (A) (A) (A)
                 (A) (A) (A) (A) (A) (A) (A) (A) (A) (A) (A) (A)
                 (A) (A) (A) (A) (A) (A) (A) (A) (A) (A) (A) (A)
                 (A) (A) (A) (A) (A) (A) (A) (A) (A) (A) (A) (A)
                 (A) (A) (A) (A) (A) (A) (A) (A) (A) (A) (A) (A)
                 (A) (A) (A) (A) (A) (A) (A) (A) (A) (A) (A) (A)
                 (A) (A) (A) (A) (A) (A) (A) (A) (A) (A) (A) (A)
                 (A) (A) (A) (A) (A) (A) (A) (A) (A) (A) (A) (A)
                 (A) (A) (A) (A) (A) (A) (A) (A) (A) (A) (A) (A)
                 (A) (A) (A) (A) (A) (A) (A) (A) (A) (A) (A) (A)
                 (A) (A) (A) (A) (A) (A) (A) (A) (A) (A) (A) (A)
                 (A) (A) (A) (A) (A) (A) (A) (A) (A) (A) (A) (A)
                 (A) (A) (A) (A) (A) (A) (A) (A) (A) (A) (A) (A)
                 (A) (A) (A) (A) (A) (A) (A) (A) (A) (A) (A) (A)
                 (A) (A) (A) (A) (A) (A) (A) (A) (A) (A) (A) (A)
                 (A) (A) (A) (A) (A) (A) (A) (A) (A) (A) (A) (A)
                 (A) (A) (A) (A) (A) (A) (A) (A) (A) (A) (A) (A)
                 (A) (A) (A) (A) (A) (A) (A) (A) (A) (A) (A) (A)
                 (A) (A) (A) (A) (A) (A) (A) (A) (A) (A) (A) (A)
                 (A) (A) (A) (A) (A) (A)
 Beta  Orbitals:
       Occupied  (A) (A) (A) (A) (A) (A) (A) (A) (A) (A) (A) (A)
                 (A) (A) (A) (A) (A) (A) (A) (A) (A) (A) (A) (A)
                 (A) (A) (A) (A) (A) (A) (A) (A) (A) (A) (A) (A)
                 (A) (A) (A) (A) (A) (A) (A) (A) (A) (A) (A) (A)
                 (A) (A) (A) (A) (A) (A) (A) (A) (A) (A) (A) (A)
                 (A) (A) (A) (A) (A) (A) (A) (A) (A) (A) (A) (A)
                 (A) (A) (A) (A) (A) (A) (A) (A) (A) (A) (A) (A)
                 (A) (A) (A) (A) (A) (A) (A) (A) (A) (A) (A) (A)
                 (A) (A) (A) (A) (A) (A) (A) (A) (A) (A) (A) (A)
                 (A) (A) (A) (A) (A) (A) (A) (A) (A) (A) (A) (A)
                 (A) (A) (A) (A) (A) (A) (A) (A) (A) (A) (A) (A)
                 (A) (A) (A) (A) (A) (A) (A) (A) (A) (A) (A) (A)
                 (A) (A) (A) (A) (A) (A) (A) (A) (A) (A) (A) (A)
                 (A) (A) (A) (A) (A) (A) (A) (A) (A) (A) (A) (A)
                 (A) (A) (A) (A) (A) (A) (A) (A) (A) (A) (A) (A)
                 (A) (A) (A) (A) (A) (A) (A) (A) (A) (A) (A) (A)
                 (A) (A) (A) (A) (A) (A) (A) (A) (A) (A) (A) (A)
       Virtual   (A) (A) (A) (A) (A) (A) (A) (A) (A) (A) (A) (A)
                 (A) (A) (A) (A) (A) (A) (A) (A) (A) (A) (A) (A)
                 (A) (A) (A) (A) (A) (A) (A) (A) (A) (A) (A) (A)
                 (A) (A) (A) (A) (A) (A) (A) (A) (A) (A) (A) (A)
                 (A) (A) (A) (A) (A) (A) (A) (A) (A) (A) (A) (A)
                 (A) (A) (A) (A) (A) (A) (A) (A) (A) (A) (A) (A)
                 (A) (A) (A) (A) (A) (A) (A) (A) (A) (A) (A) (A)
                 (A) (A) (A) (A) (A) (A) (A) (A) (A) (A) (A) (A)
                 (A) (A) (A) (A) (A) (A) (A) (A) (A) (A) (A) (A)
                 (A) (A) (A) (A) (A) (A) (A) (A) (A) (A) (A) (A)
                 (A) (A) (A) (A) (A) (A) (A) (A) (A) (A) (A) (A)
                 (A) (A) (A) (A) (A) (A) (A) (A) (A) (A) (A) (A)
                 (A) (A) (A) (A) (A) (A) (A) (A) (A) (A) (A) (A)
                 (A) (A) (A) (A) (A) (A) (A) (A) (A) (A) (A) (A)
                 (A) (A) (A) (A) (A) (A) (A) (A) (A) (A) (A) (A)
                 (A) (A) (A) (A) (A) (A) (A) (A) (A) (A) (A) (A)
                 (A) (A) (A) (A) (A) (A) (A) (A) (A) (A) (A) (A)
                 (A) (A) (A) (A) (A) (A) (A) (A) (A) (A) (A) (A)
                 (A) (A) (A) (A) (A) (A) (A) (A) (A) (A) (A) (A)
                 (A) (A) (A) (A) (A) (A) (A) (A) (A) (A) (A) (A)
                 (A) (A) (A) (A) (A) (A) (A) (A) (A) (A) (A) (A)
                 (A) (A) (A) (A) (A) (A) (A) (A) (A) (A) (A) (A)
                 (A) (A) (A) (A) (A) (A) (A) (A) (A) (A) (A) (A)
                 (A) (A) (A) (A) (A) (A) (A) (A) (A) (A) (A) (A)
                 (A) (A) (A) (A) (A) (A) (A) (A) (A) (A) (A) (A)
                 (A) (A) (A) (A) (A) (A) (A) (A) (A) (A) (A) (A)
                 (A) (A) (A) (A) (A) (A) (A) (A) (A) (A) (A) (A)
                 (A) (A) (A) (A) (A) (A) (A) (A) (A) (A) (A) (A)
                 (A) (A) (A) (A) (A) (A) (A) (A) (A) (A) (A) (A)
                 (A) (A) (A) (A) (A) (A) (A) (A) (A) (A) (A) (A)
                 (A) (A) (A) (A) (A) (A) (A) (A) (A) (A) (A) (A)
                 (A) (A) (A) (A) (A) (A) (A) (A) (A) (A) (A) (A)
                 (A) (A) (A) (A) (A) (A) (A) (A) (A) (A) (A) (A)
                 (A) (A) (A) (A) (A) (A) (A) (A) (A) (A) (A) (A)
                 (A) (A) (A) (A) (A) (A) (A) (A) (A) (A) (A) (A)
                 (A) (A) (A) (A) (A) (A) (A) (A) (A) (A) (A) (A)
                 (A) (A) (A) (A) (A) (A) (A) (A) (A) (A) (A) (A)
                 (A) (A) (A) (A) (A) (A) (A) (A) (A) (A) (A) (A)
                 (A) (A) (A) (A) (A) (A) (A) (A) (A) (A) (A) (A)
                 (A) (A) (A) (A) (A) (A) (A) (A) (A) (A) (A) (A)
                 (A) (A) (A) (A) (A) (A) (A) (A) (A) (A) (A) (A)
                 (A) (A) (A) (A) (A) (A) (A) (A) (A) (A) (A) (A)
                 (A) (A) (A) (A) (A) (A) (A) (A) (A) (A) (A) (A)
                 (A) (A) (A) (A) (A) (A) (A) (A) (A) (A) (A) (A)
                 (A) (A) (A) (A) (A) (A) (A) (A) (A) (A) (A) (A)
                 (A) (A) (A) (A) (A) (A) (A) (A) (A) (A) (A) (A)
                 (A) (A) (A) (A) (A) (A) (A) (A) (A) (A) (A) (A)
                 (A) (A) (A) (A) (A) (A) (A) (A) (A) (A) (A) (A)
                 (A) (A) (A) (A) (A) (A) (A) (A) (A) (A) (A) (A)
                 (A) (A) (A) (A) (A) (A) (A) (A) (A) (A) (A) (A)
                 (A) (A) (A) (A) (A) (A) (A) (A) (A) (A) (A) (A)
                 (A) (A) (A) (A) (A) (A) (A) (A) (A) (A) (A) (A)
                 (A) (A) (A) (A) (A) (A) (A) (A) (A) (A) (A) (A)
                 (A) (A) (A) (A) (A) (A) (A) (A) (A) (A) (A) (A)
                 (A) (A) (A) (A) (A) (A) (A) (A) (A) (A) (A) (A)
                 (A) (A) (A) (A) (A) (A) (A) (A) (A) (A) (A) (A)
                 (A) (A) (A) (A) (A) (A) (A) (A) (A) (A) (A) (A)
                 (A) (A) (A) (A) (A) (A) (A) (A) (A) (A) (A) (A)
                 (A) (A) (A) (A) (A) (A) (A) (A) (A) (A) (A) (A)
                 (A) (A) (A) (A) (A) (A) (A) (A) (A) (A) (A) (A)
                 (A) (A) (A) (A) (A) (A) (A) (A) (A) (A) (A) (A)
                 (A) (A) (A) (A) (A) (A) (A) (A) (A) (A) (A) (A)
                 (A) (A) (A) (A) (A) (A) (A) (A) (A) (A) (A) (A)
                 (A) (A) (A) (A) (A) (A) (A) (A) (A) (A) (A) (A)
                 (A) (A) (A) (A) (A) (A) (A) (A) (A) (A) (A) (A)
                 (A) (A) (A) (A) (A) (A) (A) (A) (A) (A) (A) (A)
                 (A) (A) (A) (A) (A) (A) (A) (A) (A) (A) (A) (A)
                 (A) (A) (A) (A) (A) (A) (A) (A) (A) (A) (A) (A)
                 (A) (A) (A) (A) (A) (A) (A) (A) (A) (A) (A) (A)
                 (A) (A) (A) (A) (A) (A) (A) (A) (A) (A) (A) (A)
                 (A) (A) (A) (A) (A) (A) (A) (A) (A) (A) (A) (A)
                 (A) (A) (A) (A) (A) (A) (A) (A) (A) (A) (A) (A)
                 (A) (A) (A) (A) (A) (A) (A) (A) (A) (A) (A) (A)
                 (A) (A) (A) (A) (A) (A) (A) (A) (A) (A) (A) (A)
                 (A) (A) (A) (A) (A) (A) (A) (A) (A) (A) (A) (A)
                 (A) (A) (A) (A) (A) (A) (A) (A) (A) (A) (A) (A)
                 (A) (A) (A) (A) (A) (A) (A) (A) (A) (A) (A) (A)
                 (A) (A) (A) (A) (A) (A) (A) (A) (A) (A) (A) (A)
                 (A) (A) (A) (A) (A) (A) (A) (A) (A) (A) (A) (A)
                 (A) (A) (A) (A) (A) (A) (A) (A) (A) (A) (A) (A)
                 (A) (A) (A) (A) (A) (A) (A) (A) (A) (A) (A) (A)
                 (A) (A) (A) (A) (A) (A) (A) (A) (A) (A) (A) (A)
                 (A) (A) (A) (A) (A) (A) (A) (A) (A) (A) (A) (A)
                 (A) (A) (A) (A) (A) (A) (A) (A) (A) (A) (A) (A)
                 (A) (A) (A) (A) (A) (A) (A) (A) (A) (A) (A) (A)
                 (A) (A) (A) (A) (A) (A) (A) (A) (A) (A) (A) (A)
                 (A) (A) (A) (A) (A) (A) (A) (A) (A) (A) (A) (A)
                 (A) (A) (A) (A) (A) (A) (A) (A) (A) (A) (A) (A)
                 (A) (A) (A) (A) (A) (A) (A) (A) (A) (A) (A) (A)
                 (A) (A) (A) (A) (A) (A) (A) (A) (A) (A) (A) (A)
                 (A) (A) (A) (A) (A) (A) (A) (A) (A) (A) (A) (A)
                 (A) (A) (A) (A) (A) (A) (A) (A) (A) (A) (A) (A)
                 (A) (A) (A) (A) (A) (A) (A) (A) (A) (A) (A) (A)
                 (A) (A) (A) (A) (A) (A) (A) (A) (A) (A) (A) (A)
                 (A) (A) (A) (A) (A) (A) (A) (A) (A) (A) (A) (A)
                 (A) (A) (A) (A) (A) (A) (A) (A) (A) (A) (A) (A)
                 (A) (A) (A) (A) (A) (A) (A) (A) (A) (A) (A) (A)
                 (A) (A) (A) (A) (A) (A) (A) (A) (A) (A) (A) (A)
                 (A) (A) (A) (A) (A) (A) (A) (A) (A) (A) (A) (A)
                 (A) (A) (A) (A) (A) (A) (A) (A) (A) (A) (A) (A)
                 (A) (A) (A) (A) (A) (A) (A) (A) (A) (A) (A) (A)
                 (A) (A) (A) (A) (A) (A) (A) (A) (A) (A) (A) (A)
                 (A) (A) (A) (A) (A) (A) (A) (A) (A) (A) (A) (A)
                 (A) (A) (A) (A) (A) (A) (A) (A) (A) (A) (A) (A)
                 (A) (A) (A) (A) (A) (A) (A) (A) (A) (A) (A) (A)
                 (A) (A) (A) (A) (A) (A) (A) (A) (A) (A) (A) (A)
                 (A) (A) (A) (A) (A) (A) (A) (A) (A) (A) (A) (A)
                 (A) (A) (A) (A) (A) (A) (A) (A) (A) (A) (A) (A)
                 (A) (A) (A) (A) (A) (A) (A) (A) (A) (A) (A) (A)
                 (A) (A) (A) (A) (A) (A) (A) (A) (A) (A) (A) (A)
                 (A) (A) (A) (A) (A) (A) (A) (A) (A) (A) (A) (A)
                 (A) (A) (A) (A) (A) (A) (A) (A) (A) (A) (A) (A)
                 (A) (A) (A) (A) (A) (A) (A) (A) (A) (A) (A) (A)
                 (A) (A) (A) (A) (A) (A) (A) (A) (A) (A) (A) (A)
                 (A) (A) (A) (A) (A) (A) (A) (A) (A) (A) (A) (A)
                 (A) (A) (A) (A) (A) (A) (A) (A) (A) (A) (A) (A)
                 (A) (A) (A) (A) (A) (A) (A) (A) (A) (A) (A) (A)
                 (A) (A) (A) (A) (A) (A) (A) (A) (A) (A) (A) (A)
                 (A) (A) (A) (A) (A) (A) (A) (A) (A) (A) (A) (A)
                 (A) (A) (A) (A) (A) (A) (A) (A) (A) (A) (A) (A)
                 (A) (A) (A) (A) (A) (A) (A) (A) (A) (A) (A) (A)
                 (A) (A) (A) (A) (A) (A) (A) (A) (A) (A) (A) (A)
                 (A) (A) (A) (A) (A) (A) (A) (A) (A) (A) (A) (A)
                 (A) (A) (A) (A) (A) (A) (A) (A) (A) (A) (A) (A)
                 (A) (A) (A) (A) (A) (A) (A) (A) (A) (A) (A) (A)
                 (A) (A) (A) (A) (A) (A) (A) (A) (A) (A) (A) (A)
                 (A) (A) (A) (A) (A) (A) (A) (A) (A) (A) (A) (A)
                 (A) (A) (A) (A) (A) (A) (A) (A) (A) (A) (A) (A)
                 (A) (A) (A) (A) (A) (A) (A) (A) (A) (A) (A) (A)
                 (A) (A) (A) (A) (A) (A) (A) (A) (A) (A) (A) (A)
                 (A) (A) (A) (A) (A) (A) (A) (A) (A) (A) (A) (A)
                 (A) (A) (A) (A) (A) (A) (A) (A) (A) (A) (A) (A)
                 (A) (A) (A) (A) (A) (A) (A) (A) (A) (A) (A) (A)
                 (A) (A) (A) (A) (A) (A) (A) (A) (A) (A) (A) (A)
                 (A) (A) (A) (A) (A) (A) (A) (A) (A) (A) (A) (A)
                 (A) (A) (A) (A) (A) (A) (A) (A) (A) (A) (A) (A)
                 (A) (A) (A) (A) (A) (A) (A) (A) (A) (A) (A) (A)
                 (A) (A) (A) (A) (A) (A) (A) (A) (A) (A) (A) (A)
                 (A) (A) (A) (A) (A) (A) (A) (A) (A) (A) (A) (A)
                 (A) (A) (A) (A) (A) (A) (A) (A) (A) (A) (A) (A)
                 (A) (A) (A) (A) (A) (A) (A) (A) (A) (A) (A) (A)
                 (A) (A) (A) (A) (A) (A) (A) (A) (A) (A) (A) (A)
                 (A) (A) (A) (A) (A) (A) (A) (A) (A) (A) (A) (A)
                 (A) (A) (A) (A) (A) (A) (A) (A) (A) (A) (A) (A)
                 (A) (A) (A) (A) (A) (A) (A) (A) (A) (A) (A) (A)
                 (A) (A) (A) (A) (A) (A) (A)
 The electronic state is 2-A.
 Alpha  occ. eigenvalues -- -256.42908 -89.11382 -30.20285 -26.03165 -26.02780
 Alpha  occ. eigenvalues --  -26.02412 -19.33135 -19.31917 -19.24011 -19.23541
 Alpha  occ. eigenvalues --  -14.53792 -14.49289 -14.48900 -14.47835 -14.47608
 Alpha  occ. eigenvalues --  -14.47473 -10.41301 -10.40963 -10.38904 -10.37171
 Alpha  occ. eigenvalues --  -10.36398 -10.35867 -10.35798 -10.35415 -10.35075
 Alpha  occ. eigenvalues --  -10.34889 -10.34842 -10.34705 -10.34704 -10.34645
 Alpha  occ. eigenvalues --  -10.34181 -10.33192 -10.33105 -10.32580 -10.32534
 Alpha  occ. eigenvalues --  -10.32194 -10.32011 -10.32000 -10.31797 -10.31705
 Alpha  occ. eigenvalues --  -10.31655 -10.31619 -10.31612 -10.31579 -10.31579
 Alpha  occ. eigenvalues --  -10.31394 -10.31388 -10.31069 -10.30770 -10.30724
 Alpha  occ. eigenvalues --  -10.30660 -10.30060 -10.29864 -10.29768 -10.29600
 Alpha  occ. eigenvalues --  -10.29337 -10.28473  -8.09260  -6.02905  -6.02607
 Alpha  occ. eigenvalues --   -6.02103  -3.54891  -2.31117  -2.30382  -2.29725
 Alpha  occ. eigenvalues --   -1.25514  -1.24386  -1.14418  -1.10584  -1.09719
 Alpha  occ. eigenvalues --   -1.08788  -1.07176  -1.06484  -1.05723  -1.00229
 Alpha  occ. eigenvalues --   -0.96890  -0.93885  -0.93089  -0.92835  -0.92459
 Alpha  occ. eigenvalues --   -0.92236  -0.91230  -0.90793  -0.89611  -0.88997
 Alpha  occ. eigenvalues --   -0.87892  -0.87359  -0.86100  -0.85655  -0.85499
 Alpha  occ. eigenvalues --   -0.84372  -0.82334  -0.81337  -0.80943  -0.80675
 Alpha  occ. eigenvalues --   -0.79116  -0.78006  -0.77412  -0.76908  -0.75748
 Alpha  occ. eigenvalues --   -0.75402  -0.74952  -0.74116  -0.73718  -0.73473
 Alpha  occ. eigenvalues --   -0.73010  -0.70795  -0.69538  -0.69442  -0.67716
 Alpha  occ. eigenvalues --   -0.66345  -0.65481  -0.65113  -0.64786  -0.63967
 Alpha  occ. eigenvalues --   -0.62758  -0.61873  -0.61501  -0.61145  -0.60166
 Alpha  occ. eigenvalues --   -0.59423  -0.59172  -0.58418  -0.58278  -0.58001
 Alpha  occ. eigenvalues --   -0.57839  -0.57343  -0.57108  -0.56550  -0.56161
 Alpha  occ. eigenvalues --   -0.56088  -0.55694  -0.55253  -0.55038  -0.54835
 Alpha  occ. eigenvalues --   -0.54596  -0.54416  -0.53942  -0.53809  -0.53686
 Alpha  occ. eigenvalues --   -0.53457  -0.53447  -0.53043  -0.53032  -0.52645
 Alpha  occ. eigenvalues --   -0.52522  -0.52315  -0.52225  -0.51654  -0.51383
 Alpha  occ. eigenvalues --   -0.51270  -0.51011  -0.50770  -0.50649  -0.50424
 Alpha  occ. eigenvalues --   -0.49878  -0.49744  -0.49516  -0.49352  -0.49268
 Alpha  occ. eigenvalues --   -0.49085  -0.48740  -0.48577  -0.48218  -0.47827
 Alpha  occ. eigenvalues --   -0.47601  -0.47274  -0.47212  -0.46828  -0.46691
 Alpha  occ. eigenvalues --   -0.46419  -0.46170  -0.46065  -0.46000  -0.45354
 Alpha  occ. eigenvalues --   -0.44887  -0.44826  -0.44116  -0.43937  -0.43840
 Alpha  occ. eigenvalues --   -0.43227  -0.42666  -0.42362  -0.42249  -0.41943
 Alpha  occ. eigenvalues --   -0.41246  -0.40293  -0.39474  -0.39010  -0.38636
 Alpha  occ. eigenvalues --   -0.38018  -0.37883  -0.35943  -0.35101  -0.34747
 Alpha  occ. eigenvalues --   -0.33919  -0.33652  -0.33634  -0.32681  -0.32020
 Alpha  occ. eigenvalues --   -0.30799  -0.30446  -0.29694  -0.29128  -0.28263
 Alpha virt. eigenvalues --   -0.23579  -0.16623  -0.16529  -0.10570  -0.08863
 Alpha virt. eigenvalues --   -0.07248  -0.06715  -0.06600  -0.06125  -0.05749
 Alpha virt. eigenvalues --   -0.05649  -0.05414  -0.05160  -0.04858  -0.04713
 Alpha virt. eigenvalues --   -0.04089  -0.03529  -0.03300  -0.02983  -0.02851
 Alpha virt. eigenvalues --   -0.02413  -0.02333  -0.01766  -0.01679  -0.01598
 Alpha virt. eigenvalues --   -0.01221  -0.01062  -0.00826  -0.00537   0.00006
 Alpha virt. eigenvalues --    0.00144   0.00488   0.00670   0.00756   0.00830
 Alpha virt. eigenvalues --    0.01762   0.01960   0.02093   0.02301   0.02506
 Alpha virt. eigenvalues --    0.02862   0.03090   0.03304   0.03372   0.03684
 Alpha virt. eigenvalues --    0.03743   0.04167   0.04411   0.04501   0.04616
 Alpha virt. eigenvalues --    0.04761   0.04917   0.05103   0.05296   0.05388
 Alpha virt. eigenvalues --    0.05743   0.06031   0.06124   0.06341   0.06420
 Alpha virt. eigenvalues --    0.06533   0.06829   0.06838   0.07243   0.07297
 Alpha virt. eigenvalues --    0.07531   0.07684   0.07912   0.08207   0.08325
 Alpha virt. eigenvalues --    0.08657   0.08836   0.09093   0.09199   0.09423
 Alpha virt. eigenvalues --    0.09631   0.09897   0.10206   0.10379   0.10593
 Alpha virt. eigenvalues --    0.10726   0.11165   0.11516   0.11763   0.11817
 Alpha virt. eigenvalues --    0.12196   0.12315   0.12415   0.12685   0.12883
 Alpha virt. eigenvalues --    0.13070   0.13258   0.13297   0.13501   0.13643
 Alpha virt. eigenvalues --    0.13892   0.14014   0.14200   0.14385   0.14699
 Alpha virt. eigenvalues --    0.14956   0.15113   0.15424   0.15657   0.15785
 Alpha virt. eigenvalues --    0.15906   0.16037   0.16307   0.16490   0.16575
 Alpha virt. eigenvalues --    0.16876   0.17041   0.17379   0.17561   0.17787
 Alpha virt. eigenvalues --    0.17974   0.18259   0.18415   0.18555   0.18761
 Alpha virt. eigenvalues --    0.19089   0.19141   0.19289   0.19334   0.19701
 Alpha virt. eigenvalues --    0.20010   0.20294   0.20381   0.20559   0.20682
 Alpha virt. eigenvalues --    0.21043   0.21365   0.21693   0.21787   0.22387
 Alpha virt. eigenvalues --    0.22421   0.22619   0.22742   0.23092   0.23224
 Alpha virt. eigenvalues --    0.23350   0.23507   0.23802   0.24094   0.24126
 Alpha virt. eigenvalues --    0.24428   0.24504   0.24638   0.24935   0.25160
 Alpha virt. eigenvalues --    0.25580   0.25691   0.25963   0.26188   0.26393
 Alpha virt. eigenvalues --    0.26476   0.26822   0.26889   0.27030   0.27489
 Alpha virt. eigenvalues --    0.27768   0.27980   0.28209   0.28383   0.28452
 Alpha virt. eigenvalues --    0.28699   0.28947   0.29258   0.29741   0.30044
 Alpha virt. eigenvalues --    0.30082   0.30173   0.30557   0.30655   0.30847
 Alpha virt. eigenvalues --    0.30883   0.31241   0.31572   0.31588   0.31765
 Alpha virt. eigenvalues --    0.31931   0.32066   0.32247   0.32501   0.32672
 Alpha virt. eigenvalues --    0.33071   0.33173   0.33480   0.33620   0.33762
 Alpha virt. eigenvalues --    0.33836   0.34043   0.34346   0.34381   0.34651
 Alpha virt. eigenvalues --    0.34809   0.34995   0.35249   0.35349   0.35375
 Alpha virt. eigenvalues --    0.35492   0.35849   0.36049   0.36115   0.36325
 Alpha virt. eigenvalues --    0.36585   0.36640   0.36790   0.37026   0.37296
 Alpha virt. eigenvalues --    0.37375   0.37688   0.37852   0.37986   0.38100
 Alpha virt. eigenvalues --    0.38148   0.38413   0.38522   0.38822   0.38886
 Alpha virt. eigenvalues --    0.39099   0.39177   0.39372   0.39544   0.39633
 Alpha virt. eigenvalues --    0.39748   0.39864   0.40074   0.40209   0.40384
 Alpha virt. eigenvalues --    0.40493   0.40621   0.40878   0.41005   0.41137
 Alpha virt. eigenvalues --    0.41274   0.41561   0.41763   0.41848   0.41882
 Alpha virt. eigenvalues --    0.42264   0.42344   0.42494   0.42695   0.42812
 Alpha virt. eigenvalues --    0.43267   0.43468   0.43603   0.43686   0.43894
 Alpha virt. eigenvalues --    0.44044   0.44210   0.44414   0.44631   0.44703
 Alpha virt. eigenvalues --    0.44981   0.45266   0.45344   0.45522   0.45611
 Alpha virt. eigenvalues --    0.45774   0.45939   0.46393   0.46662   0.46720
 Alpha virt. eigenvalues --    0.46930   0.47120   0.47576   0.47677   0.47762
 Alpha virt. eigenvalues --    0.47993   0.48282   0.48436   0.48752   0.48818
 Alpha virt. eigenvalues --    0.48858   0.48995   0.49528   0.49782   0.50008
 Alpha virt. eigenvalues --    0.50153   0.50224   0.50427   0.50705   0.50968
 Alpha virt. eigenvalues --    0.51181   0.51274   0.51564   0.51972   0.52117
 Alpha virt. eigenvalues --    0.52440   0.52522   0.52703   0.53050   0.53327
 Alpha virt. eigenvalues --    0.53439   0.53655   0.54060   0.54133   0.54405
 Alpha virt. eigenvalues --    0.54640   0.54837   0.55191   0.55282   0.55482
 Alpha virt. eigenvalues --    0.55743   0.56115   0.56350   0.56677   0.56963
 Alpha virt. eigenvalues --    0.57078   0.57273   0.57574   0.57852   0.58094
 Alpha virt. eigenvalues --    0.58346   0.58450   0.58558   0.59073   0.59424
 Alpha virt. eigenvalues --    0.59511   0.59648   0.59965   0.60409   0.60735
 Alpha virt. eigenvalues --    0.60812   0.61011   0.61139   0.61689   0.61873
 Alpha virt. eigenvalues --    0.62045   0.62262   0.62637   0.62743   0.63450
 Alpha virt. eigenvalues --    0.63524   0.64329   0.64518   0.64638   0.65286
 Alpha virt. eigenvalues --    0.65456   0.65590   0.65691   0.65933   0.66309
 Alpha virt. eigenvalues --    0.66484   0.66784   0.66952   0.67451   0.67762
 Alpha virt. eigenvalues --    0.68017   0.68331   0.68536   0.68906   0.69097
 Alpha virt. eigenvalues --    0.69485   0.69669   0.69840   0.70268   0.70409
 Alpha virt. eigenvalues --    0.70688   0.70923   0.71498   0.71862   0.72461
 Alpha virt. eigenvalues --    0.72822   0.73020   0.73219   0.73439   0.73505
 Alpha virt. eigenvalues --    0.73931   0.74031   0.74553   0.74737   0.75045
 Alpha virt. eigenvalues --    0.75380   0.75427   0.75574   0.76033   0.76430
 Alpha virt. eigenvalues --    0.76836   0.77135   0.77311   0.77738   0.77852
 Alpha virt. eigenvalues --    0.78034   0.78296   0.78617   0.78917   0.79266
 Alpha virt. eigenvalues --    0.79878   0.80226   0.80357   0.80838   0.80872
 Alpha virt. eigenvalues --    0.81155   0.81264   0.81739   0.82085   0.82428
 Alpha virt. eigenvalues --    0.82560   0.82670   0.83009   0.83373   0.83424
 Alpha virt. eigenvalues --    0.83498   0.84195   0.84533   0.84876   0.84963
 Alpha virt. eigenvalues --    0.85316   0.85462   0.85786   0.85887   0.85985
 Alpha virt. eigenvalues --    0.86310   0.86521   0.86944   0.86986   0.87397
 Alpha virt. eigenvalues --    0.87702   0.87804   0.88174   0.88316   0.88458
 Alpha virt. eigenvalues --    0.88964   0.89223   0.89585   0.89739   0.90327
 Alpha virt. eigenvalues --    0.90681   0.90748   0.91037   0.91489   0.91572
 Alpha virt. eigenvalues --    0.91647   0.91901   0.91984   0.92461   0.92934
 Alpha virt. eigenvalues --    0.93155   0.93378   0.93791   0.93972   0.94129
 Alpha virt. eigenvalues --    0.94284   0.94534   0.94827   0.94985   0.95137
 Alpha virt. eigenvalues --    0.95435   0.95689   0.96070   0.96112   0.96596
 Alpha virt. eigenvalues --    0.96643   0.97078   0.97323   0.97613   0.97873
 Alpha virt. eigenvalues --    0.98161   0.98547   0.98931   0.99177   0.99430
 Alpha virt. eigenvalues --    0.99670   0.99939   1.00261   1.00607   1.00926
 Alpha virt. eigenvalues --    1.01183   1.01473   1.01887   1.02060   1.02758
 Alpha virt. eigenvalues --    1.03341   1.03542   1.03688   1.03992   1.04158
 Alpha virt. eigenvalues --    1.04412   1.04876   1.05094   1.05281   1.05518
 Alpha virt. eigenvalues --    1.06022   1.06070   1.06548   1.06724   1.06989
 Alpha virt. eigenvalues --    1.07659   1.07969   1.08133   1.08478   1.09127
 Alpha virt. eigenvalues --    1.09236   1.09649   1.10095   1.10365   1.10696
 Alpha virt. eigenvalues --    1.11093   1.11557   1.11874   1.12056   1.12467
 Alpha virt. eigenvalues --    1.12910   1.13151   1.13280   1.13877   1.14133
 Alpha virt. eigenvalues --    1.14414   1.15038   1.15716   1.16007   1.16123
 Alpha virt. eigenvalues --    1.16250   1.16836   1.17230   1.17459   1.17837
 Alpha virt. eigenvalues --    1.18478   1.18671   1.19210   1.19688   1.20085
 Alpha virt. eigenvalues --    1.20274   1.20432   1.20517   1.21026   1.21521
 Alpha virt. eigenvalues --    1.21696   1.21900   1.22163   1.22640   1.22660
 Alpha virt. eigenvalues --    1.23212   1.23664   1.23992   1.24357   1.24610
 Alpha virt. eigenvalues --    1.24865   1.25821   1.25906   1.26218   1.26471
 Alpha virt. eigenvalues --    1.26755   1.27086   1.27533   1.27586   1.27910
 Alpha virt. eigenvalues --    1.28531   1.29011   1.29364   1.29885   1.30090
 Alpha virt. eigenvalues --    1.30388   1.30925   1.31321   1.31614   1.32310
 Alpha virt. eigenvalues --    1.32561   1.33002   1.33885   1.34300   1.34636
 Alpha virt. eigenvalues --    1.35104   1.35584   1.35869   1.36352   1.36577
 Alpha virt. eigenvalues --    1.36994   1.37179   1.37906   1.38400   1.38622
 Alpha virt. eigenvalues --    1.39019   1.39325   1.39434   1.39901   1.40038
 Alpha virt. eigenvalues --    1.40222   1.40563   1.40794   1.41193   1.41550
 Alpha virt. eigenvalues --    1.41767   1.42061   1.42464   1.42823   1.43274
 Alpha virt. eigenvalues --    1.43499   1.43795   1.44049   1.44296   1.44421
 Alpha virt. eigenvalues --    1.44729   1.44898   1.45090   1.45383   1.45482
 Alpha virt. eigenvalues --    1.45664   1.46036   1.46178   1.46593   1.46881
 Alpha virt. eigenvalues --    1.46958   1.47151   1.47475   1.47783   1.47953
 Alpha virt. eigenvalues --    1.48178   1.48454   1.48637   1.48789   1.48997
 Alpha virt. eigenvalues --    1.49166   1.49291   1.49553   1.49919   1.50035
 Alpha virt. eigenvalues --    1.50196   1.50450   1.50675   1.51060   1.51093
 Alpha virt. eigenvalues --    1.51273   1.51668   1.51882   1.52053   1.52338
 Alpha virt. eigenvalues --    1.52597   1.52727   1.53097   1.53399   1.53596
 Alpha virt. eigenvalues --    1.53793   1.53982   1.54349   1.54379   1.54757
 Alpha virt. eigenvalues --    1.54993   1.55429   1.55748   1.55857   1.56275
 Alpha virt. eigenvalues --    1.56470   1.56653   1.57015   1.57137   1.57640
 Alpha virt. eigenvalues --    1.57749   1.58138   1.58477   1.58551   1.58737
 Alpha virt. eigenvalues --    1.59133   1.59437   1.59606   1.60038   1.60582
 Alpha virt. eigenvalues --    1.60754   1.61168   1.61204   1.61519   1.61648
 Alpha virt. eigenvalues --    1.62003   1.62488   1.62616   1.62738   1.62808
 Alpha virt. eigenvalues --    1.63163   1.63799   1.64208   1.64298   1.64636
 Alpha virt. eigenvalues --    1.64723   1.64937   1.65291   1.65668   1.65912
 Alpha virt. eigenvalues --    1.66168   1.66538   1.67002   1.67251   1.67448
 Alpha virt. eigenvalues --    1.67786   1.68056   1.68723   1.69104   1.69191
 Alpha virt. eigenvalues --    1.69569   1.69947   1.70206   1.70460   1.70678
 Alpha virt. eigenvalues --    1.71443   1.71799   1.71867   1.72324   1.72945
 Alpha virt. eigenvalues --    1.73364   1.73600   1.73902   1.74597   1.74809
 Alpha virt. eigenvalues --    1.75035   1.75369   1.75748   1.75997   1.76292
 Alpha virt. eigenvalues --    1.76616   1.77454   1.77526   1.78236   1.78396
 Alpha virt. eigenvalues --    1.78711   1.78866   1.79023   1.79891   1.80017
 Alpha virt. eigenvalues --    1.80270   1.80559   1.81169   1.81582   1.81752
 Alpha virt. eigenvalues --    1.81926   1.82060   1.82546   1.82947   1.83106
 Alpha virt. eigenvalues --    1.83573   1.83931   1.84255   1.84859   1.85113
 Alpha virt. eigenvalues --    1.85290   1.85608   1.85888   1.86152   1.86591
 Alpha virt. eigenvalues --    1.87224   1.87467   1.87568   1.88297   1.88647
 Alpha virt. eigenvalues --    1.88993   1.89066   1.89547   1.89730   1.90177
 Alpha virt. eigenvalues --    1.90706   1.90869   1.91065   1.91217   1.91526
 Alpha virt. eigenvalues --    1.92176   1.92354   1.92556   1.92666   1.93175
 Alpha virt. eigenvalues --    1.93440   1.93819   1.94173   1.94447   1.94574
 Alpha virt. eigenvalues --    1.95354   1.95852   1.95942   1.96643   1.96794
 Alpha virt. eigenvalues --    1.97296   1.97715   1.97931   1.98281   1.98864
 Alpha virt. eigenvalues --    1.98913   1.99354   1.99975   2.00065   2.00255
 Alpha virt. eigenvalues --    2.00854   2.01406   2.01715   2.02216   2.02542
 Alpha virt. eigenvalues --    2.02918   2.03594   2.03880   2.03925   2.04217
 Alpha virt. eigenvalues --    2.04239   2.04342   2.04959   2.05231   2.05571
 Alpha virt. eigenvalues --    2.06150   2.06263   2.06778   2.07258   2.07565
 Alpha virt. eigenvalues --    2.07879   2.07990   2.08099   2.08389   2.08780
 Alpha virt. eigenvalues --    2.08947   2.09349   2.09872   2.10103   2.10380
 Alpha virt. eigenvalues --    2.10636   2.10984   2.11234   2.11554   2.11858
 Alpha virt. eigenvalues --    2.12065   2.12273   2.12797   2.13265   2.13341
 Alpha virt. eigenvalues --    2.13665   2.14055   2.14274   2.14532   2.14987
 Alpha virt. eigenvalues --    2.15304   2.15770   2.15999   2.16146   2.16461
 Alpha virt. eigenvalues --    2.17019   2.17205   2.17561   2.18105   2.18426
 Alpha virt. eigenvalues --    2.18614   2.18895   2.19190   2.19672   2.20244
 Alpha virt. eigenvalues --    2.20489   2.20756   2.20876   2.21593   2.22118
 Alpha virt. eigenvalues --    2.22773   2.22909   2.23153   2.23518   2.23882
 Alpha virt. eigenvalues --    2.24327   2.24592   2.24653   2.25134   2.25593
 Alpha virt. eigenvalues --    2.26075   2.26084   2.26320   2.27020   2.27321
 Alpha virt. eigenvalues --    2.27626   2.28479   2.28734   2.28823   2.29141
 Alpha virt. eigenvalues --    2.29371   2.29824   2.29960   2.30280   2.30575
 Alpha virt. eigenvalues --    2.31204   2.31249   2.31723   2.32131   2.32350
 Alpha virt. eigenvalues --    2.32603   2.33082   2.33523   2.33650   2.33749
 Alpha virt. eigenvalues --    2.34570   2.34846   2.35024   2.35427   2.35820
 Alpha virt. eigenvalues --    2.36344   2.36459   2.36820   2.37132   2.37541
 Alpha virt. eigenvalues --    2.37704   2.38038   2.38464   2.38891   2.39063
 Alpha virt. eigenvalues --    2.39359   2.39878   2.40270   2.40559   2.40894
 Alpha virt. eigenvalues --    2.41386   2.41588   2.41964   2.42454   2.42513
 Alpha virt. eigenvalues --    2.43182   2.43362   2.43724   2.43988   2.44392
 Alpha virt. eigenvalues --    2.44554   2.45205   2.45682   2.46521   2.46799
 Alpha virt. eigenvalues --    2.47113   2.47199   2.47591   2.48004   2.48284
 Alpha virt. eigenvalues --    2.48713   2.49081   2.49200   2.49450   2.49680
 Alpha virt. eigenvalues --    2.49981   2.50072   2.50587   2.50787   2.51314
 Alpha virt. eigenvalues --    2.51439   2.51784   2.51979   2.52404   2.52533
 Alpha virt. eigenvalues --    2.52875   2.52946   2.53352   2.53708   2.54179
 Alpha virt. eigenvalues --    2.54435   2.54585   2.54833   2.55198   2.55417
 Alpha virt. eigenvalues --    2.55701   2.55968   2.56005   2.56192   2.56581
 Alpha virt. eigenvalues --    2.56877   2.57197   2.57688   2.58144   2.58269
 Alpha virt. eigenvalues --    2.58407   2.59125   2.59231   2.59892   2.60013
 Alpha virt. eigenvalues --    2.60424   2.60632   2.61036   2.61130   2.61855
 Alpha virt. eigenvalues --    2.62484   2.62757   2.63110   2.63181   2.63799
 Alpha virt. eigenvalues --    2.63903   2.64244   2.64433   2.64569   2.65165
 Alpha virt. eigenvalues --    2.65441   2.65653   2.65996   2.66183   2.66533
 Alpha virt. eigenvalues --    2.66890   2.67279   2.67699   2.67848   2.68163
 Alpha virt. eigenvalues --    2.68719   2.68776   2.69066   2.69302   2.69692
 Alpha virt. eigenvalues --    2.70005   2.70167   2.70490   2.71088   2.71194
 Alpha virt. eigenvalues --    2.72019   2.72174   2.72411   2.72565   2.72824
 Alpha virt. eigenvalues --    2.73027   2.73243   2.73885   2.74325   2.74744
 Alpha virt. eigenvalues --    2.74957   2.75264   2.75319   2.75769   2.76184
 Alpha virt. eigenvalues --    2.76345   2.76585   2.76873   2.76926   2.77209
 Alpha virt. eigenvalues --    2.77662   2.78051   2.78517   2.78826   2.78919
 Alpha virt. eigenvalues --    2.79301   2.79763   2.80105   2.80391   2.80788
 Alpha virt. eigenvalues --    2.80821   2.81510   2.81706   2.81846   2.82630
 Alpha virt. eigenvalues --    2.82811   2.83397   2.83814   2.84192   2.84273
 Alpha virt. eigenvalues --    2.84632   2.85041   2.85425   2.85788   2.86275
 Alpha virt. eigenvalues --    2.86415   2.86729   2.86923   2.87142   2.87804
 Alpha virt. eigenvalues --    2.87963   2.88166   2.88326   2.88630   2.88807
 Alpha virt. eigenvalues --    2.89080   2.89527   2.90077   2.90318   2.90626
 Alpha virt. eigenvalues --    2.90768   2.91023   2.91329   2.91601   2.92048
 Alpha virt. eigenvalues --    2.92441   2.92532   2.92793   2.93118   2.93442
 Alpha virt. eigenvalues --    2.93615   2.94138   2.94650   2.94804   2.95110
 Alpha virt. eigenvalues --    2.95612   2.95942   2.96129   2.96226   2.96273
 Alpha virt. eigenvalues --    2.96770   2.97103   2.97471   2.97776   2.98089
 Alpha virt. eigenvalues --    2.98405   2.98534   2.98696   2.99289   2.99532
 Alpha virt. eigenvalues --    2.99814   3.00394   3.00409   3.00698   3.01060
 Alpha virt. eigenvalues --    3.01353   3.01603   3.01635   3.01973   3.02505
 Alpha virt. eigenvalues --    3.02569   3.02669   3.03024   3.03140   3.03727
 Alpha virt. eigenvalues --    3.03836   3.03946   3.04375   3.04509   3.04715
 Alpha virt. eigenvalues --    3.05043   3.05117   3.05220   3.05627   3.05844
 Alpha virt. eigenvalues --    3.06153   3.06469   3.06574   3.06853   3.07079
 Alpha virt. eigenvalues --    3.07628   3.07817   3.07900   3.08091   3.08394
 Alpha virt. eigenvalues --    3.08541   3.08868   3.09028   3.09119   3.10060
 Alpha virt. eigenvalues --    3.10269   3.10339   3.10893   3.10957   3.11315
 Alpha virt. eigenvalues --    3.11634   3.11685   3.11932   3.12417   3.12844
 Alpha virt. eigenvalues --    3.13244   3.13408   3.13572   3.13988   3.14333
 Alpha virt. eigenvalues --    3.14454   3.14947   3.15230   3.15544   3.15585
 Alpha virt. eigenvalues --    3.15904   3.15969   3.16031   3.16763   3.16991
 Alpha virt. eigenvalues --    3.17309   3.17485   3.17746   3.17783   3.18143
 Alpha virt. eigenvalues --    3.18435   3.18863   3.19118   3.19398   3.19573
 Alpha virt. eigenvalues --    3.19841   3.20024   3.20450   3.20615   3.20763
 Alpha virt. eigenvalues --    3.21274   3.21599   3.21732   3.21873   3.22356
 Alpha virt. eigenvalues --    3.22407   3.22551   3.22758   3.23208   3.23296
 Alpha virt. eigenvalues --    3.23532   3.23702   3.24207   3.24450   3.25031
 Alpha virt. eigenvalues --    3.25089   3.25352   3.25611   3.26055   3.26524
 Alpha virt. eigenvalues --    3.26564   3.26705   3.27014   3.27049   3.27290
 Alpha virt. eigenvalues --    3.27471   3.27799   3.27932   3.28099   3.28286
 Alpha virt. eigenvalues --    3.28659   3.28786   3.28804   3.29169   3.29222
 Alpha virt. eigenvalues --    3.29516   3.29956   3.30158   3.30237   3.30437
 Alpha virt. eigenvalues --    3.30835   3.31283   3.31434   3.31576   3.31830
 Alpha virt. eigenvalues --    3.31951   3.32383   3.32595   3.32692   3.33090
 Alpha virt. eigenvalues --    3.33364   3.33469   3.33890   3.34197   3.34401
 Alpha virt. eigenvalues --    3.34729   3.35078   3.35357   3.35552   3.35837
 Alpha virt. eigenvalues --    3.36300   3.36799   3.36947   3.37190   3.37635
 Alpha virt. eigenvalues --    3.37852   3.37910   3.38514   3.38578   3.38690
 Alpha virt. eigenvalues --    3.38838   3.39378   3.39393   3.39687   3.40317
 Alpha virt. eigenvalues --    3.40600   3.40749   3.41051   3.41448   3.41737
 Alpha virt. eigenvalues --    3.42167   3.42715   3.43078   3.43496   3.43595
 Alpha virt. eigenvalues --    3.43927   3.44177   3.44453   3.44735   3.45200
 Alpha virt. eigenvalues --    3.45620   3.45837   3.46199   3.46452   3.46727
 Alpha virt. eigenvalues --    3.46861   3.47005   3.47994   3.48262   3.48710
 Alpha virt. eigenvalues --    3.48877   3.49318   3.49836   3.50029   3.50187
 Alpha virt. eigenvalues --    3.50642   3.50811   3.51039   3.51570   3.52017
 Alpha virt. eigenvalues --    3.52232   3.52415   3.52654   3.53042   3.53440
 Alpha virt. eigenvalues --    3.54157   3.54213   3.54488   3.54843   3.55086
 Alpha virt. eigenvalues --    3.55292   3.55465   3.55948   3.56153   3.56779
 Alpha virt. eigenvalues --    3.56806   3.57144   3.57655   3.57889   3.58311
 Alpha virt. eigenvalues --    3.58856   3.59131   3.59188   3.59536   3.60363
 Alpha virt. eigenvalues --    3.60830   3.60961   3.61603   3.61781   3.61967
 Alpha virt. eigenvalues --    3.62273   3.62295   3.62962   3.63189   3.63619
 Alpha virt. eigenvalues --    3.63711   3.63941   3.64145   3.64536   3.65016
 Alpha virt. eigenvalues --    3.65427   3.65806   3.65886   3.66550   3.66842
 Alpha virt. eigenvalues --    3.67112   3.67638   3.67874   3.68632   3.69246
 Alpha virt. eigenvalues --    3.69701   3.69945   3.70442   3.70673   3.71352
 Alpha virt. eigenvalues --    3.71473   3.72773   3.72868   3.73381   3.73666
 Alpha virt. eigenvalues --    3.74398   3.74475   3.75482   3.76137   3.76338
 Alpha virt. eigenvalues --    3.76788   3.77489   3.77632   3.78066   3.78361
 Alpha virt. eigenvalues --    3.78486   3.79288   3.79605   3.79760   3.80305
 Alpha virt. eigenvalues --    3.80845   3.80983   3.81431   3.81901   3.82355
 Alpha virt. eigenvalues --    3.82615   3.82932   3.83296   3.83782   3.84819
 Alpha virt. eigenvalues --    3.85121   3.85800   3.85883   3.86559   3.86969
 Alpha virt. eigenvalues --    3.87406   3.87706   3.88663   3.89098   3.89419
 Alpha virt. eigenvalues --    3.90333   3.90511   3.90864   3.91542   3.91886
 Alpha virt. eigenvalues --    3.92170   3.92318   3.93068   3.93495   3.93974
 Alpha virt. eigenvalues --    3.94122   3.94561   3.95256   3.95537   3.96305
 Alpha virt. eigenvalues --    3.96793   3.97480   3.97514   3.97753   3.98078
 Alpha virt. eigenvalues --    3.98785   3.99304   3.99926   4.00392   4.01050
 Alpha virt. eigenvalues --    4.01863   4.02522   4.02851   4.03758   4.04541
 Alpha virt. eigenvalues --    4.04672   4.05354   4.05774   4.06272   4.06841
 Alpha virt. eigenvalues --    4.07541   4.07988   4.08339   4.09038   4.09258
 Alpha virt. eigenvalues --    4.09990   4.10526   4.10745   4.11212   4.11353
 Alpha virt. eigenvalues --    4.11779   4.12260   4.12820   4.13036   4.13254
 Alpha virt. eigenvalues --    4.13917   4.14546   4.14840   4.16276   4.16964
 Alpha virt. eigenvalues --    4.17103   4.17739   4.17930   4.18315   4.19966
 Alpha virt. eigenvalues --    4.20095   4.20298   4.21582   4.21740   4.22224
 Alpha virt. eigenvalues --    4.22647   4.23241   4.23377   4.23925   4.24451
 Alpha virt. eigenvalues --    4.24592   4.25085   4.25343   4.25856   4.26024
 Alpha virt. eigenvalues --    4.26618   4.27191   4.27626   4.28120   4.28773
 Alpha virt. eigenvalues --    4.29431   4.29444   4.29790   4.30066   4.30638
 Alpha virt. eigenvalues --    4.30931   4.31554   4.32110   4.32467   4.32608
 Alpha virt. eigenvalues --    4.33249   4.33729   4.34214   4.35164   4.35656
 Alpha virt. eigenvalues --    4.35772   4.36334   4.37103   4.37822   4.38371
 Alpha virt. eigenvalues --    4.38443   4.39029   4.39713   4.39800   4.40327
 Alpha virt. eigenvalues --    4.41073   4.41834   4.42226   4.43006   4.43223
 Alpha virt. eigenvalues --    4.43632   4.44544   4.45417   4.46331   4.46872
 Alpha virt. eigenvalues --    4.47167   4.48126   4.48678   4.49727   4.49911
 Alpha virt. eigenvalues --    4.50862   4.51246   4.51756   4.52458   4.52560
 Alpha virt. eigenvalues --    4.53034   4.53407   4.54606   4.54875   4.56056
 Alpha virt. eigenvalues --    4.56931   4.57223   4.57846   4.59196   4.59444
 Alpha virt. eigenvalues --    4.59765   4.59959   4.60277   4.60799   4.60956
 Alpha virt. eigenvalues --    4.61694   4.62169   4.62778   4.63046   4.63633
 Alpha virt. eigenvalues --    4.63933   4.64537   4.64627   4.66044   4.66631
 Alpha virt. eigenvalues --    4.67197   4.67701   4.68294   4.69142   4.70042
 Alpha virt. eigenvalues --    4.70478   4.70965   4.72315   4.72971   4.73697
 Alpha virt. eigenvalues --    4.74082   4.74219   4.75084   4.75654   4.76029
 Alpha virt. eigenvalues --    4.76746   4.78056   4.79122   4.79872   4.80707
 Alpha virt. eigenvalues --    4.81620   4.82198   4.82836   4.83460   4.84085
 Alpha virt. eigenvalues --    4.84623   4.84891   4.86269   4.86767   4.87197
 Alpha virt. eigenvalues --    4.87689   4.88150   4.88479   4.89086   4.89627
 Alpha virt. eigenvalues --    4.90519   4.91226   4.92361   4.92736   4.93426
 Alpha virt. eigenvalues --    4.94664   4.96147   4.97218   4.97323   4.98569
 Alpha virt. eigenvalues --    4.99638   5.00615   5.02917   5.02987   5.04141
 Alpha virt. eigenvalues --    5.05381   5.07878   5.09667   5.10326   5.10816
 Alpha virt. eigenvalues --    5.11220   5.11364   5.12238   5.12638   5.13325
 Alpha virt. eigenvalues --    5.13667   5.14741   5.14937   5.16011   5.16725
 Alpha virt. eigenvalues --    5.17596   5.18486   5.19177   5.19699   5.20294
 Alpha virt. eigenvalues --    5.21529   5.22617   5.23120   5.23398   5.23760
 Alpha virt. eigenvalues --    5.24573   5.26391   5.27431   5.27652   5.28268
 Alpha virt. eigenvalues --    5.28673   5.30199   5.31497   5.32736   5.34966
 Alpha virt. eigenvalues --    5.35629   5.36531   5.36871   5.37816   5.38842
 Alpha virt. eigenvalues --    5.39438   5.40635   5.42266   5.45941   5.46849
 Alpha virt. eigenvalues --    5.48326   5.49567   5.49874   5.50148   5.51256
 Alpha virt. eigenvalues --    5.51370   5.52604   5.53992   5.55007   5.56064
 Alpha virt. eigenvalues --    5.56126   5.57083   5.58031   5.59661   5.63686
 Alpha virt. eigenvalues --    5.64479   5.65931   5.66364   5.66735   5.69830
 Alpha virt. eigenvalues --    5.71955   5.76068   5.76829   5.80774   5.82347
 Alpha virt. eigenvalues --    5.83785   5.85395   5.87758   5.88061   5.88987
 Alpha virt. eigenvalues --    5.89462   5.91196   5.94265   5.94674   5.95801
 Alpha virt. eigenvalues --    5.96034   6.01806   6.04280   6.04932   6.06006
 Alpha virt. eigenvalues --    6.06797   6.07855   6.09533   6.11766   6.17964
 Alpha virt. eigenvalues --    6.18740   6.19101   6.20583   6.22541   6.24156
 Alpha virt. eigenvalues --    6.30035   6.32229   6.33720   6.34862   6.41739
 Alpha virt. eigenvalues --    6.42835   6.44040   6.44546   6.46865   6.47019
 Alpha virt. eigenvalues --    6.61429   6.61552   6.70120   6.73888   6.77489
 Alpha virt. eigenvalues --    6.80779   6.91572   6.92892   6.98278   7.02537
 Alpha virt. eigenvalues --    7.09444   7.10851   7.12168   7.16417   7.22580
 Alpha virt. eigenvalues --    7.29738   9.21610   9.45117   9.54582  20.18875
 Alpha virt. eigenvalues --   22.36225  22.38842  22.40753  22.42174  22.42745
 Alpha virt. eigenvalues --   22.47155  22.48005  22.49812  22.49941  22.52281
 Alpha virt. eigenvalues --   22.56318  22.58012  22.58627  22.62645  22.65028
 Alpha virt. eigenvalues --   22.66005  22.68370  22.82334  22.83559  22.84717
 Alpha virt. eigenvalues --   22.87628  22.88552  22.95953  22.96799  22.99087
 Alpha virt. eigenvalues --   23.07276  23.11477  23.13489  23.14568  23.16277
 Alpha virt. eigenvalues --   23.25644  23.32907  23.42163  23.45844  23.49551
 Alpha virt. eigenvalues --   23.63276  23.63468  23.65416  23.67809  23.68809
 Alpha virt. eigenvalues --   23.76811  32.34048  32.76725  32.86664  32.93652
 Alpha virt. eigenvalues --   32.98370  33.09622  43.88008  43.89122  43.91500
 Alpha virt. eigenvalues --   43.94797
  Beta  occ. eigenvalues -- -256.42900 -89.11386 -30.19796 -26.02620 -26.02366
  Beta  occ. eigenvalues --  -26.02136 -19.33135 -19.31917 -19.24011 -19.23541
  Beta  occ. eigenvalues --  -14.53794 -14.49256 -14.48902 -14.47713 -14.47550
  Beta  occ. eigenvalues --  -14.47394 -10.41302 -10.40963 -10.38739 -10.37176
  Beta  occ. eigenvalues --  -10.36465 -10.35964 -10.35796 -10.35383 -10.35149
  Beta  occ. eigenvalues --  -10.35012 -10.34943 -10.34840 -10.34780 -10.34528
  Beta  occ. eigenvalues --  -10.34254 -10.33204 -10.33110 -10.32584 -10.31995
  Beta  occ. eigenvalues --  -10.31961 -10.31932 -10.31806 -10.31802 -10.31708
  Beta  occ. eigenvalues --  -10.31656 -10.31652 -10.31609 -10.31543 -10.31377
  Beta  occ. eigenvalues --  -10.31329 -10.31103 -10.31071 -10.30771 -10.30724
  Beta  occ. eigenvalues --  -10.30660 -10.30057 -10.29865 -10.29766 -10.29611
  Beta  occ. eigenvalues --  -10.29418 -10.28473  -8.09265  -6.02908  -6.02611
  Beta  occ. eigenvalues --   -6.02118  -3.53758  -2.29487  -2.29174  -2.28915
  Beta  occ. eigenvalues --   -1.25515  -1.24387  -1.14422  -1.10585  -1.09720
  Beta  occ. eigenvalues --   -1.08799  -1.07197  -1.06456  -1.05704  -1.00233
  Beta  occ. eigenvalues --   -0.96715  -0.93907  -0.93092  -0.92815  -0.92433
  Beta  occ. eigenvalues --   -0.91410  -0.91146  -0.90754  -0.89541  -0.88999
  Beta  occ. eigenvalues --   -0.87910  -0.87369  -0.85762  -0.85594  -0.85101
  Beta  occ. eigenvalues --   -0.84112  -0.82345  -0.81337  -0.80902  -0.80680
  Beta  occ. eigenvalues --   -0.79124  -0.78021  -0.77390  -0.76863  -0.75748
  Beta  occ. eigenvalues --   -0.75405  -0.74938  -0.74044  -0.73720  -0.73373
  Beta  occ. eigenvalues --   -0.71901  -0.70800  -0.69553  -0.69423  -0.67707
  Beta  occ. eigenvalues --   -0.66183  -0.65490  -0.65101  -0.64712  -0.63726
  Beta  occ. eigenvalues --   -0.62696  -0.61775  -0.61356  -0.60912  -0.60112
  Beta  occ. eigenvalues --   -0.59413  -0.59159  -0.58401  -0.58215  -0.57937
  Beta  occ. eigenvalues --   -0.57840  -0.57287  -0.57054  -0.56506  -0.56123
  Beta  occ. eigenvalues --   -0.56039  -0.55685  -0.55245  -0.54972  -0.54808
  Beta  occ. eigenvalues --   -0.54486  -0.54247  -0.53963  -0.53823  -0.53669
  Beta  occ. eigenvalues --   -0.53454  -0.53392  -0.53025  -0.52905  -0.52713
  Beta  occ. eigenvalues --   -0.52363  -0.52264  -0.52189  -0.51564  -0.51356
  Beta  occ. eigenvalues --   -0.51056  -0.50793  -0.50654  -0.50519  -0.50235
  Beta  occ. eigenvalues --   -0.49861  -0.49710  -0.49538  -0.49320  -0.49216
  Beta  occ. eigenvalues --   -0.48993  -0.48694  -0.48539  -0.48137  -0.47728
  Beta  occ. eigenvalues --   -0.47515  -0.47273  -0.47209  -0.46825  -0.46650
  Beta  occ. eigenvalues --   -0.46409  -0.46122  -0.46005  -0.45906  -0.45169
  Beta  occ. eigenvalues --   -0.44820  -0.44783  -0.44135  -0.43949  -0.43797
  Beta  occ. eigenvalues --   -0.43069  -0.42864  -0.42410  -0.42226  -0.41879
  Beta  occ. eigenvalues --   -0.41173  -0.40136  -0.39475  -0.39015  -0.38723
  Beta  occ. eigenvalues --   -0.38272  -0.37755  -0.35280  -0.34949  -0.34487
  Beta  occ. eigenvalues --   -0.33861  -0.33520  -0.33450  -0.32539  -0.31491
  Beta  occ. eigenvalues --   -0.29853  -0.29335  -0.28837  -0.27649
  Beta virt. eigenvalues --   -0.22268  -0.17045  -0.16553  -0.13374  -0.10373
  Beta virt. eigenvalues --   -0.08457  -0.07261  -0.06723  -0.06603  -0.06101
  Beta virt. eigenvalues --   -0.05860  -0.05504  -0.05329  -0.04938  -0.04767
  Beta virt. eigenvalues --   -0.04699  -0.04047  -0.03524  -0.03311  -0.02949
  Beta virt. eigenvalues --   -0.02815  -0.02430  -0.02309  -0.01779  -0.01676
  Beta virt. eigenvalues --   -0.01610  -0.01181  -0.01063  -0.00909  -0.00518
  Beta virt. eigenvalues --    0.00052   0.00151   0.00559   0.00669   0.00772
  Beta virt. eigenvalues --    0.00866   0.01772   0.01945   0.02143   0.02338
  Beta virt. eigenvalues --    0.02495   0.02846   0.03136   0.03302   0.03382
  Beta virt. eigenvalues --    0.03631   0.03848   0.04179   0.04358   0.04534
  Beta virt. eigenvalues --    0.04631   0.04880   0.04923   0.05262   0.05299
  Beta virt. eigenvalues --    0.05422   0.05770   0.06070   0.06176   0.06367
  Beta virt. eigenvalues --    0.06459   0.06544   0.06830   0.06920   0.07210
  Beta virt. eigenvalues --    0.07288   0.07548   0.07733   0.07914   0.08221
  Beta virt. eigenvalues --    0.08426   0.08733   0.08894   0.09172   0.09364
  Beta virt. eigenvalues --    0.09427   0.09673   0.09926   0.10218   0.10414
  Beta virt. eigenvalues --    0.10587   0.10740   0.11179   0.11576   0.11777
  Beta virt. eigenvalues --    0.11895   0.12224   0.12356   0.12519   0.12691
  Beta virt. eigenvalues --    0.12944   0.13116   0.13293   0.13315   0.13561
  Beta virt. eigenvalues --    0.13670   0.13961   0.14037   0.14255   0.14405
  Beta virt. eigenvalues --    0.14721   0.14977   0.15277   0.15440   0.15677
  Beta virt. eigenvalues --    0.15827   0.16028   0.16166   0.16353   0.16507
  Beta virt. eigenvalues --    0.16608   0.16966   0.17239   0.17508   0.17552
  Beta virt. eigenvalues --    0.17845   0.18007   0.18313   0.18449   0.18585
  Beta virt. eigenvalues --    0.18830   0.19157   0.19224   0.19364   0.19383
  Beta virt. eigenvalues --    0.19733   0.20083   0.20350   0.20532   0.20570
  Beta virt. eigenvalues --    0.20753   0.21121   0.21375   0.21765   0.21835
  Beta virt. eigenvalues --    0.22465   0.22567   0.22729   0.22783   0.23165
  Beta virt. eigenvalues --    0.23358   0.23531   0.23643   0.23959   0.24102
  Beta virt. eigenvalues --    0.24493   0.24538   0.24670   0.24960   0.25038
  Beta virt. eigenvalues --    0.25195   0.25604   0.25699   0.26093   0.26241
  Beta virt. eigenvalues --    0.26404   0.26537   0.26914   0.27056   0.27228
  Beta virt. eigenvalues --    0.27579   0.27814   0.28052   0.28270   0.28475
  Beta virt. eigenvalues --    0.28582   0.28792   0.28967   0.29308   0.29740
  Beta virt. eigenvalues --    0.30098   0.30115   0.30205   0.30593   0.30692
  Beta virt. eigenvalues --    0.30876   0.30957   0.31266   0.31597   0.31641
  Beta virt. eigenvalues --    0.31812   0.32005   0.32098   0.32407   0.32573
  Beta virt. eigenvalues --    0.32799   0.33091   0.33201   0.33511   0.33708
  Beta virt. eigenvalues --    0.33856   0.33874   0.34106   0.34391   0.34415
  Beta virt. eigenvalues --    0.34691   0.34996   0.35172   0.35301   0.35407
  Beta virt. eigenvalues --    0.35483   0.35575   0.35909   0.36129   0.36150
  Beta virt. eigenvalues --    0.36425   0.36613   0.36743   0.36849   0.37071
  Beta virt. eigenvalues --    0.37286   0.37440   0.37683   0.37888   0.37988
  Beta virt. eigenvalues --    0.38127   0.38190   0.38446   0.38585   0.38888
  Beta virt. eigenvalues --    0.38966   0.39138   0.39209   0.39433   0.39567
  Beta virt. eigenvalues --    0.39651   0.39825   0.39893   0.40173   0.40281
  Beta virt. eigenvalues --    0.40502   0.40559   0.40687   0.41019   0.41037
  Beta virt. eigenvalues --    0.41205   0.41338   0.41627   0.41869   0.41903
  Beta virt. eigenvalues --    0.41952   0.42301   0.42391   0.42640   0.42728
  Beta virt. eigenvalues --    0.42859   0.43304   0.43569   0.43630   0.43704
  Beta virt. eigenvalues --    0.43944   0.44148   0.44247   0.44433   0.44635
  Beta virt. eigenvalues --    0.44742   0.45088   0.45354   0.45418   0.45568
  Beta virt. eigenvalues --    0.45696   0.45822   0.45970   0.46478   0.46693
  Beta virt. eigenvalues --    0.46748   0.46940   0.47114   0.47636   0.47685
  Beta virt. eigenvalues --    0.47827   0.48032   0.48316   0.48472   0.48787
  Beta virt. eigenvalues --    0.48869   0.48993   0.49063   0.49542   0.49812
  Beta virt. eigenvalues --    0.50014   0.50175   0.50284   0.50449   0.50729
  Beta virt. eigenvalues --    0.51025   0.51254   0.51351   0.51598   0.52038
  Beta virt. eigenvalues --    0.52139   0.52491   0.52526   0.52734   0.53104
  Beta virt. eigenvalues --    0.53355   0.53457   0.53709   0.54113   0.54152
  Beta virt. eigenvalues --    0.54464   0.54735   0.54922   0.55226   0.55322
  Beta virt. eigenvalues --    0.55517   0.55811   0.56135   0.56394   0.56819
[...]
  1740. RY*(   3) H  84                  0.00012     2.16551   
  1741. RY*(   4) H  84                  0.00007     2.92090   
  1742. RY*(   5) H  84                  0.00000     3.09400   
  1743. RY*(   1) H  85                  0.00036     1.01755   
  1744. RY*(   2) H  85                  0.00008     1.61972   
  1745. RY*(   3) H  85                  0.00003     2.04545   
  1746. RY*(   4) H  85                  0.00003     2.03945   
  1747. RY*(   5) H  85                  0.00000     2.83588   
  1748. RY*(   1) H  86                  0.00034     1.00851   
  1749. RY*(   2) H  86                  0.00009     1.67576   
  1750. RY*(   3) H  86                  0.00003     2.10720   
  1751. RY*(   4) H  86                  0.00001     2.78322   
  1752. RY*(   5) H  86                  0.00002     2.00631   
  1753. RY*(   1) H  87                  0.00028     1.18220   
  1754. RY*(   2) H  87                  0.00007     1.78609   
  1755. RY*(   3) H  87                  0.00004     2.00130   
  1756. RY*(   4) H  87                  0.00002     1.73977   
  1757. RY*(   5) H  87                  0.00000     2.98545   
  1758. RY*(   1) H  88                  0.00080     0.48395   
  1759. RY*(   2) H  88                  0.00009     2.21511   
  1760. RY*(   3) H  88                  0.00007     2.64205   
  1761. RY*(   4) H  88                  0.00006     2.37277   
  1762. RY*(   5) H  88                  0.00001     3.07425   
  1763. RY*(   1) H  89                  0.00041     1.61436   
  1764. RY*(   2) H  89                  0.00008     2.24902   
  1765. RY*(   3) H  89                  0.00007     2.32876   
  1766. RY*(   4) H  89                  0.00004     1.98051   
  1767. RY*(   5) H  89                  0.00000     2.69052   
  1768. RY*(   1) H  90                  0.00028     1.28615   
  1769. RY*(   2) H  90                  0.00007     2.22510   
  1770. RY*(   3) H  90                  0.00005     1.59625   
  1771. RY*(   4) H  90                  0.00003     2.29293   
  1772. RY*(   5) H  90                  0.00000     2.90334   
  1773. RY*(   1) H  91                  0.00035     1.28879   
  1774. RY*(   2) H  91                  0.00006     1.39512   
  1775. RY*(   3) H  91                  0.00005     2.53234   
  1776. RY*(   4) H  91                  0.00004     2.30827   
  1777. RY*(   5) H  91                  0.00001     2.93469   
  1778. RY*(   1) H  92                  0.00043     1.76709   
  1779. RY*(   2) H  92                  0.00026     1.77456   
  1780. RY*(   3) H  92                  0.00015     2.07798   
  1781. RY*(   4) H  92                  0.00010     1.34888   
  1782. RY*(   5) H  92                  0.00000     3.22427   
  1783. RY*(   1) H  93                  0.00069     0.67334   
  1784. RY*(   2) H  93                  0.00014     2.14197   
  1785. RY*(   3) H  93                  0.00011     2.12421   
  1786. RY*(   4) H  93                  0.00007     2.91102   
  1787. RY*(   5) H  93                  0.00000     3.14251   
  1788. RY*(   1) H  94                  0.00038     0.97612   
  1789. RY*(   2) H  94                  0.00008     1.70274   
  1790. RY*(   3) H  94                  0.00003     2.06153   
  1791. RY*(   4) H  94                  0.00002     1.93772   
  1792. RY*(   5) H  94                  0.00000     2.87008   
  1793. RY*(   1) H  95                  0.00034     1.03329   
  1794. RY*(   2) H  95                  0.00008     1.66029   
  1795. RY*(   3) H  95                  0.00003     2.06143   
  1796. RY*(   4) H  95                  0.00002     1.88274   
  1797. RY*(   5) H  95                  0.00000     2.89645   
  1798. RY*(   1) H  96                  0.00021     1.31740   
  1799. RY*(   2) H  96                  0.00008     1.83752   
  1800. RY*(   3) H  96                  0.00003     2.03177   
  1801. RY*(   4) H  96                  0.00001     2.18441   
  1802. RY*(   5) H  96                  0.00000     2.38117   
  1803. RY*(   1) H  97                  0.00034     1.60510   
  1804. RY*(   2) H  97                  0.00007     2.48985   
  1805. RY*(   3) H  97                  0.00007     2.21565   
  1806. RY*(   4) H  97                  0.00004     1.59760   
  1807. RY*(   5) H  97                  0.00001     2.95901   
  1808. RY*(   1) H  98                  0.00032     1.60708   
  1809. RY*(   2) H  98                  0.00009     2.48733   
  1810. RY*(   3) H  98                  0.00004     2.17637   
  1811. RY*(   4) H  98                  0.00005     1.91607   
  1812. RY*(   5) H  98                  0.00000     2.79111   
  1813. RY*(   1) H  99                  0.00035     1.30702   
  1814. RY*(   2) H  99                  0.00008     1.77667   
  1815. RY*(   3) H  99                  0.00005     2.39869   
  1816. RY*(   4) H  99                  0.00004     2.21531   
  1817. RY*(   5) H  99                  0.00001     3.01778   
  1818. RY*(   1) H 100                  0.00027     1.46913   
  1819. RY*(   2) H 100                  0.00009     1.85948   
  1820. RY*(   3) H 100                  0.00004     1.83253   
  1821. RY*(   4) H 100                  0.00004     2.33899   
  1822. RY*(   5) H 100                  0.00001     3.02211   
  1823. RY*(   1) H 101                  0.00076     0.84325   
  1824. RY*(   2) H 101                  0.00033     2.08107   
  1825. RY*(   3) H 101                  0.00023     1.72102   
  1826. RY*(   4) H 101                  0.00010     2.06103   
  1827. RY*(   5) H 101                  0.00000     3.12153   
  1828. BD*(   1) C   1 - C   2          0.00748     0.26900   
  1829. BD*(   1) C   1 - H  62          0.00369     0.31814   
  1830. BD*(   1) C   1 - H  63          0.00148     0.31488   
  1831. BD*(   1) C   1 - H  64          0.00339     0.31965   
  1832. BD*(   1) C   2 - N   3          0.01281     0.30610   
  1833. BD*(   2) C   2 - N   3          0.37676    -0.13768  1838(v),190(v),1829(v)
                                                    1831(v),234(g),259(g),290(v)
                                                    208(v)
  1834. BD*(   1) C   2 - C   4          0.00872     0.44969   
  1835. BD*(   1) N   3 - C   5          0.01212     0.36131   
  1836. BD*(   1) N   3 - H  65          0.00595     0.30403   
  1837. BD*(   1) C   4 - N   6          0.00968     0.33915   
  1838. BD*(   2) C   4 - N   6          0.34899    -0.11787  1833(v),190(v),286(g)
                                                    1914(r),312(v),341(g)
  1839. BD*(   1) C   4 - H  67          0.00562     0.33800   
  1840. BD*(   1) C   5 - N   6          0.00781     0.47834   
  1841. BD*(   1) C   5 - H  66          0.00966     0.30604   
  1842. BD*(   1) N   6 -Fe  11          0.03125     0.30413   
  1843. BD*(   1) C   7 - C   8          0.00468     0.26711   
  1844. BD*(   1) C   7 - H  57          0.00249     0.33481   
  1845. BD*(   1) C   7 - H  58          0.00346     0.33896   
  1846. BD*(   1) C   7 - H  59          0.00265     0.33233   
  1847. BD*(   1) C   8 - S   9          0.01615     0.08028   
  1848. BD*(   1) C   8 - H  60          0.00638     0.30561   
  1849. BD*(   1) C   8 - H  61          0.01005     0.32464   
  1850. BD*(   1) S   9 - C  10          0.00790     0.12636   
  1851. BD*(   1) S   9 -Fe  11          0.02658     0.30096   
  1852. BD*(   1) C  10 - H  54          0.00466     0.30228   
  1853. BD*(   1) C  10 - H  55          0.00768     0.33034   
  1854. BD*(   1) C  10 - H  56          0.00673     0.30823   
  1855. BD*(   1)Fe  11 - N  16          0.02824     0.35653   
  1856. BD*(   1)Fe  11 - N  27          0.02624     0.35651   
  1857. BD*(   1)Fe  11 - N  35          0.02717     0.34018   
  1858. BD*(   1)Fe  11 - N  43          0.02710     0.35819   
  1859. BD*(   1) C  12 - C  17          0.01047     0.47701   
  1860. BD*(   2) C  12 - C  17          0.20875    -0.05320  1879(v),1864(r),496(g)
                                                    630(g),628(g)
  1861. BD*(   1) C  12 - C  47          0.01070     0.47398   
  1862. BD*(   1) C  12 - H  93          0.00689     0.35476   
  1863. BD*(   1) C  13 - C  20          0.01053     0.47288   
  1864. BD*(   2) C  13 - C  20          0.19733    -0.05150  1897(v),1879(v),1860(r)
                                                    522(g),708(g),1868(r)
  1865. BD*(   1) C  13 - C  28          0.01016     0.48417   
  1866. BD*(   1) C  13 - H  84          0.00677     0.35662   
  1867. BD*(   1) C  14 - C  31          0.01045     0.47474   
  1868. BD*(   2) C  14 - C  31          0.19037    -0.05671  1914(v),1901(v),1897(v)
                                                    548(g),994(g),1864(r)
  1869. BD*(   1) C  14 - C  36          0.01036     0.47451   
  1870. BD*(   1) C  14 - H  75          0.00664     0.35140   
  1871. BD*(   1) C  15 - C  39          0.01032     0.46672   
  1872. BD*(   2) C  15 - C  39          0.21397    -0.06559  1931(v),1918(v),1914(v)
                                                    574(g),1202(g)
  1873. BD*(   1) C  15 - C  44          0.01046     0.46976   
  1874. BD*(   1) C  15 - H  83          0.00710     0.34542   
  1875. BD*(   1) N  16 - C  17          0.01417     0.37793   
  1876. BD*(   1) N  16 - C  20          0.01351     0.39026   
  1877. BD*(   1) C  17 - C  18          0.01692     0.38962   
  1878. BD*(   1) C  18 - C  19          0.01000     0.51709   
  1879. BD*(   2) C  18 - C  19          0.11910    -0.02455  1864(v),1860(v),1935(r)
                                                    1886(v),1883(v),1884(v)
                                                    1888(v)
  1880. BD*(   1) C  18 - C  22          0.01209     0.29834   
  1881. BD*(   1) C  19 - C  20          0.01701     0.38828   
  1882. BD*(   1) C  19 - C  21          0.00837     0.29595   
  1883. BD*(   1) C  21 - H  85          0.00440     0.32875   
  1884. BD*(   1) C  21 - H  86          0.00401     0.32653   
  1885. BD*(   1) C  21 - H  87          0.00239     0.33156   
  1886. BD*(   1) C  22 - C  23          0.00822     0.28161   
  1887. BD*(   1) C  22 - H  88          0.00756     0.31361   
  1888. BD*(   1) C  22 - H  89          0.00721     0.32501   
  1889. BD*(   1) C  23 - C  24          0.04402     0.28045   
  1890. BD*(   1) C  23 - H  90          0.00610     0.31711   
  1891. BD*(   1) C  23 - H  91          0.00541     0.32868   
  1892. BD*(   1) C  24 - O  25          0.02945     0.52275   
  1893. BD*(   2) C  24 - O  25          0.08133    -0.00993   
  1894. BD*(   1) C  24 - O  26          0.03617     0.48221   
  1895. BD*(   1) O  26 - H  92          0.00784     0.30534   
  1896. BD*(   1) N  27 - C  28          0.01443     0.37365   
  1897. BD*(   2) N  27 - C  28          0.31283    -0.09928  1864(v),1868(v),1901(v)
                                                    914(g),1931(r),887(g),522(v)
  1898. BD*(   1) N  27 - C  31          0.01431     0.35484   
  1899. BD*(   1) C  28 - C  29          0.01630     0.38918   
  1900. BD*(   1) C  29 - C  30          0.01167     0.48989   
  1901. BD*(   2) C  29 - C  30          0.11721    -0.02175  1868(v),1897(v),200(v)
                                                    1908(v),1906(v),1909(v)
                                                    1900(g)
  1902. BD*(   1) C  29 - C  32          0.00827     0.28810   
  1903. BD*(   1) C  30 - C  31          0.01660     0.37945   
  1904. BD*(   1) C  30 - C  33          0.00943     0.43588   
  1905. BD*(   1) C  32 - H  72          0.00312     0.33245   
  1906. BD*(   1) C  32 - H  73          0.00377     0.32932   
  1907. BD*(   1) C  32 - H  74          0.00256     0.33318   
  1908. BD*(   1) C  33 - C  34          0.00512     0.28854   
  1909. BD*(   1) C  33 - H  68          0.00858     0.36282   
  1910. BD*(   1) C  34 - H  69          0.00120     0.33174   
  1911. BD*(   1) C  34 - H  70          0.00168     0.33205   
  1912. BD*(   1) C  34 - H  71          0.00259     0.33066   
  1913. BD*(   1) N  35 - C  36          0.01493     0.35557   
  1914. BD*(   2) N  35 - C  36          0.35323    -0.11673  1868(v),1918(v),1872(v)
                                                    1122(g),1095(g),1838(r)
                                                    548(v)
  1915. BD*(   1) N  35 - C  39          0.01368     0.37328   
  1916. BD*(   1) C  36 - C  37          0.01736     0.37608   
  1917. BD*(   1) C  37 - C  38          0.01438     0.47909   
  1918. BD*(   2) C  37 - C  38          0.17723    -0.04041  1872(v),1914(v),201(v)
                                                    1917(g),1923(v),1925(v)
                                                    1926(v)
  1919. BD*(   1) C  37 - C  40          0.00797     0.27583   
  1920. BD*(   1) C  38 - C  39          0.02103     0.36925   
  1921. BD*(   1) C  38 - C  41          0.01138     0.42875   
  1922. BD*(   1) C  40 - H  76          0.00306     0.30931   
  1923. BD*(   1) C  40 - H  77          0.00435     0.30806   
  1924. BD*(   1) C  40 - H  78          0.00268     0.31167   
  1925. BD*(   1) C  41 - C  42          0.00382     0.32083   
  1926. BD*(   1) C  41 - H  82          0.00925     0.31407   
  1927. BD*(   1) C  42 - H  79          0.00432     0.28513   
  1928. BD*(   1) C  42 - H  80          0.00513     0.28283   
  1929. BD*(   1) C  42 - H  81          0.00382     0.28933   
  1930. BD*(   1) N  43 - C  44          0.01434     0.36534   
  1931. BD*(   2) N  43 - C  44          0.31729    -0.10049  1872(v),1935(v),1330(g)
                                                    1897(r),1303(g),574(v)
  1932. BD*(   1) N  43 - C  47          0.01452     0.37707   
  1933. BD*(   1) C  44 - C  45          0.01654     0.39511   
  1934. BD*(   1) C  45 - C  46          0.01012     0.52223   
  1935. BD*(   2) C  45 - C  46          0.12094    -0.02455  1931(v),1879(r),1942(v)
                                                    1939(v),1940(v)
  1936. BD*(   1) C  45 - C  48          0.00888     0.28947   
  1937. BD*(   1) C  46 - C  47          0.01719     0.39224   
  1938. BD*(   1) C  46 - C  49          0.01168     0.30518   
  1939. BD*(   1) C  48 - H  94          0.00421     0.32376   
  1940. BD*(   1) C  48 - H  95          0.00357     0.32683   
  1941. BD*(   1) C  48 - H  96          0.00246     0.32807   
  1942. BD*(   1) C  49 - C  50          0.00819     0.27920   
  1943. BD*(   1) C  49 - H  97          0.00597     0.33198   
  1944. BD*(   1) C  49 - H  98          0.00693     0.32976   
  1945. BD*(   1) C  50 - C  51          0.03779     0.25865   
  1946. BD*(   1) C  50 - H  99          0.00482     0.32663   
  1947. BD*(   1) C  50 - H 100          0.00514     0.31659   
  1948. BD*(   1) C  51 - O  52          0.01559     0.52568   
  1949. BD*(   2) C  51 - O  52          0.11507    -0.03652  1948(g),1947(v)
  1950. BD*(   1) C  51 - O  53          0.03486     0.48320   
  1951. BD*(   1) O  53 - H 101          0.00778     0.31225   
       -------------------------------
              Total Lewis  198.77288  ( 97.4377%)
        Valence non-Lewis    4.84091  (  2.3730%)
        Rydberg non-Lewis    0.38621  (  0.1893%)
       -------------------------------
            Total unit  1  204.00000  (100.0000%)
           Charge unit  1    1.00000
 1\1\GINC-NODE538\SP\UPBE1PBE\def2TZVP\C41H48Fe1N6O4S1(1+,2)\ZHARTOVSKA
 \05-Nov-2022\0\\# PBE1PBE/def2TZVP empiricaldispersion=GD3BJ scf=maxcy
 cle=999 geom=check pop=nbo\\1cxc_III_D\\1,2\C,0,78.752998,25.169001,20
 .826\C,0,79.831001,25.295,19.747\N,0,79.633003,26.038,18.579\C,0,81.03
 9001,24.628,19.697001\C,0,80.745003,25.796,17.85\N,0,81.569,24.989,18.
 445\C,0,87.301003,25.139999,16.516001\C,0,86.764999,24.030001,17.41900
 1\S,0,85.233002,23.263,16.796\C,0,85.511002,21.620001,17.33\Fe,0,83.26
 3,24.167999,17.721001\C,0,82.996002,25.962999,14.866\C,0,81.308998,21.
 716,16.389999\C,0,83.694,22.281,20.549999\C,0,84.963997,26.739,19.2070
 01\N,0,82.372002,23.871,15.983\C,0,82.376999,24.725,14.891\C,0,81.6370
 01,24.15,13.781\C,0,81.183998,22.943001,14.193\C,0,81.616997,22.796,15
 .572\C,0,80.466003,21.92,13.324\C,0,81.334999,24.801001,12.439\C,0,79.
 931,25.385,12.44\C,0,79.619003,26.367001,11.322\O,0,78.959999,27.35,11
 .59\O,0,80.199997,26.236,10.25\N,0,82.657997,22.391001,18.323\C,0,81.7
 78999,21.535999,17.674\C,0,81.483002,20.371,18.490999\C,0,82.213997,20
 .472,19.645\C,0,82.927002,21.74,19.533001\C,0,80.526001,19.236,18.107\
 C,0,82.306999,19.500999,20.683001\C,0,82.9152898,18.11683185,20.390317
 54\N,0,84.172997,24.438999,19.468\C,0,84.263,23.537001,20.524\C,0,84.9
 20998,24.139999,21.666\C,0,85.278,25.389999,21.291\C,0,84.799004,25.57
 3999,19.934999\C,0,84.983002,23.559,23.070999\C,0,85.932999,26.341,22.
 066999\C,0,87.223999,26.094999,22.693001\N,0,83.831001,25.954,17.16900
 1\C,0,84.523003,26.914,17.905001\C,0,84.813004,28.082001,17.101999\C,0
 ,84.324997,27.841,15.865\C,0,83.692001,26.537001,15.919\C,0,85.566002,
 29.334,17.547001\C,0,84.656998,28.629,14.607\C,0,85.712997,27.910999,1
 3.768\C,0,86.494003,28.816999,12.805\O,0,87.511002,28.375999,12.29\O,0
 ,85.924004,29.778,12.316\H,0,86.43022184,21.57302177,17.87564443\H,0,8
 4.70511162,21.30901652,17.9614502\H,0,85.56766673,20.97328741,16.47944
 098\H,0,88.24425242,24.84304872,16.10734336\H,0,86.60798121,25.3185160
 1,15.7205436\H,0,87.42611681,26.03571797,17.08778248\H,0,87.51439658,2
 3.27176807,17.51057656\H,0,86.57236195,24.44057225,18.38813578\H,0,79.
 12190644,25.56925979,21.74719458\H,0,77.88163149,25.71201109,20.524735
 27\H,0,78.50176896,24.13763976,20.96045431\H,0,78.8513545,26.61378281,
 18.3392089\H,0,80.92646676,26.22368306,16.8861234\H,0,81.47066703,23.9
 869344,20.43700056\H,0,81.95421749,19.73332004,21.66609415\H,0,83.8587
 8024,18.02952899,20.88741311\H,0,82.25356177,17.35428537,20.7446322\H,
 0,83.05617101,18.00495467,19.33554933\H,0,80.98605398,18.29389506,18.3
 2075109\H,0,79.62077427,19.3268281,18.67021828\H,0,80.30341413,19.2953
 1498,17.06209004\H,0,83.85757957,21.68066302,21.42048003\H,0,85.870461
 13,23.90254227,23.56017689\H,0,84.12460964,23.87533449,23.62597201\H,0
 ,84.99753538,22.4905747,23.01481931\H,0,87.94397837,26.78756088,22.309
 74163\H,0,87.13664338,26.22080101,23.75198299\H,0,87.54031088,25.09581
 473,22.4774144\H,0,85.46791514,27.29400028,22.20978369\H,0,85.46455636
 ,27.55789718,19.68002081\H,0,80.65692379,20.96616905,15.9931958\H,0,81
 .06813756,21.03969104,13.23803423\H,0,79.52741006,21.66781123,13.77159
 817\H,0,80.29777381,22.33341767,12.35153675\H,0,82.043032,25.58246942,
 12.25762642\H,0,81.41219975,24.06689388,11.66438604\H,0,79.23398844,24
 .57568552,12.37608641\H,0,79.77924741,25.88484069,13.3738257\H,0,81.15
 956392,26.2325026,10.22138026\H,0,82.93195666,26.52437317,13.95734317\
 H,0,86.50193577,29.38944365,17.03139071\H,0,84.98176819,30.20117925,17
 .31990848\H,0,85.74185198,29.28852686,18.60147195\H,0,85.02679343,29.5
 9378163,14.88511463\H,0,83.7680099,28.74897633,14.02372833\H,0,86.4102
 6659,27.44356199,14.43148908\H,0,85.22748885,27.14886917,13.19499044\H
 ,0,86.43468283,30.50249908,11.94734268\\Version=ES64L-G16RevA.03\State
 =2-A\HF=-3880.3803931\S2=0.968746\S2-1=0.\S2A=0.767611\RMSD=2.125e-09\
 Dipole=0.7775518,-0.2919075,4.5440966\Quadrupole=-21.515842,6.6399224,
 14.8759196,21.2866138,11.6250165,3.8197488\PG=C01 [X(C41H48Fe1N6O4S1)]
 \\@


 THE MOST SERIOUS THREAT TO THE SURVIVAL OF MANKIND IS NOT NOW
 IGNORANCE IN THE TRADITIONAL SENSE,
 BUT A MORALLY NEUTRAL, AN INSENSITIVE OR INHIBITED HUMAN INTELLIGENCE.

                     -- MARGO JEFFERSON IN NEWSWEEK, SEPTEMBER 2, 1974
 Job cpu time:       5 days 19 hours 31 minutes 54.2 seconds.
 Elapsed time:       1 days 10 hours 58 minutes 21.9 seconds.
 File lengths (MBytes):  RWF=   3495 Int=      0 D2E=      0 Chk=    292 Scr=      1
 Normal termination of Gaussian 16 at Sat Nov  5 02:37:16 2022.
