 Entering Gaussian System, Link 0=g16
 Input=/net/homes/chemie/zhartovska/work/BioModel/Konrad/1dj1/1dj112/1dj112.com
 Output=/net/homes/chemie/zhartovska/work/BioModel/Konrad/1dj1/1dj112/1dj112.log
 Initial command:
 /afs/math/software/gaussian/g16.A03/g16/l1.exe "/scratch/zhartovska_gaussian.UpFRPjH/Gau-27711.inp" -scrdir="/scratch/zhartovska_gaussian.UpFRPjH/"
 Entering Link 1 = /afs/math/software/gaussian/g16.A03/g16/l1.exe PID=     27712.
  
 Copyright (c) 1988,1990,1992,1993,1995,1998,2003,2009,2016,
            Gaussian, Inc.  All Rights Reserved.
  
 This is part of the Gaussian(R) 16 program.  It is based on
 the Gaussian(R) 09 system (copyright 2009, Gaussian, Inc.),
 the Gaussian(R) 03 system (copyright 2003, Gaussian, Inc.),
 the Gaussian(R) 98 system (copyright 1998, Gaussian, Inc.),
 the Gaussian(R) 94 system (copyright 1995, Gaussian, Inc.),
 the Gaussian 92(TM) system (copyright 1992, Gaussian, Inc.),
 the Gaussian 90(TM) system (copyright 1990, Gaussian, Inc.),
 the Gaussian 88(TM) system (copyright 1988, Gaussian, Inc.),
 the Gaussian 86(TM) system (copyright 1986, Carnegie Mellon
 University), and the Gaussian 82(TM) system (copyright 1983,
 Carnegie Mellon University). Gaussian is a federally registered
 trademark of Gaussian, Inc.
  
 This software contains proprietary and confidential information,
 including trade secrets, belonging to Gaussian, Inc.
  
 This software is provided under written license and may be
 used, copied, transmitted, or stored only in accord with that
 written license.
  
 The following legend is applicable only to US Government
 contracts under FAR:
  
                    RESTRICTED RIGHTS LEGEND
  
 Use, reproduction and disclosure by the US Government is
 subject to restrictions as set forth in subparagraphs (a)
 and (c) of the Commercial Computer Software - Restricted
 Rights clause in FAR 52.227-19.
  
 Gaussian, Inc.
 340 Quinnipiac St., Bldg. 40, Wallingford CT 06492
  
  
 ---------------------------------------------------------------
 Warning -- This program may not be used in any manner that
 competes with the business of Gaussian, Inc. or will provide
 assistance to any competitor of Gaussian, Inc.  The licensee
 of this program is prohibited from giving any competitor of
 Gaussian, Inc. access to this program.  By using this program,
 the user acknowledges that Gaussian, Inc. is engaged in the
 business of creating and licensing software in the field of
 computational chemistry and represents and warrants to the
 licensee that it is not a competitor of Gaussian, Inc. and that
 it will not use this program in any manner prohibited above.
 ---------------------------------------------------------------
  

 Cite this work as:
 Gaussian 16, Revision A.03,
 M. J. Frisch, G. W. Trucks, H. B. Schlegel, G. E. Scuseria, 
 M. A. Robb, J. R. Cheeseman, G. Scalmani, V. Barone, 
 G. A. Petersson, H. Nakatsuji, X. Li, M. Caricato, A. V. Marenich, 
 J. Bloino, B. G. Janesko, R. Gomperts, B. Mennucci, H. P. Hratchian, 
 J. V. Ortiz, A. F. Izmaylov, J. L. Sonnenberg, D. Williams-Young, 
 F. Ding, F. Lipparini, F. Egidi, J. Goings, B. Peng, A. Petrone, 
 T. Henderson, D. Ranasinghe, V. G. Zakrzewski, J. Gao, N. Rega, 
 G. Zheng, W. Liang, M. Hada, M. Ehara, K. Toyota, R. Fukuda, 
 J. Hasegawa, M. Ishida, T. Nakajima, Y. Honda, O. Kitao, H. Nakai, 
 T. Vreven, K. Throssell, J. A. Montgomery, Jr., J. E. Peralta, 
 F. Ogliaro, M. J. Bearpark, J. J. Heyd, E. N. Brothers, K. N. Kudin, 
 V. N. Staroverov, T. A. Keith, R. Kobayashi, J. Normand, 
 K. Raghavachari, A. P. Rendell, J. C. Burant, S. S. Iyengar, 
 J. Tomasi, M. Cossi, J. M. Millam, M. Klene, C. Adamo, R. Cammi, 
 J. W. Ochterski, R. L. Martin, K. Morokuma, O. Farkas, 
 J. B. Foresman, and D. J. Fox, Gaussian, Inc., Wallingford CT, 2016.
 
 ******************************************
 Gaussian 16:  ES64L-G16RevA.03 25-Dec-2016
                27-Aug-2022 
 ******************************************
 %nprocs=12
 Will use up to   12 processors via shared memory.
 %mem=16GB
 %oldchk=1dj1_II_S.chk
 %chk=1dj1_III_D.chk
 Copying data from "1dj1_II_S.chk" to current chk file "1dj1_III_D.chk"
 IOpt=  2 FromEx=T IUOpen= 4 IOptOp= 5 NList=   0 IFRang= 0 IUIn= 4 IUOut= 2.
 ----------------------------------------------------------------------
 # PBE1PBE/def2TZVP empiricaldispersion=GD3BJ int=(grid=ultrafine) geom
 =check pop=nbo
 ----------------------------------------------------------------------
 1/29=2,38=1,172=1/1;
 2/12=2,40=1/2;
 3/5=44,7=101,11=2,14=-4,25=1,30=1,74=-13,75=-5,124=41/1,2,3;
 4//1;
 5/5=2,38=5/2;
 6/7=2,8=2,9=2,10=2,28=1,40=1/1,7;
 99/5=1,9=1/99;
 ----------
 1dj1_III_D
 ----------
 Structure from the checkpoint file:  "1dj1_III_D.chk"
 Charge =  1 Multiplicity = 2
 Z-Matrix found in chk file.
 C,0,-9.055,19.355,5.713
 C,0,-8.547,18.576,4.528
 N,0,-9.253,17.572001,3.919
 C,0,-7.373,18.650999,3.854
 C,0,-8.555,17.063999,2.917
 N,0,-7.401,17.709,2.86
 C,0,-5.41,20.18,0.273
 C,0,-7.842,16.195,-0.997
 C,0,-6.091,14.063,2.926
 C,0,-3.541,17.983999,4.002
 C,0,-6.266,19.302,-0.452
 C,0,-6.897,19.569,-1.65
 C,0,-7.655,18.438999,-1.984
 C,0,-7.408,17.535999,-0.971
 C,0,-8.437,18.223,-3.274
 C,0,-6.898,20.914,-2.407
 C,0,-5.758,21.025,-3.396
 C,0,-5.657,22.438,-4.
 O,0,-6.538,22.849001,-4.751
 O,0,-4.622,23.091,-3.858
 C,0,-7.591,15.216,-0.009
 C,0,-8.235,13.973,0.038
 C,0,-7.742,13.355,1.189
 C,0,-6.848,14.265,1.767
 C,0,-9.095,13.43,-1.09
 C,0,-7.829,11.989,1.504
 C,0,-9.00032663,11.27630291,1.21420912
 C,0,-5.111,14.878,3.553
 C,0,-4.336,14.55,4.668
 C,0,-3.476,15.651,4.835
 C,0,-3.993,16.653999,4.019
 C,0,-3.989,13.136,5.201
 C,0,-2.435,15.872,5.745
 C,0,-2.23,15.291,7.054
 C,0,-4.139,19.055,3.321
 C,0,-3.665,20.365,3.394
 C,0,-4.296,21.034,2.342
 C,0,-4.85,20.032,1.545
 C,0,-3.009,21.031,4.601
 C,0,-4.125,22.528999,2.026
 C,0,-2.95,22.798,1.064
 C,0,-2.863,24.261999,0.579
 O,0,-2.363,24.466,-0.514
 O,0,-3.62,25.069,1.097
 N,0,-6.515,18.034,-0.09
 N,0,-6.751,15.363,1.016
 N,0,-4.861,16.131001,3.127
 N,0,-4.791,18.843,2.172
 Fe,0,-5.84,17.135,1.641
 O,0,-4.208,16.702,0.39
 H,0,-3.00066029,14.70064477,7.50395935
 H,0,-1.30772377,15.45165318,7.57216706
 H,0,-1.68652416,16.56782211,5.4279582
 H,0,-3.0576858,13.17159622,5.72662988
 H,0,-4.76066588,12.80567273,5.86456285
 H,0,-3.90917584,12.45489798,4.3796425
 H,0,-2.65560847,18.20106945,4.56223411
 H,0,-2.06685739,21.44686415,4.31061352
 H,0,-3.64462929,21.80958801,4.96798244
 H,0,-2.85574334,20.3033265,5.37035276
 H,0,-3.95172406,23.05793793,2.93983754
 H,0,-5.02696847,22.89361565,1.58057035
 H,0,-2.03693837,22.54974551,1.563588
 H,0,-3.0562439,22.16194804,0.21015567
 H,0,-1.4078925,24.48375982,-0.60915385
 H,0,-3.76778659,22.66291852,-3.95108969
 H,0,-4.8403906,20.79368595,-2.89661357
 H,0,-5.91231436,20.3193893,-4.18543057
 H,0,-6.8178332,21.71020657,-1.69669839
 H,0,-7.82371644,21.01283273,-2.93442882
 H,0,-5.15795779,21.08908493,-0.23191516
 H,0,-7.87017484,17.60093213,-3.93478802
 H,0,-9.36987651,17.74900497,-3.05046002
 H,0,-8.62002568,19.16740038,-3.74251843
 H,0,-8.41656203,15.8889601,-1.8461867
 H,0,-8.5768475,12.63343543,-1.58183623
 H,0,-10.01706091,13.06256809,-0.69037834
 H,0,-9.2969542,14.21145765,-1.79245174
 H,0,-7.00094376,11.49252499,1.96523251
 H,0,-8.97807344,10.20765611,1.16523145
 H,0,-9.91691343,11.80078972,1.04192388
 H,0,-6.28299463,13.13638561,3.42542349
 H,0,-3.35666867,17.14566088,0.39
 H,0,-4.91006459,17.35675591,0.39
 H,0,-6.56856975,19.32536,4.06143486
 H,0,-10.16515878,17.26707671,4.19283853
 H,0,-8.86766478,16.27265595,2.2682189
 H,0,-8.35280792,20.12277596,5.96269252
 H,0,-9.99775381,19.79908807,5.47030463
 H,0,-9.17528087,18.69647531,6.54773214
 Recover connectivity data from disk.
 Stoichiometry    C38H40FeN6O5(1+,2)
 Framework group  C1[X(C38H40FeN6O5)]
 Deg. of freedom   264
 Full point group                 C1      NOp   1
 Largest Abelian subgroup         C1      NOp   1
 Largest concise Abelian subgroup C1      NOp   1
                         Standard orientation:                         
 ---------------------------------------------------------------------
 Center     Atomic      Atomic             Coordinates (Angstroms)
 Number     Number       Type             X           Y           Z
 ---------------------------------------------------------------------
      1          6           0       -1.444174   -1.865382    5.050118
      2          6           0       -1.498607   -1.013993    3.808626
      3          7           0       -2.231865    0.139167    3.709204
      4          6           0       -0.914146   -1.175016    2.595920
      5          6           0       -2.096858    0.665164    2.503230
      6          7           0       -1.295447   -0.123387    1.805434
      7          6           0        2.393795    0.066198    0.040204
      8          6           0       -0.964645    3.543879   -0.145169
      9          6           0       -4.271036    0.109005   -0.665525
     10          6           0       -0.859581   -3.266799   -0.686226
     11          6           0        1.795281    1.358725    0.060166
     12          6           0        2.451617    2.569848    0.144195
     13          6           0        1.474970    3.574331    0.158187
     14          6           0        0.275436    2.902173    0.049059
     15          6           0        1.722805    5.077708    0.131454
     16          6           0        3.967497    2.780335    0.343882
     17          6           0        4.718878    2.872864   -0.966426
     18          6           0        6.244106    2.887923   -0.754200
     19          8           0        6.779280    3.852919   -0.214335
     20          8           0        6.941122    2.009898   -1.265120
     21          6           0       -2.218621    2.910197   -0.298711
     22          6           0       -3.444475    3.586342   -0.252847
     23          6           0       -4.411798    2.588158   -0.385848
     24          6           0       -3.712206    1.379267   -0.488668
     25          6           0       -3.569646    5.099841   -0.274923
     26          6           0       -5.763369    2.776278   -0.718439
     27          6           0       -6.471126    3.862744   -0.186844
     28          6           0       -3.660714   -1.159815   -0.853558
     29          6           0       -4.306568   -2.370728   -1.114323
     30          6           0       -3.261401   -3.295076   -1.295700
     31          6           0       -2.112699   -2.651385   -0.842603
     32          6           0       -5.718413   -2.583418   -1.718764
     33          6           0       -3.286334   -4.651230   -1.643327
     34          6           0       -4.345313   -5.619766   -1.460105
     35          6           0        0.272943   -2.701217   -0.081315
     36          6           0        1.472136   -3.393287    0.089211
     37          6           0        2.414142   -2.408311    0.397227
     38          6           0        1.795131   -1.195658    0.093209
     39          6           0        1.631787   -4.887409    0.359121
     40          6           0        3.894342   -2.679305    0.712962
     41          6           0        4.778101   -2.671847   -0.550899
     42          6           0        6.291797   -2.755547   -0.254580
     43          8           0        7.053650   -2.246969   -1.059064
     44          8           0        6.625000   -2.956546    0.903521
     45          7           0        0.478453    1.574353   -0.082442
     46          7           0       -2.396895    1.599085   -0.463145
     47          7           0       -2.328021   -1.322130   -0.745992
     48          7           0        0.484731   -1.381805   -0.148728
     49         26           0       -0.961935    0.102152   -0.216955
     50          8           0       -0.477748    0.272847   -2.254685
     51          1           0       -5.205299   -5.368004   -0.875349
     52          1           0       -4.268538   -6.587849   -1.909349
     53          1           0       -2.398038   -5.023219   -2.109648
     54          1           0       -5.752635   -3.527293   -2.221585
     55          1           0       -6.447410   -2.569846   -0.935642
     56          1           0       -5.929542   -1.799898   -2.416202
     57          1           0       -0.759198   -4.262534   -1.064823
     58          1           0        2.298994   -5.310873   -0.362276
     59          1           0        2.030394   -5.031781    1.341551
     60          1           0        0.677868   -5.366757    0.287259
     61          1           0        3.977383   -3.634822    1.187294
     62          1           0        4.247663   -1.926584    1.386368
     63          1           0        4.504155   -3.505526   -1.163135
     64          1           0        4.586771   -1.770677   -1.095129
     65          1           0        7.287470   -2.717516   -1.862502
     66          1           0        6.765811    1.719880   -2.163316
     67          1           0        4.460665    2.032018   -1.575691
     68          1           0        4.428946    3.770719   -1.471099
     69          1           0        4.358583    1.960333    0.909169
     70          1           0        4.121047    3.684710    0.894726
     71          1           0        3.461781    0.060510   -0.025170
     72          1           0        1.580523    5.445009   -0.863406
     73          1           0        1.036566    5.564133    0.792791
     74          1           0        2.725344    5.279570    0.446206
     75          1           0       -0.955689    4.613286   -0.179660
     76          1           0       -3.949384    5.412497   -1.225157
     77          1           0       -4.239972    5.413597    0.497812
     78          1           0       -2.607762    5.539676   -0.112977
     79          1           0       -6.252624    2.090049   -1.377696
     80          1           0       -7.379001    4.188159   -0.650275
     81          1           0       -6.103638    4.366872    0.682471
     82          1           0       -5.340839    0.089963   -0.657842
     83          1           0        0.066437   -0.332487   -2.763637
     84          1           0       -0.034491    0.485552   -1.430136
     85          1           0       -0.270262   -1.979601    2.307899
     86          1           0       -2.789157    0.527398    4.443168
     87          1           0       -2.554087    1.567364    2.154120
     88          1           0       -0.756440   -2.671243    4.900083
     89          1           0       -1.120089   -1.269267    5.877473
     90          1           0       -2.417328   -2.260396    5.254655
 ---------------------------------------------------------------------
 Rotational constants (GHZ):           0.0748238           0.0460167           0.0338796
 Standard basis: def2TZVP (5D, 7F)
 There are  2056 symmetry adapted cartesian basis functions of A   symmetry.
 There are  1804 symmetry adapted basis functions of A   symmetry.
  1804 basis functions,  2921 primitive gaussians,  2056 cartesian basis functions
   188 alpha electrons      187 beta electrons
       nuclear repulsion energy      7585.7076311293 Hartrees.
 NAtoms=   90 NActive=   90 NUniq=   90 SFac= 1.00D+00 NAtFMM=   60 NAOKFM=T Big=T
 Integral buffers will be    131072 words long.
 Raffenetti 2 integral format.
 Two-electron integral symmetry is turned on.
 Nuclear repulsion after empirical dispersion term =     7585.5823222197 Hartrees.
 One-electron integrals computed using PRISM.
   1 Symmetry operations used in ECPInt.
 ECPInt:  NShTT=  255255 NPrTT=  790653 LenC2=  185109 LenP2D=  371690.
 LDataN:  DoStor=T MaxTD1= 6 Len=  172
 NBasis=  1804 RedAO= T EigKep=  4.60D-06  NBF=  1804
 NBsUse=  1804 1.00D-06 EigRej= -1.00D+00 NBFU=  1804
 ExpMin= 4.20D-02 ExpMax= 3.01D+05 ExpMxC= 2.91D+03 IAcc=3 IRadAn=         5 AccDes= 0.00D+00
 Harris functional with IExCor= 1009 and IRadAn=       5 diagonalized for initial guess.
 HarFok:  IExCor= 1009 AccDes= 0.00D+00 IRadAn=         5 IDoV= 1 UseB2=F ITyADJ=14
 ICtDFT=  3500011 ScaDFX=  1.000000  1.000000  1.000000  1.000000
 FoFCou: FMM=F IPFlag=           0 FMFlag=      100000 FMFlg1=        2001
         NFxFlg=           0 DoJE=T BraDBF=F KetDBF=T FulRan=T
         wScrn=  0.000000 ICntrl=       500 IOpCl=  0 I1Cent=   200000004 NGrid=           0
         NMat0=    1 NMatS0=      1 NMatT0=    0 NMatD0=    1 NMtDS0=    0 NMtDT0=    0
 Petite list used in FoFCou.
 Initial guess <Sx>= 0.0000 <Sy>= 0.0000 <Sz>= 0.5000 <S**2>= 0.7500 S= 0.5000
 Requested convergence on RMS density matrix=1.00D-08 within 128 cycles.
 Requested convergence on MAX density matrix=1.00D-06.
 Requested convergence on             energy=1.00D-06.
 No special actions if energy rises.
 EnCoef did   100 forward-backward iterations
 EnCoef did     5 forward-backward iterations
 EnCoef did     4 forward-backward iterations
 EnCoef did   100 forward-backward iterations
 EnCoef did     9 forward-backward iterations
 EnCoef did     5 forward-backward iterations
 EnCoef did     4 forward-backward iterations
 EnCoef did     3 forward-backward iterations
 Restarting incremental Fock formation.
 Restarting incremental Fock formation.
 Restarting incremental Fock formation.
 Restarting incremental Fock formation.
 SCF Done:  E(UPBE1PBE) =  -3438.38317375     A.U. after   90 cycles
            NFock= 90  Conv=0.20D-08     -V/T= 2.0030
 <Sx>= 0.0000 <Sy>= 0.0000 <Sz>= 0.5000 <S**2>= 1.2037 S= 0.7057
 <L.S>= 0.000000000000E+00
 Annihilation of the first spin contaminant:
 S**2 before annihilation     1.2037,   after     0.8568

 **********************************************************************

            Population analysis using the SCF density.

 **********************************************************************

 Orbital symmetries:
 Alpha Orbitals:
       Occupied  (A) (A) (A) (A) (A) (A) (A) (A) (A) (A) (A) (A)
                 (A) (A) (A) (A) (A) (A) (A) (A) (A) (A) (A) (A)
                 (A) (A) (A) (A) (A) (A) (A) (A) (A) (A) (A) (A)
                 (A) (A) (A) (A) (A) (A) (A) (A) (A) (A) (A) (A)
                 (A) (A) (A) (A) (A) (A) (A) (A) (A) (A) (A) (A)
                 (A) (A) (A) (A) (A) (A) (A) (A) (A) (A) (A) (A)
                 (A) (A) (A) (A) (A) (A) (A) (A) (A) (A) (A) (A)
                 (A) (A) (A) (A) (A) (A) (A) (A) (A) (A) (A) (A)
                 (A) (A) (A) (A) (A) (A) (A) (A) (A) (A) (A) (A)
                 (A) (A) (A) (A) (A) (A) (A) (A) (A) (A) (A) (A)
                 (A) (A) (A) (A) (A) (A) (A) (A) (A) (A) (A) (A)
                 (A) (A) (A) (A) (A) (A) (A) (A) (A) (A) (A) (A)
                 (A) (A) (A) (A) (A) (A) (A) (A) (A) (A) (A) (A)
                 (A) (A) (A) (A) (A) (A) (A) (A) (A) (A) (A) (A)
                 (A) (A) (A) (A) (A) (A) (A) (A) (A) (A) (A) (A)
                 (A) (A) (A) (A) (A) (A) (A) (A)
       Virtual   (A) (A) (A) (A) (A) (A) (A) (A) (A) (A) (A) (A)
                 (A) (A) (A) (A) (A) (A) (A) (A) (A) (A) (A) (A)
                 (A) (A) (A) (A) (A) (A) (A) (A) (A) (A) (A) (A)
                 (A) (A) (A) (A) (A) (A) (A) (A) (A) (A) (A) (A)
                 (A) (A) (A) (A) (A) (A) (A) (A) (A) (A) (A) (A)
                 (A) (A) (A) (A) (A) (A) (A) (A) (A) (A) (A) (A)
                 (A) (A) (A) (A) (A) (A) (A) (A) (A) (A) (A) (A)
                 (A) (A) (A) (A) (A) (A) (A) (A) (A) (A) (A) (A)
                 (A) (A) (A) (A) (A) (A) (A) (A) (A) (A) (A) (A)
                 (A) (A) (A) (A) (A) (A) (A) (A) (A) (A) (A) (A)
                 (A) (A) (A) (A) (A) (A) (A) (A) (A) (A) (A) (A)
                 (A) (A) (A) (A) (A) (A) (A) (A) (A) (A) (A) (A)
                 (A) (A) (A) (A) (A) (A) (A) (A) (A) (A) (A) (A)
                 (A) (A) (A) (A) (A) (A) (A) (A) (A) (A) (A) (A)
                 (A) (A) (A) (A) (A) (A) (A) (A) (A) (A) (A) (A)
                 (A) (A) (A) (A) (A) (A) (A) (A) (A) (A) (A) (A)
                 (A) (A) (A) (A) (A) (A) (A) (A) (A) (A) (A) (A)
                 (A) (A) (A) (A) (A) (A) (A) (A) (A) (A) (A) (A)
                 (A) (A) (A) (A) (A) (A) (A) (A) (A) (A) (A) (A)
                 (A) (A) (A) (A) (A) (A) (A) (A) (A) (A) (A) (A)
                 (A) (A) (A) (A) (A) (A) (A) (A) (A) (A) (A) (A)
                 (A) (A) (A) (A) (A) (A) (A) (A) (A) (A) (A) (A)
                 (A) (A) (A) (A) (A) (A) (A) (A) (A) (A) (A) (A)
                 (A) (A) (A) (A) (A) (A) (A) (A) (A) (A) (A) (A)
                 (A) (A) (A) (A) (A) (A) (A) (A) (A) (A) (A) (A)
                 (A) (A) (A) (A) (A) (A) (A) (A) (A) (A) (A) (A)
                 (A) (A) (A) (A) (A) (A) (A) (A) (A) (A) (A) (A)
                 (A) (A) (A) (A) (A) (A) (A) (A) (A) (A) (A) (A)
                 (A) (A) (A) (A) (A) (A) (A) (A) (A) (A) (A) (A)
                 (A) (A) (A) (A) (A) (A) (A) (A) (A) (A) (A) (A)
                 (A) (A) (A) (A) (A) (A) (A) (A) (A) (A) (A) (A)
                 (A) (A) (A) (A) (A) (A) (A) (A) (A) (A) (A) (A)
                 (A) (A) (A) (A) (A) (A) (A) (A) (A) (A) (A) (A)
                 (A) (A) (A) (A) (A) (A) (A) (A) (A) (A) (A) (A)
                 (A) (A) (A) (A) (A) (A) (A) (A) (A) (A) (A) (A)
                 (A) (A) (A) (A) (A) (A) (A) (A) (A) (A) (A) (A)
                 (A) (A) (A) (A) (A) (A) (A) (A) (A) (A) (A) (A)
                 (A) (A) (A) (A) (A) (A) (A) (A) (A) (A) (A) (A)
                 (A) (A) (A) (A) (A) (A) (A) (A) (A) (A) (A) (A)
                 (A) (A) (A) (A) (A) (A) (A) (A) (A) (A) (A) (A)
                 (A) (A) (A) (A) (A) (A) (A) (A) (A) (A) (A) (A)
                 (A) (A) (A) (A) (A) (A) (A) (A) (A) (A) (A) (A)
                 (A) (A) (A) (A) (A) (A) (A) (A) (A) (A) (A) (A)
                 (A) (A) (A) (A) (A) (A) (A) (A) (A) (A) (A) (A)
                 (A) (A) (A) (A) (A) (A) (A) (A) (A) (A) (A) (A)
                 (A) (A) (A) (A) (A) (A) (A) (A) (A) (A) (A) (A)
                 (A) (A) (A) (A) (A) (A) (A) (A) (A) (A) (A) (A)
                 (A) (A) (A) (A) (A) (A) (A) (A) (A) (A) (A) (A)
                 (A) (A) (A) (A) (A) (A) (A) (A) (A) (A) (A) (A)
                 (A) (A) (A) (A) (A) (A) (A) (A) (A) (A) (A) (A)
                 (A) (A) (A) (A) (A) (A) (A) (A) (A) (A) (A) (A)
                 (A) (A) (A) (A) (A) (A) (A) (A) (A) (A) (A) (A)
                 (A) (A) (A) (A) (A) (A) (A) (A) (A) (A) (A) (A)
                 (A) (A) (A) (A) (A) (A) (A) (A) (A) (A) (A) (A)
                 (A) (A) (A) (A) (A) (A) (A) (A) (A) (A) (A) (A)
                 (A) (A) (A) (A) (A) (A) (A) (A) (A) (A) (A) (A)
                 (A) (A) (A) (A) (A) (A) (A) (A) (A) (A) (A) (A)
                 (A) (A) (A) (A) (A) (A) (A) (A) (A) (A) (A) (A)
                 (A) (A) (A) (A) (A) (A) (A) (A) (A) (A) (A) (A)
                 (A) (A) (A) (A) (A) (A) (A) (A) (A) (A) (A) (A)
                 (A) (A) (A) (A) (A) (A) (A) (A) (A) (A) (A) (A)
                 (A) (A) (A) (A) (A) (A) (A) (A) (A) (A) (A) (A)
                 (A) (A) (A) (A) (A) (A) (A) (A) (A) (A) (A) (A)
                 (A) (A) (A) (A) (A) (A) (A) (A) (A) (A) (A) (A)
                 (A) (A) (A) (A) (A) (A) (A) (A) (A) (A) (A) (A)
                 (A) (A) (A) (A) (A) (A) (A) (A) (A) (A) (A) (A)
                 (A) (A) (A) (A) (A) (A) (A) (A) (A) (A) (A) (A)
                 (A) (A) (A) (A) (A) (A) (A) (A) (A) (A) (A) (A)
                 (A) (A) (A) (A) (A) (A) (A) (A) (A) (A) (A) (A)
                 (A) (A) (A) (A) (A) (A) (A) (A) (A) (A) (A) (A)
                 (A) (A) (A) (A) (A) (A) (A) (A) (A) (A) (A) (A)
                 (A) (A) (A) (A) (A) (A) (A) (A) (A) (A) (A) (A)
                 (A) (A) (A) (A) (A) (A) (A) (A) (A) (A) (A) (A)
                 (A) (A) (A) (A) (A) (A) (A) (A) (A) (A) (A) (A)
                 (A) (A) (A) (A) (A) (A) (A) (A) (A) (A) (A) (A)
                 (A) (A) (A) (A) (A) (A) (A) (A) (A) (A) (A) (A)
                 (A) (A) (A) (A) (A) (A) (A) (A) (A) (A) (A) (A)
                 (A) (A) (A) (A) (A) (A) (A) (A) (A) (A) (A) (A)
                 (A) (A) (A) (A) (A) (A) (A) (A) (A) (A) (A) (A)
                 (A) (A) (A) (A) (A) (A) (A) (A) (A) (A) (A) (A)
                 (A) (A) (A) (A) (A) (A) (A) (A) (A) (A) (A) (A)
                 (A) (A) (A) (A) (A) (A) (A) (A) (A) (A) (A) (A)
                 (A) (A) (A) (A) (A) (A) (A) (A) (A) (A) (A) (A)
                 (A) (A) (A) (A) (A) (A) (A) (A) (A) (A) (A) (A)
                 (A) (A) (A) (A) (A) (A) (A) (A) (A) (A) (A) (A)
                 (A) (A) (A) (A) (A) (A) (A) (A) (A) (A) (A) (A)
                 (A) (A) (A) (A) (A) (A) (A) (A) (A) (A) (A) (A)
                 (A) (A) (A) (A) (A) (A) (A) (A) (A) (A) (A) (A)
                 (A) (A) (A) (A) (A) (A) (A) (A) (A) (A) (A) (A)
                 (A) (A) (A) (A) (A) (A) (A) (A) (A) (A) (A) (A)
                 (A) (A) (A) (A) (A) (A) (A) (A) (A) (A) (A) (A)
                 (A) (A) (A) (A) (A) (A) (A) (A) (A) (A) (A) (A)
                 (A) (A) (A) (A) (A) (A) (A) (A) (A) (A) (A) (A)
                 (A) (A) (A) (A) (A) (A) (A) (A) (A) (A) (A) (A)
                 (A) (A) (A) (A) (A) (A) (A) (A) (A) (A) (A) (A)
                 (A) (A) (A) (A) (A) (A) (A) (A) (A) (A) (A) (A)
                 (A) (A) (A) (A) (A) (A) (A) (A) (A) (A) (A) (A)
                 (A) (A) (A) (A) (A) (A) (A) (A) (A) (A) (A) (A)
                 (A) (A) (A) (A) (A) (A) (A) (A) (A) (A) (A) (A)
                 (A) (A) (A) (A) (A) (A) (A) (A) (A) (A) (A) (A)
                 (A) (A) (A) (A) (A) (A) (A) (A) (A) (A) (A) (A)
                 (A) (A) (A) (A) (A) (A) (A) (A) (A) (A) (A) (A)
                 (A) (A) (A) (A) (A) (A) (A) (A) (A) (A) (A) (A)
                 (A) (A) (A) (A) (A) (A) (A) (A) (A) (A) (A) (A)
                 (A) (A) (A) (A) (A) (A) (A) (A) (A) (A) (A) (A)
                 (A) (A) (A) (A) (A) (A) (A) (A) (A) (A) (A) (A)
                 (A) (A) (A) (A) (A) (A) (A) (A) (A) (A) (A) (A)
                 (A) (A) (A) (A) (A) (A) (A) (A) (A) (A) (A) (A)
                 (A) (A) (A) (A) (A) (A) (A) (A) (A) (A) (A) (A)
                 (A) (A) (A) (A) (A) (A) (A) (A) (A) (A) (A) (A)
                 (A) (A) (A) (A) (A) (A) (A) (A) (A) (A) (A) (A)
                 (A) (A) (A) (A) (A) (A) (A) (A) (A) (A) (A) (A)
                 (A) (A) (A) (A) (A) (A) (A) (A) (A) (A) (A) (A)
                 (A) (A) (A) (A) (A) (A) (A) (A) (A) (A) (A) (A)
                 (A) (A) (A) (A) (A) (A) (A) (A) (A) (A) (A) (A)
                 (A) (A) (A) (A) (A) (A) (A) (A) (A) (A) (A) (A)
                 (A) (A) (A) (A) (A) (A) (A) (A) (A) (A) (A) (A)
                 (A) (A) (A) (A) (A) (A) (A) (A) (A) (A) (A) (A)
                 (A) (A) (A) (A) (A) (A) (A) (A) (A) (A) (A) (A)
                 (A) (A) (A) (A) (A) (A) (A) (A) (A) (A) (A) (A)
                 (A) (A) (A) (A) (A) (A) (A) (A) (A) (A) (A) (A)
                 (A) (A) (A) (A) (A) (A) (A) (A) (A) (A) (A) (A)
                 (A) (A) (A) (A) (A) (A) (A) (A) (A) (A) (A) (A)
                 (A) (A) (A) (A) (A) (A) (A) (A) (A) (A) (A) (A)
                 (A) (A) (A) (A) (A) (A) (A) (A) (A) (A) (A) (A)
                 (A) (A) (A) (A) (A) (A) (A) (A) (A) (A) (A) (A)
                 (A) (A) (A) (A) (A) (A) (A) (A) (A) (A) (A) (A)
                 (A) (A) (A) (A) (A) (A) (A) (A) (A) (A) (A) (A)
                 (A) (A) (A) (A) (A) (A) (A) (A) (A) (A) (A) (A)
                 (A) (A) (A) (A) (A) (A) (A) (A) (A) (A) (A) (A)
                 (A) (A) (A) (A) (A) (A) (A) (A) (A) (A) (A) (A)
                 (A) (A) (A) (A) (A) (A) (A) (A) (A) (A) (A) (A)
                 (A) (A) (A) (A) (A) (A) (A) (A) (A) (A) (A) (A)
                 (A) (A) (A) (A) (A) (A) (A) (A) (A) (A) (A) (A)
                 (A) (A) (A) (A) (A) (A) (A) (A)
 Beta  Orbitals:
       Occupied  (A) (A) (A) (A) (A) (A) (A) (A) (A) (A) (A) (A)
                 (A) (A) (A) (A) (A) (A) (A) (A) (A) (A) (A) (A)
                 (A) (A) (A) (A) (A) (A) (A) (A) (A) (A) (A) (A)
                 (A) (A) (A) (A) (A) (A) (A) (A) (A) (A) (A) (A)
                 (A) (A) (A) (A) (A) (A) (A) (A) (A) (A) (A) (A)
                 (A) (A) (A) (A) (A) (A) (A) (A) (A) (A) (A) (A)
                 (A) (A) (A) (A) (A) (A) (A) (A) (A) (A) (A) (A)
                 (A) (A) (A) (A) (A) (A) (A) (A) (A) (A) (A) (A)
                 (A) (A) (A) (A) (A) (A) (A) (A) (A) (A) (A) (A)
                 (A) (A) (A) (A) (A) (A) (A) (A) (A) (A) (A) (A)
                 (A) (A) (A) (A) (A) (A) (A) (A) (A) (A) (A) (A)
                 (A) (A) (A) (A) (A) (A) (A) (A) (A) (A) (A) (A)
                 (A) (A) (A) (A) (A) (A) (A) (A) (A) (A) (A) (A)
                 (A) (A) (A) (A) (A) (A) (A) (A) (A) (A) (A) (A)
                 (A) (A) (A) (A) (A) (A) (A) (A) (A) (A) (A) (A)
                 (A) (A) (A) (A) (A) (A) (A)
       Virtual   (A) (A) (A) (A) (A) (A) (A) (A) (A) (A) (A) (A)
                 (A) (A) (A) (A) (A) (A) (A) (A) (A) (A) (A) (A)
                 (A) (A) (A) (A) (A) (A) (A) (A) (A) (A) (A) (A)
                 (A) (A) (A) (A) (A) (A) (A) (A) (A) (A) (A) (A)
                 (A) (A) (A) (A) (A) (A) (A) (A) (A) (A) (A) (A)
                 (A) (A) (A) (A) (A) (A) (A) (A) (A) (A) (A) (A)
                 (A) (A) (A) (A) (A) (A) (A) (A) (A) (A) (A) (A)
                 (A) (A) (A) (A) (A) (A) (A) (A) (A) (A) (A) (A)
                 (A) (A) (A) (A) (A) (A) (A) (A) (A) (A) (A) (A)
                 (A) (A) (A) (A) (A) (A) (A) (A) (A) (A) (A) (A)
                 (A) (A) (A) (A) (A) (A) (A) (A) (A) (A) (A) (A)
                 (A) (A) (A) (A) (A) (A) (A) (A) (A) (A) (A) (A)
                 (A) (A) (A) (A) (A) (A) (A) (A) (A) (A) (A) (A)
                 (A) (A) (A) (A) (A) (A) (A) (A) (A) (A) (A) (A)
                 (A) (A) (A) (A) (A) (A) (A) (A) (A) (A) (A) (A)
                 (A) (A) (A) (A) (A) (A) (A) (A) (A) (A) (A) (A)
                 (A) (A) (A) (A) (A) (A) (A) (A) (A) (A) (A) (A)
                 (A) (A) (A) (A) (A) (A) (A) (A) (A) (A) (A) (A)
                 (A) (A) (A) (A) (A) (A) (A) (A) (A) (A) (A) (A)
                 (A) (A) (A) (A) (A) (A) (A) (A) (A) (A) (A) (A)
                 (A) (A) (A) (A) (A) (A) (A) (A) (A) (A) (A) (A)
                 (A) (A) (A) (A) (A) (A) (A) (A) (A) (A) (A) (A)
                 (A) (A) (A) (A) (A) (A) (A) (A) (A) (A) (A) (A)
                 (A) (A) (A) (A) (A) (A) (A) (A) (A) (A) (A) (A)
                 (A) (A) (A) (A) (A) (A) (A) (A) (A) (A) (A) (A)
                 (A) (A) (A) (A) (A) (A) (A) (A) (A) (A) (A) (A)
                 (A) (A) (A) (A) (A) (A) (A) (A) (A) (A) (A) (A)
                 (A) (A) (A) (A) (A) (A) (A) (A) (A) (A) (A) (A)
                 (A) (A) (A) (A) (A) (A) (A) (A) (A) (A) (A) (A)
                 (A) (A) (A) (A) (A) (A) (A) (A) (A) (A) (A) (A)
                 (A) (A) (A) (A) (A) (A) (A) (A) (A) (A) (A) (A)
                 (A) (A) (A) (A) (A) (A) (A) (A) (A) (A) (A) (A)
                 (A) (A) (A) (A) (A) (A) (A) (A) (A) (A) (A) (A)
                 (A) (A) (A) (A) (A) (A) (A) (A) (A) (A) (A) (A)
                 (A) (A) (A) (A) (A) (A) (A) (A) (A) (A) (A) (A)
                 (A) (A) (A) (A) (A) (A) (A) (A) (A) (A) (A) (A)
                 (A) (A) (A) (A) (A) (A) (A) (A) (A) (A) (A) (A)
                 (A) (A) (A) (A) (A) (A) (A) (A) (A) (A) (A) (A)
                 (A) (A) (A) (A) (A) (A) (A) (A) (A) (A) (A) (A)
                 (A) (A) (A) (A) (A) (A) (A) (A) (A) (A) (A) (A)
                 (A) (A) (A) (A) (A) (A) (A) (A) (A) (A) (A) (A)
                 (A) (A) (A) (A) (A) (A) (A) (A) (A) (A) (A) (A)
                 (A) (A) (A) (A) (A) (A) (A) (A) (A) (A) (A) (A)
                 (A) (A) (A) (A) (A) (A) (A) (A) (A) (A) (A) (A)
                 (A) (A) (A) (A) (A) (A) (A) (A) (A) (A) (A) (A)
                 (A) (A) (A) (A) (A) (A) (A) (A) (A) (A) (A) (A)
                 (A) (A) (A) (A) (A) (A) (A) (A) (A) (A) (A) (A)
                 (A) (A) (A) (A) (A) (A) (A) (A) (A) (A) (A) (A)
                 (A) (A) (A) (A) (A) (A) (A) (A) (A) (A) (A) (A)
                 (A) (A) (A) (A) (A) (A) (A) (A) (A) (A) (A) (A)
                 (A) (A) (A) (A) (A) (A) (A) (A) (A) (A) (A) (A)
                 (A) (A) (A) (A) (A) (A) (A) (A) (A) (A) (A) (A)
                 (A) (A) (A) (A) (A) (A) (A) (A) (A) (A) (A) (A)
                 (A) (A) (A) (A) (A) (A) (A) (A) (A) (A) (A) (A)
                 (A) (A) (A) (A) (A) (A) (A) (A) (A) (A) (A) (A)
                 (A) (A) (A) (A) (A) (A) (A) (A) (A) (A) (A) (A)
                 (A) (A) (A) (A) (A) (A) (A) (A) (A) (A) (A) (A)
                 (A) (A) (A) (A) (A) (A) (A) (A) (A) (A) (A) (A)
                 (A) (A) (A) (A) (A) (A) (A) (A) (A) (A) (A) (A)
                 (A) (A) (A) (A) (A) (A) (A) (A) (A) (A) (A) (A)
                 (A) (A) (A) (A) (A) (A) (A) (A) (A) (A) (A) (A)
                 (A) (A) (A) (A) (A) (A) (A) (A) (A) (A) (A) (A)
                 (A) (A) (A) (A) (A) (A) (A) (A) (A) (A) (A) (A)
                 (A) (A) (A) (A) (A) (A) (A) (A) (A) (A) (A) (A)
                 (A) (A) (A) (A) (A) (A) (A) (A) (A) (A) (A) (A)
                 (A) (A) (A) (A) (A) (A) (A) (A) (A) (A) (A) (A)
                 (A) (A) (A) (A) (A) (A) (A) (A) (A) (A) (A) (A)
                 (A) (A) (A) (A) (A) (A) (A) (A) (A) (A) (A) (A)
                 (A) (A) (A) (A) (A) (A) (A) (A) (A) (A) (A) (A)
                 (A) (A) (A) (A) (A) (A) (A) (A) (A) (A) (A) (A)
                 (A) (A) (A) (A) (A) (A) (A) (A) (A) (A) (A) (A)
                 (A) (A) (A) (A) (A) (A) (A) (A) (A) (A) (A) (A)
                 (A) (A) (A) (A) (A) (A) (A) (A) (A) (A) (A) (A)
                 (A) (A) (A) (A) (A) (A) (A) (A) (A) (A) (A) (A)
                 (A) (A) (A) (A) (A) (A) (A) (A) (A) (A) (A) (A)
                 (A) (A) (A) (A) (A) (A) (A) (A) (A) (A) (A) (A)
                 (A) (A) (A) (A) (A) (A) (A) (A) (A) (A) (A) (A)
                 (A) (A) (A) (A) (A) (A) (A) (A) (A) (A) (A) (A)
                 (A) (A) (A) (A) (A) (A) (A) (A) (A) (A) (A) (A)
                 (A) (A) (A) (A) (A) (A) (A) (A) (A) (A) (A) (A)
                 (A) (A) (A) (A) (A) (A) (A) (A) (A) (A) (A) (A)
                 (A) (A) (A) (A) (A) (A) (A) (A) (A) (A) (A) (A)
                 (A) (A) (A) (A) (A) (A) (A) (A) (A) (A) (A) (A)
                 (A) (A) (A) (A) (A) (A) (A) (A) (A) (A) (A) (A)
                 (A) (A) (A) (A) (A) (A) (A) (A) (A) (A) (A) (A)
                 (A) (A) (A) (A) (A) (A) (A) (A) (A) (A) (A) (A)
                 (A) (A) (A) (A) (A) (A) (A) (A) (A) (A) (A) (A)
                 (A) (A) (A) (A) (A) (A) (A) (A) (A) (A) (A) (A)
                 (A) (A) (A) (A) (A) (A) (A) (A) (A) (A) (A) (A)
                 (A) (A) (A) (A) (A) (A) (A) (A) (A) (A) (A) (A)
                 (A) (A) (A) (A) (A) (A) (A) (A) (A) (A) (A) (A)
                 (A) (A) (A) (A) (A) (A) (A) (A) (A) (A) (A) (A)
                 (A) (A) (A) (A) (A) (A) (A) (A) (A) (A) (A) (A)
                 (A) (A) (A) (A) (A) (A) (A) (A) (A) (A) (A) (A)
                 (A) (A) (A) (A) (A) (A) (A) (A) (A) (A) (A) (A)
                 (A) (A) (A) (A) (A) (A) (A) (A) (A) (A) (A) (A)
                 (A) (A) (A) (A) (A) (A) (A) (A) (A) (A) (A) (A)
                 (A) (A) (A) (A) (A) (A) (A) (A) (A) (A) (A) (A)
                 (A) (A) (A) (A) (A) (A) (A) (A) (A) (A) (A) (A)
                 (A) (A) (A) (A) (A) (A) (A) (A) (A) (A) (A) (A)
                 (A) (A) (A) (A) (A) (A) (A) (A) (A) (A) (A) (A)
                 (A) (A) (A) (A) (A) (A) (A) (A) (A) (A) (A) (A)
                 (A) (A) (A) (A) (A) (A) (A) (A) (A) (A) (A) (A)
                 (A) (A) (A) (A) (A) (A) (A) (A) (A) (A) (A) (A)
                 (A) (A) (A) (A) (A) (A) (A) (A) (A) (A) (A) (A)
                 (A) (A) (A) (A) (A) (A) (A) (A) (A) (A) (A) (A)
                 (A) (A) (A) (A) (A) (A) (A) (A) (A) (A) (A) (A)
                 (A) (A) (A) (A) (A) (A) (A) (A) (A) (A) (A) (A)
                 (A) (A) (A) (A) (A) (A) (A) (A) (A) (A) (A) (A)
                 (A) (A) (A) (A) (A) (A) (A) (A) (A) (A) (A) (A)
                 (A) (A) (A) (A) (A) (A) (A) (A) (A) (A) (A) (A)
                 (A) (A) (A) (A) (A) (A) (A) (A) (A) (A) (A) (A)
                 (A) (A) (A) (A) (A) (A) (A) (A) (A) (A) (A) (A)
                 (A) (A) (A) (A) (A) (A) (A) (A) (A) (A) (A) (A)
                 (A) (A) (A) (A) (A) (A) (A) (A) (A) (A) (A) (A)
                 (A) (A) (A) (A) (A) (A) (A) (A) (A) (A) (A) (A)
                 (A) (A) (A) (A) (A) (A) (A) (A) (A) (A) (A) (A)
                 (A) (A) (A) (A) (A) (A) (A) (A) (A) (A) (A) (A)
                 (A) (A) (A) (A) (A) (A) (A) (A) (A) (A) (A) (A)
                 (A) (A) (A) (A) (A) (A) (A) (A) (A) (A) (A) (A)
                 (A) (A) (A) (A) (A) (A) (A) (A) (A) (A) (A) (A)
                 (A) (A) (A) (A) (A) (A) (A) (A) (A) (A) (A) (A)
                 (A) (A) (A) (A) (A) (A) (A) (A) (A) (A) (A) (A)
                 (A) (A) (A) (A) (A) (A) (A) (A) (A) (A) (A) (A)
                 (A) (A) (A) (A) (A) (A) (A) (A) (A) (A) (A) (A)
                 (A) (A) (A) (A) (A) (A) (A) (A) (A) (A) (A) (A)
                 (A) (A) (A) (A) (A) (A) (A) (A) (A) (A) (A) (A)
                 (A) (A) (A) (A) (A) (A) (A) (A) (A) (A) (A) (A)
                 (A) (A) (A) (A) (A) (A) (A) (A) (A) (A) (A) (A)
                 (A) (A) (A) (A) (A) (A) (A) (A) (A) (A) (A) (A)
                 (A) (A) (A) (A) (A) (A) (A) (A) (A) (A) (A) (A)
                 (A) (A) (A) (A) (A) (A) (A) (A) (A) (A) (A) (A)
                 (A) (A) (A) (A) (A) (A) (A) (A) (A) (A) (A) (A)
                 (A) (A) (A) (A) (A) (A) (A) (A) (A) (A) (A) (A)
                 (A) (A) (A) (A) (A) (A) (A) (A) (A)
 The electronic state is 2-A.
 Alpha  occ. eigenvalues -- -256.43518 -30.20066 -26.02863 -26.02707 -26.02399
 Alpha  occ. eigenvalues --  -19.33646 -19.33087 -19.30255 -19.25590 -19.24330
 Alpha  occ. eigenvalues --  -14.54780 -14.49995 -14.49556 -14.49540 -14.48986
 Alpha  occ. eigenvalues --  -14.48640 -10.42549 -10.41824 -10.38499 -10.36572
 Alpha  occ. eigenvalues --  -10.36395 -10.36299 -10.36151 -10.36098 -10.36069
 Alpha  occ. eigenvalues --  -10.36062 -10.35986 -10.35914 -10.35861 -10.35834
 Alpha  occ. eigenvalues --  -10.35690 -10.35677 -10.33701 -10.33465 -10.33188
 Alpha  occ. eigenvalues --  -10.33044 -10.32984 -10.32965 -10.32916 -10.32721
 Alpha  occ. eigenvalues --  -10.32603 -10.32410 -10.32388 -10.32152 -10.31872
 Alpha  occ. eigenvalues --  -10.31798 -10.31731 -10.31628 -10.31385 -10.31362
 Alpha  occ. eigenvalues --  -10.30975 -10.30788 -10.30779 -10.30197  -3.55371
 Alpha  occ. eigenvalues --   -2.31513  -2.30925  -2.30452  -1.26220  -1.24868
 Alpha  occ. eigenvalues --   -1.17067  -1.15067  -1.11881  -1.11744  -1.11315
 Alpha  occ. eigenvalues --   -1.10891  -1.10176  -1.10101  -1.01407  -0.96126
 Alpha  occ. eigenvalues --   -0.94086  -0.93726  -0.93579  -0.93332  -0.93114
 Alpha  occ. eigenvalues --   -0.92536  -0.91092  -0.89368  -0.88450  -0.88009
 Alpha  occ. eigenvalues --   -0.87361  -0.85990  -0.84239  -0.82620  -0.82402
 Alpha  occ. eigenvalues --   -0.82208  -0.81492  -0.80490  -0.79058  -0.78305
 Alpha  occ. eigenvalues --   -0.77849  -0.77150  -0.75102  -0.75018  -0.74840
 Alpha  occ. eigenvalues --   -0.73036  -0.72654  -0.72187  -0.70955  -0.70643
 Alpha  occ. eigenvalues --   -0.68839  -0.67728  -0.66983  -0.66595  -0.65664
 Alpha  occ. eigenvalues --   -0.64202  -0.63791  -0.63605  -0.63419  -0.61753
 Alpha  occ. eigenvalues --   -0.61717  -0.60956  -0.60551  -0.60300  -0.59041
 Alpha  occ. eigenvalues --   -0.58535  -0.58108  -0.57875  -0.57563  -0.57029
 Alpha  occ. eigenvalues --   -0.56727  -0.56450  -0.56148  -0.56118  -0.55716
 Alpha  occ. eigenvalues --   -0.55314  -0.54922  -0.54472  -0.54152  -0.53921
 Alpha  occ. eigenvalues --   -0.53856  -0.53541  -0.53246  -0.52813  -0.52653
 Alpha  occ. eigenvalues --   -0.52501  -0.52370  -0.52253  -0.51908  -0.51715
 Alpha  occ. eigenvalues --   -0.51555  -0.51449  -0.51268  -0.51066  -0.50801
 Alpha  occ. eigenvalues --   -0.50452  -0.50074  -0.49964  -0.49099  -0.48818
 Alpha  occ. eigenvalues --   -0.48492  -0.48319  -0.48232  -0.48112  -0.47739
 Alpha  occ. eigenvalues --   -0.47345  -0.46693  -0.46498  -0.46198  -0.46090
 Alpha  occ. eigenvalues --   -0.45541  -0.45099  -0.44846  -0.44618  -0.43295
 Alpha  occ. eigenvalues --   -0.42887  -0.42704  -0.42561  -0.42363  -0.41724
 Alpha  occ. eigenvalues --   -0.41556  -0.40984  -0.40870  -0.39573  -0.39440
 Alpha  occ. eigenvalues --   -0.38585  -0.36093  -0.35824  -0.35382  -0.34893
 Alpha  occ. eigenvalues --   -0.34387  -0.33936  -0.33487  -0.33021  -0.32613
 Alpha  occ. eigenvalues --   -0.31799  -0.31144  -0.30489
 Alpha virt. eigenvalues --   -0.20507  -0.20195  -0.15523  -0.11205  -0.10298
 Alpha virt. eigenvalues --   -0.09796  -0.08741  -0.08542  -0.08077  -0.07923
 Alpha virt. eigenvalues --   -0.06649  -0.06161  -0.05505  -0.05404  -0.04705
 Alpha virt. eigenvalues --   -0.04577  -0.04291  -0.03895  -0.03552  -0.03299
 Alpha virt. eigenvalues --   -0.03106  -0.02460  -0.02277  -0.01711  -0.01600
 Alpha virt. eigenvalues --   -0.01134  -0.00518  -0.00447   0.00131   0.00278
 Alpha virt. eigenvalues --    0.00482   0.00716   0.00932   0.01022   0.01774
 Alpha virt. eigenvalues --    0.01927   0.02180   0.02656   0.02774   0.03150
 Alpha virt. eigenvalues --    0.03298   0.03402   0.03756   0.03940   0.04100
 Alpha virt. eigenvalues --    0.04486   0.04547   0.04692   0.04960   0.05063
 Alpha virt. eigenvalues --    0.05128   0.05190   0.05643   0.05972   0.06250
 Alpha virt. eigenvalues --    0.06708   0.06761   0.06939   0.07136   0.07466
 Alpha virt. eigenvalues --    0.07859   0.07884   0.08088   0.08336   0.08444
 Alpha virt. eigenvalues --    0.08743   0.09112   0.09383   0.09585   0.09895
 Alpha virt. eigenvalues --    0.10055   0.10259   0.10495   0.10735   0.10958
 Alpha virt. eigenvalues --    0.11352   0.11491   0.11805   0.11846   0.11932
 Alpha virt. eigenvalues --    0.12088   0.12268   0.12276   0.12980   0.13107
 Alpha virt. eigenvalues --    0.13262   0.13440   0.13579   0.13741   0.14041
 Alpha virt. eigenvalues --    0.14218   0.14602   0.14648   0.14825   0.15063
 Alpha virt. eigenvalues --    0.15402   0.15554   0.15769   0.15866   0.16309
 Alpha virt. eigenvalues --    0.16455   0.16645   0.17016   0.17271   0.17499
 Alpha virt. eigenvalues --    0.17756   0.18161   0.18510   0.18634   0.18844
 Alpha virt. eigenvalues --    0.18919   0.19000   0.19356   0.19551   0.19693
 Alpha virt. eigenvalues --    0.19963   0.20224   0.20257   0.20621   0.20751
 Alpha virt. eigenvalues --    0.21012   0.21167   0.21651   0.21875   0.22161
 Alpha virt. eigenvalues --    0.22338   0.22501   0.22538   0.22946   0.23134
 Alpha virt. eigenvalues --    0.23520   0.23549   0.23962   0.24046   0.24152
 Alpha virt. eigenvalues --    0.24470   0.24734   0.24982   0.25248   0.25323
 Alpha virt. eigenvalues --    0.25768   0.26023   0.26198   0.26484   0.26937
 Alpha virt. eigenvalues --    0.27136   0.27466   0.27655   0.27756   0.27875
 Alpha virt. eigenvalues --    0.28060   0.28308   0.28360   0.28832   0.29133
 Alpha virt. eigenvalues --    0.29187   0.29376   0.29518   0.29766   0.30111
 Alpha virt. eigenvalues --    0.30186   0.30261   0.30540   0.30880   0.30990
 Alpha virt. eigenvalues --    0.31255   0.31481   0.31657   0.31882   0.31941
 Alpha virt. eigenvalues --    0.32242   0.32290   0.32486   0.32786   0.32897
 Alpha virt. eigenvalues --    0.33154   0.33418   0.33874   0.33924   0.34279
 Alpha virt. eigenvalues --    0.34391   0.34658   0.34873   0.35123   0.35275
 Alpha virt. eigenvalues --    0.35366   0.35657   0.35769   0.35976   0.36372
 Alpha virt. eigenvalues --    0.36689   0.36703   0.36908   0.36986   0.37357
 Alpha virt. eigenvalues --    0.37472   0.37595   0.37713   0.38044   0.38311
 Alpha virt. eigenvalues --    0.38405   0.38589   0.38786   0.38932   0.39089
 Alpha virt. eigenvalues --    0.39182   0.39532   0.39727   0.39778   0.40074
 Alpha virt. eigenvalues --    0.40308   0.40323   0.40507   0.40714   0.40945
 Alpha virt. eigenvalues --    0.41146   0.41344   0.41512   0.41663   0.41931
 Alpha virt. eigenvalues --    0.42009   0.42280   0.42479   0.42838   0.42860
 Alpha virt. eigenvalues --    0.43045   0.43323   0.43456   0.43548   0.43775
 Alpha virt. eigenvalues --    0.43841   0.44215   0.44397   0.44622   0.44884
 Alpha virt. eigenvalues --    0.45093   0.45106   0.45303   0.45555   0.45694
 Alpha virt. eigenvalues --    0.45789   0.46408   0.46635   0.46784   0.46884
 Alpha virt. eigenvalues --    0.47285   0.47444   0.47594   0.47947   0.48538
 Alpha virt. eigenvalues --    0.48555   0.48937   0.49043   0.49326   0.49589
 Alpha virt. eigenvalues --    0.49736   0.49964   0.50040   0.50263   0.50335
 Alpha virt. eigenvalues --    0.50728   0.50893   0.51137   0.51249   0.51679
 Alpha virt. eigenvalues --    0.51750   0.52048   0.52668   0.52926   0.53203
 Alpha virt. eigenvalues --    0.53357   0.53707   0.53818   0.54096   0.54331
 Alpha virt. eigenvalues --    0.54813   0.54905   0.55271   0.55397   0.55621
 Alpha virt. eigenvalues --    0.55916   0.56115   0.56392   0.56483   0.56868
 Alpha virt. eigenvalues --    0.56994   0.57204   0.57439   0.57784   0.57926
 Alpha virt. eigenvalues --    0.58288   0.58567   0.58788   0.58986   0.59217
 Alpha virt. eigenvalues --    0.59840   0.59951   0.60332   0.60551   0.60795
 Alpha virt. eigenvalues --    0.60831   0.61318   0.61394   0.61776   0.61899
 Alpha virt. eigenvalues --    0.62350   0.62554   0.62827   0.62926   0.63104
 Alpha virt. eigenvalues --    0.63267   0.63629   0.64015   0.64630   0.64787
 Alpha virt. eigenvalues --    0.65058   0.65236   0.65448   0.65673   0.66221
 Alpha virt. eigenvalues --    0.66627   0.66894   0.67093   0.67426   0.67868
 Alpha virt. eigenvalues --    0.68227   0.68403   0.68555   0.68914   0.69342
 Alpha virt. eigenvalues --    0.69624   0.69950   0.70224   0.70709   0.71068
 Alpha virt. eigenvalues --    0.71243   0.71485   0.71750   0.71947   0.72424
 Alpha virt. eigenvalues --    0.72928   0.73068   0.73420   0.73822   0.74372
 Alpha virt. eigenvalues --    0.74469   0.74720   0.74962   0.75344   0.75545
 Alpha virt. eigenvalues --    0.76155   0.76604   0.76852   0.77142   0.77499
 Alpha virt. eigenvalues --    0.78197   0.78229   0.78579   0.78770   0.78965
 Alpha virt. eigenvalues --    0.79442   0.79672   0.79846   0.80467   0.80721
 Alpha virt. eigenvalues --    0.80922   0.81192   0.81407   0.81476   0.81923
 Alpha virt. eigenvalues --    0.82298   0.82569   0.82740   0.82907   0.83323
 Alpha virt. eigenvalues --    0.83534   0.84272   0.84570   0.84609   0.85096
 Alpha virt. eigenvalues --    0.85422   0.85655   0.85729   0.86150   0.86582
 Alpha virt. eigenvalues --    0.86894   0.87207   0.87575   0.87812   0.87957
 Alpha virt. eigenvalues --    0.88527   0.88717   0.88933   0.89350   0.89630
 Alpha virt. eigenvalues --    0.89891   0.90043   0.90544   0.90726   0.91129
 Alpha virt. eigenvalues --    0.91463   0.91602   0.91935   0.92144   0.92718
 Alpha virt. eigenvalues --    0.93150   0.93164   0.93534   0.93734   0.93889
 Alpha virt. eigenvalues --    0.94159   0.94252   0.94339   0.94446   0.95015
 Alpha virt. eigenvalues --    0.95504   0.95861   0.96414   0.96769   0.96849
 Alpha virt. eigenvalues --    0.97195   0.97621   0.97860   0.98491   0.98572
 Alpha virt. eigenvalues --    0.98692   0.98990   0.99488   0.99787   1.00215
 Alpha virt. eigenvalues --    1.00604   1.01160   1.01470   1.01664   1.02001
 Alpha virt. eigenvalues --    1.02655   1.02974   1.03233   1.03972   1.04166
 Alpha virt. eigenvalues --    1.04485   1.05045   1.05384   1.05733   1.05898
 Alpha virt. eigenvalues --    1.06328   1.06571   1.06795   1.07154   1.07284
 Alpha virt. eigenvalues --    1.07893   1.07977   1.08432   1.08742   1.09278
 Alpha virt. eigenvalues --    1.09623   1.09977   1.10432   1.10640   1.10988
 Alpha virt. eigenvalues --    1.11421   1.11622   1.11970   1.12454   1.12505
 Alpha virt. eigenvalues --    1.13085   1.13358   1.13541   1.13968   1.14120
 Alpha virt. eigenvalues --    1.14580   1.15218   1.15349   1.15774   1.16132
 Alpha virt. eigenvalues --    1.16597   1.16921   1.17324   1.18132   1.18178
 Alpha virt. eigenvalues --    1.18440   1.19044   1.19527   1.20109   1.20398
 Alpha virt. eigenvalues --    1.20660   1.21087   1.21167   1.21393   1.21953
 Alpha virt. eigenvalues --    1.22805   1.22837   1.22942   1.23449   1.23899
 Alpha virt. eigenvalues --    1.24123   1.25013   1.25285   1.25410   1.25600
 Alpha virt. eigenvalues --    1.26194   1.26409   1.26844   1.27103   1.27361
 Alpha virt. eigenvalues --    1.28291   1.28545   1.28921   1.29746   1.30002
 Alpha virt. eigenvalues --    1.30329   1.30841   1.31180   1.31730   1.32042
 Alpha virt. eigenvalues --    1.32366   1.32911   1.33272   1.33717   1.34111
 Alpha virt. eigenvalues --    1.34299   1.34587   1.34901   1.35148   1.35502
 Alpha virt. eigenvalues --    1.35870   1.36079   1.36651   1.36691   1.36936
 Alpha virt. eigenvalues --    1.37679   1.37821   1.38119   1.38767   1.39102
 Alpha virt. eigenvalues --    1.39667   1.39889   1.40165   1.40572   1.40675
 Alpha virt. eigenvalues --    1.40869   1.41566   1.41852   1.42039   1.42260
 Alpha virt. eigenvalues --    1.42649   1.43119   1.43374   1.43828   1.44155
 Alpha virt. eigenvalues --    1.44658   1.44875   1.44997   1.45107   1.45333
 Alpha virt. eigenvalues --    1.46016   1.46318   1.46752   1.46966   1.47132
 Alpha virt. eigenvalues --    1.47761   1.47899   1.48205   1.48568   1.48766
 Alpha virt. eigenvalues --    1.48957   1.49248   1.49579   1.49863   1.50094
 Alpha virt. eigenvalues --    1.50414   1.50504   1.50786   1.50874   1.51257
 Alpha virt. eigenvalues --    1.51450   1.51885   1.52089   1.52351   1.52703
 Alpha virt. eigenvalues --    1.52789   1.53081   1.53144   1.53311   1.53554
 Alpha virt. eigenvalues --    1.54018   1.54246   1.54447   1.54761   1.55200
 Alpha virt. eigenvalues --    1.55400   1.55493   1.55860   1.55988   1.56342
 Alpha virt. eigenvalues --    1.56400   1.56890   1.57253   1.57653   1.57960
 Alpha virt. eigenvalues --    1.58330   1.58557   1.59024   1.59193   1.59725
 Alpha virt. eigenvalues --    1.59835   1.60326   1.60629   1.60729   1.60846
 Alpha virt. eigenvalues --    1.61220   1.61414   1.62057   1.62156   1.62565
 Alpha virt. eigenvalues --    1.63069   1.63166   1.63619   1.63989   1.64458
 Alpha virt. eigenvalues --    1.64812   1.65017   1.65428   1.65657   1.66434
 Alpha virt. eigenvalues --    1.66815   1.67635   1.67961   1.68118   1.68497
 Alpha virt. eigenvalues --    1.68789   1.69457   1.69728   1.69903   1.70483
 Alpha virt. eigenvalues --    1.70998   1.71260   1.71301   1.72396   1.72530
 Alpha virt. eigenvalues --    1.73245   1.73404   1.73494   1.74202   1.74452
 Alpha virt. eigenvalues --    1.74786   1.74892   1.75476   1.75938   1.76586
 Alpha virt. eigenvalues --    1.76774   1.76899   1.77059   1.77655   1.77884
 Alpha virt. eigenvalues --    1.78209   1.78630   1.79017   1.79300   1.80054
 Alpha virt. eigenvalues --    1.80411   1.80685   1.81174   1.81336   1.81423
 Alpha virt. eigenvalues --    1.82143   1.82688   1.83369   1.83510   1.83762
 Alpha virt. eigenvalues --    1.83996   1.84440   1.84650   1.85008   1.85862
 Alpha virt. eigenvalues --    1.85970   1.86075   1.86653   1.87127   1.87415
 Alpha virt. eigenvalues --    1.87576   1.88279   1.88662   1.88884   1.89340
 Alpha virt. eigenvalues --    1.89713   1.90147   1.90344   1.90744   1.90999
 Alpha virt. eigenvalues --    1.91407   1.91709   1.92100   1.92488   1.92744
 Alpha virt. eigenvalues --    1.93269   1.93721   1.94599   1.94684   1.94949
 Alpha virt. eigenvalues --    1.95613   1.96040   1.96357   1.96807   1.97218
 Alpha virt. eigenvalues --    1.97487   1.97765   1.98169   1.98483   1.98898
 Alpha virt. eigenvalues --    1.99096   1.99183   1.99447   1.99988   2.00405
 Alpha virt. eigenvalues --    2.01147   2.01471   2.01612   2.01968   2.02251
 Alpha virt. eigenvalues --    2.02464   2.03036   2.03178   2.03836   2.04318
 Alpha virt. eigenvalues --    2.04466   2.04992   2.05310   2.05593   2.05986
 Alpha virt. eigenvalues --    2.06265   2.06868   2.06948   2.07700   2.08265
 Alpha virt. eigenvalues --    2.08433   2.08828   2.09202   2.09748   2.10090
 Alpha virt. eigenvalues --    2.10417   2.10618   2.10867   2.11277   2.11722
 Alpha virt. eigenvalues --    2.11948   2.12354   2.12677   2.13865   2.14310
 Alpha virt. eigenvalues --    2.14521   2.14943   2.15566   2.15931   2.16796
 Alpha virt. eigenvalues --    2.17081   2.17375   2.17663   2.17821   2.18085
 Alpha virt. eigenvalues --    2.18564   2.18782   2.18958   2.19538   2.19723
 Alpha virt. eigenvalues --    2.20021   2.20635   2.20790   2.20931   2.21489
 Alpha virt. eigenvalues --    2.22155   2.22235   2.22892   2.23496   2.24044
 Alpha virt. eigenvalues --    2.24724   2.24990   2.25348   2.25533   2.26163
 Alpha virt. eigenvalues --    2.26682   2.26924   2.27318   2.27624   2.27951
 Alpha virt. eigenvalues --    2.28429   2.28646   2.29180   2.29254   2.29597
 Alpha virt. eigenvalues --    2.29872   2.30155   2.30700   2.31336   2.31835
 Alpha virt. eigenvalues --    2.32229   2.32298   2.32990   2.33064   2.33397
 Alpha virt. eigenvalues --    2.33761   2.33978   2.34295   2.34410   2.34929
 Alpha virt. eigenvalues --    2.35290   2.35646   2.35972   2.36382   2.36739
 Alpha virt. eigenvalues --    2.37084   2.37873   2.38237   2.38648   2.38922
 Alpha virt. eigenvalues --    2.39208   2.39903   2.40202   2.40605   2.40848
 Alpha virt. eigenvalues --    2.41176   2.41771   2.42144   2.42946   2.43289
 Alpha virt. eigenvalues --    2.43816   2.44102   2.44339   2.44784   2.45200
 Alpha virt. eigenvalues --    2.45395   2.46242   2.46498   2.46820   2.47067
 Alpha virt. eigenvalues --    2.47708   2.47782   2.48274   2.48362   2.49079
 Alpha virt. eigenvalues --    2.49620   2.49771   2.50205   2.50513   2.50645
 Alpha virt. eigenvalues --    2.51005   2.51141   2.51568   2.51718   2.52489
 Alpha virt. eigenvalues --    2.52650   2.52842   2.53565   2.53701   2.54150
 Alpha virt. eigenvalues --    2.54238   2.54560   2.54739   2.55246   2.55735
 Alpha virt. eigenvalues --    2.55781   2.55875   2.56168   2.56874   2.57142
 Alpha virt. eigenvalues --    2.57238   2.57550   2.57955   2.58579   2.58864
 Alpha virt. eigenvalues --    2.59092   2.59213   2.59812   2.60292   2.60950
 Alpha virt. eigenvalues --    2.61251   2.61511   2.61759   2.61860   2.62576
 Alpha virt. eigenvalues --    2.62871   2.63173   2.63366   2.63727   2.63948
 Alpha virt. eigenvalues --    2.64106   2.64393   2.64680   2.65293   2.65355
 Alpha virt. eigenvalues --    2.65962   2.66087   2.66531   2.66748   2.67501
 Alpha virt. eigenvalues --    2.67666   2.67880   2.68523   2.69056   2.69390
 Alpha virt. eigenvalues --    2.69718   2.70327   2.70590   2.71159   2.71578
 Alpha virt. eigenvalues --    2.72100   2.72299   2.72592   2.72675   2.72894
 Alpha virt. eigenvalues --    2.73119   2.73559   2.74037   2.74345   2.74645
 Alpha virt. eigenvalues --    2.75211   2.75444   2.75573   2.76403   2.76763
 Alpha virt. eigenvalues --    2.77151   2.77261   2.77676   2.77864   2.78317
 Alpha virt. eigenvalues --    2.78507   2.79090   2.79489   2.79790   2.79900
 Alpha virt. eigenvalues --    2.80354   2.80467   2.80709   2.81474   2.81629
 Alpha virt. eigenvalues --    2.81972   2.82369   2.82500   2.82875   2.83385
 Alpha virt. eigenvalues --    2.83549   2.84031   2.84344   2.84416   2.84946
 Alpha virt. eigenvalues --    2.85168   2.85681   2.85793   2.85876   2.86393
 Alpha virt. eigenvalues --    2.86618   2.86953   2.87420   2.87664   2.87852
 Alpha virt. eigenvalues --    2.87987   2.88881   2.88970   2.89598   2.89783
 Alpha virt. eigenvalues --    2.89863   2.90149   2.90267   2.90539   2.90967
 Alpha virt. eigenvalues --    2.91555   2.92065   2.92247   2.92429   2.92736
 Alpha virt. eigenvalues --    2.92807   2.93163   2.93808   2.94327   2.94440
 Alpha virt. eigenvalues --    2.95198   2.95419   2.95552   2.95782   2.95896
 Alpha virt. eigenvalues --    2.96263   2.96493   2.96960   2.97132   2.97552
 Alpha virt. eigenvalues --    2.97927   2.98011   2.98398   2.98776   2.99193
 Alpha virt. eigenvalues --    2.99427   3.00017   3.00317   3.00517   3.01036
 Alpha virt. eigenvalues --    3.01108   3.01427   3.01977   3.02107   3.02281
 Alpha virt. eigenvalues --    3.02574   3.02858   3.03016   3.03366   3.03518
 Alpha virt. eigenvalues --    3.04013   3.04080   3.04756   3.05057   3.05151
 Alpha virt. eigenvalues --    3.05535   3.05642   3.06051   3.06485   3.06559
 Alpha virt. eigenvalues --    3.06907   3.07152   3.07639   3.07881   3.08363
 Alpha virt. eigenvalues --    3.08379   3.08822   3.08985   3.09295   3.09328
 Alpha virt. eigenvalues --    3.09994   3.10211   3.10384   3.10627   3.11156
 Alpha virt. eigenvalues --    3.11293   3.11452   3.12172   3.12398   3.12573
 Alpha virt. eigenvalues --    3.12670   3.12840   3.13213   3.13521   3.13827
 Alpha virt. eigenvalues --    3.14004   3.14186   3.14589   3.14621   3.14990
 Alpha virt. eigenvalues --    3.15283   3.15582   3.15780   3.16171   3.16582
 Alpha virt. eigenvalues --    3.17044   3.17142   3.17454   3.17812   3.17938
 Alpha virt. eigenvalues --    3.18471   3.18603   3.18856   3.19217   3.19660
 Alpha virt. eigenvalues --    3.19753   3.20107   3.20163   3.20746   3.20831
 Alpha virt. eigenvalues --    3.21335   3.21386   3.21753   3.21889   3.22071
 Alpha virt. eigenvalues --    3.22424   3.22815   3.22848   3.23165   3.23498
 Alpha virt. eigenvalues --    3.23544   3.23834   3.24089   3.24501   3.24696
 Alpha virt. eigenvalues --    3.25060   3.25277   3.25803   3.26051   3.26087
 Alpha virt. eigenvalues --    3.26391   3.26602   3.26758   3.26998   3.27459
 Alpha virt. eigenvalues --    3.27673   3.27972   3.28245   3.28594   3.28803
 Alpha virt. eigenvalues --    3.29047   3.29473   3.29683   3.29848   3.30095
 Alpha virt. eigenvalues --    3.30284   3.30484   3.30686   3.30972   3.31284
 Alpha virt. eigenvalues --    3.31476   3.31875   3.32010   3.32413   3.32454
 Alpha virt. eigenvalues --    3.33299   3.33519   3.33688   3.34068   3.34420
 Alpha virt. eigenvalues --    3.34962   3.35181   3.35326   3.35874   3.36507
 Alpha virt. eigenvalues --    3.36807   3.37125   3.37277   3.37408   3.38509
 Alpha virt. eigenvalues --    3.38589   3.39072   3.39257   3.39606   3.39768
 Alpha virt. eigenvalues --    3.40301   3.40762   3.40952   3.41507   3.41828
 Alpha virt. eigenvalues --    3.42039   3.42075   3.42308   3.42518   3.43163
 Alpha virt. eigenvalues --    3.43360   3.43923   3.44327   3.44541   3.44782
 Alpha virt. eigenvalues --    3.45032   3.45118   3.45591   3.45982   3.46354
 Alpha virt. eigenvalues --    3.46640   3.46980   3.47698   3.47719   3.48134
 Alpha virt. eigenvalues --    3.48284   3.49280   3.49569   3.49613   3.50165
 Alpha virt. eigenvalues --    3.50798   3.51111   3.51241   3.51558   3.52096
 Alpha virt. eigenvalues --    3.52830   3.52982   3.53478   3.53873   3.54002
 Alpha virt. eigenvalues --    3.54494   3.54757   3.55038   3.55060   3.55667
 Alpha virt. eigenvalues --    3.56127   3.56598   3.56800   3.57489   3.57836
 Alpha virt. eigenvalues --    3.58047   3.58331   3.58922   3.59465   3.59884
 Alpha virt. eigenvalues --    3.60109   3.60202   3.60472   3.61112   3.62014
 Alpha virt. eigenvalues --    3.62460   3.62704   3.62985   3.63421   3.63701
 Alpha virt. eigenvalues --    3.63835   3.63940   3.64255   3.64685   3.65708
 Alpha virt. eigenvalues --    3.65875   3.66083   3.66492   3.66999   3.67739
 Alpha virt. eigenvalues --    3.67984   3.68653   3.69186   3.69774   3.70144
 Alpha virt. eigenvalues --    3.70653   3.71109   3.71244   3.71847   3.72275
 Alpha virt. eigenvalues --    3.72587   3.73269   3.73307   3.73707   3.74464
 Alpha virt. eigenvalues --    3.75343   3.75474   3.75776   3.76490   3.76752
 Alpha virt. eigenvalues --    3.77450   3.77853   3.78559   3.79385   3.79866
 Alpha virt. eigenvalues --    3.80117   3.80183   3.80801   3.80993   3.81498
 Alpha virt. eigenvalues --    3.81589   3.82482   3.82857   3.83175   3.83354
 Alpha virt. eigenvalues --    3.84010   3.84876   3.85206   3.85404   3.85957
 Alpha virt. eigenvalues --    3.86480   3.86907   3.87476   3.88792   3.89377
 Alpha virt. eigenvalues --    3.89573   3.90206   3.90523   3.90808   3.90920
 Alpha virt. eigenvalues --    3.91409   3.92488   3.92996   3.93477   3.94016
 Alpha virt. eigenvalues --    3.94612   3.95147   3.95534   3.95806   3.96361
 Alpha virt. eigenvalues --    3.97619   3.97987   3.98335   3.98765   3.99956
 Alpha virt. eigenvalues --    4.00181   4.00618   4.01112   4.01244   4.02217
 Alpha virt. eigenvalues --    4.02678   4.02987   4.03506   4.04566   4.04728
 Alpha virt. eigenvalues --    4.05416   4.05910   4.06129   4.06916   4.07235
 Alpha virt. eigenvalues --    4.07848   4.08118   4.08558   4.09374   4.09888
 Alpha virt. eigenvalues --    4.10474   4.10801   4.11256   4.11735   4.11981
 Alpha virt. eigenvalues --    4.12332   4.13498   4.13784   4.13955   4.15133
 Alpha virt. eigenvalues --    4.15875   4.16128   4.16552   4.16868   4.18245
 Alpha virt. eigenvalues --    4.18468   4.18714   4.19520   4.19882   4.20618
 Alpha virt. eigenvalues --    4.21496   4.21889   4.22621   4.23367   4.23743
 Alpha virt. eigenvalues --    4.24225   4.24615   4.24837   4.26377   4.26861
 Alpha virt. eigenvalues --    4.27639   4.28066   4.28179   4.29044   4.29428
 Alpha virt. eigenvalues --    4.30126   4.30439   4.30915   4.31483   4.31840
 Alpha virt. eigenvalues --    4.32126   4.32634   4.32727   4.33878   4.34313
 Alpha virt. eigenvalues --    4.35321   4.36267   4.36585   4.37020   4.37379
 Alpha virt. eigenvalues --    4.38254   4.38600   4.39315   4.39539   4.39852
 Alpha virt. eigenvalues --    4.40587   4.41255   4.41778   4.42561   4.42779
 Alpha virt. eigenvalues --    4.43999   4.44758   4.45268   4.45602   4.46676
 Alpha virt. eigenvalues --    4.47642   4.47766   4.48371   4.49051   4.49977
 Alpha virt. eigenvalues --    4.50983   4.52396   4.52624   4.53126   4.53283
 Alpha virt. eigenvalues --    4.54839   4.55576   4.55785   4.56402   4.56775
 Alpha virt. eigenvalues --    4.57722   4.58233   4.58722   4.60018   4.60216
 Alpha virt. eigenvalues --    4.61473   4.61574   4.62023   4.62264   4.64337
 Alpha virt. eigenvalues --    4.64472   4.65126   4.66347   4.66618   4.66864
 Alpha virt. eigenvalues --    4.67545   4.68026   4.68803   4.69185   4.70789
 Alpha virt. eigenvalues --    4.72012   4.72411   4.72968   4.73554   4.74183
 Alpha virt. eigenvalues --    4.74664   4.75628   4.76261   4.76803   4.77472
 Alpha virt. eigenvalues --    4.78548   4.79340   4.80082   4.80404   4.81149
 Alpha virt. eigenvalues --    4.82687   4.83676   4.84102   4.85266   4.85646
 Alpha virt. eigenvalues --    4.86058   4.86858   4.88026   4.88917   4.89658
 Alpha virt. eigenvalues --    4.90418   4.91035   4.91335   4.91456   4.92001
 Alpha virt. eigenvalues --    4.93594   4.94455   4.95085   4.95396   4.95723
 Alpha virt. eigenvalues --    4.97099   4.98156   4.98884   4.99871   5.00532
 Alpha virt. eigenvalues --    5.01109   5.02024   5.02863   5.03836   5.04554
 Alpha virt. eigenvalues --    5.05191   5.05716   5.06319   5.08464   5.08955
 Alpha virt. eigenvalues --    5.10037   5.10484   5.11780   5.12061   5.12510
 Alpha virt. eigenvalues --    5.13146   5.13709   5.14485   5.14798   5.15090
 Alpha virt. eigenvalues --    5.15758   5.15842   5.16478   5.16967   5.17793
 Alpha virt. eigenvalues --    5.17951   5.18582   5.19613   5.20234   5.21681
 Alpha virt. eigenvalues --    5.22793   5.24602   5.25872   5.26981   5.27883
 Alpha virt. eigenvalues --    5.28740   5.29575   5.30592   5.31517   5.32634
 Alpha virt. eigenvalues --    5.32951   5.33627   5.34007   5.35440   5.36850
 Alpha virt. eigenvalues --    5.38557   5.39511   5.40936   5.42123   5.42651
 Alpha virt. eigenvalues --    5.42840   5.43547   5.44978   5.45450   5.46120
 Alpha virt. eigenvalues --    5.47004   5.48590   5.49523   5.50455   5.51090
 Alpha virt. eigenvalues --    5.51817   5.52320   5.52707   5.54654   5.56316
 Alpha virt. eigenvalues --    5.56737   5.58701   5.58885   5.60453   5.62928
 Alpha virt. eigenvalues --    5.63020   5.63432   5.64872   5.65542   5.67938
 Alpha virt. eigenvalues --    5.69874   5.70280   5.71616   5.74790   5.75895
 Alpha virt. eigenvalues --    5.80143   5.82109   5.83557   5.84818   5.85573
 Alpha virt. eigenvalues --    5.90946   5.91612   5.92336   5.92560   5.95785
 Alpha virt. eigenvalues --    5.98524   5.99205   5.99534   6.01194   6.03040
 Alpha virt. eigenvalues --    6.04386   6.07538   6.07947   6.10733   6.11858
 Alpha virt. eigenvalues --    6.13866   6.14274   6.19131   6.24003   6.26055
 Alpha virt. eigenvalues --    6.30799   6.33678   6.34328   6.34342   6.36682
 Alpha virt. eigenvalues --    6.39684   6.40933   6.41214   6.44035   6.46255
 Alpha virt. eigenvalues --    6.46358   6.47559   6.47709   6.59963   6.60608
 Alpha virt. eigenvalues --    6.65470   6.70241   6.71340   6.80014   6.81377
 Alpha virt. eigenvalues --    6.89248   6.91295   6.96102   6.98153   6.99991
 Alpha virt. eigenvalues --    7.08711   7.08928   7.09336   7.11519   7.12088
 Alpha virt. eigenvalues --    7.20300   7.21449  22.24318  22.27919  22.42674
 Alpha virt. eigenvalues --   22.43173  22.44282  22.46088  22.47602  22.52137
 Alpha virt. eigenvalues --   22.53970  22.60566  22.61435  22.63598  22.69000
 Alpha virt. eigenvalues --   22.70907  22.76181  22.79193  22.80021  22.83339
 Alpha virt. eigenvalues --   22.84820  22.88559  22.91842  22.96979  23.01735
 Alpha virt. eigenvalues --   23.17673  23.21310  23.25856  23.29075  23.32149
 Alpha virt. eigenvalues --   23.32930  23.35451  23.40476  23.43358  23.50176
 Alpha virt. eigenvalues --   23.60181  23.61227  23.68641  23.72736  23.82913
 Alpha virt. eigenvalues --   32.38014  32.60937  32.84601  32.86224  32.94305
 Alpha virt. eigenvalues --   32.99691  43.86914  43.88439  43.91821  43.92452
 Alpha virt. eigenvalues --   44.09489
  Beta  occ. eigenvalues -- -256.43519 -30.19994 -26.02729 -26.02678 -26.02379
  Beta  occ. eigenvalues --  -19.33646 -19.33087 -19.30326 -19.25590 -19.24330
  Beta  occ. eigenvalues --  -14.54779 -14.49960 -14.49258 -14.49182 -14.48743
  Beta  occ. eigenvalues --  -14.48465 -10.42549 -10.41824 -10.38492 -10.36418
  Beta  occ. eigenvalues --  -10.36211 -10.36184 -10.36151 -10.36101 -10.36038
  Beta  occ. eigenvalues --  -10.36010 -10.35972 -10.35924 -10.35822 -10.35822
  Beta  occ. eigenvalues --  -10.35643 -10.35565 -10.33716 -10.33455 -10.33181
  Beta  occ. eigenvalues --  -10.33069 -10.32979 -10.32979 -10.32891 -10.32746
  Beta  occ. eigenvalues --  -10.32592 -10.32413 -10.32397 -10.32197 -10.31874
  Beta  occ. eigenvalues --  -10.31796 -10.31732 -10.31627 -10.31388 -10.31357
  Beta  occ. eigenvalues --  -10.30974 -10.30788 -10.30780 -10.30199  -3.55205
  Beta  occ. eigenvalues --   -2.31522  -2.30704  -2.30130  -1.26220  -1.24868
  Beta  occ. eigenvalues --   -1.17048  -1.15234  -1.11748  -1.11599  -1.11065
  Beta  occ. eigenvalues --   -1.10669  -1.10176  -1.09895  -1.01379  -0.95636
  Beta  occ. eigenvalues --   -0.93928  -0.93450  -0.93329  -0.93245  -0.92869
  Beta  occ. eigenvalues --   -0.92255  -0.91092  -0.89381  -0.88304  -0.87315
  Beta  occ. eigenvalues --   -0.86982  -0.85878  -0.84216  -0.82556  -0.82376
  Beta  occ. eigenvalues --   -0.82114  -0.81440  -0.80490  -0.78981  -0.78196
  Beta  occ. eigenvalues --   -0.77678  -0.77110  -0.75087  -0.75002  -0.74815
  Beta  occ. eigenvalues --   -0.73025  -0.72648  -0.72178  -0.70639  -0.70428
  Beta  occ. eigenvalues --   -0.68971  -0.67731  -0.66973  -0.66539  -0.65630
  Beta  occ. eigenvalues --   -0.64140  -0.63757  -0.63482  -0.63335  -0.61732
  Beta  occ. eigenvalues --   -0.61707  -0.60890  -0.60487  -0.60238  -0.58979
  Beta  occ. eigenvalues --   -0.58334  -0.58090  -0.57776  -0.57430  -0.56953
  Beta  occ. eigenvalues --   -0.56509  -0.56268  -0.55993  -0.55833  -0.55526
  Beta  occ. eigenvalues --   -0.55280  -0.54868  -0.54392  -0.54132  -0.53854
  Beta  occ. eigenvalues --   -0.53765  -0.53460  -0.53174  -0.52719  -0.52568
  Beta  occ. eigenvalues --   -0.52424  -0.52348  -0.52200  -0.51750  -0.51629
  Beta  occ. eigenvalues --   -0.51502  -0.51251  -0.51160  -0.50939  -0.50693
  Beta  occ. eigenvalues --   -0.50346  -0.49956  -0.49849  -0.49023  -0.48780
  Beta  occ. eigenvalues --   -0.48431  -0.48241  -0.48163  -0.48046  -0.47701
  Beta  occ. eigenvalues --   -0.47316  -0.46686  -0.46438  -0.46202  -0.46116
  Beta  occ. eigenvalues --   -0.45537  -0.45246  -0.44500  -0.43514  -0.43139
  Beta  occ. eigenvalues --   -0.42791  -0.42701  -0.42466  -0.42112  -0.41639
  Beta  occ. eigenvalues --   -0.41523  -0.40195  -0.39874  -0.39535  -0.38300
  Beta  occ. eigenvalues --   -0.37792  -0.35830  -0.35637  -0.35191  -0.34796
  Beta  occ. eigenvalues --   -0.34297  -0.33370  -0.33045  -0.32765  -0.31786
  Beta  occ. eigenvalues --   -0.31194  -0.30676
  Beta virt. eigenvalues --   -0.25546  -0.18727  -0.18374  -0.14514  -0.11353
  Beta virt. eigenvalues --   -0.09765  -0.09572  -0.08564  -0.08516  -0.08166
  Beta virt. eigenvalues --   -0.07911  -0.06642  -0.06145  -0.05487  -0.05261
  Beta virt. eigenvalues --   -0.04664  -0.04487  -0.04286  -0.03928  -0.03544
  Beta virt. eigenvalues --   -0.03289  -0.03096  -0.02329  -0.02288  -0.01678
  Beta virt. eigenvalues --   -0.01522  -0.01116  -0.00489  -0.00293   0.00148
  Beta virt. eigenvalues --    0.00310   0.00542   0.00893   0.00984   0.01108
  Beta virt. eigenvalues --    0.01931   0.02034   0.02456   0.02725   0.02831
  Beta virt. eigenvalues --    0.03262   0.03363   0.03494   0.03800   0.04037
  Beta virt. eigenvalues --    0.04371   0.04529   0.04640   0.04753   0.05019
  Beta virt. eigenvalues --    0.05115   0.05205   0.05275   0.05696   0.05992
  Beta virt. eigenvalues --    0.06300   0.06726   0.06843   0.06980   0.07156
  Beta virt. eigenvalues --    0.07559   0.07908   0.07960   0.08142   0.08378
  Beta virt. eigenvalues --    0.08490   0.08785   0.09185   0.09419   0.09708
  Beta virt. eigenvalues --    0.09960   0.10144   0.10366   0.10536   0.10819
  Beta virt. eigenvalues --    0.10984   0.11440   0.11563   0.11910   0.11914
  Beta virt. eigenvalues --    0.12035   0.12127   0.12301   0.12371   0.13002
  Beta virt. eigenvalues --    0.13174   0.13305   0.13502   0.13667   0.13793
  Beta virt. eigenvalues --    0.14091   0.14276   0.14646   0.14695   0.14861
  Beta virt. eigenvalues --    0.15135   0.15525   0.15632   0.15853   0.15990
  Beta virt. eigenvalues --    0.16377   0.16511   0.16721   0.17084   0.17353
  Beta virt. eigenvalues --    0.17550   0.17836   0.18197   0.18532   0.18677
  Beta virt. eigenvalues --    0.18938   0.19005   0.19043   0.19469   0.19640
  Beta virt. eigenvalues --    0.19744   0.20049   0.20310   0.20416   0.20675
  Beta virt. eigenvalues --    0.20800   0.21111   0.21266   0.21710   0.21913
  Beta virt. eigenvalues --    0.22226   0.22411   0.22549   0.22636   0.23064
  Beta virt. eigenvalues --    0.23203   0.23567   0.23619   0.24002   0.24128
  Beta virt. eigenvalues --    0.24257   0.24495   0.24812   0.25142   0.25363
  Beta virt. eigenvalues --    0.25434   0.25834   0.26162   0.26296   0.26614
  Beta virt. eigenvalues --    0.27019   0.27274   0.27569   0.27781   0.27886
  Beta virt. eigenvalues --    0.27987   0.28147   0.28404   0.28453   0.28957
  Beta virt. eigenvalues --    0.29241   0.29371   0.29437   0.29626   0.29889
  Beta virt. eigenvalues --    0.30211   0.30226   0.30357   0.30609   0.30972
  Beta virt. eigenvalues --    0.31040   0.31318   0.31569   0.31729   0.31957
  Beta virt. eigenvalues --    0.32052   0.32307   0.32342   0.32538   0.32835
  Beta virt. eigenvalues --    0.32983   0.33255   0.33460   0.33938   0.34003
  Beta virt. eigenvalues --    0.34353   0.34440   0.34714   0.34903   0.35204
  Beta virt. eigenvalues --    0.35330   0.35457   0.35733   0.35819   0.36007
  Beta virt. eigenvalues --    0.36414   0.36722   0.36776   0.36933   0.37030
  Beta virt. eigenvalues --    0.37405   0.37536   0.37645   0.37782   0.38113
  Beta virt. eigenvalues --    0.38360   0.38483   0.38632   0.38891   0.38956
  Beta virt. eigenvalues --    0.39147   0.39197   0.39561   0.39767   0.39831
  Beta virt. eigenvalues --    0.40105   0.40349   0.40375   0.40584   0.40781
  Beta virt. eigenvalues --    0.40981   0.41178   0.41383   0.41570   0.41699
  Beta virt. eigenvalues --    0.41944   0.42054   0.42309   0.42515   0.42877
  Beta virt. eigenvalues --    0.42893   0.43093   0.43367   0.43494   0.43597
  Beta virt. eigenvalues --    0.43837   0.43910   0.44264   0.44457   0.44640
  Beta virt. eigenvalues --    0.44906   0.45113   0.45166   0.45371   0.45636
  Beta virt. eigenvalues --    0.45745   0.45814   0.46456   0.46676   0.46822
  Beta virt. eigenvalues --    0.46921   0.47325   0.47512   0.47658   0.48034
  Beta virt. eigenvalues --    0.48610   0.48619   0.48966   0.49098   0.49414
  Beta virt. eigenvalues --    0.49650   0.49802   0.50031   0.50114   0.50339
  Beta virt. eigenvalues --    0.50402   0.50809   0.50933   0.51205   0.51291
  Beta virt. eigenvalues --    0.51710   0.51816   0.52139   0.52720   0.53018
  Beta virt. eigenvalues --    0.53265   0.53410   0.53750   0.53894   0.54165
  Beta virt. eigenvalues --    0.54379   0.54847   0.54987   0.55296   0.55495
  Beta virt. eigenvalues --    0.55667   0.56027   0.56211   0.56460   0.56564
  Beta virt. eigenvalues --    0.56899   0.57052   0.57275   0.57531   0.57843
  Beta virt. eigenvalues --    0.58006   0.58375   0.58649   0.58876   0.59071
  Beta virt. eigenvalues --    0.59281   0.59936   0.60032   0.60412   0.60643
  Beta virt. eigenvalues --    0.60890   0.60923   0.61449   0.61493   0.61883
  Beta virt. eigenvalues --    0.62025   0.62417   0.62625   0.62886   0.62998
  Beta virt. eigenvalues --    0.63218   0.63328   0.63745   0.64087   0.64723
  Beta virt. eigenvalues --    0.64836   0.65117   0.65316   0.65522   0.65748
  Beta virt. eigenvalues --    0.66253   0.66691   0.66944   0.67201   0.67481
  Beta virt. eigenvalues --    0.67917   0.68345   0.68457   0.68650   0.69006
  Beta virt. eigenvalues --    0.69404   0.69679   0.70015   0.70319   0.70761
  Beta virt. eigenvalues --    0.71169   0.71340   0.71591   0.71800   0.72071
  Beta virt. eigenvalues --    0.72534   0.72982   0.73236   0.73499   0.73914
  Beta virt. eigenvalues --    0.74465   0.74557   0.74830   0.75055   0.75436
  Beta virt. eigenvalues --    0.75621   0.76277   0.76715   0.76937   0.77272
  Beta virt. eigenvalues --    0.77625   0.78301   0.78355   0.78667   0.78858
  Beta virt. eigenvalues --    0.79085   0.79505   0.79733   0.79914   0.80548
  Beta virt. eigenvalues --    0.80783   0.81011   0.81296   0.81473   0.81545
  Beta virt. eigenvalues --    0.82009   0.82396   0.82662   0.82866   0.83089
  Beta virt. eigenvalues --    0.83400   0.83647   0.84317   0.84647   0.84706
  Beta virt. eigenvalues --    0.85162   0.85515   0.85735   0.85866   0.86229
  Beta virt. eigenvalues --    0.86674   0.86960   0.87274   0.87632   0.87932
  Beta virt. eigenvalues --    0.88072   0.88582   0.88856   0.89009   0.89425
  Beta virt. eigenvalues --    0.89756   0.90014   0.90084   0.90617   0.90810
  Beta virt. eigenvalues --    0.91242   0.91552   0.91687   0.92025   0.92208
  Beta virt. eigenvalues --    0.92838   0.93218   0.93274   0.93628   0.93818
  Beta virt. eigenvalues --    0.93947   0.94258   0.94348   0.94452   0.94566
  Beta virt. eigenvalues --    0.95067   0.95577   0.95964   0.96474   0.96824
  Beta virt. eigenvalues --    0.96905   0.97266   0.97719   0.98028   0.98549
  Beta virt. eigenvalues --    0.98725   0.98819   0.99069   0.99506   0.99845
  Beta virt. eigenvalues --    1.00273   1.00684   1.01236   1.01541   1.01780
  Beta virt. eigenvalues --    1.02103   1.02755   1.03054   1.03332   1.04007
  Beta virt. eigenvalues --    1.04255   1.04555   1.05030   1.05421   1.05797
  Beta virt. eigenvalues --    1.05962   1.06349   1.06587   1.06912   1.07197
  Beta virt. eigenvalues --    1.07327   1.07957   1.08031   1.08584   1.08850
  Beta virt. eigenvalues --    1.09367   1.09670   1.10027   1.10488   1.10720
  Beta virt. eigenvalues --    1.11072   1.11450   1.11678   1.12085   1.12498
  Beta virt. eigenvalues --    1.12551   1.13126   1.13403   1.13668   1.14045
  Beta virt. eigenvalues --    1.14182   1.14696   1.15294   1.15437   1.15889
  Beta virt. eigenvalues --    1.16194   1.16694   1.16995   1.17385   1.18209
  Beta virt. eigenvalues --    1.18279   1.18507   1.19101   1.19561   1.20174
  Beta virt. eigenvalues --    1.20476   1.20782   1.21151   1.21239   1.21461
  Beta virt. eigenvalues --    1.22015   1.22889   1.22936   1.23027   1.23451
  Beta virt. eigenvalues --    1.24067   1.24225   1.25131   1.25357   1.25484
  Beta virt. eigenvalues --    1.25643   1.26290   1.26481   1.26923   1.27234
  Beta virt. eigenvalues --    1.27461   1.28413   1.28688   1.29011   1.29838
  Beta virt. eigenvalues --    1.30095   1.30428   1.30884   1.31263   1.31847
  Beta virt. eigenvalues --    1.32214   1.32471   1.33023   1.33447   1.33828
  Beta virt. eigenvalues --    1.34185   1.34513   1.34683   1.35029   1.35262
  Beta virt. eigenvalues --    1.35577   1.35973   1.36208   1.36756   1.36787
  Beta virt. eigenvalues --    1.37032   1.37847   1.37901   1.38310   1.38836
  Beta virt. eigenvalues --    1.39172   1.39823   1.40067   1.40194   1.40695
  Beta virt. eigenvalues --    1.40777   1.40993   1.41605   1.41954   1.42157
  Beta virt. eigenvalues --    1.42387   1.42710   1.43251   1.43541   1.43889
  Beta virt. eigenvalues --    1.44229   1.44692   1.44961   1.45069   1.45172
  Beta virt. eigenvalues --    1.45354   1.46104   1.46384   1.46786   1.47041
  Beta virt. eigenvalues --    1.47172   1.47832   1.47939   1.48241   1.48689
  Beta virt. eigenvalues --    1.48832   1.49061   1.49307   1.49642   1.49928
  Beta virt. eigenvalues --    1.50135   1.50481   1.50574   1.50862   1.50909
  Beta virt. eigenvalues --    1.51288   1.51539   1.51940   1.52114   1.52418
  Beta virt. eigenvalues --    1.52741   1.52834   1.53142   1.53182   1.53338
  Beta virt. eigenvalues --    1.53677   1.54088   1.54276   1.54481   1.54798
  Beta virt. eigenvalues --    1.55250   1.55446   1.55533   1.55943   1.56026
  Beta virt. eigenvalues --    1.56429   1.56444   1.56933   1.57350   1.57707
  Beta virt. eigenvalues --    1.58045   1.58381   1.58659   1.59077   1.59271
  Beta virt. eigenvalues --    1.59787   1.59891   1.60380   1.60676   1.60780
  Beta virt. eigenvalues --    1.60971   1.61263   1.61491   1.62189   1.62251
  Beta virt. eigenvalues --    1.62647   1.63156   1.63217   1.63764   1.64018
  Beta virt. eigenvalues --    1.64548   1.64951   1.65069   1.65480   1.65754
  Beta virt. eigenvalues --    1.66629   1.66871   1.67742   1.68019   1.68296
  Beta virt. eigenvalues --    1.68536   1.68937   1.69512   1.69760   1.70046
  Beta virt. eigenvalues --    1.70550   1.71058   1.71309   1.71532   1.72460
  Beta virt. eigenvalues --    1.72650   1.73325   1.73514   1.73642   1.74294
  Beta virt. eigenvalues --    1.74617   1.74919   1.75031   1.75599   1.76109
  Beta virt. eigenvalues --    1.76657   1.76892   1.77070   1.77290   1.77924
  Beta virt. eigenvalues --    1.77986   1.78342   1.78756   1.79112   1.79326
  Beta virt. eigenvalues --    1.80191   1.80470   1.80779   1.81292   1.81382
  Beta virt. eigenvalues --    1.81551   1.82223   1.82758   1.83452   1.83536
  Beta virt. eigenvalues --    1.83793   1.84099   1.84515   1.84685   1.85052
  Beta virt. eigenvalues --    1.85997   1.86048   1.86104   1.86696   1.87259
  Beta virt. eigenvalues --    1.87446   1.87665   1.88316   1.88678   1.88933
  Beta virt. eigenvalues --    1.89390   1.89755   1.90206   1.90447   1.90777
  Beta virt. eigenvalues --    1.91050   1.91434   1.91757   1.92120   1.92540
[...]
                                                    486(r),726(r),1134(r),465(r)
                                                    979(r),542(r),1753(r)
                                                    1084(r),1713(r),510(r)
                                                    803(r),770(r),1165(r),721(r)
                                                    987(r),238(r),1770(r)
                                                    1719(r),1476(r),1400(r)
                                                    281(r),354(r),1705(r),306(r)
                                                    335(r),909(r),1110(r),801(r)
                                                    1163(r),541(r),1731(r)
                                                    744(r),1406(r),1509(r)
                                                    361(r),277(r),1716(r),432(r)
                                                    1723(r),407(r),724(r),806(r)
                                                    908(r),1725(r),1699(r)
                                                    1427(r),284(r),1398(r)
                                                    1420(r),980(r),800(r)
                                                    1402(r),1662(r),513(r)
                                                    435(r),771(r),307(r),1353(r)
                                                    1136(r),1403(r),1763(r)
                                                    383(r),1188(r),365(r),437(r)
                                                    1401(r),1378(r),1783(r)
                                                    487(r),772(r),1382(r)
                                                    1747(r),308(r),1474(r)
                                                    1421(r),459(r),590(r)
                                                    1776(r),1405(r),1749(r)
                                                    1092(r),1349(r),1727(r)
                                                    285(r),1639(r),338(r)
                                                    1429(r),297(r),956(r),564(r)
                                                    1792(r),322(r),1137(r)
                                                    905(r),380(r),1700(r),388(r)
                                                    904(r),1006(r),1775(r)
                                                    731(r),727(r),1031(r),802(r)
                                                    989(r),1346(r),1795(r)
   193. LP*(   7)Fe  49                  0.10786     0.43416  1714(r),1747(r),1755(r)
                                                    1781(r),1719(r),1726(r)
                                                    1765(r),1748(r),1804(r)
                                                    1343(r),1770(r),1789(r)
                                                    1421(r),1370(r),1396(r)
                                                    1369(r),1731(r),1344(r)
                                                    328(r),1448(g),1706(r)
                                                    195(g),329(r),1422(r),330(r)
                                                    1345(r),1720(r),1787(r)
                                                    1705(r),1395(r),1711(r)
                                                    1753(r),1713(r),1782(r)
                                                    1474(r),1803(r),1708(r)
                                                    1371(r),1476(r),1397(r)
                                                    381(r),1767(r),194(g)
                                                    1772(r),1718(r),1402(r)
                                                    1722(r),458(r),303(r)
                                                    1160(r),900(r),407(r)
                                                    1423(r),1716(r),1724(r)
                                                    1733(r),796(r),356(r)
                                                    1759(r),1394(r),1784(r)
                                                    1473(r),1368(r),978(r)
                                                    1342(r),1477(r),797(r)
                                                    536(r),1083(r),408(r)
                                                    1347(r),1750(r),1728(r)
                                                    334(r),1348(r),1764(r)
                                                    1378(r),1420(r),276(r)
                                                    718(r),1426(r),1669(r)
                                                    980(r),1375(r),304(r),546(r)
                                                    1376(r),1401(r),1479(r)
                                                    1162(r),332(r),1082(r)
                                                    1161(r),335(r),380(r)
                                                    1406(r),1710(r),1723(r)
                                                    988(r),1725(r),719(r),355(r)
                                                    465(r),726(r),340(r),1771(r)
                                                    901(r),1428(r),1350(r)
                                                    432(r),1353(r),1709(r)
                                                    484(r),459(r),1703(r),510(r)
                                                    283(r),395(r),469(r),809(r)
                                                    731(r),1346(r),383(r),333(r)
                                                    1045(r),1668(r),539(r)
                                                    1429(r),1374(r)
   194. LP*(   8)Fe  49                  0.10676     0.44879  1804(r),1770(r),1753(r)
                                                    1748(r),1725(r),1787(r)
                                                    1422(r),1764(r),1342(r)
                                                    330(r),1772(r),1448(g)
                                                    1733(r),1344(r),1750(r)
                                                    1395(r),195(g),1370(r)
                                                    1421(r),1782(r),1711(r)
                                                    1394(r),1369(r),1368(r)
                                                    1705(r),1722(r),1765(r)
                                                    1723(r),1396(r),1717(r)
                                                    1716(r),1706(r),1726(r)
                                                    1423(r),328(r),1345(r)
                                                    1755(r),1371(r),381(r)
                                                    355(r),1082(r),1715(r)
                                                    192(g),193(g),1721(r),331(r)
                                                    1719(r),1728(r),1714(r)
                                                    303(r),1731(r),1473(r)
                                                    1402(r),1160(r),1349(r)
                                                    718(r),536(r),538(r),1397(r)
                                                    1084(r),1343(r),1803(r)
                                                    978(r),382(r),1376(r),434(r)
                                                    1754(r),1679(r),304(r)
                                                    1747(r),1429(r),354(r)
                                                    796(r),1428(r),1488(r)
                                                    1665(r),1425(r),1476(r)
                                                    1378(r),1420(r),1789(r)
                                                    459(r),357(r),900(r),1767(r)
                                                    1784(r),1475(r),1161(r)
                                                    979(r),1474(r),335(r)
                                                    1599(r),720(r),1400(r)
                                                    1709(r),340(r),1669(r)
                                                    1708(r),406(r),333(r),486(r)
                                                    719(r),1166(r),1479(r)
                                                    537(r),1083(r),458(r),546(r)
                                                    797(r),1406(r),332(r)
                                                    1480(r),731(r),1094(r)
                                                    802(r),1136(r),334(r),541(r)
                                                    1109(r),1374(r),901(r)
                                                    1375(r),1347(r),549(r)
                                                    1089(r),1783(r),1781(r)
                                                    1171(r),1165(r),1424(r)
                                                    289(r),1712(r),1170(r)
   195. LP*(   9)Fe  49                  0.07484     0.36890   
  1446. RY*(   1)Fe  49                  0.00521     1.02014   
  1447. RY*(   2)Fe  49                  0.00313     0.64750   
  1448. RY*(   3)Fe  49                  0.00180     0.83114   
  1449. RY*(   4)Fe  49                  0.00121     1.10429   
  1450. RY*(   5)Fe  49                  0.00086     0.99644   
  1451. RY*(   6)Fe  49                  0.00048     1.27247   
  1452. RY*(   7)Fe  49                  0.00032     1.32519   
  1453. RY*(   8)Fe  49                  0.00017     1.77478   
  1454. RY*(   9)Fe  49                  0.00014     2.14690   
  1455. RY*(  10)Fe  49                  0.00010     2.25291   
  1456. RY*(  11)Fe  49                  0.00007     2.15222   
  1457. RY*(  12)Fe  49                  0.00008     2.45309   
  1458. RY*(  13)Fe  49                  0.00005     2.65991   
  1459. RY*(  14)Fe  49                  0.00003     2.58356   
  1460. RY*(  15)Fe  49                  0.00003     2.87421   
  1461. RY*(  16)Fe  49                  0.00004     2.69242   
  1462. RY*(  17)Fe  49                  0.00002     2.39845   
  1463. RY*(  18)Fe  49                  0.00003     2.85076   
  1464. RY*(  19)Fe  49                  0.00003     3.67198   
  1465. RY*(  20)Fe  49                  0.00001     2.92605   
  1466. RY*(  21)Fe  49                  0.00001     2.50944   
  1467. RY*(  22)Fe  49                  0.00001     2.73792   
  1468. RY*(  23)Fe  49                  0.00001     3.70653   
  1469. RY*(  24)Fe  49                  0.00000     4.06257   
  1470. RY*(  25)Fe  49                  0.00001     3.91744   
  1471. RY*(  26)Fe  49                  0.00001     4.15437   
  1472. RY*(  27)Fe  49                  0.00001     4.18953   
       -------------------------------
              Total Lewis   11.89481  ( 92.5899%)
        Valence non-Lewis    0.93810  (  7.3022%)
        Rydberg non-Lewis    0.01386  (  0.1079%)
       -------------------------------
            Total unit  3   12.84677  (100.0000%)
           Charge unit  3    0.15323

 Molecular unit  4  (H2O)
   105. BD (   1) O  50 - H  83          0.99659    -0.85986  195(r),1447(r),192(r),193(r)
                                                    329(r),1375(r),1449(r)
                                                    1451(r),190(r),331(r)
                                                    1448(r),1343(r),1372(r)
                                                    1368(r)
   106. BD (   1) O  50 - H  84          0.95870    -0.91624  195(r),192(r),191(r),194(r)
                                                    1661(v),1344(r),1452(r)
                                                    1422(r),1733(r),1345(r)
                                                    1727(r),193(r),1368(r)
                                                    1423(r),1453(r),1446(r)
                                                    1420(r),1458(r),1782(r)
                                                    1394(r),1455(r),1421(r)
                                                    328(r),1726(r),1451(r)
                                                    330(r),1369(r),1461(r)
                                                    1789(r)
   164. CR (   1) O  50                  0.99991   -19.08353  195(r),1664(v),191(r)
                                                    1661(v),192(r),1450(r)
   196. LP (   1) O  50                  0.99411    -0.59943  195(r),194(r),191(r),1665(v)
                                                    1660(v),193(r),1664(v)
                                                    1449(r),192(r),1455(r)
                                                    1783(r),1420(r),1447(r)
                                                    1370(r),331(r),1401(r)
                                                    330(r)
   197. LP (   2) O  50                  0.94800    -0.49542  195(r),1804(g),192(r),191(r)
                                                    1666(v),1659(v),193(r)
                                                    194(r),1664(v),1448(r)
                                                    1455(r),190(r),1449(r)
                                                    1368(r),1420(r),1396(r)
                                                    1394(r),1766(r),1422(r)
                                                    1450(r),1427(r),1727(r)
                                                    331(r),1370(r),1453(r)
                                                    1344(r),1348(r),1369(r)
                                                    1765(r),1397(r),1423(r)
                                                    1395(r)
  1473. RY*(   1) O  50                  0.00141     0.76886   
  1474. RY*(   2) O  50                  0.00086     0.90355   
  1475. RY*(   3) O  50                  0.00016     1.17914   
  1476. RY*(   4) O  50                  0.00012     1.03680   
  1477. RY*(   5) O  50                  0.00003     3.21408   
  1478. RY*(   6) O  50                  0.00001     5.15247   
  1479. RY*(   7) O  50                  0.00001     2.94465   
  1480. RY*(   8) O  50                  0.00002     2.36971   
  1481. RY*(   9) O  50                  0.00000     3.06261   
  1482. RY*(  10) O  50                  0.00001     3.07396   
  1483. RY*(  11) O  50                  0.00000     6.30244   
  1484. RY*(  12) O  50                  0.00001     2.65831   
  1485. RY*(  13) O  50                  0.00000     6.47330   
  1486. RY*(  14) O  50                  0.00000    41.98840   
  1487. RY*(  15) O  50                  0.00000     6.47154   
  1488. RY*(  16) O  50                  0.00001     1.92177   
  1489. RY*(  17) O  50                  0.00000     6.25297   
  1490. RY*(  18) O  50                  0.00001     2.20621   
  1491. RY*(  19) O  50                  0.00000     6.53230   
  1492. RY*(  20) O  50                  0.00000     5.24571   
  1493. RY*(  21) O  50                  0.00000     5.60720   
  1494. RY*(  22) O  50                  0.00000     5.28281   
  1495. RY*(  23) O  50                  0.00000     5.29385   
  1496. RY*(  24) O  50                  0.00000     5.52872   
  1497. RY*(  25) O  50                  0.00000     5.19612   
  1498. RY*(  26) O  50                  0.00000     5.19333   
  1659. RY*(   1) H  83                  0.00050     1.93865   
  1660. RY*(   2) H  83                  0.00035     1.85920   
  1661. RY*(   3) H  83                  0.00023     2.13036   
  1662. RY*(   4) H  83                  0.00011     0.92467   
  1663. RY*(   5) H  83                  0.00000     2.86305   
  1664. RY*(   1) H  84                  0.00193     2.07291   
  1665. RY*(   2) H  84                  0.00056     2.15564   
  1666. RY*(   3) H  84                  0.00045     2.52867   
  1667. RY*(   4) H  84                  0.00023     2.84286   
  1668. RY*(   5) H  84                  0.00012     2.25959   
  1803. BD*(   1) O  50 - H  83          0.00127     0.35777   
  1804. BD*(   1) O  50 - H  84          0.03131     0.36832   
       -------------------------------
              Total Lewis    4.89730  ( 99.1955%)
        Valence non-Lewis    0.03258  (  0.6599%)
        Rydberg non-Lewis    0.00714  (  0.1446%)
       -------------------------------
            Total unit  4    4.93702  (100.0000%)
           Charge unit  4    0.06298
 1\1\GINC-NODE528\SP\UPBE1PBE\def2TZVP\C38H40Fe1N6O5(1+,2)\ZHARTOVSKA\2
 8-Aug-2022\0\\# PBE1PBE/def2TZVP empiricaldispersion=GD3BJ int=(grid=u
 ltrafine) geom=check pop=nbo\\1dj1_III_D\\1,2\C,0,-9.055,19.355,5.713\
 C,0,-8.547,18.576,4.528\N,0,-9.253,17.572001,3.919\C,0,-7.373,18.65099
 9,3.854\C,0,-8.555,17.063999,2.917\N,0,-7.401,17.709,2.86\C,0,-5.41,20
 .18,0.273\C,0,-7.842,16.195,-0.997\C,0,-6.091,14.063,2.926\C,0,-3.541,
 17.983999,4.002\C,0,-6.266,19.302,-0.452\C,0,-6.897,19.569,-1.65\C,0,-
 7.655,18.438999,-1.984\C,0,-7.408,17.535999,-0.971\C,0,-8.437,18.223,-
 3.274\C,0,-6.898,20.914,-2.407\C,0,-5.758,21.025,-3.396\C,0,-5.657,22.
 438,-4.\O,0,-6.538,22.849001,-4.751\O,0,-4.622,23.091,-3.858\C,0,-7.59
 1,15.216,-0.009\C,0,-8.235,13.973,0.038\C,0,-7.742,13.355,1.189\C,0,-6
 .848,14.265,1.767\C,0,-9.095,13.43,-1.09\C,0,-7.829,11.989,1.504\C,0,-
 9.00032663,11.27630291,1.21420912\C,0,-5.111,14.878,3.553\C,0,-4.336,1
 4.55,4.668\C,0,-3.476,15.651,4.835\C,0,-3.993,16.653999,4.019\C,0,-3.9
 89,13.136,5.201\C,0,-2.435,15.872,5.745\C,0,-2.23,15.291,7.054\C,0,-4.
 139,19.055,3.321\C,0,-3.665,20.365,3.394\C,0,-4.296,21.034,2.342\C,0,-
 4.85,20.032,1.545\C,0,-3.009,21.031,4.601\C,0,-4.125,22.528999,2.026\C
 ,0,-2.95,22.798,1.064\C,0,-2.863,24.261999,0.579\O,0,-2.363,24.466,-0.
 514\O,0,-3.62,25.069,1.097\N,0,-6.515,18.034,-0.09\N,0,-6.751,15.363,1
 .016\N,0,-4.861,16.131001,3.127\N,0,-4.791,18.843,2.172\Fe,0,-5.84,17.
 135,1.641\O,0,-4.208,16.702,0.39\H,0,-3.00066029,14.70064477,7.5039593
 5\H,0,-1.30772377,15.45165318,7.57216706\H,0,-1.68652416,16.56782211,5
 .4279582\H,0,-3.0576858,13.17159622,5.72662988\H,0,-4.76066588,12.8056
 7273,5.86456285\H,0,-3.90917584,12.45489798,4.3796425\H,0,-2.65560847,
 18.20106945,4.56223411\H,0,-2.06685739,21.44686415,4.31061352\H,0,-3.6
 4462929,21.80958801,4.96798244\H,0,-2.85574334,20.3033265,5.37035276\H
 ,0,-3.95172406,23.05793793,2.93983754\H,0,-5.02696847,22.89361565,1.58
 057035\H,0,-2.03693837,22.54974551,1.563588\H,0,-3.0562439,22.16194804
 ,0.21015567\H,0,-1.4078925,24.48375982,-0.60915385\H,0,-3.76778659,22.
 66291852,-3.95108969\H,0,-4.8403906,20.79368595,-2.89661357\H,0,-5.912
 31436,20.3193893,-4.18543057\H,0,-6.8178332,21.71020657,-1.69669839\H,
 0,-7.82371644,21.01283273,-2.93442882\H,0,-5.15795779,21.08908493,-0.2
 3191516\H,0,-7.87017484,17.60093213,-3.93478802\H,0,-9.36987651,17.749
 00497,-3.05046002\H,0,-8.62002568,19.16740038,-3.74251843\H,0,-8.41656
 203,15.8889601,-1.8461867\H,0,-8.5768475,12.63343543,-1.58183623\H,0,-
 10.01706091,13.06256809,-0.69037834\H,0,-9.2969542,14.21145765,-1.7924
 5174\H,0,-7.00094376,11.49252499,1.96523251\H,0,-8.97807344,10.2076561
 1,1.16523145\H,0,-9.91691343,11.80078972,1.04192388\H,0,-6.28299463,13
 .13638561,3.42542349\H,0,-3.35666867,17.14566088,0.39\H,0,-4.91006459,
 17.35675591,0.39\H,0,-6.56856975,19.32536,4.06143486\H,0,-10.16515878,
 17.26707671,4.19283853\H,0,-8.86766478,16.27265595,2.2682189\H,0,-8.35
 280792,20.12277596,5.96269252\H,0,-9.99775381,19.79908807,5.47030463\H
 ,0,-9.17528087,18.69647531,6.54773214\\Version=ES64L-G16RevA.03\State=
 2-A\HF=-3438.3831737\S2=1.203743\S2-1=0.\S2A=0.856772\RMSD=1.968e-09\D
 ipole=0.4455875,-2.7139483,2.0448431\Quadrupole=24.76314,-22.3099905,-
 2.4531494,37.8164587,-9.8112453,4.5119868\PG=C01 [X(C38H40Fe1N6O5)]\\@


 ONLY A FOOL KNOWS EVERYTHING.

               -- THE CHEMIST ANALYST, SEPTEMBER 1946
 Job cpu time:       5 days  9 hours 59 minutes 52.9 seconds.
 Elapsed time:       1 days  8 hours 34 minutes 17.3 seconds.
 File lengths (MBytes):  RWF=   2989 Int=      0 D2E=      0 Chk=    250 Scr=      1
 Normal termination of Gaussian 16 at Sun Aug 28 21:16:21 2022.
