 Entering Gaussian System, Link 0=g16
 Input=/net/homes/chemie/zhartovska/work/BioModel/Konrad/1fj0/1fj0.com
 Output=/net/homes/chemie/zhartovska/work/BioModel/Konrad/1fj0/1fj0.log
 Initial command:
 /afs/math/software/gaussian/g16.A03/g16/l1.exe "/scratch/zhartovska_gaussian.C76dCvN/Gau-14624.inp" -scrdir="/scratch/zhartovska_gaussian.C76dCvN/"
 Entering Link 1 = /afs/math/software/gaussian/g16.A03/g16/l1.exe PID=     14625.
  
 Copyright (c) 1988,1990,1992,1993,1995,1998,2003,2009,2016,
            Gaussian, Inc.  All Rights Reserved.
  
 This is part of the Gaussian(R) 16 program.  It is based on
 the Gaussian(R) 09 system (copyright 2009, Gaussian, Inc.),
 the Gaussian(R) 03 system (copyright 2003, Gaussian, Inc.),
 the Gaussian(R) 98 system (copyright 1998, Gaussian, Inc.),
 the Gaussian(R) 94 system (copyright 1995, Gaussian, Inc.),
 the Gaussian 92(TM) system (copyright 1992, Gaussian, Inc.),
 the Gaussian 90(TM) system (copyright 1990, Gaussian, Inc.),
 the Gaussian 88(TM) system (copyright 1988, Gaussian, Inc.),
 the Gaussian 86(TM) system (copyright 1986, Carnegie Mellon
 University), and the Gaussian 82(TM) system (copyright 1983,
 Carnegie Mellon University). Gaussian is a federally registered
 trademark of Gaussian, Inc.
  
 This software contains proprietary and confidential information,
 including trade secrets, belonging to Gaussian, Inc.
  
 This software is provided under written license and may be
 used, copied, transmitted, or stored only in accord with that
 written license.
  
 The following legend is applicable only to US Government
 contracts under FAR:
  
                    RESTRICTED RIGHTS LEGEND
  
 Use, reproduction and disclosure by the US Government is
 subject to restrictions as set forth in subparagraphs (a)
 and (c) of the Commercial Computer Software - Restricted
 Rights clause in FAR 52.227-19.
  
 Gaussian, Inc.
 340 Quinnipiac St., Bldg. 40, Wallingford CT 06492
  
  
 ---------------------------------------------------------------
 Warning -- This program may not be used in any manner that
 competes with the business of Gaussian, Inc. or will provide
 assistance to any competitor of Gaussian, Inc.  The licensee
 of this program is prohibited from giving any competitor of
 Gaussian, Inc. access to this program.  By using this program,
 the user acknowledges that Gaussian, Inc. is engaged in the
 business of creating and licensing software in the field of
 computational chemistry and represents and warrants to the
 licensee that it is not a competitor of Gaussian, Inc. and that
 it will not use this program in any manner prohibited above.
 ---------------------------------------------------------------
  

 Cite this work as:
 Gaussian 16, Revision A.03,
 M. J. Frisch, G. W. Trucks, H. B. Schlegel, G. E. Scuseria, 
 M. A. Robb, J. R. Cheeseman, G. Scalmani, V. Barone, 
 G. A. Petersson, H. Nakatsuji, X. Li, M. Caricato, A. V. Marenich, 
 J. Bloino, B. G. Janesko, R. Gomperts, B. Mennucci, H. P. Hratchian, 
 J. V. Ortiz, A. F. Izmaylov, J. L. Sonnenberg, D. Williams-Young, 
 F. Ding, F. Lipparini, F. Egidi, J. Goings, B. Peng, A. Petrone, 
 T. Henderson, D. Ranasinghe, V. G. Zakrzewski, J. Gao, N. Rega, 
 G. Zheng, W. Liang, M. Hada, M. Ehara, K. Toyota, R. Fukuda, 
 J. Hasegawa, M. Ishida, T. Nakajima, Y. Honda, O. Kitao, H. Nakai, 
 T. Vreven, K. Throssell, J. A. Montgomery, Jr., J. E. Peralta, 
 F. Ogliaro, M. J. Bearpark, J. J. Heyd, E. N. Brothers, K. N. Kudin, 
 V. N. Staroverov, T. A. Keith, R. Kobayashi, J. Normand, 
 K. Raghavachari, A. P. Rendell, J. C. Burant, S. S. Iyengar, 
 J. Tomasi, M. Cossi, J. M. Millam, M. Klene, C. Adamo, R. Cammi, 
 J. W. Ochterski, R. L. Martin, K. Morokuma, O. Farkas, 
 J. B. Foresman, and D. J. Fox, Gaussian, Inc., Wallingford CT, 2016.
 
 ******************************************
 Gaussian 16:  ES64L-G16RevA.03 25-Dec-2016
                19-Oct-2022 
 ******************************************
 %nprocs=12
 Will use up to   12 processors via shared memory.
 %mem=16GB
 %chk=1fj0_II_S.chk
 ---------------------------------------------------------------------
 # polar def2tzvp empiricaldispersion=gd3bj int=grid=ultrafine pbe1pbe
 ---------------------------------------------------------------------
 1/38=1,172=1/1;
 2/12=2,17=6,18=5,40=1/2;
 3/5=44,7=101,11=2,25=1,30=1,74=-13,75=-5,124=41/1,2,3;
 4//1;
 5/5=2,38=5,98=1/2;
 8/6=4,10=90,11=11/1;
 10/6=1,13=10/2;
 6/7=2,8=2,9=2,10=2,28=1/1;
 99/5=1,9=1/99;
 ---------
 1fj0_II_S
 ---------
 Symbolic Z-matrix:
 Charge =  0 Multiplicity = 1
 C                     15.934    20.177    30.131 
 C                     16.115    21.657    30.192 
 N                     16.947    22.33     29.303 
 C                     15.617    22.582    31.054 
 C                     16.933    23.623    29.613 
 N                     16.154    23.807    30.663 
 C                     14.555    29.432    30.641 
 C                     14.215    28.549    31.85 
 S                     15.699    27.711    32.465 
 C                     15.3      27.622    34.211 
 Fe                    15.897    25.57     31.547 
 C                     18.001    27.21     29.415 
 C                     18.561    24.83     33.604 
 C                     13.77     24.263    33.857 
 C                     13.31     26.013    29.374 
 N                     17.873    25.942    31.503 
 C                     18.562    26.684    30.549 
 C                     19.93     26.797    30.96 
 C                     20.084    26.124    32.108 
 C                     18.796    25.595    32.477 
 C                     21.359    25.963    32.964 
 C                     21.023    27.518    30.123 
 C                     21.716    26.427    29.272 
 C                     22.689    26.872    28.216 
 O                     23.075    28.059    28.25 
 O                     23.065    25.997    27.388 
 N                     16.116    24.734    33.36 
 C                     17.304    24.417    33.992 
 C                     17.028    23.628    35.178 
 C                     15.701    23.475    35.267 
 C                     15.123    24.188    34.151 
 C                     18.127    23.066    36.105 
 C                     14.898    22.759    36.361 
 C                     15.268    23.4      37.712 
 N                     13.924    25.244    31.603 
 C                     13.238    24.66     32.659 
 C                     11.853    24.535    32.281 
 C                     11.7      25.036    31.053 
 C                     13.011    25.465    30.599 
 C                     10.798    23.897    33.241 
 C                     10.445    25.053    30.163 
 C                     9.1462    25.70251   30.67568 
 N                     15.688    26.421    29.743 
 C                     14.552    26.501    28.994 
 C                     14.829    27.199    27.752 
 C                     16.121    27.522    27.768 
 C                     16.691    27.059    29.023 
 C                     13.737    27.441    26.679 
 C                     16.93     28.34     26.719 
 C                     17.031    29.812    27.238 
 C                     17.254    30.886    26.209 
 O                     17.643    30.522    25.102 
 O                     17.03     32.085    26.585 
 H                     10.47466   24.61354   29.18786 
 H                     9.31482   26.74381   30.85501 
 H                     8.37596   25.5871   29.94198 
 H                     8.84539   25.22791   31.58627 
 H                     11.20166   23.84498   34.23057 
 H                     9.91273   24.49795   33.24805 
 H                     10.55719   22.91119   32.90175 
 H                     13.08418   23.98769   34.63079 
 H                     16.20174   23.91417   37.619 
 H                     14.50559   24.09407   37.99817 
 H                     15.35367   22.63699   38.45724 
 H                     14.20483   21.9576   36.21209 
 H                     18.99444   23.68993   36.04881 
 H                     17.7674   23.04503   37.11255 
 H                     18.38092   22.0735   35.79619 
 H                     19.39766   24.54354   34.20636 
 H                     22.14632   26.55487   32.546 
 H                     21.16069   26.28818   33.96392 
 H                     21.6535   24.93439   32.97525 
 H                     18.63742   27.7888   28.77871 
 H                     14.10572   27.14007   25.72068 
 H                     12.86571   26.86922   26.92155 
 H                     13.48572   28.48078   26.65404 
 H                     12.5199   26.06764   28.65452 
 H                     17.9104   27.92472   26.61292 
 H                     16.42419   28.32168   25.77628 
 H                     16.12431   30.03942   27.75866 
 H                     17.83695   29.85786   27.94032 
 H                     17.76424   32.67512   26.77006 
 H                     24.01405   28.2584   28.25571 
 H                     22.23827   25.77576   29.94134 
 H                     20.95038   25.85671   28.78879 
 H                     21.73454   27.98383   30.77232 
 H                     20.5733   28.25012   29.48529 
 H                     16.07239   28.09815   34.77809 
 H                     14.36889   28.11794   34.38981 
 H                     15.22064   26.5968   34.50692 
 H                     15.48595   29.11569   30.21888 
 H                     13.78203   29.34392   29.90638 
 H                     14.63399   30.4518   30.95512 
 H                     13.80634   29.15897   32.62836 
 H                     13.4913   27.81646   31.55925 
 H                     14.94701   22.40521   31.86933 
 H                     17.4675   24.39135   29.0945 
 H                     17.46698   21.91249   28.55781 
 H                     16.75794   19.69662   30.61603 
 H                     15.02354   19.90837   30.62476 
 H                     15.89074   19.86481   29.10847 
 
 Stoichiometry    C41H48FeN6O4S
 Framework group  C1[X(C41H48FeN6O4S)]
 Deg. of freedom   297
 Full point group                 C1      NOp   1
 Largest Abelian subgroup         C1      NOp   1
 Largest concise Abelian subgroup C1      NOp   1
                         Standard orientation:                         
 ---------------------------------------------------------------------
 Center     Atomic      Atomic             Coordinates (Angstroms)
 Number     Number       Type             X           Y           Z
 ---------------------------------------------------------------------
      1          6           0        2.539931   -1.278184    5.085850
      2          6           0        1.743601   -0.939978    3.869973
      3          7           0        0.352443   -0.941403    3.882255
      4          6           0        2.133309   -0.639332    2.603317
      5          6           0       -0.077681   -0.632783    2.662464
      6          7           0        0.963003   -0.455113    1.869615
      7          6           0       -0.859115    2.787809   -2.642729
      8          6           0        0.544383    2.166189   -2.670075
      9         16           0        0.459986    0.386385   -2.341597
     10          6           0        1.849296   -0.173942   -3.327237
     11         26           0        0.811159   -0.067953   -0.075309
     12          6           0       -2.602792   -0.149521   -0.064561
     13          6           0        0.888636   -3.461654   -0.669057
     14          6           0        4.188172    0.060896   -0.459554
     15          6           0        0.760016    3.217479    0.826950
     16          7           0       -0.579282   -1.502263   -0.308370
     17          6           0       -1.960176   -1.333465   -0.314903
     18          6           0       -2.571809   -2.591331   -0.626017
     19          6           0       -1.605098   -3.506648   -0.775083
     20          6           0       -0.342203   -2.836626   -0.598694
     21          6           0       -1.744385   -5.001413   -1.136408
     22          6           0       -4.109400   -2.810727   -0.678349
     23          6           0       -4.527023   -3.330651    0.718075
     24          6           0       -5.996295   -3.442938    1.015596
     25          8           0       -6.788232   -3.357567    0.053999
     26          8           0       -6.316155   -3.644956    2.219533
     27          7           0        2.240884   -1.415431   -0.492459
     28          6           0        2.088096   -2.785525   -0.596191
     29          6           0        3.392625   -3.414696   -0.683610
     30          6           0        4.316536   -2.446832   -0.640186
     31          6           0        3.603636   -1.193190   -0.550421
     32          6           0        3.600413   -4.941865   -0.770519
     33          6           0        5.841517   -2.583307   -0.740735
     34          6           0        6.162599   -3.315116   -2.057681
     35          7           0        2.184827    1.374060    0.113843
     36          6           0        3.551012    1.208002   -0.067117
     37          6           0        4.199616    2.459289    0.233433
     38          6           0        3.266056    3.353099    0.568034
     39          6           0        1.984638    2.671320    0.523071
     40          6           0        5.751763    2.617138    0.146257
     41          6           0        3.442570    4.798450    1.065244
     42          6           0        4.224180    5.815760    0.213326
     43          7           0       -0.626196    1.272329    0.324640
     44          6           0       -0.462252    2.575486    0.689058
     45          6           0       -1.758196    3.199555    0.882864
     46          6           0       -2.678118    2.267607    0.639832
     47          6           0       -1.995077    1.039415    0.266610
     48          6           0       -1.905585    4.681215    1.313350
     49          6           0       -4.228242    2.412735    0.631944
     50          6           0       -4.682397    2.589499   -0.854275
     51          6           0       -5.995694    3.283586   -1.089952
     52          8           0       -6.751257    3.384018   -0.126466
     53          8           0       -6.212404    3.695924   -2.278297
     54          1           0        3.022254    5.096742    2.002931
     55          1           0        3.725768    5.954246   -0.723321
     56          1           0        4.275420    6.750407    0.731697
     57          1           0        5.214418    5.449458    0.039684
     58          1           0        6.163916    1.793946   -0.399074
     59          1           0        5.989632    3.531979   -0.355125
     60          1           0        6.164593    2.633577    1.133273
     61          1           0        5.223646    0.139000   -0.717613
     62          1           0        5.293551   -3.840458   -2.394834
     63          1           0        6.458395   -2.602323   -2.798851
     64          1           0        6.958874   -4.010882   -1.894114
     65          1           0        6.554580   -2.232773   -0.024099
     66          1           0        2.740386   -5.393897   -1.218761
     67          1           0        4.464435   -5.150940   -1.366046
     68          1           0        3.740444   -5.339308    0.213011
     69          1           0        0.911826   -4.524980   -0.786102
     70          1           0       -2.770292   -5.224279   -1.343161
     71          1           0       -1.151525   -5.216133   -2.000879
     72          1           0       -1.407860   -5.599632   -0.315564
     73          1           0       -3.670628   -0.149696   -0.132586
     74          1           0       -2.585720    4.747441    2.136716
     75          1           0       -0.950685    5.063741    1.607866
     76          1           0       -2.282099    5.255316    0.492652
     77          1           0        0.748615    4.220088    1.200509
     78          1           0       -4.676920    1.534149    1.046280
     79          1           0       -4.515140    3.270671    1.203377
     80          1           0       -3.922525    3.142157   -1.366195
     81          1           0       -4.740707    1.617374   -1.297527
     82          1           0       -6.823287    3.221620   -2.847031
     83          1           0       -7.443229   -4.044303   -0.090824
     84          1           0       -4.094466   -4.300888    0.846271
     85          1           0       -4.096243   -2.679250    1.449516
     86          1           0       -4.351233   -3.535776   -1.427162
     87          1           0       -4.604953   -1.886046   -0.888805
     88          1           0        1.513913   -0.904210   -4.033725
     89          1           0        2.275048    0.657692   -3.848792
     90          1           0        2.587917   -0.609649   -2.687317
     91          1           0       -1.527317    2.136952   -2.118524
     92          1           0       -0.820249    3.734570   -2.145703
     93          1           0       -1.207958    2.925150   -3.644899
     94          1           0        0.982435    2.326676   -3.633016
     95          1           0        1.151894    2.634088   -1.923817
     96          1           0        3.137283   -0.559983    2.241876
     97          1           0       -1.103063   -0.542826    2.370233
     98          1           0       -0.225573   -1.140588    4.673598
     99          1           0        2.591552   -2.341449    5.194030
    100          1           0        3.528644   -0.881372    4.986422
    101          1           0        2.070585   -0.854234    5.948915
 ---------------------------------------------------------------------
 Rotational constants (GHZ):           0.0645645           0.0444180           0.0335573
 Standard basis: def2TZVP (5D, 7F)
 There are  2218 symmetry adapted cartesian basis functions of A   symmetry.
 There are  1951 symmetry adapted basis functions of A   symmetry.
  1951 basis functions,  3156 primitive gaussians,  2218 cartesian basis functions
   205 alpha electrons      205 beta electrons
       nuclear repulsion energy      8950.5547870811 Hartrees.
 NAtoms=  101 NActive=  101 NUniq=  101 SFac= 1.00D+00 NAtFMM=   60 NAOKFM=T Big=T
 Integral buffers will be    131072 words long.
 Raffenetti 2 integral format.
 Two-electron integral symmetry is turned on.
 Nuclear repulsion after empirical dispersion term =     8950.4038909673 Hartrees.
 One-electron integrals computed using PRISM.
   1 Symmetry operations used in ECPInt.
 ECPInt:  NShTT=  305371 NPrTT=  941867 LenC2=  223486 LenP2D=  445847.
 LDataN:  DoStor=T MaxTD1= 6 Len=  172
 NBasis=  1951 RedAO= T EigKep=  2.88D-06  NBF=  1951
 NBsUse=  1951 1.00D-06 EigRej= -1.00D+00 NBFU=  1951
 ExpMin= 4.20D-02 ExpMax= 3.01D+05 ExpMxC= 2.91D+03 IAcc=3 IRadAn=         5 AccDes= 0.00D+00
 Harris functional with IExCor= 1009 and IRadAn=       5 diagonalized for initial guess.
 HarFok:  IExCor= 1009 AccDes= 0.00D+00 IRadAn=         5 IDoV= 1 UseB2=F ITyADJ=14
 ICtDFT=  3500011 ScaDFX=  1.000000  1.000000  1.000000  1.000000
 FoFCou: FMM=F IPFlag=           0 FMFlag=      100000 FMFlg1=        2001
         NFxFlg=           0 DoJE=T BraDBF=F KetDBF=T FulRan=T
         wScrn=  0.000000 ICntrl=       500 IOpCl=  0 I1Cent=   200000004 NGrid=           0
         NMat0=    1 NMatS0=      1 NMatT0=    0 NMatD0=    1 NMtDS0=    0 NMtDT0=    0
 Petite list used in FoFCou.
 Requested convergence on RMS density matrix=1.00D-08 within 128 cycles.
 Requested convergence on MAX density matrix=1.00D-06.
 Requested convergence on             energy=1.00D-06.
 No special actions if energy rises.
 EnCoef did   100 forward-backward iterations
 EnCoef did     5 forward-backward iterations
 EnCoef did     2 forward-backward iterations
 EnCoef did     2 forward-backward iterations
 EnCoef did     2 forward-backward iterations
 EnCoef did    35 forward-backward iterations
 Rare condition: small coef for last iteration:  0.000D+00
 Rare condition: small coef for last iteration:  0.000D+00
 EnCoef did   100 forward-backward iterations
 Rare condition: small coef for last iteration:  0.000D+00
 EnCoef did     8 forward-backward iterations
 Restarting incremental Fock formation.
 SCF Done:  E(RPBE1PBE) =  -3880.52700252     A.U. after   30 cycles
            NFock= 30  Conv=0.37D-08     -V/T= 2.0032
 DoSCS=F DFT=T ScalE2(SS,OS)=  1.000000  1.000000
 Range of M.O.s used for correlation:     1  1951
 NBasis=  1951 NAE=   205 NBE=   205 NFC=     0 NFV=     0
 NROrb=   1951 NOA=   205 NOB=   205 NVA=  1746 NVB=  1746

 **** Warning!!: The largest alpha MO coefficient is  0.50293193D+02


 **** Warning!!: The smallest alpha delta epsilon is  0.24451992D-01

          Differentiating once with respect to electric field.
                with respect to dipole field.
          Electric field/nuclear overlap derivatives assumed to be zero.
          There are     3 degrees of freedom in the 1st order CPHF.  IDoFFX=0 NUNeed=     3.
      3 vectors produced by pass  0 Test12= 1.19D-11 3.33D-08 XBig12= 2.39D+04 9.15D+01.
 AX will form     3 AO Fock derivatives at one time.
      3 vectors produced by pass  1 Test12= 1.19D-11 3.33D-08 XBig12= 1.78D+04 4.64D+01.
      3 vectors produced by pass  2 Test12= 1.19D-11 3.33D-08 XBig12= 2.19D+04 5.56D+01.
      3 vectors produced by pass  3 Test12= 1.19D-11 3.33D-08 XBig12= 3.67D+04 3.70D+01.
      3 vectors produced by pass  4 Test12= 1.19D-11 3.33D-08 XBig12= 3.07D+04 4.61D+01.
      3 vectors produced by pass  5 Test12= 1.19D-11 3.33D-08 XBig12= 1.36D+04 3.03D+01.
      3 vectors produced by pass  6 Test12= 1.19D-11 3.33D-08 XBig12= 5.54D+03 1.92D+01.
      3 vectors produced by pass  7 Test12= 1.19D-11 3.33D-08 XBig12= 2.96D+03 1.15D+01.
      3 vectors produced by pass  8 Test12= 1.19D-11 3.33D-08 XBig12= 1.66D+03 9.52D+00.
      3 vectors produced by pass  9 Test12= 1.19D-11 3.33D-08 XBig12= 9.22D+02 5.11D+00.
      3 vectors produced by pass 10 Test12= 1.19D-11 3.33D-08 XBig12= 2.73D+02 4.01D+00.
      3 vectors produced by pass 11 Test12= 1.19D-11 3.33D-08 XBig12= 1.48D+02 2.11D+00.
      3 vectors produced by pass 12 Test12= 1.19D-11 3.33D-08 XBig12= 8.44D+01 1.62D+00.
      3 vectors produced by pass 13 Test12= 1.19D-11 3.33D-08 XBig12= 3.16D+01 9.38D-01.
      3 vectors produced by pass 14 Test12= 1.19D-11 3.33D-08 XBig12= 1.16D+01 5.73D-01.
      3 vectors produced by pass 15 Test12= 1.19D-11 3.33D-08 XBig12= 4.71D+00 3.52D-01.
      3 vectors produced by pass 16 Test12= 1.19D-11 3.33D-08 XBig12= 2.00D+00 2.79D-01.
      3 vectors produced by pass 17 Test12= 1.19D-11 3.33D-08 XBig12= 8.63D-01 1.79D-01.
      3 vectors produced by pass 18 Test12= 1.19D-11 3.33D-08 XBig12= 2.64D-01 8.70D-02.
      3 vectors produced by pass 19 Test12= 1.19D-11 3.33D-08 XBig12= 8.34D-02 6.35D-02.
      3 vectors produced by pass 20 Test12= 1.19D-11 3.33D-08 XBig12= 2.60D-02 3.70D-02.
      3 vectors produced by pass 21 Test12= 1.19D-11 3.33D-08 XBig12= 5.68D-03 1.38D-02.
      3 vectors produced by pass 22 Test12= 1.19D-11 3.33D-08 XBig12= 1.54D-03 7.24D-03.
      3 vectors produced by pass 23 Test12= 1.19D-11 3.33D-08 XBig12= 3.34D-04 2.92D-03.
      3 vectors produced by pass 24 Test12= 1.19D-11 3.33D-08 XBig12= 5.73D-05 1.11D-03.
      3 vectors produced by pass 25 Test12= 1.19D-11 3.33D-08 XBig12= 1.67D-05 5.65D-04.
      3 vectors produced by pass 26 Test12= 1.19D-11 3.33D-08 XBig12= 3.34D-06 2.90D-04.
      3 vectors produced by pass 27 Test12= 1.19D-11 3.33D-08 XBig12= 8.12D-07 1.85D-04.
      3 vectors produced by pass 28 Test12= 1.19D-11 3.33D-08 XBig12= 1.82D-07 7.56D-05.
      3 vectors produced by pass 29 Test12= 1.19D-11 3.33D-08 XBig12= 3.97D-08 3.72D-05.
      3 vectors produced by pass 30 Test12= 1.19D-11 3.33D-08 XBig12= 7.76D-09 1.17D-05.
      3 vectors produced by pass 31 Test12= 1.19D-11 3.33D-08 XBig12= 1.40D-09 5.35D-06.
      3 vectors produced by pass 32 Test12= 1.19D-11 3.33D-08 XBig12= 2.05D-10 1.96D-06.
      2 vectors produced by pass 33 Test12= 1.19D-11 3.33D-08 XBig12= 3.59D-11 8.22D-07.
      2 vectors produced by pass 34 Test12= 1.19D-11 3.33D-08 XBig12= 8.04D-12 3.23D-07.
      2 vectors produced by pass 35 Test12= 1.19D-11 3.33D-08 XBig12= 1.14D-12 1.59D-07.
      2 vectors produced by pass 36 Test12= 1.19D-11 3.33D-08 XBig12= 1.91D-13 6.48D-08.
 InvSVY:  IOpt=1 It=  1 EMax= 3.55D-14
 Solved reduced A of dimension   107 with     3 vectors.
 Isotropic polarizability for W=    0.000000      790.11 Bohr**3.
 End of Minotr F.D. properties file   721 does not exist.
 End of Minotr F.D. properties file   722 does not exist.
 End of Minotr F.D. properties file   788 does not exist.
 Hyperfine terms turned off by default for NAtoms > 100.

 **********************************************************************

            Population analysis using the SCF density.

 **********************************************************************

 Orbital symmetries:
       Occupied  (A) (A) (A) (A) (A) (A) (A) (A) (A) (A) (A) (A)
                 (A) (A) (A) (A) (A) (A) (A) (A) (A) (A) (A) (A)
                 (A) (A) (A) (A) (A) (A) (A) (A) (A) (A) (A) (A)
                 (A) (A) (A) (A) (A) (A) (A) (A) (A) (A) (A) (A)
                 (A) (A) (A) (A) (A) (A) (A) (A) (A) (A) (A) (A)
                 (A) (A) (A) (A) (A) (A) (A) (A) (A) (A) (A) (A)
                 (A) (A) (A) (A) (A) (A) (A) (A) (A) (A) (A) (A)
                 (A) (A) (A) (A) (A) (A) (A) (A) (A) (A) (A) (A)
                 (A) (A) (A) (A) (A) (A) (A) (A) (A) (A) (A) (A)
                 (A) (A) (A) (A) (A) (A) (A) (A) (A) (A) (A) (A)
                 (A) (A) (A) (A) (A) (A) (A) (A) (A) (A) (A) (A)
                 (A) (A) (A) (A) (A) (A) (A) (A) (A) (A) (A) (A)
                 (A) (A) (A) (A) (A) (A) (A) (A) (A) (A) (A) (A)
                 (A) (A) (A) (A) (A) (A) (A) (A) (A) (A) (A) (A)
                 (A) (A) (A) (A) (A) (A) (A) (A) (A) (A) (A) (A)
                 (A) (A) (A) (A) (A) (A) (A) (A) (A) (A) (A) (A)
                 (A) (A) (A) (A) (A) (A) (A) (A) (A) (A) (A) (A)
                 (A)
       Virtual   (A) (A) (A) (A) (A) (A) (A) (A) (A) (A) (A) (A)
                 (A) (A) (A) (A) (A) (A) (A) (A) (A) (A) (A) (A)
                 (A) (A) (A) (A) (A) (A) (A) (A) (A) (A) (A) (A)
                 (A) (A) (A) (A) (A) (A) (A) (A) (A) (A) (A) (A)
                 (A) (A) (A) (A) (A) (A) (A) (A) (A) (A) (A) (A)
                 (A) (A) (A) (A) (A) (A) (A) (A) (A) (A) (A) (A)
                 (A) (A) (A) (A) (A) (A) (A) (A) (A) (A) (A) (A)
                 (A) (A) (A) (A) (A) (A) (A) (A) (A) (A) (A) (A)
                 (A) (A) (A) (A) (A) (A) (A) (A) (A) (A) (A) (A)
                 (A) (A) (A) (A) (A) (A) (A) (A) (A) (A) (A) (A)
                 (A) (A) (A) (A) (A) (A) (A) (A) (A) (A) (A) (A)
                 (A) (A) (A) (A) (A) (A) (A) (A) (A) (A) (A) (A)
                 (A) (A) (A) (A) (A) (A) (A) (A) (A) (A) (A) (A)
                 (A) (A) (A) (A) (A) (A) (A) (A) (A) (A) (A) (A)
                 (A) (A) (A) (A) (A) (A) (A) (A) (A) (A) (A) (A)
                 (A) (A) (A) (A) (A) (A) (A) (A) (A) (A) (A) (A)
                 (A) (A) (A) (A) (A) (A) (A) (A) (A) (A) (A) (A)
                 (A) (A) (A) (A) (A) (A) (A) (A) (A) (A) (A) (A)
                 (A) (A) (A) (A) (A) (A) (A) (A) (A) (A) (A) (A)
                 (A) (A) (A) (A) (A) (A) (A) (A) (A) (A) (A) (A)
                 (A) (A) (A) (A) (A) (A) (A) (A) (A) (A) (A) (A)
                 (A) (A) (A) (A) (A) (A) (A) (A) (A) (A) (A) (A)
                 (A) (A) (A) (A) (A) (A) (A) (A) (A) (A) (A) (A)
                 (A) (A) (A) (A) (A) (A) (A) (A) (A) (A) (A) (A)
                 (A) (A) (A) (A) (A) (A) (A) (A) (A) (A) (A) (A)
                 (A) (A) (A) (A) (A) (A) (A) (A) (A) (A) (A) (A)
                 (A) (A) (A) (A) (A) (A) (A) (A) (A) (A) (A) (A)
                 (A) (A) (A) (A) (A) (A) (A) (A) (A) (A) (A) (A)
                 (A) (A) (A) (A) (A) (A) (A) (A) (A) (A) (A) (A)
                 (A) (A) (A) (A) (A) (A) (A) (A) (A) (A) (A) (A)
                 (A) (A) (A) (A) (A) (A) (A) (A) (A) (A) (A) (A)
                 (A) (A) (A) (A) (A) (A) (A) (A) (A) (A) (A) (A)
                 (A) (A) (A) (A) (A) (A) (A) (A) (A) (A) (A) (A)
                 (A) (A) (A) (A) (A) (A) (A) (A) (A) (A) (A) (A)
                 (A) (A) (A) (A) (A) (A) (A) (A) (A) (A) (A) (A)
                 (A) (A) (A) (A) (A) (A) (A) (A) (A) (A) (A) (A)
                 (A) (A) (A) (A) (A) (A) (A) (A) (A) (A) (A) (A)
                 (A) (A) (A) (A) (A) (A) (A) (A) (A) (A) (A) (A)
                 (A) (A) (A) (A) (A) (A) (A) (A) (A) (A) (A) (A)
                 (A) (A) (A) (A) (A) (A) (A) (A) (A) (A) (A) (A)
                 (A) (A) (A) (A) (A) (A) (A) (A) (A) (A) (A) (A)
                 (A) (A) (A) (A) (A) (A) (A) (A) (A) (A) (A) (A)
                 (A) (A) (A) (A) (A) (A) (A) (A) (A) (A) (A) (A)
                 (A) (A) (A) (A) (A) (A) (A) (A) (A) (A) (A) (A)
                 (A) (A) (A) (A) (A) (A) (A) (A) (A) (A) (A) (A)
                 (A) (A) (A) (A) (A) (A) (A) (A) (A) (A) (A) (A)
                 (A) (A) (A) (A) (A) (A) (A) (A) (A) (A) (A) (A)
                 (A) (A) (A) (A) (A) (A) (A) (A) (A) (A) (A) (A)
                 (A) (A) (A) (A) (A) (A) (A) (A) (A) (A) (A) (A)
                 (A) (A) (A) (A) (A) (A) (A) (A) (A) (A) (A) (A)
                 (A) (A) (A) (A) (A) (A) (A) (A) (A) (A) (A) (A)
                 (A) (A) (A) (A) (A) (A) (A) (A) (A) (A) (A) (A)
                 (A) (A) (A) (A) (A) (A) (A) (A) (A) (A) (A) (A)
                 (A) (A) (A) (A) (A) (A) (A) (A) (A) (A) (A) (A)
                 (A) (A) (A) (A) (A) (A) (A) (A) (A) (A) (A) (A)
                 (A) (A) (A) (A) (A) (A) (A) (A) (A) (A) (A) (A)
                 (A) (A) (A) (A) (A) (A) (A) (A) (A) (A) (A) (A)
                 (A) (A) (A) (A) (A) (A) (A) (A) (A) (A) (A) (A)
                 (A) (A) (A) (A) (A) (A) (A) (A) (A) (A) (A) (A)
                 (A) (A) (A) (A) (A) (A) (A) (A) (A) (A) (A) (A)
                 (A) (A) (A) (A) (A) (A) (A) (A) (A) (A) (A) (A)
                 (A) (A) (A) (A) (A) (A) (A) (A) (A) (A) (A) (A)
                 (A) (A) (A) (A) (A) (A) (A) (A) (A) (A) (A) (A)
                 (A) (A) (A) (A) (A) (A) (A) (A) (A) (A) (A) (A)
                 (A) (A) (A) (A) (A) (A) (A) (A) (A) (A) (A) (A)
                 (A) (A) (A) (A) (A) (A) (A) (A) (A) (A) (A) (A)
                 (A) (A) (A) (A) (A) (A) (A) (A) (A) (A) (A) (A)
                 (A) (A) (A) (A) (A) (A) (A) (A) (A) (A) (A) (A)
                 (A) (A) (A) (A) (A) (A) (A) (A) (A) (A) (A) (A)
                 (A) (A) (A) (A) (A) (A) (A) (A) (A) (A) (A) (A)
                 (A) (A) (A) (A) (A) (A) (A) (A) (A) (A) (A) (A)
                 (A) (A) (A) (A) (A) (A) (A) (A) (A) (A) (A) (A)
                 (A) (A) (A) (A) (A) (A) (A) (A) (A) (A) (A) (A)
                 (A) (A) (A) (A) (A) (A) (A) (A) (A) (A) (A) (A)
                 (A) (A) (A) (A) (A) (A) (A) (A) (A) (A) (A) (A)
                 (A) (A) (A) (A) (A) (A) (A) (A) (A) (A) (A) (A)
                 (A) (A) (A) (A) (A) (A) (A) (A) (A) (A) (A) (A)
                 (A) (A) (A) (A) (A) (A) (A) (A) (A) (A) (A) (A)
                 (A) (A) (A) (A) (A) (A) (A) (A) (A) (A) (A) (A)
                 (A) (A) (A) (A) (A) (A) (A) (A) (A) (A) (A) (A)
                 (A) (A) (A) (A) (A) (A) (A) (A) (A) (A) (A) (A)
                 (A) (A) (A) (A) (A) (A) (A) (A) (A) (A) (A) (A)
                 (A) (A) (A) (A) (A) (A) (A) (A) (A) (A) (A) (A)
                 (A) (A) (A) (A) (A) (A) (A) (A) (A) (A) (A) (A)
                 (A) (A) (A) (A) (A) (A) (A) (A) (A) (A) (A) (A)
                 (A) (A) (A) (A) (A) (A) (A) (A) (A) (A) (A) (A)
                 (A) (A) (A) (A) (A) (A) (A) (A) (A) (A) (A) (A)
                 (A) (A) (A) (A) (A) (A) (A) (A) (A) (A) (A) (A)
                 (A) (A) (A) (A) (A) (A) (A) (A) (A) (A) (A) (A)
                 (A) (A) (A) (A) (A) (A) (A) (A) (A) (A) (A) (A)
                 (A) (A) (A) (A) (A) (A) (A) (A) (A) (A) (A) (A)
                 (A) (A) (A) (A) (A) (A) (A) (A) (A) (A) (A) (A)
                 (A) (A) (A) (A) (A) (A) (A) (A) (A) (A) (A) (A)
                 (A) (A) (A) (A) (A) (A) (A) (A) (A) (A) (A) (A)
                 (A) (A) (A) (A) (A) (A) (A) (A) (A) (A) (A) (A)
                 (A) (A) (A) (A) (A) (A) (A) (A) (A) (A) (A) (A)
                 (A) (A) (A) (A) (A) (A) (A) (A) (A) (A) (A) (A)
                 (A) (A) (A) (A) (A) (A) (A) (A) (A) (A) (A) (A)
                 (A) (A) (A) (A) (A) (A) (A) (A) (A) (A) (A) (A)
                 (A) (A) (A) (A) (A) (A) (A) (A) (A) (A) (A) (A)
                 (A) (A) (A) (A) (A) (A) (A) (A) (A) (A) (A) (A)
                 (A) (A) (A) (A) (A) (A) (A) (A) (A) (A) (A) (A)
                 (A) (A) (A) (A) (A) (A) (A) (A) (A) (A) (A) (A)
                 (A) (A) (A) (A) (A) (A) (A) (A) (A) (A) (A) (A)
                 (A) (A) (A) (A) (A) (A) (A) (A) (A) (A) (A) (A)
                 (A) (A) (A) (A) (A) (A) (A) (A) (A) (A) (A) (A)
                 (A) (A) (A) (A) (A) (A) (A) (A) (A) (A) (A) (A)
                 (A) (A) (A) (A) (A) (A) (A) (A) (A) (A) (A) (A)
                 (A) (A) (A) (A) (A) (A) (A) (A) (A) (A) (A) (A)
                 (A) (A) (A) (A) (A) (A) (A) (A) (A) (A) (A) (A)
                 (A) (A) (A) (A) (A) (A) (A) (A) (A) (A) (A) (A)
                 (A) (A) (A) (A) (A) (A) (A) (A) (A) (A) (A) (A)
                 (A) (A) (A) (A) (A) (A) (A) (A) (A) (A) (A) (A)
                 (A) (A) (A) (A) (A) (A) (A) (A) (A) (A) (A) (A)
                 (A) (A) (A) (A) (A) (A) (A) (A) (A) (A) (A) (A)
                 (A) (A) (A) (A) (A) (A) (A) (A) (A) (A) (A) (A)
                 (A) (A) (A) (A) (A) (A) (A) (A) (A) (A) (A) (A)
                 (A) (A) (A) (A) (A) (A) (A) (A) (A) (A) (A) (A)
                 (A) (A) (A) (A) (A) (A) (A) (A) (A) (A) (A) (A)
                 (A) (A) (A) (A) (A) (A) (A) (A) (A) (A) (A) (A)
                 (A) (A) (A) (A) (A) (A) (A) (A) (A) (A) (A) (A)
                 (A) (A) (A) (A) (A) (A) (A) (A) (A) (A) (A) (A)
                 (A) (A) (A) (A) (A) (A) (A) (A) (A) (A) (A) (A)
                 (A) (A) (A) (A) (A) (A) (A) (A) (A) (A) (A) (A)
                 (A) (A) (A) (A) (A) (A) (A) (A) (A) (A) (A) (A)
                 (A) (A) (A) (A) (A) (A) (A) (A) (A) (A) (A) (A)
                 (A) (A) (A) (A) (A) (A) (A) (A) (A) (A) (A) (A)
                 (A) (A) (A) (A) (A) (A) (A) (A) (A) (A) (A) (A)
                 (A) (A) (A) (A) (A) (A) (A) (A) (A) (A) (A) (A)
                 (A) (A) (A) (A) (A) (A) (A) (A) (A) (A) (A) (A)
                 (A) (A) (A) (A) (A) (A) (A) (A) (A) (A) (A) (A)
                 (A) (A) (A) (A) (A) (A) (A) (A) (A) (A) (A) (A)
                 (A) (A) (A) (A) (A) (A) (A) (A) (A) (A) (A) (A)
                 (A) (A) (A) (A) (A) (A) (A) (A) (A) (A) (A) (A)
                 (A) (A) (A) (A) (A) (A) (A) (A) (A) (A) (A) (A)
                 (A) (A) (A) (A) (A) (A) (A) (A) (A) (A) (A) (A)
                 (A) (A) (A) (A) (A) (A) (A) (A) (A) (A) (A) (A)
                 (A) (A) (A) (A) (A) (A) (A) (A) (A) (A) (A) (A)
                 (A) (A) (A) (A) (A) (A) (A) (A) (A) (A) (A) (A)
                 (A) (A) (A) (A) (A) (A) (A) (A) (A) (A) (A) (A)
                 (A) (A) (A) (A) (A) (A) (A) (A) (A) (A) (A) (A)
                 (A) (A) (A) (A) (A) (A) (A) (A) (A) (A) (A) (A)
                 (A) (A) (A) (A) (A) (A) (A) (A) (A) (A) (A) (A)
                 (A) (A) (A) (A) (A) (A) (A) (A) (A) (A) (A) (A)
                 (A) (A) (A) (A) (A) (A) (A) (A) (A) (A) (A) (A)
                 (A) (A) (A) (A) (A) (A)
 The electronic state is 1-A.
 Alpha  occ. eigenvalues -- -256.30913 -89.01591 -30.07885 -25.90694 -25.90378
 Alpha  occ. eigenvalues --  -25.90250 -19.26825 -19.25461 -19.18631 -19.17935
 Alpha  occ. eigenvalues --  -14.44561 -14.39095 -14.37034 -14.36737 -14.36668
 Alpha  occ. eigenvalues --  -14.36213 -10.35464 -10.35213 -10.27866 -10.26186
 Alpha  occ. eigenvalues --  -10.24286 -10.24213 -10.24096 -10.24069 -10.23963
 Alpha  occ. eigenvalues --  -10.23954 -10.23945 -10.23855 -10.23808 -10.23657
 Alpha  occ. eigenvalues --  -10.23657 -10.22977 -10.22946 -10.22850 -10.22796
 Alpha  occ. eigenvalues --  -10.22562 -10.22296 -10.22060 -10.21814 -10.21810
 Alpha  occ. eigenvalues --  -10.21756 -10.21752 -10.21654 -10.21572 -10.21525
 Alpha  occ. eigenvalues --  -10.21517 -10.21507 -10.21106 -10.21092 -10.21087
 Alpha  occ. eigenvalues --  -10.21043 -10.20966 -10.20627 -10.20612 -10.20606
 Alpha  occ. eigenvalues --  -10.20487 -10.19606  -7.99401  -5.93059  -5.92755
 Alpha  occ. eigenvalues --   -5.92234  -3.42296  -2.18277  -2.17644  -2.17467
 Alpha  occ. eigenvalues --   -1.17374  -1.15594  -1.05845  -1.04161  -1.02231
 Alpha  occ. eigenvalues --   -0.97315  -0.96299  -0.96258  -0.95244  -0.90538
 Alpha  occ. eigenvalues --   -0.83589  -0.83069  -0.83034  -0.82382  -0.81400
 Alpha  occ. eigenvalues --   -0.81300  -0.80772  -0.80643  -0.80127  -0.78729
 Alpha  occ. eigenvalues --   -0.78235  -0.76164  -0.75847  -0.75510  -0.75246
 Alpha  occ. eigenvalues --   -0.73786  -0.72711  -0.72519  -0.71659  -0.71009
 Alpha  occ. eigenvalues --   -0.69968  -0.69457  -0.68854  -0.66374  -0.66169
 Alpha  occ. eigenvalues --   -0.65550  -0.65041  -0.64508  -0.64301  -0.62157
 Alpha  occ. eigenvalues --   -0.62032  -0.61699  -0.60054  -0.58932  -0.57407
 Alpha  occ. eigenvalues --   -0.56505  -0.55544  -0.54407  -0.54110  -0.53169
 Alpha  occ. eigenvalues --   -0.52311  -0.52160  -0.51966  -0.51707  -0.51242
 Alpha  occ. eigenvalues --   -0.50817  -0.50342  -0.49029  -0.48574  -0.48341
 Alpha  occ. eigenvalues --   -0.48177  -0.48088  -0.47838  -0.47780  -0.47593
 Alpha  occ. eigenvalues --   -0.46166  -0.45702  -0.45323  -0.45307  -0.44773
 Alpha  occ. eigenvalues --   -0.44501  -0.44227  -0.44135  -0.43902  -0.43838
 Alpha  occ. eigenvalues --   -0.43623  -0.43466  -0.43300  -0.43206  -0.43116
 Alpha  occ. eigenvalues --   -0.42949  -0.42661  -0.42445  -0.42306  -0.42144
 Alpha  occ. eigenvalues --   -0.41410  -0.41271  -0.41126  -0.40945  -0.40500
 Alpha  occ. eigenvalues --   -0.40370  -0.40145  -0.39654  -0.39411  -0.39269
 Alpha  occ. eigenvalues --   -0.39031  -0.38783  -0.38478  -0.38411  -0.38121
 Alpha  occ. eigenvalues --   -0.37936  -0.37533  -0.37447  -0.37432  -0.37149
 Alpha  occ. eigenvalues --   -0.36703  -0.36629  -0.36275  -0.36059  -0.35818
 Alpha  occ. eigenvalues --   -0.35073  -0.34724  -0.34585  -0.34257  -0.33691
 Alpha  occ. eigenvalues --   -0.33381  -0.33178  -0.32715  -0.32629  -0.32160
 Alpha  occ. eigenvalues --   -0.31892  -0.31380  -0.29806  -0.29449  -0.28267
 Alpha  occ. eigenvalues --   -0.28081  -0.27875  -0.27533  -0.26085  -0.25397
 Alpha  occ. eigenvalues --   -0.24483  -0.24253  -0.23851  -0.23210  -0.19993
 Alpha  occ. eigenvalues --   -0.18945  -0.18664  -0.18576  -0.18229  -0.13578
 Alpha virt. eigenvalues --   -0.11133  -0.06163  -0.06060  -0.01279  -0.01079
 Alpha virt. eigenvalues --    0.00069   0.01982   0.02235   0.02820   0.03139
 Alpha virt. eigenvalues --    0.03521   0.03872   0.04232   0.04667   0.04799
 Alpha virt. eigenvalues --    0.05133   0.05253   0.05662   0.06031   0.06232
 Alpha virt. eigenvalues --    0.06403   0.06507   0.07248   0.07266   0.07640
 Alpha virt. eigenvalues --    0.07811   0.08136   0.08203   0.08450   0.08787
 Alpha virt. eigenvalues --    0.09261   0.09443   0.09683   0.10062   0.10456
 Alpha virt. eigenvalues --    0.10635   0.10748   0.11162   0.11281   0.11687
 Alpha virt. eigenvalues --    0.11763   0.12115   0.12314   0.12419   0.12617
 Alpha virt. eigenvalues --    0.12955   0.13238   0.13358   0.13484   0.13545
 Alpha virt. eigenvalues --    0.13754   0.13952   0.14109   0.14269   0.14516
 Alpha virt. eigenvalues --    0.14597   0.14643   0.14714   0.15048   0.15266
 Alpha virt. eigenvalues --    0.15622   0.15659   0.15842   0.16121   0.16187
 Alpha virt. eigenvalues --    0.16730   0.16741   0.16799   0.17198   0.17261
 Alpha virt. eigenvalues --    0.17408   0.17755   0.17913   0.18187   0.18366
 Alpha virt. eigenvalues --    0.18510   0.18870   0.18917   0.19137   0.19283
 Alpha virt. eigenvalues --    0.19435   0.19708   0.19837   0.20098   0.20696
 Alpha virt. eigenvalues --    0.20945   0.21004   0.21155   0.21479   0.21618
 Alpha virt. eigenvalues --    0.21772   0.21919   0.22357   0.22416   0.22442
 Alpha virt. eigenvalues --    0.22622   0.22834   0.23070   0.23094   0.23609
 Alpha virt. eigenvalues --    0.23720   0.24282   0.24380   0.24503   0.24681
 Alpha virt. eigenvalues --    0.24969   0.25142   0.25377   0.25429   0.25661
 Alpha virt. eigenvalues --    0.25899   0.26186   0.26370   0.26506   0.26807
 Alpha virt. eigenvalues --    0.26902   0.27098   0.27311   0.27478   0.27591
 Alpha virt. eigenvalues --    0.27671   0.27986   0.28269   0.28699   0.29017
 Alpha virt. eigenvalues --    0.29202   0.29313   0.29463   0.29612   0.30099
 Alpha virt. eigenvalues --    0.30225   0.30384   0.30667   0.30806   0.30855
 Alpha virt. eigenvalues --    0.31225   0.31398   0.31714   0.31791   0.32241
 Alpha virt. eigenvalues --    0.32514   0.32537   0.32717   0.33048   0.33342
 Alpha virt. eigenvalues --    0.33548   0.33565   0.33760   0.33952   0.34113
 Alpha virt. eigenvalues --    0.34455   0.34673   0.35105   0.35216   0.35593
 Alpha virt. eigenvalues --    0.35736   0.36024   0.36211   0.36537   0.36639
 Alpha virt. eigenvalues --    0.36750   0.36987   0.37157   0.37350   0.37674
 Alpha virt. eigenvalues --    0.37788   0.38079   0.38203   0.38567   0.38668
 Alpha virt. eigenvalues --    0.38881   0.39240   0.39346   0.39675   0.40005
 Alpha virt. eigenvalues --    0.40074   0.40349   0.40454   0.40531   0.40675
 Alpha virt. eigenvalues --    0.40777   0.40855   0.41229   0.41414   0.41528
 Alpha virt. eigenvalues --    0.41649   0.41954   0.42189   0.42347   0.42645
 Alpha virt. eigenvalues --    0.42711   0.42952   0.43024   0.43212   0.43448
 Alpha virt. eigenvalues --    0.43668   0.43825   0.43885   0.44100   0.44299
 Alpha virt. eigenvalues --    0.44479   0.44721   0.45047   0.45196   0.45315
 Alpha virt. eigenvalues --    0.45534   0.45662   0.45776   0.45944   0.46087
 Alpha virt. eigenvalues --    0.46274   0.46348   0.46622   0.46782   0.46819
 Alpha virt. eigenvalues --    0.47003   0.47224   0.47305   0.47591   0.47634
 Alpha virt. eigenvalues --    0.47695   0.47841   0.47897   0.48153   0.48364
 Alpha virt. eigenvalues --    0.48425   0.48797   0.48931   0.49153   0.49260
 Alpha virt. eigenvalues --    0.49361   0.49561   0.49755   0.49825   0.50001
 Alpha virt. eigenvalues --    0.50195   0.50246   0.50440   0.50519   0.50855
 Alpha virt. eigenvalues --    0.51200   0.51335   0.51489   0.51533   0.51650
 Alpha virt. eigenvalues --    0.51847   0.52102   0.52226   0.52454   0.52514
 Alpha virt. eigenvalues --    0.52789   0.53068   0.53275   0.53443   0.53521
 Alpha virt. eigenvalues --    0.53765   0.54017   0.54148   0.54336   0.54383
 Alpha virt. eigenvalues --    0.54562   0.54750   0.55093   0.55310   0.55716
 Alpha virt. eigenvalues --    0.55959   0.56075   0.56327   0.56501   0.56667
 Alpha virt. eigenvalues --    0.56813   0.57071   0.57463   0.57728   0.57899
 Alpha virt. eigenvalues --    0.58217   0.58549   0.58654   0.58899   0.59209
 Alpha virt. eigenvalues --    0.59258   0.59720   0.59783   0.59960   0.60089
 Alpha virt. eigenvalues --    0.60577   0.60698   0.60870   0.61115   0.61627
 Alpha virt. eigenvalues --    0.61660   0.61982   0.62234   0.62280   0.62708
 Alpha virt. eigenvalues --    0.62990   0.63122   0.63353   0.63513   0.63796
 Alpha virt. eigenvalues --    0.63814   0.64249   0.64522   0.64549   0.64728
 Alpha virt. eigenvalues --    0.65049   0.65650   0.65906   0.66015   0.66367
 Alpha virt. eigenvalues --    0.66395   0.66820   0.67077   0.67222   0.67373
 Alpha virt. eigenvalues --    0.67711   0.67934   0.68114   0.68309   0.68557
 Alpha virt. eigenvalues --    0.68838   0.69046   0.69523   0.69821   0.70207
 Alpha virt. eigenvalues --    0.70462   0.70682   0.70869   0.71339   0.71514
 Alpha virt. eigenvalues --    0.71647   0.71901   0.72329   0.72625   0.72979
 Alpha virt. eigenvalues --    0.73291   0.73455   0.73790   0.74404   0.74563
 Alpha virt. eigenvalues --    0.74850   0.75034   0.75445   0.75835   0.75982
 Alpha virt. eigenvalues --    0.76144   0.76583   0.76651   0.77046   0.77195
 Alpha virt. eigenvalues --    0.77455   0.77599   0.77910   0.78057   0.78276
 Alpha virt. eigenvalues --    0.78953   0.79082   0.79178   0.79752   0.79852
 Alpha virt. eigenvalues --    0.80219   0.80594   0.80685   0.81103   0.81621
 Alpha virt. eigenvalues --    0.82177   0.82278   0.82834   0.83326   0.83402
 Alpha virt. eigenvalues --    0.83549   0.84017   0.84135   0.84326   0.84433
 Alpha virt. eigenvalues --    0.84603   0.85028   0.85364   0.85707   0.85936
 Alpha virt. eigenvalues --    0.86035   0.86677   0.86752   0.87014   0.87215
 Alpha virt. eigenvalues --    0.87490   0.87959   0.88254   0.88564   0.88920
 Alpha virt. eigenvalues --    0.89120   0.89431   0.89606   0.89698   0.90006
 Alpha virt. eigenvalues --    0.90284   0.90874   0.91004   0.91198   0.91550
 Alpha virt. eigenvalues --    0.91958   0.92141   0.92198   0.92502   0.92792
 Alpha virt. eigenvalues --    0.92974   0.93555   0.93630   0.93956   0.94135
 Alpha virt. eigenvalues --    0.94322   0.94749   0.94960   0.95147   0.95252
 Alpha virt. eigenvalues --    0.95623   0.95881   0.96129   0.96214   0.96780
 Alpha virt. eigenvalues --    0.96838   0.97530   0.97791   0.98139   0.98485
 Alpha virt. eigenvalues --    0.98503   0.98782   0.99120   0.99259   0.99550
 Alpha virt. eigenvalues --    0.99714   1.00025   1.00576   1.00679   1.00813
 Alpha virt. eigenvalues --    1.01534   1.01674   1.01805   1.01951   1.02260
 Alpha virt. eigenvalues --    1.02343   1.02863   1.02939   1.03225   1.03468
 Alpha virt. eigenvalues --    1.03667   1.04091   1.04241   1.04648   1.04908
 Alpha virt. eigenvalues --    1.05280   1.05439   1.05637   1.05692   1.05988
 Alpha virt. eigenvalues --    1.06068   1.06264   1.06677   1.07210   1.07416
 Alpha virt. eigenvalues --    1.07662   1.08065   1.08173   1.08439   1.08809
 Alpha virt. eigenvalues --    1.09021   1.09212   1.09418   1.09672   1.10474
 Alpha virt. eigenvalues --    1.10872   1.11288   1.11529   1.11651   1.11990
 Alpha virt. eigenvalues --    1.12062   1.12546   1.12931   1.13213   1.13561
 Alpha virt. eigenvalues --    1.13796   1.14124   1.14338   1.14915   1.15073
 Alpha virt. eigenvalues --    1.15648   1.16028   1.16376   1.16636   1.16899
 Alpha virt. eigenvalues --    1.17085   1.17552   1.17886   1.18164   1.18276
 Alpha virt. eigenvalues --    1.18530   1.18736   1.19411   1.19837   1.20217
 Alpha virt. eigenvalues --    1.20491   1.20734   1.21013   1.21296   1.21517
 Alpha virt. eigenvalues --    1.22020   1.22436   1.22535   1.22896   1.23215
 Alpha virt. eigenvalues --    1.23880   1.24331   1.24666   1.24890   1.25304
 Alpha virt. eigenvalues --    1.25656   1.26114   1.26356   1.26508   1.27366
 Alpha virt. eigenvalues --    1.27716   1.27887   1.28098   1.28626   1.28957
 Alpha virt. eigenvalues --    1.29348   1.29388   1.29725   1.29962   1.30064
 Alpha virt. eigenvalues --    1.30721   1.31300   1.31808   1.32101   1.32244
 Alpha virt. eigenvalues --    1.32708   1.32973   1.33371   1.33935   1.34389
 Alpha virt. eigenvalues --    1.34755   1.34820   1.35308   1.35765   1.35794
 Alpha virt. eigenvalues --    1.35865   1.36440   1.37236   1.37327   1.37764
 Alpha virt. eigenvalues --    1.38101   1.38338   1.38515   1.38877   1.39198
 Alpha virt. eigenvalues --    1.39323   1.39750   1.40388   1.41327   1.41582
 Alpha virt. eigenvalues --    1.42229   1.42476   1.43074   1.43435   1.44042
 Alpha virt. eigenvalues --    1.44641   1.44764   1.44974   1.45569   1.45983
 Alpha virt. eigenvalues --    1.46365   1.46866   1.47172   1.47288   1.47784
 Alpha virt. eigenvalues --    1.47984   1.48612   1.48814   1.49446   1.49773
 Alpha virt. eigenvalues --    1.49963   1.50252   1.50483   1.50772   1.51019
 Alpha virt. eigenvalues --    1.51173   1.51237   1.51482   1.51776   1.52086
 Alpha virt. eigenvalues --    1.52437   1.52661   1.52929   1.53030   1.53418
 Alpha virt. eigenvalues --    1.53486   1.53858   1.53990   1.54346   1.54776
 Alpha virt. eigenvalues --    1.54992   1.55236   1.55465   1.55628   1.55932
 Alpha virt. eigenvalues --    1.56061   1.56211   1.56639   1.56933   1.56984
 Alpha virt. eigenvalues --    1.57672   1.57693   1.57893   1.58051   1.58348
 Alpha virt. eigenvalues --    1.58645   1.58911   1.59001   1.59317   1.59461
 Alpha virt. eigenvalues --    1.59986   1.60268   1.60392   1.60823   1.60974
 Alpha virt. eigenvalues --    1.61156   1.61417   1.61694   1.61886   1.62122
 Alpha virt. eigenvalues --    1.62537   1.62631   1.62775   1.62959   1.63225
 Alpha virt. eigenvalues --    1.63492   1.63922   1.64175   1.64316   1.64418
 Alpha virt. eigenvalues --    1.65037   1.65065   1.65484   1.65821   1.65933
 Alpha virt. eigenvalues --    1.66038   1.66659   1.66878   1.66909   1.67272
 Alpha virt. eigenvalues --    1.67936   1.68093   1.68325   1.68917   1.69090
 Alpha virt. eigenvalues --    1.69292   1.69643   1.69831   1.70176   1.70280
 Alpha virt. eigenvalues --    1.70835   1.71112   1.71221   1.71386   1.71581
 Alpha virt. eigenvalues --    1.71939   1.72061   1.72272   1.72514   1.72880
 Alpha virt. eigenvalues --    1.73075   1.73496   1.73586   1.73976   1.74174
 Alpha virt. eigenvalues --    1.74374   1.74405   1.74710   1.74884   1.75054
 Alpha virt. eigenvalues --    1.75801   1.76217   1.76364   1.77014   1.77088
 Alpha virt. eigenvalues --    1.77470   1.77946   1.78021   1.78413   1.78860
 Alpha virt. eigenvalues --    1.79296   1.79373   1.79736   1.80452   1.80693
 Alpha virt. eigenvalues --    1.81124   1.81813   1.81981   1.82367   1.82751
 Alpha virt. eigenvalues --    1.82839   1.83188   1.83491   1.83973   1.84635
 Alpha virt. eigenvalues --    1.84952   1.85400   1.85652   1.85762   1.85987
 Alpha virt. eigenvalues --    1.86485   1.86758   1.87163   1.87485   1.88184
 Alpha virt. eigenvalues --    1.88302   1.88687   1.88955   1.89067   1.89426
 Alpha virt. eigenvalues --    1.89791   1.90113   1.90571   1.90744   1.91092
 Alpha virt. eigenvalues --    1.91489   1.91854   1.92072   1.92730   1.92845
 Alpha virt. eigenvalues --    1.93095   1.93126   1.93922   1.93988   1.94196
 Alpha virt. eigenvalues --    1.94724   1.95184   1.95391   1.95454   1.96030
 Alpha virt. eigenvalues --    1.96458   1.96691   1.97150   1.97741   1.98169
 Alpha virt. eigenvalues --    1.98468   1.98793   1.99164   1.99437   1.99889
 Alpha virt. eigenvalues --    2.00094   2.00318   2.00344   2.00601   2.00761
 Alpha virt. eigenvalues --    2.01416   2.01866   2.02533   2.02550   2.02837
 Alpha virt. eigenvalues --    2.03358   2.03556   2.04039   2.04116   2.04491
 Alpha virt. eigenvalues --    2.04930   2.05248   2.06122   2.06301   2.06893
 Alpha virt. eigenvalues --    2.07178   2.07477   2.07550   2.08010   2.08454
 Alpha virt. eigenvalues --    2.08720   2.08887   2.09124   2.09576   2.10062
 Alpha virt. eigenvalues --    2.10432   2.10777   2.10996   2.11464   2.11521
 Alpha virt. eigenvalues --    2.11898   2.12417   2.12715   2.13064   2.13475
 Alpha virt. eigenvalues --    2.13739   2.13783   2.13985   2.14509   2.14813
 Alpha virt. eigenvalues --    2.15256   2.15642   2.15810   2.16041   2.16326
 Alpha virt. eigenvalues --    2.16557   2.16887   2.17346   2.17693   2.17905
 Alpha virt. eigenvalues --    2.18276   2.18524   2.18862   2.19100   2.19144
 Alpha virt. eigenvalues --    2.19650   2.20135   2.20657   2.21001   2.21442
 Alpha virt. eigenvalues --    2.21558   2.21821   2.21984   2.22128   2.22773
 Alpha virt. eigenvalues --    2.23257   2.23540   2.23620   2.24162   2.24308
 Alpha virt. eigenvalues --    2.24719   2.25188   2.25804   2.25871   2.26112
 Alpha virt. eigenvalues --    2.26638   2.26846   2.26975   2.27166   2.27300
 Alpha virt. eigenvalues --    2.28148   2.28316   2.28570   2.29048   2.29440
 Alpha virt. eigenvalues --    2.29607   2.30093   2.30733   2.30885   2.32080
 Alpha virt. eigenvalues --    2.32272   2.32419   2.32719   2.33029   2.33322
 Alpha virt. eigenvalues --    2.33802   2.34135   2.34456   2.34668   2.35075
 Alpha virt. eigenvalues --    2.35338   2.35453   2.36018   2.36290   2.36705
 Alpha virt. eigenvalues --    2.36764   2.37063   2.37286   2.37700   2.38084
 Alpha virt. eigenvalues --    2.38198   2.38643   2.38740   2.38872   2.39808
 Alpha virt. eigenvalues --    2.40172   2.40320   2.40445   2.40684   2.40974
 Alpha virt. eigenvalues --    2.41446   2.41674   2.42078   2.42266   2.42861
 Alpha virt. eigenvalues --    2.43082   2.43396   2.44071   2.44312   2.44560
 Alpha virt. eigenvalues --    2.44807   2.45224   2.45790   2.46271   2.46456
 Alpha virt. eigenvalues --    2.46865   2.47605   2.47986   2.48007   2.48188
 Alpha virt. eigenvalues --    2.48698   2.49248   2.49454   2.49805   2.50292
 Alpha virt. eigenvalues --    2.50541   2.50883   2.50994   2.52078   2.52170
 Alpha virt. eigenvalues --    2.52238   2.52661   2.53178   2.53410   2.53607
 Alpha virt. eigenvalues --    2.54227   2.54579   2.54653   2.54976   2.56057
 Alpha virt. eigenvalues --    2.56214   2.56610   2.56864   2.57153   2.57270
 Alpha virt. eigenvalues --    2.57551   2.57854   2.58021   2.58210   2.58364
 Alpha virt. eigenvalues --    2.58696   2.59113   2.59310   2.59712   2.60083
 Alpha virt. eigenvalues --    2.60320   2.60516   2.60877   2.61253   2.61529
 Alpha virt. eigenvalues --    2.61835   2.62425   2.62688   2.62849   2.63218
 Alpha virt. eigenvalues --    2.63398   2.63629   2.64242   2.64284   2.64705
 Alpha virt. eigenvalues --    2.64903   2.65234   2.65256   2.65923   2.65969
 Alpha virt. eigenvalues --    2.66332   2.66441   2.67166   2.67296   2.67761
 Alpha virt. eigenvalues --    2.67902   2.68231   2.68525   2.68629   2.68756
 Alpha virt. eigenvalues --    2.69110   2.69571   2.70425   2.70565   2.70740
 Alpha virt. eigenvalues --    2.70832   2.71110   2.71376   2.71556   2.71595
 Alpha virt. eigenvalues --    2.72529   2.72772   2.73010   2.73329   2.73846
 Alpha virt. eigenvalues --    2.74152   2.74690   2.74852   2.75189   2.75469
 Alpha virt. eigenvalues --    2.75842   2.75897   2.76323   2.76582   2.76939
 Alpha virt. eigenvalues --    2.77360   2.77682   2.78058   2.78245   2.78820
 Alpha virt. eigenvalues --    2.78945   2.79330   2.79687   2.79806   2.80181
 Alpha virt. eigenvalues --    2.80580   2.80593   2.80744   2.80988   2.81777
 Alpha virt. eigenvalues --    2.81892   2.82342   2.82481   2.82813   2.83083
 Alpha virt. eigenvalues --    2.83363   2.84129   2.84440   2.84846   2.85403
 Alpha virt. eigenvalues --    2.85549   2.85856   2.86373   2.86789   2.87056
 Alpha virt. eigenvalues --    2.87435   2.87702   2.87940   2.88458   2.88803
 Alpha virt. eigenvalues --    2.88988   2.89428   2.89518   2.90435   2.90796
 Alpha virt. eigenvalues --    2.91070   2.91131   2.91520   2.91588   2.91788
 Alpha virt. eigenvalues --    2.92414   2.92670   2.92829   2.93544   2.93675
 Alpha virt. eigenvalues --    2.93935   2.94227   2.94526   2.94887   2.95398
 Alpha virt. eigenvalues --    2.95486   2.95729   2.96066   2.96234   2.96397
 Alpha virt. eigenvalues --    2.97022   2.97310   2.97622   2.97711   2.98362
 Alpha virt. eigenvalues --    2.98935   2.99276   2.99453   2.99475   2.99946
 Alpha virt. eigenvalues --    3.00072   3.00776   3.00882   3.01036   3.01574
 Alpha virt. eigenvalues --    3.01990   3.02319   3.02483   3.02867   3.03275
 Alpha virt. eigenvalues --    3.03637   3.03728   3.03892   3.04187   3.04241
 Alpha virt. eigenvalues --    3.04436   3.04804   3.05195   3.05339   3.05785
 Alpha virt. eigenvalues --    3.06251   3.06639   3.06934   3.07094   3.07437
 Alpha virt. eigenvalues --    3.07481   3.08076   3.08213   3.08565   3.08692
 Alpha virt. eigenvalues --    3.09163   3.09446   3.09630   3.09885   3.10101
 Alpha virt. eigenvalues --    3.10162   3.10653   3.11158   3.11566   3.11774
 Alpha virt. eigenvalues --    3.11961   3.12096   3.12446   3.12998   3.13220
 Alpha virt. eigenvalues --    3.13370   3.13607   3.13935   3.14069   3.14267
 Alpha virt. eigenvalues --    3.14752   3.14983   3.15274   3.15499   3.15733
 Alpha virt. eigenvalues --    3.15837   3.16246   3.16615   3.16923   3.17099
 Alpha virt. eigenvalues --    3.17375   3.17660   3.17940   3.18432   3.18572
 Alpha virt. eigenvalues --    3.19021   3.19081   3.19505   3.19722   3.20010
 Alpha virt. eigenvalues --    3.20149   3.20664   3.20750   3.21085   3.21183
 Alpha virt. eigenvalues --    3.21382   3.21646   3.22103   3.22527   3.22608
 Alpha virt. eigenvalues --    3.22957   3.23059   3.23376   3.23790   3.23890
 Alpha virt. eigenvalues --    3.24064   3.24134   3.24608   3.24741   3.24970
 Alpha virt. eigenvalues --    3.25255   3.25540   3.26018   3.26260   3.26469
 Alpha virt. eigenvalues --    3.26697   3.26777   3.27105   3.27329   3.27678
 Alpha virt. eigenvalues --    3.28069   3.28237   3.28503   3.28656   3.28970
 Alpha virt. eigenvalues --    3.29154   3.29172   3.29593   3.29955   3.30125
 Alpha virt. eigenvalues --    3.30335   3.30688   3.30863   3.31099   3.31214
 Alpha virt. eigenvalues --    3.31408   3.31905   3.31998   3.32254   3.32386
 Alpha virt. eigenvalues --    3.32968   3.33123   3.33433   3.33540   3.33940
 Alpha virt. eigenvalues --    3.34221   3.34334   3.34822   3.34978   3.35032
 Alpha virt. eigenvalues --    3.35559   3.35645   3.35937   3.36210   3.36345
 Alpha virt. eigenvalues --    3.36946   3.37097   3.37444   3.37740   3.37785
 Alpha virt. eigenvalues --    3.38303   3.38325   3.38523   3.38776   3.38978
 Alpha virt. eigenvalues --    3.39221   3.39374   3.39794   3.40135   3.40359
 Alpha virt. eigenvalues --    3.40465   3.40642   3.40727   3.41154   3.41255
 Alpha virt. eigenvalues --    3.41521   3.41940   3.42065   3.42228   3.42634
 Alpha virt. eigenvalues --    3.42945   3.43231   3.43657   3.43894   3.44196
 Alpha virt. eigenvalues --    3.44366   3.44636   3.44917   3.45599   3.45631
 Alpha virt. eigenvalues --    3.45730   3.46079   3.46273   3.46643   3.46846
 Alpha virt. eigenvalues --    3.47171   3.47386   3.47595   3.47986   3.48243
 Alpha virt. eigenvalues --    3.48384   3.48599   3.49026   3.49396   3.49964
 Alpha virt. eigenvalues --    3.50248   3.50408   3.50717   3.50843   3.51111
 Alpha virt. eigenvalues --    3.51502   3.51615   3.51973   3.52349   3.52724
 Alpha virt. eigenvalues --    3.52933   3.53072   3.53316   3.54009   3.54498
 Alpha virt. eigenvalues --    3.54570   3.54948   3.55035   3.55464   3.55682
 Alpha virt. eigenvalues --    3.56220   3.56376   3.56821   3.57046   3.57437
 Alpha virt. eigenvalues --    3.58119   3.58422   3.58742   3.59147   3.59503
 Alpha virt. eigenvalues --    3.59962   3.60233   3.60426   3.60907   3.61045
 Alpha virt. eigenvalues --    3.61207   3.61642   3.62057   3.62363   3.62519
 Alpha virt. eigenvalues --    3.62958   3.63283   3.63505   3.64455   3.64557
 Alpha virt. eigenvalues --    3.64946   3.65518   3.65707   3.66171   3.66520
 Alpha virt. eigenvalues --    3.66746   3.67122   3.67159   3.67585   3.67608
 Alpha virt. eigenvalues --    3.68202   3.68525   3.68943   3.69434   3.69753
 Alpha virt. eigenvalues --    3.69973   3.70406   3.70571   3.71378   3.71613
 Alpha virt. eigenvalues --    3.71809   3.72354   3.72699   3.72823   3.73228
 Alpha virt. eigenvalues --    3.73595   3.73783   3.74430   3.74615   3.74929
 Alpha virt. eigenvalues --    3.75166   3.75471   3.76037   3.76105   3.76237
 Alpha virt. eigenvalues --    3.76662   3.76861   3.77255   3.77871   3.77941
 Alpha virt. eigenvalues --    3.78359   3.79081   3.79331   3.79552   3.80115
 Alpha virt. eigenvalues --    3.80493   3.80774   3.81130   3.81772   3.82286
 Alpha virt. eigenvalues --    3.82666   3.83156   3.83629   3.83805   3.84659
 Alpha virt. eigenvalues --    3.85401   3.85680   3.86372   3.86672   3.87155
 Alpha virt. eigenvalues --    3.87538   3.87601   3.88708   3.88910   3.89422
 Alpha virt. eigenvalues --    3.90205   3.90605   3.90738   3.91372   3.92185
 Alpha virt. eigenvalues --    3.92413   3.92682   3.92982   3.93508   3.94104
 Alpha virt. eigenvalues --    3.94332   3.94470   3.94643   3.95018   3.95194
 Alpha virt. eigenvalues --    3.95749   3.96669   3.96956   3.97310   3.97769
 Alpha virt. eigenvalues --    3.98331   3.98624   3.99037   3.99483   4.00069
 Alpha virt. eigenvalues --    4.00156   4.00676   4.01643   4.02024   4.02492
 Alpha virt. eigenvalues --    4.02645   4.03071   4.03843   4.04397   4.05026
 Alpha virt. eigenvalues --    4.05439   4.05774   4.05975   4.06539   4.07113
 Alpha virt. eigenvalues --    4.07826   4.08577   4.08665   4.09515   4.10175
 Alpha virt. eigenvalues --    4.10439   4.10604   4.11570   4.11745   4.12928
 Alpha virt. eigenvalues --    4.13938   4.15028   4.15648   4.16157   4.16832
 Alpha virt. eigenvalues --    4.17457   4.18163   4.18867   4.19250   4.19503
 Alpha virt. eigenvalues --    4.20066   4.20483   4.21113   4.21453   4.21502
 Alpha virt. eigenvalues --    4.21815   4.22274   4.22960   4.23531   4.23609
 Alpha virt. eigenvalues --    4.24323   4.24902   4.25126   4.25737   4.26226
 Alpha virt. eigenvalues --    4.26950   4.27634   4.28129   4.28812   4.29525
 Alpha virt. eigenvalues --    4.30435   4.30909   4.31009   4.31736   4.31911
 Alpha virt. eigenvalues --    4.32200   4.32976   4.33854   4.34114   4.34462
 Alpha virt. eigenvalues --    4.34668   4.35337   4.35764   4.36322   4.36795
 Alpha virt. eigenvalues --    4.37070   4.37111   4.37829   4.38059   4.38245
 Alpha virt. eigenvalues --    4.38764   4.39453   4.39689   4.39982   4.40281
 Alpha virt. eigenvalues --    4.40674   4.41068   4.41511   4.42250   4.42669
 Alpha virt. eigenvalues --    4.42967   4.43809   4.43940   4.44405   4.44855
 Alpha virt. eigenvalues --    4.44981   4.45716   4.46149   4.47032   4.47757
 Alpha virt. eigenvalues --    4.48014   4.48903   4.49455   4.49747   4.49922
 Alpha virt. eigenvalues --    4.50186   4.50651   4.50739   4.51477   4.51970
 Alpha virt. eigenvalues --    4.52633   4.54024   4.54620   4.55104   4.55617
 Alpha virt. eigenvalues --    4.55908   4.56315   4.56993   4.58403   4.58743
 Alpha virt. eigenvalues --    4.59150   4.60043   4.60858   4.61430   4.61750
 Alpha virt. eigenvalues --    4.62216   4.62883   4.63474   4.64303   4.64721
 Alpha virt. eigenvalues --    4.65774   4.65828   4.66434   4.67169   4.67523
 Alpha virt. eigenvalues --    4.68523   4.69192   4.69548   4.69945   4.70280
 Alpha virt. eigenvalues --    4.70946   4.71311   4.71609   4.72580   4.72967
 Alpha virt. eigenvalues --    4.73409   4.74006   4.74163   4.75507   4.75735
 Alpha virt. eigenvalues --    4.76427   4.77442   4.78462   4.78710   4.79520
 Alpha virt. eigenvalues --    4.81134   4.81762   4.82163   4.82308   4.83301
 Alpha virt. eigenvalues --    4.84351   4.85287   4.85683   4.86419   4.87309
 Alpha virt. eigenvalues --    4.87993   4.88051   4.88715   4.89381   4.90070
 Alpha virt. eigenvalues --    4.90313   4.91963   4.92954   4.93320   4.94096
 Alpha virt. eigenvalues --    4.95156   4.95356   4.96067   4.96494   4.96883
 Alpha virt. eigenvalues --    4.97221   4.97338   4.97906   4.98316   4.99470
 Alpha virt. eigenvalues --    5.02172   5.02366   5.02718   5.03025   5.04005
 Alpha virt. eigenvalues --    5.04188   5.05283   5.05634   5.06856   5.07212
 Alpha virt. eigenvalues --    5.08576   5.10052   5.11248   5.11924   5.13013
 Alpha virt. eigenvalues --    5.13479   5.16329   5.16980   5.17585   5.18014
 Alpha virt. eigenvalues --    5.18696   5.19695   5.20680   5.21822   5.22118
 Alpha virt. eigenvalues --    5.22315   5.23000   5.23750   5.23940   5.25140
 Alpha virt. eigenvalues --    5.25305   5.26655   5.27753   5.29321   5.29404
 Alpha virt. eigenvalues --    5.30896   5.31287   5.31982   5.33305   5.34641
 Alpha virt. eigenvalues --    5.35961   5.36657   5.38324   5.38930   5.39025
 Alpha virt. eigenvalues --    5.39334   5.40122   5.41225   5.44338   5.45067
 Alpha virt. eigenvalues --    5.46330   5.47254   5.47424   5.48224   5.48452
 Alpha virt. eigenvalues --    5.50003   5.51116   5.51659   5.51930   5.53172
 Alpha virt. eigenvalues --    5.57281   5.58203   5.59620   5.59887   5.60891
 Alpha virt. eigenvalues --    5.61400   5.61614   5.62652   5.62845   5.62960
 Alpha virt. eigenvalues --    5.63584   5.65031   5.65599   5.67442   5.68801
 Alpha virt. eigenvalues --    5.70586   5.72892   5.75450   5.77829   5.79242
 Alpha virt. eigenvalues --    5.79512   5.80070   5.83516   5.84901   5.89103
 Alpha virt. eigenvalues --    5.91210   5.91483   5.96587   5.97207   6.00280
 Alpha virt. eigenvalues --    6.00562   6.01846   6.03273   6.03924   6.05469
 Alpha virt. eigenvalues --    6.06613   6.07449   6.08657   6.11824   6.14381
 Alpha virt. eigenvalues --    6.15063   6.15172   6.18119   6.18982   6.20307
 Alpha virt. eigenvalues --    6.23669   6.28956   6.30114   6.31070   6.32885
 Alpha virt. eigenvalues --    6.33107   6.34308   6.37150   6.37447   6.39622
 Alpha virt. eigenvalues --    6.42270   6.45265   6.46203   6.51327   6.52163
 Alpha virt. eigenvalues --    6.64744   6.64927   6.74357   6.75692   6.82099
 Alpha virt. eigenvalues --    6.84708   6.92994   6.93322   7.02440   7.07292
 Alpha virt. eigenvalues --    7.11867   7.13933   7.19172   7.20284   7.28252
 Alpha virt. eigenvalues --    7.28416   9.31782   9.53940   9.63265  20.21558
 Alpha virt. eigenvalues --   22.40119  22.41391  22.45469  22.48503  22.48536
 Alpha virt. eigenvalues --   22.51785  22.53351  22.57032  22.58332  22.59531
 Alpha virt. eigenvalues --   22.61153  22.63382  22.66236  22.67889  22.70723
 Alpha virt. eigenvalues --   22.74020  22.77920  22.91937  22.94013  22.96416
 Alpha virt. eigenvalues --   22.98011  23.02452  23.07755  23.09817  23.14594
 Alpha virt. eigenvalues --   23.19944  23.25577  23.29658  23.30622  23.33179
 Alpha virt. eigenvalues --   23.43361  23.43745  23.51749  23.53458  23.54908
 Alpha virt. eigenvalues --   23.55461  23.58630  23.71440  23.75765  23.78579
 Alpha virt. eigenvalues --   23.88107  32.47484  32.85136  32.99420  33.06860
 Alpha virt. eigenvalues --   33.09819  33.19880  43.92622  43.93761  43.95845
 Alpha virt. eigenvalues --   43.97253
          Condensed to atoms (all electrons):
 Mulliken charges:
               1
     1  C   -0.385164
     2  C    0.177232
     3  N   -0.223280
     4  C   -0.220140
     5  C    0.005194
     6  N    0.078588
     7  C   -0.365230
     8  C   -0.154950
     9  S    0.037291
    10  C   -0.346780
    11  Fe  -0.440524
    12  C   -0.524349
    13  C   -0.516324
    14  C   -0.528190
    15  C   -0.477697
    16  N    0.029105
    17  C    0.272171
    18  C    0.025423
    19  C   -0.077992
    20  C    0.226977
    21  C   -0.416325
    22  C   -0.328184
    23  C   -0.198967
    24  C    0.271348
    25  O   -0.334225
    26  O   -0.366058
    27  N   -0.040741
    28  C    0.344442
    29  C   -0.139451
    30  C    0.085078
    31  C    0.071300
    32  C   -0.353968
    33  C   -0.330267
    34  C   -0.323328
    35  N    0.055793
    36  C    0.332054
    37  C   -0.062689
    38  C    0.029318
    39  C    0.132347
    40  C   -0.370009
    41  C   -0.318388
    42  C   -0.315043
    43  N    0.060138
    44  C    0.354152
    45  C   -0.090159
    46  C   -0.004026
    47  C    0.139510
    48  C   -0.409006
    49  C   -0.214496
    50  C   -0.265894
    51  C    0.296819
    52  O   -0.313207
    53  O   -0.371094
    54  H    0.143087
    55  H    0.138397
    56  H    0.121418
    57  H    0.119556
    58  H    0.120976
    59  H    0.115646
    60  H    0.135689
    61  H    0.109710
    62  H    0.133597
    63  H    0.133827
    64  H    0.118309
    65  H    0.153733
    66  H    0.120884
    67  H    0.120321
    68  H    0.137566
    69  H    0.120910
    70  H    0.123910
    71  H    0.142729
    72  H    0.141662
    73  H    0.098364
    74  H    0.138191
    75  H    0.127756
    76  H    0.137316
    77  H    0.078222
    78  H    0.127035
    79  H    0.127247
    80  H    0.144553
    81  H    0.117133
    82  H    0.350881
    83  H    0.352303
    84  H    0.134807
    85  H    0.137750
    86  H    0.119258
    87  H    0.121099
    88  H    0.141407
    89  H    0.129865
    90  H    0.149287
    91  H    0.140336
    92  H    0.111167
    93  H    0.119197
    94  H    0.120397
    95  H    0.137971
    96  H    0.154748
    97  H    0.182524
    98  H    0.234006
    99  H    0.144121
   100  H    0.146216
   101  H    0.126786
 Sum of Mulliken charges =  -0.00000
 Mulliken charges with hydrogens summed into heavy atoms:
               1
     1  C    0.031959
     2  C    0.177232
     3  N    0.010726
     4  C   -0.065392
     5  C    0.187718
     6  N    0.078588
     7  C    0.005469
     8  C    0.103418
     9  S    0.037291
    10  C    0.073780
    11  Fe  -0.440524
    12  C   -0.425986
    13  C   -0.395414
    14  C   -0.418480
    15  C   -0.399475
    16  N    0.029105
    17  C    0.272171
    18  C    0.025423
    19  C   -0.077992
    20  C    0.226977
    21  C   -0.008025
    22  C   -0.087827
    23  C    0.073590
    24  C    0.271348
    25  O    0.018077
    26  O   -0.366058
    27  N   -0.040741
    28  C    0.344442
    29  C   -0.139451
    30  C    0.085078
    31  C    0.071300
    32  C    0.024802
    33  C   -0.176535
    34  C    0.062404
    35  N    0.055793
    36  C    0.332054
    37  C   -0.062689
    38  C    0.029318
    39  C    0.132347
    40  C    0.002302
    41  C   -0.175301
    42  C    0.064327
    43  N    0.060138
    44  C    0.354152
    45  C   -0.090159
    46  C   -0.004026
    47  C    0.139510
    48  C   -0.005743
    49  C    0.039787
    50  C   -0.004208
    51  C    0.296819
    52  O   -0.313207
    53  O   -0.020213
 Electronic spatial extent (au):  <R**2>=          34213.0176
 Charge=             -0.0000 electrons
 Dipole moment (field-independent basis, Debye):
    X=              1.2255    Y=             -2.3385    Z=             -1.6651  Tot=              3.1214
 Quadrupole moment (field-independent basis, Debye-Ang):
   XX=           -328.5009   YY=           -313.4634   ZZ=           -298.4782
   XY=             18.7239   XZ=             36.0989   YZ=              1.2863
 Traceless Quadrupole moment (field-independent basis, Debye-Ang):
   XX=            -15.0201   YY=              0.0174   ZZ=             15.0027
   XY=             18.7239   XZ=             36.0989   YZ=              1.2863
 Octapole moment (field-independent basis, Debye-Ang**2):
  XXX=              4.2891  YYY=            -76.1073  ZZZ=             72.8958  XYY=             -6.1540
  XXY=           -148.1891  XXZ=           -273.6897  XZZ=              2.8020  YZZ=             23.5075
  YYZ=            -56.7081  XYZ=            -48.6509
 Hexadecapole moment (field-independent basis, Debye-Ang**3):
 XXXX=         -23923.0685 YYYY=         -15328.0154 ZZZZ=          -5106.6123 XXXY=           1315.5854
 XXXZ=           2018.2689 YYYX=            747.0511 YYYZ=            224.9386 ZZZX=            362.1968
 ZZZY=           -273.7584 XXYY=          -6686.3384 XXZZ=          -4929.0223 YYZZ=          -3662.7840
 XXYZ=            217.5482 YYXZ=            393.1765 ZZXY=           -376.9078
 N-N= 8.950403890967D+03 E-N=-2.702864772001D+04  KE= 3.868036847907D+03
  Exact polarizability: 904.551 -46.0751005.827 -30.883 108.152 459.964
 Approx polarizability:2031.326********6825.605-393.9401440.0661022.280

 ----------------------------------------------------------------------

 Electric dipole moment (input orientation):
 (Debye = 10**-18 statcoulomb cm , SI units = C m)
                  (au)            (Debye)         (10**-30 SI)
   Tot        0.122805D+01      0.312139D+01      0.104119D+02
   x          0.437431D+00      0.111184D+01      0.370869D+01
   y         -0.322480D-01     -0.819662D-01     -0.273410D+00
   z          0.114705D+01      0.291551D+01      0.972510D+01

 Dipole polarizability, Alpha (input orientation).
 (esu units = cm**3 , SI units = C**2 m**2 J**-1)
 Alpha(0;0):
               (au)            (10**-24 esu)      (10**-40 SI)
   iso        0.790114D+03      0.117083D+03      0.130272D+03
   aniso      0.545217D+03      0.807928D+02      0.898941D+02
   xx         0.922788D+03      0.136743D+03      0.152147D+03
   yx         0.256041D+02      0.379414D+01      0.422155D+01
   yy         0.564345D+03      0.836273D+02      0.930479D+02
   zx         0.943280D+02      0.139780D+02      0.155526D+02
   zy        -0.225640D+03     -0.334363D+02     -0.372030D+02
   zz         0.883209D+03      0.130878D+03      0.145622D+03

 First dipole hyperpolarizability, Beta (input orientation).
 ||, _|_  parallel and perpendicular components, (z) with respect to z axis,
 vector components x,y,z.  Values do not include the 1/n! factor of 1/2.
 (esu units = statvolt**-1 cm**4 , SI units = C**3 m**3 J**-2)
 Beta(0;0,0):
               (au)            (10**-30 esu)      (10**-50 SI)
   || (z)     0.281805D+03      0.243458D+01      0.903570D+00
   _|_(z)     0.939352D+02      0.811527D+00      0.301190D+00
   x         -0.620112D+04     -0.535729D+02     -0.198830D+02
   y         -0.261618D+04     -0.226017D+02     -0.838841D+01
   z          0.140903D+04      0.121729D+02      0.451785D+01
   ||         0.137526D+04      0.118812D+02      0.440959D+01
   xxx       -0.711927D+03     -0.615050D+01     -0.228270D+01
   xxy       -0.524141D+03     -0.452817D+01     -0.168059D+01
   yxy       -0.223484D+03     -0.193073D+01     -0.716571D+00
   yyy       -0.262882D+03     -0.227109D+01     -0.842894D+00
   xxz        0.693284D+03      0.598944D+01      0.222292D+01
   yxz        0.463032D+03      0.400024D+01      0.148465D+01
   yyz        0.501745D+02      0.433468D+00      0.160878D+00
   zxz       -0.113163D+04     -0.977640D+01     -0.362841D+01
   zyz       -0.850362D+02     -0.734647D+00     -0.272657D+00
   zzz       -0.273783D+03     -0.236527D+01     -0.877847D+00

 ----------------------------------------------------------------------

 Dipole orientation:
     6          8.03819956         39.75623315         62.90790645
     6          8.33026852         42.55671178         63.06396503
     7         10.40393232         43.79153285         62.02144673
     6          6.87914624         44.34231108         64.20435409
     6         10.18236060         46.24933103         62.49503909
     7          8.10174094         46.64190150         63.81488128
     6          5.34451631         57.25211566         62.42060382
     6          3.92228926         55.64097141         64.36954254
    16          6.12104332         54.10202654         66.49556066
     6          4.24042837         54.01689644         69.31323338
    26          7.06901826         50.01382092         65.11473844
     6         12.23424402         53.02529720         62.68644412
     6         10.38162411         48.74234422         70.57542055
     6          1.74640856         47.64001976         67.82520510
     6          3.96774544         50.71919645         59.51587405
     7         10.59116684         50.73242226         66.34869582
     6         12.45671099         52.09305741         65.09176714
     6         14.59664585         52.33941987         66.73243328
     6         14.08967877         51.12646272         68.89580905
     6         11.56217089         50.13368976         68.70639589
     6         15.76335446         50.87645155         71.27293268
     6         17.09660830         53.66987933         65.95500142
     6         18.88312834         51.57302734         64.97352674
     6         21.31608657         52.37014606         63.74246411
     8         21.98563397         54.61766619         64.00339938
     8         22.52935980         50.67957358         62.57749097
     7          6.22771166         48.52653969         68.50372890
     6          7.89712421         47.96993137         70.43465776
     6          6.60424389         46.53579978         72.38141578
     6          4.19978261         46.23906325         71.65286615
     6          3.93689114         47.52529568         69.25859618
     6          7.91569387         45.53019714         74.78529143
     6          2.03894375         44.93345273         73.07888459
     6          1.78874636         46.21475605         75.68075898
     7          3.54450880         49.38273504         63.90169639
     6          1.61705025         48.32566289         65.33284109
     6         -0.57522302         48.05811574         63.73956976
     6         -0.01421533         48.94219347         61.44420288
     6          2.61020544         49.74205158         61.50402998
     6         -3.09012212         46.89089496         64.75557252
     6         -1.63100770         48.91867291         59.02767403
     6         -4.26353574         50.15920948         59.02612008
     7          7.92206032         51.52997398         61.74761817
     6          6.42106017         51.63354618         59.65693724
     6          7.75256613         52.89300434         57.61652634
     6         10.02610484         53.51577014         58.49840736
     6         10.18358887         52.70862740         61.12023992
     6          6.54882969         53.28693105         54.97553891
     6         12.16817876         55.01635576         57.15079817
     6         12.01062364         57.82371842         58.06181690
     6         13.10684284         59.80353635         56.34235632
     8         14.53553842         59.06454160         54.66831541
     8         12.46918132         62.08511934         56.79574903
     1         -0.92626240         48.04038499         57.34825254
     1         -4.07697744         52.13672059         59.40448232
     1         -5.13076941         49.89774259         57.21834438
     1         -5.41195458         49.30509654         60.45445386
     1         -3.04393784         46.84542422         66.77654049
     1         -4.65255017         48.01838060         64.14229700
     1         -3.29598610         45.00961143         64.04360029
     1          0.01204528         47.15207281         68.74303073
     1          3.50480814         47.18997454         76.11961318
     1          0.25623596         47.53313236         75.63823961
     1          1.43140733         44.81115740         77.09169192
     1          0.90788669         43.40583823         72.38923541
     1          9.49091258         46.71396794         75.23903678
     1          6.60234143         45.53729020         76.32268117
     1          8.56285260         43.64230487         74.46039075
     1         11.45088167         48.23874992         72.21602810
     1         17.44033851         51.98097277         71.03572081
     1         14.74310108         51.53853318         72.88824785
     1         16.26640641         48.93660209         71.54207011
     1         13.79158908         54.09291885         61.96299925
     1          7.84220966         52.67426382         53.54714147
     1          4.84185917         52.21088825         54.84555552
     1          6.13142914         55.24758564         54.71073241
     1          3.05740984         50.77948221         57.71138885
     1         13.96694260         54.23556945         57.64408664
     1         11.90944202         54.93034504         55.14725891
     1         10.06123837         58.27088534         58.35922402
     1         12.96140782         57.95257599         59.84168130
     1         13.64650361         63.21577763         57.58734075
     1         23.64173850         55.00320141         64.63567601
     1         19.34883257         50.38079732         66.53884437
     1         17.85127102         50.46475036         63.63356231
     1         17.92020288         54.58858488         67.55693282
     1         16.73849648         55.01713959         64.49036567
     1          5.22691159         54.95157054         70.81047995
     1          2.48048538         54.95412224         68.97749456
     1          3.89173967         52.09420006         69.83300927
     1          7.26958818         56.64215420         62.31785434
     1          4.47332215         57.04221465         60.60801605
     1          5.28187233         59.19487938         62.97761098
     1          2.68234710         56.82811979         65.43806220
     1          2.83342653         54.23611408         63.40555815
     1          5.14568142         44.04267377         65.20126398
     1         11.48219186         47.67994896         61.90150468
     1         11.81987672         42.97061195         61.07685416
     1          9.16220222         38.88036772         64.34247603
     1          6.09573282         39.26496211         63.17991352
     1          8.64724245         39.11535227         61.08943166

 Electric dipole moment (dipole orientation):
 (Debye = 10**-18 statcoulomb cm , SI units = C m)
                  (au)            (Debye)         (10**-30 SI)
   Tot        0.122805D+01      0.312139D+01      0.104119D+02
   x          0.000000D+00      0.000000D+00      0.000000D+00
   y          0.000000D+00      0.000000D+00      0.000000D+00
   z          0.122805D+01      0.312139D+01      0.104119D+02

 Dipole polarizability, Alpha (dipole orientation).
 (esu units = cm**3 , SI units = C**2 m**2 J**-1)
 Alpha(0;0):
               (au)            (10**-24 esu)      (10**-40 SI)
   iso        0.790114D+03      0.117083D+03      0.130272D+03
   aniso      0.545217D+03      0.807928D+02      0.898941D+02
   xx         0.855976D+03      0.126843D+03      0.141131D+03
   yx         0.105021D+03      0.155625D+02      0.173156D+02
   yy         0.552999D+03      0.819459D+02      0.911771D+02
   zx         0.798577D+02      0.118337D+02      0.131668D+02
   zy        -0.191665D+03     -0.284019D+02     -0.316014D+02
   zz         0.961368D+03      0.142460D+03      0.158508D+03

 First dipole hyperpolarizability, Beta (dipole orientation).
 ||, _|_  parallel and perpendicular components, (z) with respect to z axis,
 vector components x,y,z.  Values do not include the 1/n! factor of 1/2.
 (esu units = statvolt**-1 cm**4 , SI units = C**3 m**3 J**-2)
 Beta(0;0,0):
               (au)            (10**-30 esu)      (10**-50 SI)
   || (z)    -0.164809D+03     -0.142382D+01     -0.528438D+00
   _|_(z)    -0.549364D+02     -0.474608D+00     -0.176146D+00
   x         -0.630886D+04     -0.545036D+02     -0.202285D+02
   y         -0.260824D+04     -0.225331D+02     -0.836295D+01
   z         -0.824047D+03     -0.711912D+01     -0.264219D+01
   ||         0.137526D+04      0.118812D+02      0.440959D+01
   xxx       -0.162902D+04     -0.140735D+02     -0.522324D+01
   xxy       -0.749643D+03     -0.647633D+01     -0.240363D+01
   yxy       -0.210243D+03     -0.181634D+01     -0.674116D+00
   yyy       -0.261766D+03     -0.226145D+01     -0.839317D+00
   xxz        0.821977D+03      0.710124D+01      0.263556D+01
   yxz        0.194208D+03      0.167781D+01      0.622702D+00
   yyz       -0.196172D+02     -0.169477D+00     -0.628998D-01
   zxz       -0.263687D+03     -0.227805D+01     -0.845475D+00
   zyz        0.141997D+03      0.122674D+01      0.455294D+00
   zzz       -0.107704D+04     -0.930480D+01     -0.345339D+01

 ----------------------------------------------------------------------
 1\1\GINC-NODE473\SP\RPBE1PBE\def2TZVP\C41H48Fe1N6O4S1\ZHARTOVSKA\21-Oc
 t-2022\0\\# polar def2tzvp empiricaldispersion=gd3bj int=grid=ultrafin
 e pbe1pbe\\1fj0_II_S\\0,1\C,0,15.934,20.177,30.131001\C,0,16.115,21.65
 7,30.191999\N,0,16.947001,22.33,29.302999\C,0,15.617,22.582001,31.0540
 01\C,0,16.933001,23.622999,29.613001\N,0,16.153999,23.806999,30.663\C,
 0,14.555,29.431999,30.641001\C,0,14.215,28.549,31.85\S,0,15.699,27.711
 ,32.465\C,0,15.3,27.622,34.210999\Fe,0,15.897,25.57,31.547001\C,0,18.0
 00999,27.209999,29.415001\C,0,18.561001,24.83,33.604\C,0,13.77,24.263,
 33.856998\C,0,13.31,26.013,29.374001\N,0,17.872999,25.941999,31.503\C,
 0,18.562,26.684,30.549\C,0,19.93,26.797001,30.959999\C,0,20.084,26.124
 001,32.108002\C,0,18.796,25.594999,32.477001\C,0,21.358999,25.962999,3
 2.964001\C,0,21.023001,27.518,30.122999\C,0,21.716,26.427,29.271999\C,
 0,22.688999,26.872,28.216\O,0,23.075001,28.059,28.25\O,0,23.065001,25.
 997,27.388\N,0,16.115999,24.733999,33.360001\C,0,17.304001,24.417,33.9
 92001\C,0,17.028,23.628,35.178001\C,0,15.701,23.475,35.266998\C,0,15.1
 23,24.188,34.151001\C,0,18.127001,23.066,36.105\C,0,14.898,22.759001,3
 6.361\C,0,15.268,23.4,37.712002\N,0,13.924,25.243999,31.603001\C,0,13.
 238,24.66,32.659\C,0,11.853,24.535,32.280998\C,0,11.7,25.035999,31.052
 999\C,0,13.011,25.465,30.599001\C,0,10.798,23.896999,33.241001\C,0,10.
 445,25.052999,30.163\C,0,9.14619722,25.70251289,30.67568219\N,0,15.688
 ,26.421,29.743\C,0,14.552,26.500999,28.993999\C,0,14.829,27.198999,27.
 752001\C,0,16.121,27.521999,27.768\C,0,16.691,27.059,29.023001\C,0,13.
 737,27.441,26.679001\C,0,16.93,28.34,26.719\C,0,17.031,29.812,27.23800
 1\C,0,17.254,30.886,26.209\O,0,17.643,30.521999,25.101999\O,0,17.03000
 1,32.084999,26.584999\H,0,10.47466351,24.6135355,29.18786313\H,0,9.314
 82261,26.74381336,30.855011\H,0,8.37596187,25.58710114,29.94198086\H,0
 ,8.84539224,25.22790981,31.58626897\H,0,11.20165735,23.84498048,34.230
 57405\H,0,9.91272659,24.49794935,33.24804882\H,0,10.55719197,22.911188
 23,32.90175386\H,0,13.08417798,23.98768893,34.63078865\H,0,16.20174369
 ,23.91417297,37.61900261\H,0,14.50559153,24.09407471,37.99817263\H,0,1
 5.35366761,22.63699166,38.45723977\H,0,14.20483213,21.95759908,36.2120
 9308\H,0,18.99444377,23.68992737,36.0488068\H,0,17.76740293,23.0450274
 8,37.11254622\H,0,18.38092335,22.07349767,35.79619171\H,0,19.39766152,
 24.54354314,34.20636337\H,0,22.14631776,26.55486619,32.54600291\H,0,21
 .16069189,26.2881752,33.96391836\H,0,21.65350482,24.9343884,32.9752508
 8\H,0,18.63741512,27.78879721,28.77870928\H,0,14.10571686,27.14006506,
 25.7206764\H,0,12.8657134,26.86922335,26.92155227\H,0,13.48571513,28.4
 807753,26.65403624\H,0,12.51989607,26.06763568,28.65452152\H,0,17.9104
 0308,27.9247218,26.61291598\H,0,16.42419225,28.32168017,25.77627899\H,
 0,16.12430676,30.03942444,27.75865972\H,0,17.83694744,29.85786462,27.9
 4031515\H,0,17.76424475,32.67511745,26.77005666\H,0,24.01404764,28.258
 39605,28.25571143\H,0,22.23827243,25.77576431,29.94134464\H,0,20.95037
 625,25.85671343,28.78878736\H,0,21.73454042,27.98383218,30.77231559\H,
 0,20.57330346,28.2501212,29.48529164\H,0,16.0723902,28.09815093,34.778
 09129\H,0,14.36888965,28.11794295,34.38981202\H,0,15.22063992,26.59680
 05,34.50691786\H,0,15.48594607,29.11569094,30.21887705\H,0,13.78203127
 ,29.34392174,29.90638427\H,0,14.63398867,30.45179829,30.95511913\H,0,1
 3.80634208,29.15896648,32.62835698\H,0,13.49129965,27.81645534,31.5592
 4905\H,0,14.94701096,22.40520692,31.86932826\H,0,17.46750252,24.391353
 81,29.09450413\H,0,17.46698192,21.91249201,28.55780982\H,0,16.75794053
 ,19.69661917,30.61603323\H,0,15.02353828,19.90837218,30.6247606\H,0,15
 .8907394,19.86480945,29.10847199\\Version=ES64L-G16RevA.03\State=1-A\H
 F=-3880.5270025\RMSD=3.723e-09\Dipole=0.4374309,-0.032248,1.1470502\Po
 lar=922.788067,25.6040979,564.3448801,94.3279931,-225.6396567,883.2093
 265\HyperPolar=-711.9273181,-524.1414802,-223.4841706,-262.8817779,693
 .2842525,463.0319261,50.1744755,-1131.6294231,-85.0362387,-273.7829628
 \Quadrupole=8.7208238,20.2285955,-28.9494192,12.3260228,11.4751782,9.7
 109958\PG=C01 [X(C41H48Fe1N6O4S1)]\\@


 THE TEST OF A FIRST RATE INTELLIGENCE IS THE ABILITY TO HOLD TWO OPPOSED
 IDEAS IN THE MIND AT THE SAME TIME, AND STILL RETAIN THE ABILITY TO FUNCTION.
 ONE SHOULD, FOR EXAMPLE, BE ABLE TO SEE THAT THINGS ARE HOPELESS AND YET BE
 DETERMINED TO MAKE THEM OTHERWISE.

                                                       -- F. SCOTT FITZGERALD
 Job cpu time:       7 days  5 hours 12 minutes 52.2 seconds.
 Elapsed time:       1 days 19 hours 27 minutes 11.2 seconds.
 File lengths (MBytes):  RWF=   1955 Int=      0 D2E=      0 Chk=    249 Scr=      1
 Normal termination of Gaussian 16 at Fri Oct 21 10:37:49 2022.
