 Initial command:
 /afs/math/software/gaussian/g16.A03/g16/l1.exe "/scratch/zhartovska_gaussian.qdJYOpA/Gau-8446.inp" -scrdir="/scratch/zhartovska_gaussian.qdJYOpA/"
 Entering Link 1 = /afs/math/software/gaussian/g16.A03/g16/l1.exe PID=      8049.
  
 Copyright (c) 1988,1990,1992,1993,1995,1998,2003,2009,2016,
            Gaussian, Inc.  All Rights Reserved.
  
 This is part of the Gaussian(R) 16 program.  It is based on
 the Gaussian(R) 09 system (copyright 2009, Gaussian, Inc.),
 the Gaussian(R) 03 system (copyright 2003, Gaussian, Inc.),
 the Gaussian(R) 98 system (copyright 1998, Gaussian, Inc.),
 the Gaussian(R) 94 system (copyright 1995, Gaussian, Inc.),
 the Gaussian 92(TM) system (copyright 1992, Gaussian, Inc.),
 the Gaussian 90(TM) system (copyright 1990, Gaussian, Inc.),
 the Gaussian 88(TM) system (copyright 1988, Gaussian, Inc.),
 the Gaussian 86(TM) system (copyright 1986, Carnegie Mellon
 University), and the Gaussian 82(TM) system (copyright 1983,
 Carnegie Mellon University). Gaussian is a federally registered
 trademark of Gaussian, Inc.
  
 This software contains proprietary and confidential information,
 including trade secrets, belonging to Gaussian, Inc.
  
 This software is provided under written license and may be
 used, copied, transmitted, or stored only in accord with that
 written license.
  
 The following legend is applicable only to US Government
 contracts under FAR:
  
                    RESTRICTED RIGHTS LEGEND
  
 Use, reproduction and disclosure by the US Government is
 subject to restrictions as set forth in subparagraphs (a)
 and (c) of the Commercial Computer Software - Restricted
 Rights clause in FAR 52.227-19.
  
 Gaussian, Inc.
 340 Quinnipiac St., Bldg. 40, Wallingford CT 06492
  
  
 ---------------------------------------------------------------
 Warning -- This program may not be used in any manner that
 competes with the business of Gaussian, Inc. or will provide
 assistance to any competitor of Gaussian, Inc.  The licensee
 of this program is prohibited from giving any competitor of
 Gaussian, Inc. access to this program.  By using this program,
 the user acknowledges that Gaussian, Inc. is engaged in the
 business of creating and licensing software in the field of
 computational chemistry and represents and warrants to the
 licensee that it is not a competitor of Gaussian, Inc. and that
 it will not use this program in any manner prohibited above.
 ---------------------------------------------------------------
  

 Cite this work as:
 Gaussian 16, Revision A.03,
 M. J. Frisch, G. W. Trucks, H. B. Schlegel, G. E. Scuseria, 
 M. A. Robb, J. R. Cheeseman, G. Scalmani, V. Barone, 
 G. A. Petersson, H. Nakatsuji, X. Li, M. Caricato, A. V. Marenich, 
 J. Bloino, B. G. Janesko, R. Gomperts, B. Mennucci, H. P. Hratchian, 
 J. V. Ortiz, A. F. Izmaylov, J. L. Sonnenberg, D. Williams-Young, 
 F. Ding, F. Lipparini, F. Egidi, J. Goings, B. Peng, A. Petrone, 
 T. Henderson, D. Ranasinghe, V. G. Zakrzewski, J. Gao, N. Rega, 
 G. Zheng, W. Liang, M. Hada, M. Ehara, K. Toyota, R. Fukuda, 
 J. Hasegawa, M. Ishida, T. Nakajima, Y. Honda, O. Kitao, H. Nakai, 
 T. Vreven, K. Throssell, J. A. Montgomery, Jr., J. E. Peralta, 
 F. Ogliaro, M. J. Bearpark, J. J. Heyd, E. N. Brothers, K. N. Kudin, 
 V. N. Staroverov, T. A. Keith, R. Kobayashi, J. Normand, 
 K. Raghavachari, A. P. Rendell, J. C. Burant, S. S. Iyengar, 
 J. Tomasi, M. Cossi, J. M. Millam, M. Klene, C. Adamo, R. Cammi, 
 J. W. Ochterski, R. L. Martin, K. Morokuma, O. Farkas, 
 J. B. Foresman, and D. J. Fox, Gaussian, Inc., Wallingford CT, 2016.
 
 ******************************************
 Gaussian 16:  ES64L-G16RevA.03 25-Dec-2016
                 2-Sep-2022 
 ******************************************
 %nprocs=12
 Will use up to   12 processors via shared memory.
 %mem=16GB
 %chk=1h9xd_II_S.chk
 ----------------------------------------------------------------------
 # PBE1PBE/def2TZVP empiricaldispersion=GD3BJ int=(grid=ultrafine) geom
 =check guess=read pop=nbo scf=qc
 ----------------------------------------------------------------------
 1/29=2,38=1,172=1/1;
 2/12=2,40=1/2;
 3/5=44,7=101,11=2,14=-4,25=1,30=1,74=-13,75=-5,116=-2,124=41/1,2,3;
 4/5=1/1;
 5/5=2,8=3,38=6/8;
 6/7=2,8=2,9=2,10=2,28=1,40=1/1,7;
 99/5=1,9=1/99;
 --------------
 1h9xd_II_S_nbo
 --------------
 Structure from the checkpoint file:  "1h9xd_II_S.chk"
 Charge =  0 Multiplicity = 1
 Z-Matrix found in chk file.
 C,0,111.418999,56.308998,200.854996
 C,0,110.014,56.828999,200.763
 N,0,109.332001,57.219002,201.904007
 C,0,109.162003,57.029999,199.729004
 C,0,108.121002,57.623001,201.563004
 N,0,107.976997,57.539001,200.242004
 Fe,0,106.111,58.048,199.233994
 C,0,106.148003,60.939999,201.192993
 C,0,104.287003,56.523998,201.714005
 C,0,104.871002,55.738998,196.945999
 C,0,107.293999,59.915001,196.591003
 N,0,105.302002,58.639,201.044006
 C,0,105.57,59.812,201.716995
 C,0,105.234001,59.664001,203.119995
 C,0,104.719002,58.446999,203.285995
 C,0,104.744003,57.797001,201.988998
 C,0,104.183998,57.808998,204.593994
 C,0,105.460999,60.783001,204.182999
 C,0,106.898003,60.785,204.729996
 C,0,107.264999,61.689999,205.880005
 O,0,106.306999,62.294998,206.412003
 O,0,108.499001,61.757,206.238998
 N,0,104.804001,56.493999,199.289993
 C,0,104.267998,55.958,200.447006
 C,0,103.556,54.752998,200.125
 O,0,102.816002,53.923,201.177994
 C,0,103.529999,54.661999,198.774002
 C,0,102.071999,55.007999,198.300003
 C,0,103.833,53.243,198.283005
 C,0,104.972,52.651001,198.600998
 O,0,105.097,51.402,198.406006
 O,0,105.994003,53.174999,199.104004
 C,0,104.496002,55.609001,198.268005
 N,0,106.060997,57.891998,197.192993
 C,0,105.601997,56.82,196.464005
 C,0,105.970001,56.978001,195.069
 O,0,105.621002,55.943001,194.005997
 C,0,106.586998,58.168999,194.944
 C,0,105.649002,58.956001,193.983994
 C,0,107.940002,58.073002,194.240005
 C,0,108.891998,57.375,194.839996
 O,0,109.989998,57.897999,195.169006
 O,0,108.744003,56.143002,195.117996
 C,0,106.725998,58.701,196.298004
 N,0,106.542,60.025002,198.947006
 C,0,107.136002,60.542999,197.815994
 C,0,107.491997,61.936001,198.046005
 C,0,107.167,62.226002,199.309998
 C,0,106.597,61.018002,199.888
 C,0,108.142998,62.824001,196.968002
 C,0,107.346001,63.553001,200.080002
 C,0,107.221001,64.856003,199.315994
 C,0,107.198997,66.126999,200.125
 O,0,107.278,67.218002,199.481003
 O,0,107.095001,66.045998,201.369003
 H,0,112.06023492,57.0785943,201.23107849
 H,0,111.44548999,55.46801461,201.51601428
 H,0,111.75286245,56.00968875,199.883477
 H,0,109.36672337,56.83121868,198.69775429
 H,0,107.37054748,57.96542848,202.24451807
 H,0,109.69698758,57.19816317,202.83478653
 H,0,104.58545946,54.97066782,196.25822419
 H,0,103.92388651,55.93543586,202.53048588
 H,0,106.25624908,61.79827519,201.82271101
 H,0,107.88474573,60.39790824,195.84085708
 H,0,109.08553606,62.40554412,196.6826674
 H,0,107.5018256,62.87489173,196.11289494
 H,0,108.29368094,63.8081855,197.35988914
 H,0,106.62050901,63.56965672,200.86631235
 H,0,108.31625064,63.53560351,200.53079348
 H,0,108.04269003,64.91599336,198.63325811
 H,0,106.31751759,64.81552779,198.7441728
 H,0,108.13764716,67.58599893,199.26378186
 H,0,104.88092804,57.98343193,205.38693872
 H,0,103.24093486,58.24774195,204.84506303
 H,0,104.06093144,56.7555435,204.45261423
 H,0,105.2597875,61.73324175,203.73416001
 H,0,104.7812155,60.6321692,204.99543002
 H,0,107.12322718,59.78331414,205.03132557
 H,0,107.54643534,61.03028361,203.9149675
 H,0,106.47472887,63.00483105,207.03618545
 H,0,102.06734212,55.15695224,197.24043174
 H,0,101.41491506,54.20126944,198.54965899
 H,0,101.74112856,55.90133328,198.78721817
 H,0,106.13101743,59.08024469,193.03682737
 H,0,104.73694321,58.41241661,193.85146187
 H,0,105.43398033,59.91656733,194.40349133
 H,0,103.0428405,52.6134103,198.63537523
 H,0,103.77640119,53.26163755,197.21466553
 H,0,105.97158255,51.01087743,198.34494458
 H,0,107.7762595,57.64008881,193.27529024
 H,0,108.3054077,59.06852395,194.09747526
 H,0,110.81603605,57.48396797,194.90854594
 Recover connectivity data from disk.
 Stoichiometry    C38H38FeN6O10
 Framework group  C1[X(C38H38FeN6O10)]
 Deg. of freedom   273
 Full point group                 C1      NOp   1
 Largest Abelian subgroup         C1      NOp   1
 Largest concise Abelian subgroup C1      NOp   1
                         Standard orientation:                         
 ---------------------------------------------------------------------
 Center     Atomic      Atomic             Coordinates (Angstroms)
 Number     Number       Type             X           Y           Z
 ---------------------------------------------------------------------
      1          6           0        0.340892   -0.599667    5.597624
      2          6           0        0.186257   -0.717370    4.109296
      3          7           0       -0.624124   -1.698366    3.561525
      4          6           0        0.699828   -0.026906    3.062897
      5          6           0       -0.583537   -1.602257    2.244281
      6          7           0        0.201557   -0.585497    1.894054
      7         26           0        0.611459   -0.087848   -0.189557
      8          6           0       -2.837475   -0.377080   -0.662748
      9          6           0        0.889429   -3.416501   -0.991310
     10          6           0        3.943717    0.372308   -1.077430
     11          6           0        0.237820    3.336506   -0.120456
     12          7           0       -0.695994   -1.572565   -0.794608
     13          6           0       -2.073056   -1.510591   -0.771672
     14          6           0       -2.627815   -2.850449   -0.786828
     15          6           0       -1.612096   -3.707399   -0.875289
     16          6           0       -0.394241   -2.918845   -0.893653
     17          6           0       -1.674609   -5.254973   -0.947697
     18          6           0       -4.156995   -3.150684   -0.715172
     19          6           0       -4.682118   -3.161800    0.729927
     20          6           0       -6.101008   -3.589721    1.012528
     21          8           0       -6.726965   -4.049927    0.031102
     22          8           0       -6.548602   -3.477043    2.213815
     23          7           0        2.097267   -1.252607   -0.939232
     24          6           0        2.028625   -2.627859   -1.070545
     25          6           0        3.322142   -3.133769   -1.435957
     26          8           0        3.587413   -4.620604   -1.689423
     27          6           0        4.109297   -2.058843   -1.679010
     28          6           0        4.308739   -1.954896   -3.234508
     29          6           0        5.502538   -2.209324   -1.060400
     30          6           0        5.643063   -2.394974    0.241403
     31          8           0        6.768709   -2.768621    0.696331
     32          8           0        4.773045   -2.257382    1.133712
     33          6           0        3.422718   -0.903869   -1.149243
     34          7           0        1.817901    1.524250   -0.561253
     35          6           0        3.171352    1.496429   -0.803495
     36          6           0        3.708281    2.844107   -0.759892
     37          8           0        5.187375    3.145340   -0.970942
     38          6           0        2.676012    3.686430   -0.560647
     39          6           0        2.675126    4.558328   -1.849295
     40          6           0        2.901152    4.645863    0.607361
     41          6           0        3.013657    4.118966    1.816995
     42          8           0        2.222951    4.424412    2.749126
     43          8           0        3.922718    3.275107    2.097198
     44          6           0        1.499909    2.846735   -0.343008
     45          7           0       -0.962523    1.193529   -0.428967
     46          6           0       -0.902009    2.556747   -0.233209
     47          6           0       -2.245798    3.115890   -0.274225
     48          6           0       -3.095859    2.096648   -0.435292
     49          6           0       -2.294124    0.883846   -0.502979
     50          6           0       -2.531784    4.622769   -0.126017
     51          6           0       -4.637736    2.121232   -0.524098
     52          6           0       -5.306828    3.318162   -1.169716
     53          6           0       -6.789094    3.222493   -1.422978
     54          8           0       -7.377406    4.284925   -1.792283
     55          8           0       -7.355000    2.117415   -1.269766
     56          1           0       -0.605193   -0.360907    6.036733
     57          1           0        0.693842   -1.528708    5.994119
     58          1           0        1.044264    0.174522    5.823012
     59          1           0        1.371722    0.803412    3.126389
     60          1           0       -1.102452   -2.243697    1.562972
     61          1           0       -1.153909   -2.370283    4.079073
     62          1           0        4.993071    0.503386   -1.240447
     63          1           0        1.014336   -4.479070   -1.006938
     64          1           0       -3.902383   -0.473149   -0.703268
     65          1           0        0.128959    4.365478    0.152062
     66          1           0       -2.188282    4.958651    0.830063
     67          1           0       -2.021107    5.160291   -0.897496
     68          1           0       -3.584548    4.795727   -0.207705
     69          1           0       -4.943223    1.250383   -1.065577
     70          1           0       -5.019237    2.037277    0.472048
     71          1           0       -5.135494    4.167717   -0.542180
     72          1           0       -4.824648    3.496862   -2.108048
     73          1           0       -7.713396    4.900304   -1.136524
     74          1           0       -2.350364   -5.619883   -0.202650
     75          1           0       -2.017060   -5.553156   -1.916570
     76          1           0       -0.699542   -5.659842   -0.773840
     77          1           0       -4.683444   -2.401947   -1.269379
     78          1           0       -4.343660   -4.106224   -1.159017
     79          1           0       -4.039451   -3.803980    1.295156
     80          1           0       -4.567887   -2.170320    1.115699
     81          1           0       -7.674688   -4.191320    0.089666
     82          1           0        4.739287   -1.005638   -3.476245
     83          1           0        4.961131   -2.736604   -3.563473
     84          1           0        3.361580   -2.051680   -3.722793
     85          1           0        2.987165    5.552795   -1.607289
     86          1           0        3.349551    4.137202   -2.565328
     87          1           0        1.688052    4.584597   -2.261478
     88          1           0        5.975065   -3.036122   -1.548277
     89          1           0        6.055206   -1.328739   -1.313439
     90          1           0        6.983249   -2.627857    1.621403
     91          1           0        3.794837    5.199393    0.407781
     92          1           0        2.083033    5.335231    0.626160
     93          1           0        2.568976    4.705674    3.599277
 ---------------------------------------------------------------------
 Rotational constants (GHZ):           0.0585019           0.0382469           0.0288316
 Standard basis: def2TZVP (5D, 7F)
 There are  2224 symmetry adapted cartesian basis functions of A   symmetry.
 There are  1947 symmetry adapted basis functions of A   symmetry.
  1947 basis functions,  3160 primitive gaussians,  2224 cartesian basis functions
   207 alpha electrons      207 beta electrons
       nuclear repulsion energy      8786.6215009306 Hartrees.
 NAtoms=   93 NActive=   93 NUniq=   93 SFac= 1.00D+00 NAtFMM=   60 NAOKFM=T Big=T
 Integral buffers will be    131072 words long.
 Raffenetti 2 integral format.
 Two-electron integral symmetry is turned on.
 Nuclear repulsion after empirical dispersion term =     8786.4881299926 Hartrees.
 One-electron integrals computed using PRISM.
   1 Symmetry operations used in ECPInt.
 ECPInt:  NShTT=  289941 NPrTT=  905201 LenC2=  202174 LenP2D=  403722.
 LDataN:  DoStor=T MaxTD1= 6 Len=  172
 NBasis=  1947 RedAO= T EigKep=  3.10D-06  NBF=  1947
 NBsUse=  1947 1.00D-06 EigRej= -1.00D+00 NBFU=  1947
 Initial guess from the checkpoint file:  "1h9xd_II_S.chk"
 B after Tr=     0.000000    0.000000    0.000000
         Rot=    1.000000    0.000000    0.000000    0.000000 Ang=   0.00 deg.
 SCF Done:  E(RPBE1PBE) =  -3813.19446051     a.u. after    1 cycles
            Convg  =    0.9614D-06                     1 Fock formations.
              S**2 =  0.0000                  -V/T =  2.0032

 **********************************************************************

            Population analysis using the SCF density.

 **********************************************************************

 Orbital symmetries:
       Occupied  (A) (A) (A) (A) (A) (A) (A) (A) (A) (A) (A) (A)
                 (A) (A) (A) (A) (A) (A) (A) (A) (A) (A) (A) (A)
                 (A) (A) (A) (A) (A) (A) (A) (A) (A) (A) (A) (A)
                 (A) (A) (A) (A) (A) (A) (A) (A) (A) (A) (A) (A)
                 (A) (A) (A) (A) (A) (A) (A) (A) (A) (A) (A) (A)
                 (A) (A) (A) (A) (A) (A) (A) (A) (A) (A) (A) (A)
                 (A) (A) (A) (A) (A) (A) (A) (A) (A) (A) (A) (A)
                 (A) (A) (A) (A) (A) (A) (A) (A) (A) (A) (A) (A)
                 (A) (A) (A) (A) (A) (A) (A) (A) (A) (A) (A) (A)
                 (A) (A) (A) (A) (A) (A) (A) (A) (A) (A) (A) (A)
                 (A) (A) (A) (A) (A) (A) (A) (A) (A) (A) (A) (A)
                 (A) (A) (A) (A) (A) (A) (A) (A) (A) (A) (A) (A)
                 (A) (A) (A) (A) (A) (A) (A) (A) (A) (A) (A) (A)
                 (A) (A) (A) (A) (A) (A) (A) (A) (A) (A) (A) (A)
                 (A) (A) (A) (A) (A) (A) (A) (A) (A) (A) (A) (A)
                 (A) (A) (A) (A) (A) (A) (A) (A) (A) (A) (A) (A)
                 (A) (A) (A) (A) (A) (A) (A) (A) (A) (A) (A) (A)
                 (A) (A) (A)
       Virtual   (A) (A) (A) (A) (A) (A) (A) (A) (A) (A) (A) (A)
                 (A) (A) (A) (A) (A) (A) (A) (A) (A) (A) (A) (A)
                 (A) (A) (A) (A) (A) (A) (A) (A) (A) (A) (A) (A)
                 (A) (A) (A) (A) (A) (A) (A) (A) (A) (A) (A) (A)
                 (A) (A) (A) (A) (A) (A) (A) (A) (A) (A) (A) (A)
                 (A) (A) (A) (A) (A) (A) (A) (A) (A) (A) (A) (A)
                 (A) (A) (A) (A) (A) (A) (A) (A) (A) (A) (A) (A)
                 (A) (A) (A) (A) (A) (A) (A) (A) (A) (A) (A) (A)
                 (A) (A) (A) (A) (A) (A) (A) (A) (A) (A) (A) (A)
                 (A) (A) (A) (A) (A) (A) (A) (A) (A) (A) (A) (A)
                 (A) (A) (A) (A) (A) (A) (A) (A) (A) (A) (A) (A)
                 (A) (A) (A) (A) (A) (A) (A) (A) (A) (A) (A) (A)
                 (A) (A) (A) (A) (A) (A) (A) (A) (A) (A) (A) (A)
                 (A) (A) (A) (A) (A) (A) (A) (A) (A) (A) (A) (A)
                 (A) (A) (A) (A) (A) (A) (A) (A) (A) (A) (A) (A)
                 (A) (A) (A) (A) (A) (A) (A) (A) (A) (A) (A) (A)
                 (A) (A) (A) (A) (A) (A) (A) (A) (A) (A) (A) (A)
                 (A) (A) (A) (A) (A) (A) (A) (A) (A) (A) (A) (A)
                 (A) (A) (A) (A) (A) (A) (A) (A) (A) (A) (A) (A)
                 (A) (A) (A) (A) (A) (A) (A) (A) (A) (A) (A) (A)
                 (A) (A) (A) (A) (A) (A) (A) (A) (A) (A) (A) (A)
                 (A) (A) (A) (A) (A) (A) (A) (A) (A) (A) (A) (A)
                 (A) (A) (A) (A) (A) (A) (A) (A) (A) (A) (A) (A)
                 (A) (A) (A) (A) (A) (A) (A) (A) (A) (A) (A) (A)
                 (A) (A) (A) (A) (A) (A) (A) (A) (A) (A) (A) (A)
                 (A) (A) (A) (A) (A) (A) (A) (A) (A) (A) (A) (A)
                 (A) (A) (A) (A) (A) (A) (A) (A) (A) (A) (A) (A)
                 (A) (A) (A) (A) (A) (A) (A) (A) (A) (A) (A) (A)
                 (A) (A) (A) (A) (A) (A) (A) (A) (A) (A) (A) (A)
                 (A) (A) (A) (A) (A) (A) (A) (A) (A) (A) (A) (A)
                 (A) (A) (A) (A) (A) (A) (A) (A) (A) (A) (A) (A)
                 (A) (A) (A) (A) (A) (A) (A) (A) (A) (A) (A) (A)
                 (A) (A) (A) (A) (A) (A) (A) (A) (A) (A) (A) (A)
                 (A) (A) (A) (A) (A) (A) (A) (A) (A) (A) (A) (A)
                 (A) (A) (A) (A) (A) (A) (A) (A) (A) (A) (A) (A)
                 (A) (A) (A) (A) (A) (A) (A) (A) (A) (A) (A) (A)
                 (A) (A) (A) (A) (A) (A) (A) (A) (A) (A) (A) (A)
                 (A) (A) (A) (A) (A) (A) (A) (A) (A) (A) (A) (A)
                 (A) (A) (A) (A) (A) (A) (A) (A) (A) (A) (A) (A)
                 (A) (A) (A) (A) (A) (A) (A) (A) (A) (A) (A) (A)
                 (A) (A) (A) (A) (A) (A) (A) (A) (A) (A) (A) (A)
                 (A) (A) (A) (A) (A) (A) (A) (A) (A) (A) (A) (A)
                 (A) (A) (A) (A) (A) (A) (A) (A) (A) (A) (A) (A)
                 (A) (A) (A) (A) (A) (A) (A) (A) (A) (A) (A) (A)
                 (A) (A) (A) (A) (A) (A) (A) (A) (A) (A) (A) (A)
                 (A) (A) (A) (A) (A) (A) (A) (A) (A) (A) (A) (A)
                 (A) (A) (A) (A) (A) (A) (A) (A) (A) (A) (A) (A)
                 (A) (A) (A) (A) (A) (A) (A) (A) (A) (A) (A) (A)
                 (A) (A) (A) (A) (A) (A) (A) (A) (A) (A) (A) (A)
                 (A) (A) (A) (A) (A) (A) (A) (A) (A) (A) (A) (A)
                 (A) (A) (A) (A) (A) (A) (A) (A) (A) (A) (A) (A)
                 (A) (A) (A) (A) (A) (A) (A) (A) (A) (A) (A) (A)
                 (A) (A) (A) (A) (A) (A) (A) (A) (A) (A) (A) (A)
                 (A) (A) (A) (A) (A) (A) (A) (A) (A) (A) (A) (A)
                 (A) (A) (A) (A) (A) (A) (A) (A) (A) (A) (A) (A)
                 (A) (A) (A) (A) (A) (A) (A) (A) (A) (A) (A) (A)
                 (A) (A) (A) (A) (A) (A) (A) (A) (A) (A) (A) (A)
                 (A) (A) (A) (A) (A) (A) (A) (A) (A) (A) (A) (A)
                 (A) (A) (A) (A) (A) (A) (A) (A) (A) (A) (A) (A)
                 (A) (A) (A) (A) (A) (A) (A) (A) (A) (A) (A) (A)
                 (A) (A) (A) (A) (A) (A) (A) (A) (A) (A) (A) (A)
                 (A) (A) (A) (A) (A) (A) (A) (A) (A) (A) (A) (A)
                 (A) (A) (A) (A) (A) (A) (A) (A) (A) (A) (A) (A)
                 (A) (A) (A) (A) (A) (A) (A) (A) (A) (A) (A) (A)
                 (A) (A) (A) (A) (A) (A) (A) (A) (A) (A) (A) (A)
                 (A) (A) (A) (A) (A) (A) (A) (A) (A) (A) (A) (A)
                 (A) (A) (A) (A) (A) (A) (A) (A) (A) (A) (A) (A)
                 (A) (A) (A) (A) (A) (A) (A) (A) (A) (A) (A) (A)
                 (A) (A) (A) (A) (A) (A) (A) (A) (A) (A) (A) (A)
                 (A) (A) (A) (A) (A) (A) (A) (A) (A) (A) (A) (A)
                 (A) (A) (A) (A) (A) (A) (A) (A) (A) (A) (A) (A)
                 (A) (A) (A) (A) (A) (A) (A) (A) (A) (A) (A) (A)
                 (A) (A) (A) (A) (A) (A) (A) (A) (A) (A) (A) (A)
                 (A) (A) (A) (A) (A) (A) (A) (A) (A) (A) (A) (A)
                 (A) (A) (A) (A) (A) (A) (A) (A) (A) (A) (A) (A)
                 (A) (A) (A) (A) (A) (A) (A) (A) (A) (A) (A) (A)
                 (A) (A) (A) (A) (A) (A) (A) (A) (A) (A) (A) (A)
                 (A) (A) (A) (A) (A) (A) (A) (A) (A) (A) (A) (A)
                 (A) (A) (A) (A) (A) (A) (A) (A) (A) (A) (A) (A)
                 (A) (A) (A) (A) (A) (A) (A) (A) (A) (A) (A) (A)
                 (A) (A) (A) (A) (A) (A) (A) (A) (A) (A) (A) (A)
                 (A) (A) (A) (A) (A) (A) (A) (A) (A) (A) (A) (A)
                 (A) (A) (A) (A) (A) (A) (A) (A) (A) (A) (A) (A)
                 (A) (A) (A) (A) (A) (A) (A) (A) (A) (A) (A) (A)
                 (A) (A) (A) (A) (A) (A) (A) (A) (A) (A) (A) (A)
                 (A) (A) (A) (A) (A) (A) (A) (A) (A) (A) (A) (A)
                 (A) (A) (A) (A) (A) (A) (A) (A) (A) (A) (A) (A)
                 (A) (A) (A) (A) (A) (A) (A) (A) (A) (A) (A) (A)
                 (A) (A) (A) (A) (A) (A) (A) (A) (A) (A) (A) (A)
                 (A) (A) (A) (A) (A) (A) (A) (A) (A) (A) (A) (A)
                 (A) (A) (A) (A) (A) (A) (A) (A) (A) (A) (A) (A)
                 (A) (A) (A) (A) (A) (A) (A) (A) (A) (A) (A) (A)
                 (A) (A) (A) (A) (A) (A) (A) (A) (A) (A) (A) (A)
                 (A) (A) (A) (A) (A) (A) (A) (A) (A) (A) (A) (A)
                 (A) (A) (A) (A) (A) (A) (A) (A) (A) (A) (A) (A)
                 (A) (A) (A) (A) (A) (A) (A) (A) (A) (A) (A) (A)
                 (A) (A) (A) (A) (A) (A) (A) (A) (A) (A) (A) (A)
                 (A) (A) (A) (A) (A) (A) (A) (A) (A) (A) (A) (A)
                 (A) (A) (A) (A) (A) (A) (A) (A) (A) (A) (A) (A)
                 (A) (A) (A) (A) (A) (A) (A) (A) (A) (A) (A) (A)
                 (A) (A) (A) (A) (A) (A) (A) (A) (A) (A) (A) (A)
                 (A) (A) (A) (A) (A) (A) (A) (A) (A) (A) (A) (A)
                 (A) (A) (A) (A) (A) (A) (A) (A) (A) (A) (A) (A)
                 (A) (A) (A) (A) (A) (A) (A) (A) (A) (A) (A) (A)
                 (A) (A) (A) (A) (A) (A) (A) (A) (A) (A) (A) (A)
                 (A) (A) (A) (A) (A) (A) (A) (A) (A) (A) (A) (A)
                 (A) (A) (A) (A) (A) (A) (A) (A) (A) (A) (A) (A)
                 (A) (A) (A) (A) (A) (A) (A) (A) (A) (A) (A) (A)
                 (A) (A) (A) (A) (A) (A) (A) (A) (A) (A) (A) (A)
                 (A) (A) (A) (A) (A) (A) (A) (A) (A) (A) (A) (A)
                 (A) (A) (A) (A) (A) (A) (A) (A) (A) (A) (A) (A)
                 (A) (A) (A) (A) (A) (A) (A) (A) (A) (A) (A) (A)
                 (A) (A) (A) (A) (A) (A) (A) (A) (A) (A) (A) (A)
                 (A) (A) (A) (A) (A) (A) (A) (A) (A) (A) (A) (A)
                 (A) (A) (A) (A) (A) (A) (A) (A) (A) (A) (A) (A)
                 (A) (A) (A) (A) (A) (A) (A) (A) (A) (A) (A) (A)
                 (A) (A) (A) (A) (A) (A) (A) (A) (A) (A) (A) (A)
                 (A) (A) (A) (A) (A) (A) (A) (A) (A) (A) (A) (A)
                 (A) (A) (A) (A) (A) (A) (A) (A) (A) (A) (A) (A)
                 (A) (A) (A) (A) (A) (A) (A) (A) (A) (A) (A) (A)
                 (A) (A) (A) (A) (A) (A) (A) (A) (A) (A) (A) (A)
                 (A) (A) (A) (A) (A) (A) (A) (A) (A) (A) (A) (A)
                 (A) (A) (A) (A) (A) (A) (A) (A) (A) (A) (A) (A)
                 (A) (A) (A) (A) (A) (A) (A) (A) (A) (A) (A) (A)
                 (A) (A) (A) (A) (A) (A) (A) (A) (A) (A) (A) (A)
                 (A) (A) (A) (A) (A) (A) (A) (A) (A) (A) (A) (A)
                 (A) (A) (A) (A) (A) (A) (A) (A) (A) (A) (A) (A)
                 (A) (A) (A) (A) (A) (A) (A) (A) (A) (A) (A) (A)
                 (A) (A) (A) (A) (A) (A) (A) (A) (A) (A) (A) (A)
                 (A) (A) (A) (A) (A) (A) (A) (A) (A) (A) (A) (A)
                 (A) (A) (A) (A) (A) (A) (A) (A) (A) (A) (A) (A)
                 (A) (A) (A) (A) (A) (A) (A) (A) (A) (A) (A) (A)
                 (A) (A) (A) (A) (A) (A) (A) (A) (A) (A) (A) (A)
                 (A) (A) (A) (A) (A) (A) (A) (A) (A) (A) (A) (A)
                 (A) (A) (A) (A) (A) (A) (A) (A) (A) (A) (A) (A)
                 (A) (A) (A) (A) (A) (A) (A) (A) (A) (A) (A) (A)
                 (A) (A) (A) (A) (A) (A) (A) (A) (A) (A) (A) (A)
                 (A) (A) (A) (A) (A) (A) (A) (A) (A) (A) (A) (A)
                 (A) (A) (A) (A) (A) (A) (A) (A) (A) (A) (A) (A)
                 (A) (A) (A) (A) (A) (A) (A) (A) (A) (A) (A) (A)
                 (A) (A) (A) (A) (A) (A) (A) (A) (A) (A) (A) (A)
                 (A) (A) (A) (A) (A) (A) (A) (A) (A) (A) (A) (A)
                 (A) (A) (A) (A) (A) (A) (A) (A) (A) (A) (A) (A)
                 (A) (A) (A) (A) (A) (A) (A) (A) (A) (A) (A) (A)
                 (A) (A) (A) (A) (A) (A) (A) (A) (A) (A) (A) (A)
 The electronic state is 1-A.
 Alpha  occ. eigenvalues -- -256.34070 -30.10597 -25.93596 -25.93018 -25.92952
 Alpha  occ. eigenvalues --  -19.28556 -19.26640 -19.26018 -19.24164 -19.19963
 Alpha  occ. eigenvalues --  -19.18355 -19.17237 -19.16847 -19.16529 -19.16065
 Alpha  occ. eigenvalues --  -14.45904 -14.41806 -14.41375 -14.41071 -14.39047
 Alpha  occ. eigenvalues --  -14.39017 -10.36929 -10.36685 -10.34514 -10.33373
 Alpha  occ. eigenvalues --  -10.30240 -10.29629 -10.29458 -10.27553 -10.27409
 Alpha  occ. eigenvalues --  -10.27054 -10.26842 -10.26332 -10.25996 -10.25974
 Alpha  occ. eigenvalues --  -10.25950 -10.25740 -10.25711 -10.25187 -10.25019
 Alpha  occ. eigenvalues --  -10.24235 -10.24082 -10.24029 -10.23928 -10.23892
 Alpha  occ. eigenvalues --  -10.23509 -10.23479 -10.23450 -10.23430 -10.23362
 Alpha  occ. eigenvalues --  -10.23361 -10.23263 -10.23231 -10.23117 -10.23048
 Alpha  occ. eigenvalues --  -10.22909 -10.22816 -10.22786 -10.22215  -3.45669
 Alpha  occ. eigenvalues --   -2.21944  -2.20841  -2.20721  -1.18263  -1.17126
 Alpha  occ. eigenvalues --   -1.17000  -1.15467  -1.07464  -1.04302  -1.02057
 Alpha  occ. eigenvalues --   -1.01566  -1.01220  -1.00783  -0.99937  -0.98862
 Alpha  occ. eigenvalues --   -0.97814  -0.91970  -0.91786  -0.90926  -0.88344
 Alpha  occ. eigenvalues --   -0.87561  -0.84968  -0.84631  -0.84319  -0.82434
 Alpha  occ. eigenvalues --   -0.82115  -0.81889  -0.80756  -0.80505  -0.80067
 Alpha  occ. eigenvalues --   -0.79914  -0.77335  -0.75653  -0.74162  -0.73736
 Alpha  occ. eigenvalues --   -0.73119  -0.72338  -0.71329  -0.71206  -0.71070
 Alpha  occ. eigenvalues --   -0.68663  -0.68039  -0.67564  -0.66573  -0.66026
 Alpha  occ. eigenvalues --   -0.65886  -0.65857  -0.63386  -0.61709  -0.59786
 Alpha  occ. eigenvalues --   -0.59609  -0.57882  -0.57788  -0.57394  -0.56493
 Alpha  occ. eigenvalues --   -0.55895  -0.54849  -0.54471  -0.54086  -0.53590
 Alpha  occ. eigenvalues --   -0.52980  -0.52574  -0.52321  -0.51971  -0.51935
 Alpha  occ. eigenvalues --   -0.51083  -0.50480  -0.50256  -0.49657  -0.49504
 Alpha  occ. eigenvalues --   -0.49322  -0.49110  -0.49031  -0.48822  -0.48044
 Alpha  occ. eigenvalues --   -0.47995  -0.47383  -0.46933  -0.46434  -0.45979
 Alpha  occ. eigenvalues --   -0.45708  -0.45565  -0.45405  -0.44832  -0.44715
 Alpha  occ. eigenvalues --   -0.44460  -0.44294  -0.44183  -0.43860  -0.43683
 Alpha  occ. eigenvalues --   -0.43396  -0.43191  -0.42597  -0.42495  -0.42294
 Alpha  occ. eigenvalues --   -0.42078  -0.41940  -0.41695  -0.41260  -0.41124
 Alpha  occ. eigenvalues --   -0.40779  -0.40183  -0.39818  -0.39576  -0.39321
 Alpha  occ. eigenvalues --   -0.39154  -0.38883  -0.38462  -0.38371  -0.37861
 Alpha  occ. eigenvalues --   -0.37678  -0.37320  -0.37230  -0.36950  -0.36552
 Alpha  occ. eigenvalues --   -0.36247  -0.35967  -0.35805  -0.35378  -0.34959
 Alpha  occ. eigenvalues --   -0.34679  -0.34475  -0.34142  -0.33441  -0.32516
 Alpha  occ. eigenvalues --   -0.32398  -0.32158  -0.32058  -0.31122  -0.30376
 Alpha  occ. eigenvalues --   -0.29864  -0.29369  -0.28646  -0.27675  -0.26862
 Alpha  occ. eigenvalues --   -0.26617  -0.26445  -0.26155  -0.25709  -0.25618
 Alpha  occ. eigenvalues --   -0.24272  -0.23972  -0.23410  -0.21974  -0.21777
 Alpha  occ. eigenvalues --   -0.21284  -0.19015
 Alpha virt. eigenvalues --   -0.10066  -0.09737  -0.05569  -0.04585  -0.03024
 Alpha virt. eigenvalues --   -0.02799  -0.01473  -0.00251   0.00025   0.00758
 Alpha virt. eigenvalues --    0.01072   0.01150   0.01331   0.01861   0.02432
 Alpha virt. eigenvalues --    0.02817   0.03635   0.04182   0.04389   0.04959
 Alpha virt. eigenvalues --    0.05049   0.05215   0.05773   0.05977   0.06116
 Alpha virt. eigenvalues --    0.06561   0.06699   0.07485   0.07796   0.07886
 Alpha virt. eigenvalues --    0.08481   0.08885   0.09027   0.09178   0.09539
 Alpha virt. eigenvalues --    0.09861   0.10013   0.10163   0.10570   0.10980
 Alpha virt. eigenvalues --    0.11148   0.11232   0.11412   0.11650   0.11979
 Alpha virt. eigenvalues --    0.12037   0.12380   0.12505   0.12530   0.12814
 Alpha virt. eigenvalues --    0.13086   0.13163   0.13526   0.13808   0.13857
 Alpha virt. eigenvalues --    0.14332   0.14527   0.14796   0.14896   0.15467
 Alpha virt. eigenvalues --    0.15656   0.15978   0.16132   0.16371   0.16551
 Alpha virt. eigenvalues --    0.16907   0.17159   0.17429   0.17696   0.17767
 Alpha virt. eigenvalues --    0.17956   0.18248   0.18377   0.18614   0.18867
 Alpha virt. eigenvalues --    0.19249   0.19516   0.19568   0.19909   0.20039
 Alpha virt. eigenvalues --    0.20274   0.20541   0.20674   0.21001   0.21051
 Alpha virt. eigenvalues --    0.21231   0.21527   0.21637   0.22182   0.22337
 Alpha virt. eigenvalues --    0.22717   0.22783   0.22990   0.23184   0.23548
 Alpha virt. eigenvalues --    0.23766   0.23999   0.24096   0.24380   0.24539
 Alpha virt. eigenvalues --    0.24736   0.24931   0.25173   0.25376   0.25507
 Alpha virt. eigenvalues --    0.25915   0.26133   0.26493   0.26800   0.26822
 Alpha virt. eigenvalues --    0.26983   0.27317   0.27401   0.27707   0.27920
 Alpha virt. eigenvalues --    0.28010   0.28283   0.28854   0.29045   0.29112
 Alpha virt. eigenvalues --    0.29329   0.29518   0.29548   0.29959   0.30123
 Alpha virt. eigenvalues --    0.30461   0.30837   0.30911   0.31161   0.31547
 Alpha virt. eigenvalues --    0.31774   0.31786   0.32169   0.32411   0.32828
 Alpha virt. eigenvalues --    0.32936   0.32963   0.33251   0.33593   0.33776
 Alpha virt. eigenvalues --    0.33858   0.34137   0.34458   0.34510   0.34916
 Alpha virt. eigenvalues --    0.35163   0.35191   0.35391   0.35712   0.35718
 Alpha virt. eigenvalues --    0.35935   0.36244   0.36380   0.36425   0.36562
 Alpha virt. eigenvalues --    0.37021   0.37097   0.37380   0.37529   0.37753
 Alpha virt. eigenvalues --    0.37860   0.38014   0.38580   0.38782   0.38896
 Alpha virt. eigenvalues --    0.38950   0.39213   0.39300   0.39516   0.39859
 Alpha virt. eigenvalues --    0.40000   0.40121   0.40388   0.40547   0.40682
 Alpha virt. eigenvalues --    0.40855   0.40987   0.41143   0.41327   0.41484
 Alpha virt. eigenvalues --    0.41868   0.42073   0.42245   0.42372   0.42651
 Alpha virt. eigenvalues --    0.42756   0.42924   0.43291   0.43680   0.43744
 Alpha virt. eigenvalues --    0.43829   0.44170   0.44245   0.44513   0.44602
 Alpha virt. eigenvalues --    0.44851   0.44922   0.45157   0.45272   0.45479
 Alpha virt. eigenvalues --    0.45558   0.45774   0.45989   0.46326   0.46434
 Alpha virt. eigenvalues --    0.46615   0.46627   0.46717   0.46852   0.47092
 Alpha virt. eigenvalues --    0.47162   0.47320   0.47552   0.47641   0.47898
 Alpha virt. eigenvalues --    0.48156   0.48267   0.48326   0.48678   0.48817
 Alpha virt. eigenvalues --    0.49037   0.49256   0.49357   0.49537   0.49693
 Alpha virt. eigenvalues --    0.49869   0.50188   0.50343   0.50422   0.50667
 Alpha virt. eigenvalues --    0.51005   0.51061   0.51417   0.51536   0.51820
 Alpha virt. eigenvalues --    0.52009   0.52195   0.52514   0.52742   0.52935
 Alpha virt. eigenvalues --    0.53224   0.53461   0.53604   0.53901   0.54003
 Alpha virt. eigenvalues --    0.54043   0.54560   0.54796   0.54867   0.55065
 Alpha virt. eigenvalues --    0.55363   0.55627   0.56104   0.56257   0.56314
 Alpha virt. eigenvalues --    0.56513   0.56598   0.56862   0.56920   0.57157
 Alpha virt. eigenvalues --    0.57358   0.57431   0.58000   0.58186   0.58338
 Alpha virt. eigenvalues --    0.58469   0.58911   0.59091   0.59280   0.59363
 Alpha virt. eigenvalues --    0.59557   0.59699   0.59970   0.60275   0.60545
 Alpha virt. eigenvalues --    0.60757   0.60963   0.61272   0.61512   0.61707
 Alpha virt. eigenvalues --    0.62033   0.62277   0.62570   0.62616   0.62812
 Alpha virt. eigenvalues --    0.63078   0.63376   0.63563   0.63769   0.64049
 Alpha virt. eigenvalues --    0.64293   0.64538   0.64775   0.65299   0.65458
 Alpha virt. eigenvalues --    0.65565   0.65645   0.66185   0.66409   0.66578
 Alpha virt. eigenvalues --    0.66854   0.67248   0.67267   0.67782   0.67947
 Alpha virt. eigenvalues --    0.68092   0.68307   0.68467   0.68848   0.69349
 Alpha virt. eigenvalues --    0.69420   0.70246   0.70566   0.70705   0.70984
 Alpha virt. eigenvalues --    0.71117   0.71456   0.71533   0.71779   0.72168
 Alpha virt. eigenvalues --    0.72532   0.72655   0.73260   0.73363   0.73601
 Alpha virt. eigenvalues --    0.73710   0.74094   0.74356   0.74794   0.75260
 Alpha virt. eigenvalues --    0.75513   0.75751   0.75969   0.76463   0.76507
 Alpha virt. eigenvalues --    0.76689   0.76925   0.77196   0.77491   0.77854
 Alpha virt. eigenvalues --    0.77993   0.78234   0.78540   0.78651   0.79173
 Alpha virt. eigenvalues --    0.79273   0.79476   0.79809   0.80125   0.80528
 Alpha virt. eigenvalues --    0.80599   0.80934   0.81174   0.81424   0.81761
 Alpha virt. eigenvalues --    0.81894   0.82115   0.82532   0.82956   0.83143
 Alpha virt. eigenvalues --    0.83533   0.83549   0.83799   0.84185   0.84461
 Alpha virt. eigenvalues --    0.84776   0.85007   0.85132   0.85543   0.86160
 Alpha virt. eigenvalues --    0.86429   0.86878   0.87088   0.87382   0.87530
 Alpha virt. eigenvalues --    0.87629   0.87880   0.88362   0.88513   0.88855
 Alpha virt. eigenvalues --    0.89147   0.89488   0.89871   0.90206   0.90508
 Alpha virt. eigenvalues --    0.90701   0.90822   0.91333   0.91503   0.91837
 Alpha virt. eigenvalues --    0.92557   0.92751   0.92860   0.92876   0.93388
 Alpha virt. eigenvalues --    0.93536   0.93721   0.94370   0.94659   0.94956
 Alpha virt. eigenvalues --    0.95077   0.95217   0.95828   0.95898   0.96102
 Alpha virt. eigenvalues --    0.96317   0.96537   0.96728   0.97264   0.97450
 Alpha virt. eigenvalues --    0.98018   0.98233   0.98789   0.98937   0.99174
 Alpha virt. eigenvalues --    0.99253   0.99873   1.00073   1.00286   1.00688
 Alpha virt. eigenvalues --    1.00974   1.01257   1.01386   1.01565   1.01853
 Alpha virt. eigenvalues --    1.02251   1.02500   1.02822   1.03112   1.03461
 Alpha virt. eigenvalues --    1.03992   1.04200   1.04508   1.04646   1.04931
 Alpha virt. eigenvalues --    1.05317   1.05362   1.06187   1.06456   1.06581
 Alpha virt. eigenvalues --    1.06779   1.07290   1.07561   1.07803   1.08378
 Alpha virt. eigenvalues --    1.08587   1.09135   1.09222   1.09460   1.09864
 Alpha virt. eigenvalues --    1.10402   1.10746   1.10987   1.11559   1.11711
 Alpha virt. eigenvalues --    1.12002   1.12232   1.12632   1.12912   1.13225
 Alpha virt. eigenvalues --    1.13301   1.13784   1.14230   1.14351   1.14861
 Alpha virt. eigenvalues --    1.15421   1.15537   1.15589   1.16135   1.16390
 Alpha virt. eigenvalues --    1.16911   1.17235   1.17879   1.18262   1.18887
 Alpha virt. eigenvalues --    1.19104   1.19421   1.19851   1.20058   1.20413
 Alpha virt. eigenvalues --    1.21110   1.21235   1.21352   1.21787   1.22389
 Alpha virt. eigenvalues --    1.22707   1.22880   1.23379   1.23685   1.24068
 Alpha virt. eigenvalues --    1.24128   1.24972   1.25107   1.25307   1.25480
 Alpha virt. eigenvalues --    1.25727   1.26312   1.26466   1.27107   1.27447
 Alpha virt. eigenvalues --    1.27542   1.28120   1.28357   1.28641   1.28905
 Alpha virt. eigenvalues --    1.29806   1.30033   1.30163   1.30364   1.30830
 Alpha virt. eigenvalues --    1.31338   1.31583   1.32140   1.32391   1.32926
 Alpha virt. eigenvalues --    1.33179   1.33466   1.34218   1.34467   1.34552
 Alpha virt. eigenvalues --    1.34811   1.35097   1.35457   1.35757   1.36239
 Alpha virt. eigenvalues --    1.36374   1.36738   1.36962   1.37346   1.38218
 Alpha virt. eigenvalues --    1.38313   1.38517   1.39277   1.39378   1.39801
 Alpha virt. eigenvalues --    1.40218   1.40286   1.40999   1.41540   1.41681
 Alpha virt. eigenvalues --    1.42173   1.42563   1.42699   1.43354   1.43590
 Alpha virt. eigenvalues --    1.43980   1.44309   1.44878   1.44956   1.45052
 Alpha virt. eigenvalues --    1.45685   1.46029   1.46089   1.46431   1.46886
 Alpha virt. eigenvalues --    1.46984   1.47687   1.47785   1.48184   1.48478
 Alpha virt. eigenvalues --    1.48663   1.48884   1.49458   1.49741   1.50169
 Alpha virt. eigenvalues --    1.50553   1.51220   1.51537   1.51643   1.51729
 Alpha virt. eigenvalues --    1.52621   1.52799   1.53022   1.53153   1.53731
 Alpha virt. eigenvalues --    1.53986   1.54105   1.54368   1.54664   1.54932
 Alpha virt. eigenvalues --    1.55147   1.55344   1.55787   1.56255   1.56302
 Alpha virt. eigenvalues --    1.56638   1.57050   1.57283   1.57477   1.57843
 Alpha virt. eigenvalues --    1.58062   1.58458   1.58763   1.59024   1.59270
 Alpha virt. eigenvalues --    1.59418   1.59634   1.59794   1.60311   1.60459
 Alpha virt. eigenvalues --    1.60557   1.60701   1.60967   1.61058   1.61518
 Alpha virt. eigenvalues --    1.62083   1.62276   1.62393   1.62686   1.62788
 Alpha virt. eigenvalues --    1.63312   1.63524   1.63765   1.63951   1.64210
 Alpha virt. eigenvalues --    1.64496   1.64595   1.65113   1.65346   1.65373
 Alpha virt. eigenvalues --    1.65795   1.66127   1.66319   1.66497   1.67048
 Alpha virt. eigenvalues --    1.67359   1.67708   1.68162   1.68338   1.68787
 Alpha virt. eigenvalues --    1.68890   1.69120   1.69233   1.69717   1.69839
 Alpha virt. eigenvalues --    1.70250   1.70308   1.70849   1.71233   1.71550
 Alpha virt. eigenvalues --    1.72083   1.72868   1.72958   1.73258   1.73289
 Alpha virt. eigenvalues --    1.73524   1.74239   1.74529   1.74768   1.74925
 Alpha virt. eigenvalues --    1.74980   1.75331   1.75478   1.76529   1.76657
 Alpha virt. eigenvalues --    1.76840   1.77646   1.77878   1.78174   1.78409
 Alpha virt. eigenvalues --    1.78904   1.79368   1.79703   1.79731   1.81040
 Alpha virt. eigenvalues --    1.81192   1.81536   1.81862   1.82059   1.82645
 Alpha virt. eigenvalues --    1.83332   1.83568   1.84112   1.84415   1.84597
 Alpha virt. eigenvalues --    1.85118   1.85388   1.85545   1.85600   1.86568
 Alpha virt. eigenvalues --    1.86638   1.87207   1.87320   1.87711   1.88033
 Alpha virt. eigenvalues --    1.88104   1.88209   1.88701   1.89083   1.89337
 Alpha virt. eigenvalues --    1.89417   1.89953   1.90271   1.90911   1.91224
 Alpha virt. eigenvalues --    1.91583   1.91689   1.92258   1.92745   1.92958
 Alpha virt. eigenvalues --    1.93124   1.93745   1.93865   1.94095   1.94341
 Alpha virt. eigenvalues --    1.94721   1.95405   1.95515   1.95914   1.96425
 Alpha virt. eigenvalues --    1.96550   1.96898   1.97374   1.97583   1.98008
 Alpha virt. eigenvalues --    1.98225   1.98266   1.98835   1.99147   1.99633
 Alpha virt. eigenvalues --    2.00067   2.00229   2.00318   2.00781   2.01827
 Alpha virt. eigenvalues --    2.02231   2.02313   2.02695   2.03232   2.03463
 Alpha virt. eigenvalues --    2.03772   2.04202   2.04754   2.05127   2.05802
 Alpha virt. eigenvalues --    2.05996   2.06158   2.06924   2.07189   2.07749
 Alpha virt. eigenvalues --    2.08349   2.08559   2.09030   2.09223   2.09263
 Alpha virt. eigenvalues --    2.09631   2.09803   2.10238   2.10726   2.10980
 Alpha virt. eigenvalues --    2.11434   2.11492   2.11774   2.12132   2.12354
 Alpha virt. eigenvalues --    2.12867   2.13273   2.13578   2.14004   2.14067
 Alpha virt. eigenvalues --    2.14602   2.14799   2.14887   2.15162   2.15271
 Alpha virt. eigenvalues --    2.15485   2.15642   2.15970   2.16207   2.16842
 Alpha virt. eigenvalues --    2.17335   2.17507   2.17882   2.18131   2.18464
 Alpha virt. eigenvalues --    2.18694   2.19154   2.19203   2.19854   2.20097
 Alpha virt. eigenvalues --    2.20359   2.20694   2.21200   2.21579   2.21880
 Alpha virt. eigenvalues --    2.22327   2.22386   2.22833   2.23098   2.23960
 Alpha virt. eigenvalues --    2.24147   2.25042   2.25239   2.25448   2.25661
 Alpha virt. eigenvalues --    2.26396   2.26547   2.27110   2.27428   2.27657
 Alpha virt. eigenvalues --    2.28268   2.28753   2.28871   2.29313   2.29585
 Alpha virt. eigenvalues --    2.30260   2.30503   2.30961   2.31129   2.32152
 Alpha virt. eigenvalues --    2.32209   2.32391   2.32554   2.33125   2.33139
 Alpha virt. eigenvalues --    2.33561   2.33818   2.33990   2.34542   2.34883
 Alpha virt. eigenvalues --    2.34955   2.35746   2.36091   2.36231   2.36661
 Alpha virt. eigenvalues --    2.37363   2.37654   2.37694   2.38049   2.38468
 Alpha virt. eigenvalues --    2.39031   2.39222   2.39359   2.39570   2.39787
 Alpha virt. eigenvalues --    2.40213   2.40362   2.41293   2.41837   2.42175
 Alpha virt. eigenvalues --    2.42518   2.42599   2.43074   2.43402   2.43468
 Alpha virt. eigenvalues --    2.43928   2.44341   2.44696   2.45105   2.45728
 Alpha virt. eigenvalues --    2.45906   2.46523   2.46608   2.46801   2.47213
 Alpha virt. eigenvalues --    2.47457   2.47644   2.48163   2.48459   2.49236
 Alpha virt. eigenvalues --    2.49389   2.49586   2.50385   2.50717   2.51132
 Alpha virt. eigenvalues --    2.51702   2.51925   2.52614   2.53376   2.53712
 Alpha virt. eigenvalues --    2.53806   2.54127   2.54508   2.54880   2.55177
 Alpha virt. eigenvalues --    2.55610   2.56200   2.56589   2.56884   2.56951
 Alpha virt. eigenvalues --    2.57175   2.57512   2.57917   2.58456   2.58710
 Alpha virt. eigenvalues --    2.58988   2.59322   2.59645   2.60183   2.60276
 Alpha virt. eigenvalues --    2.60659   2.61016   2.61081   2.61655   2.62002
 Alpha virt. eigenvalues --    2.62240   2.62327   2.62938   2.63562   2.63927
 Alpha virt. eigenvalues --    2.64275   2.64603   2.64994   2.65273   2.65474
 Alpha virt. eigenvalues --    2.65819   2.66034   2.66469   2.66814   2.67116
 Alpha virt. eigenvalues --    2.67199   2.67833   2.68326   2.68507   2.68810
 Alpha virt. eigenvalues --    2.68885   2.69475   2.69781   2.70085   2.70213
 Alpha virt. eigenvalues --    2.70959   2.71392   2.71618   2.71898   2.72158
 Alpha virt. eigenvalues --    2.72455   2.72807   2.72979   2.73212   2.73523
 Alpha virt. eigenvalues --    2.73839   2.74015   2.74248   2.74611   2.75062
 Alpha virt. eigenvalues --    2.75370   2.75501   2.75828   2.75981   2.76256
 Alpha virt. eigenvalues --    2.76840   2.77004   2.77367   2.78036   2.78235
 Alpha virt. eigenvalues --    2.78638   2.78868   2.79323   2.79549   2.80007
 Alpha virt. eigenvalues --    2.80385   2.80887   2.81341   2.81903   2.82482
 Alpha virt. eigenvalues --    2.82901   2.83040   2.83149   2.83751   2.84070
 Alpha virt. eigenvalues --    2.84316   2.84511   2.84859   2.85181   2.85580
 Alpha virt. eigenvalues --    2.85959   2.86513   2.86585   2.87021   2.87335
 Alpha virt. eigenvalues --    2.87642   2.87965   2.88301   2.88402   2.88869
 Alpha virt. eigenvalues --    2.89526   2.89628   2.89842   2.90277   2.90837
 Alpha virt. eigenvalues --    2.91018   2.91361   2.91919   2.91943   2.92014
 Alpha virt. eigenvalues --    2.93105   2.93238   2.93431   2.93906   2.94468
 Alpha virt. eigenvalues --    2.94521   2.94828   2.95229   2.95581   2.96212
 Alpha virt. eigenvalues --    2.96252   2.96681   2.96993   2.97187   2.97574
 Alpha virt. eigenvalues --    2.97619   2.98032   2.98307   2.98491   2.98720
 Alpha virt. eigenvalues --    2.99127   2.99396   2.99554   3.00362   3.00781
 Alpha virt. eigenvalues --    3.01009   3.01840   3.02217   3.02455   3.02598
 Alpha virt. eigenvalues --    3.02838   3.03442   3.03613   3.03980   3.04111
 Alpha virt. eigenvalues --    3.04301   3.04344   3.04847   3.05078   3.05251
 Alpha virt. eigenvalues --    3.05521   3.05790   3.06119   3.06383   3.06653
 Alpha virt. eigenvalues --    3.06874   3.07033   3.07375   3.07475   3.07899
 Alpha virt. eigenvalues --    3.08065   3.08814   3.09373   3.09514   3.10132
 Alpha virt. eigenvalues --    3.10513   3.10625   3.10883   3.11189   3.11498
 Alpha virt. eigenvalues --    3.11673   3.12250   3.12534   3.12769   3.12849
 Alpha virt. eigenvalues --    3.13269   3.13597   3.13816   3.14064   3.14621
 Alpha virt. eigenvalues --    3.15114   3.15233   3.15759   3.15927   3.16272
 Alpha virt. eigenvalues --    3.16501   3.16699   3.16801   3.17235   3.17733
 Alpha virt. eigenvalues --    3.17884   3.18110   3.18425   3.18683   3.18844
 Alpha virt. eigenvalues --    3.19140   3.19283   3.19379   3.19703   3.20366
 Alpha virt. eigenvalues --    3.20517   3.20634   3.21015   3.21843   3.22007
 Alpha virt. eigenvalues --    3.22049   3.22411   3.22739   3.22812   3.23309
 Alpha virt. eigenvalues --    3.23507   3.23730   3.23831   3.24076   3.24165
 Alpha virt. eigenvalues --    3.24531   3.24979   3.25153   3.25188   3.25494
 Alpha virt. eigenvalues --    3.25747   3.26027   3.26202   3.26502   3.27098
 Alpha virt. eigenvalues --    3.27218   3.27338   3.27536   3.27721   3.28278
 Alpha virt. eigenvalues --    3.28533   3.28669   3.28765   3.28988   3.29298
 Alpha virt. eigenvalues --    3.29361   3.29500   3.30055   3.30477   3.30636
 Alpha virt. eigenvalues --    3.30794   3.31013   3.31294   3.31626   3.32035
 Alpha virt. eigenvalues --    3.32222   3.32473   3.33048   3.33152   3.33683
 Alpha virt. eigenvalues --    3.33719   3.33932   3.34152   3.34274   3.34718
 Alpha virt. eigenvalues --    3.34828   3.35197   3.35582   3.35874   3.36021
 Alpha virt. eigenvalues --    3.36183   3.36400   3.36647   3.36895   3.37110
 Alpha virt. eigenvalues --    3.37549   3.37594   3.37826   3.38068   3.38464
 Alpha virt. eigenvalues --    3.38780   3.38874   3.39084   3.39328   3.39993
 Alpha virt. eigenvalues --    3.40038   3.40701   3.40907   3.41410   3.41851
 Alpha virt. eigenvalues --    3.41983   3.42317   3.42587   3.42858   3.43004
 Alpha virt. eigenvalues --    3.43426   3.43902   3.44010   3.44313   3.44458
 Alpha virt. eigenvalues --    3.44722   3.45380   3.45476   3.45616   3.45929
 Alpha virt. eigenvalues --    3.46217   3.46410   3.46841   3.47250   3.47627
 Alpha virt. eigenvalues --    3.48016   3.48111   3.48511   3.48756   3.48832
 Alpha virt. eigenvalues --    3.49229   3.49327   3.49931   3.50261   3.50598
 Alpha virt. eigenvalues --    3.50688   3.51215   3.51421   3.51748   3.51889
 Alpha virt. eigenvalues --    3.52432   3.52649   3.53110   3.53621   3.53904
 Alpha virt. eigenvalues --    3.54328   3.54541   3.54755   3.55077   3.55254
 Alpha virt. eigenvalues --    3.55816   3.56305   3.56702   3.57365   3.57611
 Alpha virt. eigenvalues --    3.58087   3.58537   3.58861   3.58951   3.59527
 Alpha virt. eigenvalues --    3.59811   3.60392   3.60712   3.61523   3.61875
 Alpha virt. eigenvalues --    3.62038   3.62341   3.62531   3.62785   3.63495
 Alpha virt. eigenvalues --    3.63798   3.64063   3.64333   3.64893   3.65332
 Alpha virt. eigenvalues --    3.65870   3.65911   3.66165   3.66536   3.67300
 Alpha virt. eigenvalues --    3.67489   3.67981   3.68253   3.68568   3.68655
 Alpha virt. eigenvalues --    3.69268   3.70023   3.70282   3.70468   3.70827
 Alpha virt. eigenvalues --    3.70951   3.71420   3.71637   3.72295   3.72675
 Alpha virt. eigenvalues --    3.72789   3.73357   3.73579   3.73771   3.74824
 Alpha virt. eigenvalues --    3.75043   3.75321   3.75589   3.75766   3.76454
 Alpha virt. eigenvalues --    3.76927   3.77453   3.78181   3.78301   3.78758
 Alpha virt. eigenvalues --    3.79403   3.79963   3.80421   3.81024   3.81451
 Alpha virt. eigenvalues --    3.81729   3.81954   3.82361   3.82994   3.83391
 Alpha virt. eigenvalues --    3.83792   3.83922   3.84937   3.85349   3.85965
 Alpha virt. eigenvalues --    3.86886   3.87253   3.87773   3.88293   3.88721
 Alpha virt. eigenvalues --    3.89645   3.90000   3.90328   3.90656   3.91249
 Alpha virt. eigenvalues --    3.91549   3.91603   3.92341   3.92765   3.93344
 Alpha virt. eigenvalues --    3.93848   3.94494   3.95253   3.95317   3.95648
 Alpha virt. eigenvalues --    3.96142   3.96256   3.96588   3.96770   3.97004
 Alpha virt. eigenvalues --    3.97710   3.98325   3.98501   3.99800   4.00565
 Alpha virt. eigenvalues --    4.00995   4.01393   4.01488   4.02392   4.02676
 Alpha virt. eigenvalues --    4.03318   4.03843   4.04862   4.04979   4.05516
 Alpha virt. eigenvalues --    4.06151   4.06387   4.06436   4.07144   4.07609
 Alpha virt. eigenvalues --    4.07965   4.08252   4.08448   4.09252   4.09611
 Alpha virt. eigenvalues --    4.10258   4.11130   4.11588   4.11983   4.12277
 Alpha virt. eigenvalues --    4.12917   4.13198   4.13752   4.14450   4.15408
 Alpha virt. eigenvalues --    4.15702   4.16216   4.16872   4.17353   4.17851
 Alpha virt. eigenvalues --    4.18665   4.18939   4.19658   4.19946   4.20359
 Alpha virt. eigenvalues --    4.20620   4.21504   4.22142   4.22501   4.23014
 Alpha virt. eigenvalues --    4.23711   4.24324   4.25116   4.25238   4.25660
 Alpha virt. eigenvalues --    4.26128   4.26486   4.27415   4.28087   4.28355
 Alpha virt. eigenvalues --    4.28750   4.29497   4.29621   4.30102   4.30951
 Alpha virt. eigenvalues --    4.31588   4.31810   4.32106   4.32594   4.33160
 Alpha virt. eigenvalues --    4.33913   4.34078   4.34830   4.35690   4.36051
 Alpha virt. eigenvalues --    4.36423   4.36973   4.37228   4.38054   4.38386
 Alpha virt. eigenvalues --    4.38437   4.38980   4.39480   4.39976   4.41094
 Alpha virt. eigenvalues --    4.41729   4.41967   4.42208   4.43301   4.43649
 Alpha virt. eigenvalues --    4.44068   4.44219   4.44662   4.45105   4.45338
 Alpha virt. eigenvalues --    4.45946   4.46304   4.47235   4.47673   4.48159
 Alpha virt. eigenvalues --    4.48527   4.48738   4.49562   4.50003   4.50838
 Alpha virt. eigenvalues --    4.51436   4.52631   4.52837   4.53550   4.54584
 Alpha virt. eigenvalues --    4.55422   4.56376   4.56983   4.57054   4.57656
 Alpha virt. eigenvalues --    4.57676   4.58016   4.58815   4.59469   4.60167
 Alpha virt. eigenvalues --    4.61191   4.61588   4.61739   4.62019   4.62244
 Alpha virt. eigenvalues --    4.63174   4.64058   4.64159   4.65155   4.65454
 Alpha virt. eigenvalues --    4.66710   4.67375   4.67917   4.68558   4.68735
 Alpha virt. eigenvalues --    4.70030   4.70868   4.71397   4.72079   4.72628
 Alpha virt. eigenvalues --    4.73018   4.73805   4.74011   4.74735   4.75023
 Alpha virt. eigenvalues --    4.75672   4.76394   4.76911   4.77854   4.78150
 Alpha virt. eigenvalues --    4.78376   4.79080   4.79896   4.80423   4.81279
 Alpha virt. eigenvalues --    4.81473   4.82841   4.83153   4.83958   4.84540
 Alpha virt. eigenvalues --    4.85050   4.85544   4.86340   4.87111   4.87568
 Alpha virt. eigenvalues --    4.88613   4.89871   4.89998   4.90605   4.91788
 Alpha virt. eigenvalues --    4.92237   4.92631   4.93625   4.94920   4.95213
 Alpha virt. eigenvalues --    4.95839   4.96397   4.97314   4.97801   4.98435
 Alpha virt. eigenvalues --    4.99076   5.00420   5.01510   5.01950   5.03005
 Alpha virt. eigenvalues --    5.03190   5.04233   5.04529   5.05082   5.05608
 Alpha virt. eigenvalues --    5.06603   5.07008   5.08132   5.08812   5.10205
 Alpha virt. eigenvalues --    5.10402   5.11999   5.12174   5.15105   5.15802
 Alpha virt. eigenvalues --    5.16466   5.16704   5.17014   5.17465   5.18928
 Alpha virt. eigenvalues --    5.19021   5.19965   5.20556   5.20763   5.20814
 Alpha virt. eigenvalues --    5.21068   5.21543   5.21941   5.21993   5.22759
 Alpha virt. eigenvalues --    5.23327   5.23770   5.24074   5.24435   5.24615
 Alpha virt. eigenvalues --    5.24655   5.25009   5.25559   5.26070   5.26689
 Alpha virt. eigenvalues --    5.27853   5.28543   5.28803   5.29366   5.30444
 Alpha virt. eigenvalues --    5.30673   5.30962   5.31802   5.32106   5.33750
 Alpha virt. eigenvalues --    5.34285   5.34798   5.35388   5.36218   5.36782
 Alpha virt. eigenvalues --    5.37422   5.37526   5.38219   5.39586   5.40229
 Alpha virt. eigenvalues --    5.40763   5.41232   5.41991   5.43007   5.43751
 Alpha virt. eigenvalues --    5.44646   5.45833   5.46431   5.46923   5.47950
 Alpha virt. eigenvalues --    5.49152   5.49466   5.50481   5.51122   5.52297
 Alpha virt. eigenvalues --    5.54056   5.55704   5.55997   5.56657   5.57060
 Alpha virt. eigenvalues --    5.57727   5.58371   5.58651   5.58756   5.59210
 Alpha virt. eigenvalues --    5.60234   5.61374   5.61741   5.63353   5.65612
 Alpha virt. eigenvalues --    5.67015   5.68117   5.69023   5.69134   5.69443
 Alpha virt. eigenvalues --    5.70057   5.70436   5.72514   5.73306   5.74543
 Alpha virt. eigenvalues --    5.74997   5.76671   5.78773   5.80437   5.81975
 Alpha virt. eigenvalues --    5.83771   5.85062   5.85809   5.88679   5.89807
 Alpha virt. eigenvalues --    5.90860   5.92244   5.92588   5.93790   5.95205
 Alpha virt. eigenvalues --    5.96756   5.97102   5.99152   6.00385   6.03136
 Alpha virt. eigenvalues --    6.03396   6.05067   6.06317   6.06930   6.07294
 Alpha virt. eigenvalues --    6.07493   6.11759   6.14410   6.14722   6.15582
 Alpha virt. eigenvalues --    6.16234   6.17282   6.18696   6.21065   6.21861
 Alpha virt. eigenvalues --    6.22979   6.25909   6.28469   6.28605   6.30069
 Alpha virt. eigenvalues --    6.30259   6.32377   6.33736   6.34138   6.36072
 Alpha virt. eigenvalues --    6.37519   6.38205   6.39347   6.40180   6.41240
 Alpha virt. eigenvalues --    6.41285   6.44706   6.44836   6.47845   6.48975
 Alpha virt. eigenvalues --    6.49666   6.50689   6.52260   6.53142   6.54559
 Alpha virt. eigenvalues --    6.55282   6.60455   6.64317   6.65576   6.66269
 Alpha virt. eigenvalues --    6.68396   6.72240   6.72467   6.73418   6.74193
 Alpha virt. eigenvalues --    6.74544   6.79603   6.80076   6.82515   6.83470
 Alpha virt. eigenvalues --    6.86338   6.88393   6.89908   6.92252   6.95698
 Alpha virt. eigenvalues --    6.95739   6.97382   6.97833   6.98183   7.06095
 Alpha virt. eigenvalues --    7.06913   7.06988   7.08228   7.09641   7.10271
 Alpha virt. eigenvalues --    7.10820   7.14442   7.15231   7.16528   7.17554
 Alpha virt. eigenvalues --    7.17866   7.20253   7.22821   7.33869   7.34427
 Alpha virt. eigenvalues --    7.39457  22.51801  22.52365  22.54202  22.58553
 Alpha virt. eigenvalues --   22.62365  22.66695  22.67329  22.69248  22.72461
 Alpha virt. eigenvalues --   22.73418  22.79354  22.83074  22.85043  22.92818
 Alpha virt. eigenvalues --   22.94260  22.96529  22.96733  23.00936  23.05176
 Alpha virt. eigenvalues --   23.06375  23.07074  23.09221  23.13142  23.24747
 Alpha virt. eigenvalues --   23.27398  23.28781  23.30105  23.32468  23.41698
 Alpha virt. eigenvalues --   23.44163  23.48960  23.54645  23.55456  23.63091
 Alpha virt. eigenvalues --   23.74969  23.79511  23.84106  23.87875  32.46063
 Alpha virt. eigenvalues --   32.58313  32.79178  32.81733  32.85686  32.98511
 Alpha virt. eigenvalues --   43.90692  43.91281  43.91969  43.97317  44.02495
 Alpha virt. eigenvalues --   44.03470  44.06446  44.08967  44.11369  44.19710
          Condensed to atoms (all electrons):
 Mulliken charges:
               1
     1  C   -0.389619
     2  C    0.152057
     3  N   -0.215090
     4  C   -0.171390
     5  C    0.055111
     6  N   -0.105376
     7  Fe   0.104060
     8  C   -0.467206
     9  C   -0.527508
    10  C   -0.583873
    11  C   -0.528642
    12  N   -0.187404
    13  C    0.258201
    14  C    0.014787
    15  C   -0.065986
    16  C    0.422291
    17  C   -0.403767
    18  C   -0.327300
    19  C   -0.192476
    20  C    0.278572
    21  O   -0.304154
    22  O   -0.407109
    23  N   -0.106992
    24  C    0.273484
    25  C   -0.217279
    26  O   -0.457353
    27  C    0.574057
    28  C   -0.365937
    29  C   -0.204729
    30  C    0.210902
    31  O   -0.353882
    32  O   -0.399104
    33  C    0.219235
    34  N   -0.133503
    35  C    0.362505
    36  C   -0.304340
    37  O   -0.446041
    38  C    0.763263
    39  C   -0.413888
    40  C   -0.198736
    41  C    0.195505
    42  O   -0.358698
    43  O   -0.368054
    44  C   -0.001242
    45  N   -0.124891
    46  C    0.316796
    47  C   -0.096775
    48  C   -0.021649
    49  C    0.282713
    50  C   -0.362176
    51  C   -0.319959
    52  C   -0.212056
    53  C    0.316170
    54  O   -0.364396
    55  O   -0.329771
    56  H    0.140820
    57  H    0.142649
    58  H    0.144713
    59  H    0.153959
    60  H    0.181946
    61  H    0.238569
    62  H    0.128337
    63  H    0.118398
    64  H    0.129378
    65  H    0.138716
    66  H    0.140033
    67  H    0.144334
    68  H    0.107226
    69  H    0.131211
    70  H    0.125716
    71  H    0.079087
    72  H    0.144382
    73  H    0.354129
    74  H    0.129962
    75  H    0.148886
    76  H    0.146951
    77  H    0.131649
    78  H    0.136555
    79  H    0.127685
    80  H    0.140475
    81  H    0.345244
    82  H    0.146364
    83  H    0.148720
    84  H    0.149216
    85  H    0.135456
    86  H    0.165686
    87  H    0.139013
    88  H    0.152149
    89  H    0.163259
    90  H    0.349677
    91  H    0.167408
    92  H    0.117324
    93  H    0.353357
 Sum of Mulliken charges =  -0.00000
 Mulliken charges with hydrogens summed into heavy atoms:
               1
     1  C    0.038564
     2  C    0.152057
     3  N    0.023479
     4  C   -0.017431
     5  C    0.237057
     6  N   -0.105376
     7  Fe   0.104060
     8  C   -0.337829
     9  C   -0.409110
    10  C   -0.455536
    11  C   -0.389926
    12  N   -0.187404
    13  C    0.258201
    14  C    0.014787
    15  C   -0.065986
    16  C    0.422291
    17  C    0.022031
    18  C   -0.059096
    19  C    0.075684
    20  C    0.278572
    21  O    0.041090
    22  O   -0.407109
    23  N   -0.106992
    24  C    0.273484
    25  C   -0.217279
    26  O   -0.457353
    27  C    0.574057
    28  C    0.078364
    29  C    0.110678
    30  C    0.210902
    31  O   -0.004204
    32  O   -0.399104
    33  C    0.219235
    34  N   -0.133503
    35  C    0.362505
    36  C   -0.304340
    37  O   -0.446041
    38  C    0.763263
    39  C    0.026267
    40  C    0.085997
    41  C    0.195505
    42  O   -0.005341
    43  O   -0.368054
    44  C   -0.001242
    45  N   -0.124891
    46  C    0.316796
    47  C   -0.096775
    48  C   -0.021649
    49  C    0.282713
    50  C    0.029417
    51  C   -0.063033
    52  C    0.011413
    53  C    0.316170
    54  O   -0.010266
    55  O   -0.329771
 Electronic spatial extent (au):  <R**2>=          38249.8410
 Charge=              0.0000 electrons
 Dipole moment (field-independent basis, Debye):
    X=             -6.8935    Y=              6.4621    Z=              4.3316  Tot=             10.3943
 Quadrupole moment (field-independent basis, Debye-Ang):
   XX=           -347.9737   YY=           -288.7910   ZZ=           -299.1463
   XY=             -6.5848   XZ=             11.4446   YZ=              5.2948
 Traceless Quadrupole moment (field-independent basis, Debye-Ang):
   XX=            -36.0034   YY=             23.1794   ZZ=             12.8240
   XY=             -6.5848   XZ=             11.4446   YZ=              5.2948
 Octapole moment (field-independent basis, Debye-Ang**2):
  XXX=            -68.3403  YYY=            368.7263  ZZZ=            183.9864  XYY=           -326.5885
  XXY=             -8.0843  XXZ=            -20.2514  XZZ=            117.0558  YZZ=             30.8984
  YYZ=            105.3917  XYZ=            -71.1707
 Hexadecapole moment (field-independent basis, Debye-Ang**3):
 XXXX=         -26706.9789 YYYY=         -15497.7803 ZZZZ=          -5041.5257 XXXY=          -1329.5559
 XXXZ=            743.0339 YYYX=            357.8709 YYYZ=            109.7699 ZZZX=            278.9814
 ZZZY=             95.8368 XXYY=          -6242.5878 XXZZ=          -5848.7175 YYZZ=          -3613.4733
 XXYZ=            607.8630 YYXZ=            656.1425 ZZXY=            -22.1959
 N-N= 8.786488129993D+03 E-N=-2.653979314315D+04  KE= 3.800926673389D+03
 ******************************Gaussian NBO Version 3.1******************************
             N A T U R A L   A T O M I C   O R B I T A L   A N D
          N A T U R A L   B O N D   O R B I T A L   A N A L Y S I S
 ******************************Gaussian NBO Version 3.1******************************
       /RESON  / : Allow strongly delocalized NBO set

 Analyzing the SCF density

 Job title: 1h9xd_II_S_nbo                                                  

 Storage needed:  11400414 in NPA,  15177771 in NBO (2147439473 available)
 GSVD:  LWork=     1635929 too small for GESVD, short by     2664507 words or     2664507 for optimal perf.


 NATURAL POPULATIONS:  Natural atomic orbital occupancies 
                                                          
   NAO  Atom  No  lang   Type(AO)    Occupancy      Energy
 ----------------------------------------------------------
     1    C    1  S      Cor( 1S)     1.99939     -10.08362
     2    C    1  S      Val( 2S)     1.10079      -0.31556
     3    C    1  S      Ryd( 3S)     0.00078       0.99887
     4    C    1  S      Ryd( 4S)     0.00009       1.82099
     5    C    1  S      Ryd( 5S)     0.00000      21.64846
     6    C    1  px     Val( 2p)     1.23043      -0.12991
     7    C    1  px     Ryd( 3p)     0.00045       0.82305
     8    C    1  px     Ryd( 4p)     0.00005       1.32979
     9    C    1  py     Val( 2p)     1.23662      -0.13074
    10    C    1  py     Ryd( 3p)     0.00063       0.83216
    11    C    1  py     Ryd( 4p)     0.00004       1.32080
    12    C    1  pz     Val( 2p)     1.06715      -0.12227
    13    C    1  pz     Ryd( 3p)     0.00047       0.72155
    14    C    1  pz     Ryd( 4p)     0.00026       1.23995
    15    C    1  dxy    Ryd( 4d)     0.00053       2.82717
    16    C    1  dxy    Ryd( 3d)     0.00006       2.33664
    17    C    1  dxz    Ryd( 4d)     0.00052       2.76552
    18    C    1  dxz    Ryd( 3d)     0.00007       2.24066
    19    C    1  dyz    Ryd( 4d)     0.00042       2.75955
    20    C    1  dyz    Ryd( 3d)     0.00006       2.32148
    21    C    1  dx2y2  Ryd( 4d)     0.00049       2.68617
    22    C    1  dx2y2  Ryd( 3d)     0.00019       2.23465
    23    C    1  dz2    Ryd( 4d)     0.00093       3.46401
    24    C    1  dz2    Ryd( 3d)     0.00002       2.54193
    25    C    1  f(0)   Ryd( 4f)     0.00016       3.66483
    26    C    1  f(C1)  Ryd( 4f)     0.00003       3.36325
    27    C    1  f(S1)  Ryd( 4f)     0.00003       3.38093
    28    C    1  f(C2)  Ryd( 4f)     0.00004       3.34295
    29    C    1  f(S2)  Ryd( 4f)     0.00002       3.38100
    30    C    1  f(C3)  Ryd( 4f)     0.00008       3.50107
    31    C    1  f(S3)  Ryd( 4f)     0.00004       3.31628

    32    C    2  S      Cor( 1S)     1.99911     -10.12789
    33    C    2  S      Val( 2S)     0.89937      -0.22222
    34    C    2  S      Ryd( 3S)     0.00119       1.28437
    35    C    2  S      Ryd( 4S)     0.00005       1.70903
    36    C    2  S      Ryd( 5S)     0.00000      21.24931
    37    C    2  px     Val( 2p)     0.98571      -0.10523
    38    C    2  px     Ryd( 3p)     0.00293       0.89574
    39    C    2  px     Ryd( 4p)     0.00030       1.31099
    40    C    2  py     Val( 2p)     0.94976      -0.09074
    41    C    2  py     Ryd( 3p)     0.00308       0.96115
    42    C    2  py     Ryd( 4p)     0.00024       1.36996
    43    C    2  pz     Val( 2p)     1.04429      -0.07892
    44    C    2  pz     Ryd( 3p)     0.00329       1.51051
    45    C    2  pz     Ryd( 4p)     0.00033       1.81666
    46    C    2  dxy    Ryd( 4d)     0.00037       3.81949
    47    C    2  dxy    Ryd( 3d)     0.00013       2.82116
    48    C    2  dxz    Ryd( 4d)     0.00067       3.28108
    49    C    2  dxz    Ryd( 3d)     0.00012       2.72987
    50    C    2  dyz    Ryd( 4d)     0.00072       3.45827
    51    C    2  dyz    Ryd( 3d)     0.00014       2.84930
    52    C    2  dx2y2  Ryd( 4d)     0.00075       3.02235
    53    C    2  dx2y2  Ryd( 3d)     0.00018       2.20788
    54    C    2  dz2    Ryd( 3d)     0.00066       3.57743
    55    C    2  dz2    Ryd( 4d)     0.00005       4.07385
    56    C    2  f(0)   Ryd( 4f)     0.00022       4.08188
    57    C    2  f(C1)  Ryd( 4f)     0.00015       3.80007
    58    C    2  f(S1)  Ryd( 4f)     0.00010       3.97112
    59    C    2  f(C2)  Ryd( 4f)     0.00004       3.41962
    60    C    2  f(S2)  Ryd( 4f)     0.00009       3.73900
    61    C    2  f(C3)  Ryd( 4f)     0.00006       3.43463
    62    C    2  f(S3)  Ryd( 4f)     0.00009       3.36233

    63    N    3  S      Cor( 1S)     1.99936     -14.25752
    64    N    3  S      Val( 2S)     1.23938      -0.59858
    65    N    3  S      Ryd( 3S)     0.00071       1.88102
    66    N    3  S      Ryd( 4S)     0.00008       2.39433
    67    N    3  S      Ryd( 5S)     0.00000      30.59006
    68    N    3  px     Val( 2p)     1.47907      -0.29144
    69    N    3  px     Ryd( 3p)     0.00223       0.81433
    70    N    3  px     Ryd( 4p)     0.00030       2.32815
    71    N    3  py     Val( 2p)     1.43723      -0.28893
    72    N    3  py     Ryd( 3p)     0.00218       0.96162
    73    N    3  py     Ryd( 4p)     0.00031       2.39511
    74    N    3  pz     Val( 2p)     1.30924      -0.28253
    75    N    3  pz     Ryd( 3p)     0.00210       0.99607
    76    N    3  pz     Ryd( 4p)     0.00025       3.00588
    77    N    3  dxy    Ryd( 3d)     0.00275       1.59036
    78    N    3  dxy    Ryd( 4d)     0.00005       4.77117
    79    N    3  dxz    Ryd( 3d)     0.00126       1.42849
    80    N    3  dxz    Ryd( 4d)     0.00018       4.64720
    81    N    3  dyz    Ryd( 3d)     0.00150       1.53688
    82    N    3  dyz    Ryd( 4d)     0.00019       4.76018
    83    N    3  dx2y2  Ryd( 3d)     0.00102       1.22312
    84    N    3  dx2y2  Ryd( 4d)     0.00007       4.41362
    85    N    3  dz2    Ryd( 3d)     0.00361       1.71473
    86    N    3  dz2    Ryd( 4d)     0.00009       4.92645
    87    N    3  f(0)   Ryd( 4f)     0.00021       5.13643
    88    N    3  f(C1)  Ryd( 4f)     0.00020       4.58667
    89    N    3  f(S1)  Ryd( 4f)     0.00015       4.68853
    90    N    3  f(C2)  Ryd( 4f)     0.00003       4.33971
    91    N    3  f(S2)  Ryd( 4f)     0.00022       4.81874
    92    N    3  f(C3)  Ryd( 4f)     0.00022       4.51892
    93    N    3  f(S3)  Ryd( 4f)     0.00028       4.35517

    94    C    4  S      Cor( 1S)     1.99890     -10.10175
    95    C    4  S      Val( 2S)     0.94746      -0.21243
    96    C    4  S      Ryd( 4S)     0.00161       1.39276
    97    C    4  S      Ryd( 3S)     0.00015       1.32217
    98    C    4  S      Ryd( 5S)     0.00000      21.84828
    99    C    4  px     Val( 2p)     1.08888      -0.10261
   100    C    4  px     Ryd( 3p)     0.00220       0.87819
   101    C    4  px     Ryd( 4p)     0.00062       1.31881
   102    C    4  py     Val( 2p)     1.11833      -0.09281
   103    C    4  py     Ryd( 3p)     0.00235       0.98606
   104    C    4  py     Ryd( 4p)     0.00072       1.37934
   105    C    4  pz     Val( 2p)     0.90263      -0.06019
   106    C    4  pz     Ryd( 3p)     0.00339       0.95987
   107    C    4  pz     Ryd( 4p)     0.00064       1.49192
   108    C    4  dxy    Ryd( 3d)     0.00120       1.65416
   109    C    4  dxy    Ryd( 4d)     0.00014       3.37413
   110    C    4  dxz    Ryd( 3d)     0.00100       1.54971
   111    C    4  dxz    Ryd( 4d)     0.00026       3.20197
   112    C    4  dyz    Ryd( 3d)     0.00125       1.65176
   113    C    4  dyz    Ryd( 4d)     0.00031       3.30342
   114    C    4  dx2y2  Ryd( 3d)     0.00110       1.26066
   115    C    4  dx2y2  Ryd( 4d)     0.00006       2.86522
   116    C    4  dz2    Ryd( 3d)     0.00045       1.78125
   117    C    4  dz2    Ryd( 4d)     0.00051       3.49337
   118    C    4  f(0)   Ryd( 4f)     0.00002       3.87261
   119    C    4  f(C1)  Ryd( 4f)     0.00009       3.73317
   120    C    4  f(S1)  Ryd( 4f)     0.00009       3.95221
   121    C    4  f(C2)  Ryd( 4f)     0.00006       3.50584
   122    C    4  f(S2)  Ryd( 4f)     0.00006       3.87237
   123    C    4  f(C3)  Ryd( 4f)     0.00015       3.66079
   124    C    4  f(S3)  Ryd( 4f)     0.00020       3.34754

   125    C    5  S      Cor( 1S)     1.99939     -10.15963
   126    C    5  S      Val( 2S)     0.90368      -0.21276
   127    C    5  S      Ryd( 3S)     0.00222       1.32627
   128    C    5  S      Ryd( 4S)     0.00004       1.63754
   129    C    5  S      Ryd( 5S)     0.00000      21.47036
   130    C    5  px     Val( 2p)     0.99064      -0.12039
   131    C    5  px     Ryd( 3p)     0.00360       0.92093
   132    C    5  px     Ryd( 4p)     0.00095       1.25521
   133    C    5  py     Val( 2p)     0.99732      -0.10480
   134    C    5  py     Ryd( 3p)     0.00380       1.01837
   135    C    5  py     Ryd( 4p)     0.00090       1.30313
   136    C    5  pz     Val( 2p)     0.89270      -0.05688
   137    C    5  pz     Ryd( 3p)     0.00356       1.19801
   138    C    5  pz     Ryd( 4p)     0.00124       1.46347
   139    C    5  dxy    Ryd( 4d)     0.00025       3.66509
   140    C    5  dxy    Ryd( 3d)     0.00024       2.41044
   141    C    5  dxz    Ryd( 4d)     0.00074       3.37674
   142    C    5  dxz    Ryd( 3d)     0.00007       2.56615
   143    C    5  dyz    Ryd( 4d)     0.00074       3.55066
   144    C    5  dyz    Ryd( 3d)     0.00008       2.70563
   145    C    5  dx2y2  Ryd( 4d)     0.00051       3.10517
   146    C    5  dx2y2  Ryd( 3d)     0.00026       2.11234
   147    C    5  dz2    Ryd( 4d)     0.00052       4.05135
   148    C    5  dz2    Ryd( 3d)     0.00028       2.86157
   149    C    5  f(0)   Ryd( 4f)     0.00007       3.82784
   150    C    5  f(C1)  Ryd( 4f)     0.00006       3.73865
   151    C    5  f(S1)  Ryd( 4f)     0.00006       3.94342
   152    C    5  f(C2)  Ryd( 4f)     0.00002       3.35746
   153    C    5  f(S2)  Ryd( 4f)     0.00009       3.94099
   154    C    5  f(C3)  Ryd( 4f)     0.00010       3.46310
   155    C    5  f(S3)  Ryd( 4f)     0.00010       3.34692

   156    N    6  S      Cor( 1S)     1.99942     -14.21867
   157    N    6  S      Val( 2S)     1.33197      -0.56978
   158    N    6  S      Ryd( 3S)     0.00395       1.21013
   159    N    6  S      Ryd( 4S)     0.00008       3.49729
   160    N    6  S      Ryd( 5S)     0.00000      31.89068
   161    N    6  px     Val( 2p)     1.29628      -0.20774
   162    N    6  px     Ryd( 3p)     0.00619       0.85506
   163    N    6  px     Ryd( 4p)     0.00012       2.80586
   164    N    6  py     Val( 2p)     1.27478      -0.20436
   165    N    6  py     Ryd( 3p)     0.00685       0.94867
   166    N    6  py     Ryd( 4p)     0.00012       3.04636
   167    N    6  pz     Val( 2p)     1.45473      -0.22606
   168    N    6  pz     Ryd( 3p)     0.00944       1.51475
   169    N    6  pz     Ryd( 4p)     0.00028       3.41431
   170    N    6  dxy    Ryd( 3d)     0.00361       1.59740
   171    N    6  dxy    Ryd( 4d)     0.00008       4.91071
   172    N    6  dxz    Ryd( 3d)     0.00313       1.52268
   173    N    6  dxz    Ryd( 4d)     0.00009       4.83355
   174    N    6  dyz    Ryd( 3d)     0.00334       1.59199
   175    N    6  dyz    Ryd( 4d)     0.00013       4.90545
   176    N    6  dx2y2  Ryd( 3d)     0.00125       1.33294
   177    N    6  dx2y2  Ryd( 4d)     0.00018       4.63992
   178    N    6  dz2    Ryd( 3d)     0.00357       1.63666
   179    N    6  dz2    Ryd( 4d)     0.00020       4.99221
   180    N    6  f(0)   Ryd( 4f)     0.00005       4.77996
   181    N    6  f(C1)  Ryd( 4f)     0.00009       4.60066
   182    N    6  f(S1)  Ryd( 4f)     0.00010       4.73355
   183    N    6  f(C2)  Ryd( 4f)     0.00004       4.45243
   184    N    6  f(S2)  Ryd( 4f)     0.00016       4.67619
   185    N    6  f(C3)  Ryd( 4f)     0.00017       4.58221
   186    N    6  f(S3)  Ryd( 4f)     0.00026       4.47409

   187   Fe    7  S      Cor( 1S)     2.00000    -250.43062
   188   Fe    7  S      Cor( 2S)     2.00000     -34.70717
   189   Fe    7  S      Cor( 3S)     1.99559      -4.69252
   190   Fe    7  S      Val( 4S)     0.22622       0.32064
   191   Fe    7  S      Ryd( 5S)     0.00083       0.91480
   192   Fe    7  S      Ryd( 6S)     0.00015       1.74185
   193   Fe    7  px     Cor( 2p)     2.00000     -25.86399
   194   Fe    7  px     Cor( 3p)     1.99856      -2.26306
   195   Fe    7  px     Val( 4p)     0.17430       0.51946
   196   Fe    7  px     Ryd( 5p)     0.00016       2.16357
   197   Fe    7  py     Cor( 2p)     2.00000     -25.86328
   198   Fe    7  py     Cor( 3p)     1.99858      -2.26243
   199   Fe    7  py     Val( 4p)     0.17379       0.51438
   200   Fe    7  py     Ryd( 5p)     0.00017       2.17328
   201   Fe    7  pz     Cor( 2p)     2.00000     -25.86614
   202   Fe    7  pz     Cor( 3p)     1.99866      -2.27471
   203   Fe    7  pz     Val( 4p)     0.12972       0.34128
   204   Fe    7  pz     Ryd( 5p)     0.00061       2.06468
   205   Fe    7  dxy    Val( 3d)     0.62979      -0.08805
   206   Fe    7  dxy    Ryd( 4d)     0.00340       1.38763
   207   Fe    7  dxy    Ryd( 6d)     0.00025       2.43492
   208   Fe    7  dxy    Ryd( 5d)     0.00039       2.25951
   209   Fe    7  dxz    Val( 3d)     1.86213      -0.22255
   210   Fe    7  dxz    Ryd( 4d)     0.00399       0.92737
   211   Fe    7  dxz    Ryd( 5d)     0.00019       2.04728
   212   Fe    7  dxz    Ryd( 6d)     0.00015       2.61164
   213   Fe    7  dyz    Val( 3d)     1.75294      -0.21173
   214   Fe    7  dyz    Ryd( 4d)     0.00393       0.91429
   215   Fe    7  dyz    Ryd( 5d)     0.00017       2.04664
   216   Fe    7  dyz    Ryd( 6d)     0.00014       2.61676
   217   Fe    7  dx2y2  Val( 3d)     1.90516      -0.22142
   218   Fe    7  dx2y2  Ryd( 4d)     0.00653       0.90040
   219   Fe    7  dx2y2  Ryd( 5d)     0.00017       2.36001
   220   Fe    7  dx2y2  Ryd( 6d)     0.00007       2.58429
   221   Fe    7  dz2    Val( 3d)     0.52951      -0.09579
   222   Fe    7  dz2    Ryd( 4d)     0.00203       1.07089
   223   Fe    7  dz2    Ryd( 5d)     0.00047       2.28754
   224   Fe    7  dz2    Ryd( 6d)     0.00028       2.56097
   225   Fe    7  f(0)   Ryd( 4f)     0.00003       4.27156
   226   Fe    7  f(C1)  Ryd( 4f)     0.00002       4.24012
   227   Fe    7  f(S1)  Ryd( 4f)     0.00002       4.24176
   228   Fe    7  f(C2)  Ryd( 4f)     0.00001       4.19664
   229   Fe    7  f(S2)  Ryd( 4f)     0.00003       4.32280
   230   Fe    7  f(C3)  Ryd( 4f)     0.00004       4.31735
   231   Fe    7  f(S3)  Ryd( 4f)     0.00004       4.32262

   232    C    8  S      Cor( 1S)     1.99892     -10.06352
   233    C    8  S      Val( 2S)     0.94842      -0.19880
   234    C    8  S      Ryd( 3S)     0.00086       1.54411
   235    C    8  S      Ryd( 4S)     0.00001       1.71929
   236    C    8  S      Ryd( 5S)     0.00000      21.17792
   237    C    8  px     Val( 2p)     1.18005      -0.06417
   238    C    8  px     Ryd( 3p)     0.00252       1.02910
   239    C    8  px     Ryd( 4p)     0.00038       1.94515
   240    C    8  py     Val( 2p)     1.05611      -0.05567
   241    C    8  py     Ryd( 3p)     0.00156       1.10662
   242    C    8  py     Ryd( 4p)     0.00033       2.10926
   243    C    8  pz     Val( 2p)     1.01770      -0.12101
   244    C    8  pz     Ryd( 3p)     0.00306       0.57677
   245    C    8  pz     Ryd( 4p)     0.00028       1.49338
   246    C    8  dxy    Ryd( 3d)     0.00238       2.19839
   247    C    8  dxy    Ryd( 4d)     0.00015       3.77182
   248    C    8  dxz    Ryd( 3d)     0.00035       1.43597
   249    C    8  dxz    Ryd( 4d)     0.00008       2.85912
   250    C    8  dyz    Ryd( 3d)     0.00078       1.62036
   251    C    8  dyz    Ryd( 4d)     0.00011       3.08055
   252    C    8  dx2y2  Ryd( 3d)     0.00098       2.40063
   253    C    8  dx2y2  Ryd( 4d)     0.00029       4.04896
   254    C    8  dz2    Ryd( 3d)     0.00130       1.83424
   255    C    8  dz2    Ryd( 4d)     0.00004       3.47082
   256    C    8  f(0)   Ryd( 4f)     0.00024       3.46029
   257    C    8  f(C1)  Ryd( 4f)     0.00010       3.78374
   258    C    8  f(S1)  Ryd( 4f)     0.00012       4.07551
   259    C    8  f(C2)  Ryd( 4f)     0.00001       3.51299
   260    C    8  f(S2)  Ryd( 4f)     0.00002       3.56701
   261    C    8  f(C3)  Ryd( 4f)     0.00015       4.51476
   262    C    8  f(S3)  Ryd( 4f)     0.00002       4.28425

[...]
  1721. RY*(   5) H  70                  0.00001     2.66916   
  1722. RY*(   1) H  71                  0.00095     0.95468   
  1723. RY*(   2) H  71                  0.00019     1.88300   
  1724. RY*(   3) H  71                  0.00014     2.48591   
  1725. RY*(   4) H  71                  0.00006     2.30563   
  1726. RY*(   5) H  71                  0.00001     3.09823   
  1727. RY*(   1) H  72                  0.00080     1.26917   
  1728. RY*(   2) H  72                  0.00017     1.79640   
  1729. RY*(   3) H  72                  0.00011     2.31915   
  1730. RY*(   4) H  72                  0.00008     2.09287   
  1731. RY*(   5) H  72                  0.00001     3.02884   
  1732. RY*(   1) H  73                  0.00083     2.05704   
  1733. RY*(   2) H  73                  0.00070     0.62461   
  1734. RY*(   3) H  73                  0.00042     2.07132   
  1735. RY*(   4) H  73                  0.00028     2.14987   
  1736. RY*(   5) H  73                  0.00001     3.28934   
  1737. RY*(   1) H  74                  0.00064     0.99744   
  1738. RY*(   2) H  74                  0.00017     1.85206   
  1739. RY*(   3) H  74                  0.00006     2.16568   
  1740. RY*(   4) H  74                  0.00004     2.04674   
  1741. RY*(   5) H  74                  0.00000     2.82655   
  1742. RY*(   1) H  75                  0.00081     1.08300   
  1743. RY*(   2) H  75                  0.00016     1.66983   
  1744. RY*(   3) H  75                  0.00007     2.13105   
  1745. RY*(   4) H  75                  0.00003     2.00308   
  1746. RY*(   5) H  75                  0.00001     2.92641   
  1747. RY*(   1) H  76                  0.00042     1.37112   
  1748. RY*(   2) H  76                  0.00019     1.82698   
  1749. RY*(   3) H  76                  0.00007     2.14313   
  1750. RY*(   4) H  76                  0.00001     2.07441   
  1751. RY*(   5) H  76                  0.00000     2.64738   
  1752. RY*(   1) H  77                  0.00112     0.56984   
  1753. RY*(   2) H  77                  0.00015     2.31186   
  1754. RY*(   3) H  77                  0.00016     2.72673   
  1755. RY*(   4) H  77                  0.00012     2.43393   
  1756. RY*(   5) H  77                  0.00001     3.01191   
  1757. RY*(   1) H  78                  0.00128     0.55420   
  1758. RY*(   2) H  78                  0.00018     2.27241   
  1759. RY*(   3) H  78                  0.00015     2.73639   
  1760. RY*(   4) H  78                  0.00011     2.38575   
  1761. RY*(   5) H  78                  0.00001     3.07157   
  1762. RY*(   1) H  79                  0.00063     1.35241   
  1763. RY*(   2) H  79                  0.00015     1.76108   
  1764. RY*(   3) H  79                  0.00008     2.05788   
  1765. RY*(   4) H  79                  0.00008     2.37400   
  1766. RY*(   5) H  79                  0.00002     3.05680   
  1767. RY*(   1) H  80                  0.00064     1.46265   
  1768. RY*(   2) H  80                  0.00016     1.91161   
  1769. RY*(   3) H  80                  0.00008     1.98014   
  1770. RY*(   4) H  80                  0.00008     2.38346   
  1771. RY*(   5) H  80                  0.00002     3.04092   
  1772. RY*(   1) H  81                  0.00159     0.85257   
  1773. RY*(   2) H  81                  0.00057     2.10874   
  1774. RY*(   3) H  81                  0.00049     1.87689   
  1775. RY*(   4) H  81                  0.00021     2.12887   
  1776. RY*(   5) H  81                  0.00000     3.16087   
  1777. RY*(   1) H  82                  0.00038     1.46056   
  1778. RY*(   2) H  82                  0.00016     1.53753   
  1779. RY*(   3) H  82                  0.00009     2.27979   
  1780. RY*(   4) H  82                  0.00006     2.22534   
  1781. RY*(   5) H  82                  0.00001     3.01757   
  1782. RY*(   1) H  83                  0.00064     1.03241   
  1783. RY*(   2) H  83                  0.00016     1.61112   
  1784. RY*(   3) H  83                  0.00010     2.31236   
  1785. RY*(   4) H  83                  0.00007     2.52213   
  1786. RY*(   5) H  83                  0.00001     3.01985   
  1787. RY*(   1) H  84                  0.00032     1.57648   
  1788. RY*(   2) H  84                  0.00014     1.65220   
  1789. RY*(   3) H  84                  0.00011     2.30286   
  1790. RY*(   4) H  84                  0.00007     2.06374   
  1791. RY*(   5) H  84                  0.00001     3.00683   
  1792. RY*(   1) H  85                  0.00045     1.32394   
  1793. RY*(   2) H  85                  0.00014     1.58207   
  1794. RY*(   3) H  85                  0.00011     2.25210   
  1795. RY*(   4) H  85                  0.00005     2.32424   
  1796. RY*(   5) H  85                  0.00001     3.00073   
  1797. RY*(   1) H  86                  0.00057     1.27746   
  1798. RY*(   2) H  86                  0.00015     1.48726   
  1799. RY*(   3) H  86                  0.00008     2.35192   
  1800. RY*(   4) H  86                  0.00007     2.33770   
  1801. RY*(   5) H  86                  0.00001     3.07167   
  1802. RY*(   1) H  87                  0.00041     1.11429   
  1803. RY*(   2) H  87                  0.00017     1.78935   
  1804. RY*(   3) H  87                  0.00007     2.28889   
  1805. RY*(   4) H  87                  0.00007     2.31956   
  1806. RY*(   5) H  87                  0.00001     3.01118   
  1807. RY*(   1) H  88                  0.00085     1.87835   
  1808. RY*(   2) H  88                  0.00015     2.59463   
  1809. RY*(   3) H  88                  0.00008     1.25351   
  1810. RY*(   4) H  88                  0.00009     2.51213   
  1811. RY*(   5) H  88                  0.00002     3.12466   
  1812. RY*(   1) H  89                  0.00048     2.07954   
  1813. RY*(   2) H  89                  0.00017     2.56532   
  1814. RY*(   3) H  89                  0.00009     2.51470   
  1815. RY*(   4) H  89                  0.00005     1.10959   
  1816. RY*(   5) H  89                  0.00001     3.08679   
  1817. RY*(   1) H  90                  0.00097     0.94281   
  1818. RY*(   2) H  90                  0.00063     2.14585   
  1819. RY*(   3) H  90                  0.00053     1.83761   
  1820. RY*(   4) H  90                  0.00023     2.15088   
  1821. RY*(   5) H  90                  0.00000     3.28577   
  1822. RY*(   1) H  91                  0.00072     1.80584   
  1823. RY*(   2) H  91                  0.00015     2.30332   
  1824. RY*(   3) H  91                  0.00009     2.01706   
  1825. RY*(   4) H  91                  0.00009     2.09849   
  1826. RY*(   5) H  91                  0.00002     3.10619   
  1827. RY*(   1) H  92                  0.00045     1.89980   
  1828. RY*(   2) H  92                  0.00013     2.54380   
  1829. RY*(   3) H  92                  0.00008     1.28981   
  1830. RY*(   4) H  92                  0.00007     2.56387   
  1831. RY*(   5) H  92                  0.00002     3.06236   
  1832. RY*(   1) H  93                  0.00086     1.41856   
  1833. RY*(   2) H  93                  0.00067     1.47961   
  1834. RY*(   3) H  93                  0.00049     1.95518   
  1835. RY*(   4) H  93                  0.00025     2.19811   
  1836. RY*(   5) H  93                  0.00000     3.26885   
  1851. BD*(   1) C   8 - C  13          0.02120     0.58117   
  1852. BD*(   1) C   8 - C  49          0.02105     0.56533   
  1853. BD*(   1) C   8 - H  64          0.01391     0.43612   
  1854. BD*(   1) C   9 - C  16          0.01974     0.57338   
  1855. BD*(   1) C   9 - C  24          0.02096     0.55464   
  1856. BD*(   1) C   9 - H  63          0.01236     0.45235   
  1857. BD*(   1) C  10 - C  33          0.01962     0.56450   
  1858. BD*(   1) C  10 - C  35          0.02121     0.54546   
  1859. BD*(   2) C  10 - C  35          0.41895     0.02785  1888(v),1911(v),1908(v)
                                                    452(g),1105(g),185(r)
  1860. BD*(   1) C  10 - H  62          0.01259     0.44191   
  1861. BD*(   1) C  11 - C  44          0.02070     0.56709   
  1862. BD*(   1) C  11 - C  46          0.02048     0.55437   
  1863. BD*(   1) C  11 - H  65          0.01313     0.42468   
  1864. BD*(   1) N  12 - C  13          0.02672     0.46884   
  1865. BD*(   1) N  12 - C  16          0.02705     0.46349   
  1866. BD*(   2) N  12 - C  16          0.64735    -0.01288  187(v),1869(v),190(v),180(r)
                                                    181(r),609(g),426(v),503(g)
                                                    185(r),1849(r),607(g),183(r)
                                                    184(r),182(r),379(r),1850(r)
  1867. BD*(   1) C  13 - C  14          0.03582     0.47599   
  1868. BD*(   1) C  14 - C  15          0.01880     0.63523   
  1869. BD*(   2) C  14 - C  15          0.24341     0.06337  1866(v),190(v),1876(v)
                                                    1874(v),1873(v)
  1870. BD*(   1) C  14 - C  18          0.02564     0.34502   
  1871. BD*(   1) C  15 - C  16          0.03595     0.47632   
  1872. BD*(   1) C  15 - C  17          0.01949     0.34829   
  1873. BD*(   1) C  17 - H  74          0.00584     0.40150   
  1874. BD*(   1) C  17 - H  75          0.00838     0.40357   
  1875. BD*(   1) C  17 - H  76          0.00432     0.41183   
  1876. BD*(   1) C  18 - C  19          0.01769     0.33998   
  1877. BD*(   1) C  18 - H  77          0.01249     0.40027   
  1878. BD*(   1) C  18 - H  78          0.01211     0.40461   
  1879. BD*(   1) C  19 - C  20          0.06522     0.34220   
  1880. BD*(   1) C  19 - H  79          0.01134     0.37722   
  1881. BD*(   1) C  19 - H  80          0.01069     0.38415   
  1882. BD*(   1) C  20 - O  21          0.07112     0.47298   
  1883. BD*(   1) C  20 - O  22          0.03100     0.48520   
  1884. BD*(   2) C  20 - O  22          0.25439    -0.01904  1880(v),1881(v),713(g)
  1885. BD*(   1) O  21 - H  81          0.01496     0.37141   
  1886. BD*(   1) N  23 - C  24          0.02809     0.45142   
  1887. BD*(   1) N  23 - C  33          0.03171     0.44888   
  1888. BD*(   2) N  23 - C  33          0.50356    -0.01476  1859(v),196(v),1893(v)
                                                    1894(v),185(r),1051(g)
                                                    180(r),181(r)
  1889. BD*(   1) C  24 - C  25          0.05053     0.46536   
  1890. BD*(   1) C  25 - O  26          0.02330     0.23407   
  1891. BD*(   2) C  25 - O  26          0.34442    -0.03373  196(v),1893(v),1894(v)
                                                    868(g),844(g),843(g)
  1892. BD*(   1) C  25 - C  27          0.03837     0.53590   
  1893. BD*(   1) C  27 - C  28          0.02724     0.28790   
  1894. BD*(   1) C  27 - C  29          0.03987     0.34145   
  1895. BD*(   1) C  27 - C  33          0.04133     0.44762   
  1896. BD*(   1) C  28 - H  82          0.00569     0.40945   
  1897. BD*(   1) C  28 - H  83          0.00577     0.41153   
  1898. BD*(   1) C  28 - H  84          0.00437     0.41203   
  1899. BD*(   1) C  29 - C  30          0.04577     0.59435   
  1900. BD*(   1) C  29 - H  88          0.01724     0.39615   
  1901. BD*(   1) C  29 - H  89          0.01723     0.38184   
  1902. BD*(   1) C  30 - O  31          0.07428     0.48397   
  1903. BD*(   1) C  30 - O  32          0.03928     0.55933   
  1904. BD*(   2) C  30 - O  32          0.25951     0.01290  1901(v),1900(v)
  1905. BD*(   1) O  31 - H  90          0.00968     0.40509   
  1906. BD*(   1) N  34 - C  35          0.02670     0.45693   
  1907. BD*(   1) N  34 - C  44          0.02933     0.45228   
  1908. BD*(   2) N  34 - C  44          0.54393    -0.02369  188(v),1859(v),1913(v)
                                                    181(r),1924(r),1914(v)
                                                    185(r),1337(g),1077(g)
                                                    180(r)
  1909. BD*(   1) C  35 - C  36          0.05474     0.44445   
  1910. BD*(   1) C  36 - O  37          0.02401     0.23449   
  1911. BD*(   2) C  36 - O  37          0.32953    -0.03488  1859(v),1914(v),1913(v)
                                                    1129(g),1154(g),1130(g)
  1912. BD*(   1) C  36 - C  38          0.03848     0.53818   
  1913. BD*(   1) C  38 - C  39          0.02615     0.29339   
  1914. BD*(   1) C  38 - C  40          0.04213     0.32971   
  1915. BD*(   1) C  38 - C  44          0.04513     0.42375   
  1916. BD*(   1) C  39 - H  85          0.00477     0.39554   
  1917. BD*(   1) C  39 - H  86          0.00480     0.40950   
  1918. BD*(   1) C  39 - H  87          0.00557     0.40270   
  1919. BD*(   1) C  40 - C  41          0.04759     0.57675   
  1920. BD*(   1) C  40 - H  91          0.01660     0.39041   
  1921. BD*(   1) C  40 - H  92          0.01776     0.38480   
  1922. BD*(   1) C  41 - O  42          0.07435     0.48289   
  1923. BD*(   1) C  41 - O  43          0.04944     0.51295   
  1924. BD*(   2) C  41 - O  43          0.22837    -0.00099  1920(v),1914(v),1925(v)
                                                    1908(r),1923(g)
  1925. BD*(   1) O  42 - H  93          0.01206     0.37865   
  1926. BD*(   1) N  45 - C  46          0.02532     0.47312   
  1927. BD*(   1) N  45 - C  49          0.02505     0.48744   
  1928. BD*(   2) N  45 - C  49          0.64054    -0.00514  186(v),1931(v),211(v)
                                                    1467(g),185(r),180(r)
                                                    1361(g),399(v),181(r),183(r)
                                                    1849(r),182(r)
  1929. BD*(   1) C  46 - C  47          0.03519     0.46650   
  1930. BD*(   1) C  47 - C  48          0.01960     0.62873   
  1931. BD*(   2) C  47 - C  48          0.23408     0.06272  1928(v),211(v),1940(v)
                                                    1935(v),1936(v),1442(g)
  1932. BD*(   1) C  47 - C  50          0.01922     0.35197   
  1933. BD*(   1) C  48 - C  49          0.03372     0.47002   
  1934. BD*(   1) C  48 - C  51          0.02437     0.36487   
  1935. BD*(   1) C  50 - H  66          0.00870     0.39443   
  1936. BD*(   1) C  50 - H  67          0.00815     0.39429   
  1937. BD*(   1) C  50 - H  68          0.00904     0.41640   
  1938. BD*(   1) C  51 - C  52          0.01296     0.36551   
  1939. BD*(   1) C  51 - H  69          0.01240     0.40588   
  1940. BD*(   1) C  51 - H  70          0.01593     0.40061   
  1941. BD*(   1) C  52 - C  53          0.07901     0.34568   
  1942. BD*(   1) C  52 - H  71          0.01585     0.37668   
  1943. BD*(   1) C  52 - H  72          0.01409     0.37286   
  1944. BD*(   1) C  53 - O  54          0.07173     0.45168   
  1945. BD*(   1) C  53 - O  55          0.04543     0.51911   
  1946. BD*(   2) C  53 - O  55          0.16201    -0.00214  1947(v),1945(g),1943(v)
                                                    1942(v)
  1947. BD*(   1) O  54 - H  73          0.01223     0.36277   
       -------------------------------
              Total Lewis  335.24351  ( 97.2111%)
        Valence non-Lewis    8.91732  (  2.5858%)
        Rydberg non-Lewis    0.70045  (  0.2031%)
       -------------------------------
            Total unit  3  344.86128  (100.0000%)
           Charge unit  3   -0.86128
 1\1\GINC-NODE569\SP\RPBE1PBE\def2TZVP\C38H38Fe1N6O10\ZHARTOVSKA\02-Sep
 -2022\0\\# PBE1PBE/def2TZVP empiricaldispersion=GD3BJ int=(grid=ultraf
 ine) geom=check guess=read pop=nbo scf=qc\\1h9xd_II_S_nbo\\0,1\C,0,111
 .418999,56.308998,200.854996\C,0,110.014,56.828999,200.763\N,0,109.332
 001,57.219002,201.904007\C,0,109.162003,57.029999,199.729004\C,0,108.1
 21002,57.623001,201.563004\N,0,107.976997,57.539001,200.242004\Fe,0,10
 6.111,58.048,199.233994\C,0,106.148003,60.939999,201.192993\C,0,104.28
 7003,56.523998,201.714005\C,0,104.871002,55.738998,196.945999\C,0,107.
 293999,59.915001,196.591003\N,0,105.302002,58.639,201.044006\C,0,105.5
 7,59.812,201.716995\C,0,105.234001,59.664001,203.119995\C,0,104.719002
 ,58.446999,203.285995\C,0,104.744003,57.797001,201.988998\C,0,104.1839
 98,57.808998,204.593994\C,0,105.460999,60.783001,204.182999\C,0,106.89
 8003,60.785,204.729996\C,0,107.264999,61.689999,205.880005\O,0,106.306
 999,62.294998,206.412003\O,0,108.499001,61.757,206.238998\N,0,104.8040
 01,56.493999,199.289993\C,0,104.267998,55.958,200.447006\C,0,103.556,5
 4.752998,200.125\O,0,102.816002,53.923,201.177994\C,0,103.529999,54.66
 1999,198.774002\C,0,102.071999,55.007999,198.300003\C,0,103.833,53.243
 ,198.283005\C,0,104.972,52.651001,198.600998\O,0,105.097,51.402,198.40
 6006\O,0,105.994003,53.174999,199.104004\C,0,104.496002,55.609001,198.
 268005\N,0,106.060997,57.891998,197.192993\C,0,105.601997,56.82,196.46
 4005\C,0,105.970001,56.978001,195.069\O,0,105.621002,55.943001,194.005
 997\C,0,106.586998,58.168999,194.944\C,0,105.649002,58.956001,193.9839
 94\C,0,107.940002,58.073002,194.240005\C,0,108.891998,57.375,194.83999
 6\O,0,109.989998,57.897999,195.169006\O,0,108.744003,56.143002,195.117
 996\C,0,106.725998,58.701,196.298004\N,0,106.542,60.025002,198.947006\
 C,0,107.136002,60.542999,197.815994\C,0,107.491997,61.936001,198.04600
 5\C,0,107.167,62.226002,199.309998\C,0,106.597,61.018002,199.888\C,0,1
 08.142998,62.824001,196.968002\C,0,107.346001,63.553001,200.080002\C,0
 ,107.221001,64.856003,199.315994\C,0,107.198997,66.126999,200.125\O,0,
 107.278,67.218002,199.481003\O,0,107.095001,66.045998,201.369003\H,0,1
 12.06023492,57.0785943,201.23107849\H,0,111.44548999,55.46801461,201.5
 1601428\H,0,111.75286245,56.00968875,199.883477\H,0,109.36672337,56.83
 121868,198.69775429\H,0,107.37054748,57.96542848,202.24451807\H,0,109.
 69698758,57.19816317,202.83478653\H,0,104.58545946,54.97066782,196.258
 22419\H,0,103.92388651,55.93543586,202.53048588\H,0,106.25624908,61.79
 827519,201.82271101\H,0,107.88474573,60.39790824,195.84085708\H,0,109.
 08553606,62.40554412,196.6826674\H,0,107.5018256,62.87489173,196.11289
 494\H,0,108.29368094,63.8081855,197.35988914\H,0,106.62050901,63.56965
 672,200.86631235\H,0,108.31625064,63.53560351,200.53079348\H,0,108.042
 69003,64.91599336,198.63325811\H,0,106.31751759,64.81552779,198.744172
 8\H,0,108.13764716,67.58599893,199.26378186\H,0,104.88092804,57.983431
 93,205.38693872\H,0,103.24093486,58.24774195,204.84506303\H,0,104.0609
 3144,56.7555435,204.45261423\H,0,105.2597875,61.73324175,203.73416001\
 H,0,104.7812155,60.6321692,204.99543002\H,0,107.12322718,59.78331414,2
 05.03132557\H,0,107.54643534,61.03028361,203.9149675\H,0,106.47472887,
 63.00483105,207.03618545\H,0,102.06734212,55.15695224,197.24043174\H,0
 ,101.41491506,54.20126944,198.54965899\H,0,101.74112856,55.90133328,19
 8.78721817\H,0,106.13101743,59.08024469,193.03682737\H,0,104.73694321,
 58.41241661,193.85146187\H,0,105.43398033,59.91656733,194.40349133\H,0
 ,103.0428405,52.6134103,198.63537523\H,0,103.77640119,53.26163755,197.
 21466553\H,0,105.97158255,51.01087743,198.34494458\H,0,107.7762595,57.
 64008881,193.27529024\H,0,108.3054077,59.06852395,194.09747526\H,0,110
 .81603605,57.48396797,194.90854594\\Version=ES64L-G16RevA.03\State=1-A
 \HF=-3813.1944605\RMSD=1.133e-09\Dipole=2.8286971,2.9277424,-0.3877021
 \Quadrupole=9.4195502,-7.2770383,-2.1425119,-7.1952612,-12.2714276,-19
 .7120578\PG=C01 [X(C38H38Fe1N6O10)]\\@


 This summer one third of the nation will be ill-housed
 ill-nourished and ill-clad. Only they call it a vacation.
 -- Jonas Salk
 Job cpu time:       0 days  2 hours  9 minutes 18.6 seconds.
 Elapsed time:       0 days  0 hours 32 minutes 25.7 seconds.
 File lengths (MBytes):  RWF=   1278 Int=      0 D2E=      0 Chk=    248 Scr=      1
 Normal termination of Gaussian 16 at Fri Sep  2 16:48:56 2022.
