 Entering Gaussian System, Link 0=g16
 Input=/net/homes/chemie/zhartovska/work/BioModel/Konrad/1h9x/hemed/1h9xd12/1h9xd12.com
 Output=/net/homes/chemie/zhartovska/work/BioModel/Konrad/1h9x/hemed/1h9xd12/1h9xd12.log
 Initial command:
 /afs/math/software/gaussian/g16.A03/g16/l1.exe "/scratch/zhartovska_gaussian.MzwtcIV/Gau-4418.inp" -scrdir="/scratch/zhartovska_gaussian.MzwtcIV/"
 Entering Link 1 = /afs/math/software/gaussian/g16.A03/g16/l1.exe PID=      4419.
  
 Copyright (c) 1988,1990,1992,1993,1995,1998,2003,2009,2016,
            Gaussian, Inc.  All Rights Reserved.
  
 This is part of the Gaussian(R) 16 program.  It is based on
 the Gaussian(R) 09 system (copyright 2009, Gaussian, Inc.),
 the Gaussian(R) 03 system (copyright 2003, Gaussian, Inc.),
 the Gaussian(R) 98 system (copyright 1998, Gaussian, Inc.),
 the Gaussian(R) 94 system (copyright 1995, Gaussian, Inc.),
 the Gaussian 92(TM) system (copyright 1992, Gaussian, Inc.),
 the Gaussian 90(TM) system (copyright 1990, Gaussian, Inc.),
 the Gaussian 88(TM) system (copyright 1988, Gaussian, Inc.),
 the Gaussian 86(TM) system (copyright 1986, Carnegie Mellon
 University), and the Gaussian 82(TM) system (copyright 1983,
 Carnegie Mellon University). Gaussian is a federally registered
 trademark of Gaussian, Inc.
  
 This software contains proprietary and confidential information,
 including trade secrets, belonging to Gaussian, Inc.
  
 This software is provided under written license and may be
 used, copied, transmitted, or stored only in accord with that
 written license.
  
 The following legend is applicable only to US Government
 contracts under FAR:
  
                    RESTRICTED RIGHTS LEGEND
  
 Use, reproduction and disclosure by the US Government is
 subject to restrictions as set forth in subparagraphs (a)
 and (c) of the Commercial Computer Software - Restricted
 Rights clause in FAR 52.227-19.
  
 Gaussian, Inc.
 340 Quinnipiac St., Bldg. 40, Wallingford CT 06492
  
  
 ---------------------------------------------------------------
 Warning -- This program may not be used in any manner that
 competes with the business of Gaussian, Inc. or will provide
 assistance to any competitor of Gaussian, Inc.  The licensee
 of this program is prohibited from giving any competitor of
 Gaussian, Inc. access to this program.  By using this program,
 the user acknowledges that Gaussian, Inc. is engaged in the
 business of creating and licensing software in the field of
 computational chemistry and represents and warrants to the
 licensee that it is not a competitor of Gaussian, Inc. and that
 it will not use this program in any manner prohibited above.
 ---------------------------------------------------------------
  

 Cite this work as:
 Gaussian 16, Revision A.03,
 M. J. Frisch, G. W. Trucks, H. B. Schlegel, G. E. Scuseria, 
 M. A. Robb, J. R. Cheeseman, G. Scalmani, V. Barone, 
 G. A. Petersson, H. Nakatsuji, X. Li, M. Caricato, A. V. Marenich, 
 J. Bloino, B. G. Janesko, R. Gomperts, B. Mennucci, H. P. Hratchian, 
 J. V. Ortiz, A. F. Izmaylov, J. L. Sonnenberg, D. Williams-Young, 
 F. Ding, F. Lipparini, F. Egidi, J. Goings, B. Peng, A. Petrone, 
 T. Henderson, D. Ranasinghe, V. G. Zakrzewski, J. Gao, N. Rega, 
 G. Zheng, W. Liang, M. Hada, M. Ehara, K. Toyota, R. Fukuda, 
 J. Hasegawa, M. Ishida, T. Nakajima, Y. Honda, O. Kitao, H. Nakai, 
 T. Vreven, K. Throssell, J. A. Montgomery, Jr., J. E. Peralta, 
 F. Ogliaro, M. J. Bearpark, J. J. Heyd, E. N. Brothers, K. N. Kudin, 
 V. N. Staroverov, T. A. Keith, R. Kobayashi, J. Normand, 
 K. Raghavachari, A. P. Rendell, J. C. Burant, S. S. Iyengar, 
 J. Tomasi, M. Cossi, J. M. Millam, M. Klene, C. Adamo, R. Cammi, 
 J. W. Ochterski, R. L. Martin, K. Morokuma, O. Farkas, 
 J. B. Foresman, and D. J. Fox, Gaussian, Inc., Wallingford CT, 2016.
 
 ******************************************
 Gaussian 16:  ES64L-G16RevA.03 25-Dec-2016
                27-Dec-2022 
 ******************************************
 %nprocs=12
 Will use up to   12 processors via shared memory.
 %mem=16GB
 %oldchk=1h9xd_III_Dn.chk
 %chk=1h9xd_III_D.chk
 Copying data from "1h9xd_III_Dn.chk" to current chk file "1h9xd_III_D.chk"
 IOpt=  2 FromEx=T IUOpen= 4 IOptOp= 5 NList=   0 IFRang= 0 IUIn= 4 IUOut= 2.
 ----------------------------------------------------------------------
 # PBE1PBE/def2TZVP empiricaldispersion=GD3BJ scf=maxcycle=999 geom=che
 ck guess=read pop=nbo
 ----------------------------------------------------------------------
 1/29=2,38=1,172=1/1;
 2/12=2,40=1/2;
 3/5=44,7=101,11=2,14=-4,25=1,30=1,74=-13,116=-2,124=41/1,2,3;
 4/5=1/1;
 5/5=2,7=999,38=6/2;
 6/7=2,8=2,9=2,10=2,28=1,40=1/1,7;
 99/5=1,9=1/99;
 -----------
 1h9xd_III_D
 -----------
 Structure from the checkpoint file:  "1h9xd_III_D.chk"
 Charge =  1 Multiplicity = 2
 Z-Matrix found in chk file.
 C,0,111.418999,56.308998,200.854996
 C,0,110.014,56.828999,200.763
 N,0,109.332001,57.219002,201.904007
 C,0,109.162003,57.029999,199.729004
 C,0,108.121002,57.623001,201.563004
 N,0,107.976997,57.539001,200.242004
 Fe,0,106.111,58.048,199.233994
 C,0,106.148003,60.939999,201.192993
 C,0,104.287003,56.523998,201.714005
 C,0,104.871002,55.738998,196.945999
 C,0,107.293999,59.915001,196.591003
 N,0,105.302002,58.639,201.044006
 C,0,105.57,59.812,201.716995
 C,0,105.234001,59.664001,203.119995
 C,0,104.719002,58.446999,203.285995
 C,0,104.744003,57.797001,201.988998
 C,0,104.183998,57.808998,204.593994
 C,0,105.460999,60.783001,204.182999
 C,0,106.898003,60.785,204.729996
 C,0,107.264999,61.689999,205.880005
 O,0,106.306999,62.294998,206.412003
 O,0,108.499001,61.757,206.238998
 N,0,104.804001,56.493999,199.289993
 C,0,104.267998,55.958,200.447006
 C,0,103.556,54.752998,200.125
 O,0,102.816002,53.923,201.177994
 C,0,103.529999,54.661999,198.774002
 C,0,102.071999,55.007999,198.300003
 C,0,103.833,53.243,198.283005
 C,0,104.972,52.651001,198.600998
 O,0,105.097,51.402,198.406006
 O,0,105.994003,53.174999,199.104004
 C,0,104.496002,55.609001,198.268005
 N,0,106.060997,57.891998,197.192993
 C,0,105.601997,56.82,196.464005
 C,0,105.970001,56.978001,195.069
 O,0,105.621002,55.943001,194.005997
 C,0,106.586998,58.168999,194.944
 C,0,105.649002,58.956001,193.983994
 C,0,107.940002,58.073002,194.240005
 C,0,108.891998,57.375,194.839996
 O,0,109.989998,57.897999,195.169006
 O,0,108.744003,56.143002,195.117996
 C,0,106.725998,58.701,196.298004
 N,0,106.542,60.025002,198.947006
 C,0,107.136002,60.542999,197.815994
 C,0,107.491997,61.936001,198.046005
 C,0,107.167,62.226002,199.309998
 C,0,106.597,61.018002,199.888
 C,0,108.142998,62.824001,196.968002
 C,0,107.346001,63.553001,200.080002
 C,0,107.221001,64.856003,199.315994
 C,0,107.198997,66.126999,200.125
 O,0,107.278,67.218002,199.481003
 O,0,107.095001,66.045998,201.369003
 H,0,112.06023492,57.0785943,201.23107849
 H,0,111.44548999,55.46801461,201.51601428
 H,0,111.75286245,56.00968875,199.883477
 H,0,109.36672337,56.83121868,198.69775429
 H,0,107.37054748,57.96542848,202.24451807
 H,0,109.69698758,57.19816317,202.83478653
 H,0,104.58545946,54.97066782,196.25822419
 H,0,103.92388651,55.93543586,202.53048588
 H,0,106.25624908,61.79827519,201.82271101
 H,0,107.88474573,60.39790824,195.84085708
 H,0,109.08553606,62.40554412,196.6826674
 H,0,107.5018256,62.87489173,196.11289494
 H,0,108.29368094,63.8081855,197.35988914
 H,0,106.62050901,63.56965672,200.86631235
 H,0,108.31625064,63.53560351,200.53079348
 H,0,108.04269003,64.91599336,198.63325811
 H,0,106.31751759,64.81552779,198.7441728
 H,0,108.13764716,67.58599893,199.26378186
 H,0,104.88092804,57.98343193,205.38693872
 H,0,103.24093486,58.24774195,204.84506303
 H,0,104.06093144,56.7555435,204.45261423
 H,0,105.2597875,61.73324175,203.73416001
 H,0,104.7812155,60.6321692,204.99543002
 H,0,107.12322718,59.78331414,205.03132557
 H,0,107.54643534,61.03028361,203.9149675
 H,0,106.47472887,63.00483105,207.03618545
 H,0,102.06734212,55.15695224,197.24043174
 H,0,101.41491506,54.20126944,198.54965899
 H,0,101.74112856,55.90133328,198.78721817
 H,0,106.13101743,59.08024469,193.03682737
 H,0,104.73694321,58.41241661,193.85146187
 H,0,105.43398033,59.91656733,194.40349133
 H,0,103.0428405,52.6134103,198.63537523
 H,0,103.77640119,53.26163755,197.21466553
 H,0,105.97158255,51.01087743,198.34494458
 H,0,107.7762595,57.64008881,193.27529024
 H,0,108.3054077,59.06852395,194.09747526
 H,0,110.81603605,57.48396797,194.90854594
 Recover connectivity data from disk.
 Stoichiometry    C38H38FeN6O10(1+,2)
 Framework group  C1[X(C38H38FeN6O10)]
 Deg. of freedom   273
 Full point group                 C1      NOp   1
 Largest Abelian subgroup         C1      NOp   1
 Largest concise Abelian subgroup C1      NOp   1
                         Standard orientation:                         
 ---------------------------------------------------------------------
 Center     Atomic      Atomic             Coordinates (Angstroms)
 Number     Number       Type             X           Y           Z
 ---------------------------------------------------------------------
      1          6           0        0.340892   -0.599667    5.597624
      2          6           0        0.186257   -0.717370    4.109296
      3          7           0       -0.624124   -1.698366    3.561525
      4          6           0        0.699828   -0.026906    3.062897
      5          6           0       -0.583537   -1.602257    2.244281
      6          7           0        0.201557   -0.585497    1.894054
      7         26           0        0.611459   -0.087848   -0.189557
      8          6           0       -2.837475   -0.377080   -0.662748
      9          6           0        0.889429   -3.416501   -0.991310
     10          6           0        3.943717    0.372308   -1.077430
     11          6           0        0.237820    3.336506   -0.120456
     12          7           0       -0.695994   -1.572565   -0.794608
     13          6           0       -2.073056   -1.510591   -0.771672
     14          6           0       -2.627815   -2.850449   -0.786828
     15          6           0       -1.612096   -3.707399   -0.875289
     16          6           0       -0.394241   -2.918845   -0.893653
     17          6           0       -1.674609   -5.254973   -0.947697
     18          6           0       -4.156995   -3.150684   -0.715172
     19          6           0       -4.682118   -3.161800    0.729927
     20          6           0       -6.101008   -3.589721    1.012528
     21          8           0       -6.726965   -4.049927    0.031102
     22          8           0       -6.548602   -3.477043    2.213815
     23          7           0        2.097267   -1.252607   -0.939232
     24          6           0        2.028625   -2.627859   -1.070545
     25          6           0        3.322142   -3.133769   -1.435957
     26          8           0        3.587413   -4.620604   -1.689423
     27          6           0        4.109297   -2.058843   -1.679010
     28          6           0        4.308739   -1.954896   -3.234508
     29          6           0        5.502538   -2.209324   -1.060400
     30          6           0        5.643063   -2.394974    0.241403
     31          8           0        6.768709   -2.768621    0.696331
     32          8           0        4.773045   -2.257382    1.133712
     33          6           0        3.422718   -0.903869   -1.149243
     34          7           0        1.817901    1.524250   -0.561253
     35          6           0        3.171352    1.496429   -0.803495
     36          6           0        3.708281    2.844107   -0.759892
     37          8           0        5.187375    3.145340   -0.970942
     38          6           0        2.676012    3.686430   -0.560647
     39          6           0        2.675126    4.558328   -1.849295
     40          6           0        2.901152    4.645863    0.607361
     41          6           0        3.013657    4.118966    1.816995
     42          8           0        2.222951    4.424412    2.749126
     43          8           0        3.922718    3.275107    2.097198
     44          6           0        1.499909    2.846735   -0.343008
     45          7           0       -0.962523    1.193529   -0.428967
     46          6           0       -0.902009    2.556747   -0.233209
     47          6           0       -2.245798    3.115890   -0.274225
     48          6           0       -3.095859    2.096648   -0.435292
     49          6           0       -2.294124    0.883846   -0.502979
     50          6           0       -2.531784    4.622769   -0.126017
     51          6           0       -4.637736    2.121232   -0.524098
     52          6           0       -5.306828    3.318162   -1.169716
     53          6           0       -6.789094    3.222493   -1.422978
     54          8           0       -7.377406    4.284925   -1.792283
     55          8           0       -7.355000    2.117415   -1.269766
     56          1           0       -0.605193   -0.360907    6.036733
     57          1           0        0.693842   -1.528708    5.994119
     58          1           0        1.044264    0.174522    5.823012
     59          1           0        1.371722    0.803412    3.126389
     60          1           0       -1.102452   -2.243697    1.562972
     61          1           0       -1.153909   -2.370283    4.079073
     62          1           0        4.993071    0.503386   -1.240447
     63          1           0        1.014336   -4.479070   -1.006938
     64          1           0       -3.902383   -0.473149   -0.703268
     65          1           0        0.128959    4.365478    0.152062
     66          1           0       -2.188282    4.958651    0.830063
     67          1           0       -2.021107    5.160291   -0.897496
     68          1           0       -3.584548    4.795727   -0.207705
     69          1           0       -4.943223    1.250383   -1.065577
     70          1           0       -5.019237    2.037277    0.472048
     71          1           0       -5.135494    4.167717   -0.542180
     72          1           0       -4.824648    3.496862   -2.108048
     73          1           0       -7.713396    4.900304   -1.136524
     74          1           0       -2.350364   -5.619883   -0.202650
     75          1           0       -2.017060   -5.553156   -1.916570
     76          1           0       -0.699542   -5.659842   -0.773840
     77          1           0       -4.683444   -2.401947   -1.269379
     78          1           0       -4.343660   -4.106224   -1.159017
     79          1           0       -4.039451   -3.803980    1.295156
     80          1           0       -4.567887   -2.170320    1.115699
     81          1           0       -7.674688   -4.191320    0.089666
     82          1           0        4.739287   -1.005638   -3.476245
     83          1           0        4.961131   -2.736604   -3.563473
     84          1           0        3.361580   -2.051680   -3.722793
     85          1           0        2.987165    5.552795   -1.607289
     86          1           0        3.349551    4.137202   -2.565328
     87          1           0        1.688052    4.584597   -2.261478
     88          1           0        5.975065   -3.036122   -1.548277
     89          1           0        6.055206   -1.328739   -1.313439
     90          1           0        6.983249   -2.627857    1.621403
     91          1           0        3.794837    5.199393    0.407781
     92          1           0        2.083033    5.335231    0.626160
     93          1           0        2.568976    4.705674    3.599277
 ---------------------------------------------------------------------
 Rotational constants (GHZ):           0.0585019           0.0382469           0.0288316
 Standard basis: def2TZVP (5D, 7F)
 There are  2224 symmetry adapted cartesian basis functions of A   symmetry.
 There are  1947 symmetry adapted basis functions of A   symmetry.
  1947 basis functions,  3160 primitive gaussians,  2224 cartesian basis functions
   207 alpha electrons      206 beta electrons
       nuclear repulsion energy      8786.6215009306 Hartrees.
 NAtoms=   93 NActive=   93 NUniq=   93 SFac= 1.00D+00 NAtFMM=   60 NAOKFM=T Big=T
 Integral buffers will be    131072 words long.
 Raffenetti 2 integral format.
 Two-electron integral symmetry is turned on.
 Nuclear repulsion after empirical dispersion term =     8786.4881299926 Hartrees.
 One-electron integrals computed using PRISM.
   1 Symmetry operations used in ECPInt.
 ECPInt:  NShTT=  289941 NPrTT=  905201 LenC2=  202174 LenP2D=  403722.
 LDataN:  DoStor=T MaxTD1= 6 Len=  172
 NBasis=  1947 RedAO= T EigKep=  3.10D-06  NBF=  1947
 NBsUse=  1947 1.00D-06 EigRej= -1.00D+00 NBFU=  1947
 Initial guess from the checkpoint file:  "1h9xd_III_D.chk"
 B after Tr=     0.000000   -0.000000    0.000000
         Rot=    1.000000   -0.000000    0.000000   -0.000000 Ang=   0.00 deg.
 Initial guess <Sx>= 0.0000 <Sy>= 0.0000 <Sz>= 0.5000 <S**2>= 1.1117 S= 0.6669
 Requested convergence on RMS density matrix=1.00D-08 within 999 cycles.
 Requested convergence on MAX density matrix=1.00D-06.
 Requested convergence on             energy=1.00D-06.
 No special actions if energy rises.
 Restarting incremental Fock formation.
 Restarting incremental Fock formation.
 Restarting incremental Fock formation.
 SCF Done:  E(UPBE1PBE) =  -3812.97414878     A.U. after   63 cycles
            NFock= 63  Conv=0.26D-08     -V/T= 2.0032
 <Sx>= 0.0000 <Sy>= 0.0000 <Sz>= 0.5000 <S**2>= 1.1079 S= 0.6653
 <L.S>= 0.000000000000E+00
 Annihilation of the first spin contaminant:
 S**2 before annihilation     1.1079,   after     0.8668

 **********************************************************************

            Population analysis using the SCF density.

 **********************************************************************

 Orbital symmetries:
 Alpha Orbitals:
       Occupied  (A) (A) (A) (A) (A) (A) (A) (A) (A) (A) (A) (A)
                 (A) (A) (A) (A) (A) (A) (A) (A) (A) (A) (A) (A)
                 (A) (A) (A) (A) (A) (A) (A) (A) (A) (A) (A) (A)
                 (A) (A) (A) (A) (A) (A) (A) (A) (A) (A) (A) (A)
                 (A) (A) (A) (A) (A) (A) (A) (A) (A) (A) (A) (A)
                 (A) (A) (A) (A) (A) (A) (A) (A) (A) (A) (A) (A)
                 (A) (A) (A) (A) (A) (A) (A) (A) (A) (A) (A) (A)
                 (A) (A) (A) (A) (A) (A) (A) (A) (A) (A) (A) (A)
                 (A) (A) (A) (A) (A) (A) (A) (A) (A) (A) (A) (A)
                 (A) (A) (A) (A) (A) (A) (A) (A) (A) (A) (A) (A)
                 (A) (A) (A) (A) (A) (A) (A) (A) (A) (A) (A) (A)
                 (A) (A) (A) (A) (A) (A) (A) (A) (A) (A) (A) (A)
                 (A) (A) (A) (A) (A) (A) (A) (A) (A) (A) (A) (A)
                 (A) (A) (A) (A) (A) (A) (A) (A) (A) (A) (A) (A)
                 (A) (A) (A) (A) (A) (A) (A) (A) (A) (A) (A) (A)
                 (A) (A) (A) (A) (A) (A) (A) (A) (A) (A) (A) (A)
                 (A) (A) (A) (A) (A) (A) (A) (A) (A) (A) (A) (A)
                 (A) (A) (A)
       Virtual   (A) (A) (A) (A) (A) (A) (A) (A) (A) (A) (A) (A)
                 (A) (A) (A) (A) (A) (A) (A) (A) (A) (A) (A) (A)
                 (A) (A) (A) (A) (A) (A) (A) (A) (A) (A) (A) (A)
                 (A) (A) (A) (A) (A) (A) (A) (A) (A) (A) (A) (A)
                 (A) (A) (A) (A) (A) (A) (A) (A) (A) (A) (A) (A)
                 (A) (A) (A) (A) (A) (A) (A) (A) (A) (A) (A) (A)
                 (A) (A) (A) (A) (A) (A) (A) (A) (A) (A) (A) (A)
                 (A) (A) (A) (A) (A) (A) (A) (A) (A) (A) (A) (A)
                 (A) (A) (A) (A) (A) (A) (A) (A) (A) (A) (A) (A)
                 (A) (A) (A) (A) (A) (A) (A) (A) (A) (A) (A) (A)
                 (A) (A) (A) (A) (A) (A) (A) (A) (A) (A) (A) (A)
                 (A) (A) (A) (A) (A) (A) (A) (A) (A) (A) (A) (A)
                 (A) (A) (A) (A) (A) (A) (A) (A) (A) (A) (A) (A)
                 (A) (A) (A) (A) (A) (A) (A) (A) (A) (A) (A) (A)
                 (A) (A) (A) (A) (A) (A) (A) (A) (A) (A) (A) (A)
                 (A) (A) (A) (A) (A) (A) (A) (A) (A) (A) (A) (A)
                 (A) (A) (A) (A) (A) (A) (A) (A) (A) (A) (A) (A)
                 (A) (A) (A) (A) (A) (A) (A) (A) (A) (A) (A) (A)
                 (A) (A) (A) (A) (A) (A) (A) (A) (A) (A) (A) (A)
                 (A) (A) (A) (A) (A) (A) (A) (A) (A) (A) (A) (A)
                 (A) (A) (A) (A) (A) (A) (A) (A) (A) (A) (A) (A)
                 (A) (A) (A) (A) (A) (A) (A) (A) (A) (A) (A) (A)
                 (A) (A) (A) (A) (A) (A) (A) (A) (A) (A) (A) (A)
                 (A) (A) (A) (A) (A) (A) (A) (A) (A) (A) (A) (A)
                 (A) (A) (A) (A) (A) (A) (A) (A) (A) (A) (A) (A)
                 (A) (A) (A) (A) (A) (A) (A) (A) (A) (A) (A) (A)
                 (A) (A) (A) (A) (A) (A) (A) (A) (A) (A) (A) (A)
                 (A) (A) (A) (A) (A) (A) (A) (A) (A) (A) (A) (A)
                 (A) (A) (A) (A) (A) (A) (A) (A) (A) (A) (A) (A)
                 (A) (A) (A) (A) (A) (A) (A) (A) (A) (A) (A) (A)
                 (A) (A) (A) (A) (A) (A) (A) (A) (A) (A) (A) (A)
                 (A) (A) (A) (A) (A) (A) (A) (A) (A) (A) (A) (A)
                 (A) (A) (A) (A) (A) (A) (A) (A) (A) (A) (A) (A)
                 (A) (A) (A) (A) (A) (A) (A) (A) (A) (A) (A) (A)
                 (A) (A) (A) (A) (A) (A) (A) (A) (A) (A) (A) (A)
                 (A) (A) (A) (A) (A) (A) (A) (A) (A) (A) (A) (A)
                 (A) (A) (A) (A) (A) (A) (A) (A) (A) (A) (A) (A)
                 (A) (A) (A) (A) (A) (A) (A) (A) (A) (A) (A) (A)
                 (A) (A) (A) (A) (A) (A) (A) (A) (A) (A) (A) (A)
                 (A) (A) (A) (A) (A) (A) (A) (A) (A) (A) (A) (A)
                 (A) (A) (A) (A) (A) (A) (A) (A) (A) (A) (A) (A)
                 (A) (A) (A) (A) (A) (A) (A) (A) (A) (A) (A) (A)
                 (A) (A) (A) (A) (A) (A) (A) (A) (A) (A) (A) (A)
                 (A) (A) (A) (A) (A) (A) (A) (A) (A) (A) (A) (A)
                 (A) (A) (A) (A) (A) (A) (A) (A) (A) (A) (A) (A)
                 (A) (A) (A) (A) (A) (A) (A) (A) (A) (A) (A) (A)
                 (A) (A) (A) (A) (A) (A) (A) (A) (A) (A) (A) (A)
                 (A) (A) (A) (A) (A) (A) (A) (A) (A) (A) (A) (A)
                 (A) (A) (A) (A) (A) (A) (A) (A) (A) (A) (A) (A)
                 (A) (A) (A) (A) (A) (A) (A) (A) (A) (A) (A) (A)
                 (A) (A) (A) (A) (A) (A) (A) (A) (A) (A) (A) (A)
                 (A) (A) (A) (A) (A) (A) (A) (A) (A) (A) (A) (A)
                 (A) (A) (A) (A) (A) (A) (A) (A) (A) (A) (A) (A)
                 (A) (A) (A) (A) (A) (A) (A) (A) (A) (A) (A) (A)
                 (A) (A) (A) (A) (A) (A) (A) (A) (A) (A) (A) (A)
                 (A) (A) (A) (A) (A) (A) (A) (A) (A) (A) (A) (A)
                 (A) (A) (A) (A) (A) (A) (A) (A) (A) (A) (A) (A)
                 (A) (A) (A) (A) (A) (A) (A) (A) (A) (A) (A) (A)
                 (A) (A) (A) (A) (A) (A) (A) (A) (A) (A) (A) (A)
                 (A) (A) (A) (A) (A) (A) (A) (A) (A) (A) (A) (A)
                 (A) (A) (A) (A) (A) (A) (A) (A) (A) (A) (A) (A)
                 (A) (A) (A) (A) (A) (A) (A) (A) (A) (A) (A) (A)
                 (A) (A) (A) (A) (A) (A) (A) (A) (A) (A) (A) (A)
                 (A) (A) (A) (A) (A) (A) (A) (A) (A) (A) (A) (A)
                 (A) (A) (A) (A) (A) (A) (A) (A) (A) (A) (A) (A)
                 (A) (A) (A) (A) (A) (A) (A) (A) (A) (A) (A) (A)
                 (A) (A) (A) (A) (A) (A) (A) (A) (A) (A) (A) (A)
                 (A) (A) (A) (A) (A) (A) (A) (A) (A) (A) (A) (A)
                 (A) (A) (A) (A) (A) (A) (A) (A) (A) (A) (A) (A)
                 (A) (A) (A) (A) (A) (A) (A) (A) (A) (A) (A) (A)
                 (A) (A) (A) (A) (A) (A) (A) (A) (A) (A) (A) (A)
                 (A) (A) (A) (A) (A) (A) (A) (A) (A) (A) (A) (A)
                 (A) (A) (A) (A) (A) (A) (A) (A) (A) (A) (A) (A)
                 (A) (A) (A) (A) (A) (A) (A) (A) (A) (A) (A) (A)
                 (A) (A) (A) (A) (A) (A) (A) (A) (A) (A) (A) (A)
                 (A) (A) (A) (A) (A) (A) (A) (A) (A) (A) (A) (A)
                 (A) (A) (A) (A) (A) (A) (A) (A) (A) (A) (A) (A)
                 (A) (A) (A) (A) (A) (A) (A) (A) (A) (A) (A) (A)
                 (A) (A) (A) (A) (A) (A) (A) (A) (A) (A) (A) (A)
                 (A) (A) (A) (A) (A) (A) (A) (A) (A) (A) (A) (A)
                 (A) (A) (A) (A) (A) (A) (A) (A) (A) (A) (A) (A)
                 (A) (A) (A) (A) (A) (A) (A) (A) (A) (A) (A) (A)
                 (A) (A) (A) (A) (A) (A) (A) (A) (A) (A) (A) (A)
                 (A) (A) (A) (A) (A) (A) (A) (A) (A) (A) (A) (A)
                 (A) (A) (A) (A) (A) (A) (A) (A) (A) (A) (A) (A)
                 (A) (A) (A) (A) (A) (A) (A) (A) (A) (A) (A) (A)
                 (A) (A) (A) (A) (A) (A) (A) (A) (A) (A) (A) (A)
                 (A) (A) (A) (A) (A) (A) (A) (A) (A) (A) (A) (A)
                 (A) (A) (A) (A) (A) (A) (A) (A) (A) (A) (A) (A)
                 (A) (A) (A) (A) (A) (A) (A) (A) (A) (A) (A) (A)
                 (A) (A) (A) (A) (A) (A) (A) (A) (A) (A) (A) (A)
                 (A) (A) (A) (A) (A) (A) (A) (A) (A) (A) (A) (A)
                 (A) (A) (A) (A) (A) (A) (A) (A) (A) (A) (A) (A)
                 (A) (A) (A) (A) (A) (A) (A) (A) (A) (A) (A) (A)
                 (A) (A) (A) (A) (A) (A) (A) (A) (A) (A) (A) (A)
                 (A) (A) (A) (A) (A) (A) (A) (A) (A) (A) (A) (A)
                 (A) (A) (A) (A) (A) (A) (A) (A) (A) (A) (A) (A)
                 (A) (A) (A) (A) (A) (A) (A) (A) (A) (A) (A) (A)
                 (A) (A) (A) (A) (A) (A) (A) (A) (A) (A) (A) (A)
                 (A) (A) (A) (A) (A) (A) (A) (A) (A) (A) (A) (A)
                 (A) (A) (A) (A) (A) (A) (A) (A) (A) (A) (A) (A)
                 (A) (A) (A) (A) (A) (A) (A) (A) (A) (A) (A) (A)
                 (A) (A) (A) (A) (A) (A) (A) (A) (A) (A) (A) (A)
                 (A) (A) (A) (A) (A) (A) (A) (A) (A) (A) (A) (A)
                 (A) (A) (A) (A) (A) (A) (A) (A) (A) (A) (A) (A)
                 (A) (A) (A) (A) (A) (A) (A) (A) (A) (A) (A) (A)
                 (A) (A) (A) (A) (A) (A) (A) (A) (A) (A) (A) (A)
                 (A) (A) (A) (A) (A) (A) (A) (A) (A) (A) (A) (A)
                 (A) (A) (A) (A) (A) (A) (A) (A) (A) (A) (A) (A)
                 (A) (A) (A) (A) (A) (A) (A) (A) (A) (A) (A) (A)
                 (A) (A) (A) (A) (A) (A) (A) (A) (A) (A) (A) (A)
                 (A) (A) (A) (A) (A) (A) (A) (A) (A) (A) (A) (A)
                 (A) (A) (A) (A) (A) (A) (A) (A) (A) (A) (A) (A)
                 (A) (A) (A) (A) (A) (A) (A) (A) (A) (A) (A) (A)
                 (A) (A) (A) (A) (A) (A) (A) (A) (A) (A) (A) (A)
                 (A) (A) (A) (A) (A) (A) (A) (A) (A) (A) (A) (A)
                 (A) (A) (A) (A) (A) (A) (A) (A) (A) (A) (A) (A)
                 (A) (A) (A) (A) (A) (A) (A) (A) (A) (A) (A) (A)
                 (A) (A) (A) (A) (A) (A) (A) (A) (A) (A) (A) (A)
                 (A) (A) (A) (A) (A) (A) (A) (A) (A) (A) (A) (A)
                 (A) (A) (A) (A) (A) (A) (A) (A) (A) (A) (A) (A)
                 (A) (A) (A) (A) (A) (A) (A) (A) (A) (A) (A) (A)
                 (A) (A) (A) (A) (A) (A) (A) (A) (A) (A) (A) (A)
                 (A) (A) (A) (A) (A) (A) (A) (A) (A) (A) (A) (A)
                 (A) (A) (A) (A) (A) (A) (A) (A) (A) (A) (A) (A)
                 (A) (A) (A) (A) (A) (A) (A) (A) (A) (A) (A) (A)
                 (A) (A) (A) (A) (A) (A) (A) (A) (A) (A) (A) (A)
                 (A) (A) (A) (A) (A) (A) (A) (A) (A) (A) (A) (A)
                 (A) (A) (A) (A) (A) (A) (A) (A) (A) (A) (A) (A)
                 (A) (A) (A) (A) (A) (A) (A) (A) (A) (A) (A) (A)
                 (A) (A) (A) (A) (A) (A) (A) (A) (A) (A) (A) (A)
                 (A) (A) (A) (A) (A) (A) (A) (A) (A) (A) (A) (A)
                 (A) (A) (A) (A) (A) (A) (A) (A) (A) (A) (A) (A)
                 (A) (A) (A) (A) (A) (A) (A) (A) (A) (A) (A) (A)
                 (A) (A) (A) (A) (A) (A) (A) (A) (A) (A) (A) (A)
                 (A) (A) (A) (A) (A) (A) (A) (A) (A) (A) (A) (A)
                 (A) (A) (A) (A) (A) (A) (A) (A) (A) (A) (A) (A)
                 (A) (A) (A) (A) (A) (A) (A) (A) (A) (A) (A) (A)
                 (A) (A) (A) (A) (A) (A) (A) (A) (A) (A) (A) (A)
                 (A) (A) (A) (A) (A) (A) (A) (A) (A) (A) (A) (A)
                 (A) (A) (A) (A) (A) (A) (A) (A) (A) (A) (A) (A)
                 (A) (A) (A) (A) (A) (A) (A) (A) (A) (A) (A) (A)
                 (A) (A) (A) (A) (A) (A) (A) (A) (A) (A) (A) (A)
                 (A) (A) (A) (A) (A) (A) (A) (A) (A) (A) (A) (A)
                 (A) (A) (A) (A) (A) (A) (A) (A) (A) (A) (A) (A)
 Beta  Orbitals:
       Occupied  (A) (A) (A) (A) (A) (A) (A) (A) (A) (A) (A) (A)
                 (A) (A) (A) (A) (A) (A) (A) (A) (A) (A) (A) (A)
                 (A) (A) (A) (A) (A) (A) (A) (A) (A) (A) (A) (A)
                 (A) (A) (A) (A) (A) (A) (A) (A) (A) (A) (A) (A)
                 (A) (A) (A) (A) (A) (A) (A) (A) (A) (A) (A) (A)
                 (A) (A) (A) (A) (A) (A) (A) (A) (A) (A) (A) (A)
                 (A) (A) (A) (A) (A) (A) (A) (A) (A) (A) (A) (A)
                 (A) (A) (A) (A) (A) (A) (A) (A) (A) (A) (A) (A)
                 (A) (A) (A) (A) (A) (A) (A) (A) (A) (A) (A) (A)
                 (A) (A) (A) (A) (A) (A) (A) (A) (A) (A) (A) (A)
                 (A) (A) (A) (A) (A) (A) (A) (A) (A) (A) (A) (A)
                 (A) (A) (A) (A) (A) (A) (A) (A) (A) (A) (A) (A)
                 (A) (A) (A) (A) (A) (A) (A) (A) (A) (A) (A) (A)
                 (A) (A) (A) (A) (A) (A) (A) (A) (A) (A) (A) (A)
                 (A) (A) (A) (A) (A) (A) (A) (A) (A) (A) (A) (A)
                 (A) (A) (A) (A) (A) (A) (A) (A) (A) (A) (A) (A)
                 (A) (A) (A) (A) (A) (A) (A) (A) (A) (A) (A) (A)
                 (A) (A)
       Virtual   (A) (A) (A) (A) (A) (A) (A) (A) (A) (A) (A) (A)
                 (A) (A) (A) (A) (A) (A) (A) (A) (A) (A) (A) (A)
                 (A) (A) (A) (A) (A) (A) (A) (A) (A) (A) (A) (A)
                 (A) (A) (A) (A) (A) (A) (A) (A) (A) (A) (A) (A)
                 (A) (A) (A) (A) (A) (A) (A) (A) (A) (A) (A) (A)
                 (A) (A) (A) (A) (A) (A) (A) (A) (A) (A) (A) (A)
                 (A) (A) (A) (A) (A) (A) (A) (A) (A) (A) (A) (A)
                 (A) (A) (A) (A) (A) (A) (A) (A) (A) (A) (A) (A)
                 (A) (A) (A) (A) (A) (A) (A) (A) (A) (A) (A) (A)
                 (A) (A) (A) (A) (A) (A) (A) (A) (A) (A) (A) (A)
                 (A) (A) (A) (A) (A) (A) (A) (A) (A) (A) (A) (A)
                 (A) (A) (A) (A) (A) (A) (A) (A) (A) (A) (A) (A)
                 (A) (A) (A) (A) (A) (A) (A) (A) (A) (A) (A) (A)
                 (A) (A) (A) (A) (A) (A) (A) (A) (A) (A) (A) (A)
                 (A) (A) (A) (A) (A) (A) (A) (A) (A) (A) (A) (A)
                 (A) (A) (A) (A) (A) (A) (A) (A) (A) (A) (A) (A)
                 (A) (A) (A) (A) (A) (A) (A) (A) (A) (A) (A) (A)
                 (A) (A) (A) (A) (A) (A) (A) (A) (A) (A) (A) (A)
                 (A) (A) (A) (A) (A) (A) (A) (A) (A) (A) (A) (A)
                 (A) (A) (A) (A) (A) (A) (A) (A) (A) (A) (A) (A)
                 (A) (A) (A) (A) (A) (A) (A) (A) (A) (A) (A) (A)
                 (A) (A) (A) (A) (A) (A) (A) (A) (A) (A) (A) (A)
                 (A) (A) (A) (A) (A) (A) (A) (A) (A) (A) (A) (A)
                 (A) (A) (A) (A) (A) (A) (A) (A) (A) (A) (A) (A)
                 (A) (A) (A) (A) (A) (A) (A) (A) (A) (A) (A) (A)
                 (A) (A) (A) (A) (A) (A) (A) (A) (A) (A) (A) (A)
                 (A) (A) (A) (A) (A) (A) (A) (A) (A) (A) (A) (A)
                 (A) (A) (A) (A) (A) (A) (A) (A) (A) (A) (A) (A)
                 (A) (A) (A) (A) (A) (A) (A) (A) (A) (A) (A) (A)
                 (A) (A) (A) (A) (A) (A) (A) (A) (A) (A) (A) (A)
                 (A) (A) (A) (A) (A) (A) (A) (A) (A) (A) (A) (A)
                 (A) (A) (A) (A) (A) (A) (A) (A) (A) (A) (A) (A)
                 (A) (A) (A) (A) (A) (A) (A) (A) (A) (A) (A) (A)
                 (A) (A) (A) (A) (A) (A) (A) (A) (A) (A) (A) (A)
                 (A) (A) (A) (A) (A) (A) (A) (A) (A) (A) (A) (A)
                 (A) (A) (A) (A) (A) (A) (A) (A) (A) (A) (A) (A)
                 (A) (A) (A) (A) (A) (A) (A) (A) (A) (A) (A) (A)
                 (A) (A) (A) (A) (A) (A) (A) (A) (A) (A) (A) (A)
                 (A) (A) (A) (A) (A) (A) (A) (A) (A) (A) (A) (A)
                 (A) (A) (A) (A) (A) (A) (A) (A) (A) (A) (A) (A)
                 (A) (A) (A) (A) (A) (A) (A) (A) (A) (A) (A) (A)
                 (A) (A) (A) (A) (A) (A) (A) (A) (A) (A) (A) (A)
                 (A) (A) (A) (A) (A) (A) (A) (A) (A) (A) (A) (A)
                 (A) (A) (A) (A) (A) (A) (A) (A) (A) (A) (A) (A)
                 (A) (A) (A) (A) (A) (A) (A) (A) (A) (A) (A) (A)
                 (A) (A) (A) (A) (A) (A) (A) (A) (A) (A) (A) (A)
                 (A) (A) (A) (A) (A) (A) (A) (A) (A) (A) (A) (A)
                 (A) (A) (A) (A) (A) (A) (A) (A) (A) (A) (A) (A)
                 (A) (A) (A) (A) (A) (A) (A) (A) (A) (A) (A) (A)
                 (A) (A) (A) (A) (A) (A) (A) (A) (A) (A) (A) (A)
                 (A) (A) (A) (A) (A) (A) (A) (A) (A) (A) (A) (A)
                 (A) (A) (A) (A) (A) (A) (A) (A) (A) (A) (A) (A)
                 (A) (A) (A) (A) (A) (A) (A) (A) (A) (A) (A) (A)
                 (A) (A) (A) (A) (A) (A) (A) (A) (A) (A) (A) (A)
                 (A) (A) (A) (A) (A) (A) (A) (A) (A) (A) (A) (A)
                 (A) (A) (A) (A) (A) (A) (A) (A) (A) (A) (A) (A)
                 (A) (A) (A) (A) (A) (A) (A) (A) (A) (A) (A) (A)
                 (A) (A) (A) (A) (A) (A) (A) (A) (A) (A) (A) (A)
                 (A) (A) (A) (A) (A) (A) (A) (A) (A) (A) (A) (A)
                 (A) (A) (A) (A) (A) (A) (A) (A) (A) (A) (A) (A)
                 (A) (A) (A) (A) (A) (A) (A) (A) (A) (A) (A) (A)
                 (A) (A) (A) (A) (A) (A) (A) (A) (A) (A) (A) (A)
                 (A) (A) (A) (A) (A) (A) (A) (A) (A) (A) (A) (A)
                 (A) (A) (A) (A) (A) (A) (A) (A) (A) (A) (A) (A)
                 (A) (A) (A) (A) (A) (A) (A) (A) (A) (A) (A) (A)
                 (A) (A) (A) (A) (A) (A) (A) (A) (A) (A) (A) (A)
                 (A) (A) (A) (A) (A) (A) (A) (A) (A) (A) (A) (A)
                 (A) (A) (A) (A) (A) (A) (A) (A) (A) (A) (A) (A)
                 (A) (A) (A) (A) (A) (A) (A) (A) (A) (A) (A) (A)
                 (A) (A) (A) (A) (A) (A) (A) (A) (A) (A) (A) (A)
                 (A) (A) (A) (A) (A) (A) (A) (A) (A) (A) (A) (A)
                 (A) (A) (A) (A) (A) (A) (A) (A) (A) (A) (A) (A)
                 (A) (A) (A) (A) (A) (A) (A) (A) (A) (A) (A) (A)
                 (A) (A) (A) (A) (A) (A) (A) (A) (A) (A) (A) (A)
                 (A) (A) (A) (A) (A) (A) (A) (A) (A) (A) (A) (A)
                 (A) (A) (A) (A) (A) (A) (A) (A) (A) (A) (A) (A)
                 (A) (A) (A) (A) (A) (A) (A) (A) (A) (A) (A) (A)
                 (A) (A) (A) (A) (A) (A) (A) (A) (A) (A) (A) (A)
                 (A) (A) (A) (A) (A) (A) (A) (A) (A) (A) (A) (A)
                 (A) (A) (A) (A) (A) (A) (A) (A) (A) (A) (A) (A)
                 (A) (A) (A) (A) (A) (A) (A) (A) (A) (A) (A) (A)
                 (A) (A) (A) (A) (A) (A) (A) (A) (A) (A) (A) (A)
                 (A) (A) (A) (A) (A) (A) (A) (A) (A) (A) (A) (A)
                 (A) (A) (A) (A) (A) (A) (A) (A) (A) (A) (A) (A)
                 (A) (A) (A) (A) (A) (A) (A) (A) (A) (A) (A) (A)
                 (A) (A) (A) (A) (A) (A) (A) (A) (A) (A) (A) (A)
                 (A) (A) (A) (A) (A) (A) (A) (A) (A) (A) (A) (A)
                 (A) (A) (A) (A) (A) (A) (A) (A) (A) (A) (A) (A)
                 (A) (A) (A) (A) (A) (A) (A) (A) (A) (A) (A) (A)
                 (A) (A) (A) (A) (A) (A) (A) (A) (A) (A) (A) (A)
                 (A) (A) (A) (A) (A) (A) (A) (A) (A) (A) (A) (A)
                 (A) (A) (A) (A) (A) (A) (A) (A) (A) (A) (A) (A)
                 (A) (A) (A) (A) (A) (A) (A) (A) (A) (A) (A) (A)
                 (A) (A) (A) (A) (A) (A) (A) (A) (A) (A) (A) (A)
                 (A) (A) (A) (A) (A) (A) (A) (A) (A) (A) (A) (A)
                 (A) (A) (A) (A) (A) (A) (A) (A) (A) (A) (A) (A)
                 (A) (A) (A) (A) (A) (A) (A) (A) (A) (A) (A) (A)
                 (A) (A) (A) (A) (A) (A) (A) (A) (A) (A) (A) (A)
                 (A) (A) (A) (A) (A) (A) (A) (A) (A) (A) (A) (A)
                 (A) (A) (A) (A) (A) (A) (A) (A) (A) (A) (A) (A)
                 (A) (A) (A) (A) (A) (A) (A) (A) (A) (A) (A) (A)
                 (A) (A) (A) (A) (A) (A) (A) (A) (A) (A) (A) (A)
                 (A) (A) (A) (A) (A) (A) (A) (A) (A) (A) (A) (A)
                 (A) (A) (A) (A) (A) (A) (A) (A) (A) (A) (A) (A)
                 (A) (A) (A) (A) (A) (A) (A) (A) (A) (A) (A) (A)
                 (A) (A) (A) (A) (A) (A) (A) (A) (A) (A) (A) (A)
                 (A) (A) (A) (A) (A) (A) (A) (A) (A) (A) (A) (A)
                 (A) (A) (A) (A) (A) (A) (A) (A) (A) (A) (A) (A)
                 (A) (A) (A) (A) (A) (A) (A) (A) (A) (A) (A) (A)
                 (A) (A) (A) (A) (A) (A) (A) (A) (A) (A) (A) (A)
                 (A) (A) (A) (A) (A) (A) (A) (A) (A) (A) (A) (A)
                 (A) (A) (A) (A) (A) (A) (A) (A) (A) (A) (A) (A)
                 (A) (A) (A) (A) (A) (A) (A) (A) (A) (A) (A) (A)
                 (A) (A) (A) (A) (A) (A) (A) (A) (A) (A) (A) (A)
                 (A) (A) (A) (A) (A) (A) (A) (A) (A) (A) (A) (A)
                 (A) (A) (A) (A) (A) (A) (A) (A) (A) (A) (A) (A)
                 (A) (A) (A) (A) (A) (A) (A) (A) (A) (A) (A) (A)
                 (A) (A) (A) (A) (A) (A) (A) (A) (A) (A) (A) (A)
                 (A) (A) (A) (A) (A) (A) (A) (A) (A) (A) (A) (A)
                 (A) (A) (A) (A) (A) (A) (A) (A) (A) (A) (A) (A)
                 (A) (A) (A) (A) (A) (A) (A) (A) (A) (A) (A) (A)
                 (A) (A) (A) (A) (A) (A) (A) (A) (A) (A) (A) (A)
                 (A) (A) (A) (A) (A) (A) (A) (A) (A) (A) (A) (A)
                 (A) (A) (A) (A) (A) (A) (A) (A) (A) (A) (A) (A)
                 (A) (A) (A) (A) (A) (A) (A) (A) (A) (A) (A) (A)
                 (A) (A) (A) (A) (A) (A) (A) (A) (A) (A) (A) (A)
                 (A) (A) (A) (A) (A) (A) (A) (A) (A) (A) (A) (A)
                 (A) (A) (A) (A) (A) (A) (A) (A) (A) (A) (A) (A)
                 (A) (A) (A) (A) (A) (A) (A) (A) (A) (A) (A) (A)
                 (A) (A) (A) (A) (A) (A) (A) (A) (A) (A) (A) (A)
                 (A) (A) (A) (A) (A) (A) (A) (A) (A) (A) (A) (A)
                 (A) (A) (A) (A) (A) (A) (A) (A) (A) (A) (A) (A)
                 (A) (A) (A) (A) (A) (A) (A) (A) (A) (A) (A) (A)
                 (A) (A) (A) (A) (A) (A) (A) (A) (A) (A) (A) (A)
                 (A) (A) (A) (A) (A) (A) (A) (A) (A) (A) (A) (A)
                 (A) (A) (A) (A) (A) (A) (A) (A) (A) (A) (A) (A)
                 (A) (A) (A) (A) (A) (A) (A) (A) (A) (A) (A) (A)
                 (A) (A) (A) (A) (A) (A) (A) (A) (A) (A) (A) (A)
                 (A) (A) (A) (A) (A) (A) (A) (A) (A) (A) (A) (A)
                 (A) (A) (A) (A) (A) (A) (A) (A) (A) (A) (A) (A)
                 (A) (A) (A) (A) (A) (A) (A) (A) (A) (A) (A) (A)
                 (A) (A) (A) (A) (A) (A) (A) (A) (A) (A) (A) (A)
                 (A) (A) (A) (A) (A) (A) (A) (A) (A) (A) (A) (A)
                 (A) (A) (A) (A) (A) (A) (A) (A) (A) (A) (A) (A)
                 (A) (A) (A) (A) (A) (A) (A) (A) (A) (A) (A) (A)
                 (A)
 The electronic state is 2-A.
 Alpha  occ. eigenvalues -- -256.45040 -30.21500 -26.04485 -26.03970 -26.03851
 Alpha  occ. eigenvalues --  -19.35350 -19.34526 -19.33108 -19.32604 -19.31330
 Alpha  occ. eigenvalues --  -19.30958 -19.26826 -19.26215 -19.25313 -19.25195
 Alpha  occ. eigenvalues --  -14.54542 -14.52883 -14.52660 -14.50414 -14.50167
 Alpha  occ. eigenvalues --  -14.50114 -10.43921 -10.43821 -10.43460 -10.42413
 Alpha  occ. eigenvalues --  -10.41233 -10.40952 -10.39847 -10.39356 -10.39349
 Alpha  occ. eigenvalues --  -10.38989 -10.38668 -10.38542 -10.38289 -10.38064
 Alpha  occ. eigenvalues --  -10.37990 -10.36427 -10.35971 -10.35864 -10.34437
 Alpha  occ. eigenvalues --  -10.34383 -10.34379 -10.34293 -10.34278 -10.34195
 Alpha  occ. eigenvalues --  -10.34086 -10.33992 -10.33740 -10.33468 -10.32898
 Alpha  occ. eigenvalues --  -10.32856 -10.32667 -10.32637 -10.32414 -10.32282
 Alpha  occ. eigenvalues --  -10.32104 -10.31914 -10.31494 -10.31292  -3.56512
 Alpha  occ. eigenvalues --   -2.32735  -2.31809  -2.31467  -1.25725  -1.25096
 Alpha  occ. eigenvalues --   -1.24068  -1.23543  -1.16272  -1.13230  -1.12305
 Alpha  occ. eigenvalues --   -1.11119  -1.10457  -1.10210  -1.09427  -1.09231
 Alpha  occ. eigenvalues --   -1.08480  -1.05094  -1.04962  -1.00896  -0.99199
 Alpha  occ. eigenvalues --   -0.98444  -0.96119  -0.94374  -0.94270  -0.93448
 Alpha  occ. eigenvalues --   -0.93233  -0.90716  -0.90580  -0.90147  -0.89815
 Alpha  occ. eigenvalues --   -0.89448  -0.88597  -0.86335  -0.83752  -0.83194
 Alpha  occ. eigenvalues --   -0.82614  -0.81906  -0.81682  -0.79853  -0.79433
 Alpha  occ. eigenvalues --   -0.78784  -0.78580  -0.77278  -0.75421  -0.74704
 Alpha  occ. eigenvalues --   -0.74591  -0.74134  -0.73002  -0.72086  -0.70890
 Alpha  occ. eigenvalues --   -0.70293  -0.68466  -0.68022  -0.67187  -0.66645
 Alpha  occ. eigenvalues --   -0.66265  -0.65163  -0.64807  -0.64159  -0.63077
 Alpha  occ. eigenvalues --   -0.62163  -0.62017  -0.61291  -0.60834  -0.60459
 Alpha  occ. eigenvalues --   -0.60059  -0.59878  -0.59416  -0.59285  -0.59201
 Alpha  occ. eigenvalues --   -0.58525  -0.58090  -0.57826  -0.57552  -0.57307
 Alpha  occ. eigenvalues --   -0.57027  -0.56821  -0.56072  -0.55956  -0.55583
 Alpha  occ. eigenvalues --   -0.55385  -0.55282  -0.55177  -0.54854  -0.54367
 Alpha  occ. eigenvalues --   -0.54008  -0.53665  -0.53428  -0.53254  -0.52889
 Alpha  occ. eigenvalues --   -0.52616  -0.52541  -0.52203  -0.52108  -0.51961
 Alpha  occ. eigenvalues --   -0.51833  -0.51790  -0.51322  -0.51023  -0.50878
 Alpha  occ. eigenvalues --   -0.50546  -0.49783  -0.49615  -0.49550  -0.49188
 Alpha  occ. eigenvalues --   -0.49075  -0.48913  -0.48382  -0.48098  -0.47814
 Alpha  occ. eigenvalues --   -0.47493  -0.47276  -0.47082  -0.46695  -0.46484
 Alpha  occ. eigenvalues --   -0.46405  -0.45920  -0.45587  -0.45474  -0.45271
 Alpha  occ. eigenvalues --   -0.44532  -0.44131  -0.43899  -0.43215  -0.42951
 Alpha  occ. eigenvalues --   -0.42713  -0.42088  -0.41495  -0.41044  -0.40125
 Alpha  occ. eigenvalues --   -0.40054  -0.39503  -0.39233  -0.37640  -0.37511
 Alpha  occ. eigenvalues --   -0.37303  -0.36583  -0.36294  -0.36140  -0.35554
 Alpha  occ. eigenvalues --   -0.35200  -0.34836  -0.34260  -0.32896  -0.32523
 Alpha  occ. eigenvalues --   -0.32164  -0.31842
 Alpha virt. eigenvalues --   -0.21414  -0.21107  -0.16689  -0.15567  -0.13520
 Alpha virt. eigenvalues --   -0.11398  -0.10632  -0.09560  -0.09268  -0.08202
 Alpha virt. eigenvalues --   -0.08024  -0.07472  -0.06857  -0.06300  -0.05878
 Alpha virt. eigenvalues --   -0.05409  -0.04677  -0.04633  -0.04271  -0.04088
 Alpha virt. eigenvalues --   -0.03880  -0.03276  -0.02776  -0.02443  -0.02238
 Alpha virt. eigenvalues --   -0.02093  -0.01897  -0.01650  -0.01597  -0.01044
 Alpha virt. eigenvalues --   -0.00923  -0.00217  -0.00150  -0.00101   0.00308
 Alpha virt. eigenvalues --    0.00650   0.00998   0.01240   0.01415   0.01640
 Alpha virt. eigenvalues --    0.01783   0.01944   0.02229   0.02347   0.02577
 Alpha virt. eigenvalues --    0.02949   0.03165   0.03408   0.04037   0.04162
 Alpha virt. eigenvalues --    0.04395   0.04628   0.04815   0.04978   0.05156
 Alpha virt. eigenvalues --    0.05376   0.05887   0.06185   0.06383   0.06580
 Alpha virt. eigenvalues --    0.06632   0.06908   0.07060   0.07547   0.07639
 Alpha virt. eigenvalues --    0.07992   0.08052   0.08344   0.08407   0.08613
 Alpha virt. eigenvalues --    0.09206   0.09300   0.09574   0.09696   0.09782
 Alpha virt. eigenvalues --    0.09825   0.10223   0.10605   0.10898   0.11197
 Alpha virt. eigenvalues --    0.11401   0.11561   0.11659   0.11992   0.12049
 Alpha virt. eigenvalues --    0.12238   0.12454   0.12750   0.13026   0.13109
 Alpha virt. eigenvalues --    0.13429   0.13658   0.14068   0.14239   0.14480
 Alpha virt. eigenvalues --    0.14526   0.14790   0.15002   0.15054   0.15408
 Alpha virt. eigenvalues --    0.15549   0.15721   0.15949   0.16318   0.16390
 Alpha virt. eigenvalues --    0.16525   0.16892   0.16986   0.17493   0.17691
 Alpha virt. eigenvalues --    0.17993   0.18148   0.18422   0.18720   0.18816
 Alpha virt. eigenvalues --    0.19098   0.19373   0.19580   0.19798   0.20073
 Alpha virt. eigenvalues --    0.20328   0.20388   0.20733   0.20844   0.21009
 Alpha virt. eigenvalues --    0.21209   0.21519   0.21693   0.21949   0.22455
 Alpha virt. eigenvalues --    0.22508   0.22735   0.22766   0.22837   0.23186
 Alpha virt. eigenvalues --    0.23543   0.23870   0.24183   0.24355   0.24527
 Alpha virt. eigenvalues --    0.24713   0.24949   0.25078   0.25170   0.25525
 Alpha virt. eigenvalues --    0.25760   0.26042   0.26297   0.26403   0.26539
 Alpha virt. eigenvalues --    0.26711   0.27070   0.27128   0.27353   0.27708
 Alpha virt. eigenvalues --    0.27808   0.27855   0.27936   0.28189   0.28556
 Alpha virt. eigenvalues --    0.28896   0.29172   0.29292   0.29746   0.29793
 Alpha virt. eigenvalues --    0.29901   0.30105   0.30176   0.30424   0.30692
 Alpha virt. eigenvalues --    0.30887   0.31048   0.31524   0.31593   0.31671
 Alpha virt. eigenvalues --    0.31860   0.32123   0.32320   0.32556   0.32688
 Alpha virt. eigenvalues --    0.32907   0.33099   0.33484   0.33542   0.33607
 Alpha virt. eigenvalues --    0.33746   0.33921   0.34363   0.34601   0.34878
 Alpha virt. eigenvalues --    0.34908   0.35044   0.35279   0.35330   0.35573
 Alpha virt. eigenvalues --    0.35787   0.35823   0.36133   0.36398   0.36440
 Alpha virt. eigenvalues --    0.36673   0.36861   0.36996   0.37168   0.37291
 Alpha virt. eigenvalues --    0.37478   0.37593   0.37836   0.38018   0.38215
 Alpha virt. eigenvalues --    0.38276   0.38593   0.38733   0.38899   0.39114
 Alpha virt. eigenvalues --    0.39322   0.39452   0.39701   0.40025   0.40075
 Alpha virt. eigenvalues --    0.40160   0.40524   0.40614   0.40686   0.41020
 Alpha virt. eigenvalues --    0.41225   0.41473   0.41615   0.41689   0.41767
 Alpha virt. eigenvalues --    0.41871   0.42041   0.42457   0.42743   0.42841
 Alpha virt. eigenvalues --    0.43025   0.43328   0.43465   0.43706   0.43946
 Alpha virt. eigenvalues --    0.44089   0.44101   0.44467   0.44517   0.45096
 Alpha virt. eigenvalues --    0.45135   0.45240   0.45523   0.45756   0.45851
 Alpha virt. eigenvalues --    0.46013   0.46379   0.46697   0.46963   0.47079
 Alpha virt. eigenvalues --    0.47155   0.47254   0.47615   0.47753   0.47954
 Alpha virt. eigenvalues --    0.48032   0.48384   0.48535   0.48699   0.49096
 Alpha virt. eigenvalues --    0.49285   0.49631   0.49898   0.50049   0.50074
 Alpha virt. eigenvalues --    0.50194   0.50522   0.50834   0.50878   0.50937
 Alpha virt. eigenvalues --    0.51214   0.51553   0.51634   0.51991   0.52090
 Alpha virt. eigenvalues --    0.52271   0.52862   0.53026   0.53113   0.53574
 Alpha virt. eigenvalues --    0.53680   0.54075   0.54368   0.54485   0.54675
 Alpha virt. eigenvalues --    0.54923   0.55339   0.55383   0.55748   0.55942
 Alpha virt. eigenvalues --    0.56170   0.56355   0.56803   0.56902   0.57217
 Alpha virt. eigenvalues --    0.57466   0.57725   0.57924   0.58008   0.58212
 Alpha virt. eigenvalues --    0.58627   0.58861   0.59060   0.59248   0.59468
 Alpha virt. eigenvalues --    0.60120   0.60527   0.60654   0.60929   0.61300
 Alpha virt. eigenvalues --    0.61620   0.61823   0.61977   0.62056   0.62351
 Alpha virt. eigenvalues --    0.62865   0.62993   0.63437   0.63497   0.63761
 Alpha virt. eigenvalues --    0.64111   0.64357   0.64536   0.65178   0.65373
 Alpha virt. eigenvalues --    0.65650   0.66033   0.66187   0.66770   0.66892
 Alpha virt. eigenvalues --    0.67123   0.67531   0.67893   0.68069   0.68208
 Alpha virt. eigenvalues --    0.68546   0.68789   0.69192   0.69679   0.70006
 Alpha virt. eigenvalues --    0.70099   0.70529   0.70680   0.70759   0.71095
 Alpha virt. eigenvalues --    0.71398   0.71457   0.71598   0.71992   0.72272
 Alpha virt. eigenvalues --    0.72552   0.72705   0.73103   0.73469   0.73701
 Alpha virt. eigenvalues --    0.74157   0.74259   0.74656   0.74773   0.75180
 Alpha virt. eigenvalues --    0.75447   0.75583   0.75915   0.76014   0.76399
 Alpha virt. eigenvalues --    0.77131   0.77304   0.77465   0.77677   0.77801
 Alpha virt. eigenvalues --    0.78048   0.78747   0.78896   0.78958   0.79554
 Alpha virt. eigenvalues --    0.79790   0.80114   0.80406   0.80695   0.80853
 Alpha virt. eigenvalues --    0.81066   0.81660   0.81810   0.82394   0.82551
 Alpha virt. eigenvalues --    0.82900   0.83122   0.83395   0.83586   0.83739
 Alpha virt. eigenvalues --    0.84022   0.84341   0.84919   0.85016   0.85505
 Alpha virt. eigenvalues --    0.85843   0.85946   0.86227   0.86394   0.86630
 Alpha virt. eigenvalues --    0.87047   0.87277   0.87588   0.87921   0.87980
 Alpha virt. eigenvalues --    0.88584   0.88880   0.89051   0.89378   0.89584
 Alpha virt. eigenvalues --    0.89943   0.90119   0.90649   0.90808   0.90937
 Alpha virt. eigenvalues --    0.91251   0.91636   0.92019   0.92271   0.92680
 Alpha virt. eigenvalues --    0.92974   0.93138   0.93238   0.93547   0.93849
 Alpha virt. eigenvalues --    0.94366   0.94657   0.94890   0.95195   0.95393
 Alpha virt. eigenvalues --    0.95717   0.96037   0.96334   0.96800   0.96886
 Alpha virt. eigenvalues --    0.97088   0.97522   0.97860   0.98410   0.98987
 Alpha virt. eigenvalues --    0.99170   0.99301   0.99680   0.99839   1.00233
 Alpha virt. eigenvalues --    1.00612   1.01155   1.01439   1.01904   1.02024
 Alpha virt. eigenvalues --    1.02359   1.02517   1.03123   1.03183   1.03500
 Alpha virt. eigenvalues --    1.03965   1.04094   1.04544   1.04663   1.05288
 Alpha virt. eigenvalues --    1.05523   1.05991   1.06096   1.06541   1.07161
 Alpha virt. eigenvalues --    1.07426   1.07803   1.08075   1.08670   1.08927
 Alpha virt. eigenvalues --    1.09089   1.09772   1.10097   1.10149   1.10730
 Alpha virt. eigenvalues --    1.11078   1.11386   1.11610   1.12067   1.12628
 Alpha virt. eigenvalues --    1.12958   1.13190   1.13592   1.13726   1.14213
 Alpha virt. eigenvalues --    1.14486   1.14906   1.15206   1.15546   1.15761
 Alpha virt. eigenvalues --    1.15957   1.16618   1.16919   1.17149   1.17708
 Alpha virt. eigenvalues --    1.18041   1.18454   1.18761   1.18936   1.19161
 Alpha virt. eigenvalues --    1.19509   1.20055   1.20471   1.20558   1.21241
 Alpha virt. eigenvalues --    1.21726   1.22414   1.22529   1.23089   1.23380
 Alpha virt. eigenvalues --    1.23707   1.24350   1.24404   1.24445   1.24698
 Alpha virt. eigenvalues --    1.25342   1.25641   1.26078   1.26564   1.26872
 Alpha virt. eigenvalues --    1.27213   1.27422   1.27870   1.28189   1.28570
 Alpha virt. eigenvalues --    1.28801   1.29063   1.29442   1.29643   1.30154
 Alpha virt. eigenvalues --    1.30271   1.30698   1.31047   1.31518   1.31938
 Alpha virt. eigenvalues --    1.32409   1.32649   1.33137   1.33425   1.33702
 Alpha virt. eigenvalues --    1.34048   1.34673   1.34878   1.35470   1.35717
 Alpha virt. eigenvalues --    1.35985   1.36271   1.36505   1.36578   1.37333
 Alpha virt. eigenvalues --    1.37664   1.37811   1.38153   1.38592   1.38715
 Alpha virt. eigenvalues --    1.39428   1.39430   1.40182   1.40319   1.40595
 Alpha virt. eigenvalues --    1.41520   1.41752   1.41973   1.42596   1.42849
 Alpha virt. eigenvalues --    1.43261   1.43380   1.43761   1.44123   1.44323
 Alpha virt. eigenvalues --    1.44661   1.44807   1.45091   1.45373   1.45443
 Alpha virt. eigenvalues --    1.45862   1.45997   1.46204   1.46565   1.46851
 Alpha virt. eigenvalues --    1.46933   1.47636   1.47845   1.47980   1.48186
 Alpha virt. eigenvalues --    1.48721   1.48846   1.49153   1.49374   1.49488
 Alpha virt. eigenvalues --    1.49728   1.50245   1.50441   1.50480   1.50931
 Alpha virt. eigenvalues --    1.51112   1.51422   1.51829   1.51925   1.52264
 Alpha virt. eigenvalues --    1.52474   1.52816   1.53054   1.53197   1.53494
 Alpha virt. eigenvalues --    1.53925   1.54018   1.54274   1.54492   1.54682
 Alpha virt. eigenvalues --    1.54966   1.55038   1.55435   1.55879   1.55976
 Alpha virt. eigenvalues --    1.56367   1.56550   1.57143   1.57384   1.57497
 Alpha virt. eigenvalues --    1.57838   1.58063   1.58332   1.58503   1.58693
 Alpha virt. eigenvalues --    1.59282   1.59512   1.59878   1.59980   1.60343
 Alpha virt. eigenvalues --    1.60564   1.60757   1.61257   1.61493   1.61959
 Alpha virt. eigenvalues --    1.62487   1.62994   1.63158   1.63276   1.63727
 Alpha virt. eigenvalues --    1.63792   1.64280   1.64367   1.64819   1.65257
 Alpha virt. eigenvalues --    1.65414   1.65738   1.65919   1.66635   1.66843
 Alpha virt. eigenvalues --    1.67717   1.68282   1.68398   1.68615   1.68906
 Alpha virt. eigenvalues --    1.69342   1.69499   1.70102   1.70282   1.71185
 Alpha virt. eigenvalues --    1.71464   1.71685   1.71957   1.72057   1.72635
 Alpha virt. eigenvalues --    1.73204   1.73226   1.74462   1.75013   1.75225
 Alpha virt. eigenvalues --    1.75708   1.75849   1.76347   1.76770   1.77063
 Alpha virt. eigenvalues --    1.77442   1.77671   1.77952   1.78215   1.78390
 Alpha virt. eigenvalues --    1.78761   1.79085   1.79151   1.79295   1.79747
 Alpha virt. eigenvalues --    1.79899   1.80207   1.80604   1.80986   1.81393
 Alpha virt. eigenvalues --    1.81717   1.82263   1.82437   1.82861   1.83235
 Alpha virt. eigenvalues --    1.83856   1.84182   1.84232   1.84776   1.85101
 Alpha virt. eigenvalues --    1.85586   1.85709   1.85824   1.86340   1.86867
 Alpha virt. eigenvalues --    1.87151   1.87439   1.87737   1.88062   1.88411
 Alpha virt. eigenvalues --    1.88534   1.89053   1.89285   1.89711   1.89926
 Alpha virt. eigenvalues --    1.90732   1.90770   1.91127   1.91811   1.92288
 Alpha virt. eigenvalues --    1.92660   1.93063   1.93246   1.93659   1.93845
 Alpha virt. eigenvalues --    1.94223   1.94361   1.94407   1.95240   1.95439
 Alpha virt. eigenvalues --    1.95759   1.96003   1.96646   1.97237   1.97816
 Alpha virt. eigenvalues --    1.98296   1.98660   1.98993   1.99452   1.99535
 Alpha virt. eigenvalues --    1.99720   2.00073   2.00616   2.00867   2.01092
 Alpha virt. eigenvalues --    2.01238   2.01724   2.02365   2.02824   2.02984
 Alpha virt. eigenvalues --    2.03236   2.03345   2.03555   2.03917   2.04197
 Alpha virt. eigenvalues --    2.04365   2.04650   2.04944   2.05170   2.05418
 Alpha virt. eigenvalues --    2.05796   2.05857   2.06817   2.07216   2.07473
 Alpha virt. eigenvalues --    2.07658   2.07873   2.08017   2.08485   2.08800
 Alpha virt. eigenvalues --    2.09267   2.09450   2.09875   2.09924   2.10037
 Alpha virt. eigenvalues --    2.10758   2.11207   2.11726   2.11960   2.12317
 Alpha virt. eigenvalues --    2.12594   2.12761   2.13132   2.13667   2.13851
 Alpha virt. eigenvalues --    2.14125   2.14902   2.15370   2.15457   2.16336
 Alpha virt. eigenvalues --    2.16660   2.16934   2.17150   2.17844   2.18513
 Alpha virt. eigenvalues --    2.19146   2.19482   2.19744   2.20009   2.20229
 Alpha virt. eigenvalues --    2.20437   2.21092   2.21650   2.21771   2.22772
 Alpha virt. eigenvalues --    2.22962   2.23370   2.23666   2.23862   2.24080
 Alpha virt. eigenvalues --    2.24296   2.24755   2.25082   2.25356   2.25696
 Alpha virt. eigenvalues --    2.26043   2.26143   2.26347   2.26949   2.27499
 Alpha virt. eigenvalues --    2.27642   2.27823   2.28358   2.28911   2.29072
 Alpha virt. eigenvalues --    2.29255   2.29773   2.29887   2.30127   2.30389
 Alpha virt. eigenvalues --    2.30749   2.31055   2.31814   2.32156   2.32474
 Alpha virt. eigenvalues --    2.32843   2.33055   2.33338   2.33413   2.33938
 Alpha virt. eigenvalues --    2.34471   2.34715   2.35125   2.35340   2.35963
 Alpha virt. eigenvalues --    2.36067   2.36510   2.36814   2.37000   2.37441
 Alpha virt. eigenvalues --    2.37843   2.38020   2.38640   2.39258   2.39527
 Alpha virt. eigenvalues --    2.39841   2.40167   2.40367   2.40909   2.41112
 Alpha virt. eigenvalues --    2.41791   2.42185   2.42852   2.43694   2.43722
 Alpha virt. eigenvalues --    2.44059   2.44393   2.44812   2.45279   2.45708
 Alpha virt. eigenvalues --    2.46075   2.46596   2.46777   2.47161   2.47468
 Alpha virt. eigenvalues --    2.47634   2.47881   2.48098   2.48651   2.49072
 Alpha virt. eigenvalues --    2.49327   2.49703   2.50014   2.50374   2.50706
 Alpha virt. eigenvalues --    2.50844   2.51206   2.51321   2.52021   2.52417
 Alpha virt. eigenvalues --    2.52603   2.53214   2.53325   2.53819   2.54107
 Alpha virt. eigenvalues --    2.54449   2.54744   2.55170   2.55652   2.55875
 Alpha virt. eigenvalues --    2.55956   2.56286   2.56586   2.56969   2.57213
 Alpha virt. eigenvalues --    2.57491   2.58219   2.58306   2.58712   2.59066
 Alpha virt. eigenvalues --    2.59416   2.59509   2.60236   2.60679   2.60785
 Alpha virt. eigenvalues --    2.61033   2.61312   2.61868   2.62403   2.62630
 Alpha virt. eigenvalues --    2.62692   2.63103   2.63473   2.63932   2.64082
 Alpha virt. eigenvalues --    2.64197   2.64500   2.64699   2.64997   2.65619
 Alpha virt. eigenvalues --    2.65782   2.65834   2.66113   2.66240   2.67014
 Alpha virt. eigenvalues --    2.67317   2.67930   2.68080   2.68508   2.68594
 Alpha virt. eigenvalues --    2.69084   2.69172   2.69534   2.70051   2.70256
 Alpha virt. eigenvalues --    2.70681   2.71145   2.71419   2.71944   2.72389
 Alpha virt. eigenvalues --    2.72669   2.72802   2.73522   2.73921   2.74013
 Alpha virt. eigenvalues --    2.74404   2.74616   2.74714   2.75115   2.75731
 Alpha virt. eigenvalues --    2.75813   2.76112   2.76707   2.76789   2.77536
 Alpha virt. eigenvalues --    2.77673   2.77931   2.78517   2.78916   2.79122
 Alpha virt. eigenvalues --    2.79417   2.79978   2.80550   2.80750   2.81103
 Alpha virt. eigenvalues --    2.81336   2.81521   2.81810   2.82282   2.82644
 Alpha virt. eigenvalues --    2.83093   2.83404   2.83574   2.83769   2.84524
 Alpha virt. eigenvalues --    2.84711   2.85057   2.85515   2.86196   2.86629
 Alpha virt. eigenvalues --    2.86763   2.87127   2.87348   2.87500   2.87895
 Alpha virt. eigenvalues --    2.88033   2.88407   2.88635   2.89352   2.89365
 Alpha virt. eigenvalues --    2.89544   2.89639   2.89955   2.90563   2.90985
 Alpha virt. eigenvalues --    2.91287   2.92080   2.92383   2.93044   2.93287
 Alpha virt. eigenvalues --    2.93549   2.94043   2.94116   2.94400   2.94672
 Alpha virt. eigenvalues --    2.94788   2.95065   2.95191   2.95447   2.95519
 Alpha virt. eigenvalues --    2.95578   2.96097   2.96470   2.96480   2.96962
 Alpha virt. eigenvalues --    2.97024   2.97144   2.97610   2.97999   2.98181
 Alpha virt. eigenvalues --    2.98299   2.99132   2.99533   2.99643   3.00156
 Alpha virt. eigenvalues --    3.00462   3.00609   3.01100   3.01296   3.01508
 Alpha virt. eigenvalues --    3.01978   3.02245   3.02555   3.02796   3.03111
 Alpha virt. eigenvalues --    3.03328   3.03473   3.03636   3.03754   3.04674
 Alpha virt. eigenvalues --    3.05070   3.05178   3.05500   3.05868   3.06270
 Alpha virt. eigenvalues --    3.06308   3.06514   3.06965   3.07351   3.07476
 Alpha virt. eigenvalues --    3.07807   3.08147   3.08458   3.08697   3.09074
 Alpha virt. eigenvalues --    3.09214   3.09391   3.09713   3.10088   3.10441
 Alpha virt. eigenvalues --    3.10684   3.10811   3.11206   3.11640   3.12038
 Alpha virt. eigenvalues --    3.12298   3.12487   3.12880   3.12986   3.13317
 Alpha virt. eigenvalues --    3.13706   3.13796   3.13974   3.14228   3.14379
 Alpha virt. eigenvalues --    3.14705   3.14930   3.15256   3.15583   3.15690
 Alpha virt. eigenvalues --    3.16004   3.16197   3.16540   3.16734   3.16992
 Alpha virt. eigenvalues --    3.17359   3.17614   3.17894   3.18097   3.18331
 Alpha virt. eigenvalues --    3.18557   3.18797   3.19236   3.19351   3.19534
 Alpha virt. eigenvalues --    3.19674   3.20118   3.20295   3.20418   3.20934
 Alpha virt. eigenvalues --    3.21007   3.21444   3.21746   3.21967   3.22031
 Alpha virt. eigenvalues --    3.22450   3.22667   3.23228   3.23399   3.23746
 Alpha virt. eigenvalues --    3.23879   3.24068   3.24489   3.24842   3.25074
 Alpha virt. eigenvalues --    3.25098   3.25470   3.25672   3.25887   3.26331
 Alpha virt. eigenvalues --    3.26554   3.26901   3.26910   3.27143   3.27290
 Alpha virt. eigenvalues --    3.27585   3.27798   3.28133   3.28222   3.28590
 Alpha virt. eigenvalues --    3.28739   3.29113   3.29185   3.29293   3.29857
 Alpha virt. eigenvalues --    3.30194   3.30707   3.30836   3.31196   3.31781
 Alpha virt. eigenvalues --    3.31988   3.32330   3.32731   3.32829   3.33095
 Alpha virt. eigenvalues --    3.33311   3.33736   3.34111   3.34315   3.34436
 Alpha virt. eigenvalues --    3.34807   3.35307   3.35560   3.35852   3.36022
 Alpha virt. eigenvalues --    3.36426   3.36826   3.37013   3.37418   3.37711
 Alpha virt. eigenvalues --    3.37985   3.38333   3.38536   3.38736   3.38811
 Alpha virt. eigenvalues --    3.39138   3.39498   3.39799   3.40377   3.40686
 Alpha virt. eigenvalues --    3.41054   3.41486   3.42171   3.42414   3.42519
 Alpha virt. eigenvalues --    3.42686   3.43023   3.43386   3.43941   3.44404
 Alpha virt. eigenvalues --    3.44689   3.44772   3.44978   3.45355   3.45493
 Alpha virt. eigenvalues --    3.45747   3.46318   3.46630   3.47462   3.47782
 Alpha virt. eigenvalues --    3.47840   3.48315   3.48979   3.49222   3.49555
 Alpha virt. eigenvalues --    3.50031   3.50247   3.51101   3.51322   3.51688
 Alpha virt. eigenvalues --    3.52135   3.52472   3.52617   3.53151   3.53630
 Alpha virt. eigenvalues --    3.53810   3.54192   3.54389   3.54865   3.55041
 Alpha virt. eigenvalues --    3.55427   3.55795   3.56065   3.57227   3.57311
 Alpha virt. eigenvalues --    3.57608   3.57753   3.58145   3.58439   3.58934
 Alpha virt. eigenvalues --    3.59412   3.60094   3.60258   3.60887   3.61190
 Alpha virt. eigenvalues --    3.61531   3.61855   3.62294   3.62401   3.62499
 Alpha virt. eigenvalues --    3.62774   3.63218   3.63413   3.63934   3.64698
 Alpha virt. eigenvalues --    3.64861   3.65272   3.65503   3.66241   3.66710
 Alpha virt. eigenvalues --    3.67034   3.67448   3.68101   3.68565   3.68649
 Alpha virt. eigenvalues --    3.69424   3.69847   3.70078   3.70773   3.71313
 Alpha virt. eigenvalues --    3.71587   3.72197   3.72474   3.73044   3.73284
 Alpha virt. eigenvalues --    3.73910   3.74080   3.74665   3.75352   3.76199
 Alpha virt. eigenvalues --    3.76613   3.77134   3.77868   3.78217   3.78533
 Alpha virt. eigenvalues --    3.79478   3.80537   3.80620   3.81153   3.81252
 Alpha virt. eigenvalues --    3.81833   3.82010   3.82582   3.83034   3.83664
 Alpha virt. eigenvalues --    3.84179   3.84713   3.85365   3.85821   3.86145
 Alpha virt. eigenvalues --    3.86627   3.87081   3.87141   3.87410   3.87843
 Alpha virt. eigenvalues --    3.88027   3.88954   3.89671   3.89812   3.90149
 Alpha virt. eigenvalues --    3.90749   3.91172   3.91782   3.92484   3.92717
 Alpha virt. eigenvalues --    3.93849   3.93987   3.94486   3.94845   3.95286
 Alpha virt. eigenvalues --    3.95799   3.95981   3.96181   3.96785   3.96935
 Alpha virt. eigenvalues --    3.97596   3.98102   3.98449   3.98808   3.99152
 Alpha virt. eigenvalues --    4.00006   4.00799   4.01417   4.01582   4.01944
 Alpha virt. eigenvalues --    4.02403   4.03124   4.03246   4.04223   4.05014
 Alpha virt. eigenvalues --    4.05710   4.05982   4.06316   4.07082   4.07294
 Alpha virt. eigenvalues --    4.08290   4.08589   4.09151   4.09415   4.10106
 Alpha virt. eigenvalues --    4.10323   4.11114   4.11546   4.11799   4.12248
 Alpha virt. eigenvalues --    4.13115   4.13942   4.15067   4.15463   4.15835
 Alpha virt. eigenvalues --    4.16443   4.16687   4.17230   4.17393   4.18671
 Alpha virt. eigenvalues --    4.18803   4.19298   4.19531   4.19878   4.20364
 Alpha virt. eigenvalues --    4.21276   4.21624   4.22025   4.22483   4.23445
 Alpha virt. eigenvalues --    4.23839   4.24481   4.25510   4.25832   4.25997
 Alpha virt. eigenvalues --    4.26340   4.26879   4.27597   4.27879   4.28415
 Alpha virt. eigenvalues --    4.28891   4.29151   4.29779   4.30149   4.31387
 Alpha virt. eigenvalues --    4.31833   4.31982   4.32915   4.33609   4.33666
 Alpha virt. eigenvalues --    4.33899   4.34385   4.34542   4.35173   4.35597
 Alpha virt. eigenvalues --    4.35859   4.36399   4.37274   4.37756   4.38091
 Alpha virt. eigenvalues --    4.38677   4.39693   4.39989   4.40577   4.40895
 Alpha virt. eigenvalues --    4.41408   4.42505   4.42919   4.43455   4.44177
 Alpha virt. eigenvalues --    4.45934   4.46231   4.47266   4.47407   4.48100
 Alpha virt. eigenvalues --    4.48260   4.48629   4.48717   4.49602   4.49887
 Alpha virt. eigenvalues --    4.50946   4.51157   4.51614   4.51878   4.52143
 Alpha virt. eigenvalues --    4.52759   4.53813   4.54272   4.54714   4.55356
 Alpha virt. eigenvalues --    4.56477   4.57249   4.57898   4.58351   4.58552
 Alpha virt. eigenvalues --    4.60092   4.61136   4.61548   4.62189   4.62840
 Alpha virt. eigenvalues --    4.63117   4.63683   4.63912   4.64622   4.65565
 Alpha virt. eigenvalues --    4.66004   4.66128   4.66757   4.67636   4.67847
 Alpha virt. eigenvalues --    4.68566   4.68982   4.69868   4.70463   4.71311
 Alpha virt. eigenvalues --    4.72309   4.73155   4.73193   4.74101   4.74255
 Alpha virt. eigenvalues --    4.75186   4.75280   4.76146   4.76583   4.77401
 Alpha virt. eigenvalues --    4.78406   4.79166   4.79926   4.80988   4.81368
 Alpha virt. eigenvalues --    4.82421   4.83018   4.83207   4.84421   4.84627
 Alpha virt. eigenvalues --    4.85410   4.85958   4.86408   4.87703   4.87894
 Alpha virt. eigenvalues --    4.88578   4.90541   4.91651   4.92116   4.92425
 Alpha virt. eigenvalues --    4.92989   4.93829   4.94520   4.94641   4.95191
 Alpha virt. eigenvalues --    4.96120   4.96597   4.97592   4.98104   4.99429
 Alpha virt. eigenvalues --    5.00163   5.01004   5.01497   5.04941   5.05280
 Alpha virt. eigenvalues --    5.06512   5.07162   5.07760   5.08376   5.08754
 Alpha virt. eigenvalues --    5.09378   5.09490   5.10030   5.10222   5.10507
 Alpha virt. eigenvalues --    5.11069   5.11796   5.11890   5.12152   5.12393
 Alpha virt. eigenvalues --    5.12608   5.13151   5.13583   5.14018   5.14190
 Alpha virt. eigenvalues --    5.15089   5.15152   5.15536   5.15834   5.16657
 Alpha virt. eigenvalues --    5.17165   5.17525   5.18038   5.19234   5.19482
 Alpha virt. eigenvalues --    5.20883   5.22128   5.22457   5.22780   5.23738
 Alpha virt. eigenvalues --    5.23872   5.24151   5.24955   5.25403   5.25490
 Alpha virt. eigenvalues --    5.25936   5.26415   5.26971   5.28656   5.29492
 Alpha virt. eigenvalues --    5.30817   5.30936   5.32559   5.34088   5.34440
 Alpha virt. eigenvalues --    5.34725   5.35522   5.35759   5.36326   5.36975
 Alpha virt. eigenvalues --    5.37842   5.38871   5.40583   5.41440   5.43005
 Alpha virt. eigenvalues --    5.43600   5.45084   5.45367   5.46963   5.47814
 Alpha virt. eigenvalues --    5.48249   5.48929   5.49502   5.50153   5.51349
 Alpha virt. eigenvalues --    5.51449   5.52087   5.52326   5.53019   5.54277
 Alpha virt. eigenvalues --    5.55125   5.56912   5.57566   5.58332   5.58521
 Alpha virt. eigenvalues --    5.59462   5.60623   5.62865   5.62922   5.63837
 Alpha virt. eigenvalues --    5.67112   5.68098   5.68915   5.69806   5.70321
 Alpha virt. eigenvalues --    5.72821   5.73832   5.76157   5.77201   5.78370
 Alpha virt. eigenvalues --    5.81253   5.83522   5.84213   5.84838   5.85528
 Alpha virt. eigenvalues --    5.86278   5.87967   5.89157   5.91775   5.92175
 Alpha virt. eigenvalues --    5.94701   5.95897   5.96239   5.98166   5.98351
 Alpha virt. eigenvalues --    6.00353   6.00420   6.03316   6.04796   6.05979
 Alpha virt. eigenvalues --    6.07561   6.07720   6.09282   6.11254   6.12289
 Alpha virt. eigenvalues --    6.14958   6.16584   6.17013   6.17416   6.21144
 Alpha virt. eigenvalues --    6.22416   6.23564   6.25164   6.25540   6.26046
 Alpha virt. eigenvalues --    6.27123   6.27223   6.28921   6.31576   6.31746
 Alpha virt. eigenvalues --    6.32528   6.36129   6.37974   6.38066   6.38728
 Alpha virt. eigenvalues --    6.40974   6.41210   6.42079   6.42177   6.44771
 Alpha virt. eigenvalues --    6.46612   6.51181   6.56263   6.57860   6.58490
 Alpha virt. eigenvalues --    6.58698   6.58728   6.60580   6.63926   6.65444
 Alpha virt. eigenvalues --    6.67859   6.71584   6.72779   6.73765   6.76683
 Alpha virt. eigenvalues --    6.79395   6.79508   6.80878   6.82363   6.84673
 Alpha virt. eigenvalues --    6.85703   6.87377   6.88539   6.91341   6.95970
 Alpha virt. eigenvalues --    6.96379   6.98116   6.98383   6.99541   7.01402
 Alpha virt. eigenvalues --    7.04152   7.05565   7.06433   7.09029   7.09860
 Alpha virt. eigenvalues --    7.10658   7.11311   7.16232   7.25220   7.27604
 Alpha virt. eigenvalues --    7.30900  22.43025  22.44401  22.45054  22.48907
 Alpha virt. eigenvalues --   22.52541  22.58352  22.59059  22.60331  22.63535
 Alpha virt. eigenvalues --   22.64656  22.68031  22.71986  22.73854  22.81953
 Alpha virt. eigenvalues --   22.83403  22.85272  22.85727  22.90033  22.94772
 Alpha virt. eigenvalues --   22.95345  22.97262  22.98289  23.01957  23.13417
 Alpha virt. eigenvalues --   23.16622  23.18245  23.20526  23.21772  23.32049
 Alpha virt. eigenvalues --   23.34617  23.40359  23.43749  23.44188  23.51179
 Alpha virt. eigenvalues --   23.63594  23.67751  23.75114  23.78784  32.37417
 Alpha virt. eigenvalues --   32.48853  32.68031  32.70594  32.74547  32.87440
 Alpha virt. eigenvalues --   43.83900  43.84384  43.85134  43.90792  43.91307
 Alpha virt. eigenvalues --   43.93483  43.94735  43.96615  44.01898  44.10796
  Beta  occ. eigenvalues -- -256.45042 -30.21631 -26.04653 -26.04066 -26.03919
  Beta  occ. eigenvalues --  -19.35350 -19.34528 -19.33108 -19.32606 -19.30022
  Beta  occ. eigenvalues --  -19.29724 -19.26826 -19.26234 -19.25311 -19.25196
  Beta  occ. eigenvalues --  -14.54541 -14.53006 -14.52889 -14.50417 -14.50301
  Beta  occ. eigenvalues --  -14.50272 -10.43921 -10.43820 -10.43459 -10.42412
  Beta  occ. eigenvalues --  -10.41672 -10.41377 -10.39595 -10.39070 -10.39024
  Beta  occ. eigenvalues --  -10.38620 -10.38542 -10.38425 -10.38041 -10.37817
  Beta  occ. eigenvalues --  -10.37736 -10.36423 -10.35971 -10.35863 -10.34612
  Beta  occ. eigenvalues --  -10.34488 -10.34438 -10.34411 -10.34269 -10.34213
  Beta  occ. eigenvalues --  -10.34166 -10.34055 -10.33739 -10.33494 -10.32900
  Beta  occ. eigenvalues --  -10.32882 -10.32716 -10.32679 -10.32415 -10.32277
  Beta  occ. eigenvalues --  -10.32103 -10.31915 -10.31497 -10.31292  -3.56794
  Beta  occ. eigenvalues --   -2.33201  -2.32053  -2.31655  -1.25735  -1.25096
  Beta  occ. eigenvalues --   -1.24072  -1.23543  -1.16272  -1.13129  -1.12236
  Beta  occ. eigenvalues --   -1.11119  -1.10354  -1.10196  -1.09362  -1.09167
  Beta  occ. eigenvalues --   -1.08476  -1.03077  -1.02657  -1.00897  -0.98870
  Beta  occ. eigenvalues --   -0.98178  -0.95772  -0.94328  -0.94207  -0.93219
  Beta  occ. eigenvalues --   -0.93037  -0.90715  -0.90574  -0.90161  -0.89754
  Beta  occ. eigenvalues --   -0.89441  -0.88826  -0.85888  -0.83729  -0.83246
  Beta  occ. eigenvalues --   -0.82738  -0.81904  -0.81527  -0.79817  -0.79364
  Beta  occ. eigenvalues --   -0.78617  -0.78340  -0.77277  -0.75425  -0.74686
  Beta  occ. eigenvalues --   -0.74590  -0.74110  -0.72785  -0.72085  -0.70910
  Beta  occ. eigenvalues --   -0.70284  -0.68432  -0.67960  -0.67131  -0.66637
  Beta  occ. eigenvalues --   -0.66197  -0.65131  -0.64754  -0.64115  -0.63048
  Beta  occ. eigenvalues --   -0.62124  -0.61992  -0.61269  -0.60787  -0.60423
  Beta  occ. eigenvalues --   -0.60031  -0.59895  -0.59376  -0.59251  -0.59205
  Beta  occ. eigenvalues --   -0.58531  -0.58081  -0.57759  -0.57534  -0.57294
  Beta  occ. eigenvalues --   -0.56881  -0.56735  -0.55981  -0.55829  -0.55478
  Beta  occ. eigenvalues --   -0.55295  -0.55229  -0.55068  -0.54756  -0.54348
  Beta  occ. eigenvalues --   -0.53975  -0.53636  -0.53409  -0.53253  -0.52866
  Beta  occ. eigenvalues --   -0.52537  -0.52479  -0.52169  -0.52079  -0.51925
  Beta  occ. eigenvalues --   -0.51802  -0.51778  -0.51185  -0.51041  -0.50790
  Beta  occ. eigenvalues --   -0.50502  -0.49779  -0.49589  -0.49318  -0.49153
  Beta  occ. eigenvalues --   -0.48832  -0.48569  -0.48244  -0.48047  -0.47750
  Beta  occ. eigenvalues --   -0.47434  -0.47134  -0.46943  -0.46626  -0.46480
  Beta  occ. eigenvalues --   -0.46323  -0.45733  -0.45621  -0.45393  -0.44944
  Beta  occ. eigenvalues --   -0.44532  -0.44193  -0.43113  -0.42715  -0.42086
  Beta  occ. eigenvalues --   -0.41613  -0.41259  -0.41034  -0.40717  -0.39578
  Beta  occ. eigenvalues --   -0.39238  -0.37600  -0.37397  -0.36796  -0.36495
  Beta  occ. eigenvalues --   -0.36339  -0.36292  -0.36236  -0.35576  -0.35186
  Beta  occ. eigenvalues --   -0.35073  -0.34720  -0.34295  -0.33598  -0.32896
  Beta  occ. eigenvalues --   -0.32349
  Beta virt. eigenvalues --   -0.25214  -0.20080  -0.19929  -0.16104  -0.15282
  Beta virt. eigenvalues --   -0.13188  -0.11109  -0.10653  -0.09560  -0.08969
  Beta virt. eigenvalues --   -0.08201  -0.08013  -0.07464  -0.06825  -0.06058
  Beta virt. eigenvalues --   -0.05497  -0.05306  -0.04648  -0.04583  -0.04259
  Beta virt. eigenvalues --   -0.04041  -0.03347  -0.03242  -0.02732  -0.02400
  Beta virt. eigenvalues --   -0.02014  -0.01871  -0.01661  -0.01575  -0.01494
  Beta virt. eigenvalues --   -0.00959  -0.00695  -0.00180  -0.00020   0.00123
  Beta virt. eigenvalues --    0.00417   0.00648   0.01069   0.01458   0.01504
  Beta virt. eigenvalues --    0.01685   0.01800   0.02094   0.02305   0.02418
  Beta virt. eigenvalues --    0.02604   0.02998   0.03198   0.03504   0.04067
  Beta virt. eigenvalues --    0.04171   0.04444   0.04657   0.04828   0.05000
  Beta virt. eigenvalues --    0.05175   0.05383   0.05902   0.06200   0.06421
  Beta virt. eigenvalues --    0.06606   0.06629   0.06926   0.07085   0.07596
  Beta virt. eigenvalues --    0.07660   0.08053   0.08081   0.08411   0.08456
  Beta virt. eigenvalues --    0.08641   0.09261   0.09334   0.09628   0.09719
  Beta virt. eigenvalues --    0.09839   0.09915   0.10284   0.10656   0.10959
  Beta virt. eigenvalues --    0.11240   0.11430   0.11600   0.11688   0.12020
  Beta virt. eigenvalues --    0.12095   0.12260   0.12507   0.12840   0.13116
  Beta virt. eigenvalues --    0.13155   0.13457   0.13702   0.14172   0.14234
  Beta virt. eigenvalues --    0.14503   0.14589   0.14793   0.15027   0.15126
  Beta virt. eigenvalues --    0.15449   0.15582   0.15790   0.16041   0.16293
  Beta virt. eigenvalues --    0.16422   0.16598   0.16954   0.17045   0.17533
  Beta virt. eigenvalues --    0.17667   0.18037   0.18185   0.18492   0.18729
  Beta virt. eigenvalues --    0.18872   0.19173   0.19447   0.19635   0.19811
  Beta virt. eigenvalues --    0.20150   0.20344   0.20438   0.20754   0.20853
  Beta virt. eigenvalues --    0.21070   0.21303   0.21588   0.21742   0.22005
  Beta virt. eigenvalues --    0.22566   0.22570   0.22726   0.22803   0.22941
  Beta virt. eigenvalues --    0.23229   0.23557   0.23942   0.24230   0.24410
  Beta virt. eigenvalues --    0.24555   0.24775   0.25030   0.25159   0.25262
  Beta virt. eigenvalues --    0.25571   0.25784   0.26153   0.26385   0.26498
  Beta virt. eigenvalues --    0.26657   0.26740   0.27123   0.27217   0.27406
  Beta virt. eigenvalues --    0.27805   0.27859   0.27919   0.27993   0.28228
  Beta virt. eigenvalues --    0.28595   0.28906   0.29198   0.29367   0.29739
  Beta virt. eigenvalues --    0.29841   0.29947   0.30145   0.30221   0.30492
  Beta virt. eigenvalues --    0.30725   0.30939   0.31079   0.31600   0.31653
  Beta virt. eigenvalues --    0.31705   0.31914   0.32150   0.32359   0.32571
  Beta virt. eigenvalues --    0.32742   0.32970   0.33132   0.33522   0.33583
  Beta virt. eigenvalues --    0.33603   0.33789   0.33924   0.34395   0.34619
  Beta virt. eigenvalues --    0.34887   0.34947   0.35046   0.35313   0.35355
  Beta virt. eigenvalues --    0.35612   0.35804   0.35851   0.36162   0.36426
  Beta virt. eigenvalues --    0.36471   0.36699   0.36862   0.37034   0.37180
  Beta virt. eigenvalues --    0.37329   0.37513   0.37634   0.37886   0.38056
  Beta virt. eigenvalues --    0.38212   0.38343   0.38616   0.38741   0.38905
  Beta virt. eigenvalues --    0.39123   0.39350   0.39467   0.39752   0.40064
  Beta virt. eigenvalues --    0.40151   0.40187   0.40554   0.40640   0.40729
  Beta virt. eigenvalues --    0.41085   0.41220   0.41520   0.41626   0.41708
  Beta virt. eigenvalues --    0.41809   0.41929   0.42053   0.42475   0.42772
  Beta virt. eigenvalues --    0.42874   0.43117   0.43359   0.43503   0.43765
  Beta virt. eigenvalues --    0.43950   0.44118   0.44149   0.44495   0.44574
  Beta virt. eigenvalues --    0.45118   0.45195   0.45280   0.45609   0.45827
  Beta virt. eigenvalues --    0.45920   0.46052   0.46419   0.46749   0.47035
  Beta virt. eigenvalues --    0.47133   0.47242   0.47303   0.47680   0.47796
  Beta virt. eigenvalues --    0.48003   0.48095   0.48442   0.48578   0.48724
  Beta virt. eigenvalues --    0.49127   0.49429   0.49710   0.49977   0.50093
  Beta virt. eigenvalues --    0.50137   0.50268   0.50585   0.50900   0.50957
  Beta virt. eigenvalues --    0.51005   0.51310   0.51613   0.51782   0.52067
  Beta virt. eigenvalues --    0.52231   0.52316   0.52976   0.53130   0.53326
  Beta virt. eigenvalues --    0.53681   0.53735   0.54229   0.54422   0.54558
  Beta virt. eigenvalues --    0.54746   0.55084   0.55361   0.55435   0.55839
  Beta virt. eigenvalues --    0.56004   0.56219   0.56486   0.56814   0.56961
  Beta virt. eigenvalues --    0.57259   0.57534   0.57863   0.58008   0.58099
  Beta virt. eigenvalues --    0.58286   0.58685   0.58892   0.59077   0.59342
  Beta virt. eigenvalues --    0.59587   0.60138   0.60605   0.60775   0.61020
  Beta virt. eigenvalues --    0.61342   0.61685   0.61901   0.62022   0.62128
  Beta virt. eigenvalues --    0.62420   0.62886   0.63054   0.63489   0.63584
  Beta virt. eigenvalues --    0.63812   0.64175   0.64417   0.64588   0.65244
  Beta virt. eigenvalues --    0.65464   0.65722   0.66063   0.66249   0.66788
  Beta virt. eigenvalues --    0.66928   0.67197   0.67601   0.67934   0.68093
  Beta virt. eigenvalues --    0.68239   0.68619   0.68823   0.69246   0.69687
  Beta virt. eigenvalues --    0.70044   0.70140   0.70578   0.70733   0.70822
  Beta virt. eigenvalues --    0.71150   0.71428   0.71500   0.71656   0.72030
  Beta virt. eigenvalues --    0.72306   0.72570   0.72752   0.73167   0.73497
  Beta virt. eigenvalues --    0.73760   0.74225   0.74311   0.74694   0.74805
  Beta virt. eigenvalues --    0.75218   0.75488   0.75616   0.75939   0.76061
  Beta virt. eigenvalues --    0.76454   0.77148   0.77374   0.77522   0.77712
  Beta virt. eigenvalues --    0.77829   0.78110   0.78780   0.78914   0.78983
  Beta virt. eigenvalues --    0.79599   0.79828   0.80140   0.80444   0.80755
  Beta virt. eigenvalues --    0.80890   0.81103   0.81716   0.81861   0.82442
  Beta virt. eigenvalues --    0.82569   0.82932   0.83153   0.83432   0.83614
  Beta virt. eigenvalues --    0.83814   0.84054   0.84389   0.84985   0.85039
  Beta virt. eigenvalues --    0.85553   0.85861   0.85985   0.86250   0.86446
  Beta virt. eigenvalues --    0.86690   0.87096   0.87317   0.87625   0.87956
  Beta virt. eigenvalues --    0.88018   0.88653   0.88911   0.89101   0.89428
  Beta virt. eigenvalues --    0.89617   0.89997   0.90153   0.90715   0.90830
  Beta virt. eigenvalues --    0.91010   0.91267   0.91705   0.92029   0.92313
  Beta virt. eigenvalues --    0.92712   0.93054   0.93173   0.93286   0.93601
[...]
  1716. RY*(   2) H  70                  0.00007     2.57854   
  1717. RY*(   3) H  70                  0.00006     2.33131   
  1718. RY*(   4) H  70                  0.00003     1.48990   
  1719. RY*(   5) H  70                  0.00000     2.56084   
  1720. RY*(   1) H  71                  0.00045     0.88927   
  1721. RY*(   2) H  71                  0.00009     1.81424   
  1722. RY*(   3) H  71                  0.00007     2.40725   
  1723. RY*(   4) H  71                  0.00003     2.22373   
  1724. RY*(   5) H  71                  0.00001     3.01813   
  1725. RY*(   1) H  72                  0.00036     1.21483   
  1726. RY*(   2) H  72                  0.00008     1.72842   
  1727. RY*(   3) H  72                  0.00005     2.24729   
  1728. RY*(   4) H  72                  0.00004     1.98598   
  1729. RY*(   5) H  72                  0.00001     2.95107   
  1730. RY*(   1) H  73                  0.00041     2.04765   
  1731. RY*(   2) H  73                  0.00031     0.53077   
  1732. RY*(   3) H  73                  0.00021     2.00451   
  1733. RY*(   4) H  73                  0.00014     2.07866   
  1734. RY*(   5) H  73                  0.00000     3.23601   
  1735. RY*(   1) H  74                  0.00026     0.99573   
  1736. RY*(   2) H  74                  0.00008     1.73256   
  1737. RY*(   3) H  74                  0.00002     1.88871   
  1738. RY*(   4) H  74                  0.00003     2.10538   
  1739. RY*(   5) H  74                  0.00000     2.74139   
  1740. RY*(   1) H  75                  0.00032     1.11276   
  1741. RY*(   2) H  75                  0.00007     1.54541   
  1742. RY*(   3) H  75                  0.00003     2.04434   
  1743. RY*(   4) H  75                  0.00001     1.83942   
  1744. RY*(   5) H  75                  0.00000     2.84315   
  1745. RY*(   1) H  76                  0.00019     1.29768   
  1746. RY*(   2) H  76                  0.00009     1.75049   
  1747. RY*(   3) H  76                  0.00003     2.05062   
  1748. RY*(   4) H  76                  0.00001     1.96911   
  1749. RY*(   5) H  76                  0.00000     2.55127   
  1750. RY*(   1) H  77                  0.00053     0.50212   
  1751. RY*(   2) H  77                  0.00007     2.22699   
  1752. RY*(   3) H  77                  0.00008     2.55339   
  1753. RY*(   4) H  77                  0.00007     2.41721   
  1754. RY*(   5) H  77                  0.00000     2.92627   
  1755. RY*(   1) H  78                  0.00058     0.49811   
  1756. RY*(   2) H  78                  0.00009     2.17054   
  1757. RY*(   3) H  78                  0.00007     2.64354   
  1758. RY*(   4) H  78                  0.00006     2.30444   
  1759. RY*(   5) H  78                  0.00000     2.98656   
  1760. RY*(   1) H  79                  0.00028     1.28750   
  1761. RY*(   2) H  79                  0.00008     1.69328   
  1762. RY*(   3) H  79                  0.00004     1.90751   
  1763. RY*(   4) H  79                  0.00004     2.34528   
  1764. RY*(   5) H  79                  0.00001     2.97204   
  1765. RY*(   1) H  80                  0.00029     1.38425   
  1766. RY*(   2) H  80                  0.00008     1.85893   
  1767. RY*(   3) H  80                  0.00004     1.89915   
  1768. RY*(   4) H  80                  0.00004     2.30237   
  1769. RY*(   5) H  80                  0.00001     2.92893   
  1770. RY*(   1) H  81                  0.00065     0.84127   
  1771. RY*(   2) H  81                  0.00028     2.04803   
  1772. RY*(   3) H  81                  0.00024     1.76648   
  1773. RY*(   4) H  81                  0.00010     2.05898   
  1774. RY*(   5) H  81                  0.00000     3.10706   
  1775. RY*(   1) H  82                  0.00019     1.41112   
  1776. RY*(   2) H  82                  0.00007     1.48613   
  1777. RY*(   3) H  82                  0.00005     2.18414   
  1778. RY*(   4) H  82                  0.00003     2.03585   
  1779. RY*(   5) H  82                  0.00000     2.93311   
  1780. RY*(   1) H  83                  0.00021     1.21430   
  1781. RY*(   2) H  83                  0.00007     1.29073   
  1782. RY*(   3) H  83                  0.00005     2.21230   
  1783. RY*(   4) H  83                  0.00004     2.38449   
  1784. RY*(   5) H  83                  0.00000     2.93755   
  1785. RY*(   1) H  84                  0.00015     1.56633   
  1786. RY*(   2) H  84                  0.00006     1.60418   
  1787. RY*(   3) H  84                  0.00005     2.20347   
  1788. RY*(   4) H  84                  0.00003     1.83215   
  1789. RY*(   5) H  84                  0.00000     2.91927   
  1790. RY*(   1) H  85                  0.00020     1.34646   
  1791. RY*(   2) H  85                  0.00006     1.42701   
  1792. RY*(   3) H  85                  0.00005     2.20474   
  1793. RY*(   4) H  85                  0.00003     2.13816   
  1794. RY*(   5) H  85                  0.00001     2.92336   
  1795. RY*(   1) H  86                  0.00021     1.47621   
  1796. RY*(   2) H  86                  0.00006     1.50745   
  1797. RY*(   3) H  86                  0.00003     1.99610   
  1798. RY*(   4) H  86                  0.00004     2.10742   
  1799. RY*(   5) H  86                  0.00000     2.97002   
  1800. RY*(   1) H  87                  0.00020     1.06487   
  1801. RY*(   2) H  87                  0.00008     1.70710   
  1802. RY*(   3) H  87                  0.00003     2.17552   
  1803. RY*(   4) H  87                  0.00003     2.17940   
  1804. RY*(   5) H  87                  0.00000     2.93065   
  1805. RY*(   1) H  88                  0.00036     1.84741   
  1806. RY*(   2) H  88                  0.00007     2.52269   
  1807. RY*(   3) H  88                  0.00005     2.34584   
  1808. RY*(   4) H  88                  0.00003     1.18172   
  1809. RY*(   5) H  88                  0.00001     3.01364   
  1810. RY*(   1) H  89                  0.00023     1.98816   
  1811. RY*(   2) H  89                  0.00009     2.43941   
  1812. RY*(   3) H  89                  0.00005     2.43835   
  1813. RY*(   4) H  89                  0.00002     1.04083   
  1814. RY*(   5) H  89                  0.00000     2.98192   
  1815. RY*(   1) H  90                  0.00038     1.13306   
  1816. RY*(   2) H  90                  0.00030     2.01781   
  1817. RY*(   3) H  90                  0.00026     1.59400   
  1818. RY*(   4) H  90                  0.00011     2.02411   
  1819. RY*(   5) H  90                  0.00000     3.21872   
  1820. RY*(   1) H  91                  0.00026     1.81245   
  1821. RY*(   2) H  91                  0.00007     2.37531   
  1822. RY*(   3) H  91                  0.00004     1.12233   
  1823. RY*(   4) H  91                  0.00004     2.57946   
  1824. RY*(   5) H  91                  0.00001     2.99595   
  1825. RY*(   1) H  92                  0.00022     1.82823   
  1826. RY*(   2) H  92                  0.00006     2.46555   
  1827. RY*(   3) H  92                  0.00003     1.19587   
  1828. RY*(   4) H  92                  0.00004     2.47647   
  1829. RY*(   5) H  92                  0.00001     2.93742   
  1830. RY*(   1) H  93                  0.00039     1.79760   
  1831. RY*(   2) H  93                  0.00027     1.37979   
  1832. RY*(   3) H  93                  0.00024     1.44145   
  1833. RY*(   4) H  93                  0.00012     2.11965   
  1834. RY*(   5) H  93                  0.00000     3.19456   
  1849. BD*(   1) C   8 - C  13          0.01055     0.46954   
  1850. BD*(   1) C   8 - C  49          0.01049     0.45355   
  1851. BD*(   1) C   8 - H  64          0.00703     0.32829   
  1852. BD*(   1) C   9 - C  16          0.00996     0.45808   
  1853. BD*(   2) C   9 - C  16          0.13149    -0.06951  1887(v),1869(v),1865(v)
                                                    424(g),1848(r)
  1854. BD*(   1) C   9 - C  24          0.01040     0.43876   
  1855. BD*(   1) C   9 - H  63          0.00622     0.33804   
  1856. BD*(   1) C  10 - C  33          0.00981     0.45109   
  1857. BD*(   2) C  10 - C  33          0.13503    -0.07353  1907(v),1887(v),1893(v)
                                                    1894(v),450(g)
  1858. BD*(   1) C  10 - C  35          0.01059     0.43206   
  1859. BD*(   1) C  10 - H  62          0.00628     0.32926   
  1860. BD*(   1) C  11 - C  44          0.01034     0.45545   
  1861. BD*(   2) C  11 - C  44          0.14876    -0.08156  1927(v),1907(v),1913(v)
                                                    1924(r),1914(v),1337(g)
                                                    187(r)
  1862. BD*(   1) C  11 - C  46          0.01024     0.44267   
  1863. BD*(   1) C  11 - H  65          0.00661     0.31634   
  1864. BD*(   1) N  12 - C  13          0.01366     0.35545   
  1865. BD*(   2) N  12 - C  13          0.24903    -0.11574  1869(v),1853(v),182(r)
                                                    530(g),397(v),183(r),527(g)
                                                    501(g),187(r),186(r),184(r)
                                                    185(r),1845(r),177(r)
  1866. BD*(   1) N  12 - C  16          0.01376     0.34971   
  1867. BD*(   1) C  13 - C  14          0.01811     0.36714   
  1868. BD*(   1) C  14 - C  15          0.00960     0.52912   
  1869. BD*(   2) C  14 - C  15          0.06774    -0.03565   
  1870. BD*(   1) C  14 - C  18          0.01259     0.24724   
  1871. BD*(   1) C  15 - C  16          0.01811     0.36652   
  1872. BD*(   1) C  15 - C  17          0.00931     0.24925   
  1873. BD*(   1) C  17 - H  74          0.00240     0.31340   
  1874. BD*(   1) C  17 - H  75          0.00338     0.31504   
  1875. BD*(   1) C  17 - H  76          0.00197     0.31919   
  1876. BD*(   1) C  18 - C  19          0.00834     0.25419   
  1877. BD*(   1) C  18 - H  77          0.00602     0.31209   
  1878. BD*(   1) C  18 - H  78          0.00581     0.31928   
  1879. BD*(   1) C  19 - C  20          0.03332     0.26515   
  1880. BD*(   1) C  19 - H  79          0.00558     0.29723   
  1881. BD*(   1) C  19 - H  80          0.00526     0.30166   
  1882. BD*(   1) C  20 - O  21          0.03548     0.40351   
  1883. BD*(   1) C  20 - O  22          0.01567     0.41278   
  1884. BD*(   2) C  20 - O  22          0.12669    -0.08652  1880(v),1881(v),711(g)
  1885. BD*(   1) O  21 - H  81          0.00692     0.30887   
  1886. BD*(   1) N  23 - C  24          0.01423     0.33416   
  1887. BD*(   2) N  23 - C  24          0.22478    -0.11856  1891(v),1853(v),1857(v)
                                                    815(g),187(r),424(v),816(g)
                                                    182(r),183(r)
  1888. BD*(   1) N  23 - C  33          0.01608     0.33515   
  1889. BD*(   1) C  24 - C  25          0.02544     0.34579   
  1890. BD*(   1) C  25 - O  26          0.01213     0.10924   
  1891. BD*(   2) C  25 - O  26          0.05952    -0.14181   
  1892. BD*(   1) C  25 - C  27          0.01922     0.42078   
  1893. BD*(   1) C  27 - C  28          0.01493     0.18596   
  1894. BD*(   1) C  27 - C  29          0.02074     0.23988   
  1895. BD*(   1) C  27 - C  33          0.02072     0.33822   
  1896. BD*(   1) C  28 - H  82          0.00298     0.31283   
  1897. BD*(   1) C  28 - H  83          0.00249     0.31719   
  1898. BD*(   1) C  28 - H  84          0.00214     0.31421   
  1899. BD*(   1) C  29 - C  30          0.02286     0.50082   
  1900. BD*(   1) C  29 - H  88          0.00830     0.30260   
  1901. BD*(   1) C  29 - H  89          0.00846     0.28746   
  1902. BD*(   1) C  30 - O  31          0.03657     0.39671   
  1903. BD*(   1) C  30 - O  32          0.01971     0.46814   
  1904. BD*(   2) C  30 - O  32          0.13298    -0.07864  1901(v),1900(v)
  1905. BD*(   1) O  31 - H  90          0.00449     0.32643   
  1906. BD*(   1) N  34 - C  35          0.01351     0.34299   
  1907. BD*(   2) N  34 - C  35          0.23954    -0.12044  1911(v),1857(v),1861(v)
                                                    1101(g),187(r),183(r),450(v)
                                                    182(r),1845(r)
  1908. BD*(   1) N  34 - C  44          0.01499     0.33979   
  1909. BD*(   1) C  35 - C  36          0.02747     0.32807   
  1910. BD*(   1) C  36 - O  37          0.01221     0.11466   
  1911. BD*(   2) C  36 - O  37          0.06252    -0.14070   
  1912. BD*(   1) C  36 - C  38          0.01931     0.42604   
  1913. BD*(   1) C  38 - C  39          0.01374     0.19354   
  1914. BD*(   1) C  38 - C  40          0.02269     0.22999   
  1915. BD*(   1) C  38 - C  44          0.02272     0.31474   
  1916. BD*(   1) C  39 - H  85          0.00229     0.30469   
  1917. BD*(   1) C  39 - H  86          0.00208     0.31339   
  1918. BD*(   1) C  39 - H  87          0.00276     0.30733   
  1919. BD*(   1) C  40 - C  41          0.02382     0.48456   
  1920. BD*(   1) C  40 - H  91          0.00752     0.29856   
  1921. BD*(   1) C  40 - H  92          0.00865     0.29272   
  1922. BD*(   1) C  41 - O  42          0.03686     0.39560   
  1923. BD*(   1) C  41 - O  43          0.02494     0.42295   
  1924. BD*(   2) C  41 - O  43          0.11549    -0.09091  1914(v),1920(v),1861(r)
                                                    1925(v),1923(g)
  1925. BD*(   1) O  42 - H  93          0.00590     0.30047   
  1926. BD*(   1) N  45 - C  46          0.01295     0.35943   
  1927. BD*(   2) N  45 - C  46          0.24472    -0.11179  1861(v),1931(v),209(v)
                                                    1387(g),182(r),1359(g)
                                                    187(r),1845(r),185(r),183(r)
                                                    184(r)
  1928. BD*(   1) N  45 - C  49          0.01281     0.37420   
  1929. BD*(   1) C  46 - C  47          0.01768     0.35725   
  1930. BD*(   1) C  47 - C  48          0.01004     0.52314   
  1931. BD*(   2) C  47 - C  48          0.06630    -0.03633   
  1932. BD*(   1) C  47 - C  50          0.00911     0.25401   
  1933. BD*(   1) C  48 - C  49          0.01685     0.36093   
  1934. BD*(   1) C  48 - C  51          0.01212     0.26711   
  1935. BD*(   1) C  50 - H  66          0.00375     0.30530   
  1936. BD*(   1) C  50 - H  67          0.00349     0.30482   
  1937. BD*(   1) C  50 - H  68          0.00454     0.32944   
  1938. BD*(   1) C  51 - C  52          0.00615     0.28103   
  1939. BD*(   1) C  51 - H  69          0.00617     0.31712   
  1940. BD*(   1) C  51 - H  70          0.00720     0.31416   
  1941. BD*(   1) C  52 - C  53          0.04023     0.27135   
  1942. BD*(   1) C  52 - H  71          0.00761     0.29985   
  1943. BD*(   1) C  52 - H  72          0.00675     0.29534   
  1944. BD*(   1) C  53 - O  54          0.03540     0.38463   
  1945. BD*(   1) C  53 - O  55          0.02272     0.45133   
  1946. BD*(   2) C  53 - O  55          0.08134    -0.07183   
  1947. BD*(   1) O  54 - H  73          0.00603     0.30193   
       -------------------------------
              Total Lewis  167.52924  ( 97.7214%)
        Valence non-Lewis    3.56540  (  2.0797%)
        Rydberg non-Lewis    0.34102  (  0.1989%)
       -------------------------------
            Total unit  3  171.43565  (100.0000%)
           Charge unit  3    0.56435
 1\1\GINC-NODE342\SP\UPBE1PBE\def2TZVP\C38H38Fe1N6O10(1+,2)\ZHARTOVSKA\
 29-Dec-2022\0\\# PBE1PBE/def2TZVP empiricaldispersion=GD3BJ scf=maxcyc
 le=999 geom=check guess=read pop=nbo\\1h9xd_III_D\\1,2\C,0,111.418999,
 56.308998,200.854996\C,0,110.014,56.828999,200.763\N,0,109.332001,57.2
 19002,201.904007\C,0,109.162003,57.029999,199.729004\C,0,108.121002,57
 .623001,201.563004\N,0,107.976997,57.539001,200.242004\Fe,0,106.111,58
 .048,199.233994\C,0,106.148003,60.939999,201.192993\C,0,104.287003,56.
 523998,201.714005\C,0,104.871002,55.738998,196.945999\C,0,107.293999,5
 9.915001,196.591003\N,0,105.302002,58.639,201.044006\C,0,105.57,59.812
 ,201.716995\C,0,105.234001,59.664001,203.119995\C,0,104.719002,58.4469
 99,203.285995\C,0,104.744003,57.797001,201.988998\C,0,104.183998,57.80
 8998,204.593994\C,0,105.460999,60.783001,204.182999\C,0,106.898003,60.
 785,204.729996\C,0,107.264999,61.689999,205.880005\O,0,106.306999,62.2
 94998,206.412003\O,0,108.499001,61.757,206.238998\N,0,104.804001,56.49
 3999,199.289993\C,0,104.267998,55.958,200.447006\C,0,103.556,54.752998
 ,200.125\O,0,102.816002,53.923,201.177994\C,0,103.529999,54.661999,198
 .774002\C,0,102.071999,55.007999,198.300003\C,0,103.833,53.243,198.283
 005\C,0,104.972,52.651001,198.600998\O,0,105.097,51.402,198.406006\O,0
 ,105.994003,53.174999,199.104004\C,0,104.496002,55.609001,198.268005\N
 ,0,106.060997,57.891998,197.192993\C,0,105.601997,56.82,196.464005\C,0
 ,105.970001,56.978001,195.069\O,0,105.621002,55.943001,194.005997\C,0,
 106.586998,58.168999,194.944\C,0,105.649002,58.956001,193.983994\C,0,1
 07.940002,58.073002,194.240005\C,0,108.891998,57.375,194.839996\O,0,10
 9.989998,57.897999,195.169006\O,0,108.744003,56.143002,195.117996\C,0,
 106.725998,58.701,196.298004\N,0,106.542,60.025002,198.947006\C,0,107.
 136002,60.542999,197.815994\C,0,107.491997,61.936001,198.046005\C,0,10
 7.167,62.226002,199.309998\C,0,106.597,61.018002,199.888\C,0,108.14299
 8,62.824001,196.968002\C,0,107.346001,63.553001,200.080002\C,0,107.221
 001,64.856003,199.315994\C,0,107.198997,66.126999,200.125\O,0,107.278,
 67.218002,199.481003\O,0,107.095001,66.045998,201.369003\H,0,112.06023
 492,57.0785943,201.23107849\H,0,111.44548999,55.46801461,201.51601428\
 H,0,111.75286245,56.00968875,199.883477\H,0,109.36672337,56.83121868,1
 98.69775429\H,0,107.37054748,57.96542848,202.24451807\H,0,109.69698758
 ,57.19816317,202.83478653\H,0,104.58545946,54.97066782,196.25822419\H,
 0,103.92388651,55.93543586,202.53048588\H,0,106.25624908,61.79827519,2
 01.82271101\H,0,107.88474573,60.39790824,195.84085708\H,0,109.08553606
 ,62.40554412,196.6826674\H,0,107.5018256,62.87489173,196.11289494\H,0,
 108.29368094,63.8081855,197.35988914\H,0,106.62050901,63.56965672,200.
 86631235\H,0,108.31625064,63.53560351,200.53079348\H,0,108.04269003,64
 .91599336,198.63325811\H,0,106.31751759,64.81552779,198.7441728\H,0,10
 8.13764716,67.58599893,199.26378186\H,0,104.88092804,57.98343193,205.3
 8693872\H,0,103.24093486,58.24774195,204.84506303\H,0,104.06093144,56.
 7555435,204.45261423\H,0,105.2597875,61.73324175,203.73416001\H,0,104.
 7812155,60.6321692,204.99543002\H,0,107.12322718,59.78331414,205.03132
 557\H,0,107.54643534,61.03028361,203.9149675\H,0,106.47472887,63.00483
 105,207.03618545\H,0,102.06734212,55.15695224,197.24043174\H,0,101.414
 91506,54.20126944,198.54965899\H,0,101.74112856,55.90133328,198.787218
 17\H,0,106.13101743,59.08024469,193.03682737\H,0,104.73694321,58.41241
 661,193.85146187\H,0,105.43398033,59.91656733,194.40349133\H,0,103.042
 8405,52.6134103,198.63537523\H,0,103.77640119,53.26163755,197.21466553
 \H,0,105.97158255,51.01087743,198.34494458\H,0,107.7762595,57.64008881
 ,193.27529024\H,0,108.3054077,59.06852395,194.09747526\H,0,110.8160360
 5,57.48396797,194.90854594\\Version=ES64L-G16RevA.03\State=2-A\HF=-381
 2.9741488\S2=1.107913\S2-1=0.\S2A=0.86683\RMSD=2.555e-09\Dipole=1.5405
 699,1.7737367,-1.1399943\Quadrupole=-6.8210816,0.219021,6.6020606,8.38
 14057,-16.4880773,-13.4710683\PG=C01 [X(C38H38Fe1N6O10)]\\@


 The impersonal hand of government can
 never replace the helping hand of a neighbor.
                        -- Hubert H. Humphrey
 Job cpu time:       7 days 11 hours 58 minutes  4.7 seconds.
 Elapsed time:       1 days 21 hours 14 minutes 16.0 seconds.
 File lengths (MBytes):  RWF=   3494 Int=      0 D2E=      0 Chk=    316 Scr=      1
 Normal termination of Gaussian 16 at Thu Dec 29 11:30:39 2022.
