 Entering Gaussian System, Link 0=g16
 Input=/net/homes/chemie/zhartovska/work/BioModel/Konrad/1h9x/hemec/1h9xc12/1h9xc12.com
 Output=/net/homes/chemie/zhartovska/work/BioModel/Konrad/1h9x/hemec/1h9xc12/1h9xc12.log
 Initial command:
 /afs/math/software/gaussian/g16.A03/g16/l1.exe "/scratch/zhartovska_gaussian.zlRoLta/Gau-18859.inp" -scrdir="/scratch/zhartovska_gaussian.zlRoLta/"
 Entering Link 1 = /afs/math/software/gaussian/g16.A03/g16/l1.exe PID=     18860.
  
 Copyright (c) 1988,1990,1992,1993,1995,1998,2003,2009,2016,
            Gaussian, Inc.  All Rights Reserved.
  
 This is part of the Gaussian(R) 16 program.  It is based on
 the Gaussian(R) 09 system (copyright 2009, Gaussian, Inc.),
 the Gaussian(R) 03 system (copyright 2003, Gaussian, Inc.),
 the Gaussian(R) 98 system (copyright 1998, Gaussian, Inc.),
 the Gaussian(R) 94 system (copyright 1995, Gaussian, Inc.),
 the Gaussian 92(TM) system (copyright 1992, Gaussian, Inc.),
 the Gaussian 90(TM) system (copyright 1990, Gaussian, Inc.),
 the Gaussian 88(TM) system (copyright 1988, Gaussian, Inc.),
 the Gaussian 86(TM) system (copyright 1986, Carnegie Mellon
 University), and the Gaussian 82(TM) system (copyright 1983,
 Carnegie Mellon University). Gaussian is a federally registered
 trademark of Gaussian, Inc.
  
 This software contains proprietary and confidential information,
 including trade secrets, belonging to Gaussian, Inc.
  
 This software is provided under written license and may be
 used, copied, transmitted, or stored only in accord with that
 written license.
  
 The following legend is applicable only to US Government
 contracts under FAR:
  
                    RESTRICTED RIGHTS LEGEND
  
 Use, reproduction and disclosure by the US Government is
 subject to restrictions as set forth in subparagraphs (a)
 and (c) of the Commercial Computer Software - Restricted
 Rights clause in FAR 52.227-19.
  
 Gaussian, Inc.
 340 Quinnipiac St., Bldg. 40, Wallingford CT 06492
  
  
 ---------------------------------------------------------------
 Warning -- This program may not be used in any manner that
 competes with the business of Gaussian, Inc. or will provide
 assistance to any competitor of Gaussian, Inc.  The licensee
 of this program is prohibited from giving any competitor of
 Gaussian, Inc. access to this program.  By using this program,
 the user acknowledges that Gaussian, Inc. is engaged in the
 business of creating and licensing software in the field of
 computational chemistry and represents and warrants to the
 licensee that it is not a competitor of Gaussian, Inc. and that
 it will not use this program in any manner prohibited above.
 ---------------------------------------------------------------
  

 Cite this work as:
 Gaussian 16, Revision A.03,
 M. J. Frisch, G. W. Trucks, H. B. Schlegel, G. E. Scuseria, 
 M. A. Robb, J. R. Cheeseman, G. Scalmani, V. Barone, 
 G. A. Petersson, H. Nakatsuji, X. Li, M. Caricato, A. V. Marenich, 
 J. Bloino, B. G. Janesko, R. Gomperts, B. Mennucci, H. P. Hratchian, 
 J. V. Ortiz, A. F. Izmaylov, J. L. Sonnenberg, D. Williams-Young, 
 F. Ding, F. Lipparini, F. Egidi, J. Goings, B. Peng, A. Petrone, 
 T. Henderson, D. Ranasinghe, V. G. Zakrzewski, J. Gao, N. Rega, 
 G. Zheng, W. Liang, M. Hada, M. Ehara, K. Toyota, R. Fukuda, 
 J. Hasegawa, M. Ishida, T. Nakajima, Y. Honda, O. Kitao, H. Nakai, 
 T. Vreven, K. Throssell, J. A. Montgomery, Jr., J. E. Peralta, 
 F. Ogliaro, M. J. Bearpark, J. J. Heyd, E. N. Brothers, K. N. Kudin, 
 V. N. Staroverov, T. A. Keith, R. Kobayashi, J. Normand, 
 K. Raghavachari, A. P. Rendell, J. C. Burant, S. S. Iyengar, 
 J. Tomasi, M. Cossi, J. M. Millam, M. Klene, C. Adamo, R. Cammi, 
 J. W. Ochterski, R. L. Martin, K. Morokuma, O. Farkas, 
 J. B. Foresman, and D. J. Fox, Gaussian, Inc., Wallingford CT, 2016.
 
 ******************************************
 Gaussian 16:  ES64L-G16RevA.03 25-Dec-2016
                 8-Sep-2022 
 ******************************************
 %nprocs=12
 Will use up to   12 processors via shared memory.
 %mem=16GB
 %oldchk=1h9xc_II_S.chk
 %chk=1h9xc_III_D.chk
 Copying data from "1h9xc_II_S.chk" to current chk file "1h9xc_III_D.chk"
 IOpt=  2 FromEx=T IUOpen= 4 IOptOp= 5 NList=   0 IFRang= 0 IUIn= 4 IUOut= 2.
 ----------------------------------------------------------------------
 # PBE1PBE/def2TZVP empiricaldispersion=GD3BJ scf=maxcycle=999 geom=che
 ck pop=nbo
 ----------------------------------------------------------------------
 1/29=2,38=1,172=1/1;
 2/12=2,40=1/2;
 3/5=44,7=101,11=2,14=-4,25=1,30=1,74=-13,124=41/1,2,3;
 4//1;
 5/5=2,7=999,38=5/2;
 6/7=2,8=2,9=2,10=2,28=1,40=1/1,7;
 99/5=1,9=1/99;
 -----------
 1h9xc_III_D
 -----------
 Structure from the checkpoint file:  "1h9xc_III_D.chk"
 Charge =  1 Multiplicity = 2
 Z-Matrix found in chk file.
 C,0,108.765999,41.389999,198.218002
 C,0,109.397003,41.452,196.856003
 N,0,108.658997,41.402,195.705002
 C,0,110.708,41.555,196.488998
 C,0,109.480003,41.455002,194.664993
 N,0,110.721001,41.555,195.100998
 C,0,113.728996,43.437,190.542999
 C,0,114.058998,42.056,191.041
 S,0,114.267998,41.828999,192.822998
 C,0,115.002998,40.182999,192.723007
 Fe,0,112.424004,41.676998,194.016998
 C,0,110.544998,41.091,191.162003
 C,0,112.714996,38.337002,194.487
 C,0,114.471001,42.27,196.733994
 C,0,111.820999,45.012001,193.757996
 N,0,111.765999,40.029999,193.024002
 C,0,111.037003,40.008999,191.850998
 C,0,110.902,38.625999,191.427994
 C,0,111.483002,37.854,192.328995
 C,0,112.009003,38.731998,193.371994
 C,0,111.610001,36.312,192.376007
 C,0,110.147003,38.23,190.123001
 C,0,108.632004,38.055,190.399002
 C,0,107.761002,37.967999,189.171005
 O,0,106.549004,37.679001,189.343002
 O,0,108.268997,38.198002,188.056
 N,0,113.362999,40.544998,195.330994
 C,0,113.367996,39.154999,195.386002
 C,0,114.176003,38.714001,196.488998
 C,0,114.667999,39.801998,197.082993
 C,0,114.186996,40.957001,196.388
 C,0,114.400002,37.226002,196.867996
 C,0,115.609001,39.785999,198.343994
 C,0,116.93910131,39.36235088,198.22039219
 N,0,113.030998,43.317001,195.031998
 C,0,113.892998,43.360001,196.115997
 C,0,114.055,44.737999,196.531006
 C,0,113.342003,45.491001,195.697998
 C,0,112.657997,44.615002,194.770004
 C,0,114.928001,45.194,197.731995
 C,0,113.154999,47.051998,195.815994
 C,0,114.23110075,47.87155515,195.73293893
 N,0,111.411003,42.783001,192.738998
 C,0,111.259003,44.183998,192.807999
 C,0,110.457001,44.629002,191.716003
 C,0,110.101997,43.554001,191.016006
 C,0,110.700996,42.396,191.619995
 C,0,110.075996,46.111,191.429001
 C,0,109.226997,43.527,189.710007
 C,0,110.176003,43.561001,188.490997
 C,0,109.574997,43.698002,187.123993
 O,0,110.362999,43.536999,186.153
 O,0,108.356003,43.978001,187.014008
 H,0,115.94617555,40.18225682,193.22829459
 H,0,114.35022389,39.47222549,193.1851617
 H,0,115.14819972,39.91899621,191.69630403
 H,0,114.50315416,43.7734876,189.88546175
 H,0,112.79839184,43.41299749,190.01545775
 H,0,113.65077302,44.10656307,191.37394211
 H,0,113.27825718,41.39903579,190.71891026
 H,0,114.96623706,41.74698599,190.56526096
 H,0,109.40904975,41.86247385,198.93085068
 H,0,107.82333991,41.89584737,198.19772235
 H,0,108.61619482,40.36751754,198.49547341
 H,0,111.55456056,41.62216616,197.1399388
 H,0,107.66237025,41.33617888,195.65598461
 H,0,109.18353866,41.42197012,193.6374144
 H,0,106.30877507,36.88029421,189.8183519
 H,0,108.49630737,37.16064743,190.9705087
 H,0,108.30022991,38.88480565,190.98743087
 H,0,110.54595057,37.30966351,189.75054753
 H,0,110.28530504,38.99659495,189.38944478
 H,0,110.02425698,40.92479571,190.24216338
 H,0,108.58252929,44.38090039,189.68962316
 H,0,108.64117116,42.63192727,189.68649328
 H,0,110.85143177,44.37910572,188.63028322
 H,0,110.74921623,42.65756873,188.50269022
 H,0,108.0891786,44.83633099,186.67685171
 H,0,112.50996941,36.04371647,192.88882355
 H,0,110.76855741,35.9004271,192.89319211
 H,0,111.63926341,35.92595899,191.37850209
 H,0,110.83579683,46.56451722,190.82739911
 H,0,109.141625,46.14470909,190.90869866
 H,0,109.98871091,46.64231407,192.35365589
 H,0,111.58351142,46.05372453,193.70044834
 H,0,112.76191326,37.28483709,194.67580619
 H,0,115.31598852,37.13069965,197.41277684
 H,0,113.5869863,36.88627729,197.4750319
 H,0,114.45148747,36.63499415,195.97751356
 H,0,115.17451012,42.44665502,197.52061203
 H,0,115.85106189,45.5959652,197.36966564
 H,0,114.40587956,45.94457312,198.28780899
 H,0,115.12847074,44.35560014,198.36587003
 H,0,112.17844475,47.46433946,195.96165226
 H,0,114.88617453,47.52307268,194.96200553
 H,0,113.90612675,48.86471768,195.50289527
 H,0,114.75063856,47.87395755,196.66833975
 H,0,115.23333813,40.09858414,199.29587001
 H,0,117.06510063,38.84964255,197.28971806
 H,0,117.58837312,40.21232937,198.25010193
 H,0,117.17939127,38.70161597,199.02698386
 Recover connectivity data from disk.
 Stoichiometry    C41H48FeN6O4S(1+,2)
 Framework group  C1[X(C41H48FeN6O4S)]
 Deg. of freedom   297
 Full point group                 C1      NOp   1
 Largest Abelian subgroup         C1      NOp   1
 Largest concise Abelian subgroup C1      NOp   1
                         Standard orientation:                         
 ---------------------------------------------------------------------
 Center     Atomic      Atomic             Coordinates (Angstroms)
 Number     Number       Type             X           Y           Z
 ---------------------------------------------------------------------
      1          6           0        2.452058   -1.025755    5.162792
      2          6           0        1.651891   -0.747677    3.922044
      3          7           0        0.287472   -0.647492    3.938764
      4          6           0        2.053335   -0.557297    2.631070
      5          6           0       -0.142303   -0.420604    2.704951
      6          7           0        0.895433   -0.353022    1.893339
      7          6           0       -1.120115    2.256990   -2.849099
      8          6           0       -0.679046    0.827008   -3.006187
      9         16           0        0.902632    0.346249   -2.272776
     10          6           0        1.028229   -1.247212   -3.112209
     11         26           0        0.905995   -0.028162   -0.102785
     12          6           0       -2.555194   -0.237735   -0.066721
     13          6           0        1.086365   -3.392107   -0.438190
     14          6           0        4.341598    0.213047   -0.352527
     15          6           0        0.736012    3.291606    0.606570
     16          7           0       -0.459664   -1.528184   -0.231341
     17          6           0       -1.834547   -1.395853   -0.230853
     18          6           0       -2.414215   -2.704771   -0.476950
     19          6           0       -1.434013   -3.585160   -0.574254
     20          6           0       -0.181638   -2.856354   -0.385035
     21          6           0       -1.497299   -5.113436   -0.811885
     22          6           0       -3.955139   -2.924531   -0.561216
     23          6           0       -4.549534   -3.178120    0.847475
     24          6           0       -6.053472   -3.106719    0.932687
     25          8           0       -6.586405   -3.449749    2.019128
     26          8           0       -6.693297   -2.702060   -0.057804
     27          7           0        2.383633   -1.315745   -0.322869
     28          6           0        2.278889   -2.698120   -0.437836
     29          6           0        3.586049   -3.274901   -0.588205
     30          6           0        4.466710   -2.273378   -0.584226
     31          6           0        3.754952   -1.041904   -0.425214
     32          6           0        3.858985   -4.795998   -0.728660
     33          6           0        6.024239   -2.449625   -0.721721
     34          6           0        6.581937   -2.815249   -1.954284
     35          7           0        2.262186    1.460362    0.079747
     36          6           0        3.635625    1.366373   -0.077661
     37          6           0        4.222408    2.672233    0.140906
     38          6           0        3.226885    3.520363    0.383575
     39          6           0        1.987112    2.772465    0.388451
     40          6           0        5.745513    2.969719    0.076905
     41          6           0        3.398795    5.041595    0.760275
     42          6           0        3.992626    5.892584   -0.111362
     43          7           0       -0.583712    1.226473    0.196148
     44          6           0       -0.451957    2.597621    0.501518
     45          6           0       -1.746246    3.176906    0.652968
     46          6           0       -2.641485    2.207424    0.478892
     47          6           0       -1.943602    0.989472    0.172102
     48          6           0       -2.026241    4.674407    0.973821
     49          6           0       -4.206384    2.349507    0.532670
     50          6           0       -4.720322    2.587285   -0.905065
     51          6           0       -6.172405    2.907730   -1.098575
     52          8           0       -6.585478    2.911998   -2.289814
     53          8           0       -6.882843    3.168567   -0.096734
     54          1           0        1.954399   -1.297283   -3.645691
     55          1           0        0.989969   -2.035158   -2.389314
     56          1           0        0.214756   -1.353575   -3.799122
     57          1           0       -1.222541    2.706755   -3.814562
     58          1           0       -2.060999    2.286195   -2.340390
     59          1           0       -0.390456    2.794899   -2.280635
     60          1           0       -1.437646    0.204114   -2.580241
     61          1           0       -0.629359    0.615307   -4.053857
     62          1           0        3.444890   -0.646331    5.039411
     63          1           0        1.988993   -0.547483    6.000483
     64          1           0        2.492186   -2.081502    5.332165
     65          1           0        3.057796   -0.564171    2.262409
     66          1           0       -0.291605   -0.731686    4.749678
     67          1           0       -1.166164   -0.310117    2.414434
     68          1           0       -6.403641   -4.315690    2.391075
     69          1           0       -4.240981   -4.150003    1.171727
     70          1           0       -4.140698   -2.452826    1.519563
     71          1           0       -4.156960   -3.769300   -1.186144
     72          1           0       -4.412413   -2.055096   -0.985345
     73          1           0       -3.622772   -0.280678   -0.124449
     74          1           0       -4.472307    3.179819    1.152965
     75          1           0       -4.636936    1.452451    0.926135
     76          1           0       -4.153405    3.393591   -1.321449
     77          1           0       -4.505105    1.707391   -1.474599
     78          1           0       -7.213034    4.059772    0.038648
     79          1           0       -0.617376   -5.430298   -1.331726
     80          1           0       -1.556781   -5.618600    0.129481
     81          1           0       -2.361485   -5.347821   -1.397672
     82          1           0       -2.076440    5.231293    0.061539
     83          1           0       -2.956680    4.759514    1.495300
     84          1           0       -1.238037    5.061608    1.585138
     85          1           0        0.676354    4.323843    0.881941
     86          1           0        1.153551   -4.458984   -0.484655
     87          1           0        4.793373   -4.946090   -1.227951
     88          1           0        3.897981   -5.242569    0.242913
     89          1           0        3.073802   -5.248190   -1.297789
     90          1           0        5.395847    0.290723   -0.518131
     91          1           0        5.977349    3.444786   -0.853398
     92          1           0        6.016871    3.616434    0.885004
     93          1           0        6.291584    2.052874    0.155019
     94          1           0        3.046608    5.402133    1.704138
     95          1           0        3.655953    5.678570   -1.104211
     96          1           0        3.736258    6.899837    0.142835
     97          1           0        5.054525    5.771242   -0.060912
     98          1           0        6.657571   -2.290315    0.125870
     99          1           0        5.811351   -3.182147   -2.599639
    100          1           0        7.046490   -1.962017   -2.402711
    101          1           0        7.313785   -3.580745   -1.801593
 ---------------------------------------------------------------------
 Rotational constants (GHZ):           0.0676733           0.0434559           0.0335749
 Standard basis: def2TZVP (5D, 7F)
 There are  2218 symmetry adapted cartesian basis functions of A   symmetry.
 There are  1951 symmetry adapted basis functions of A   symmetry.
  1951 basis functions,  3156 primitive gaussians,  2218 cartesian basis functions
   205 alpha electrons      204 beta electrons
       nuclear repulsion energy      8979.1994694432 Hartrees.
 NAtoms=  101 NActive=  101 NUniq=  101 SFac= 1.00D+00 NAtFMM=   60 NAOKFM=T Big=T
 Integral buffers will be    131072 words long.
 Raffenetti 2 integral format.
 Two-electron integral symmetry is turned on.
 Nuclear repulsion after empirical dispersion term =     8979.0476063958 Hartrees.
 One-electron integrals computed using PRISM.
   1 Symmetry operations used in ECPInt.
 ECPInt:  NShTT=  305371 NPrTT=  941867 LenC2=  223893 LenP2D=  446839.
 LDataN:  DoStor=T MaxTD1= 6 Len=  172
 NBasis=  1951 RedAO= T EigKep=  2.63D-06  NBF=  1951
 NBsUse=  1951 1.00D-06 EigRej= -1.00D+00 NBFU=  1951
 ExpMin= 4.20D-02 ExpMax= 3.01D+05 ExpMxC= 2.91D+03 IAcc=3 IRadAn=         5 AccDes= 0.00D+00
 Harris functional with IExCor= 1009 and IRadAn=       5 diagonalized for initial guess.
 HarFok:  IExCor= 1009 AccDes= 0.00D+00 IRadAn=         5 IDoV= 1 UseB2=F ITyADJ=14
 ICtDFT=  3500011 ScaDFX=  1.000000  1.000000  1.000000  1.000000
 FoFCou: FMM=F IPFlag=           0 FMFlag=      100000 FMFlg1=        2001
         NFxFlg=           0 DoJE=T BraDBF=F KetDBF=T FulRan=T
         wScrn=  0.000000 ICntrl=       500 IOpCl=  0 I1Cent=   200000004 NGrid=           0
         NMat0=    1 NMatS0=      1 NMatT0=    0 NMatD0=    1 NMtDS0=    0 NMtDT0=    0
 Petite list used in FoFCou.
 Initial guess <Sx>= 0.0000 <Sy>= 0.0000 <Sz>= 0.5000 <S**2>= 0.7500 S= 0.5000
 Requested convergence on RMS density matrix=1.00D-08 within 999 cycles.
 Requested convergence on MAX density matrix=1.00D-06.
 Requested convergence on             energy=1.00D-06.
 No special actions if energy rises.
 EnCoef did   100 forward-backward iterations
 EnCoef did   100 forward-backward iterations
 EnCoef did     5 forward-backward iterations
 EnCoef did     7 forward-backward iterations
 EnCoef did     3 forward-backward iterations
 EnCoef did     2 forward-backward iterations
 EnCoef did     2 forward-backward iterations
 Rare condition: small coef for last iteration:  0.000D+00
 Rare condition: small coef for last iteration:  0.000D+00
 EnCoef did   100 forward-backward iterations
 Rare condition: small coef for last iteration:  0.136D-16
 EnCoef did   100 forward-backward iterations
 Rare condition: small coef for last iteration:  0.000D+00
 Rare condition: small coef for last iteration:  0.000D+00
 Restarting incremental Fock formation.
 Restarting incremental Fock formation.
 Restarting incremental Fock formation.
 SCF Done:  E(UPBE1PBE) =  -3880.33263498     A.U. after   76 cycles
            NFock= 76  Conv=0.21D-08     -V/T= 2.0031
 <Sx>= 0.0000 <Sy>= 0.0000 <Sz>= 0.5000 <S**2>= 1.1402 S= 0.6791
 <L.S>= 0.000000000000E+00
 Annihilation of the first spin contaminant:
 S**2 before annihilation     1.1402,   after     0.7873
 Hyperfine terms turned off by default for NAtoms > 100.

 **********************************************************************

            Population analysis using the SCF density.

 **********************************************************************

 Orbital symmetries:
 Alpha Orbitals:
       Occupied  (A) (A) (A) (A) (A) (A) (A) (A) (A) (A) (A) (A)
                 (A) (A) (A) (A) (A) (A) (A) (A) (A) (A) (A) (A)
                 (A) (A) (A) (A) (A) (A) (A) (A) (A) (A) (A) (A)
                 (A) (A) (A) (A) (A) (A) (A) (A) (A) (A) (A) (A)
                 (A) (A) (A) (A) (A) (A) (A) (A) (A) (A) (A) (A)
                 (A) (A) (A) (A) (A) (A) (A) (A) (A) (A) (A) (A)
                 (A) (A) (A) (A) (A) (A) (A) (A) (A) (A) (A) (A)
                 (A) (A) (A) (A) (A) (A) (A) (A) (A) (A) (A) (A)
                 (A) (A) (A) (A) (A) (A) (A) (A) (A) (A) (A) (A)
                 (A) (A) (A) (A) (A) (A) (A) (A) (A) (A) (A) (A)
                 (A) (A) (A) (A) (A) (A) (A) (A) (A) (A) (A) (A)
                 (A) (A) (A) (A) (A) (A) (A) (A) (A) (A) (A) (A)
                 (A) (A) (A) (A) (A) (A) (A) (A) (A) (A) (A) (A)
                 (A) (A) (A) (A) (A) (A) (A) (A) (A) (A) (A) (A)
                 (A) (A) (A) (A) (A) (A) (A) (A) (A) (A) (A) (A)
                 (A) (A) (A) (A) (A) (A) (A) (A) (A) (A) (A) (A)
                 (A) (A) (A) (A) (A) (A) (A) (A) (A) (A) (A) (A)
                 (A)
       Virtual   (A) (A) (A) (A) (A) (A) (A) (A) (A) (A) (A) (A)
                 (A) (A) (A) (A) (A) (A) (A) (A) (A) (A) (A) (A)
                 (A) (A) (A) (A) (A) (A) (A) (A) (A) (A) (A) (A)
                 (A) (A) (A) (A) (A) (A) (A) (A) (A) (A) (A) (A)
                 (A) (A) (A) (A) (A) (A) (A) (A) (A) (A) (A) (A)
                 (A) (A) (A) (A) (A) (A) (A) (A) (A) (A) (A) (A)
                 (A) (A) (A) (A) (A) (A) (A) (A) (A) (A) (A) (A)
                 (A) (A) (A) (A) (A) (A) (A) (A) (A) (A) (A) (A)
                 (A) (A) (A) (A) (A) (A) (A) (A) (A) (A) (A) (A)
                 (A) (A) (A) (A) (A) (A) (A) (A) (A) (A) (A) (A)
                 (A) (A) (A) (A) (A) (A) (A) (A) (A) (A) (A) (A)
                 (A) (A) (A) (A) (A) (A) (A) (A) (A) (A) (A) (A)
                 (A) (A) (A) (A) (A) (A) (A) (A) (A) (A) (A) (A)
                 (A) (A) (A) (A) (A) (A) (A) (A) (A) (A) (A) (A)
                 (A) (A) (A) (A) (A) (A) (A) (A) (A) (A) (A) (A)
                 (A) (A) (A) (A) (A) (A) (A) (A) (A) (A) (A) (A)
                 (A) (A) (A) (A) (A) (A) (A) (A) (A) (A) (A) (A)
                 (A) (A) (A) (A) (A) (A) (A) (A) (A) (A) (A) (A)
                 (A) (A) (A) (A) (A) (A) (A) (A) (A) (A) (A) (A)
                 (A) (A) (A) (A) (A) (A) (A) (A) (A) (A) (A) (A)
                 (A) (A) (A) (A) (A) (A) (A) (A) (A) (A) (A) (A)
                 (A) (A) (A) (A) (A) (A) (A) (A) (A) (A) (A) (A)
                 (A) (A) (A) (A) (A) (A) (A) (A) (A) (A) (A) (A)
                 (A) (A) (A) (A) (A) (A) (A) (A) (A) (A) (A) (A)
                 (A) (A) (A) (A) (A) (A) (A) (A) (A) (A) (A) (A)
                 (A) (A) (A) (A) (A) (A) (A) (A) (A) (A) (A) (A)
                 (A) (A) (A) (A) (A) (A) (A) (A) (A) (A) (A) (A)
                 (A) (A) (A) (A) (A) (A) (A) (A) (A) (A) (A) (A)
                 (A) (A) (A) (A) (A) (A) (A) (A) (A) (A) (A) (A)
                 (A) (A) (A) (A) (A) (A) (A) (A) (A) (A) (A) (A)
                 (A) (A) (A) (A) (A) (A) (A) (A) (A) (A) (A) (A)
                 (A) (A) (A) (A) (A) (A) (A) (A) (A) (A) (A) (A)
                 (A) (A) (A) (A) (A) (A) (A) (A) (A) (A) (A) (A)
                 (A) (A) (A) (A) (A) (A) (A) (A) (A) (A) (A) (A)
                 (A) (A) (A) (A) (A) (A) (A) (A) (A) (A) (A) (A)
                 (A) (A) (A) (A) (A) (A) (A) (A) (A) (A) (A) (A)
                 (A) (A) (A) (A) (A) (A) (A) (A) (A) (A) (A) (A)
                 (A) (A) (A) (A) (A) (A) (A) (A) (A) (A) (A) (A)
                 (A) (A) (A) (A) (A) (A) (A) (A) (A) (A) (A) (A)
                 (A) (A) (A) (A) (A) (A) (A) (A) (A) (A) (A) (A)
                 (A) (A) (A) (A) (A) (A) (A) (A) (A) (A) (A) (A)
                 (A) (A) (A) (A) (A) (A) (A) (A) (A) (A) (A) (A)
                 (A) (A) (A) (A) (A) (A) (A) (A) (A) (A) (A) (A)
                 (A) (A) (A) (A) (A) (A) (A) (A) (A) (A) (A) (A)
                 (A) (A) (A) (A) (A) (A) (A) (A) (A) (A) (A) (A)
                 (A) (A) (A) (A) (A) (A) (A) (A) (A) (A) (A) (A)
                 (A) (A) (A) (A) (A) (A) (A) (A) (A) (A) (A) (A)
                 (A) (A) (A) (A) (A) (A) (A) (A) (A) (A) (A) (A)
                 (A) (A) (A) (A) (A) (A) (A) (A) (A) (A) (A) (A)
                 (A) (A) (A) (A) (A) (A) (A) (A) (A) (A) (A) (A)
                 (A) (A) (A) (A) (A) (A) (A) (A) (A) (A) (A) (A)
                 (A) (A) (A) (A) (A) (A) (A) (A) (A) (A) (A) (A)
                 (A) (A) (A) (A) (A) (A) (A) (A) (A) (A) (A) (A)
                 (A) (A) (A) (A) (A) (A) (A) (A) (A) (A) (A) (A)
                 (A) (A) (A) (A) (A) (A) (A) (A) (A) (A) (A) (A)
                 (A) (A) (A) (A) (A) (A) (A) (A) (A) (A) (A) (A)
                 (A) (A) (A) (A) (A) (A) (A) (A) (A) (A) (A) (A)
                 (A) (A) (A) (A) (A) (A) (A) (A) (A) (A) (A) (A)
                 (A) (A) (A) (A) (A) (A) (A) (A) (A) (A) (A) (A)
                 (A) (A) (A) (A) (A) (A) (A) (A) (A) (A) (A) (A)
                 (A) (A) (A) (A) (A) (A) (A) (A) (A) (A) (A) (A)
                 (A) (A) (A) (A) (A) (A) (A) (A) (A) (A) (A) (A)
                 (A) (A) (A) (A) (A) (A) (A) (A) (A) (A) (A) (A)
                 (A) (A) (A) (A) (A) (A) (A) (A) (A) (A) (A) (A)
                 (A) (A) (A) (A) (A) (A) (A) (A) (A) (A) (A) (A)
                 (A) (A) (A) (A) (A) (A) (A) (A) (A) (A) (A) (A)
                 (A) (A) (A) (A) (A) (A) (A) (A) (A) (A) (A) (A)
                 (A) (A) (A) (A) (A) (A) (A) (A) (A) (A) (A) (A)
                 (A) (A) (A) (A) (A) (A) (A) (A) (A) (A) (A) (A)
                 (A) (A) (A) (A) (A) (A) (A) (A) (A) (A) (A) (A)
                 (A) (A) (A) (A) (A) (A) (A) (A) (A) (A) (A) (A)
                 (A) (A) (A) (A) (A) (A) (A) (A) (A) (A) (A) (A)
                 (A) (A) (A) (A) (A) (A) (A) (A) (A) (A) (A) (A)
                 (A) (A) (A) (A) (A) (A) (A) (A) (A) (A) (A) (A)
                 (A) (A) (A) (A) (A) (A) (A) (A) (A) (A) (A) (A)
                 (A) (A) (A) (A) (A) (A) (A) (A) (A) (A) (A) (A)
                 (A) (A) (A) (A) (A) (A) (A) (A) (A) (A) (A) (A)
                 (A) (A) (A) (A) (A) (A) (A) (A) (A) (A) (A) (A)
                 (A) (A) (A) (A) (A) (A) (A) (A) (A) (A) (A) (A)
                 (A) (A) (A) (A) (A) (A) (A) (A) (A) (A) (A) (A)
                 (A) (A) (A) (A) (A) (A) (A) (A) (A) (A) (A) (A)
                 (A) (A) (A) (A) (A) (A) (A) (A) (A) (A) (A) (A)
                 (A) (A) (A) (A) (A) (A) (A) (A) (A) (A) (A) (A)
                 (A) (A) (A) (A) (A) (A) (A) (A) (A) (A) (A) (A)
                 (A) (A) (A) (A) (A) (A) (A) (A) (A) (A) (A) (A)
                 (A) (A) (A) (A) (A) (A) (A) (A) (A) (A) (A) (A)
                 (A) (A) (A) (A) (A) (A) (A) (A) (A) (A) (A) (A)
                 (A) (A) (A) (A) (A) (A) (A) (A) (A) (A) (A) (A)
                 (A) (A) (A) (A) (A) (A) (A) (A) (A) (A) (A) (A)
                 (A) (A) (A) (A) (A) (A) (A) (A) (A) (A) (A) (A)
                 (A) (A) (A) (A) (A) (A) (A) (A) (A) (A) (A) (A)
                 (A) (A) (A) (A) (A) (A) (A) (A) (A) (A) (A) (A)
                 (A) (A) (A) (A) (A) (A) (A) (A) (A) (A) (A) (A)
                 (A) (A) (A) (A) (A) (A) (A) (A) (A) (A) (A) (A)
                 (A) (A) (A) (A) (A) (A) (A) (A) (A) (A) (A) (A)
                 (A) (A) (A) (A) (A) (A) (A) (A) (A) (A) (A) (A)
                 (A) (A) (A) (A) (A) (A) (A) (A) (A) (A) (A) (A)
                 (A) (A) (A) (A) (A) (A) (A) (A) (A) (A) (A) (A)
                 (A) (A) (A) (A) (A) (A) (A) (A) (A) (A) (A) (A)
                 (A) (A) (A) (A) (A) (A) (A) (A) (A) (A) (A) (A)
                 (A) (A) (A) (A) (A) (A) (A) (A) (A) (A) (A) (A)
                 (A) (A) (A) (A) (A) (A) (A) (A) (A) (A) (A) (A)
                 (A) (A) (A) (A) (A) (A) (A) (A) (A) (A) (A) (A)
                 (A) (A) (A) (A) (A) (A) (A) (A) (A) (A) (A) (A)
                 (A) (A) (A) (A) (A) (A) (A) (A) (A) (A) (A) (A)
                 (A) (A) (A) (A) (A) (A) (A) (A) (A) (A) (A) (A)
                 (A) (A) (A) (A) (A) (A) (A) (A) (A) (A) (A) (A)
                 (A) (A) (A) (A) (A) (A) (A) (A) (A) (A) (A) (A)
                 (A) (A) (A) (A) (A) (A) (A) (A) (A) (A) (A) (A)
                 (A) (A) (A) (A) (A) (A) (A) (A) (A) (A) (A) (A)
                 (A) (A) (A) (A) (A) (A) (A) (A) (A) (A) (A) (A)
                 (A) (A) (A) (A) (A) (A) (A) (A) (A) (A) (A) (A)
                 (A) (A) (A) (A) (A) (A) (A) (A) (A) (A) (A) (A)
                 (A) (A) (A) (A) (A) (A) (A) (A) (A) (A) (A) (A)
                 (A) (A) (A) (A) (A) (A) (A) (A) (A) (A) (A) (A)
                 (A) (A) (A) (A) (A) (A) (A) (A) (A) (A) (A) (A)
                 (A) (A) (A) (A) (A) (A) (A) (A) (A) (A) (A) (A)
                 (A) (A) (A) (A) (A) (A) (A) (A) (A) (A) (A) (A)
                 (A) (A) (A) (A) (A) (A) (A) (A) (A) (A) (A) (A)
                 (A) (A) (A) (A) (A) (A) (A) (A) (A) (A) (A) (A)
                 (A) (A) (A) (A) (A) (A) (A) (A) (A) (A) (A) (A)
                 (A) (A) (A) (A) (A) (A) (A) (A) (A) (A) (A) (A)
                 (A) (A) (A) (A) (A) (A) (A) (A) (A) (A) (A) (A)
                 (A) (A) (A) (A) (A) (A) (A) (A) (A) (A) (A) (A)
                 (A) (A) (A) (A) (A) (A) (A) (A) (A) (A) (A) (A)
                 (A) (A) (A) (A) (A) (A) (A) (A) (A) (A) (A) (A)
                 (A) (A) (A) (A) (A) (A) (A) (A) (A) (A) (A) (A)
                 (A) (A) (A) (A) (A) (A) (A) (A) (A) (A) (A) (A)
                 (A) (A) (A) (A) (A) (A) (A) (A) (A) (A) (A) (A)
                 (A) (A) (A) (A) (A) (A) (A) (A) (A) (A) (A) (A)
                 (A) (A) (A) (A) (A) (A) (A) (A) (A) (A) (A) (A)
                 (A) (A) (A) (A) (A) (A) (A) (A) (A) (A) (A) (A)
                 (A) (A) (A) (A) (A) (A) (A) (A) (A) (A) (A) (A)
                 (A) (A) (A) (A) (A) (A) (A) (A) (A) (A) (A) (A)
                 (A) (A) (A) (A) (A) (A) (A) (A) (A) (A) (A) (A)
                 (A) (A) (A) (A) (A) (A) (A) (A) (A) (A) (A) (A)
                 (A) (A) (A) (A) (A) (A) (A) (A) (A) (A) (A) (A)
                 (A) (A) (A) (A) (A) (A) (A) (A) (A) (A) (A) (A)
                 (A) (A) (A) (A) (A) (A) (A) (A) (A) (A) (A) (A)
                 (A) (A) (A) (A) (A) (A) (A) (A) (A) (A) (A) (A)
                 (A) (A) (A) (A) (A) (A) (A) (A) (A) (A) (A) (A)
                 (A) (A) (A) (A) (A) (A) (A) (A) (A) (A) (A) (A)
                 (A) (A) (A) (A) (A) (A) (A) (A) (A) (A) (A) (A)
                 (A) (A) (A) (A) (A) (A) (A) (A) (A) (A) (A) (A)
                 (A) (A) (A) (A) (A) (A) (A) (A) (A) (A) (A) (A)
                 (A) (A) (A) (A) (A) (A)
 Beta  Orbitals:
       Occupied  (A) (A) (A) (A) (A) (A) (A) (A) (A) (A) (A) (A)
                 (A) (A) (A) (A) (A) (A) (A) (A) (A) (A) (A) (A)
                 (A) (A) (A) (A) (A) (A) (A) (A) (A) (A) (A) (A)
                 (A) (A) (A) (A) (A) (A) (A) (A) (A) (A) (A) (A)
                 (A) (A) (A) (A) (A) (A) (A) (A) (A) (A) (A) (A)
                 (A) (A) (A) (A) (A) (A) (A) (A) (A) (A) (A) (A)
                 (A) (A) (A) (A) (A) (A) (A) (A) (A) (A) (A) (A)
                 (A) (A) (A) (A) (A) (A) (A) (A) (A) (A) (A) (A)
                 (A) (A) (A) (A) (A) (A) (A) (A) (A) (A) (A) (A)
                 (A) (A) (A) (A) (A) (A) (A) (A) (A) (A) (A) (A)
                 (A) (A) (A) (A) (A) (A) (A) (A) (A) (A) (A) (A)
                 (A) (A) (A) (A) (A) (A) (A) (A) (A) (A) (A) (A)
                 (A) (A) (A) (A) (A) (A) (A) (A) (A) (A) (A) (A)
                 (A) (A) (A) (A) (A) (A) (A) (A) (A) (A) (A) (A)
                 (A) (A) (A) (A) (A) (A) (A) (A) (A) (A) (A) (A)
                 (A) (A) (A) (A) (A) (A) (A) (A) (A) (A) (A) (A)
                 (A) (A) (A) (A) (A) (A) (A) (A) (A) (A) (A) (A)
       Virtual   (A) (A) (A) (A) (A) (A) (A) (A) (A) (A) (A) (A)
                 (A) (A) (A) (A) (A) (A) (A) (A) (A) (A) (A) (A)
                 (A) (A) (A) (A) (A) (A) (A) (A) (A) (A) (A) (A)
                 (A) (A) (A) (A) (A) (A) (A) (A) (A) (A) (A) (A)
                 (A) (A) (A) (A) (A) (A) (A) (A) (A) (A) (A) (A)
                 (A) (A) (A) (A) (A) (A) (A) (A) (A) (A) (A) (A)
                 (A) (A) (A) (A) (A) (A) (A) (A) (A) (A) (A) (A)
                 (A) (A) (A) (A) (A) (A) (A) (A) (A) (A) (A) (A)
                 (A) (A) (A) (A) (A) (A) (A) (A) (A) (A) (A) (A)
                 (A) (A) (A) (A) (A) (A) (A) (A) (A) (A) (A) (A)
                 (A) (A) (A) (A) (A) (A) (A) (A) (A) (A) (A) (A)
                 (A) (A) (A) (A) (A) (A) (A) (A) (A) (A) (A) (A)
                 (A) (A) (A) (A) (A) (A) (A) (A) (A) (A) (A) (A)
                 (A) (A) (A) (A) (A) (A) (A) (A) (A) (A) (A) (A)
                 (A) (A) (A) (A) (A) (A) (A) (A) (A) (A) (A) (A)
                 (A) (A) (A) (A) (A) (A) (A) (A) (A) (A) (A) (A)
                 (A) (A) (A) (A) (A) (A) (A) (A) (A) (A) (A) (A)
                 (A) (A) (A) (A) (A) (A) (A) (A) (A) (A) (A) (A)
                 (A) (A) (A) (A) (A) (A) (A) (A) (A) (A) (A) (A)
                 (A) (A) (A) (A) (A) (A) (A) (A) (A) (A) (A) (A)
                 (A) (A) (A) (A) (A) (A) (A) (A) (A) (A) (A) (A)
                 (A) (A) (A) (A) (A) (A) (A) (A) (A) (A) (A) (A)
                 (A) (A) (A) (A) (A) (A) (A) (A) (A) (A) (A) (A)
                 (A) (A) (A) (A) (A) (A) (A) (A) (A) (A) (A) (A)
                 (A) (A) (A) (A) (A) (A) (A) (A) (A) (A) (A) (A)
                 (A) (A) (A) (A) (A) (A) (A) (A) (A) (A) (A) (A)
                 (A) (A) (A) (A) (A) (A) (A) (A) (A) (A) (A) (A)
                 (A) (A) (A) (A) (A) (A) (A) (A) (A) (A) (A) (A)
                 (A) (A) (A) (A) (A) (A) (A) (A) (A) (A) (A) (A)
                 (A) (A) (A) (A) (A) (A) (A) (A) (A) (A) (A) (A)
                 (A) (A) (A) (A) (A) (A) (A) (A) (A) (A) (A) (A)
                 (A) (A) (A) (A) (A) (A) (A) (A) (A) (A) (A) (A)
                 (A) (A) (A) (A) (A) (A) (A) (A) (A) (A) (A) (A)
                 (A) (A) (A) (A) (A) (A) (A) (A) (A) (A) (A) (A)
                 (A) (A) (A) (A) (A) (A) (A) (A) (A) (A) (A) (A)
                 (A) (A) (A) (A) (A) (A) (A) (A) (A) (A) (A) (A)
                 (A) (A) (A) (A) (A) (A) (A) (A) (A) (A) (A) (A)
                 (A) (A) (A) (A) (A) (A) (A) (A) (A) (A) (A) (A)
                 (A) (A) (A) (A) (A) (A) (A) (A) (A) (A) (A) (A)
                 (A) (A) (A) (A) (A) (A) (A) (A) (A) (A) (A) (A)
                 (A) (A) (A) (A) (A) (A) (A) (A) (A) (A) (A) (A)
                 (A) (A) (A) (A) (A) (A) (A) (A) (A) (A) (A) (A)
                 (A) (A) (A) (A) (A) (A) (A) (A) (A) (A) (A) (A)
                 (A) (A) (A) (A) (A) (A) (A) (A) (A) (A) (A) (A)
                 (A) (A) (A) (A) (A) (A) (A) (A) (A) (A) (A) (A)
                 (A) (A) (A) (A) (A) (A) (A) (A) (A) (A) (A) (A)
                 (A) (A) (A) (A) (A) (A) (A) (A) (A) (A) (A) (A)
                 (A) (A) (A) (A) (A) (A) (A) (A) (A) (A) (A) (A)
                 (A) (A) (A) (A) (A) (A) (A) (A) (A) (A) (A) (A)
                 (A) (A) (A) (A) (A) (A) (A) (A) (A) (A) (A) (A)
                 (A) (A) (A) (A) (A) (A) (A) (A) (A) (A) (A) (A)
                 (A) (A) (A) (A) (A) (A) (A) (A) (A) (A) (A) (A)
                 (A) (A) (A) (A) (A) (A) (A) (A) (A) (A) (A) (A)
                 (A) (A) (A) (A) (A) (A) (A) (A) (A) (A) (A) (A)
                 (A) (A) (A) (A) (A) (A) (A) (A) (A) (A) (A) (A)
                 (A) (A) (A) (A) (A) (A) (A) (A) (A) (A) (A) (A)
                 (A) (A) (A) (A) (A) (A) (A) (A) (A) (A) (A) (A)
                 (A) (A) (A) (A) (A) (A) (A) (A) (A) (A) (A) (A)
                 (A) (A) (A) (A) (A) (A) (A) (A) (A) (A) (A) (A)
                 (A) (A) (A) (A) (A) (A) (A) (A) (A) (A) (A) (A)
                 (A) (A) (A) (A) (A) (A) (A) (A) (A) (A) (A) (A)
                 (A) (A) (A) (A) (A) (A) (A) (A) (A) (A) (A) (A)
                 (A) (A) (A) (A) (A) (A) (A) (A) (A) (A) (A) (A)
                 (A) (A) (A) (A) (A) (A) (A) (A) (A) (A) (A) (A)
                 (A) (A) (A) (A) (A) (A) (A) (A) (A) (A) (A) (A)
                 (A) (A) (A) (A) (A) (A) (A) (A) (A) (A) (A) (A)
                 (A) (A) (A) (A) (A) (A) (A) (A) (A) (A) (A) (A)
                 (A) (A) (A) (A) (A) (A) (A) (A) (A) (A) (A) (A)
                 (A) (A) (A) (A) (A) (A) (A) (A) (A) (A) (A) (A)
                 (A) (A) (A) (A) (A) (A) (A) (A) (A) (A) (A) (A)
                 (A) (A) (A) (A) (A) (A) (A) (A) (A) (A) (A) (A)
                 (A) (A) (A) (A) (A) (A) (A) (A) (A) (A) (A) (A)
                 (A) (A) (A) (A) (A) (A) (A) (A) (A) (A) (A) (A)
                 (A) (A) (A) (A) (A) (A) (A) (A) (A) (A) (A) (A)
                 (A) (A) (A) (A) (A) (A) (A) (A) (A) (A) (A) (A)
                 (A) (A) (A) (A) (A) (A) (A) (A) (A) (A) (A) (A)
                 (A) (A) (A) (A) (A) (A) (A) (A) (A) (A) (A) (A)
                 (A) (A) (A) (A) (A) (A) (A) (A) (A) (A) (A) (A)
                 (A) (A) (A) (A) (A) (A) (A) (A) (A) (A) (A) (A)
                 (A) (A) (A) (A) (A) (A) (A) (A) (A) (A) (A) (A)
                 (A) (A) (A) (A) (A) (A) (A) (A) (A) (A) (A) (A)
                 (A) (A) (A) (A) (A) (A) (A) (A) (A) (A) (A) (A)
                 (A) (A) (A) (A) (A) (A) (A) (A) (A) (A) (A) (A)
                 (A) (A) (A) (A) (A) (A) (A) (A) (A) (A) (A) (A)
                 (A) (A) (A) (A) (A) (A) (A) (A) (A) (A) (A) (A)
                 (A) (A) (A) (A) (A) (A) (A) (A) (A) (A) (A) (A)
                 (A) (A) (A) (A) (A) (A) (A) (A) (A) (A) (A) (A)
                 (A) (A) (A) (A) (A) (A) (A) (A) (A) (A) (A) (A)
                 (A) (A) (A) (A) (A) (A) (A) (A) (A) (A) (A) (A)
                 (A) (A) (A) (A) (A) (A) (A) (A) (A) (A) (A) (A)
                 (A) (A) (A) (A) (A) (A) (A) (A) (A) (A) (A) (A)
                 (A) (A) (A) (A) (A) (A) (A) (A) (A) (A) (A) (A)
                 (A) (A) (A) (A) (A) (A) (A) (A) (A) (A) (A) (A)
                 (A) (A) (A) (A) (A) (A) (A) (A) (A) (A) (A) (A)
                 (A) (A) (A) (A) (A) (A) (A) (A) (A) (A) (A) (A)
                 (A) (A) (A) (A) (A) (A) (A) (A) (A) (A) (A) (A)
                 (A) (A) (A) (A) (A) (A) (A) (A) (A) (A) (A) (A)
                 (A) (A) (A) (A) (A) (A) (A) (A) (A) (A) (A) (A)
                 (A) (A) (A) (A) (A) (A) (A) (A) (A) (A) (A) (A)
                 (A) (A) (A) (A) (A) (A) (A) (A) (A) (A) (A) (A)
                 (A) (A) (A) (A) (A) (A) (A) (A) (A) (A) (A) (A)
                 (A) (A) (A) (A) (A) (A) (A) (A) (A) (A) (A) (A)
                 (A) (A) (A) (A) (A) (A) (A) (A) (A) (A) (A) (A)
                 (A) (A) (A) (A) (A) (A) (A) (A) (A) (A) (A) (A)
                 (A) (A) (A) (A) (A) (A) (A) (A) (A) (A) (A) (A)
                 (A) (A) (A) (A) (A) (A) (A) (A) (A) (A) (A) (A)
                 (A) (A) (A) (A) (A) (A) (A) (A) (A) (A) (A) (A)
                 (A) (A) (A) (A) (A) (A) (A) (A) (A) (A) (A) (A)
                 (A) (A) (A) (A) (A) (A) (A) (A) (A) (A) (A) (A)
                 (A) (A) (A) (A) (A) (A) (A) (A) (A) (A) (A) (A)
                 (A) (A) (A) (A) (A) (A) (A) (A) (A) (A) (A) (A)
                 (A) (A) (A) (A) (A) (A) (A) (A) (A) (A) (A) (A)
                 (A) (A) (A) (A) (A) (A) (A) (A) (A) (A) (A) (A)
                 (A) (A) (A) (A) (A) (A) (A) (A) (A) (A) (A) (A)
                 (A) (A) (A) (A) (A) (A) (A) (A) (A) (A) (A) (A)
                 (A) (A) (A) (A) (A) (A) (A) (A) (A) (A) (A) (A)
                 (A) (A) (A) (A) (A) (A) (A) (A) (A) (A) (A) (A)
                 (A) (A) (A) (A) (A) (A) (A) (A) (A) (A) (A) (A)
                 (A) (A) (A) (A) (A) (A) (A) (A) (A) (A) (A) (A)
                 (A) (A) (A) (A) (A) (A) (A) (A) (A) (A) (A) (A)
                 (A) (A) (A) (A) (A) (A) (A) (A) (A) (A) (A) (A)
                 (A) (A) (A) (A) (A) (A) (A) (A) (A) (A) (A) (A)
                 (A) (A) (A) (A) (A) (A) (A) (A) (A) (A) (A) (A)
                 (A) (A) (A) (A) (A) (A) (A) (A) (A) (A) (A) (A)
                 (A) (A) (A) (A) (A) (A) (A) (A) (A) (A) (A) (A)
                 (A) (A) (A) (A) (A) (A) (A) (A) (A) (A) (A) (A)
                 (A) (A) (A) (A) (A) (A) (A) (A) (A) (A) (A) (A)
                 (A) (A) (A) (A) (A) (A) (A) (A) (A) (A) (A) (A)
                 (A) (A) (A) (A) (A) (A) (A) (A) (A) (A) (A) (A)
                 (A) (A) (A) (A) (A) (A) (A) (A) (A) (A) (A) (A)
                 (A) (A) (A) (A) (A) (A) (A) (A) (A) (A) (A) (A)
                 (A) (A) (A) (A) (A) (A) (A) (A) (A) (A) (A) (A)
                 (A) (A) (A) (A) (A) (A) (A) (A) (A) (A) (A) (A)
                 (A) (A) (A) (A) (A) (A) (A) (A) (A) (A) (A) (A)
                 (A) (A) (A) (A) (A) (A) (A) (A) (A) (A) (A) (A)
                 (A) (A) (A) (A) (A) (A) (A) (A) (A) (A) (A) (A)
                 (A) (A) (A) (A) (A) (A) (A) (A) (A) (A) (A) (A)
                 (A) (A) (A) (A) (A) (A) (A) (A) (A) (A) (A) (A)
                 (A) (A) (A) (A) (A) (A) (A) (A) (A) (A) (A) (A)
                 (A) (A) (A) (A) (A) (A) (A) (A) (A) (A) (A) (A)
                 (A) (A) (A) (A) (A) (A) (A) (A) (A) (A) (A) (A)
                 (A) (A) (A) (A) (A) (A) (A) (A) (A) (A) (A) (A)
                 (A) (A) (A) (A) (A) (A) (A) (A) (A) (A) (A) (A)
                 (A) (A) (A) (A) (A) (A) (A) (A) (A) (A) (A) (A)
                 (A) (A) (A) (A) (A) (A) (A) (A) (A) (A) (A) (A)
                 (A) (A) (A) (A) (A) (A) (A)
 The electronic state is 2-A.
 Alpha  occ. eigenvalues -- -256.42970 -89.11524 -30.20531 -26.03443 -26.03213
 Alpha  occ. eigenvalues --  -26.02365 -19.32714 -19.31907 -19.24911 -19.24014
 Alpha  occ. eigenvalues --  -14.53491 -14.48423 -14.48328 -14.47330 -14.47135
 Alpha  occ. eigenvalues --  -14.46956 -10.42111 -10.41589 -10.39626 -10.36928
 Alpha  occ. eigenvalues --  -10.35757 -10.35103 -10.34876 -10.34655 -10.34507
 Alpha  occ. eigenvalues --  -10.34480 -10.34413 -10.34384 -10.34333 -10.34243
 Alpha  occ. eigenvalues --  -10.33559 -10.32768 -10.32479 -10.32450 -10.32070
 Alpha  occ. eigenvalues --  -10.31685 -10.31586 -10.31491 -10.31484 -10.31311
 Alpha  occ. eigenvalues --  -10.31303 -10.31270 -10.31203 -10.31198 -10.30996
 Alpha  occ. eigenvalues --  -10.30947 -10.30889 -10.30825 -10.30807 -10.30777
 Alpha  occ. eigenvalues --  -10.30478 -10.29866 -10.29839 -10.29821 -10.29782
 Alpha  occ. eigenvalues --  -10.27929 -10.27728  -8.09341  -6.02972  -6.02706
 Alpha  occ. eigenvalues --   -6.02192  -3.55216  -2.31682  -2.31148  -2.29382
 Alpha  occ. eigenvalues --   -1.23207  -1.22505  -1.15372  -1.09788  -1.08183
 Alpha  occ. eigenvalues --   -1.07943  -1.06861  -1.06570  -1.05590  -0.99892
 Alpha  occ. eigenvalues --   -0.95273  -0.93503  -0.92634  -0.92453  -0.91508
 Alpha  occ. eigenvalues --   -0.91474  -0.91110  -0.90384  -0.89830  -0.89730
 Alpha  occ. eigenvalues --   -0.87881  -0.87203  -0.86833  -0.85662  -0.85054
 Alpha  occ. eigenvalues --   -0.83708  -0.81684  -0.81131  -0.80892  -0.80545
 Alpha  occ. eigenvalues --   -0.78730  -0.77232  -0.77013  -0.75812  -0.75462
 Alpha  occ. eigenvalues --   -0.75315  -0.74314  -0.73584  -0.73218  -0.72946
 Alpha  occ. eigenvalues --   -0.71283  -0.70979  -0.69283  -0.69123  -0.67668
 Alpha  occ. eigenvalues --   -0.66113  -0.65463  -0.64727  -0.64446  -0.63502
 Alpha  occ. eigenvalues --   -0.62163  -0.61549  -0.61349  -0.60517  -0.60045
 Alpha  occ. eigenvalues --   -0.59276  -0.58616  -0.58199  -0.57994  -0.57329
 Alpha  occ. eigenvalues --   -0.57094  -0.56879  -0.56731  -0.56592  -0.56388
 Alpha  occ. eigenvalues --   -0.55956  -0.55327  -0.55225  -0.54972  -0.54374
 Alpha  occ. eigenvalues --   -0.54213  -0.53858  -0.53751  -0.53661  -0.53427
 Alpha  occ. eigenvalues --   -0.53261  -0.53081  -0.52842  -0.52612  -0.52437
 Alpha  occ. eigenvalues --   -0.52424  -0.52080  -0.51778  -0.51664  -0.51521
 Alpha  occ. eigenvalues --   -0.51345  -0.51196  -0.50743  -0.50581  -0.50341
 Alpha  occ. eigenvalues --   -0.49937  -0.49665  -0.49457  -0.49159  -0.49112
 Alpha  occ. eigenvalues --   -0.48903  -0.48214  -0.48034  -0.47833  -0.47447
 Alpha  occ. eigenvalues --   -0.47304  -0.46803  -0.46616  -0.46226  -0.46162
 Alpha  occ. eigenvalues --   -0.46000  -0.45702  -0.45199  -0.45026  -0.44572
 Alpha  occ. eigenvalues --   -0.44261  -0.43796  -0.43560  -0.42944  -0.42624
 Alpha  occ. eigenvalues --   -0.42227  -0.42121  -0.41980  -0.41554  -0.41288
 Alpha  occ. eigenvalues --   -0.40617  -0.39993  -0.39226  -0.38866  -0.38209
 Alpha  occ. eigenvalues --   -0.37918  -0.37310  -0.36207  -0.35063  -0.34774
 Alpha  occ. eigenvalues --   -0.34190  -0.33709  -0.33099  -0.32684  -0.32089
 Alpha  occ. eigenvalues --   -0.31155  -0.30313  -0.29055  -0.28785  -0.27381
 Alpha virt. eigenvalues --   -0.24413  -0.16846  -0.16210  -0.10098  -0.08326
 Alpha virt. eigenvalues --   -0.07800  -0.07401  -0.06699  -0.06132  -0.05971
 Alpha virt. eigenvalues --   -0.05605  -0.04976  -0.04934  -0.04629  -0.03963
 Alpha virt. eigenvalues --   -0.03851  -0.03543  -0.03152  -0.02456  -0.02371
 Alpha virt. eigenvalues --   -0.02110  -0.01825  -0.01702  -0.01447  -0.01171
 Alpha virt. eigenvalues --   -0.00957  -0.00540  -0.00450  -0.00350   0.00019
 Alpha virt. eigenvalues --    0.00306   0.00533   0.00831   0.01305   0.01455
 Alpha virt. eigenvalues --    0.01661   0.02063   0.02193   0.02577   0.02775
 Alpha virt. eigenvalues --    0.03169   0.03230   0.03465   0.03646   0.04112
 Alpha virt. eigenvalues --    0.04175   0.04412   0.04603   0.04807   0.04887
 Alpha virt. eigenvalues --    0.04987   0.05050   0.05409   0.05522   0.05577
 Alpha virt. eigenvalues --    0.05902   0.05989   0.06182   0.06346   0.06436
 Alpha virt. eigenvalues --    0.06698   0.06903   0.07010   0.07344   0.07677
 Alpha virt. eigenvalues --    0.07982   0.08362   0.08452   0.08666   0.08869
 Alpha virt. eigenvalues --    0.09005   0.09156   0.09392   0.09681   0.09850
 Alpha virt. eigenvalues --    0.09898   0.10304   0.10469   0.10522   0.10745
 Alpha virt. eigenvalues --    0.10992   0.11234   0.11458   0.11632   0.11746
 Alpha virt. eigenvalues --    0.11922   0.12255   0.12466   0.12682   0.12752
 Alpha virt. eigenvalues --    0.12901   0.13222   0.13258   0.13458   0.13789
 Alpha virt. eigenvalues --    0.13993   0.14060   0.14380   0.14494   0.14879
 Alpha virt. eigenvalues --    0.15055   0.15241   0.15383   0.15453   0.15754
 Alpha virt. eigenvalues --    0.15981   0.16190   0.16369   0.16740   0.16905
 Alpha virt. eigenvalues --    0.16969   0.17106   0.17447   0.17615   0.17809
 Alpha virt. eigenvalues --    0.17819   0.18011   0.18363   0.18520   0.18836
 Alpha virt. eigenvalues --    0.19026   0.19241   0.19349   0.19730   0.19922
 Alpha virt. eigenvalues --    0.19990   0.20185   0.20356   0.20835   0.21305
 Alpha virt. eigenvalues --    0.21461   0.21662   0.21854   0.21896   0.22171
 Alpha virt. eigenvalues --    0.22374   0.22571   0.22839   0.23137   0.23673
 Alpha virt. eigenvalues --    0.23711   0.23936   0.24197   0.24314   0.24503
 Alpha virt. eigenvalues --    0.24820   0.24878   0.25179   0.25541   0.25853
 Alpha virt. eigenvalues --    0.26049   0.26330   0.26387   0.26653   0.26752
 Alpha virt. eigenvalues --    0.27064   0.27099   0.27503   0.27668   0.28007
 Alpha virt. eigenvalues --    0.28297   0.28475   0.28515   0.28890   0.29224
 Alpha virt. eigenvalues --    0.29284   0.29364   0.29576   0.29841   0.30331
 Alpha virt. eigenvalues --    0.30472   0.30638   0.30756   0.30817   0.31073
 Alpha virt. eigenvalues --    0.31373   0.31503   0.31851   0.31945   0.32166
 Alpha virt. eigenvalues --    0.32255   0.32424   0.32660   0.32749   0.32908
 Alpha virt. eigenvalues --    0.33212   0.33396   0.33547   0.33641   0.33884
 Alpha virt. eigenvalues --    0.34079   0.34155   0.34386   0.34521   0.34711
 Alpha virt. eigenvalues --    0.34792   0.34905   0.35215   0.35374   0.35686
 Alpha virt. eigenvalues --    0.35744   0.35943   0.36162   0.36383   0.36512
 Alpha virt. eigenvalues --    0.36716   0.36867   0.37052   0.37269   0.37418
 Alpha virt. eigenvalues --    0.37467   0.37737   0.37808   0.38080   0.38133
 Alpha virt. eigenvalues --    0.38233   0.38312   0.38693   0.38894   0.38994
 Alpha virt. eigenvalues --    0.39041   0.39291   0.39426   0.39603   0.39961
 Alpha virt. eigenvalues --    0.40120   0.40236   0.40553   0.40588   0.40812
 Alpha virt. eigenvalues --    0.40849   0.41114   0.41321   0.41354   0.41463
 Alpha virt. eigenvalues --    0.41671   0.41775   0.42110   0.42172   0.42402
 Alpha virt. eigenvalues --    0.42631   0.42916   0.43117   0.43269   0.43403
 Alpha virt. eigenvalues --    0.43621   0.43751   0.44049   0.44138   0.44341
 Alpha virt. eigenvalues --    0.44404   0.44558   0.44810   0.44971   0.45116
 Alpha virt. eigenvalues --    0.45536   0.45613   0.45795   0.45941   0.46161
 Alpha virt. eigenvalues --    0.46460   0.46530   0.46952   0.47051   0.47146
 Alpha virt. eigenvalues --    0.47349   0.47546   0.47778   0.48005   0.48188
 Alpha virt. eigenvalues --    0.48475   0.48630   0.48930   0.49048   0.49304
 Alpha virt. eigenvalues --    0.49413   0.49675   0.50022   0.50313   0.50406
 Alpha virt. eigenvalues --    0.50687   0.50808   0.51153   0.51446   0.51559
 Alpha virt. eigenvalues --    0.51753   0.52040   0.52281   0.52551   0.52770
 Alpha virt. eigenvalues --    0.52955   0.53000   0.53198   0.53567   0.53841
 Alpha virt. eigenvalues --    0.54042   0.54140   0.54464   0.54536   0.54760
 Alpha virt. eigenvalues --    0.54942   0.55250   0.55419   0.55712   0.55870
 Alpha virt. eigenvalues --    0.56030   0.56260   0.56440   0.56857   0.57259
 Alpha virt. eigenvalues --    0.57333   0.57716   0.58005   0.58042   0.58317
 Alpha virt. eigenvalues --    0.58550   0.58723   0.59020   0.59125   0.59508
 Alpha virt. eigenvalues --    0.59779   0.60110   0.60561   0.60834   0.61085
 Alpha virt. eigenvalues --    0.61360   0.61793   0.61980   0.62131   0.62586
 Alpha virt. eigenvalues --    0.62872   0.63295   0.63397   0.63531   0.63929
 Alpha virt. eigenvalues --    0.64226   0.64573   0.64775   0.65462   0.65864
 Alpha virt. eigenvalues --    0.66119   0.66444   0.66522   0.66701   0.66947
 Alpha virt. eigenvalues --    0.67536   0.67656   0.67734   0.68232   0.68395
 Alpha virt. eigenvalues --    0.68804   0.69039   0.69330   0.69599   0.69913
 Alpha virt. eigenvalues --    0.70112   0.70509   0.70610   0.70956   0.71231
 Alpha virt. eigenvalues --    0.71498   0.71577   0.71739   0.72179   0.72632
 Alpha virt. eigenvalues --    0.72967   0.73017   0.73121   0.73360   0.73724
 Alpha virt. eigenvalues --    0.73975   0.74138   0.74671   0.75028   0.75291
 Alpha virt. eigenvalues --    0.75607   0.75801   0.75964   0.76239   0.76608
 Alpha virt. eigenvalues --    0.76750   0.77309   0.77651   0.77860   0.78257
 Alpha virt. eigenvalues --    0.78644   0.79069   0.79324   0.79534   0.79669
 Alpha virt. eigenvalues --    0.79870   0.80049   0.80275   0.80725   0.80825
 Alpha virt. eigenvalues --    0.81099   0.81571   0.81698   0.81957   0.82344
 Alpha virt. eigenvalues --    0.82530   0.82574   0.82818   0.83151   0.83385
 Alpha virt. eigenvalues --    0.83791   0.84074   0.84350   0.84625   0.84724
 Alpha virt. eigenvalues --    0.85031   0.85220   0.85674   0.85816   0.86069
 Alpha virt. eigenvalues --    0.86382   0.86764   0.86960   0.87230   0.87565
 Alpha virt. eigenvalues --    0.87980   0.88087   0.88491   0.88996   0.89045
 Alpha virt. eigenvalues --    0.89216   0.89485   0.89935   0.89956   0.90432
 Alpha virt. eigenvalues --    0.90629   0.91054   0.91229   0.91364   0.91992
 Alpha virt. eigenvalues --    0.92273   0.92348   0.92734   0.92885   0.93411
 Alpha virt. eigenvalues --    0.93560   0.93976   0.94198   0.94443   0.94639
 Alpha virt. eigenvalues --    0.94808   0.95104   0.95442   0.95695   0.96065
 Alpha virt. eigenvalues --    0.96329   0.96564   0.96830   0.97075   0.97377
 Alpha virt. eigenvalues --    0.97548   0.97893   0.98071   0.98232   0.98367
 Alpha virt. eigenvalues --    0.98825   0.98949   0.99319   0.99563   0.99834
 Alpha virt. eigenvalues --    1.00237   1.00394   1.00619   1.01128   1.01639
 Alpha virt. eigenvalues --    1.01704   1.02104   1.02340   1.02718   1.03002
 Alpha virt. eigenvalues --    1.03449   1.03587   1.03844   1.04033   1.04807
 Alpha virt. eigenvalues --    1.05143   1.05405   1.05808   1.05983   1.06366
 Alpha virt. eigenvalues --    1.06688   1.06871   1.07177   1.07546   1.08033
 Alpha virt. eigenvalues --    1.08154   1.08655   1.08741   1.09175   1.09511
 Alpha virt. eigenvalues --    1.09708   1.09925   1.10487   1.10890   1.10941
 Alpha virt. eigenvalues --    1.11379   1.11427   1.11876   1.12086   1.12690
 Alpha virt. eigenvalues --    1.12953   1.13423   1.13617   1.14344   1.14662
 Alpha virt. eigenvalues --    1.14804   1.15375   1.15786   1.15989   1.16443
 Alpha virt. eigenvalues --    1.16541   1.16691   1.17070   1.17899   1.18044
 Alpha virt. eigenvalues --    1.18208   1.18720   1.19035   1.19308   1.19772
 Alpha virt. eigenvalues --    1.20233   1.20329   1.20761   1.21126   1.21463
 Alpha virt. eigenvalues --    1.21536   1.21864   1.22680   1.23111   1.23206
 Alpha virt. eigenvalues --    1.23544   1.24077   1.24443   1.24702   1.25061
 Alpha virt. eigenvalues --    1.25294   1.25631   1.25858   1.26319   1.26424
 Alpha virt. eigenvalues --    1.27108   1.27558   1.27833   1.28147   1.28818
 Alpha virt. eigenvalues --    1.29209   1.29407   1.29945   1.30587   1.30740
 Alpha virt. eigenvalues --    1.31331   1.31683   1.31895   1.32269   1.32797
 Alpha virt. eigenvalues --    1.33689   1.34156   1.34642   1.34695   1.34773
 Alpha virt. eigenvalues --    1.35299   1.35731   1.36133   1.36955   1.37192
 Alpha virt. eigenvalues --    1.37479   1.37785   1.38095   1.38425   1.38659
 Alpha virt. eigenvalues --    1.39237   1.39692   1.39873   1.40055   1.40305
 Alpha virt. eigenvalues --    1.40639   1.41207   1.41338   1.41602   1.41679
 Alpha virt. eigenvalues --    1.41958   1.42703   1.42938   1.43201   1.43552
 Alpha virt. eigenvalues --    1.43613   1.43862   1.44423   1.44613   1.44872
 Alpha virt. eigenvalues --    1.45142   1.45251   1.45427   1.45475   1.45617
 Alpha virt. eigenvalues --    1.45993   1.46211   1.46478   1.46790   1.47062
 Alpha virt. eigenvalues --    1.47321   1.47555   1.47735   1.47982   1.48090
 Alpha virt. eigenvalues --    1.48408   1.48604   1.49029   1.49337   1.49563
 Alpha virt. eigenvalues --    1.49785   1.50034   1.50449   1.50471   1.50673
 Alpha virt. eigenvalues --    1.50944   1.51183   1.51523   1.51807   1.52155
 Alpha virt. eigenvalues --    1.52338   1.52710   1.52954   1.53089   1.53174
 Alpha virt. eigenvalues --    1.53497   1.53856   1.54048   1.54114   1.54289
 Alpha virt. eigenvalues --    1.54893   1.55254   1.55581   1.55709   1.56047
 Alpha virt. eigenvalues --    1.56234   1.56637   1.56924   1.57106   1.57155
 Alpha virt. eigenvalues --    1.57612   1.57623   1.57967   1.58259   1.58326
 Alpha virt. eigenvalues --    1.58657   1.59002   1.59323   1.59540   1.59694
 Alpha virt. eigenvalues --    1.60012   1.60297   1.60615   1.60871   1.61087
 Alpha virt. eigenvalues --    1.61681   1.61777   1.61923   1.62105   1.62353
 Alpha virt. eigenvalues --    1.62746   1.63176   1.63195   1.63908   1.64018
 Alpha virt. eigenvalues --    1.64232   1.64310   1.64995   1.65055   1.65368
 Alpha virt. eigenvalues --    1.65696   1.65999   1.66152   1.66167   1.66610
 Alpha virt. eigenvalues --    1.67110   1.67335   1.67913   1.68339   1.68446
 Alpha virt. eigenvalues --    1.68963   1.69128   1.69225   1.69834   1.70207
 Alpha virt. eigenvalues --    1.70282   1.70551   1.71099   1.71363   1.71518
 Alpha virt. eigenvalues --    1.72311   1.72785   1.73078   1.73544   1.74116
 Alpha virt. eigenvalues --    1.74303   1.74791   1.74944   1.75431   1.75569
 Alpha virt. eigenvalues --    1.75995   1.76714   1.77254   1.77387   1.77743
 Alpha virt. eigenvalues --    1.77849   1.78088   1.78225   1.78705   1.78934
 Alpha virt. eigenvalues --    1.79444   1.79451   1.79713   1.80177   1.80283
 Alpha virt. eigenvalues --    1.80553   1.81339   1.81488   1.81878   1.81913
 Alpha virt. eigenvalues --    1.82500   1.82701   1.82886   1.83260   1.83571
 Alpha virt. eigenvalues --    1.83989   1.84329   1.84568   1.84777   1.85079
 Alpha virt. eigenvalues --    1.85361   1.86429   1.86498   1.86996   1.87137
 Alpha virt. eigenvalues --    1.87618   1.87777   1.88296   1.88581   1.88759
 Alpha virt. eigenvalues --    1.88810   1.89081   1.89414   1.90039   1.90444
 Alpha virt. eigenvalues --    1.90801   1.90997   1.91237   1.91503   1.91840
 Alpha virt. eigenvalues --    1.92240   1.92497   1.92889   1.93024   1.93387
 Alpha virt. eigenvalues --    1.93912   1.94399   1.94660   1.94844   1.95123
 Alpha virt. eigenvalues --    1.95749   1.96534   1.96621   1.97011   1.97219
 Alpha virt. eigenvalues --    1.97365   1.97632   1.97997   1.98426   1.98915
 Alpha virt. eigenvalues --    1.99036   1.99531   1.99735   2.00728   2.01143
 Alpha virt. eigenvalues --    2.01265   2.01619   2.02097   2.02350   2.02856
 Alpha virt. eigenvalues --    2.03033   2.03374   2.03754   2.04033   2.04490
 Alpha virt. eigenvalues --    2.04675   2.05233   2.05425   2.05562   2.06380
 Alpha virt. eigenvalues --    2.06529   2.06990   2.07282   2.07407   2.08057
 Alpha virt. eigenvalues --    2.08225   2.08668   2.08971   2.09136   2.09475
 Alpha virt. eigenvalues --    2.09717   2.10094   2.10278   2.10452   2.10715
 Alpha virt. eigenvalues --    2.10910   2.11199   2.11546   2.11784   2.12121
 Alpha virt. eigenvalues --    2.12473   2.13023   2.13347   2.13528   2.13819
 Alpha virt. eigenvalues --    2.14171   2.14385   2.14663   2.15121   2.15477
 Alpha virt. eigenvalues --    2.15704   2.16065   2.16644   2.16954   2.16997
 Alpha virt. eigenvalues --    2.17293   2.17642   2.17818   2.18221   2.18416
 Alpha virt. eigenvalues --    2.19195   2.19342   2.19658   2.20214   2.20561
 Alpha virt. eigenvalues --    2.20908   2.21035   2.21538   2.21559   2.22141
 Alpha virt. eigenvalues --    2.22386   2.22774   2.22989   2.23168   2.23319
 Alpha virt. eigenvalues --    2.24080   2.24793   2.24998   2.25468   2.25825
 Alpha virt. eigenvalues --    2.26333   2.26457   2.26935   2.27079   2.27660
 Alpha virt. eigenvalues --    2.28184   2.28294   2.28624   2.28935   2.29462
 Alpha virt. eigenvalues --    2.29727   2.30100   2.30353   2.30579   2.30913
 Alpha virt. eigenvalues --    2.30989   2.31768   2.31868   2.32272   2.32416
 Alpha virt. eigenvalues --    2.33063   2.33412   2.33854   2.33997   2.34433
 Alpha virt. eigenvalues --    2.34619   2.34751   2.35017   2.35530   2.35760
 Alpha virt. eigenvalues --    2.36147   2.36698   2.36982   2.37123   2.37954
 Alpha virt. eigenvalues --    2.38242   2.38606   2.39058   2.39270   2.39547
 Alpha virt. eigenvalues --    2.39936   2.40744   2.40788   2.41006   2.41739
 Alpha virt. eigenvalues --    2.42110   2.42296   2.42806   2.42898   2.43434
 Alpha virt. eigenvalues --    2.43775   2.43893   2.44206   2.44954   2.45093
 Alpha virt. eigenvalues --    2.45356   2.46104   2.46222   2.46718   2.46976
 Alpha virt. eigenvalues --    2.47056   2.47670   2.47824   2.48452   2.48536
 Alpha virt. eigenvalues --    2.48692   2.49503   2.49803   2.49975   2.50164
 Alpha virt. eigenvalues --    2.50752   2.50895   2.51077   2.51286   2.51633
 Alpha virt. eigenvalues --    2.51683   2.52057   2.52369   2.52649   2.53019
 Alpha virt. eigenvalues --    2.53364   2.53515   2.53846   2.54050   2.54190
 Alpha virt. eigenvalues --    2.54394   2.54918   2.55208   2.55603   2.55986
 Alpha virt. eigenvalues --    2.56113   2.56488   2.56851   2.57234   2.57414
 Alpha virt. eigenvalues --    2.57898   2.58168   2.58337   2.58605   2.58882
 Alpha virt. eigenvalues --    2.59215   2.59679   2.60037   2.60257   2.60651
 Alpha virt. eigenvalues --    2.60768   2.61147   2.61620   2.61878   2.61960
 Alpha virt. eigenvalues --    2.62377   2.62640   2.62913   2.63410   2.63542
 Alpha virt. eigenvalues --    2.64063   2.64231   2.64468   2.64811   2.64949
 Alpha virt. eigenvalues --    2.65372   2.65579   2.65664   2.66118   2.66434
 Alpha virt. eigenvalues --    2.66675   2.67018   2.67466   2.67703   2.67841
 Alpha virt. eigenvalues --    2.68332   2.68463   2.68903   2.69301   2.69413
 Alpha virt. eigenvalues --    2.69525   2.69891   2.70486   2.70861   2.70904
 Alpha virt. eigenvalues --    2.71543   2.71582   2.71645   2.72343   2.72532
 Alpha virt. eigenvalues --    2.73026   2.73263   2.73501   2.73994   2.74152
 Alpha virt. eigenvalues --    2.74302   2.74427   2.74979   2.75464   2.75605
 Alpha virt. eigenvalues --    2.76004   2.76226   2.76735   2.77177   2.77413
 Alpha virt. eigenvalues --    2.77712   2.78221   2.78414   2.78857   2.79086
 Alpha virt. eigenvalues --    2.79436   2.79862   2.80080   2.80629   2.81129
 Alpha virt. eigenvalues --    2.81332   2.81711   2.82152   2.82686   2.82918
 Alpha virt. eigenvalues --    2.83311   2.83742   2.84034   2.84367   2.84608
 Alpha virt. eigenvalues --    2.85262   2.85507   2.85789   2.86156   2.86506
 Alpha virt. eigenvalues --    2.86545   2.86821   2.87261   2.87407   2.87487
 Alpha virt. eigenvalues --    2.88280   2.88499   2.88711   2.89293   2.89519
 Alpha virt. eigenvalues --    2.89605   2.89830   2.90142   2.90514   2.90751
 Alpha virt. eigenvalues --    2.90901   2.91320   2.92060   2.92150   2.92434
 Alpha virt. eigenvalues --    2.92846   2.93265   2.93484   2.93751   2.93935
 Alpha virt. eigenvalues --    2.94066   2.94335   2.94661   2.95100   2.95198
 Alpha virt. eigenvalues --    2.95861   2.96074   2.96625   2.96975   2.97309
 Alpha virt. eigenvalues --    2.97688   2.97903   2.97994   2.98215   2.98350
 Alpha virt. eigenvalues --    2.98687   2.98919   2.99183   2.99737   2.99789
 Alpha virt. eigenvalues --    2.99848   3.00592   3.00998   3.01026   3.01470
 Alpha virt. eigenvalues --    3.01784   3.02071   3.02483   3.02654   3.03015
 Alpha virt. eigenvalues --    3.03216   3.03451   3.03635   3.03940   3.04022
 Alpha virt. eigenvalues --    3.04367   3.04482   3.04729   3.05034   3.05213
 Alpha virt. eigenvalues --    3.05887   3.05971   3.06313   3.06400   3.06585
 Alpha virt. eigenvalues --    3.06937   3.07080   3.07331   3.07502   3.07834
 Alpha virt. eigenvalues --    3.08116   3.08524   3.08768   3.08874   3.09218
 Alpha virt. eigenvalues --    3.09582   3.09906   3.10079   3.10570   3.10668
 Alpha virt. eigenvalues --    3.11227   3.11336   3.11773   3.11918   3.12313
 Alpha virt. eigenvalues --    3.12362   3.12973   3.13087   3.13296   3.13514
 Alpha virt. eigenvalues --    3.13873   3.14182   3.14574   3.14735   3.14851
 Alpha virt. eigenvalues --    3.15104   3.15158   3.15738   3.15836   3.16047
 Alpha virt. eigenvalues --    3.16369   3.16614   3.16886   3.17087   3.17211
 Alpha virt. eigenvalues --    3.17558   3.17805   3.17973   3.18348   3.18467
 Alpha virt. eigenvalues --    3.18940   3.19092   3.19233   3.19340   3.19598
 Alpha virt. eigenvalues --    3.19969   3.20335   3.20430   3.20759   3.21039
 Alpha virt. eigenvalues --    3.21219   3.21309   3.21576   3.21774   3.22027
 Alpha virt. eigenvalues --    3.22232   3.22490   3.22780   3.22831   3.23028
 Alpha virt. eigenvalues --    3.23377   3.23830   3.24361   3.24426   3.24448
 Alpha virt. eigenvalues --    3.24541   3.24857   3.25045   3.25345   3.25636
 Alpha virt. eigenvalues --    3.25995   3.26053   3.26324   3.26486   3.26824
 Alpha virt. eigenvalues --    3.27017   3.27693   3.27811   3.28248   3.28381
 Alpha virt. eigenvalues --    3.28796   3.29058   3.29475   3.29644   3.29908
 Alpha virt. eigenvalues --    3.30034   3.30455   3.30593   3.30678   3.30965
 Alpha virt. eigenvalues --    3.31338   3.31593   3.31871   3.32104   3.32240
 Alpha virt. eigenvalues --    3.32518   3.32671   3.32883   3.33033   3.33526
 Alpha virt. eigenvalues --    3.33587   3.34070   3.34362   3.34580   3.34724
 Alpha virt. eigenvalues --    3.35069   3.35507   3.35562   3.36331   3.36418
 Alpha virt. eigenvalues --    3.36512   3.36709   3.36946   3.37664   3.37947
 Alpha virt. eigenvalues --    3.38215   3.38456   3.38750   3.39213   3.39325
 Alpha virt. eigenvalues --    3.39566   3.40094   3.40466   3.40780   3.41055
 Alpha virt. eigenvalues --    3.41342   3.41497   3.41825   3.42232   3.42456
 Alpha virt. eigenvalues --    3.42867   3.42955   3.43338   3.43724   3.44040
 Alpha virt. eigenvalues --    3.44215   3.44369   3.44894   3.45195   3.45429
 Alpha virt. eigenvalues --    3.45514   3.45851   3.46542   3.46649   3.46856
 Alpha virt. eigenvalues --    3.47007   3.47290   3.48341   3.48667   3.49170
 Alpha virt. eigenvalues --    3.49393   3.49623   3.49938   3.50345   3.50637
 Alpha virt. eigenvalues --    3.50905   3.51635   3.51880   3.52120   3.52557
 Alpha virt. eigenvalues --    3.52583   3.53143   3.53380   3.53762   3.53999
 Alpha virt. eigenvalues --    3.54239   3.54498   3.54733   3.55011   3.55685
 Alpha virt. eigenvalues --    3.56082   3.56369   3.56518   3.56728   3.56956
 Alpha virt. eigenvalues --    3.57402   3.57787   3.58348   3.58436   3.58976
 Alpha virt. eigenvalues --    3.59256   3.59629   3.60040   3.60391   3.60759
 Alpha virt. eigenvalues --    3.61043   3.61248   3.61515   3.62179   3.62313
 Alpha virt. eigenvalues --    3.62848   3.62945   3.63559   3.63712   3.64255
 Alpha virt. eigenvalues --    3.64431   3.64808   3.65212   3.65666   3.65816
 Alpha virt. eigenvalues --    3.65946   3.66273   3.66556   3.66654   3.67042
 Alpha virt. eigenvalues --    3.67381   3.67856   3.68080   3.68453   3.69284
 Alpha virt. eigenvalues --    3.69582   3.69878   3.70324   3.70631   3.70929
 Alpha virt. eigenvalues --    3.71732   3.71956   3.72129   3.72848   3.73674
 Alpha virt. eigenvalues --    3.73818   3.74854   3.75044   3.75545   3.75915
 Alpha virt. eigenvalues --    3.76601   3.76747   3.77256   3.77513   3.78025
 Alpha virt. eigenvalues --    3.79062   3.79405   3.79983   3.80608   3.81000
 Alpha virt. eigenvalues --    3.81430   3.81885   3.82721   3.82877   3.83532
 Alpha virt. eigenvalues --    3.83796   3.84173   3.84551   3.84987   3.85628
 Alpha virt. eigenvalues --    3.86071   3.86279   3.86658   3.86953   3.87648
 Alpha virt. eigenvalues --    3.87880   3.88382   3.88704   3.89256   3.89660
 Alpha virt. eigenvalues --    3.90720   3.90868   3.91233   3.91590   3.92501
 Alpha virt. eigenvalues --    3.92671   3.93116   3.93655   3.93971   3.94432
 Alpha virt. eigenvalues --    3.94712   3.95274   3.95858   3.96037   3.96521
 Alpha virt. eigenvalues --    3.97190   3.97609   3.98077   3.99294   3.99548
 Alpha virt. eigenvalues --    3.99674   4.00085   4.00565   4.00792   4.01815
 Alpha virt. eigenvalues --    4.02711   4.03348   4.04172   4.04480   4.05392
 Alpha virt. eigenvalues --    4.06107   4.06790   4.06912   4.07217   4.07993
 Alpha virt. eigenvalues --    4.08592   4.09253   4.09356   4.09600   4.09927
 Alpha virt. eigenvalues --    4.10622   4.10971   4.11910   4.12140   4.12321
 Alpha virt. eigenvalues --    4.12551   4.13071   4.13913   4.14231   4.14307
 Alpha virt. eigenvalues --    4.14480   4.15243   4.15973   4.16388   4.16690
 Alpha virt. eigenvalues --    4.17195   4.18029   4.19092   4.19475   4.19902
 Alpha virt. eigenvalues --    4.20677   4.20859   4.21118   4.21334   4.22106
 Alpha virt. eigenvalues --    4.22912   4.23537   4.23777   4.24216   4.25074
 Alpha virt. eigenvalues --    4.25318   4.26029   4.26374   4.26512   4.27127
 Alpha virt. eigenvalues --    4.27329   4.28280   4.28645   4.28967   4.29102
 Alpha virt. eigenvalues --    4.29764   4.30023   4.30638   4.31387   4.31824
 Alpha virt. eigenvalues --    4.31927   4.32563   4.32987   4.33317   4.33791
 Alpha virt. eigenvalues --    4.34632   4.34824   4.35588   4.35854   4.36217
 Alpha virt. eigenvalues --    4.36819   4.37415   4.37745   4.38957   4.39560
 Alpha virt. eigenvalues --    4.39741   4.40788   4.41220   4.41488   4.41676
 Alpha virt. eigenvalues --    4.42430   4.42567   4.43292   4.44559   4.45184
 Alpha virt. eigenvalues --    4.45796   4.46410   4.47123   4.47845   4.47937
 Alpha virt. eigenvalues --    4.48660   4.49401   4.49570   4.50164   4.50552
 Alpha virt. eigenvalues --    4.50882   4.52136   4.52902   4.53488   4.53681
 Alpha virt. eigenvalues --    4.53948   4.54847   4.55076   4.55586   4.55918
 Alpha virt. eigenvalues --    4.56460   4.57142   4.57647   4.58158   4.59055
 Alpha virt. eigenvalues --    4.59631   4.60224   4.60663   4.61158   4.61349
 Alpha virt. eigenvalues --    4.61636   4.62620   4.62812   4.63783   4.64040
 Alpha virt. eigenvalues --    4.64811   4.65613   4.66192   4.66696   4.67710
 Alpha virt. eigenvalues --    4.68187   4.68591   4.69950   4.70244   4.70694
 Alpha virt. eigenvalues --    4.71204   4.71933   4.72530   4.72902   4.73325
 Alpha virt. eigenvalues --    4.74751   4.75136   4.75680   4.76044   4.76797
 Alpha virt. eigenvalues --    4.77953   4.78344   4.78678   4.79316   4.80748
 Alpha virt. eigenvalues --    4.81444   4.81786   4.82686   4.82881   4.83503
 Alpha virt. eigenvalues --    4.84526   4.85041   4.85130   4.87317   4.88141
 Alpha virt. eigenvalues --    4.88356   4.89074   4.89515   4.91117   4.91651
 Alpha virt. eigenvalues --    4.92553   4.92961   4.93553   4.93847   4.94039
 Alpha virt. eigenvalues --    4.95707   4.96251   4.96569   4.96904   4.97262
 Alpha virt. eigenvalues --    4.98360   5.00098   5.01220   5.02015   5.03350
 Alpha virt. eigenvalues --    5.04243   5.06640   5.07733   5.09458   5.09832
 Alpha virt. eigenvalues --    5.11270   5.11464   5.11956   5.13347   5.13516
 Alpha virt. eigenvalues --    5.14049   5.14290   5.15152   5.15907   5.16973
 Alpha virt. eigenvalues --    5.17557   5.18027   5.18451   5.18684   5.19582
 Alpha virt. eigenvalues --    5.19844   5.21257   5.23269   5.25026   5.25168
 Alpha virt. eigenvalues --    5.25753   5.27426   5.28080   5.28932   5.29619
 Alpha virt. eigenvalues --    5.30220   5.30736   5.31161   5.34912   5.36495
 Alpha virt. eigenvalues --    5.36587   5.37222   5.37481   5.38945   5.40029
 Alpha virt. eigenvalues --    5.40640   5.41031   5.42261   5.42555   5.43523
 Alpha virt. eigenvalues --    5.48026   5.49296   5.49539   5.51043   5.51410
 Alpha virt. eigenvalues --    5.51791   5.52074   5.52417   5.54073   5.54689
 Alpha virt. eigenvalues --    5.55434   5.56826   5.57439   5.60017   5.60579
 Alpha virt. eigenvalues --    5.61210   5.63693   5.65063   5.67006   5.68387
 Alpha virt. eigenvalues --    5.72963   5.73477   5.75121   5.75413   5.81201
 Alpha virt. eigenvalues --    5.84728   5.85318   5.85516   5.88022   5.89999
 Alpha virt. eigenvalues --    5.91039   5.93290   5.93994   5.95064   5.97555
 Alpha virt. eigenvalues --    5.98272   5.99362   6.00816   6.01451   6.04455
 Alpha virt. eigenvalues --    6.06356   6.08339   6.09670   6.10129   6.12299
 Alpha virt. eigenvalues --    6.14314   6.18567   6.20694   6.22490   6.23291
 Alpha virt. eigenvalues --    6.25227   6.26618   6.27729   6.32177   6.34552
 Alpha virt. eigenvalues --    6.39660   6.40344   6.41584   6.44896   6.45495
 Alpha virt. eigenvalues --    6.59622   6.59903   6.69869   6.70340   6.77920
 Alpha virt. eigenvalues --    6.78898   6.87797   6.88154   6.93868   6.98993
 Alpha virt. eigenvalues --    7.06246   7.06984   7.11666   7.13379   7.19307
 Alpha virt. eigenvalues --    7.20084   9.26191   9.48260   9.55479  20.11836
 Alpha virt. eigenvalues --   22.28213  22.29049  22.40149  22.42925  22.43875
 Alpha virt. eigenvalues --   22.44155  22.46841  22.49000  22.56355  22.57143
 Alpha virt. eigenvalues --   22.59228  22.62067  22.64413  22.65358  22.66431
 Alpha virt. eigenvalues --   22.71928  22.78570  22.80728  22.82152  22.86118
 Alpha virt. eigenvalues --   22.88297  22.91744  22.97448  23.00565  23.05383
 Alpha virt. eigenvalues --   23.08944  23.14177  23.19806  23.20496  23.22891
 Alpha virt. eigenvalues --   23.32705  23.34677  23.44409  23.46505  23.48048
 Alpha virt. eigenvalues --   23.50364  23.53052  23.61822  23.65495  23.68056
 Alpha virt. eigenvalues --   23.77103  32.39406  32.77946  32.88630  32.96082
 Alpha virt. eigenvalues --   33.00994  33.13866  43.87143  43.89236  43.90413
 Alpha virt. eigenvalues --   43.91507
  Beta  occ. eigenvalues -- -256.42958 -89.11528 -30.19816 -26.02629 -26.02470
  Beta  occ. eigenvalues --  -26.02116 -19.32715 -19.31907 -19.24912 -19.24015
  Beta  occ. eigenvalues --  -14.53492 -14.48335 -14.48301 -14.47264 -14.47066
  Beta  occ. eigenvalues --  -14.46932 -10.42111 -10.41590 -10.39430 -10.36931
  Beta  occ. eigenvalues --  -10.35875 -10.35222 -10.34876 -10.34733 -10.34655
  Beta  occ. eigenvalues --  -10.34558 -10.34504 -10.34448 -10.34412 -10.34374
  Beta  occ. eigenvalues --  -10.33410 -10.32782 -10.32482 -10.32001 -10.31694
  Beta  occ. eigenvalues --  -10.31668 -10.31542 -10.31473 -10.31309 -10.31276
  Beta  occ. eigenvalues --  -10.31192 -10.31149 -10.31134 -10.31114 -10.31030
  Beta  occ. eigenvalues --  -10.30949 -10.30904 -10.30823 -10.30809 -10.30777
  Beta  occ. eigenvalues --  -10.30477 -10.29870 -10.29840 -10.29831 -10.29782
  Beta  occ. eigenvalues --  -10.28017 -10.27728  -8.09346  -6.02976  -6.02711
  Beta  occ. eigenvalues --   -6.02201  -3.53541  -2.29221  -2.28921  -2.28681
  Beta  occ. eigenvalues --   -1.23208  -1.22506  -1.15377  -1.09788  -1.08186
  Beta  occ. eigenvalues --   -1.07942  -1.06887  -1.06619  -1.05626  -0.99900
  Beta  occ. eigenvalues --   -0.95051  -0.93559  -0.92604  -0.91571  -0.91513
  Beta  occ. eigenvalues --   -0.91450  -0.90888  -0.90378  -0.89746  -0.89710
  Beta  occ. eigenvalues --   -0.87566  -0.86996  -0.86801  -0.85615  -0.85062
  Beta  occ. eigenvalues --   -0.83833  -0.81703  -0.81140  -0.80905  -0.80558
  Beta  occ. eigenvalues --   -0.78809  -0.77246  -0.77019  -0.75809  -0.75514
  Beta  occ. eigenvalues --   -0.75364  -0.74199  -0.73580  -0.73216  -0.72951
  Beta  occ. eigenvalues --   -0.71277  -0.69562  -0.69358  -0.69062  -0.67677
  Beta  occ. eigenvalues --   -0.65999  -0.65468  -0.64706  -0.64056  -0.63448
  Beta  occ. eigenvalues --   -0.62169  -0.61467  -0.61327  -0.60485  -0.59965
  Beta  occ. eigenvalues --   -0.59252  -0.58547  -0.58189  -0.57949  -0.57347
  Beta  occ. eigenvalues --   -0.56982  -0.56841  -0.56736  -0.56595  -0.56308
  Beta  occ. eigenvalues --   -0.55898  -0.55258  -0.55125  -0.54631  -0.54392
  Beta  occ. eigenvalues --   -0.54205  -0.53805  -0.53719  -0.53567  -0.53265
  Beta  occ. eigenvalues --   -0.53124  -0.52864  -0.52690  -0.52469  -0.52432
  Beta  occ. eigenvalues --   -0.52223  -0.52043  -0.51767  -0.51558  -0.51363
  Beta  occ. eigenvalues --   -0.51222  -0.51122  -0.50734  -0.50550  -0.50237
  Beta  occ. eigenvalues --   -0.49967  -0.49695  -0.49451  -0.49093  -0.48997
  Beta  occ. eigenvalues --   -0.48856  -0.48297  -0.47954  -0.47843  -0.47415
  Beta  occ. eigenvalues --   -0.47306  -0.46831  -0.46577  -0.46234  -0.46133
  Beta  occ. eigenvalues --   -0.45988  -0.45708  -0.45174  -0.45027  -0.44583
  Beta  occ. eigenvalues --   -0.44295  -0.43815  -0.43506  -0.42743  -0.42625
  Beta  occ. eigenvalues --   -0.42342  -0.42135  -0.41936  -0.41487  -0.41278
  Beta  occ. eigenvalues --   -0.40593  -0.39997  -0.39188  -0.38871  -0.38427
  Beta  occ. eigenvalues --   -0.38221  -0.36229  -0.35892  -0.34801  -0.34724
  Beta  occ. eigenvalues --   -0.33926  -0.33631  -0.32936  -0.32534  -0.31329
  Beta  occ. eigenvalues --   -0.29654  -0.29230  -0.28622  -0.26412
  Beta virt. eigenvalues --   -0.22479  -0.17043  -0.16383  -0.13038  -0.09972
  Beta virt. eigenvalues --   -0.07818  -0.07737  -0.07399  -0.06691  -0.06014
  Beta virt. eigenvalues --   -0.05598  -0.05376  -0.05159  -0.04839  -0.04628
  Beta virt. eigenvalues --   -0.03951  -0.03838  -0.03480  -0.03106  -0.02454
  Beta virt. eigenvalues --   -0.02364  -0.02115  -0.01820  -0.01764  -0.01372
  Beta virt. eigenvalues --   -0.01160  -0.00964  -0.00526  -0.00515  -0.00342
  Beta virt. eigenvalues --    0.00170   0.00257   0.00527   0.00846   0.01336
  Beta virt. eigenvalues --    0.01461   0.01657   0.02052   0.02215   0.02591
  Beta virt. eigenvalues --    0.02751   0.03149   0.03257   0.03548   0.03704
  Beta virt. eigenvalues --    0.04166   0.04202   0.04438   0.04714   0.04799
  Beta virt. eigenvalues --    0.04908   0.05003   0.05060   0.05424   0.05503
  Beta virt. eigenvalues --    0.05594   0.05899   0.06045   0.06197   0.06374
  Beta virt. eigenvalues --    0.06571   0.06808   0.06946   0.07067   0.07386
  Beta virt. eigenvalues --    0.07690   0.07979   0.08429   0.08606   0.08703
  Beta virt. eigenvalues --    0.08864   0.09150   0.09263   0.09429   0.09685
  Beta virt. eigenvalues --    0.09858   0.10002   0.10297   0.10478   0.10575
  Beta virt. eigenvalues --    0.10781   0.11074   0.11288   0.11479   0.11711
  Beta virt. eigenvalues --    0.11761   0.11986   0.12324   0.12484   0.12682
  Beta virt. eigenvalues --    0.12800   0.12945   0.13269   0.13368   0.13493
  Beta virt. eigenvalues --    0.13799   0.14007   0.14107   0.14378   0.14523
  Beta virt. eigenvalues --    0.14891   0.15166   0.15264   0.15443   0.15559
  Beta virt. eigenvalues --    0.15773   0.15983   0.16271   0.16403   0.16772
  Beta virt. eigenvalues --    0.16940   0.17006   0.17230   0.17484   0.17673
  Beta virt. eigenvalues --    0.17860   0.17895   0.18050   0.18443   0.18517
  Beta virt. eigenvalues --    0.18845   0.19068   0.19322   0.19478   0.19818
  Beta virt. eigenvalues --    0.19966   0.20055   0.20239   0.20461   0.21055
  Beta virt. eigenvalues --    0.21334   0.21546   0.21694   0.21994   0.22000
  Beta virt. eigenvalues --    0.22329   0.22449   0.22659   0.23033   0.23411
  Beta virt. eigenvalues --    0.23752   0.23938   0.24041   0.24260   0.24377
  Beta virt. eigenvalues --    0.24670   0.24889   0.24900   0.25222   0.25559
  Beta virt. eigenvalues --    0.25907   0.26231   0.26333   0.26389   0.26706
  Beta virt. eigenvalues --    0.26812   0.27086   0.27160   0.27535   0.27768
  Beta virt. eigenvalues --    0.28020   0.28338   0.28502   0.28576   0.29009
  Beta virt. eigenvalues --    0.29294   0.29312   0.29392   0.29657   0.29890
  Beta virt. eigenvalues --    0.30411   0.30529   0.30641   0.30787   0.30868
  Beta virt. eigenvalues --    0.31138   0.31385   0.31585   0.31881   0.31971
  Beta virt. eigenvalues --    0.32191   0.32280   0.32452   0.32660   0.32766
  Beta virt. eigenvalues --    0.33091   0.33265   0.33444   0.33546   0.33778
  Beta virt. eigenvalues --    0.33883   0.34072   0.34191   0.34437   0.34663
  Beta virt. eigenvalues --    0.34758   0.34809   0.34929   0.35250   0.35490
  Beta virt. eigenvalues --    0.35724   0.35791   0.36114   0.36172   0.36440
  Beta virt. eigenvalues --    0.36530   0.36783   0.36884   0.37097   0.37316
  Beta virt. eigenvalues --    0.37469   0.37517   0.37780   0.37822   0.38143
  Beta virt. eigenvalues --    0.38183   0.38268   0.38312   0.38713   0.38967
  Beta virt. eigenvalues --    0.39081   0.39104   0.39334   0.39514   0.39609
  Beta virt. eigenvalues --    0.40049   0.40234   0.40267   0.40575   0.40604
  Beta virt. eigenvalues --    0.40841   0.40897   0.41151   0.41323   0.41419
  Beta virt. eigenvalues --    0.41517   0.41694   0.41818   0.42168   0.42236
  Beta virt. eigenvalues --    0.42444   0.42664   0.43001   0.43192   0.43395
  Beta virt. eigenvalues --    0.43448   0.43693   0.43830   0.44101   0.44219
  Beta virt. eigenvalues --    0.44440   0.44463   0.44668   0.44847   0.45128
  Beta virt. eigenvalues --    0.45335   0.45586   0.45665   0.45851   0.46060
  Beta virt. eigenvalues --    0.46249   0.46456   0.46648   0.46934   0.47065
  Beta virt. eigenvalues --    0.47163   0.47365   0.47753   0.47827   0.48070
  Beta virt. eigenvalues --    0.48317   0.48500   0.48762   0.48961   0.49262
  Beta virt. eigenvalues --    0.49330   0.49425   0.49739   0.50038   0.50416
  Beta virt. eigenvalues --    0.50434   0.50714   0.50872   0.51211   0.51522
  Beta virt. eigenvalues --    0.51663   0.51834   0.52051   0.52340   0.52650
[...]
  1724. RY*(   5) H  80                  0.00000     2.89473   
  1725. RY*(   1) H  81                  0.00032     0.98826   
  1726. RY*(   2) H  81                  0.00008     1.78495   
  1727. RY*(   3) H  81                  0.00003     1.84354   
  1728. RY*(   4) H  81                  0.00003     2.08632   
  1729. RY*(   5) H  81                  0.00000     2.84308   
  1730. RY*(   1) H  82                  0.00034     0.98565   
  1731. RY*(   2) H  82                  0.00008     1.64766   
  1732. RY*(   3) H  82                  0.00004     2.09500   
  1733. RY*(   4) H  82                  0.00002     2.27268   
  1734. RY*(   5) H  82                  0.00001     2.56055   
  1735. RY*(   1) H  83                  0.00033     0.95620   
  1736. RY*(   2) H  83                  0.00008     1.82469   
  1737. RY*(   3) H  83                  0.00004     1.81981   
  1738. RY*(   4) H  83                  0.00003     2.09054   
  1739. RY*(   5) H  83                  0.00000     2.89510   
  1740. RY*(   1) H  84                  0.00025     1.12656   
  1741. RY*(   2) H  84                  0.00009     1.78353   
  1742. RY*(   3) H  84                  0.00003     1.87582   
  1743. RY*(   4) H  84                  0.00002     1.96513   
  1744. RY*(   5) H  84                  0.00000     2.87962   
  1745. RY*(   1) H  85                  0.00073     0.59627   
  1746. RY*(   2) H  85                  0.00013     2.11244   
  1747. RY*(   3) H  85                  0.00012     2.17170   
  1748. RY*(   4) H  85                  0.00007     2.94057   
  1749. RY*(   5) H  85                  0.00000     3.07651   
  1750. RY*(   1) H  86                  0.00080     0.55265   
  1751. RY*(   2) H  86                  0.00014     2.11271   
  1752. RY*(   3) H  86                  0.00012     2.17831   
  1753. RY*(   4) H  86                  0.00007     2.94341   
  1754. RY*(   5) H  86                  0.00000     3.07656   
  1755. RY*(   1) H  87                  0.00029     1.02575   
  1756. RY*(   2) H  87                  0.00008     1.68549   
  1757. RY*(   3) H  87                  0.00003     1.90663   
  1758. RY*(   4) H  87                  0.00004     2.05631   
  1759. RY*(   5) H  87                  0.00000     2.87395   
  1760. RY*(   1) H  88                  0.00031     1.03773   
  1761. RY*(   2) H  88                  0.00008     1.55617   
  1762. RY*(   3) H  88                  0.00004     2.06992   
  1763. RY*(   4) H  88                  0.00002     1.96944   
  1764. RY*(   5) H  88                  0.00001     2.81941   
  1765. RY*(   1) H  89                  0.00024     1.04650   
  1766. RY*(   2) H  89                  0.00009     1.77463   
  1767. RY*(   3) H  89                  0.00003     1.87785   
  1768. RY*(   4) H  89                  0.00003     2.05064   
  1769. RY*(   5) H  89                  0.00000     2.78964   
  1770. RY*(   1) H  90                  0.00077     0.60877   
  1771. RY*(   2) H  90                  0.00013     2.04733   
  1772. RY*(   3) H  90                  0.00012     2.15508   
  1773. RY*(   4) H  90                  0.00007     2.87693   
  1774. RY*(   5) H  90                  0.00000     3.07238   
  1775. RY*(   1) H  91                  0.00032     0.98517   
  1776. RY*(   2) H  91                  0.00008     1.66030   
  1777. RY*(   3) H  91                  0.00004     2.07304   
  1778. RY*(   4) H  91                  0.00002     1.87335   
  1779. RY*(   5) H  91                  0.00000     2.90821   
  1780. RY*(   1) H  92                  0.00030     0.97291   
  1781. RY*(   2) H  92                  0.00008     1.74702   
  1782. RY*(   3) H  92                  0.00003     2.12422   
  1783. RY*(   4) H  92                  0.00002     1.79749   
  1784. RY*(   5) H  92                  0.00000     2.86040   
  1785. RY*(   1) H  93                  0.00023     1.11512   
  1786. RY*(   2) H  93                  0.00009     1.82410   
  1787. RY*(   3) H  93                  0.00002     1.83622   
  1788. RY*(   4) H  93                  0.00003     2.03657   
  1789. RY*(   5) H  93                  0.00000     2.79665   
  1790. RY*(   1) H  94                  0.00033     1.20281   
  1791. RY*(   2) H  94                  0.00011     1.58017   
  1792. RY*(   3) H  94                  0.00007     2.41369   
  1793. RY*(   4) H  94                  0.00001     2.25782   
  1794. RY*(   5) H  94                  0.00001     2.90694   
  1795. RY*(   1) H  95                  0.00032     1.36540   
  1796. RY*(   2) H  95                  0.00008     1.23781   
  1797. RY*(   3) H  95                  0.00006     2.11987   
  1798. RY*(   4) H  95                  0.00002     2.28753   
  1799. RY*(   5) H  95                  0.00001     2.95989   
  1800. RY*(   1) H  96                  0.00027     1.31702   
  1801. RY*(   2) H  96                  0.00008     1.25727   
  1802. RY*(   3) H  96                  0.00004     2.15751   
  1803. RY*(   4) H  96                  0.00002     2.25585   
  1804. RY*(   5) H  96                  0.00000     2.97196   
  1805. RY*(   1) H  97                  0.00028     1.25564   
  1806. RY*(   2) H  97                  0.00009     1.40680   
  1807. RY*(   3) H  97                  0.00005     2.09283   
  1808. RY*(   4) H  97                  0.00002     2.17791   
  1809. RY*(   5) H  97                  0.00001     2.97092   
  1810. RY*(   1) H  98                  0.00041     1.22594   
  1811. RY*(   2) H  98                  0.00012     1.40574   
  1812. RY*(   3) H  98                  0.00008     2.27789   
  1813. RY*(   4) H  98                  0.00004     2.17212   
  1814. RY*(   5) H  98                  0.00001     2.92960   
  1815. RY*(   1) H  99                  0.00049     1.11963   
  1816. RY*(   2) H  99                  0.00006     1.45521   
  1817. RY*(   3) H  99                  0.00005     2.03999   
  1818. RY*(   4) H  99                  0.00003     2.26915   
  1819. RY*(   5) H  99                  0.00000     2.95159   
  1820. RY*(   1) H 100                  0.00053     0.95828   
  1821. RY*(   2) H 100                  0.00009     1.42579   
  1822. RY*(   3) H 100                  0.00005     2.08204   
  1823. RY*(   4) H 100                  0.00002     2.68094   
  1824. RY*(   5) H 100                  0.00002     2.41611   
  1825. RY*(   1) H 101                  0.00048     1.09316   
  1826. RY*(   2) H 101                  0.00008     1.35387   
  1827. RY*(   3) H 101                  0.00005     2.10469   
  1828. RY*(   4) H 101                  0.00002     2.20321   
  1829. RY*(   5) H 101                  0.00001     2.90034   
  1844. BD*(   1) C   7 - C   8          0.00471     0.29986   
  1845. BD*(   1) C   7 - H  57          0.00277     0.34185   
  1846. BD*(   1) C   7 - H  58          0.00313     0.34583   
  1847. BD*(   1) C   7 - H  59          0.00373     0.34328   
  1848. BD*(   1) C   8 - S   9          0.01986     0.09355   
  1849. BD*(   1) C   8 - H  60          0.01042     0.32564   
  1850. BD*(   1) C   8 - H  61          0.00728     0.31384   
  1851. BD*(   1) S   9 - C  10          0.01110     0.08866   
  1852. BD*(   1) S   9 -Fe  11          0.04227     0.30098   
  1853. BD*(   1) C  10 - H  54          0.00494     0.31440   
  1854. BD*(   1) C  10 - H  55          0.00689     0.34240   
  1855. BD*(   1) C  10 - H  56          0.00396     0.31386   
  1856. BD*(   1)Fe  11 - N  16          0.03141     0.30776   
  1857. BD*(   1)Fe  11 - N  27          0.05774     0.31736   
  1858. BD*(   1)Fe  11 - N  35          0.03541     0.33249   
  1859. BD*(   1)Fe  11 - N  43          0.03470     0.32171   
  1860. BD*(   1) C  12 - C  17          0.00995     0.48941   
  1861. BD*(   2) C  12 - C  17          0.20722    -0.05058  1932(v),1880(v),1865(r)
                                                    498(g),1874(r),630(g),632(g)
  1862. BD*(   1) C  12 - C  47          0.01120     0.46655   
  1863. BD*(   1) C  12 - H  73          0.00677     0.36188   
  1864. BD*(   1) C  13 - C  20          0.01024     0.48576   
  1865. BD*(   2) C  13 - C  20          0.19946    -0.05019  1880(v),1861(r),524(g)
                                                    710(g),708(g)
  1866. BD*(   1) C  13 - C  28          0.01047     0.47827   
  1867. BD*(   1) C  13 - H  86          0.00686     0.35572   
  1868. BD*(   1) C  14 - C  31          0.00997     0.46758   
  1869. BD*(   2) C  14 - C  31          0.21044    -0.06188  1914(v),1901(v),30(v),550(g)
                                                    996(g)
  1870. BD*(   1) C  14 - C  36          0.00980     0.48117   
  1871. BD*(   1) C  14 - H  90          0.00680     0.34875   
  1872. BD*(   1) C  15 - C  39          0.00993     0.50004   
  1873. BD*(   1) C  15 - C  44          0.01023     0.48841   
  1874. BD*(   2) C  15 - C  44          0.19400    -0.04645  1935(v),1932(v),576(g)
                                                    1861(r),1334(g)
  1875. BD*(   1) C  15 - H  85          0.00638     0.35869   
  1876. BD*(   1) N  16 - C  17          0.01448     0.38947   
  1877. BD*(   1) N  16 - C  20          0.01367     0.40929   
  1878. BD*(   1) C  17 - C  18          0.01771     0.39534   
  1879. BD*(   1) C  18 - C  19          0.00950     0.57791   
  1880. BD*(   2) C  18 - C  19          0.10425    -0.00877  1861(v),1865(v),1887(v)
                                                    1885(v)
  1881. BD*(   1) C  18 - C  22          0.01260     0.27690   
  1882. BD*(   1) C  19 - C  20          0.01836     0.38283   
  1883. BD*(   1) C  19 - C  21          0.00957     0.27323   
  1884. BD*(   1) C  21 - H  79          0.00269     0.32850   
  1885. BD*(   1) C  21 - H  80          0.00411     0.32646   
  1886. BD*(   1) C  21 - H  81          0.00262     0.33379   
  1887. BD*(   1) C  22 - C  23          0.00733     0.26028   
  1888. BD*(   1) C  22 - H  71          0.00524     0.34360   
  1889. BD*(   1) C  22 - H  72          0.00582     0.34426   
  1890. BD*(   1) C  23 - C  24          0.04077     0.28193   
  1891. BD*(   1) C  23 - H  69          0.00624     0.30645   
  1892. BD*(   1) C  23 - H  70          0.00623     0.31154   
  1893. BD*(   1) C  24 - O  25          0.03587     0.41687   
  1894. BD*(   1) C  24 - O  26          0.02757     0.45247   
  1895. BD*(   2) C  24 - O  26          0.08777    -0.03145   
  1896. BD*(   1) O  25 - H  68          0.00679     0.30506   
  1897. BD*(   1) N  27 - C  28          0.01512     0.36561   
  1898. BD*(   1) N  27 - C  31          0.01557     0.34968   
  1899. BD*(   1) C  28 - C  29          0.01693     0.39997   
  1900. BD*(   1) C  29 - C  30          0.01146     0.51732   
  1901. BD*(   2) C  29 - C  30          0.13926    -0.02731  1869(v),1900(g),202(v)
                                                    1906(v),1909(v),1908(v)
                                                    1907(v),943(g)
  1902. BD*(   1) C  29 - C  32          0.00901     0.25409   
  1903. BD*(   1) C  30 - C  31          0.01762     0.39518   
  1904. BD*(   1) C  30 - C  33          0.01607     0.22464   
  1905. BD*(   1) C  32 - H  87          0.00223     0.31721   
  1906. BD*(   1) C  32 - H  88          0.00385     0.31673   
  1907. BD*(   1) C  32 - H  89          0.00278     0.31735   
  1908. BD*(   1) C  33 - C  34          0.00271     0.38434   
  1909. BD*(   1) C  33 - H  98          0.00842     0.32224   
  1910. BD*(   1) C  34 - H  99          0.00570     0.28803   
  1911. BD*(   1) C  34 - H 100          0.00692     0.27929   
  1912. BD*(   1) C  34 - H 101          0.00667     0.28293   
  1913. BD*(   1) N  35 - C  36          0.01357     0.38293   
  1914. BD*(   2) N  35 - C  36          0.32199    -0.09593  1869(v),1918(v),1932(r)
                                                    1124(g),1096(g),194(v)
                                                    550(v),1840(r)
  1915. BD*(   1) N  35 - C  39          0.01397     0.39907   
  1916. BD*(   1) C  36 - C  37          0.01717     0.39890   
  1917. BD*(   1) C  37 - C  38          0.00850     0.55282   
  1918. BD*(   2) C  37 - C  38          0.11864    -0.01173  1914(v),204(v),1922(v)
                                                    1923(v),1926(v)
  1919. BD*(   1) C  37 - C  40          0.00925     0.26936   
  1920. BD*(   1) C  38 - C  39          0.01540     0.39716   
  1921. BD*(   1) C  38 - C  41          0.01620     0.27413   
  1922. BD*(   1) C  40 - H  91          0.00363     0.32952   
  1923. BD*(   1) C  40 - H  92          0.00262     0.33199   
  1924. BD*(   1) C  40 - H  93          0.00247     0.33076   
  1925. BD*(   1) C  41 - C  42          0.00311     0.51099   
  1926. BD*(   1) C  41 - H  94          0.00842     0.36911   
  1927. BD*(   1) C  42 - H  95          0.00414     0.32739   
  1928. BD*(   1) C  42 - H  96          0.00460     0.32879   
  1929. BD*(   1) C  42 - H  97          0.00236     0.32611   
  1930. BD*(   1) N  43 - C  44          0.01584     0.35040   
  1931. BD*(   1) N  43 - C  47          0.01452     0.38747   
  1932. BD*(   2) N  43 - C  47          0.31559    -0.09603  1861(v),1935(v),1874(v)
                                                    1914(r),1410(g),30(v)
                                                    1305(g),498(v),1840(r)
                                                    194(v),1843(r),1839(r)
  1933. BD*(   1) C  44 - C  45          0.01563     0.42555   
  1934. BD*(   1) C  45 - C  46          0.00961     0.56077   
  1935. BD*(   2) C  45 - C  46          0.11812    -0.01342  1874(v),1932(v),1942(v)
                                                    1939(v)
  1936. BD*(   1) C  45 - C  48          0.00982     0.26505   
  1937. BD*(   1) C  46 - C  47          0.01681     0.41345   
  1938. BD*(   1) C  46 - C  49          0.01265     0.25973   
  1939. BD*(   1) C  48 - H  82          0.00385     0.32882   
  1940. BD*(   1) C  48 - H  83          0.00261     0.33293   
  1941. BD*(   1) C  48 - H  84          0.00264     0.33056   
  1942. BD*(   1) C  49 - C  50          0.00897     0.26703   
  1943. BD*(   1) C  49 - H  74          0.00601     0.33778   
  1944. BD*(   1) C  49 - H  75          0.00609     0.33469   
  1945. BD*(   1) C  50 - C  51          0.03688     0.29792   
  1946. BD*(   1) C  50 - H  76          0.00561     0.32050   
  1947. BD*(   1) C  50 - H  77          0.00549     0.32612   
  1948. BD*(   1) C  51 - O  52          0.02085     0.47126   
  1949. BD*(   2) C  51 - O  52          0.09052    -0.05935   
  1950. BD*(   1) C  51 - O  53          0.03616     0.42298   
  1951. BD*(   1) O  53 - H  78          0.00674     0.31630   
       -------------------------------
              Total Lewis  177.50963  ( 97.4400%)
        Valence non-Lewis    4.31761  (  2.3701%)
        Rydberg non-Lewis    0.34607  (  0.1900%)
       -------------------------------
            Total unit  2  182.17331  (100.0000%)
           Charge unit  2    0.82669
 1\1\GINC-NODE703\SP\UPBE1PBE\def2TZVP\C41H48Fe1N6O4S1(1+,2)\ZHARTOVSKA
 \09-Sep-2022\0\\# PBE1PBE/def2TZVP empiricaldispersion=GD3BJ scf=maxcy
 cle=999 geom=check pop=nbo\\1h9xc_III_D\\1,2\C,0,108.765999,41.389999,
 198.218002\C,0,109.397003,41.452,196.856003\N,0,108.658997,41.402,195.
 705002\C,0,110.708,41.555,196.488998\C,0,109.480003,41.455002,194.6649
 93\N,0,110.721001,41.555,195.100998\C,0,113.728996,43.437,190.542999\C
 ,0,114.058998,42.056,191.041\S,0,114.267998,41.828999,192.822998\C,0,1
 15.002998,40.182999,192.723007\Fe,0,112.424004,41.676998,194.016998\C,
 0,110.544998,41.091,191.162003\C,0,112.714996,38.337002,194.487\C,0,11
 4.471001,42.27,196.733994\C,0,111.820999,45.012001,193.757996\N,0,111.
 765999,40.029999,193.024002\C,0,111.037003,40.008999,191.850998\C,0,11
 0.902,38.625999,191.427994\C,0,111.483002,37.854,192.328995\C,0,112.00
 9003,38.731998,193.371994\C,0,111.610001,36.312,192.376007\C,0,110.147
 003,38.23,190.123001\C,0,108.632004,38.055,190.399002\C,0,107.761002,3
 7.967999,189.171005\O,0,106.549004,37.679001,189.343002\O,0,108.268997
 ,38.198002,188.056\N,0,113.362999,40.544998,195.330994\C,0,113.367996,
 39.154999,195.386002\C,0,114.176003,38.714001,196.488998\C,0,114.66799
 9,39.801998,197.082993\C,0,114.186996,40.957001,196.388\C,0,114.400002
 ,37.226002,196.867996\C,0,115.609001,39.785999,198.343994\C,0,116.9391
 0131,39.36235088,198.22039219\N,0,113.030998,43.317001,195.031998\C,0,
 113.892998,43.360001,196.115997\C,0,114.055,44.737999,196.531006\C,0,1
 13.342003,45.491001,195.697998\C,0,112.657997,44.615002,194.770004\C,0
 ,114.928001,45.194,197.731995\C,0,113.154999,47.051998,195.815994\C,0,
 114.23110075,47.87155515,195.73293893\N,0,111.411003,42.783001,192.738
 998\C,0,111.259003,44.183998,192.807999\C,0,110.457001,44.629002,191.7
 16003\C,0,110.101997,43.554001,191.016006\C,0,110.700996,42.396,191.61
 9995\C,0,110.075996,46.111,191.429001\C,0,109.226997,43.527,189.710007
 \C,0,110.176003,43.561001,188.490997\C,0,109.574997,43.698002,187.1239
 93\O,0,110.362999,43.536999,186.153\O,0,108.356003,43.978001,187.01400
 8\H,0,115.94617555,40.18225682,193.22829459\H,0,114.35022389,39.472225
 49,193.1851617\H,0,115.14819972,39.91899621,191.69630403\H,0,114.50315
 416,43.7734876,189.88546175\H,0,112.79839184,43.41299749,190.01545775\
 H,0,113.65077302,44.10656307,191.37394211\H,0,113.27825718,41.39903579
 ,190.71891026\H,0,114.96623706,41.74698599,190.56526096\H,0,109.409049
 75,41.86247385,198.93085068\H,0,107.82333991,41.89584737,198.19772235\
 H,0,108.61619482,40.36751754,198.49547341\H,0,111.55456056,41.62216616
 ,197.1399388\H,0,107.66237025,41.33617888,195.65598461\H,0,109.1835386
 6,41.42197012,193.6374144\H,0,106.30877507,36.88029421,189.8183519\H,0
 ,108.49630737,37.16064743,190.9705087\H,0,108.30022991,38.88480565,190
 .98743087\H,0,110.54595057,37.30966351,189.75054753\H,0,110.28530504,3
 8.99659495,189.38944478\H,0,110.02425698,40.92479571,190.24216338\H,0,
 108.58252929,44.38090039,189.68962316\H,0,108.64117116,42.63192727,189
 .68649328\H,0,110.85143177,44.37910572,188.63028322\H,0,110.74921623,4
 2.65756873,188.50269022\H,0,108.0891786,44.83633099,186.67685171\H,0,1
 12.50996941,36.04371647,192.88882355\H,0,110.76855741,35.9004271,192.8
 9319211\H,0,111.63926341,35.92595899,191.37850209\H,0,110.83579683,46.
 56451722,190.82739911\H,0,109.141625,46.14470909,190.90869866\H,0,109.
 98871091,46.64231407,192.35365589\H,0,111.58351142,46.05372453,193.700
 44834\H,0,112.76191326,37.28483709,194.67580619\H,0,115.31598852,37.13
 069965,197.41277684\H,0,113.5869863,36.88627729,197.4750319\H,0,114.45
 148747,36.63499415,195.97751356\H,0,115.17451012,42.44665502,197.52061
 203\H,0,115.85106189,45.5959652,197.36966564\H,0,114.40587956,45.94457
 312,198.28780899\H,0,115.12847074,44.35560014,198.36587003\H,0,112.178
 44475,47.46433946,195.96165226\H,0,114.88617453,47.52307268,194.962005
 53\H,0,113.90612675,48.86471768,195.50289527\H,0,114.75063856,47.87395
 755,196.66833975\H,0,115.23333813,40.09858414,199.29587001\H,0,117.065
 10063,38.84964255,197.28971806\H,0,117.58837312,40.21232937,198.250101
 93\H,0,117.17939127,38.70161597,199.02698386\\Version=ES64L-G16RevA.03
 \State=2-A\HF=-3880.332635\S2=1.140211\S2-1=0.\S2A=0.787342\RMSD=2.107
 e-09\Dipole=0.3052661,-0.5321798,5.7220448\Quadrupole=12.3793513,17.66
 46543,-30.0440056,-5.1401545,23.7436529,-16.5413542\PG=C01 [X(C41H48Fe
 1N6O4S1)]\\@


 If your ship doesn't come in, swim out to it!
                          -- Jonathan Winters
 Job cpu time:       5 days 23 hours  3 minutes 27.7 seconds.
 Elapsed time:       1 days 11 hours 53 minutes 35.3 seconds.
 File lengths (MBytes):  RWF=   3495 Int=      0 D2E=      0 Chk=    292 Scr=      1
 Normal termination of Gaussian 16 at Fri Sep  9 22:58:33 2022.
