 Entering Gaussian System, Link 0=g16
 Input=/net/homes/chemie/zhartovska/work/BioModel/Konrad/1jbq/1jbq05/1jbq05.com
 Output=/net/homes/chemie/zhartovska/work/BioModel/Konrad/1jbq/1jbq05/1jbq05.log
 Initial command:
 /afs/math/software/gaussian/g16.A03/g16/l1.exe "/scratch/zhartovska_gaussian.FUthX6U/Gau-1498.inp" -scrdir="/scratch/zhartovska_gaussian.FUthX6U/"
 Entering Link 1 = /afs/math/software/gaussian/g16.A03/g16/l1.exe PID=      1499.
  
 Copyright (c) 1988,1990,1992,1993,1995,1998,2003,2009,2016,
            Gaussian, Inc.  All Rights Reserved.
  
 This is part of the Gaussian(R) 16 program.  It is based on
 the Gaussian(R) 09 system (copyright 2009, Gaussian, Inc.),
 the Gaussian(R) 03 system (copyright 2003, Gaussian, Inc.),
 the Gaussian(R) 98 system (copyright 1998, Gaussian, Inc.),
 the Gaussian(R) 94 system (copyright 1995, Gaussian, Inc.),
 the Gaussian 92(TM) system (copyright 1992, Gaussian, Inc.),
 the Gaussian 90(TM) system (copyright 1990, Gaussian, Inc.),
 the Gaussian 88(TM) system (copyright 1988, Gaussian, Inc.),
 the Gaussian 86(TM) system (copyright 1986, Carnegie Mellon
 University), and the Gaussian 82(TM) system (copyright 1983,
 Carnegie Mellon University). Gaussian is a federally registered
 trademark of Gaussian, Inc.
  
 This software contains proprietary and confidential information,
 including trade secrets, belonging to Gaussian, Inc.
  
 This software is provided under written license and may be
 used, copied, transmitted, or stored only in accord with that
 written license.
  
 The following legend is applicable only to US Government
 contracts under FAR:
  
                    RESTRICTED RIGHTS LEGEND
  
 Use, reproduction and disclosure by the US Government is
 subject to restrictions as set forth in subparagraphs (a)
 and (c) of the Commercial Computer Software - Restricted
 Rights clause in FAR 52.227-19.
  
 Gaussian, Inc.
 340 Quinnipiac St., Bldg. 40, Wallingford CT 06492
  
  
 ---------------------------------------------------------------
 Warning -- This program may not be used in any manner that
 competes with the business of Gaussian, Inc. or will provide
 assistance to any competitor of Gaussian, Inc.  The licensee
 of this program is prohibited from giving any competitor of
 Gaussian, Inc. access to this program.  By using this program,
 the user acknowledges that Gaussian, Inc. is engaged in the
 business of creating and licensing software in the field of
 computational chemistry and represents and warrants to the
 licensee that it is not a competitor of Gaussian, Inc. and that
 it will not use this program in any manner prohibited above.
 ---------------------------------------------------------------
  

 Cite this work as:
 Gaussian 16, Revision A.03,
 M. J. Frisch, G. W. Trucks, H. B. Schlegel, G. E. Scuseria, 
 M. A. Robb, J. R. Cheeseman, G. Scalmani, V. Barone, 
 G. A. Petersson, H. Nakatsuji, X. Li, M. Caricato, A. V. Marenich, 
 J. Bloino, B. G. Janesko, R. Gomperts, B. Mennucci, H. P. Hratchian, 
 J. V. Ortiz, A. F. Izmaylov, J. L. Sonnenberg, D. Williams-Young, 
 F. Ding, F. Lipparini, F. Egidi, J. Goings, B. Peng, A. Petrone, 
 T. Henderson, D. Ranasinghe, V. G. Zakrzewski, J. Gao, N. Rega, 
 G. Zheng, W. Liang, M. Hada, M. Ehara, K. Toyota, R. Fukuda, 
 J. Hasegawa, M. Ishida, T. Nakajima, Y. Honda, O. Kitao, H. Nakai, 
 T. Vreven, K. Throssell, J. A. Montgomery, Jr., J. E. Peralta, 
 F. Ogliaro, M. J. Bearpark, J. J. Heyd, E. N. Brothers, K. N. Kudin, 
 V. N. Staroverov, T. A. Keith, R. Kobayashi, J. Normand, 
 K. Raghavachari, A. P. Rendell, J. C. Burant, S. S. Iyengar, 
 J. Tomasi, M. Cossi, J. M. Millam, M. Klene, C. Adamo, R. Cammi, 
 J. W. Ochterski, R. L. Martin, K. Morokuma, O. Farkas, 
 J. B. Foresman, and D. J. Fox, Gaussian, Inc., Wallingford CT, 2016.
 
 ******************************************
 Gaussian 16:  ES64L-G16RevA.03 25-Dec-2016
                 8-Sep-2022 
 ******************************************
 %nprocs=12
 Will use up to   12 processors via shared memory.
 %mem=16GB
 %oldchk=1jbq_II_S.chk
 %chk=1jbq_II_Q.chk
 Copying data from "1jbq_II_S.chk" to current chk file "1jbq_II_Q.chk"
 IOpt=  2 FromEx=T IUOpen= 4 IOptOp= 5 NList=   0 IFRang= 0 IUIn= 4 IUOut= 2.
 ----------------------------------------------------------------------
 # PBE1PBE/def2TZVP empiricaldispersion=GD3BJ scf=maxcycle=999 geom=che
 ck pop=nbo
 ----------------------------------------------------------------------
 1/29=2,38=1,172=1/1;
 2/12=2,40=1/2;
 3/5=44,7=101,11=2,14=-4,25=1,30=1,74=-13,124=41/1,2,3;
 4//1;
 5/5=2,7=999,38=5/2;
 6/7=2,8=2,9=2,10=2,28=1,40=1/1,7;
 99/5=1,9=1/99;
 ---------
 1jbq_II_Q
 ---------
 Structure from the checkpoint file:  "1jbq_II_Q.chk"
 Charge =  0 Multiplicity = 5
 Z-Matrix found in chk file.
 C,0,-14.426,91.945,42.445999
 S,0,-13.61514756,90.44205984,42.94808385
 C,0,-6.735,87.879997,45.296001
 C,0,-7.719,88.763,44.599998
 N,0,-7.343,89.896004,43.912998
 C,0,-9.063,88.672997,44.473
 C,0,-8.414,90.466003,43.393002
 N,0,-9.47,89.745003,43.717999
 C,0,-10.953,92.300003,41.314999
 C,0,-11.872,87.638,40.998001
 C,0,-12.394,87.350998,45.764
 C,0,-11.576,92.092003,46.098
 C,0,-11.131,91.056,40.793999
 C,0,-11.01,90.705002,39.391998
 C,0,-11.28,89.394997,39.290001
 C,0,-11.563,88.899002,40.644001
 C,0,-11.297,88.524002,38.006001
 C,0,-10.63,91.708,38.287998
 C,0,-11.742,92.139999,37.362999
 C,0,-11.193,92.964996,36.207001
 O,0,-10.77,94.139999,36.534
 O,0,-11.172,92.470001,35.066002
 C,0,-12.111,87.150002,42.238998
 C,0,-12.428,85.758003,42.523998
 C,0,-12.569,85.661003,43.887001
 C,0,-12.351,86.986,44.423
 C,0,-12.553,84.656998,41.449001
 C,0,-12.891,84.424004,44.775002
 C,0,-14.14058471,83.57203839,44.48467002
 C,0,-12.208,88.622002,46.277
 C,0,-12.294,88.947998,47.712002
 C,0,-12.073,90.289001,47.816002
 C,0,-11.844,90.779999,46.460999
 C,0,-12.596,87.878998,48.806
 C,0,-12.048,91.242996,49.053001
 C,0,-11.54553863,90.72621722,50.41390962
 C,0,-11.343,92.589996,44.828999
 C,0,-11.063,93.980003,44.478001
 C,0,-10.885,94.031998,43.127998
 C,0,-11.057,92.678001,42.638
 C,0,-10.995,95.148003,45.480999
 C,0,-10.569,95.273003,42.262001
 C,0,-11.761,95.569,41.271999
 C,0,-11.547,96.749001,40.348
 O,0,-10.395,97.149002,40.092999
 O,0,-12.598,97.237,39.867001
 N,0,-11.449,89.935997,41.525002
 N,0,-12.08,87.879997,43.41
 N,0,-11.928,89.747002,45.542
 N,0,-11.35,91.795998,43.674999
 Fe,0,-11.707,89.852997,43.553001
 H,0,-5.84267659,88.43333186,45.50210646
 H,0,-7.15753264,87.52958024,46.21446399
 H,0,-6.50010461,87.04472118,44.66987125
 H,0,-6.40609387,90.23364375,43.82240934
 H,0,-8.42403416,91.36126531,42.8070799
 H,0,-9.69061235,87.90990104,44.88371558
 H,0,-13.86737953,92.40560745,41.65816403
 H,0,-15.41259069,91.71915812,42.09881858
 H,0,-14.48545231,92.61368722,43.27919935
 H,0,-12.31674047,90.60699352,42.89298471
 H,0,-10.10646147,95.71769308,45.3053502
 H,0,-11.85206227,95.77618641,45.35558025
 H,0,-10.97926187,94.76110598,46.47847732
 H,0,-9.67755439,95.09303095,41.69823261
 H,0,-10.41972239,96.11980552,42.89882255
 H,0,-11.92457117,94.69785925,40.67261743
 H,0,-12.64201862,95.75094708,41.85131019
 H,0,-9.63459792,96.65487634,40.40800456
 H,0,-10.70385476,93.07385352,40.61931084
 H,0,-10.23217049,92.58285875,38.75837429
 H,0,-9.85685067,91.26824936,37.69322115
 H,0,-12.23348367,91.27267958,36.97428212
 H,0,-12.4475692,92.72839668,37.91150631
 H,0,-9.82723254,94.31444826,36.58254859
 H,0,-10.4273088,87.90099251,37.98609151
 H,0,-12.1745066,87.9117393,38.00193416
 H,0,-11.3009077,89.15864101,37.14453826
 H,0,-11.93721543,86.93090823,40.1975835
 H,0,-11.71109515,83.99964717,41.51213663
 H,0,-13.4526611,84.10087236,41.61097067
 H,0,-12.58187813,85.10739541,40.47884213
 H,0,-12.24415118,84.16553988,45.58721066
 H,0,-14.03310048,82.56435518,44.14127276
 H,0,-15.11628689,83.98777148,44.62634312
 H,0,-12.59057677,86.57086904,46.46944765
 H,0,-11.80798195,87.87694257,49.52982548
 H,0,-13.52219167,88.11348462,49.28775202
 H,0,-12.66508681,86.91291977,48.35122548
 H,0,-12.37999099,92.25542037,48.95461973
 H,0,-10.49504549,90.65401713,50.60404458
 H,0,-12.24691901,90.43935672,51.16934103
 H,0,-11.54596949,92.8042839,46.89590606
 Recover connectivity data from disk.
 Stoichiometry    C39H42FeN6O4S(5)
 Framework group  C1[X(C39H42FeN6O4S)]
 Deg. of freedom   273
 Full point group                 C1      NOp   1
 Largest Abelian subgroup         C1      NOp   1
 Largest concise Abelian subgroup C1      NOp   1
                         Standard orientation:                         
 ---------------------------------------------------------------------
 Center     Atomic      Atomic             Coordinates (Angstroms)
 Number     Number       Type             X           Y           Z
 ---------------------------------------------------------------------
      1          6           0       -1.078762   -0.496773   -3.134535
      2         16           0        0.244926    0.204440   -2.173000
      3          6           0        3.242665   -0.056858    4.923379
      4          6           0        2.201657   -0.157349    3.856340
      5          7           0        0.910195   -0.560008    4.115252
      6          6           0        2.256656    0.105124    2.530199
      7          6           0        0.214648   -0.541385    2.993555
      8          7           0        1.007397   -0.142348    2.017380
      9          6           0       -2.382947   -0.284083    0.289028
     10          6           0        0.562368    3.434526   -0.130963
     11          6           0        4.316898    0.484535   -0.651212
     12          6           0        1.337982   -3.295291   -0.340100
     13          6           0       -1.924517    0.996042    0.246686
     14          6           0       -2.735492    2.186845    0.413283
     15          6           0       -1.916658    3.241418    0.283654
     16          6           0       -0.563806    2.719354    0.045625
     17          6           0       -2.283246    4.746817    0.367098
     18          6           0       -4.248916    2.159846    0.692638
     19          6           0       -5.149224    2.555658   -0.452600
     20          6           0       -6.593207    2.680625    0.013928
     21          8           0       -7.165264    1.561477    0.308457
     22          8           0       -7.108024    3.810139    0.094553
     23          6           0        1.823312    2.978921   -0.325337
     24          6           0        2.986585    3.837512   -0.495607
     25          6           0        4.069760    3.004154   -0.634578
     26          6           0        3.565599    1.651061   -0.561103
     27          6           0        2.935741    5.380519   -0.496675
     28          6           0        5.576025    3.343730   -0.830149
     29          6           0        6.013694    4.268773   -1.980950
     30          6           0        3.833952   -0.810735   -0.603710
     31          6           0        4.683771   -2.008219   -0.733084
     32          6           0        3.848917   -3.082900   -0.655463
     33          6           0        2.502234   -2.552030   -0.470598
     34          6           0        6.228799   -1.932376   -0.927847
     35          6           0        4.124650   -4.618421   -0.739396
     36          6           0        5.444631   -5.194640   -0.194216
     37          6           0        0.050017   -2.827717   -0.152563
     38          6           0       -1.158333   -3.637419   -0.018440
     39          6           0       -2.204217   -2.782745    0.161986
     40          6           0       -1.649640   -1.443040    0.137008
     41          6           0       -1.201846   -5.176604   -0.080644
     42          6           0       -3.696479   -3.139567    0.351023
     43          6           0       -4.548623   -2.593401   -0.858992
     44          6           0       -6.036265   -2.857935   -0.764566
     45          8           0       -6.568767   -3.075803    0.340470
     46          8           0       -6.649401   -2.806855   -1.857982
     47          7           0       -0.613013    1.354768    0.043787
     48          7           0        2.199669    1.652064   -0.379240
     49          7           0        2.518656   -1.167315   -0.439098
     50          7           0       -0.272516   -1.467185   -0.068155
     51         26           0        0.960786    0.073685   -0.217394
     52          1           0        2.966058   -0.676108    5.750977
     53          1           0        4.184926   -0.381695    4.534117
     54          1           0        3.322524    0.959195    5.249199
     55          1           0        0.555333   -0.824789    5.011892
     56          1           0       -0.817419   -0.805254    2.893007
     57          1           0        3.112722    0.442159    1.983887
     58          1           0       -2.007043   -0.352048   -2.622432
     59          1           0       -1.119477   -0.015826   -4.089486
     60          1           0       -0.905467   -1.543961   -3.269688
     61          1           0        0.008007    0.013029   -0.898899
     62          1           0       -1.771739   -5.550920    0.743983
     63          1           0       -1.658372   -5.483710   -0.998343
     64          1           0       -0.205640   -5.563883   -0.030764
     65          1           0       -4.052283   -2.701688    1.260180
     66          1           0       -3.801515   -4.202982    0.405938
     67          1           0       -4.398643   -1.536073   -0.925800
     68          1           0       -4.183323   -3.044042   -1.758091
     69          1           0       -6.055210   -2.986804    1.146658
     70          1           0       -3.432156   -0.406219    0.459739
     71          1           0       -4.512355    1.167188    0.992852
     72          1           0       -4.446046    2.819441    1.511768
     73          1           0       -4.824194    3.495597   -0.847277
     74          1           0       -5.090266    1.812241   -1.219903
     75          1           0       -7.308330    1.322723    1.227222
     76          1           0       -1.938595    5.146780    1.297767
     77          1           0       -1.818631    5.272365   -0.440883
     78          1           0       -3.345308    4.859421    0.301951
     79          1           0        0.447271    4.498212   -0.115945
     80          1           0        3.366679    5.752206    0.409438
     81          1           0        3.487167    5.754970   -1.333703
     82          1           0        1.918139    5.703800   -0.566500
     83          1           0        6.307461    2.934459   -0.165019
     84          1           0        6.426617    5.232089   -1.765507
     85          1           0        5.904867    3.948180   -2.995976
     86          1           0        5.374060    0.600392   -0.769050
     87          1           0        6.713925   -2.482504   -0.148802
     88          1           0        6.489712   -2.352352   -1.876765
     89          1           0        6.543103   -0.910220   -0.891640
     90          1           0        3.396362   -5.269695   -1.175674
     91          1           0        5.564287   -5.356018    0.856754
     92          1           0        6.242106   -5.433621   -0.866393
     93          1           0        1.450072   -4.358203   -0.390637
 ---------------------------------------------------------------------
 Rotational constants (GHZ):           0.0734634           0.0435634           0.0331814
 Standard basis: def2TZVP (5D, 7F)
 There are  2110 symmetry adapted cartesian basis functions of A   symmetry.
 There are  1853 symmetry adapted basis functions of A   symmetry.
  1853 basis functions,  3006 primitive gaussians,  2110 cartesian basis functions
   198 alpha electrons      194 beta electrons
       nuclear repulsion energy      8207.5331616776 Hartrees.
 NAtoms=   93 NActive=   93 NUniq=   93 SFac= 1.00D+00 NAtFMM=   60 NAOKFM=T Big=T
 Integral buffers will be    131072 words long.
 Raffenetti 2 integral format.
 Two-electron integral symmetry is turned on.
 Nuclear repulsion after empirical dispersion term =     8207.3959598851 Hartrees.
 One-electron integrals computed using PRISM.
   1 Symmetry operations used in ECPInt.
 ECPInt:  NShTT=  270480 NPrTT=  840459 LenC2=  196595 LenP2D=  394954.
 LDataN:  DoStor=T MaxTD1= 6 Len=  172
 NBasis=  1853 RedAO= T EigKep=  2.83D-06  NBF=  1853
 NBsUse=  1853 1.00D-06 EigRej= -1.00D+00 NBFU=  1853
 ExpMin= 4.20D-02 ExpMax= 3.01D+05 ExpMxC= 2.91D+03 IAcc=3 IRadAn=         5 AccDes= 0.00D+00
 Harris functional with IExCor= 1009 and IRadAn=       5 diagonalized for initial guess.
 HarFok:  IExCor= 1009 AccDes= 0.00D+00 IRadAn=         5 IDoV= 1 UseB2=F ITyADJ=14
 ICtDFT=  3500011 ScaDFX=  1.000000  1.000000  1.000000  1.000000
 FoFCou: FMM=F IPFlag=           0 FMFlag=      100000 FMFlg1=        2001
         NFxFlg=           0 DoJE=T BraDBF=F KetDBF=T FulRan=T
         wScrn=  0.000000 ICntrl=       500 IOpCl=  0 I1Cent=   200000004 NGrid=           0
         NMat0=    1 NMatS0=      1 NMatT0=    0 NMatD0=    1 NMtDS0=    0 NMtDT0=    0
 Petite list used in FoFCou.
 Initial guess <Sx>= 0.0000 <Sy>= 0.0000 <Sz>= 2.0000 <S**2>= 6.0000 S= 2.0000
 Requested convergence on RMS density matrix=1.00D-08 within 999 cycles.
 Requested convergence on MAX density matrix=1.00D-06.
 Requested convergence on             energy=1.00D-06.
 No special actions if energy rises.
 EnCoef did   100 forward-backward iterations
 EnCoef did   100 forward-backward iterations
 EnCoef did     2 forward-backward iterations
 EnCoef did     9 forward-backward iterations
 EnCoef did     5 forward-backward iterations
 EnCoef did     7 forward-backward iterations
 EnCoef did     3 forward-backward iterations
 Rare condition: small coef for last iteration:  0.000D+00
 Restarting incremental Fock formation.
 Restarting incremental Fock formation.
 SCF Done:  E(UPBE1PBE) =  -3800.50259518     A.U. after   52 cycles
            NFock= 52  Conv=0.35D-08     -V/T= 2.0031
 <Sx>= 0.0000 <Sy>= 0.0000 <Sz>= 2.0000 <S**2>= 6.0533 S= 2.0106
 <L.S>= 0.000000000000E+00
 Annihilation of the first spin contaminant:
 S**2 before annihilation     6.0533,   after     6.0010

 **********************************************************************

            Population analysis using the SCF density.

 **********************************************************************

 Orbital symmetries:
 Alpha Orbitals:
       Occupied  (A) (A) (A) (A) (A) (A) (A) (A) (A) (A) (A) (A)
                 (A) (A) (A) (A) (A) (A) (A) (A) (A) (A) (A) (A)
                 (A) (A) (A) (A) (A) (A) (A) (A) (A) (A) (A) (A)
                 (A) (A) (A) (A) (A) (A) (A) (A) (A) (A) (A) (A)
                 (A) (A) (A) (A) (A) (A) (A) (A) (A) (A) (A) (A)
                 (A) (A) (A) (A) (A) (A) (A) (A) (A) (A) (A) (A)
                 (A) (A) (A) (A) (A) (A) (A) (A) (A) (A) (A) (A)
                 (A) (A) (A) (A) (A) (A) (A) (A) (A) (A) (A) (A)
                 (A) (A) (A) (A) (A) (A) (A) (A) (A) (A) (A) (A)
                 (A) (A) (A) (A) (A) (A) (A) (A) (A) (A) (A) (A)
                 (A) (A) (A) (A) (A) (A) (A) (A) (A) (A) (A) (A)
                 (A) (A) (A) (A) (A) (A) (A) (A) (A) (A) (A) (A)
                 (A) (A) (A) (A) (A) (A) (A) (A) (A) (A) (A) (A)
                 (A) (A) (A) (A) (A) (A) (A) (A) (A) (A) (A) (A)
                 (A) (A) (A) (A) (A) (A) (A) (A) (A) (A) (A) (A)
                 (A) (A) (A) (A) (A) (A) (A) (A) (A) (A) (A) (A)
                 (A) (A) (A) (A) (A) (A)
       Virtual   (A) (A) (A) (A) (A) (A) (A) (A) (A) (A) (A) (A)
                 (A) (A) (A) (A) (A) (A) (A) (A) (A) (A) (A) (A)
                 (A) (A) (A) (A) (A) (A) (A) (A) (A) (A) (A) (A)
                 (A) (A) (A) (A) (A) (A) (A) (A) (A) (A) (A) (A)
                 (A) (A) (A) (A) (A) (A) (A) (A) (A) (A) (A) (A)
                 (A) (A) (A) (A) (A) (A) (A) (A) (A) (A) (A) (A)
                 (A) (A) (A) (A) (A) (A) (A) (A) (A) (A) (A) (A)
                 (A) (A) (A) (A) (A) (A) (A) (A) (A) (A) (A) (A)
                 (A) (A) (A) (A) (A) (A) (A) (A) (A) (A) (A) (A)
                 (A) (A) (A) (A) (A) (A) (A) (A) (A) (A) (A) (A)
                 (A) (A) (A) (A) (A) (A) (A) (A) (A) (A) (A) (A)
                 (A) (A) (A) (A) (A) (A) (A) (A) (A) (A) (A) (A)
                 (A) (A) (A) (A) (A) (A) (A) (A) (A) (A) (A) (A)
                 (A) (A) (A) (A) (A) (A) (A) (A) (A) (A) (A) (A)
                 (A) (A) (A) (A) (A) (A) (A) (A) (A) (A) (A) (A)
                 (A) (A) (A) (A) (A) (A) (A) (A) (A) (A) (A) (A)
                 (A) (A) (A) (A) (A) (A) (A) (A) (A) (A) (A) (A)
                 (A) (A) (A) (A) (A) (A) (A) (A) (A) (A) (A) (A)
                 (A) (A) (A) (A) (A) (A) (A) (A) (A) (A) (A) (A)
                 (A) (A) (A) (A) (A) (A) (A) (A) (A) (A) (A) (A)
                 (A) (A) (A) (A) (A) (A) (A) (A) (A) (A) (A) (A)
                 (A) (A) (A) (A) (A) (A) (A) (A) (A) (A) (A) (A)
                 (A) (A) (A) (A) (A) (A) (A) (A) (A) (A) (A) (A)
                 (A) (A) (A) (A) (A) (A) (A) (A) (A) (A) (A) (A)
                 (A) (A) (A) (A) (A) (A) (A) (A) (A) (A) (A) (A)
                 (A) (A) (A) (A) (A) (A) (A) (A) (A) (A) (A) (A)
                 (A) (A) (A) (A) (A) (A) (A) (A) (A) (A) (A) (A)
                 (A) (A) (A) (A) (A) (A) (A) (A) (A) (A) (A) (A)
                 (A) (A) (A) (A) (A) (A) (A) (A) (A) (A) (A) (A)
                 (A) (A) (A) (A) (A) (A) (A) (A) (A) (A) (A) (A)
                 (A) (A) (A) (A) (A) (A) (A) (A) (A) (A) (A) (A)
                 (A) (A) (A) (A) (A) (A) (A) (A) (A) (A) (A) (A)
                 (A) (A) (A) (A) (A) (A) (A) (A) (A) (A) (A) (A)
                 (A) (A) (A) (A) (A) (A) (A) (A) (A) (A) (A) (A)
                 (A) (A) (A) (A) (A) (A) (A) (A) (A) (A) (A) (A)
                 (A) (A) (A) (A) (A) (A) (A) (A) (A) (A) (A) (A)
                 (A) (A) (A) (A) (A) (A) (A) (A) (A) (A) (A) (A)
                 (A) (A) (A) (A) (A) (A) (A) (A) (A) (A) (A) (A)
                 (A) (A) (A) (A) (A) (A) (A) (A) (A) (A) (A) (A)
                 (A) (A) (A) (A) (A) (A) (A) (A) (A) (A) (A) (A)
                 (A) (A) (A) (A) (A) (A) (A) (A) (A) (A) (A) (A)
                 (A) (A) (A) (A) (A) (A) (A) (A) (A) (A) (A) (A)
                 (A) (A) (A) (A) (A) (A) (A) (A) (A) (A) (A) (A)
                 (A) (A) (A) (A) (A) (A) (A) (A) (A) (A) (A) (A)
                 (A) (A) (A) (A) (A) (A) (A) (A) (A) (A) (A) (A)
                 (A) (A) (A) (A) (A) (A) (A) (A) (A) (A) (A) (A)
                 (A) (A) (A) (A) (A) (A) (A) (A) (A) (A) (A) (A)
                 (A) (A) (A) (A) (A) (A) (A) (A) (A) (A) (A) (A)
                 (A) (A) (A) (A) (A) (A) (A) (A) (A) (A) (A) (A)
                 (A) (A) (A) (A) (A) (A) (A) (A) (A) (A) (A) (A)
                 (A) (A) (A) (A) (A) (A) (A) (A) (A) (A) (A) (A)
                 (A) (A) (A) (A) (A) (A) (A) (A) (A) (A) (A) (A)
                 (A) (A) (A) (A) (A) (A) (A) (A) (A) (A) (A) (A)
                 (A) (A) (A) (A) (A) (A) (A) (A) (A) (A) (A) (A)
                 (A) (A) (A) (A) (A) (A) (A) (A) (A) (A) (A) (A)
                 (A) (A) (A) (A) (A) (A) (A) (A) (A) (A) (A) (A)
                 (A) (A) (A) (A) (A) (A) (A) (A) (A) (A) (A) (A)
                 (A) (A) (A) (A) (A) (A) (A) (A) (A) (A) (A) (A)
                 (A) (A) (A) (A) (A) (A) (A) (A) (A) (A) (A) (A)
                 (A) (A) (A) (A) (A) (A) (A) (A) (A) (A) (A) (A)
                 (A) (A) (A) (A) (A) (A) (A) (A) (A) (A) (A) (A)
                 (A) (A) (A) (A) (A) (A) (A) (A) (A) (A) (A) (A)
                 (A) (A) (A) (A) (A) (A) (A) (A) (A) (A) (A) (A)
                 (A) (A) (A) (A) (A) (A) (A) (A) (A) (A) (A) (A)
                 (A) (A) (A) (A) (A) (A) (A) (A) (A) (A) (A) (A)
                 (A) (A) (A) (A) (A) (A) (A) (A) (A) (A) (A) (A)
                 (A) (A) (A) (A) (A) (A) (A) (A) (A) (A) (A) (A)
                 (A) (A) (A) (A) (A) (A) (A) (A) (A) (A) (A) (A)
                 (A) (A) (A) (A) (A) (A) (A) (A) (A) (A) (A) (A)
                 (A) (A) (A) (A) (A) (A) (A) (A) (A) (A) (A) (A)
                 (A) (A) (A) (A) (A) (A) (A) (A) (A) (A) (A) (A)
                 (A) (A) (A) (A) (A) (A) (A) (A) (A) (A) (A) (A)
                 (A) (A) (A) (A) (A) (A) (A) (A) (A) (A) (A) (A)
                 (A) (A) (A) (A) (A) (A) (A) (A) (A) (A) (A) (A)
                 (A) (A) (A) (A) (A) (A) (A) (A) (A) (A) (A) (A)
                 (A) (A) (A) (A) (A) (A) (A) (A) (A) (A) (A) (A)
                 (A) (A) (A) (A) (A) (A) (A) (A) (A) (A) (A) (A)
                 (A) (A) (A) (A) (A) (A) (A) (A) (A) (A) (A) (A)
                 (A) (A) (A) (A) (A) (A) (A) (A) (A) (A) (A) (A)
                 (A) (A) (A) (A) (A) (A) (A) (A) (A) (A) (A) (A)
                 (A) (A) (A) (A) (A) (A) (A) (A) (A) (A) (A) (A)
                 (A) (A) (A) (A) (A) (A) (A) (A) (A) (A) (A) (A)
                 (A) (A) (A) (A) (A) (A) (A) (A) (A) (A) (A) (A)
                 (A) (A) (A) (A) (A) (A) (A) (A) (A) (A) (A) (A)
                 (A) (A) (A) (A) (A) (A) (A) (A) (A) (A) (A) (A)
                 (A) (A) (A) (A) (A) (A) (A) (A) (A) (A) (A) (A)
                 (A) (A) (A) (A) (A) (A) (A) (A) (A) (A) (A) (A)
                 (A) (A) (A) (A) (A) (A) (A) (A) (A) (A) (A) (A)
                 (A) (A) (A) (A) (A) (A) (A) (A) (A) (A) (A) (A)
                 (A) (A) (A) (A) (A) (A) (A) (A) (A) (A) (A) (A)
                 (A) (A) (A) (A) (A) (A) (A) (A) (A) (A) (A) (A)
                 (A) (A) (A) (A) (A) (A) (A) (A) (A) (A) (A) (A)
                 (A) (A) (A) (A) (A) (A) (A) (A) (A) (A) (A) (A)
                 (A) (A) (A) (A) (A) (A) (A) (A) (A) (A) (A) (A)
                 (A) (A) (A) (A) (A) (A) (A) (A) (A) (A) (A) (A)
                 (A) (A) (A) (A) (A) (A) (A) (A) (A) (A) (A) (A)
                 (A) (A) (A) (A) (A) (A) (A) (A) (A) (A) (A) (A)
                 (A) (A) (A) (A) (A) (A) (A) (A) (A) (A) (A) (A)
                 (A) (A) (A) (A) (A) (A) (A) (A) (A) (A) (A) (A)
                 (A) (A) (A) (A) (A) (A) (A) (A) (A) (A) (A) (A)
                 (A) (A) (A) (A) (A) (A) (A) (A) (A) (A) (A) (A)
                 (A) (A) (A) (A) (A) (A) (A) (A) (A) (A) (A) (A)
                 (A) (A) (A) (A) (A) (A) (A) (A) (A) (A) (A) (A)
                 (A) (A) (A) (A) (A) (A) (A) (A) (A) (A) (A) (A)
                 (A) (A) (A) (A) (A) (A) (A) (A) (A) (A) (A) (A)
                 (A) (A) (A) (A) (A) (A) (A) (A) (A) (A) (A) (A)
                 (A) (A) (A) (A) (A) (A) (A) (A) (A) (A) (A) (A)
                 (A) (A) (A) (A) (A) (A) (A) (A) (A) (A) (A) (A)
                 (A) (A) (A) (A) (A) (A) (A) (A) (A) (A) (A) (A)
                 (A) (A) (A) (A) (A) (A) (A) (A) (A) (A) (A) (A)
                 (A) (A) (A) (A) (A) (A) (A) (A) (A) (A) (A) (A)
                 (A) (A) (A) (A) (A) (A) (A) (A) (A) (A) (A) (A)
                 (A) (A) (A) (A) (A) (A) (A) (A) (A) (A) (A) (A)
                 (A) (A) (A) (A) (A) (A) (A) (A) (A) (A) (A) (A)
                 (A) (A) (A) (A) (A) (A) (A) (A) (A) (A) (A) (A)
                 (A) (A) (A) (A) (A) (A) (A) (A) (A) (A) (A) (A)
                 (A) (A) (A) (A) (A) (A) (A) (A) (A) (A) (A) (A)
                 (A) (A) (A) (A) (A) (A) (A) (A) (A) (A) (A) (A)
                 (A) (A) (A) (A) (A) (A) (A) (A) (A) (A) (A) (A)
                 (A) (A) (A) (A) (A) (A) (A) (A) (A) (A) (A) (A)
                 (A) (A) (A) (A) (A) (A) (A) (A) (A) (A) (A) (A)
                 (A) (A) (A) (A) (A) (A) (A) (A) (A) (A) (A) (A)
                 (A) (A) (A) (A) (A) (A) (A) (A) (A) (A) (A) (A)
                 (A) (A) (A) (A) (A) (A) (A) (A) (A) (A) (A) (A)
                 (A) (A) (A) (A) (A) (A) (A) (A) (A) (A) (A) (A)
                 (A) (A) (A) (A) (A) (A) (A) (A) (A) (A) (A) (A)
                 (A) (A) (A) (A) (A) (A) (A) (A) (A) (A) (A) (A)
                 (A) (A) (A) (A) (A) (A) (A) (A) (A) (A) (A) (A)
                 (A) (A) (A) (A) (A) (A) (A) (A) (A) (A) (A) (A)
                 (A) (A) (A) (A) (A) (A) (A) (A) (A) (A) (A) (A)
                 (A) (A) (A) (A) (A) (A) (A) (A) (A) (A) (A) (A)
                 (A) (A) (A) (A) (A) (A) (A) (A) (A) (A) (A) (A)
                 (A) (A) (A) (A) (A) (A) (A) (A) (A) (A) (A) (A)
                 (A) (A) (A) (A) (A) (A) (A) (A) (A) (A) (A) (A)
                 (A) (A) (A) (A) (A) (A) (A) (A) (A) (A) (A) (A)
                 (A) (A) (A) (A) (A) (A) (A) (A) (A) (A) (A) (A)
                 (A) (A) (A) (A) (A) (A) (A) (A) (A) (A) (A) (A)
                 (A) (A) (A) (A) (A) (A) (A) (A) (A) (A) (A)
 Beta  Orbitals:
       Occupied  (A) (A) (A) (A) (A) (A) (A) (A) (A) (A) (A) (A)
                 (A) (A) (A) (A) (A) (A) (A) (A) (A) (A) (A) (A)
                 (A) (A) (A) (A) (A) (A) (A) (A) (A) (A) (A) (A)
                 (A) (A) (A) (A) (A) (A) (A) (A) (A) (A) (A) (A)
                 (A) (A) (A) (A) (A) (A) (A) (A) (A) (A) (A) (A)
                 (A) (A) (A) (A) (A) (A) (A) (A) (A) (A) (A) (A)
                 (A) (A) (A) (A) (A) (A) (A) (A) (A) (A) (A) (A)
                 (A) (A) (A) (A) (A) (A) (A) (A) (A) (A) (A) (A)
                 (A) (A) (A) (A) (A) (A) (A) (A) (A) (A) (A) (A)
                 (A) (A) (A) (A) (A) (A) (A) (A) (A) (A) (A) (A)
                 (A) (A) (A) (A) (A) (A) (A) (A) (A) (A) (A) (A)
                 (A) (A) (A) (A) (A) (A) (A) (A) (A) (A) (A) (A)
                 (A) (A) (A) (A) (A) (A) (A) (A) (A) (A) (A) (A)
                 (A) (A) (A) (A) (A) (A) (A) (A) (A) (A) (A) (A)
                 (A) (A) (A) (A) (A) (A) (A) (A) (A) (A) (A) (A)
                 (A) (A) (A) (A) (A) (A) (A) (A) (A) (A) (A) (A)
                 (A) (A)
       Virtual   (A) (A) (A) (A) (A) (A) (A) (A) (A) (A) (A) (A)
                 (A) (A) (A) (A) (A) (A) (A) (A) (A) (A) (A) (A)
                 (A) (A) (A) (A) (A) (A) (A) (A) (A) (A) (A) (A)
                 (A) (A) (A) (A) (A) (A) (A) (A) (A) (A) (A) (A)
                 (A) (A) (A) (A) (A) (A) (A) (A) (A) (A) (A) (A)
                 (A) (A) (A) (A) (A) (A) (A) (A) (A) (A) (A) (A)
                 (A) (A) (A) (A) (A) (A) (A) (A) (A) (A) (A) (A)
                 (A) (A) (A) (A) (A) (A) (A) (A) (A) (A) (A) (A)
                 (A) (A) (A) (A) (A) (A) (A) (A) (A) (A) (A) (A)
                 (A) (A) (A) (A) (A) (A) (A) (A) (A) (A) (A) (A)
                 (A) (A) (A) (A) (A) (A) (A) (A) (A) (A) (A) (A)
                 (A) (A) (A) (A) (A) (A) (A) (A) (A) (A) (A) (A)
                 (A) (A) (A) (A) (A) (A) (A) (A) (A) (A) (A) (A)
                 (A) (A) (A) (A) (A) (A) (A) (A) (A) (A) (A) (A)
                 (A) (A) (A) (A) (A) (A) (A) (A) (A) (A) (A) (A)
                 (A) (A) (A) (A) (A) (A) (A) (A) (A) (A) (A) (A)
                 (A) (A) (A) (A) (A) (A) (A) (A) (A) (A) (A) (A)
                 (A) (A) (A) (A) (A) (A) (A) (A) (A) (A) (A) (A)
                 (A) (A) (A) (A) (A) (A) (A) (A) (A) (A) (A) (A)
                 (A) (A) (A) (A) (A) (A) (A) (A) (A) (A) (A) (A)
                 (A) (A) (A) (A) (A) (A) (A) (A) (A) (A) (A) (A)
                 (A) (A) (A) (A) (A) (A) (A) (A) (A) (A) (A) (A)
                 (A) (A) (A) (A) (A) (A) (A) (A) (A) (A) (A) (A)
                 (A) (A) (A) (A) (A) (A) (A) (A) (A) (A) (A) (A)
                 (A) (A) (A) (A) (A) (A) (A) (A) (A) (A) (A) (A)
                 (A) (A) (A) (A) (A) (A) (A) (A) (A) (A) (A) (A)
                 (A) (A) (A) (A) (A) (A) (A) (A) (A) (A) (A) (A)
                 (A) (A) (A) (A) (A) (A) (A) (A) (A) (A) (A) (A)
                 (A) (A) (A) (A) (A) (A) (A) (A) (A) (A) (A) (A)
                 (A) (A) (A) (A) (A) (A) (A) (A) (A) (A) (A) (A)
                 (A) (A) (A) (A) (A) (A) (A) (A) (A) (A) (A) (A)
                 (A) (A) (A) (A) (A) (A) (A) (A) (A) (A) (A) (A)
                 (A) (A) (A) (A) (A) (A) (A) (A) (A) (A) (A) (A)
                 (A) (A) (A) (A) (A) (A) (A) (A) (A) (A) (A) (A)
                 (A) (A) (A) (A) (A) (A) (A) (A) (A) (A) (A) (A)
                 (A) (A) (A) (A) (A) (A) (A) (A) (A) (A) (A) (A)
                 (A) (A) (A) (A) (A) (A) (A) (A) (A) (A) (A) (A)
                 (A) (A) (A) (A) (A) (A) (A) (A) (A) (A) (A) (A)
                 (A) (A) (A) (A) (A) (A) (A) (A) (A) (A) (A) (A)
                 (A) (A) (A) (A) (A) (A) (A) (A) (A) (A) (A) (A)
                 (A) (A) (A) (A) (A) (A) (A) (A) (A) (A) (A) (A)
                 (A) (A) (A) (A) (A) (A) (A) (A) (A) (A) (A) (A)
                 (A) (A) (A) (A) (A) (A) (A) (A) (A) (A) (A) (A)
                 (A) (A) (A) (A) (A) (A) (A) (A) (A) (A) (A) (A)
                 (A) (A) (A) (A) (A) (A) (A) (A) (A) (A) (A) (A)
                 (A) (A) (A) (A) (A) (A) (A) (A) (A) (A) (A) (A)
                 (A) (A) (A) (A) (A) (A) (A) (A) (A) (A) (A) (A)
                 (A) (A) (A) (A) (A) (A) (A) (A) (A) (A) (A) (A)
                 (A) (A) (A) (A) (A) (A) (A) (A) (A) (A) (A) (A)
                 (A) (A) (A) (A) (A) (A) (A) (A) (A) (A) (A) (A)
                 (A) (A) (A) (A) (A) (A) (A) (A) (A) (A) (A) (A)
                 (A) (A) (A) (A) (A) (A) (A) (A) (A) (A) (A) (A)
                 (A) (A) (A) (A) (A) (A) (A) (A) (A) (A) (A) (A)
                 (A) (A) (A) (A) (A) (A) (A) (A) (A) (A) (A) (A)
                 (A) (A) (A) (A) (A) (A) (A) (A) (A) (A) (A) (A)
                 (A) (A) (A) (A) (A) (A) (A) (A) (A) (A) (A) (A)
                 (A) (A) (A) (A) (A) (A) (A) (A) (A) (A) (A) (A)
                 (A) (A) (A) (A) (A) (A) (A) (A) (A) (A) (A) (A)
                 (A) (A) (A) (A) (A) (A) (A) (A) (A) (A) (A) (A)
                 (A) (A) (A) (A) (A) (A) (A) (A) (A) (A) (A) (A)
                 (A) (A) (A) (A) (A) (A) (A) (A) (A) (A) (A) (A)
                 (A) (A) (A) (A) (A) (A) (A) (A) (A) (A) (A) (A)
                 (A) (A) (A) (A) (A) (A) (A) (A) (A) (A) (A) (A)
                 (A) (A) (A) (A) (A) (A) (A) (A) (A) (A) (A) (A)
                 (A) (A) (A) (A) (A) (A) (A) (A) (A) (A) (A) (A)
                 (A) (A) (A) (A) (A) (A) (A) (A) (A) (A) (A) (A)
                 (A) (A) (A) (A) (A) (A) (A) (A) (A) (A) (A) (A)
                 (A) (A) (A) (A) (A) (A) (A) (A) (A) (A) (A) (A)
                 (A) (A) (A) (A) (A) (A) (A) (A) (A) (A) (A) (A)
                 (A) (A) (A) (A) (A) (A) (A) (A) (A) (A) (A) (A)
                 (A) (A) (A) (A) (A) (A) (A) (A) (A) (A) (A) (A)
                 (A) (A) (A) (A) (A) (A) (A) (A) (A) (A) (A) (A)
                 (A) (A) (A) (A) (A) (A) (A) (A) (A) (A) (A) (A)
                 (A) (A) (A) (A) (A) (A) (A) (A) (A) (A) (A) (A)
                 (A) (A) (A) (A) (A) (A) (A) (A) (A) (A) (A) (A)
                 (A) (A) (A) (A) (A) (A) (A) (A) (A) (A) (A) (A)
                 (A) (A) (A) (A) (A) (A) (A) (A) (A) (A) (A) (A)
                 (A) (A) (A) (A) (A) (A) (A) (A) (A) (A) (A) (A)
                 (A) (A) (A) (A) (A) (A) (A) (A) (A) (A) (A) (A)
                 (A) (A) (A) (A) (A) (A) (A) (A) (A) (A) (A) (A)
                 (A) (A) (A) (A) (A) (A) (A) (A) (A) (A) (A) (A)
                 (A) (A) (A) (A) (A) (A) (A) (A) (A) (A) (A) (A)
                 (A) (A) (A) (A) (A) (A) (A) (A) (A) (A) (A) (A)
                 (A) (A) (A) (A) (A) (A) (A) (A) (A) (A) (A) (A)
                 (A) (A) (A) (A) (A) (A) (A) (A) (A) (A) (A) (A)
                 (A) (A) (A) (A) (A) (A) (A) (A) (A) (A) (A) (A)
                 (A) (A) (A) (A) (A) (A) (A) (A) (A) (A) (A) (A)
                 (A) (A) (A) (A) (A) (A) (A) (A) (A) (A) (A) (A)
                 (A) (A) (A) (A) (A) (A) (A) (A) (A) (A) (A) (A)
                 (A) (A) (A) (A) (A) (A) (A) (A) (A) (A) (A) (A)
                 (A) (A) (A) (A) (A) (A) (A) (A) (A) (A) (A) (A)
                 (A) (A) (A) (A) (A) (A) (A) (A) (A) (A) (A) (A)
                 (A) (A) (A) (A) (A) (A) (A) (A) (A) (A) (A) (A)
                 (A) (A) (A) (A) (A) (A) (A) (A) (A) (A) (A) (A)
                 (A) (A) (A) (A) (A) (A) (A) (A) (A) (A) (A) (A)
                 (A) (A) (A) (A) (A) (A) (A) (A) (A) (A) (A) (A)
                 (A) (A) (A) (A) (A) (A) (A) (A) (A) (A) (A) (A)
                 (A) (A) (A) (A) (A) (A) (A) (A) (A) (A) (A) (A)
                 (A) (A) (A) (A) (A) (A) (A) (A) (A) (A) (A) (A)
                 (A) (A) (A) (A) (A) (A) (A) (A) (A) (A) (A) (A)
                 (A) (A) (A) (A) (A) (A) (A) (A) (A) (A) (A) (A)
                 (A) (A) (A) (A) (A) (A) (A) (A) (A) (A) (A) (A)
                 (A) (A) (A) (A) (A) (A) (A) (A) (A) (A) (A) (A)
                 (A) (A) (A) (A) (A) (A) (A) (A) (A) (A) (A) (A)
                 (A) (A) (A) (A) (A) (A) (A) (A) (A) (A) (A) (A)
                 (A) (A) (A) (A) (A) (A) (A) (A) (A) (A) (A) (A)
                 (A) (A) (A) (A) (A) (A) (A) (A) (A) (A) (A) (A)
                 (A) (A) (A) (A) (A) (A) (A) (A) (A) (A) (A) (A)
                 (A) (A) (A) (A) (A) (A) (A) (A) (A) (A) (A) (A)
                 (A) (A) (A) (A) (A) (A) (A) (A) (A) (A) (A) (A)
                 (A) (A) (A) (A) (A) (A) (A) (A) (A) (A) (A) (A)
                 (A) (A) (A) (A) (A) (A) (A) (A) (A) (A) (A) (A)
                 (A) (A) (A) (A) (A) (A) (A) (A) (A) (A) (A) (A)
                 (A) (A) (A) (A) (A) (A) (A) (A) (A) (A) (A) (A)
                 (A) (A) (A) (A) (A) (A) (A) (A) (A) (A) (A) (A)
                 (A) (A) (A) (A) (A) (A) (A) (A) (A) (A) (A) (A)
                 (A) (A) (A) (A) (A) (A) (A) (A) (A) (A) (A) (A)
                 (A) (A) (A) (A) (A) (A) (A) (A) (A) (A) (A) (A)
                 (A) (A) (A) (A) (A) (A) (A) (A) (A) (A) (A) (A)
                 (A) (A) (A) (A) (A) (A) (A) (A) (A) (A) (A) (A)
                 (A) (A) (A) (A) (A) (A) (A) (A) (A) (A) (A) (A)
                 (A) (A) (A) (A) (A) (A) (A) (A) (A) (A) (A) (A)
                 (A) (A) (A) (A) (A) (A) (A) (A) (A) (A) (A) (A)
                 (A) (A) (A) (A) (A) (A) (A) (A) (A) (A) (A) (A)
                 (A) (A) (A) (A) (A) (A) (A) (A) (A) (A) (A) (A)
                 (A) (A) (A) (A) (A) (A) (A) (A) (A) (A) (A) (A)
                 (A) (A) (A) (A) (A) (A) (A) (A) (A) (A) (A) (A)
                 (A) (A) (A) (A) (A) (A) (A) (A) (A) (A) (A) (A)
                 (A) (A) (A) (A) (A) (A) (A) (A) (A) (A) (A) (A)
                 (A) (A) (A) (A) (A) (A) (A) (A) (A) (A) (A) (A)
                 (A) (A) (A) (A) (A) (A) (A) (A) (A) (A) (A) (A)
                 (A) (A) (A) (A) (A) (A) (A) (A) (A) (A) (A) (A)
                 (A) (A) (A) (A) (A) (A) (A) (A) (A) (A) (A) (A)
                 (A) (A) (A) (A) (A) (A) (A) (A) (A) (A) (A) (A)
                 (A) (A) (A) (A) (A) (A) (A) (A) (A) (A) (A) (A)
                 (A) (A) (A) (A) (A) (A) (A) (A) (A) (A) (A) (A)
                 (A) (A) (A) (A) (A) (A) (A) (A) (A) (A) (A) (A)
                 (A) (A) (A) (A) (A) (A) (A) (A) (A) (A) (A) (A)
                 (A) (A) (A)
 The electronic state is 5-A.
 Alpha  occ. eigenvalues -- -256.33795 -88.96771 -30.12611 -25.95597 -25.94951
 Alpha  occ. eigenvalues --  -25.93978 -19.28364 -19.25841 -19.19470 -19.17437
 Alpha  occ. eigenvalues --  -14.45259 -14.39052 -14.38378 -14.38154 -14.37937
 Alpha  occ. eigenvalues --  -14.37781 -10.36136 -10.35591 -10.28360 -10.26375
 Alpha  occ. eigenvalues --  -10.26259 -10.26221 -10.26083 -10.26036 -10.25868
 Alpha  occ. eigenvalues --  -10.25597 -10.25518 -10.25343 -10.25311 -10.25154
 Alpha  occ. eigenvalues --  -10.24883 -10.24722 -10.24165 -10.24108 -10.24070
 Alpha  occ. eigenvalues --  -10.24044 -10.24038 -10.23974 -10.23971 -10.23763
 Alpha  occ. eigenvalues --  -10.23648 -10.23531 -10.23436 -10.23315 -10.23019
 Alpha  occ. eigenvalues --  -10.22998 -10.22742 -10.22614 -10.22467 -10.22315
 Alpha  occ. eigenvalues --  -10.21958 -10.21837 -10.21826 -10.21676 -10.21445
 Alpha  occ. eigenvalues --   -7.95306  -5.88939  -5.88572  -5.88184  -3.51696
 Alpha  occ. eigenvalues --   -2.30384  -2.28111  -2.24804  -1.18374  -1.15318
 Alpha  occ. eigenvalues --   -1.07014  -1.03879  -1.02691  -0.98921  -0.97737
 Alpha  occ. eigenvalues --   -0.97525  -0.96565  -0.91035  -0.85119  -0.84518
 Alpha  occ. eigenvalues --   -0.84363  -0.82269  -0.81989  -0.81883  -0.81651
 Alpha  occ. eigenvalues --   -0.81290  -0.80365  -0.79885  -0.79113  -0.77110
 Alpha  occ. eigenvalues --   -0.76508  -0.75570  -0.74116  -0.73514  -0.73119
 Alpha  occ. eigenvalues --   -0.72386  -0.71348  -0.71016  -0.70235  -0.70111
 Alpha  occ. eigenvalues --   -0.68799  -0.67694  -0.66531  -0.66465  -0.65321
 Alpha  occ. eigenvalues --   -0.65137  -0.63689  -0.62768  -0.61858  -0.60247
 Alpha  occ. eigenvalues --   -0.58821  -0.57323  -0.57040  -0.56091  -0.55533
 Alpha  occ. eigenvalues --   -0.55102  -0.54336  -0.53470  -0.52959  -0.52608
 Alpha  occ. eigenvalues --   -0.52125  -0.51712  -0.50412  -0.49972  -0.49673
 Alpha  occ. eigenvalues --   -0.49383  -0.49280  -0.48603  -0.48422  -0.47995
 Alpha  occ. eigenvalues --   -0.47606  -0.47134  -0.47024  -0.46373  -0.46066
 Alpha  occ. eigenvalues --   -0.45566  -0.45403  -0.44972  -0.44897  -0.44615
 Alpha  occ. eigenvalues --   -0.44391  -0.44220  -0.43971  -0.43957  -0.43710
 Alpha  occ. eigenvalues --   -0.43561  -0.43435  -0.43106  -0.43020  -0.42940
 Alpha  occ. eigenvalues --   -0.42651  -0.42514  -0.41883  -0.41668  -0.41553
 Alpha  occ. eigenvalues --   -0.41333  -0.41069  -0.40827  -0.40721  -0.40394
 Alpha  occ. eigenvalues --   -0.40328  -0.39962  -0.39841  -0.39562  -0.39255
 Alpha  occ. eigenvalues --   -0.39002  -0.38987  -0.38563  -0.38534  -0.37604
 Alpha  occ. eigenvalues --   -0.37559  -0.36774  -0.36573  -0.36269  -0.36079
 Alpha  occ. eigenvalues --   -0.35735  -0.35095  -0.34168  -0.33893  -0.33474
 Alpha  occ. eigenvalues --   -0.33001  -0.32595  -0.32314  -0.31403  -0.29863
 Alpha  occ. eigenvalues --   -0.29521  -0.29288  -0.28557  -0.28035  -0.27454
 Alpha  occ. eigenvalues --   -0.27317  -0.25635  -0.24941  -0.24807  -0.24356
 Alpha  occ. eigenvalues --   -0.23889  -0.22708  -0.21208  -0.20781  -0.20010
 Alpha  occ. eigenvalues --   -0.19572  -0.18841  -0.17632
 Alpha virt. eigenvalues --   -0.09240  -0.07379  -0.06910  -0.02248  -0.01777
 Alpha virt. eigenvalues --   -0.01261  -0.00646   0.01244   0.01767   0.01931
 Alpha virt. eigenvalues --    0.02304   0.03513   0.03899   0.04322   0.04461
 Alpha virt. eigenvalues --    0.04742   0.04974   0.05323   0.06076   0.06256
 Alpha virt. eigenvalues --    0.06362   0.06521   0.06624   0.06974   0.07381
 Alpha virt. eigenvalues --    0.07869   0.08372   0.08431   0.08899   0.09454
 Alpha virt. eigenvalues --    0.09658   0.09873   0.09959   0.10232   0.10569
 Alpha virt. eigenvalues --    0.10631   0.11015   0.11288   0.11814   0.11987
 Alpha virt. eigenvalues --    0.12061   0.12393   0.12587   0.12825   0.12926
 Alpha virt. eigenvalues --    0.13104   0.13309   0.13430   0.13542   0.13591
 Alpha virt. eigenvalues --    0.13744   0.13939   0.14027   0.14169   0.14497
 Alpha virt. eigenvalues --    0.14757   0.14827   0.14884   0.15103   0.15241
 Alpha virt. eigenvalues --    0.15641   0.15800   0.15936   0.16257   0.16561
 Alpha virt. eigenvalues --    0.16781   0.17025   0.17213   0.17524   0.17581
 Alpha virt. eigenvalues --    0.17972   0.18068   0.18326   0.18524   0.18706
 Alpha virt. eigenvalues --    0.19161   0.19379   0.19819   0.20166   0.20396
 Alpha virt. eigenvalues --    0.20452   0.20822   0.20985   0.20987   0.21103
 Alpha virt. eigenvalues --    0.21510   0.21532   0.21819   0.22164   0.22298
 Alpha virt. eigenvalues --    0.22432   0.22616   0.22751   0.23014   0.23176
 Alpha virt. eigenvalues --    0.23429   0.23535   0.23749   0.24091   0.24173
 Alpha virt. eigenvalues --    0.24442   0.24588   0.24648   0.25103   0.25224
 Alpha virt. eigenvalues --    0.25443   0.25523   0.25812   0.25935   0.26103
 Alpha virt. eigenvalues --    0.26197   0.26295   0.26740   0.27058   0.27154
 Alpha virt. eigenvalues --    0.27477   0.27583   0.27619   0.27949   0.28183
 Alpha virt. eigenvalues --    0.28255   0.28630   0.28863   0.29052   0.29168
 Alpha virt. eigenvalues --    0.29654   0.29852   0.30011   0.30311   0.30520
 Alpha virt. eigenvalues --    0.30861   0.30941   0.31308   0.31453   0.31820
 Alpha virt. eigenvalues --    0.32029   0.32134   0.32491   0.32954   0.33095
 Alpha virt. eigenvalues --    0.33525   0.33606   0.33648   0.34030   0.34365
 Alpha virt. eigenvalues --    0.34617   0.34891   0.35077   0.35343   0.35591
 Alpha virt. eigenvalues --    0.35621   0.35938   0.36282   0.36366   0.36564
 Alpha virt. eigenvalues --    0.36680   0.36857   0.37345   0.37532   0.37641
 Alpha virt. eigenvalues --    0.37752   0.38203   0.38346   0.38488   0.38624
 Alpha virt. eigenvalues --    0.38831   0.39085   0.39299   0.39488   0.39568
 Alpha virt. eigenvalues --    0.39997   0.40330   0.40494   0.40649   0.40775
 Alpha virt. eigenvalues --    0.41105   0.41210   0.41272   0.41542   0.41853
 Alpha virt. eigenvalues --    0.42128   0.42290   0.42341   0.42618   0.42902
 Alpha virt. eigenvalues --    0.42949   0.43294   0.43443   0.43566   0.43870
 Alpha virt. eigenvalues --    0.43957   0.44206   0.44405   0.44475   0.44785
 Alpha virt. eigenvalues --    0.44958   0.45050   0.45295   0.45313   0.45451
 Alpha virt. eigenvalues --    0.45525   0.45889   0.46093   0.46411   0.46585
 Alpha virt. eigenvalues --    0.46693   0.46875   0.47010   0.47169   0.47418
 Alpha virt. eigenvalues --    0.47451   0.47618   0.47758   0.48012   0.48112
 Alpha virt. eigenvalues --    0.48211   0.48414   0.48463   0.48665   0.48762
 Alpha virt. eigenvalues --    0.48884   0.49252   0.49413   0.49471   0.49623
 Alpha virt. eigenvalues --    0.50096   0.50194   0.50433   0.50537   0.50815
 Alpha virt. eigenvalues --    0.51081   0.51207   0.51503   0.51665   0.51883
 Alpha virt. eigenvalues --    0.52059   0.52208   0.52299   0.52654   0.52794
 Alpha virt. eigenvalues --    0.53005   0.53114   0.53278   0.53722   0.54000
 Alpha virt. eigenvalues --    0.54103   0.54190   0.54425   0.54596   0.54732
 Alpha virt. eigenvalues --    0.55011   0.55280   0.55492   0.55741   0.56021
 Alpha virt. eigenvalues --    0.56299   0.56469   0.56531   0.56920   0.56998
 Alpha virt. eigenvalues --    0.57585   0.58048   0.58346   0.58414   0.58628
 Alpha virt. eigenvalues --    0.58797   0.59084   0.59209   0.59469   0.59808
 Alpha virt. eigenvalues --    0.59997   0.60231   0.60663   0.60788   0.60963
 Alpha virt. eigenvalues --    0.61193   0.61445   0.61576   0.61762   0.62128
 Alpha virt. eigenvalues --    0.62394   0.62576   0.62700   0.63133   0.63529
 Alpha virt. eigenvalues --    0.63694   0.63946   0.64463   0.64767   0.65024
 Alpha virt. eigenvalues --    0.65138   0.65685   0.66016   0.66226   0.66566
 Alpha virt. eigenvalues --    0.66702   0.66989   0.67293   0.67433   0.67729
 Alpha virt. eigenvalues --    0.67915   0.68256   0.68428   0.68785   0.68881
 Alpha virt. eigenvalues --    0.68917   0.69261   0.69733   0.69944   0.70141
 Alpha virt. eigenvalues --    0.70768   0.70806   0.71050   0.71649   0.71770
 Alpha virt. eigenvalues --    0.71916   0.72039   0.72372   0.72692   0.72871
 Alpha virt. eigenvalues --    0.73206   0.73393   0.74051   0.74197   0.74296
 Alpha virt. eigenvalues --    0.74642   0.74890   0.75323   0.75593   0.75854
 Alpha virt. eigenvalues --    0.76114   0.76520   0.77157   0.77384   0.77758
 Alpha virt. eigenvalues --    0.77793   0.78221   0.78391   0.78725   0.79130
 Alpha virt. eigenvalues --    0.79212   0.79579   0.79967   0.80236   0.80396
 Alpha virt. eigenvalues --    0.80683   0.80755   0.81123   0.81444   0.81781
 Alpha virt. eigenvalues --    0.82194   0.82361   0.82792   0.83005   0.83326
 Alpha virt. eigenvalues --    0.83498   0.84146   0.84344   0.84397   0.84877
 Alpha virt. eigenvalues --    0.85082   0.85559   0.85849   0.86189   0.86441
 Alpha virt. eigenvalues --    0.86687   0.86794   0.87221   0.87749   0.87874
 Alpha virt. eigenvalues --    0.88301   0.88671   0.89110   0.89281   0.89824
 Alpha virt. eigenvalues --    0.89916   0.90094   0.90412   0.90620   0.91032
 Alpha virt. eigenvalues --    0.91147   0.91525   0.91629   0.91865   0.92400
 Alpha virt. eigenvalues --    0.92610   0.92827   0.93009   0.93091   0.93426
 Alpha virt. eigenvalues --    0.93992   0.94243   0.94511   0.94664   0.94794
 Alpha virt. eigenvalues --    0.95353   0.95625   0.95892   0.95941   0.96204
 Alpha virt. eigenvalues --    0.96840   0.96925   0.97236   0.97358   0.97431
 Alpha virt. eigenvalues --    0.97646   0.98091   0.98383   0.98553   0.98903
 Alpha virt. eigenvalues --    0.99064   0.99315   0.99851   0.99998   1.00166
 Alpha virt. eigenvalues --    1.00746   1.01127   1.01371   1.01537   1.01675
 Alpha virt. eigenvalues --    1.02097   1.02453   1.02658   1.02842   1.02991
 Alpha virt. eigenvalues --    1.03604   1.03721   1.03939   1.04440   1.04542
 Alpha virt. eigenvalues --    1.04817   1.05212   1.05248   1.05617   1.06194
 Alpha virt. eigenvalues --    1.06774   1.06973   1.07034   1.07556   1.07673
 Alpha virt. eigenvalues --    1.08085   1.08450   1.08648   1.08872   1.09229
 Alpha virt. eigenvalues --    1.09267   1.09635   1.10376   1.10458   1.10938
 Alpha virt. eigenvalues --    1.11106   1.11568   1.11848   1.12459   1.12889
 Alpha virt. eigenvalues --    1.13047   1.13162   1.13469   1.13692   1.14163
 Alpha virt. eigenvalues --    1.14714   1.14956   1.15769   1.16045   1.16352
 Alpha virt. eigenvalues --    1.16577   1.16782   1.17220   1.17280   1.17496
 Alpha virt. eigenvalues --    1.18512   1.18859   1.19172   1.19833   1.20053
 Alpha virt. eigenvalues --    1.20321   1.20898   1.21356   1.21934   1.21996
 Alpha virt. eigenvalues --    1.22516   1.22780   1.22951   1.23124   1.23486
 Alpha virt. eigenvalues --    1.23685   1.24055   1.24850   1.25088   1.25345
 Alpha virt. eigenvalues --    1.25523   1.26080   1.26330   1.26482   1.26966
 Alpha virt. eigenvalues --    1.27225   1.27473   1.27909   1.28101   1.28569
 Alpha virt. eigenvalues --    1.29027   1.29326   1.29421   1.29594   1.30151
 Alpha virt. eigenvalues --    1.30636   1.30943   1.31315   1.32128   1.32432
 Alpha virt. eigenvalues --    1.32566   1.32607   1.33241   1.33498   1.34058
 Alpha virt. eigenvalues --    1.34230   1.34594   1.34974   1.35715   1.36507
 Alpha virt. eigenvalues --    1.36935   1.37394   1.37769   1.37994   1.39082
 Alpha virt. eigenvalues --    1.39477   1.39598   1.39803   1.39973   1.40817
 Alpha virt. eigenvalues --    1.40991   1.41416   1.42207   1.42497   1.42790
 Alpha virt. eigenvalues --    1.42976   1.43573   1.44078   1.44908   1.45192
 Alpha virt. eigenvalues --    1.45315   1.45864   1.46055   1.46243   1.46962
 Alpha virt. eigenvalues --    1.47301   1.47756   1.48010   1.48263   1.48487
 Alpha virt. eigenvalues --    1.48892   1.49056   1.49246   1.49665   1.49708
 Alpha virt. eigenvalues --    1.50153   1.50400   1.50750   1.51061   1.51117
 Alpha virt. eigenvalues --    1.51294   1.51708   1.52080   1.52348   1.52416
 Alpha virt. eigenvalues --    1.52973   1.53098   1.53140   1.53357   1.53556
 Alpha virt. eigenvalues --    1.53840   1.54343   1.54741   1.54998   1.55152
 Alpha virt. eigenvalues --    1.55169   1.55849   1.56137   1.56333   1.56409
 Alpha virt. eigenvalues --    1.56778   1.56926   1.57125   1.57424   1.57804
 Alpha virt. eigenvalues --    1.58127   1.58359   1.58628   1.59036   1.59227
 Alpha virt. eigenvalues --    1.59513   1.59828   1.60139   1.60324   1.60412
 Alpha virt. eigenvalues --    1.60699   1.61121   1.61150   1.61581   1.61779
 Alpha virt. eigenvalues --    1.61802   1.62119   1.62322   1.62622   1.62805
 Alpha virt. eigenvalues --    1.63234   1.63427   1.63678   1.63895   1.64305
 Alpha virt. eigenvalues --    1.64515   1.64872   1.64930   1.65384   1.65619
 Alpha virt. eigenvalues --    1.65840   1.66343   1.66697   1.67004   1.67469
 Alpha virt. eigenvalues --    1.67531   1.67890   1.68293   1.68415   1.68920
 Alpha virt. eigenvalues --    1.69267   1.69594   1.69730   1.70109   1.70390
 Alpha virt. eigenvalues --    1.70548   1.70732   1.71129   1.71702   1.71816
 Alpha virt. eigenvalues --    1.72120   1.72240   1.72762   1.72882   1.73461
 Alpha virt. eigenvalues --    1.73718   1.74051   1.74449   1.74651   1.74864
 Alpha virt. eigenvalues --    1.75425   1.75615   1.75983   1.76507   1.77125
 Alpha virt. eigenvalues --    1.77317   1.77667   1.77802   1.78732   1.78998
 Alpha virt. eigenvalues --    1.79378   1.79468   1.79710   1.80140   1.80505
 Alpha virt. eigenvalues --    1.80992   1.81264   1.81567   1.81730   1.81983
 Alpha virt. eigenvalues --    1.82602   1.83258   1.83509   1.83701   1.84085
 Alpha virt. eigenvalues --    1.84344   1.84583   1.85211   1.85546   1.85777
 Alpha virt. eigenvalues --    1.85916   1.86313   1.86376   1.86900   1.87273
 Alpha virt. eigenvalues --    1.87539   1.88382   1.88726   1.89027   1.89396
 Alpha virt. eigenvalues --    1.89673   1.90278   1.90303   1.90561   1.90945
 Alpha virt. eigenvalues --    1.91800   1.91854   1.92352   1.92706   1.92827
 Alpha virt. eigenvalues --    1.93353   1.93612   1.93716   1.94015   1.94279
 Alpha virt. eigenvalues --    1.95157   1.95678   1.95868   1.96029   1.96360
 Alpha virt. eigenvalues --    1.96797   1.97212   1.97468   1.98213   1.98307
 Alpha virt. eigenvalues --    1.98656   1.98967   1.99157   1.99239   1.99893
 Alpha virt. eigenvalues --    2.00113   2.00452   2.00956   2.00997   2.01337
 Alpha virt. eigenvalues --    2.01941   2.02080   2.02195   2.02517   2.02775
 Alpha virt. eigenvalues --    2.03233   2.03638   2.03681   2.04464   2.04846
 Alpha virt. eigenvalues --    2.05491   2.05554   2.06059   2.06609   2.06831
 Alpha virt. eigenvalues --    2.07522   2.07655   2.08056   2.08138   2.08387
 Alpha virt. eigenvalues --    2.08944   2.09201   2.09665   2.09875   2.10210
 Alpha virt. eigenvalues --    2.10748   2.11247   2.11954   2.12003   2.12328
 Alpha virt. eigenvalues --    2.12668   2.13145   2.13401   2.13963   2.14246
 Alpha virt. eigenvalues --    2.14399   2.14686   2.15315   2.15465   2.15527
 Alpha virt. eigenvalues --    2.15572   2.16382   2.16654   2.16830   2.17165
 Alpha virt. eigenvalues --    2.17395   2.17867   2.18161   2.18527   2.19266
 Alpha virt. eigenvalues --    2.19729   2.20083   2.20280   2.20498   2.20832
 Alpha virt. eigenvalues --    2.21405   2.21545   2.22219   2.22395   2.22972
 Alpha virt. eigenvalues --    2.23170   2.23658   2.24086   2.24907   2.25138
 Alpha virt. eigenvalues --    2.25690   2.25802   2.26122   2.26537   2.26975
 Alpha virt. eigenvalues --    2.27161   2.27553   2.27580   2.28183   2.28671
 Alpha virt. eigenvalues --    2.29177   2.29321   2.30091   2.30350   2.30642
 Alpha virt. eigenvalues --    2.31027   2.31406   2.31918   2.32157   2.32803
 Alpha virt. eigenvalues --    2.33116   2.33235   2.33346   2.33564   2.34288
 Alpha virt. eigenvalues --    2.34675   2.35106   2.35168   2.35581   2.36167
 Alpha virt. eigenvalues --    2.36605   2.36998   2.37302   2.37610   2.37821
 Alpha virt. eigenvalues --    2.38413   2.38594   2.38683   2.39417   2.39680
 Alpha virt. eigenvalues --    2.39848   2.39963   2.40847   2.41273   2.41587
 Alpha virt. eigenvalues --    2.41827   2.42242   2.42764   2.43023   2.43251
 Alpha virt. eigenvalues --    2.43302   2.43565   2.44328   2.44747   2.45393
 Alpha virt. eigenvalues --    2.45586   2.45753   2.46378   2.46608   2.47290
 Alpha virt. eigenvalues --    2.47611   2.47755   2.48327   2.49026   2.49161
 Alpha virt. eigenvalues --    2.49252   2.50224   2.50562   2.50588   2.51125
 Alpha virt. eigenvalues --    2.51557   2.51900   2.52189   2.52308   2.52524
 Alpha virt. eigenvalues --    2.52942   2.53542   2.54086   2.54588   2.54766
 Alpha virt. eigenvalues --    2.55168   2.55774   2.56137   2.56382   2.56513
 Alpha virt. eigenvalues --    2.56861   2.57033   2.57371   2.57638   2.57738
 Alpha virt. eigenvalues --    2.58251   2.58427   2.58923   2.59168   2.59580
 Alpha virt. eigenvalues --    2.59681   2.59726   2.59846   2.60378   2.60589
 Alpha virt. eigenvalues --    2.60994   2.61197   2.61799   2.61946   2.62261
 Alpha virt. eigenvalues --    2.62524   2.62901   2.63107   2.63939   2.64439
 Alpha virt. eigenvalues --    2.64567   2.64873   2.65118   2.65399   2.65575
 Alpha virt. eigenvalues --    2.66157   2.66575   2.67039   2.67453   2.67736
 Alpha virt. eigenvalues --    2.67794   2.68310   2.68581   2.68892   2.69172
 Alpha virt. eigenvalues --    2.69674   2.70204   2.70504   2.70665   2.71159
 Alpha virt. eigenvalues --    2.71373   2.71466   2.72008   2.72270   2.72628
 Alpha virt. eigenvalues --    2.73258   2.73404   2.73975   2.74148   2.74233
 Alpha virt. eigenvalues --    2.74616   2.75271   2.75706   2.75736   2.76210
 Alpha virt. eigenvalues --    2.76596   2.77012   2.77281   2.77673   2.77854
 Alpha virt. eigenvalues --    2.78128   2.78732   2.78882   2.79099   2.79271
 Alpha virt. eigenvalues --    2.79508   2.79857   2.80148   2.80791   2.81159
 Alpha virt. eigenvalues --    2.81357   2.82077   2.82163   2.82591   2.82994
 Alpha virt. eigenvalues --    2.83690   2.84073   2.84333   2.84440   2.84838
 Alpha virt. eigenvalues --    2.85233   2.85948   2.86083   2.86689   2.86821
 Alpha virt. eigenvalues --    2.87298   2.87500   2.87782   2.88346   2.89080
 Alpha virt. eigenvalues --    2.89202   2.89694   2.89861   2.90169   2.90411
 Alpha virt. eigenvalues --    2.90809   2.90935   2.91617   2.91814   2.92225
 Alpha virt. eigenvalues --    2.92489   2.92649   2.93148   2.93287   2.93537
 Alpha virt. eigenvalues --    2.94346   2.94507   2.94632   2.94981   2.95185
 Alpha virt. eigenvalues --    2.95418   2.95827   2.96452   2.96625   2.96672
 Alpha virt. eigenvalues --    2.96915   2.97378   2.97569   2.98234   2.98351
 Alpha virt. eigenvalues --    2.98633   2.99023   2.99396   2.99717   2.99838
 Alpha virt. eigenvalues --    3.00276   3.00739   3.00843   3.01164   3.01598
 Alpha virt. eigenvalues --    3.01772   3.01851   3.02491   3.02609   3.02854
 Alpha virt. eigenvalues --    3.03013   3.03387   3.03746   3.04071   3.04211
 Alpha virt. eigenvalues --    3.04562   3.04862   3.05811   3.05950   3.06097
 Alpha virt. eigenvalues --    3.06555   3.06705   3.07021   3.07230   3.07556
 Alpha virt. eigenvalues --    3.07614   3.07736   3.08210   3.08439   3.08638
 Alpha virt. eigenvalues --    3.08970   3.09277   3.09921   3.10265   3.10350
 Alpha virt. eigenvalues --    3.10498   3.10678   3.10908   3.10996   3.11415
 Alpha virt. eigenvalues --    3.11820   3.12005   3.12260   3.12623   3.12763
 Alpha virt. eigenvalues --    3.13289   3.13402   3.13803   3.14216   3.14449
 Alpha virt. eigenvalues --    3.14753   3.15148   3.15558   3.15579   3.15905
 Alpha virt. eigenvalues --    3.16193   3.16578   3.16779   3.17088   3.17131
 Alpha virt. eigenvalues --    3.17564   3.17833   3.18131   3.18504   3.18692
 Alpha virt. eigenvalues --    3.19175   3.19465   3.19647   3.19967   3.20289
 Alpha virt. eigenvalues --    3.20652   3.20799   3.21090   3.21396   3.21641
 Alpha virt. eigenvalues --    3.21750   3.22111   3.22383   3.22526   3.22794
 Alpha virt. eigenvalues --    3.23270   3.23494   3.23607   3.24105   3.24205
 Alpha virt. eigenvalues --    3.24495   3.24769   3.25180   3.25343   3.25579
 Alpha virt. eigenvalues --    3.25744   3.26077   3.26207   3.26456   3.26835
 Alpha virt. eigenvalues --    3.27163   3.27366   3.27572   3.27761   3.27967
 Alpha virt. eigenvalues --    3.28242   3.28591   3.29129   3.29239   3.29382
 Alpha virt. eigenvalues --    3.30012   3.30355   3.30396   3.30900   3.31146
 Alpha virt. eigenvalues --    3.31434   3.31653   3.31887   3.32156   3.32354
 Alpha virt. eigenvalues --    3.32765   3.33306   3.33591   3.33717   3.33898
 Alpha virt. eigenvalues --    3.34234   3.34457   3.34892   3.35109   3.35222
 Alpha virt. eigenvalues --    3.35331   3.35537   3.35872   3.36075   3.36214
 Alpha virt. eigenvalues --    3.36551   3.36834   3.37032   3.37190   3.37423
 Alpha virt. eigenvalues --    3.37560   3.37603   3.37707   3.38115   3.38597
 Alpha virt. eigenvalues --    3.38802   3.39029   3.39324   3.39505   3.39981
 Alpha virt. eigenvalues --    3.40029   3.40223   3.40805   3.41263   3.41677
 Alpha virt. eigenvalues --    3.41761   3.41914   3.42396   3.42698   3.43210
 Alpha virt. eigenvalues --    3.43512   3.43633   3.43823   3.44158   3.44588
 Alpha virt. eigenvalues --    3.44787   3.44984   3.45234   3.45458   3.45487
 Alpha virt. eigenvalues --    3.46020   3.46366   3.46416   3.46845   3.47114
 Alpha virt. eigenvalues --    3.47201   3.47708   3.48053   3.48314   3.48578
 Alpha virt. eigenvalues --    3.48686   3.49540   3.49714   3.50070   3.50449
 Alpha virt. eigenvalues --    3.50517   3.51150   3.51302   3.51741   3.51823
 Alpha virt. eigenvalues --    3.52050   3.52713   3.53315   3.53786   3.53865
 Alpha virt. eigenvalues --    3.54284   3.54870   3.55147   3.55514   3.55779
 Alpha virt. eigenvalues --    3.56356   3.56937   3.57185   3.57537   3.57649
 Alpha virt. eigenvalues --    3.58185   3.59022   3.59103   3.59479   3.59740
 Alpha virt. eigenvalues --    3.60171   3.60519   3.60927   3.61291   3.61774
 Alpha virt. eigenvalues --    3.61809   3.62205   3.62709   3.63183   3.63302
 Alpha virt. eigenvalues --    3.63404   3.63937   3.64227   3.64728   3.64912
 Alpha virt. eigenvalues --    3.65393   3.65899   3.66616   3.66823   3.66971
 Alpha virt. eigenvalues --    3.67359   3.67485   3.67910   3.68229   3.68465
 Alpha virt. eigenvalues --    3.68899   3.69454   3.69572   3.69945   3.70043
 Alpha virt. eigenvalues --    3.70403   3.71334   3.71524   3.71795   3.72071
 Alpha virt. eigenvalues --    3.72218   3.72706   3.73061   3.73174   3.73812
 Alpha virt. eigenvalues --    3.74290   3.74803   3.75015   3.75470   3.75803
 Alpha virt. eigenvalues --    3.76060   3.76298   3.76387   3.76969   3.77380
 Alpha virt. eigenvalues --    3.77648   3.78243   3.78703   3.79318   3.79872
 Alpha virt. eigenvalues --    3.79984   3.80766   3.81307   3.81970   3.83123
 Alpha virt. eigenvalues --    3.83427   3.83664   3.83800   3.84491   3.84911
 Alpha virt. eigenvalues --    3.85062   3.85568   3.86030   3.86778   3.87797
 Alpha virt. eigenvalues --    3.88358   3.88626   3.89305   3.89708   3.90359
 Alpha virt. eigenvalues --    3.90603   3.91198   3.91868   3.91933   3.92244
 Alpha virt. eigenvalues --    3.92368   3.92952   3.93643   3.93697   3.95326
 Alpha virt. eigenvalues --    3.95982   3.96048   3.97256   3.97328   3.97831
 Alpha virt. eigenvalues --    3.98381   3.98452   3.98929   3.99336   4.00190
 Alpha virt. eigenvalues --    4.00809   4.01672   4.01876   4.03078   4.03336
 Alpha virt. eigenvalues --    4.03655   4.04558   4.05328   4.05833   4.06575
 Alpha virt. eigenvalues --    4.06932   4.07491   4.08114   4.08756   4.09314
 Alpha virt. eigenvalues --    4.10295   4.11034   4.11719   4.12471   4.13485
 Alpha virt. eigenvalues --    4.13646   4.14340   4.14922   4.15193   4.15934
 Alpha virt. eigenvalues --    4.16215   4.16720   4.17196   4.17635   4.18116
 Alpha virt. eigenvalues --    4.18553   4.19099   4.19378   4.19671   4.20346
 Alpha virt. eigenvalues --    4.20731   4.21575   4.21918   4.22303   4.22614
 Alpha virt. eigenvalues --    4.23648   4.24124   4.24184   4.24722   4.24926
 Alpha virt. eigenvalues --    4.25423   4.25816   4.26092   4.26611   4.27287
 Alpha virt. eigenvalues --    4.28089   4.28438   4.29385   4.29736   4.30057
 Alpha virt. eigenvalues --    4.30590   4.30944   4.32035   4.32301   4.33001
 Alpha virt. eigenvalues --    4.33528   4.33932   4.34155   4.34259   4.34826
 Alpha virt. eigenvalues --    4.35004   4.35314   4.35549   4.35786   4.36488
 Alpha virt. eigenvalues --    4.37414   4.37650   4.38122   4.38249   4.39210
 Alpha virt. eigenvalues --    4.39755   4.39811   4.40116   4.40843   4.41369
 Alpha virt. eigenvalues --    4.41811   4.42235   4.43062   4.43615   4.44613
 Alpha virt. eigenvalues --    4.44886   4.45639   4.46200   4.46909   4.47339
 Alpha virt. eigenvalues --    4.47629   4.48238   4.48581   4.48960   4.49922
 Alpha virt. eigenvalues --    4.50017   4.51635   4.51802   4.52450   4.53057
 Alpha virt. eigenvalues --    4.53850   4.54009   4.54769   4.56438   4.56564
 Alpha virt. eigenvalues --    4.57031   4.57916   4.59063   4.59337   4.60255
 Alpha virt. eigenvalues --    4.60912   4.61472   4.63361   4.63790   4.64466
 Alpha virt. eigenvalues --    4.65225   4.65791   4.66147   4.66504   4.67080
 Alpha virt. eigenvalues --    4.67312   4.68367   4.69275   4.69468   4.70099
 Alpha virt. eigenvalues --    4.70690   4.71529   4.71659   4.72216   4.73268
 Alpha virt. eigenvalues --    4.73425   4.73954   4.74824   4.75065   4.76445
 Alpha virt. eigenvalues --    4.77114   4.77710   4.78160   4.79453   4.80370
 Alpha virt. eigenvalues --    4.80682   4.81118   4.82671   4.83074   4.83265
 Alpha virt. eigenvalues --    4.84052   4.84967   4.85448   4.86208   4.87275
 Alpha virt. eigenvalues --    4.88239   4.89418   4.89820   4.90330   4.90637
 Alpha virt. eigenvalues --    4.91562   4.92231   4.92967   4.93123   4.93780
 Alpha virt. eigenvalues --    4.95326   4.95887   4.97035   4.97798   4.98156
 Alpha virt. eigenvalues --    4.99118   5.00311   5.00892   5.02477   5.03023
 Alpha virt. eigenvalues --    5.03719   5.03890   5.04969   5.05146   5.05620
 Alpha virt. eigenvalues --    5.06801   5.08565   5.08857   5.09610   5.10464
 Alpha virt. eigenvalues --    5.12685   5.15329   5.15796   5.16169   5.16924
 Alpha virt. eigenvalues --    5.17159   5.17925   5.18200   5.19434   5.19934
 Alpha virt. eigenvalues --    5.20459   5.21373   5.21580   5.22223   5.22574
 Alpha virt. eigenvalues --    5.22943   5.24350   5.25280   5.25943   5.27253
 Alpha virt. eigenvalues --    5.28345   5.29398   5.30196   5.30884   5.32443
 Alpha virt. eigenvalues --    5.33489   5.34362   5.35395   5.36586   5.36836
 Alpha virt. eigenvalues --    5.37058   5.37828   5.39052   5.40366   5.41107
 Alpha virt. eigenvalues --    5.41854   5.44164   5.44675   5.44765   5.45213
 Alpha virt. eigenvalues --    5.46706   5.47027   5.48047   5.49093   5.49893
 Alpha virt. eigenvalues --    5.50791   5.52503   5.54777   5.55715   5.56826
 Alpha virt. eigenvalues --    5.58048   5.58867   5.59819   5.60456   5.60711
 Alpha virt. eigenvalues --    5.61349   5.62550   5.62750   5.63753   5.65307
 Alpha virt. eigenvalues --    5.65636   5.66471   5.73282   5.73959   5.74393
 Alpha virt. eigenvalues --    5.77752   5.78799   5.79323   5.82574   5.83850
 Alpha virt. eigenvalues --    5.85521   5.88043   5.88543   5.91860   5.93940
 Alpha virt. eigenvalues --    5.94990   5.95978   5.96838   5.98746   6.02222
 Alpha virt. eigenvalues --    6.04204   6.04565   6.05269   6.07220   6.10793
 Alpha virt. eigenvalues --    6.11131   6.13765   6.13960   6.15023   6.15239
 Alpha virt. eigenvalues --    6.18257   6.20490   6.22779   6.26221   6.28840
 Alpha virt. eigenvalues --    6.30009   6.31135   6.33514   6.35282   6.35675
 Alpha virt. eigenvalues --    6.37596   6.43545   6.45499   6.45786   6.49115
 Alpha virt. eigenvalues --    6.52750   6.65161   6.70618   6.73713   6.75136
 Alpha virt. eigenvalues --    6.83289   6.85963   6.91899   6.93347   6.95871
 Alpha virt. eigenvalues --    7.04572   7.11362   7.13076   7.15207   7.18118
 Alpha virt. eigenvalues --    7.23791   7.30014   9.20042   9.40616   9.68770
 Alpha virt. eigenvalues --   20.24084  22.21047  22.21677  22.32766  22.36324
 Alpha virt. eigenvalues --   22.42508  22.51004  22.52738  22.53218  22.58243
 Alpha virt. eigenvalues --   22.59747  22.63179  22.63722  22.68117  22.70867
 Alpha virt. eigenvalues --   22.79471  22.89885  22.93320  22.94270  22.96686
 Alpha virt. eigenvalues --   23.01914  23.07021  23.09979  23.11558  23.18407
 Alpha virt. eigenvalues --   23.21875  23.26046  23.26803  23.32439  23.34313
 Alpha virt. eigenvalues --   23.37701  23.38956  23.44462  23.45675  23.55171
 Alpha virt. eigenvalues --   23.59388  23.66888  23.75724  23.78337  23.91535
 Alpha virt. eigenvalues --   32.45912  32.78026  32.94178  33.01136  33.06185
 Alpha virt. eigenvalues --   33.20919  43.92592  43.93934  43.96886  43.99373
  Beta  occ. eigenvalues -- -256.33737 -88.96594 -30.08710 -25.92517 -25.91838
  Beta  occ. eigenvalues --  -25.90344 -19.28364 -19.25841 -19.19470 -19.17437
  Beta  occ. eigenvalues --  -14.45253 -14.39076 -14.38380 -14.38059 -14.37793
  Beta  occ. eigenvalues --  -14.37645 -10.36136 -10.35591 -10.28352 -10.26373
  Beta  occ. eigenvalues --  -10.26225 -10.26072 -10.26032 -10.25798 -10.25598
  Beta  occ. eigenvalues --  -10.25582 -10.25356 -10.25348 -10.25178 -10.24949
  Beta  occ. eigenvalues --  -10.24899 -10.24300 -10.24107 -10.24069 -10.24057
  Beta  occ. eigenvalues --  -10.24038 -10.23970 -10.23764 -10.23651 -10.23647
  Beta  occ. eigenvalues --  -10.23534 -10.23436 -10.23309 -10.23256 -10.23022
  Beta  occ. eigenvalues --  -10.22998 -10.22756 -10.22614 -10.22485 -10.22255
  Beta  occ. eigenvalues --  -10.21957 -10.21835 -10.21775 -10.21650 -10.21445
  Beta  occ. eigenvalues --   -7.95117  -5.88784  -5.88257  -5.87909  -3.42310
  Beta  occ. eigenvalues --   -2.20564  -2.17545  -2.15051  -1.18374  -1.15318
  Beta  occ. eigenvalues --   -1.06956  -1.03879  -1.02691  -0.98849  -0.97607
  Beta  occ. eigenvalues --   -0.97536  -0.96482  -0.90912  -0.85103  -0.84513
  Beta  occ. eigenvalues --   -0.84311  -0.82107  -0.81960  -0.81602  -0.81381
  Beta  occ. eigenvalues --   -0.80886  -0.79951  -0.79809  -0.78645  -0.76500
  Beta  occ. eigenvalues --   -0.76031  -0.74326  -0.73603  -0.73484  -0.73095
  Beta  occ. eigenvalues --   -0.71518  -0.71009  -0.70808  -0.70182  -0.70083
  Beta  occ. eigenvalues --   -0.68679  -0.67167  -0.66489  -0.66250  -0.65264
  Beta  occ. eigenvalues --   -0.65033  -0.62748  -0.61923  -0.60658  -0.60209
  Beta  occ. eigenvalues --   -0.58767  -0.57261  -0.56994  -0.56071  -0.55233
  Beta  occ. eigenvalues --   -0.54767  -0.54187  -0.53381  -0.52900  -0.52464
  Beta  occ. eigenvalues --   -0.52030  -0.51615  -0.50375  -0.49613  -0.49490
  Beta  occ. eigenvalues --   -0.49124  -0.48975  -0.48560  -0.48356  -0.47953
  Beta  occ. eigenvalues --   -0.47585  -0.47060  -0.46630  -0.45984  -0.45546
  Beta  occ. eigenvalues --   -0.45232  -0.44902  -0.44814  -0.44616  -0.44456
  Beta  occ. eigenvalues --   -0.44032  -0.43968  -0.43831  -0.43763  -0.43632
  Beta  occ. eigenvalues --   -0.43409  -0.43165  -0.42912  -0.42767  -0.42582
  Beta  occ. eigenvalues --   -0.42326  -0.41940  -0.41729  -0.41593  -0.41459
  Beta  occ. eigenvalues --   -0.41101  -0.40944  -0.40699  -0.40603  -0.40266
  Beta  occ. eigenvalues --   -0.39988  -0.39739  -0.39602  -0.39217  -0.39082
  Beta  occ. eigenvalues --   -0.38827  -0.38632  -0.38441  -0.37743  -0.37223
  Beta  occ. eigenvalues --   -0.36752  -0.36684  -0.36281  -0.35837  -0.35721
  Beta  occ. eigenvalues --   -0.34968  -0.34219  -0.33805  -0.33803  -0.32909
  Beta  occ. eigenvalues --   -0.32583  -0.32309  -0.31165  -0.29819  -0.29222
  Beta  occ. eigenvalues --   -0.29074  -0.28539  -0.27649  -0.27007  -0.25904
  Beta  occ. eigenvalues --   -0.25462  -0.24789  -0.24570  -0.22425  -0.20778
  Beta  occ. eigenvalues --   -0.20493  -0.19641  -0.19363  -0.18603
  Beta virt. eigenvalues --   -0.09194  -0.08586  -0.07069  -0.06479  -0.04484
  Beta virt. eigenvalues --   -0.03018  -0.02108  -0.00965  -0.00406   0.01269
  Beta virt. eigenvalues --    0.01478   0.01852   0.02183   0.02335   0.03386
  Beta virt. eigenvalues --    0.03744   0.04011   0.04353   0.04647   0.04936
  Beta virt. eigenvalues --    0.05073   0.05502   0.06320   0.06464   0.06499
  Beta virt. eigenvalues --    0.06795   0.06949   0.07331   0.07689   0.08168
  Beta virt. eigenvalues --    0.08426   0.08765   0.09029   0.09735   0.09828
  Beta virt. eigenvalues --    0.10019   0.10319   0.10464   0.10701   0.10837
  Beta virt. eigenvalues --    0.11210   0.11439   0.12023   0.12217   0.12320
  Beta virt. eigenvalues --    0.12504   0.12816   0.13001   0.13164   0.13245
  Beta virt. eigenvalues --    0.13488   0.13609   0.13658   0.13897   0.14001
  Beta virt. eigenvalues --    0.14054   0.14203   0.14448   0.14724   0.14941
  Beta virt. eigenvalues --    0.14986   0.15053   0.15176   0.15326   0.15798
  Beta virt. eigenvalues --    0.15965   0.15997   0.16437   0.16730   0.17017
  Beta virt. eigenvalues --    0.17186   0.17373   0.17638   0.18055   0.18171
  Beta virt. eigenvalues --    0.18319   0.18385   0.18687   0.18819   0.19310
  Beta virt. eigenvalues --    0.19422   0.20018   0.20433   0.20537   0.20579
  Beta virt. eigenvalues --    0.21027   0.21103   0.21294   0.21405   0.21692
  Beta virt. eigenvalues --    0.21879   0.21995   0.22288   0.22486   0.22550
  Beta virt. eigenvalues --    0.22859   0.22995   0.23125   0.23448   0.23636
  Beta virt. eigenvalues --    0.23888   0.24185   0.24280   0.24505   0.24683
  Beta virt. eigenvalues --    0.24809   0.25211   0.25411   0.25548   0.25653
  Beta virt. eigenvalues --    0.26002   0.26076   0.26134   0.26244   0.26773
  Beta virt. eigenvalues --    0.26997   0.27174   0.27291   0.27544   0.27752
  Beta virt. eigenvalues --    0.27937   0.28114   0.28344   0.28393   0.28687
  Beta virt. eigenvalues --    0.28921   0.29186   0.29460   0.29603   0.29991
  Beta virt. eigenvalues --    0.30159   0.30378   0.30519   0.30914   0.31066
  Beta virt. eigenvalues --    0.31315   0.31509   0.31693   0.31964   0.32442
  Beta virt. eigenvalues --    0.32602   0.32818   0.33160   0.33316   0.33721
  Beta virt. eigenvalues --    0.33867   0.34077   0.34160   0.34678   0.34839
  Beta virt. eigenvalues --    0.35118   0.35287   0.35534   0.35761   0.35917
  Beta virt. eigenvalues --    0.36335   0.36441   0.36682   0.36826   0.36935
  Beta virt. eigenvalues --    0.37193   0.37519   0.37764   0.37842   0.38040
  Beta virt. eigenvalues --    0.38408   0.38461   0.38757   0.38912   0.39057
  Beta virt. eigenvalues --    0.39328   0.39514   0.39611   0.39838   0.40196
  Beta virt. eigenvalues --    0.40583   0.40647   0.40805   0.40990   0.41267
  Beta virt. eigenvalues --    0.41364   0.41458   0.41914   0.41996   0.42358
  Beta virt. eigenvalues --    0.42413   0.42623   0.42823   0.43036   0.43059
  Beta virt. eigenvalues --    0.43417   0.43597   0.43759   0.43966   0.44164
  Beta virt. eigenvalues --    0.44273   0.44577   0.44633   0.44934   0.45095
  Beta virt. eigenvalues --    0.45289   0.45425   0.45489   0.45554   0.45735
  Beta virt. eigenvalues --    0.45943   0.46535   0.46648   0.46748   0.46810
  Beta virt. eigenvalues --    0.47013   0.47235   0.47439   0.47569   0.47699
  Beta virt. eigenvalues --    0.47868   0.47980   0.48158   0.48316   0.48523
  Beta virt. eigenvalues --    0.48614   0.48759   0.48820   0.48976   0.49100
  Beta virt. eigenvalues --    0.49360   0.49570   0.49823   0.49829   0.50212
  Beta virt. eigenvalues --    0.50302   0.50572   0.50685   0.50984   0.51163
  Beta virt. eigenvalues --    0.51585   0.51612   0.51789   0.52008   0.52309
  Beta virt. eigenvalues --    0.52402   0.52453   0.52773   0.53073   0.53144
  Beta virt. eigenvalues --    0.53314   0.53395   0.53908   0.54221   0.54287
  Beta virt. eigenvalues --    0.54390   0.54629   0.54762   0.54892   0.55165
  Beta virt. eigenvalues --    0.55410   0.55641   0.55913   0.56111   0.56422
  Beta virt. eigenvalues --    0.56602   0.56637   0.57031   0.57159   0.57703
  Beta virt. eigenvalues --    0.58155   0.58438   0.58586   0.58753   0.58963
  Beta virt. eigenvalues --    0.59174   0.59285   0.59533   0.59950   0.60179
  Beta virt. eigenvalues --    0.60434   0.60862   0.60898   0.61106   0.61361
  Beta virt. eigenvalues --    0.61582   0.61715   0.61983   0.62244   0.62491
  Beta virt. eigenvalues --    0.62738   0.62812   0.63229   0.63593   0.64041
  Beta virt. eigenvalues --    0.64095   0.64541   0.64913   0.65241   0.65367
  Beta virt. eigenvalues --    0.65800   0.66271   0.66370   0.66672   0.66969
  Beta virt. eigenvalues --    0.67148   0.67370   0.67666   0.67938   0.68048
  Beta virt. eigenvalues --    0.68365   0.68552   0.68919   0.68991   0.69042
  Beta virt. eigenvalues --    0.69397   0.69902   0.70097   0.70391   0.70831
  Beta virt. eigenvalues --    0.70912   0.71253   0.71894   0.71977   0.72058
  Beta virt. eigenvalues --    0.72346   0.72641   0.72800   0.73048   0.73435
  Beta virt. eigenvalues --    0.73676   0.74274   0.74379   0.74429   0.74724
  Beta virt. eigenvalues --    0.75107   0.75452   0.75716   0.75981   0.76221
  Beta virt. eigenvalues --    0.76698   0.77292   0.77556   0.77914   0.77984
  Beta virt. eigenvalues --    0.78442   0.78576   0.78822   0.79209   0.79414
  Beta virt. eigenvalues --    0.79667   0.80088   0.80456   0.80703   0.80841
  Beta virt. eigenvalues --    0.81045   0.81240   0.81542   0.81975   0.82338
  Beta virt. eigenvalues --    0.82559   0.82917   0.83175   0.83590   0.83915
  Beta virt. eigenvalues --    0.84322   0.84428   0.84721   0.85234   0.85425
  Beta virt. eigenvalues --    0.85682   0.86209   0.86300   0.86632   0.86958
  Beta virt. eigenvalues --    0.86969   0.87474   0.87969   0.88209   0.88500
  Beta virt. eigenvalues --    0.88855   0.89228   0.89478   0.90032   0.90112
  Beta virt. eigenvalues --    0.90212   0.90573   0.90796   0.91216   0.91425
  Beta virt. eigenvalues --    0.91761   0.91867   0.92298   0.92874   0.92957
  Beta virt. eigenvalues --    0.93001   0.93248   0.93690   0.93987   0.94255
  Beta virt. eigenvalues --    0.94422   0.94681   0.95028   0.95390   0.95680
  Beta virt. eigenvalues --    0.95933   0.96137   0.96420   0.96711   0.96971
  Beta virt. eigenvalues --    0.97050   0.97425   0.97675   0.97757   0.98192
  Beta virt. eigenvalues --    0.98352   0.98544   0.98981   0.99131   0.99233
  Beta virt. eigenvalues --    0.99520   1.00089   1.00138   1.00339   1.01218
  Beta virt. eigenvalues --    1.01316   1.01583   1.01721   1.01927   1.02399
  Beta virt. eigenvalues --    1.02608   1.02849   1.03098   1.03449   1.03783
  Beta virt. eigenvalues --    1.03887   1.04114   1.04614   1.04828   1.04996
  Beta virt. eigenvalues --    1.05352   1.05373   1.06030   1.06355   1.06894
  Beta virt. eigenvalues --    1.07265   1.07303   1.07836   1.07958   1.08529
  Beta virt. eigenvalues --    1.08709   1.08929   1.09154   1.09469   1.09619
  Beta virt. eigenvalues --    1.09769   1.10702   1.10872   1.11088   1.11559
  Beta virt. eigenvalues --    1.11715   1.12142   1.12642   1.12992   1.13287
  Beta virt. eigenvalues --    1.13334   1.13709   1.13867   1.14537   1.14813
  Beta virt. eigenvalues --    1.15379   1.15978   1.16406   1.16530   1.17131
  Beta virt. eigenvalues --    1.17195   1.17485   1.17697   1.17771   1.18658
  Beta virt. eigenvalues --    1.19029   1.19337   1.20085   1.20238   1.20516
  Beta virt. eigenvalues --    1.21262   1.21440   1.22123   1.22164   1.22799
  Beta virt. eigenvalues --    1.23034   1.23234   1.23396   1.23744   1.23891
  Beta virt. eigenvalues --    1.24535   1.25014   1.25235   1.25575   1.25874
  Beta virt. eigenvalues --    1.26296   1.26572   1.26834   1.27241   1.27341
  Beta virt. eigenvalues --    1.27749   1.28138   1.28374   1.28656   1.29191
  Beta virt. eigenvalues --    1.29528   1.29619   1.29951   1.30312   1.30791
  Beta virt. eigenvalues --    1.31184   1.31471   1.32504   1.32638   1.32884
  Beta virt. eigenvalues --    1.33212   1.33532   1.33935   1.34200   1.34474
  Beta virt. eigenvalues --    1.34751   1.35165   1.36027   1.36733   1.37057
  Beta virt. eigenvalues --    1.37536   1.37954   1.38332   1.39309   1.39672
  Beta virt. eigenvalues --    1.39920   1.39949   1.40373   1.40881   1.41316
  Beta virt. eigenvalues --    1.41768   1.42384   1.42728   1.43120   1.43397
  Beta virt. eigenvalues --    1.43816   1.44261   1.45057   1.45454   1.45937
  Beta virt. eigenvalues --    1.46140   1.46426   1.46735   1.47165   1.47483
  Beta virt. eigenvalues --    1.47991   1.48132   1.48454   1.48644   1.49118
  Beta virt. eigenvalues --    1.49332   1.49599   1.49885   1.50005   1.50420
  Beta virt. eigenvalues --    1.50480   1.50987   1.51171   1.51348   1.51764
[...]
  1664. RY*(   3) H  78                  0.00003     2.01965   
  1665. RY*(   4) H  78                  0.00004     2.12204   
  1666. RY*(   5) H  78                  0.00000     3.01541   
  1667. RY*(   1) H  79                  0.00096     0.69128   
  1668. RY*(   2) H  79                  0.00012     2.21462   
  1669. RY*(   3) H  79                  0.00012     2.26116   
  1670. RY*(   4) H  79                  0.00006     3.10219   
  1671. RY*(   5) H  79                  0.00000     3.24994   
  1672. RY*(   1) H  80                  0.00044     0.97389   
  1673. RY*(   2) H  80                  0.00008     1.74494   
  1674. RY*(   3) H  80                  0.00003     2.13777   
  1675. RY*(   4) H  80                  0.00002     2.02338   
  1676. RY*(   5) H  80                  0.00000     2.95787   
  1677. RY*(   1) H  81                  0.00036     1.06385   
  1678. RY*(   2) H  81                  0.00009     1.86046   
  1679. RY*(   3) H  81                  0.00004     1.82629   
  1680. RY*(   4) H  81                  0.00002     2.19316   
  1681. RY*(   5) H  81                  0.00000     2.97528   
  1682. RY*(   1) H  82                  0.00021     1.35263   
  1683. RY*(   2) H  82                  0.00011     1.88129   
  1684. RY*(   3) H  82                  0.00004     2.13642   
  1685. RY*(   4) H  82                  0.00001     1.99599   
  1686. RY*(   5) H  82                  0.00000     2.73493   
  1687. RY*(   1) H  83                  0.00061     1.08098   
  1688. RY*(   2) H  83                  0.00014     1.63850   
  1689. RY*(   3) H  83                  0.00007     1.91066   
  1690. RY*(   4) H  83                  0.00004     2.24380   
  1691. RY*(   5) H  83                  0.00001     2.99830   
  1692. RY*(   1) H  84                  0.00048     1.04729   
  1693. RY*(   2) H  84                  0.00010     1.86686   
  1694. RY*(   3) H  84                  0.00003     1.92887   
  1695. RY*(   4) H  84                  0.00001     2.58056   
  1696. RY*(   5) H  84                  0.00001     1.97512   
  1697. RY*(   1) H  85                  0.00059     1.14411   
  1698. RY*(   2) H  85                  0.00008     1.77821   
  1699. RY*(   3) H  85                  0.00004     2.21422   
  1700. RY*(   4) H  85                  0.00000     1.79222   
  1701. RY*(   5) H  85                  0.00001     2.43826   
  1702. RY*(   1) H  86                  0.00095     0.69675   
  1703. RY*(   2) H  86                  0.00013     2.17783   
  1704. RY*(   3) H  86                  0.00013     2.25612   
  1705. RY*(   4) H  86                  0.00006     3.08376   
  1706. RY*(   5) H  86                  0.00001     3.26831   
  1707. RY*(   1) H  87                  0.00030     1.01417   
  1708. RY*(   2) H  87                  0.00008     1.82573   
  1709. RY*(   3) H  87                  0.00003     2.16643   
  1710. RY*(   4) H  87                  0.00002     1.96555   
  1711. RY*(   5) H  87                  0.00000     2.89323   
  1712. RY*(   1) H  88                  0.00032     1.02459   
  1713. RY*(   2) H  88                  0.00008     1.77367   
  1714. RY*(   3) H  88                  0.00003     2.15465   
  1715. RY*(   4) H  88                  0.00002     1.95779   
  1716. RY*(   5) H  88                  0.00000     2.92923   
  1717. RY*(   1) H  89                  0.00020     1.43712   
  1718. RY*(   2) H  89                  0.00009     1.94230   
  1719. RY*(   3) H  89                  0.00004     2.09990   
  1720. RY*(   4) H  89                  0.00000     2.97794   
  1721. RY*(   5) H  89                  0.00001     1.72765   
  1722. RY*(   1) H  90                  0.00021     1.49118   
  1723. RY*(   2) H  90                  0.00013     1.29089   
  1724. RY*(   3) H  90                  0.00005     2.19651   
  1725. RY*(   4) H  90                  0.00002     2.69257   
  1726. RY*(   5) H  90                  0.00002     2.21978   
  1727. RY*(   1) H  91                  0.00014     1.66863   
  1728. RY*(   2) H  91                  0.00006     1.91960   
  1729. RY*(   3) H  91                  0.00002     2.26461   
  1730. RY*(   4) H  91                  0.00000     1.88704   
  1731. RY*(   5) H  91                  0.00001     1.60074   
  1732. RY*(   1) H  92                  0.00018     1.28204   
  1733. RY*(   2) H  92                  0.00007     1.66307   
  1734. RY*(   3) H  92                  0.00001     2.06874   
  1735. RY*(   4) H  92                  0.00001     1.95255   
  1736. RY*(   5) H  92                  0.00001     2.41012   
  1737. RY*(   1) H  93                  0.00094     0.68202   
  1738. RY*(   2) H  93                  0.00013     2.25008   
  1739. RY*(   3) H  93                  0.00011     2.19575   
  1740. RY*(   4) H  93                  0.00006     3.06932   
  1741. RY*(   5) H  93                  0.00000     3.21174   
  1760. BD*(   1) C   9 - C  13          0.01097     0.59936   
  1761. BD*(   2) C   9 - C  13          0.21548     0.04138  1779(v),1838(v),1774(r)
                                                    413(g),519(g),521(g)
  1762. BD*(   1) C   9 - C  40          0.01133     0.56796   
  1763. BD*(   1) C   9 - H  70          0.00819     0.43693   
  1764. BD*(   1) C  10 - C  16          0.01064     0.63535   
  1765. BD*(   2) C  10 - C  16          0.18905     0.05729  1779(v),1799(v),439(g)
                                                    599(g),597(g),202(r)
  1766. BD*(   1) C  10 - C  23          0.01068     0.61881   
  1767. BD*(   1) C  10 - H  79          0.00815     0.44406   
  1768. BD*(   1) C  11 - C  26          0.01047     0.56383   
  1769. BD*(   1) C  11 - C  30          0.00989     0.57161   
  1770. BD*(   2) C  11 - C  30          0.19827     0.04271  1817(v),1822(v),185(v)
                                                    1774(r),466(g),963(g)
  1771. BD*(   1) C  11 - H  86          0.00718     0.45046   
  1772. BD*(   1) C  12 - C  33          0.00999     0.56642   
  1773. BD*(   1) C  12 - C  37          0.00979     0.57117   
  1774. BD*(   2) C  12 - C  37          0.20104     0.04020  1833(v),1822(v),1838(v)
                                                    1761(r),491(g),1770(r)
                                                    1145(g),202(r)
  1775. BD*(   1) C  12 - H  93          0.00676     0.44168   
  1776. BD*(   1) C  13 - C  14          0.01731     0.48198   
  1777. BD*(   1) C  13 - N  47          0.01445     0.48728   
  1778. BD*(   1) C  14 - C  15          0.00912     0.62285   
  1779. BD*(   2) C  14 - C  15          0.11136     0.06635  1765(v),1761(v),1787(v)
                                                    1784(v),1789(v)
  1780. BD*(   1) C  14 - C  18          0.01329     0.36467   
  1781. BD*(   1) C  15 - C  16          0.01748     0.46172   
  1782. BD*(   1) C  15 - C  17          0.00905     0.35113   
  1783. BD*(   1) C  16 - N  47          0.01437     0.50582   
  1784. BD*(   1) C  17 - H  76          0.00435     0.40497   
  1785. BD*(   1) C  17 - H  77          0.00302     0.40635   
  1786. BD*(   1) C  17 - H  78          0.00222     0.41286   
  1787. BD*(   1) C  18 - C  19          0.00775     0.36398   
  1788. BD*(   1) C  18 - H  71          0.00716     0.39441   
  1789. BD*(   1) C  18 - H  72          0.00830     0.39597   
  1790. BD*(   1) C  19 - C  20          0.03724     0.33399   
  1791. BD*(   1) C  19 - H  73          0.00609     0.40104   
  1792. BD*(   1) C  19 - H  74          0.00700     0.39015   
  1793. BD*(   1) C  20 - O  21          0.04080     0.42209   
  1794. BD*(   1) C  20 - O  22          0.01850     0.54914   
  1795. BD*(   2) C  20 - O  22          0.07932    -0.00169   
  1796. BD*(   1) O  21 - H  75          0.00592     0.37705   
  1797. BD*(   1) C  23 - C  24          0.01646     0.47468   
  1798. BD*(   1) C  23 - N  48          0.01438     0.48364   
  1799. BD*(   2) C  23 - N  48          0.31495     0.00114  1765(v),1801(v),185(v)
                                                    779(g),1427(g),201(r),439(v)
                                                    202(r),1742(r)
  1800. BD*(   1) C  24 - C  25          0.01073     0.57411   
  1801. BD*(   2) C  24 - C  25          0.13456     0.05941  1799(v),185(v),1810(v)
                                                    1806(v),1811(v),1809(v)
                                                    1807(v)
  1802. BD*(   1) C  24 - C  27          0.00849     0.35948   
  1803. BD*(   1) C  25 - C  26          0.02013     0.48596   
  1804. BD*(   1) C  25 - C  28          0.01158     0.35355   
  1805. BD*(   1) C  26 - N  48          0.01381     0.48665   
  1806. BD*(   1) C  27 - H  80          0.00422     0.40838   
  1807. BD*(   1) C  27 - H  81          0.00328     0.41626   
  1808. BD*(   1) C  27 - H  82          0.00265     0.41446   
  1809. BD*(   1) C  28 - C  29          0.00242     0.36164   
  1810. BD*(   2) C  28 - C  29          0.04505    -0.01904   
  1811. BD*(   1) C  28 - H  83          0.00776     0.44145   
  1812. BD*(   1) C  29 - H  84          0.00211     0.43618   
  1813. BD*(   1) C  29 - H  85          0.00175     0.43799   
  1814. BD*(   1) C  30 - C  31          0.01713     0.45564   
  1815. BD*(   1) C  30 - N  49          0.01320     0.49335   
  1816. BD*(   1) C  31 - C  32          0.00891     0.59161   
  1817. BD*(   2) C  31 - C  32          0.12359     0.06430  1770(v),1822(v),186(v)
                                                    1824(v),1823(v),987(g)
                                                    1013(g)
  1818. BD*(   1) C  31 - C  34          0.00856     0.34519   
  1819. BD*(   1) C  32 - C  33          0.01501     0.46693   
  1820. BD*(   1) C  32 - C  35          0.00984     0.36089   
  1821. BD*(   1) C  33 - N  49          0.01354     0.47700   
  1822. BD*(   2) C  33 - N  49          0.28513     0.00477  1774(v),1770(v),1817(v)
                                                    197(r),1039(g),1455(g)
                                                    201(r),491(v),202(r),1756(r)
  1823. BD*(   1) C  34 - H  87          0.00306     0.40935   
  1824. BD*(   1) C  34 - H  88          0.00323     0.40935   
  1825. BD*(   1) C  34 - H  89          0.00237     0.41641   
  1826. BD*(   1) C  35 - C  36          0.00230     0.38165   
  1827. BD*(   1) C  35 - H  90          0.00235     0.44231   
  1828. BD*(   1) C  36 - H  91          0.00079     0.43499   
  1829. BD*(   1) C  36 - H  92          0.00110     0.43507   
  1830. BD*(   1) C  37 - C  38          0.01541     0.46374   
  1831. BD*(   1) C  37 - N  50          0.01531     0.44800   
  1832. BD*(   1) C  38 - C  39          0.00927     0.58601   
  1833. BD*(   2) C  38 - C  39          0.12450     0.05262  1774(v),1838(v),1842(v)
                                                    1840(v),1839(v),1843(v)
  1834. BD*(   1) C  38 - C  41          0.00876     0.35364   
  1835. BD*(   1) C  39 - C  40          0.01616     0.47373   
  1836. BD*(   1) C  39 - C  42          0.01215     0.34566   
  1837. BD*(   1) C  40 - N  50          0.01485     0.45432   
  1838. BD*(   2) C  40 - N  50          0.32827    -0.01506  1761(v),1833(v),1774(v)
                                                    1221(g),1756(r),202(r)
                                                    1479(g),413(v),201(v)
                                                    1484(g)
  1839. BD*(   1) C  41 - H  62          0.00346     0.39655   
  1840. BD*(   1) C  41 - H  63          0.00427     0.39841   
  1841. BD*(   1) C  41 - H  64          0.00246     0.40488   
  1842. BD*(   1) C  42 - C  43          0.01026     0.29436   
  1843. BD*(   1) C  42 - H  65          0.00819     0.37360   
  1844. BD*(   1) C  42 - H  66          0.00530     0.39582   
  1845. BD*(   1) C  43 - C  44          0.03645     0.34257   
  1846. BD*(   1) C  43 - H  67          0.00595     0.38649   
  1847. BD*(   1) C  43 - H  68          0.00478     0.39353   
  1848. BD*(   1) C  44 - O  45          0.03674     0.49347   
  1849. BD*(   1) C  44 - O  46          0.01294     0.53906   
  1850. BD*(   2) C  44 - O  46          0.12039     0.00338  1846(v),1849(g),1325(g)
  1851. BD*(   1) O  45 - H  69          0.00731     0.36226   
  1852. BD*(   1) N  47 -Fe  51          0.08142     0.23601   
  1853. BD*(   1) N  50 -Fe  51          0.07809     0.23554   
       -------------------------------
              Total Lewis  154.78707  ( 97.0713%)
        Valence non-Lewis    4.36474  (  2.7373%)
        Rydberg non-Lewis    0.30528  (  0.1915%)
       -------------------------------
            Total unit  3  159.45710  (100.0000%)
           Charge unit  3    1.54290

 Molecular unit  4  (H)
   202. LP*(   1) H  61                  0.39083    -0.11394  178(r),197(r),198(r),200(r)
                                                    230(r),229(r),231(r),1831(r)
                                                    1508(r),1783(r),1580(g)
                                                    1838(r),1853(r),1481(r)
                                                    1403(r),201(r),1581(g)
                                                    1482(r),1404(r),1577(g)
                                                    1852(r),1402(r),1505(r)
                                                    1401(r),205(r),234(r)
                                                    1742(r),199(r),1480(r)
                                                    387(r),185(r),1743(r),233(r)
                                                    1837(r),1511(r),1515(r)
                                                    250(r),1513(r),1774(r)
                                                    1822(r),1428(r),1141(r)
                                                    595(r),236(r),1528(r)
                                                    1762(r),1777(r),237(r)
                                                    1506(r),390(r),1765(r)
                                                    247(r),245(r),240(r),389(r)
                                                    1773(r),1519(r),1453(r)
                                                    1799(r),1805(r),1760(r)
                                                    1144(r),1744(r),1764(r)
                                                    207(r),235(r),1815(r),206(r)
                                                    1821(r),1507(r),1798(r)
                                                    1510(r),1514(r),517(r)
                                                    598(r),242(r),1429(r),238(r)
                                                    1517(r),232(r),342(r)
                                                    1484(r),960(r),252(r)
                                                    1143(r),1219(r),392(r)
                                                    203(r),1835(r),856(r)
                                                    1410(r),241(r)
  1577. RY*(   1) H  61                  0.00477     1.80795   
  1578. RY*(   2) H  61                  0.00155     2.06883   
  1579. RY*(   3) H  61                  0.00135     2.04475   
  1580. RY*(   4) H  61                  0.00051     2.34310   
  1581. RY*(   5) H  61                  0.00018     2.52457   
       -------------------------------
              Total Lewis    0.00000  (  0.0000%)
        Valence non-Lewis    0.39083  ( 97.9045%)
        Rydberg non-Lewis    0.00837  (  2.0955%)
       -------------------------------
            Total unit  4    0.39920  (100.0000%)
           Charge unit  4    0.10080
 1\1\GINC-NODE577\SP\UPBE1PBE\def2TZVP\C39H42Fe1N6O4S1(5)\ZHARTOVSKA\09
 -Sep-2022\0\\# PBE1PBE/def2TZVP empiricaldispersion=GD3BJ scf=maxcycle
 =999 geom=check pop=nbo\\1jbq_II_Q\\0,5\C,0,-14.426,91.945,42.445999\S
 ,0,-13.61514756,90.44205984,42.94808385\C,0,-6.735,87.879997,45.296001
 \C,0,-7.719,88.763,44.599998\N,0,-7.343,89.896004,43.912998\C,0,-9.063
 ,88.672997,44.473\C,0,-8.414,90.466003,43.393002\N,0,-9.47,89.745003,4
 3.717999\C,0,-10.953,92.300003,41.314999\C,0,-11.872,87.638,40.998001\
 C,0,-12.394,87.350998,45.764\C,0,-11.576,92.092003,46.098\C,0,-11.131,
 91.056,40.793999\C,0,-11.01,90.705002,39.391998\C,0,-11.28,89.394997,3
 9.290001\C,0,-11.563,88.899002,40.644001\C,0,-11.297,88.524002,38.0060
 01\C,0,-10.63,91.708,38.287998\C,0,-11.742,92.139999,37.362999\C,0,-11
 .193,92.964996,36.207001\O,0,-10.77,94.139999,36.534\O,0,-11.172,92.47
 0001,35.066002\C,0,-12.111,87.150002,42.238998\C,0,-12.428,85.758003,4
 2.523998\C,0,-12.569,85.661003,43.887001\C,0,-12.351,86.986,44.423\C,0
 ,-12.553,84.656998,41.449001\C,0,-12.891,84.424004,44.775002\C,0,-14.1
 4058471,83.57203839,44.48467002\C,0,-12.208,88.622002,46.277\C,0,-12.2
 94,88.947998,47.712002\C,0,-12.073,90.289001,47.816002\C,0,-11.844,90.
 779999,46.460999\C,0,-12.596,87.878998,48.806\C,0,-12.048,91.242996,49
 .053001\C,0,-11.54553863,90.72621722,50.41390962\C,0,-11.343,92.589996
 ,44.828999\C,0,-11.063,93.980003,44.478001\C,0,-10.885,94.031998,43.12
 7998\C,0,-11.057,92.678001,42.638\C,0,-10.995,95.148003,45.480999\C,0,
 -10.569,95.273003,42.262001\C,0,-11.761,95.569,41.271999\C,0,-11.547,9
 6.749001,40.348\O,0,-10.395,97.149002,40.092999\O,0,-12.598,97.237,39.
 867001\N,0,-11.449,89.935997,41.525002\N,0,-12.08,87.879997,43.41\N,0,
 -11.928,89.747002,45.542\N,0,-11.35,91.795998,43.674999\Fe,0,-11.707,8
 9.852997,43.553001\H,0,-5.84267659,88.43333186,45.50210646\H,0,-7.1575
 3264,87.52958024,46.21446399\H,0,-6.50010461,87.04472118,44.66987125\H
 ,0,-6.40609387,90.23364375,43.82240934\H,0,-8.42403416,91.36126531,42.
 8070799\H,0,-9.69061235,87.90990104,44.88371558\H,0,-13.86737953,92.40
 560745,41.65816403\H,0,-15.41259069,91.71915812,42.09881858\H,0,-14.48
 545231,92.61368722,43.27919935\H,0,-12.31674047,90.60699352,42.8929847
 1\H,0,-10.10646147,95.71769308,45.3053502\H,0,-11.85206227,95.77618641
 ,45.35558025\H,0,-10.97926187,94.76110598,46.47847732\H,0,-9.67755439,
 95.09303095,41.69823261\H,0,-10.41972239,96.11980552,42.89882255\H,0,-
 11.92457117,94.69785925,40.67261743\H,0,-12.64201862,95.75094708,41.85
 131019\H,0,-9.63459792,96.65487634,40.40800456\H,0,-10.70385476,93.073
 85352,40.61931084\H,0,-10.23217049,92.58285875,38.75837429\H,0,-9.8568
 5067,91.26824936,37.69322115\H,0,-12.23348367,91.27267958,36.97428212\
 H,0,-12.4475692,92.72839668,37.91150631\H,0,-9.82723254,94.31444826,36
 .58254859\H,0,-10.4273088,87.90099251,37.98609151\H,0,-12.1745066,87.9
 117393,38.00193416\H,0,-11.3009077,89.15864101,37.14453826\H,0,-11.937
 21543,86.93090823,40.1975835\H,0,-11.71109515,83.99964717,41.51213663\
 H,0,-13.4526611,84.10087236,41.61097067\H,0,-12.58187813,85.10739541,4
 0.47884213\H,0,-12.24415118,84.16553988,45.58721066\H,0,-14.03310048,8
 2.56435518,44.14127276\H,0,-15.11628689,83.98777148,44.62634312\H,0,-1
 2.59057677,86.57086904,46.46944765\H,0,-11.80798195,87.87694257,49.529
 82548\H,0,-13.52219167,88.11348462,49.28775202\H,0,-12.66508681,86.912
 91977,48.35122548\H,0,-12.37999099,92.25542037,48.95461973\H,0,-10.495
 04549,90.65401713,50.60404458\H,0,-12.24691901,90.43935672,51.16934103
 \H,0,-11.54596949,92.8042839,46.89590606\\Version=ES64L-G16RevA.03\Sta
 te=5-A\HF=-3800.5025952\S2=6.053293\S2-1=0.\S2A=6.001038\RMSD=3.481e-0
 9\Dipole=4.0912031,-0.7107155,2.2905125\Quadrupole=24.8113811,-6.60643
 2,-18.2049491,15.9098219,-7.5984082,18.4235505\PG=C01 [X(C39H42Fe1N6O4
 S1)]\\@


 YOU CANNOT THROW TO THE GROUND THE LETTERS OF
 THE GREEK ALPHABET AND PICK UP THE ILIAD.
        - RUFUS CHOATE, 1799-1859
 Job cpu time:       3 days 22 hours 20 minutes 53.7 seconds.
 Elapsed time:       0 days 23 hours 38 minutes 53.5 seconds.
 File lengths (MBytes):  RWF=   3154 Int=      0 D2E=      0 Chk=    264 Scr=      1
 Normal termination of Gaussian 16 at Fri Sep  9 10:59:17 2022.
