 Entering Gaussian System, Link 0=g16
 Input=/net/homes/chemie/zhartovska/work/BioModel/Konrad/1v9z/1v9z05/1v9z05.com
 Output=/net/homes/chemie/zhartovska/work/BioModel/Konrad/1v9z/1v9z05/1v9z05.log
 Initial command:
 /afs/math/software/gaussian/g16.A03/g16/l1.exe "/scratch/zhartovska_gaussian.0Y33VjU/Gau-14187.inp" -scrdir="/scratch/zhartovska_gaussian.0Y33VjU/"
 Entering Link 1 = /afs/math/software/gaussian/g16.A03/g16/l1.exe PID=     14188.
  
 Copyright (c) 1988,1990,1992,1993,1995,1998,2003,2009,2016,
            Gaussian, Inc.  All Rights Reserved.
  
 This is part of the Gaussian(R) 16 program.  It is based on
 the Gaussian(R) 09 system (copyright 2009, Gaussian, Inc.),
 the Gaussian(R) 03 system (copyright 2003, Gaussian, Inc.),
 the Gaussian(R) 98 system (copyright 1998, Gaussian, Inc.),
 the Gaussian(R) 94 system (copyright 1995, Gaussian, Inc.),
 the Gaussian 92(TM) system (copyright 1992, Gaussian, Inc.),
 the Gaussian 90(TM) system (copyright 1990, Gaussian, Inc.),
 the Gaussian 88(TM) system (copyright 1988, Gaussian, Inc.),
 the Gaussian 86(TM) system (copyright 1986, Carnegie Mellon
 University), and the Gaussian 82(TM) system (copyright 1983,
 Carnegie Mellon University). Gaussian is a federally registered
 trademark of Gaussian, Inc.
  
 This software contains proprietary and confidential information,
 including trade secrets, belonging to Gaussian, Inc.
  
 This software is provided under written license and may be
 used, copied, transmitted, or stored only in accord with that
 written license.
  
 The following legend is applicable only to US Government
 contracts under FAR:
  
                    RESTRICTED RIGHTS LEGEND
  
 Use, reproduction and disclosure by the US Government is
 subject to restrictions as set forth in subparagraphs (a)
 and (c) of the Commercial Computer Software - Restricted
 Rights clause in FAR 52.227-19.
  
 Gaussian, Inc.
 340 Quinnipiac St., Bldg. 40, Wallingford CT 06492
  
  
 ---------------------------------------------------------------
 Warning -- This program may not be used in any manner that
 competes with the business of Gaussian, Inc. or will provide
 assistance to any competitor of Gaussian, Inc.  The licensee
 of this program is prohibited from giving any competitor of
 Gaussian, Inc. access to this program.  By using this program,
 the user acknowledges that Gaussian, Inc. is engaged in the
 business of creating and licensing software in the field of
 computational chemistry and represents and warrants to the
 licensee that it is not a competitor of Gaussian, Inc. and that
 it will not use this program in any manner prohibited above.
 ---------------------------------------------------------------
  

 Cite this work as:
 Gaussian 16, Revision A.03,
 M. J. Frisch, G. W. Trucks, H. B. Schlegel, G. E. Scuseria, 
 M. A. Robb, J. R. Cheeseman, G. Scalmani, V. Barone, 
 G. A. Petersson, H. Nakatsuji, X. Li, M. Caricato, A. V. Marenich, 
 J. Bloino, B. G. Janesko, R. Gomperts, B. Mennucci, H. P. Hratchian, 
 J. V. Ortiz, A. F. Izmaylov, J. L. Sonnenberg, D. Williams-Young, 
 F. Ding, F. Lipparini, F. Egidi, J. Goings, B. Peng, A. Petrone, 
 T. Henderson, D. Ranasinghe, V. G. Zakrzewski, J. Gao, N. Rega, 
 G. Zheng, W. Liang, M. Hada, M. Ehara, K. Toyota, R. Fukuda, 
 J. Hasegawa, M. Ishida, T. Nakajima, Y. Honda, O. Kitao, H. Nakai, 
 T. Vreven, K. Throssell, J. A. Montgomery, Jr., J. E. Peralta, 
 F. Ogliaro, M. J. Bearpark, J. J. Heyd, E. N. Brothers, K. N. Kudin, 
 V. N. Staroverov, T. A. Keith, R. Kobayashi, J. Normand, 
 K. Raghavachari, A. P. Rendell, J. C. Burant, S. S. Iyengar, 
 J. Tomasi, M. Cossi, J. M. Millam, M. Klene, C. Adamo, R. Cammi, 
 J. W. Ochterski, R. L. Martin, K. Morokuma, O. Farkas, 
 J. B. Foresman, and D. J. Fox, Gaussian, Inc., Wallingford CT, 2016.
 
 ******************************************
 Gaussian 16:  ES64L-G16RevA.03 25-Dec-2016
                27-Aug-2022 
 ******************************************
 %nprocs=12
 Will use up to   12 processors via shared memory.
 %mem=16GB
 %oldchk=1v9z_II_S.chk
 %chk=1v9z_II_Q.chk
 Copying data from "1v9z_II_S.chk" to current chk file "1v9z_II_Q.chk"
 IOpt=  2 FromEx=T IUOpen= 4 IOptOp= 5 NList=   0 IFRang= 0 IUIn= 4 IUOut= 2.
 ----------------------------------------------------------------------
 # PBE1PBE/def2TZVP empiricaldispersion=GD3BJ int=(grid=ultrafine) geom
 =check pop=nbo
 ----------------------------------------------------------------------
 1/29=2,38=1,172=1/1;
 2/12=2,40=1/2;
 3/5=44,7=101,11=2,14=-4,25=1,30=1,74=-13,75=-5,124=41/1,2,3;
 4//1;
 5/5=2,38=5/2;
 6/7=2,8=2,9=2,10=2,28=1,40=1/1,7;
 99/5=1,9=1/99;
 ---------
 1v9z_II_Q
 ---------
 Structure from the checkpoint file:  "1v9z_II_Q.chk"
 Charge =  0 Multiplicity = 5
 Z-Matrix found in chk file.
 C,0,-2.723,-19.658001,-18.360001
 C,0,-2.108,-18.688999,-17.408001
 N,0,-2.012,-17.337,-17.67
 C,0,-1.614,-18.860001,-16.158001
 C,0,-1.493,-16.723,-16.627001
 N,0,-1.242,-17.622999,-15.694
 C,0,0.192,-17.089001,-8.719
 C,0,-0.598,-17.09,-10.006
 S,0,0.404,-16.514999,-11.383
 C,0,0.98,-14.914,-10.756
 C,0,-3.646,-17.483999,-12.485
 C,0,0.282,-20.289,-13.256
 C,0,2.755,-16.412001,-14.772
 C,0,-1.122,-13.603,-14.048
 C,0,-2.761,-18.612,-12.559
 C,0,-3.135,-19.974001,-12.15
 C,0,-2.016,-20.764,-12.373
 C,0,-0.995,-19.888,-12.904
 C,0,-1.895,-22.284,-12.104
 C,0,-4.518,-20.412001,-11.629
 C,0,-4.455,-21.021,-10.228
 C,0,-3.972,-20.058001,-9.16
 O,0,-3.094,-20.459,-8.387
 O,0,-4.468,-18.912001,-9.108
 C,0,1.284,-19.483,-13.744
 C,0,2.595,-19.958,-14.068
 C,0,3.354,-18.884001,-14.514
 C,0,2.423,-17.725,-14.43
 C,0,3.029,-21.441,-13.918
 C,0,4.72,-18.948,-14.941
 C,0,5.46986476,-20.11085245,-14.71874119
 C,0,1.903,-15.312,-14.696
 C,0,2.347,-13.961,-15.057
 C,0,1.233,-13.139,-14.854
 C,0,0.163,-14.026,-14.374
 C,0,3.77,-13.6,-15.553
 C,0,1.072,-11.721,-15.043
 C,0,2.17851362,-10.92851737,-15.37694738
 C,0,-2.153,-14.406,-13.576
 C,0,-3.475,-13.918,-13.233
 C,0,-4.178,-15.005,-12.793
 C,0,-3.281,-16.157,-12.87
 C,0,-3.999,-12.471,-13.334
 C,0,-5.617,-15.021,-12.301
 C,0,-5.552,-14.558,-10.854
 C,0,-6.273,-15.467,-9.89
 O,0,-7.157,-14.956,-9.16
 O,0,-5.944,-16.681,-9.866
 N,0,-1.456,-18.582001,-13.015
 N,0,1.161,-18.094999,-13.973
 N,0,0.582,-15.366,-14.279
 N,0,-2.044,-15.78,-13.354
 Fe,0,-0.506,-16.978001,-13.68
 H,0,1.12315378,-16.58471713,-8.87246146
 H,0,-0.36598317,-16.5840076,-7.95838416
 H,0,0.3785853,-18.09757042,-8.41424823
 H,0,-0.93560614,-18.0847633,-10.2093914
 H,0,-1.44633306,-16.44704939,-9.89716281
 H,0,1.92169843,-14.67356325,-11.20354244
 H,0,0.26489239,-14.15675103,-11.00114302
 H,0,1.09329541,-14.96696781,-9.69333422
 H,0,-6.90483793,-14.42480722,-8.40115317
 H,0,-3.8953815,-18.14226846,-9.07307322
 H,0,-4.52453811,-14.49741257,-10.5615086
 H,0,-5.98394543,-13.58121323,-10.78910972
 H,0,-6.01648465,-16.0121286,-12.35555371
 H,0,-6.21409199,-14.34730558,-12.87937443
 H,0,-5.43320592,-21.36268168,-9.96104156
 H,0,-3.79416305,-21.86220399,-10.25188259
 H,0,-4.92656916,-21.13654997,-12.30205277
 H,0,-5.16380511,-19.55918572,-11.60572221
 H,0,-0.99614785,-22.47900602,-11.55724826
 H,0,-2.73810695,-22.61346395,-11.53345274
 H,0,-1.8671274,-22.8099354,-13.03540489
 H,0,0.51219824,-21.32713566,-13.13690708
 H,0,-4.63846508,-17.64659606,-12.11965735
 H,0,-3.29850114,-11.87537539,-13.88120442
 H,0,-4.94186077,-12.46759752,-13.83986756
 H,0,-4.12018096,-12.06612148,-12.35100022
 H,0,-1.33611631,-12.5620548,-14.17244795
 H,0,3.75029278,-16.23551296,-15.12291915
 H,0,3.96752659,-21.48795403,-13.40627433
 H,0,2.28988971,-21.97394258,-13.35711838
 H,0,3.12870815,-21.88322682,-14.88722326
 H,0,4.44339202,-14.39684024,-15.31532625
 H,0,3.75166225,-13.4526236,-16.6126433
 H,0,4.09752714,-12.70126568,-15.07351841
 H,0,-1.30625501,-15.67232724,-16.54881495
 H,0,-2.29316662,-16.89250515,-18.52051141
 H,0,-1.52956742,-19.78713751,-15.63056472
 H,0,-2.07421794,-20.50030726,-18.48042526
 H,0,-3.6659868,-19.98623978,-17.97537754
 H,0,-2.87010237,-19.18278518,-19.30732925
 H,0,0.10748474,-11.27211164,-14.92850307
 H,0,3.12566274,-11.38681126,-15.57130597
 H,0,2.07621247,-9.86514533,-15.43756397
 H,0,5.16770902,-18.10793636,-15.42962021
 H,0,6.47851855,-20.0383418,-14.3690846
 H,0,5.03374995,-21.0712267,-14.8987
 Recover connectivity data from disk.
 Stoichiometry    C41H46FeN6O4S(5)
 Framework group  C1[X(C41H46FeN6O4S)]
 Deg. of freedom   291
 Full point group                 C1      NOp   1
 Largest Abelian subgroup         C1      NOp   1
 Largest concise Abelian subgroup C1      NOp   1
                         Standard orientation:                         
 ---------------------------------------------------------------------
 Center     Atomic      Atomic             Coordinates (Angstroms)
 Number     Number       Type             X           Y           Z
 ---------------------------------------------------------------------
      1          6           0       -1.129545   -1.711640    5.712280
      2          6           0       -1.249196   -0.967192    4.425822
      3          7           0       -1.627878    0.358608    4.357877
      4          6           0       -0.974828   -1.339719    3.152353
      5          6           0       -1.576969    0.766636    3.106828
      6          7           0       -1.183182   -0.243499    2.353137
      7          6           0        1.280649   -0.612713   -4.339049
      8          6           0        1.254445   -0.347908   -2.852556
      9         16           0       -0.387448    0.141992   -2.309470
     10          6           0       -0.722113    1.540213   -3.414496
     11          6           0        2.527621    0.073469    0.861262
     12          6           0       -0.844123   -3.357630   -0.005085
     13          6           0       -4.178398    0.087597   -0.681936
     14          6           0       -0.874929    3.516906    0.197113
     15          6           0        1.879312   -1.193094    0.669953
     16          6           0        2.570433   -2.487983    0.758376
     17          6           0        1.607039   -3.456254    0.512790
     18          6           0        0.366018   -2.750389    0.281707
     19          6           0        1.827477   -4.988715    0.493486
     20          6           0        4.057861   -2.695091    1.105703
     21          6           0        4.825009   -3.425800    0.003342
     22          6           0        4.878543   -2.671969   -1.312011
     23          8           0        4.603519   -3.301328   -2.340350
     24          8           0        5.187343   -1.460928   -1.304495
     25          6           0       -2.038065   -2.720294   -0.250215
     26          6           0       -3.253043   -3.408878   -0.564864
     27          6           0       -4.252504   -2.466457   -0.768315
     28          6           0       -3.563974   -1.161605   -0.567349
     29          6           0       -3.362545   -4.955085   -0.650875
     30          6           0       -5.616689   -2.754928   -1.097199
     31          6           0       -5.989496   -4.055575   -1.462239
     32          6           0       -3.553367    1.320255   -0.504247
     33          6           0       -4.276152    2.586660   -0.666906
     34          6           0       -3.331378    3.587001   -0.412725
     35          6           0       -2.075300    2.884332   -0.111742
     36          6           0       -5.774692    2.708601   -1.042109
     37          6           0       -3.463641    5.020453   -0.422166
     38          6           0       -4.661180    5.610845   -0.847910
     39          6           0        0.334390    2.889506    0.470007
     40          6           0        1.567205    3.591243    0.772015
     41          6           0        2.518104    2.625842    0.954145
     42          6           0        1.860956    1.333775    0.763459
     43          6           0        1.782447    5.115316    0.869263
     44          6           0        3.987498    2.844492    1.279895
     45          6           0        4.652012    3.156957   -0.051716
     46          6           0        5.877113    2.322823   -0.332367
     47          8           0        6.947348    2.928444   -0.583958
     48          8           0        5.756685    1.070852   -0.306274
     49          7           0        0.539689   -1.375382    0.380049
     50          7           0       -2.219998   -1.319967   -0.240174
     51          7           0       -2.218378    1.485610   -0.169123
     52          7           0        0.522663    1.506179    0.470541
     53         26           0       -0.798746    0.067424    0.169230
     54          1           0        0.360095   -0.286030   -4.775808
     55          1           0        2.095025   -0.078557   -4.782185
     56          1           0        1.405393   -1.661181   -4.512411
     57          1           0        1.544887   -1.236992   -2.332869
     58          1           0        1.947476    0.434496   -2.623532
     59          1           0       -1.777726    1.632922   -3.562768
     60          1           0       -0.343131    2.439794   -2.976287
     61          1           0       -0.242959    1.372985   -4.356487
     62          1           0        7.079508    3.332059   -1.444904
     63          1           0        4.636505   -0.822257   -1.763054
     64          1           0        3.941072    2.992175   -0.834220
     65          1           0        4.933893    4.189142   -0.057902
     66          1           0        4.408840    1.957788    1.705486
     67          1           0        4.099420    3.669004    1.952616
     68          1           0        5.826553   -3.594500    0.340017
     69          1           0        4.357548   -4.373258   -0.166078
     70          1           0        4.125119   -3.265046    2.008769
     71          1           0        4.511056   -1.739133    1.265884
     72          1           0        1.389986   -5.400861   -0.391747
     73          1           0        2.876704   -5.198282    0.503629
     74          1           0        1.368074   -5.426019    1.355237
     75          1           0       -0.851626   -4.427051   -0.039462
     76          1           0        3.572697    0.073865    1.090859
     77          1           0        0.833905    5.610446    0.865425
     78          1           0        2.301061    5.345107    1.776531
     79          1           0        2.361706    5.447774    0.033302
     80          1           0       -0.884080    4.586442    0.227263
     81          1           0       -5.219762    0.098961   -0.927561
     82          1           0       -3.869301   -5.227116   -1.553149
     83          1           0       -2.381713   -5.382714   -0.649856
     84          1           0       -3.912094   -5.321112    0.191099
     85          1           0       -6.118106    1.779035   -1.445686
     86          1           0       -6.342778    2.949503   -0.167956
     87          1           0       -5.897932    3.481464   -1.771762
     88          1           0       -1.814565    1.750491    2.759729
     89          1           0       -1.898994    0.922155    5.138205
     90          1           0       -0.655121   -2.308513    2.829669
     91          1           0       -1.638369   -2.649346    5.630386
     92          1           0       -0.096189   -1.884363    5.929632
     93          1           0       -1.568219   -1.135408    6.499948
     94          1           0       -2.647600    5.635126   -0.104119
     95          1           0       -5.504252    4.997365   -1.088267
     96          1           0       -4.732456    6.675103   -0.932619
     97          1           0       -6.350935   -1.977310   -1.064123
     98          1           0       -6.655543   -4.210113   -2.285282
     99          1           0       -5.608097   -4.894111   -0.917912
 ---------------------------------------------------------------------
 Rotational constants (GHZ):           0.0638735           0.0469371           0.0369844
 Standard basis: def2TZVP (5D, 7F)
 There are  2206 symmetry adapted cartesian basis functions of A   symmetry.
 There are  1939 symmetry adapted basis functions of A   symmetry.
  1939 basis functions,  3140 primitive gaussians,  2206 cartesian basis functions
   206 alpha electrons      202 beta electrons
       nuclear repulsion energy      8879.2555342685 Hartrees.
 NAtoms=   99 NActive=   99 NUniq=   99 SFac= 1.00D+00 NAtFMM=   60 NAOKFM=T Big=T
 Integral buffers will be    131072 words long.
 Raffenetti 2 integral format.
 Two-electron integral symmetry is turned on.
 Nuclear repulsion after empirical dispersion term =     8879.1100103553 Hartrees.
 One-electron integrals computed using PRISM.
   1 Symmetry operations used in ECPInt.
 ECPInt:  NShTT=  299151 NPrTT=  925475 LenC2=  220459 LenP2D=  439117.
 LDataN:  DoStor=T MaxTD1= 6 Len=  172
 NBasis=  1939 RedAO= T EigKep=  2.97D-06  NBF=  1939
 NBsUse=  1939 1.00D-06 EigRej= -1.00D+00 NBFU=  1939
 ExpMin= 4.20D-02 ExpMax= 3.01D+05 ExpMxC= 2.91D+03 IAcc=3 IRadAn=         5 AccDes= 0.00D+00
 Harris functional with IExCor= 1009 and IRadAn=       5 diagonalized for initial guess.
 HarFok:  IExCor= 1009 AccDes= 0.00D+00 IRadAn=         5 IDoV= 1 UseB2=F ITyADJ=14
 ICtDFT=  3500011 ScaDFX=  1.000000  1.000000  1.000000  1.000000
 FoFCou: FMM=F IPFlag=           0 FMFlag=      100000 FMFlg1=        2001
         NFxFlg=           0 DoJE=T BraDBF=F KetDBF=T FulRan=T
         wScrn=  0.000000 ICntrl=       500 IOpCl=  0 I1Cent=   200000004 NGrid=           0
         NMat0=    1 NMatS0=      1 NMatT0=    0 NMatD0=    1 NMtDS0=    0 NMtDT0=    0
 Petite list used in FoFCou.
 Initial guess <Sx>= 0.0000 <Sy>= 0.0000 <Sz>= 2.0000 <S**2>= 6.0000 S= 2.0000
 Requested convergence on RMS density matrix=1.00D-08 within 128 cycles.
 Requested convergence on MAX density matrix=1.00D-06.
 Requested convergence on             energy=1.00D-06.
 No special actions if energy rises.
 EnCoef did     8 forward-backward iterations
 EnCoef did     7 forward-backward iterations
 EnCoef did    21 forward-backward iterations
 EnCoef did     5 forward-backward iterations
 EnCoef did     2 forward-backward iterations
 Restarting incremental Fock formation.
 Rare condition: small coef for last iteration:  0.000D+00
 Rare condition: small coef for last iteration:  0.000D+00
 Rare condition: small coef for last iteration:  0.000D+00
 Rare condition: small coef for last iteration:  0.000D+00
 Rare condition: small coef for last iteration:  0.000D+00
 Rare condition: small coef for last iteration:  0.000D+00
 Rare condition: small coef for last iteration:  0.000D+00
 Rare condition: small coef for last iteration:  0.000D+00
 Rare condition: small coef for last iteration:  0.000D+00
 Rare condition: small coef for last iteration:  0.000D+00
 Rare condition: small coef for last iteration:  0.000D+00
 Rare condition: small coef for last iteration:  0.000D+00
 Rare condition: small coef for last iteration:  0.000D+00
 Restarting incremental Fock formation.
 Rare condition: small coef for last iteration:  0.000D+00
 Rare condition: small coef for last iteration:  0.000D+00
 Rare condition: small coef for last iteration:  0.000D+00
 Rare condition: small coef for last iteration:  0.000D+00
 Rare condition: small coef for last iteration:  0.000D+00
 Rare condition: small coef for last iteration:  0.000D+00
 Rare condition: small coef for last iteration:  0.000D+00
 Rare condition: small coef for last iteration:  0.000D+00
 Restarting incremental Fock formation.
 Rare condition: small coef for last iteration:  0.000D+00
 Rare condition: small coef for last iteration:  0.000D+00
 Rare condition: small coef for last iteration:  0.000D+00
 Rare condition: small coef for last iteration:  0.000D+00
 Rare condition: small coef for last iteration:  0.000D+00
 Rare condition: small coef for last iteration:  0.000D+00
 Rare condition: small coef for last iteration:  0.000D+00
 Rare condition: small coef for last iteration:  0.000D+00
 Rare condition: small coef for last iteration:  0.000D+00
 Rare condition: small coef for last iteration:  0.000D+00
 Rare condition: small coef for last iteration:  0.000D+00
 Rare condition: small coef for last iteration:  0.000D+00
 Rare condition: small coef for last iteration:  0.000D+00
 Rare condition: small coef for last iteration:  0.000D+00
 Rare condition: small coef for last iteration:  0.000D+00
 Restarting incremental Fock formation.
 Restarting incremental Fock formation.
 Restarting incremental Fock formation.
 SCF Done:  E(UPBE1PBE) =  -3879.35946118     A.U. after  127 cycles
            NFock=127  Conv=0.36D-08     -V/T= 2.0034
 <Sx>= 0.0000 <Sy>= 0.0000 <Sz>= 2.0000 <S**2>= 6.1576 S= 2.0313
 <L.S>= 0.000000000000E+00
 Annihilation of the first spin contaminant:
 S**2 before annihilation     6.1576,   after     6.0081

 **********************************************************************

            Population analysis using the SCF density.

 **********************************************************************

 Orbital symmetries:
 Alpha Orbitals:
       Occupied  (A) (A) (A) (A) (A) (A) (A) (A) (A) (A) (A) (A)
                 (A) (A) (A) (A) (A) (A) (A) (A) (A) (A) (A) (A)
                 (A) (A) (A) (A) (A) (A) (A) (A) (A) (A) (A) (A)
                 (A) (A) (A) (A) (A) (A) (A) (A) (A) (A) (A) (A)
                 (A) (A) (A) (A) (A) (A) (A) (A) (A) (A) (A) (A)
                 (A) (A) (A) (A) (A) (A) (A) (A) (A) (A) (A) (A)
                 (A) (A) (A) (A) (A) (A) (A) (A) (A) (A) (A) (A)
                 (A) (A) (A) (A) (A) (A) (A) (A) (A) (A) (A) (A)
                 (A) (A) (A) (A) (A) (A) (A) (A) (A) (A) (A) (A)
                 (A) (A) (A) (A) (A) (A) (A) (A) (A) (A) (A) (A)
                 (A) (A) (A) (A) (A) (A) (A) (A) (A) (A) (A) (A)
                 (A) (A) (A) (A) (A) (A) (A) (A) (A) (A) (A) (A)
                 (A) (A) (A) (A) (A) (A) (A) (A) (A) (A) (A) (A)
                 (A) (A) (A) (A) (A) (A) (A) (A) (A) (A) (A) (A)
                 (A) (A) (A) (A) (A) (A) (A) (A) (A) (A) (A) (A)
                 (A) (A) (A) (A) (A) (A) (A) (A) (A) (A) (A) (A)
                 (A) (A) (A) (A) (A) (A) (A) (A) (A) (A) (A) (A)
                 (A) (A)
       Virtual   (A) (A) (A) (A) (A) (A) (A) (A) (A) (A) (A) (A)
                 (A) (A) (A) (A) (A) (A) (A) (A) (A) (A) (A) (A)
                 (A) (A) (A) (A) (A) (A) (A) (A) (A) (A) (A) (A)
                 (A) (A) (A) (A) (A) (A) (A) (A) (A) (A) (A) (A)
                 (A) (A) (A) (A) (A) (A) (A) (A) (A) (A) (A) (A)
                 (A) (A) (A) (A) (A) (A) (A) (A) (A) (A) (A) (A)
                 (A) (A) (A) (A) (A) (A) (A) (A) (A) (A) (A) (A)
                 (A) (A) (A) (A) (A) (A) (A) (A) (A) (A) (A) (A)
                 (A) (A) (A) (A) (A) (A) (A) (A) (A) (A) (A) (A)
                 (A) (A) (A) (A) (A) (A) (A) (A) (A) (A) (A) (A)
                 (A) (A) (A) (A) (A) (A) (A) (A) (A) (A) (A) (A)
                 (A) (A) (A) (A) (A) (A) (A) (A) (A) (A) (A) (A)
                 (A) (A) (A) (A) (A) (A) (A) (A) (A) (A) (A) (A)
                 (A) (A) (A) (A) (A) (A) (A) (A) (A) (A) (A) (A)
                 (A) (A) (A) (A) (A) (A) (A) (A) (A) (A) (A) (A)
                 (A) (A) (A) (A) (A) (A) (A) (A) (A) (A) (A) (A)
                 (A) (A) (A) (A) (A) (A) (A) (A) (A) (A) (A) (A)
                 (A) (A) (A) (A) (A) (A) (A) (A) (A) (A) (A) (A)
                 (A) (A) (A) (A) (A) (A) (A) (A) (A) (A) (A) (A)
                 (A) (A) (A) (A) (A) (A) (A) (A) (A) (A) (A) (A)
                 (A) (A) (A) (A) (A) (A) (A) (A) (A) (A) (A) (A)
                 (A) (A) (A) (A) (A) (A) (A) (A) (A) (A) (A) (A)
                 (A) (A) (A) (A) (A) (A) (A) (A) (A) (A) (A) (A)
                 (A) (A) (A) (A) (A) (A) (A) (A) (A) (A) (A) (A)
                 (A) (A) (A) (A) (A) (A) (A) (A) (A) (A) (A) (A)
                 (A) (A) (A) (A) (A) (A) (A) (A) (A) (A) (A) (A)
                 (A) (A) (A) (A) (A) (A) (A) (A) (A) (A) (A) (A)
                 (A) (A) (A) (A) (A) (A) (A) (A) (A) (A) (A) (A)
                 (A) (A) (A) (A) (A) (A) (A) (A) (A) (A) (A) (A)
                 (A) (A) (A) (A) (A) (A) (A) (A) (A) (A) (A) (A)
                 (A) (A) (A) (A) (A) (A) (A) (A) (A) (A) (A) (A)
                 (A) (A) (A) (A) (A) (A) (A) (A) (A) (A) (A) (A)
                 (A) (A) (A) (A) (A) (A) (A) (A) (A) (A) (A) (A)
                 (A) (A) (A) (A) (A) (A) (A) (A) (A) (A) (A) (A)
                 (A) (A) (A) (A) (A) (A) (A) (A) (A) (A) (A) (A)
                 (A) (A) (A) (A) (A) (A) (A) (A) (A) (A) (A) (A)
                 (A) (A) (A) (A) (A) (A) (A) (A) (A) (A) (A) (A)
                 (A) (A) (A) (A) (A) (A) (A) (A) (A) (A) (A) (A)
                 (A) (A) (A) (A) (A) (A) (A) (A) (A) (A) (A) (A)
                 (A) (A) (A) (A) (A) (A) (A) (A) (A) (A) (A) (A)
                 (A) (A) (A) (A) (A) (A) (A) (A) (A) (A) (A) (A)
                 (A) (A) (A) (A) (A) (A) (A) (A) (A) (A) (A) (A)
                 (A) (A) (A) (A) (A) (A) (A) (A) (A) (A) (A) (A)
                 (A) (A) (A) (A) (A) (A) (A) (A) (A) (A) (A) (A)
                 (A) (A) (A) (A) (A) (A) (A) (A) (A) (A) (A) (A)
                 (A) (A) (A) (A) (A) (A) (A) (A) (A) (A) (A) (A)
                 (A) (A) (A) (A) (A) (A) (A) (A) (A) (A) (A) (A)
                 (A) (A) (A) (A) (A) (A) (A) (A) (A) (A) (A) (A)
                 (A) (A) (A) (A) (A) (A) (A) (A) (A) (A) (A) (A)
                 (A) (A) (A) (A) (A) (A) (A) (A) (A) (A) (A) (A)
                 (A) (A) (A) (A) (A) (A) (A) (A) (A) (A) (A) (A)
                 (A) (A) (A) (A) (A) (A) (A) (A) (A) (A) (A) (A)
                 (A) (A) (A) (A) (A) (A) (A) (A) (A) (A) (A) (A)
                 (A) (A) (A) (A) (A) (A) (A) (A) (A) (A) (A) (A)
                 (A) (A) (A) (A) (A) (A) (A) (A) (A) (A) (A) (A)
                 (A) (A) (A) (A) (A) (A) (A) (A) (A) (A) (A) (A)
                 (A) (A) (A) (A) (A) (A) (A) (A) (A) (A) (A) (A)
                 (A) (A) (A) (A) (A) (A) (A) (A) (A) (A) (A) (A)
                 (A) (A) (A) (A) (A) (A) (A) (A) (A) (A) (A) (A)
                 (A) (A) (A) (A) (A) (A) (A) (A) (A) (A) (A) (A)
                 (A) (A) (A) (A) (A) (A) (A) (A) (A) (A) (A) (A)
                 (A) (A) (A) (A) (A) (A) (A) (A) (A) (A) (A) (A)
                 (A) (A) (A) (A) (A) (A) (A) (A) (A) (A) (A) (A)
                 (A) (A) (A) (A) (A) (A) (A) (A) (A) (A) (A) (A)
                 (A) (A) (A) (A) (A) (A) (A) (A) (A) (A) (A) (A)
                 (A) (A) (A) (A) (A) (A) (A) (A) (A) (A) (A) (A)
                 (A) (A) (A) (A) (A) (A) (A) (A) (A) (A) (A) (A)
                 (A) (A) (A) (A) (A) (A) (A) (A) (A) (A) (A) (A)
                 (A) (A) (A) (A) (A) (A) (A) (A) (A) (A) (A) (A)
                 (A) (A) (A) (A) (A) (A) (A) (A) (A) (A) (A) (A)
                 (A) (A) (A) (A) (A) (A) (A) (A) (A) (A) (A) (A)
                 (A) (A) (A) (A) (A) (A) (A) (A) (A) (A) (A) (A)
                 (A) (A) (A) (A) (A) (A) (A) (A) (A) (A) (A) (A)
                 (A) (A) (A) (A) (A) (A) (A) (A) (A) (A) (A) (A)
                 (A) (A) (A) (A) (A) (A) (A) (A) (A) (A) (A) (A)
                 (A) (A) (A) (A) (A) (A) (A) (A) (A) (A) (A) (A)
                 (A) (A) (A) (A) (A) (A) (A) (A) (A) (A) (A) (A)
                 (A) (A) (A) (A) (A) (A) (A) (A) (A) (A) (A) (A)
                 (A) (A) (A) (A) (A) (A) (A) (A) (A) (A) (A) (A)
                 (A) (A) (A) (A) (A) (A) (A) (A) (A) (A) (A) (A)
                 (A) (A) (A) (A) (A) (A) (A) (A) (A) (A) (A) (A)
                 (A) (A) (A) (A) (A) (A) (A) (A) (A) (A) (A) (A)
                 (A) (A) (A) (A) (A) (A) (A) (A) (A) (A) (A) (A)
                 (A) (A) (A) (A) (A) (A) (A) (A) (A) (A) (A) (A)
                 (A) (A) (A) (A) (A) (A) (A) (A) (A) (A) (A) (A)
                 (A) (A) (A) (A) (A) (A) (A) (A) (A) (A) (A) (A)
                 (A) (A) (A) (A) (A) (A) (A) (A) (A) (A) (A) (A)
                 (A) (A) (A) (A) (A) (A) (A) (A) (A) (A) (A) (A)
                 (A) (A) (A) (A) (A) (A) (A) (A) (A) (A) (A) (A)
                 (A) (A) (A) (A) (A) (A) (A) (A) (A) (A) (A) (A)
                 (A) (A) (A) (A) (A) (A) (A) (A) (A) (A) (A) (A)
                 (A) (A) (A) (A) (A) (A) (A) (A) (A) (A) (A) (A)
                 (A) (A) (A) (A) (A) (A) (A) (A) (A) (A) (A) (A)
                 (A) (A) (A) (A) (A) (A) (A) (A) (A) (A) (A) (A)
                 (A) (A) (A) (A) (A) (A) (A) (A) (A) (A) (A) (A)
                 (A) (A) (A) (A) (A) (A) (A) (A) (A) (A) (A) (A)
                 (A) (A) (A) (A) (A) (A) (A) (A) (A) (A) (A) (A)
                 (A) (A) (A) (A) (A) (A) (A) (A) (A) (A) (A) (A)
                 (A) (A) (A) (A) (A) (A) (A) (A) (A) (A) (A) (A)
                 (A) (A) (A) (A) (A) (A) (A) (A) (A) (A) (A) (A)
                 (A) (A) (A) (A) (A) (A) (A) (A) (A) (A) (A) (A)
                 (A) (A) (A) (A) (A) (A) (A) (A) (A) (A) (A) (A)
                 (A) (A) (A) (A) (A) (A) (A) (A) (A) (A) (A) (A)
                 (A) (A) (A) (A) (A) (A) (A) (A) (A) (A) (A) (A)
                 (A) (A) (A) (A) (A) (A) (A) (A) (A) (A) (A) (A)
                 (A) (A) (A) (A) (A) (A) (A) (A) (A) (A) (A) (A)
                 (A) (A) (A) (A) (A) (A) (A) (A) (A) (A) (A) (A)
                 (A) (A) (A) (A) (A) (A) (A) (A) (A) (A) (A) (A)
                 (A) (A) (A) (A) (A) (A) (A) (A) (A) (A) (A) (A)
                 (A) (A) (A) (A) (A) (A) (A) (A) (A) (A) (A) (A)
                 (A) (A) (A) (A) (A) (A) (A) (A) (A) (A) (A) (A)
                 (A) (A) (A) (A) (A) (A) (A) (A) (A) (A) (A) (A)
                 (A) (A) (A) (A) (A) (A) (A) (A) (A) (A) (A) (A)
                 (A) (A) (A) (A) (A) (A) (A) (A) (A) (A) (A) (A)
                 (A) (A) (A) (A) (A) (A) (A) (A) (A) (A) (A) (A)
                 (A) (A) (A) (A) (A) (A) (A) (A) (A) (A) (A) (A)
                 (A) (A) (A) (A) (A) (A) (A) (A) (A) (A) (A) (A)
                 (A) (A) (A) (A) (A) (A) (A) (A) (A) (A) (A) (A)
                 (A) (A) (A) (A) (A) (A) (A) (A) (A) (A) (A) (A)
                 (A) (A) (A) (A) (A) (A) (A) (A) (A) (A) (A) (A)
                 (A) (A) (A) (A) (A) (A) (A) (A) (A) (A) (A) (A)
                 (A) (A) (A) (A) (A) (A) (A) (A) (A) (A) (A) (A)
                 (A) (A) (A) (A) (A) (A) (A) (A) (A) (A) (A) (A)
                 (A) (A) (A) (A) (A) (A) (A) (A) (A) (A) (A) (A)
                 (A) (A) (A) (A) (A) (A) (A) (A) (A) (A) (A) (A)
                 (A) (A) (A) (A) (A) (A) (A) (A) (A) (A) (A) (A)
                 (A) (A) (A) (A) (A) (A) (A) (A) (A) (A) (A) (A)
                 (A) (A) (A) (A) (A) (A) (A) (A) (A) (A) (A) (A)
                 (A) (A) (A) (A) (A) (A) (A) (A) (A) (A) (A) (A)
                 (A) (A) (A) (A) (A) (A) (A) (A) (A) (A) (A) (A)
                 (A) (A) (A) (A) (A) (A) (A) (A) (A) (A) (A) (A)
                 (A) (A) (A) (A) (A) (A) (A) (A) (A) (A) (A) (A)
                 (A) (A) (A) (A) (A) (A) (A) (A) (A) (A) (A) (A)
                 (A) (A) (A) (A) (A) (A) (A) (A) (A) (A) (A) (A)
                 (A) (A) (A) (A) (A) (A) (A) (A) (A) (A) (A) (A)
                 (A) (A) (A) (A) (A) (A) (A) (A) (A) (A) (A) (A)
                 (A) (A) (A) (A) (A) (A) (A) (A) (A) (A) (A) (A)
                 (A) (A) (A) (A) (A) (A) (A) (A) (A) (A) (A) (A)
                 (A) (A) (A) (A) (A) (A) (A) (A) (A) (A) (A) (A)
                 (A) (A) (A) (A) (A) (A) (A) (A) (A) (A) (A) (A)
                 (A) (A) (A) (A) (A) (A) (A) (A) (A) (A) (A) (A)
                 (A) (A) (A) (A) (A) (A) (A) (A) (A) (A) (A) (A)
                 (A) (A) (A) (A) (A) (A) (A) (A) (A) (A) (A) (A)
                 (A) (A) (A) (A) (A) (A) (A) (A) (A) (A) (A) (A)
                 (A) (A) (A) (A) (A)
 Beta  Orbitals:
       Occupied  (A) (A) (A) (A) (A) (A) (A) (A) (A) (A) (A) (A)
                 (A) (A) (A) (A) (A) (A) (A) (A) (A) (A) (A) (A)
                 (A) (A) (A) (A) (A) (A) (A) (A) (A) (A) (A) (A)
                 (A) (A) (A) (A) (A) (A) (A) (A) (A) (A) (A) (A)
                 (A) (A) (A) (A) (A) (A) (A) (A) (A) (A) (A) (A)
                 (A) (A) (A) (A) (A) (A) (A) (A) (A) (A) (A) (A)
                 (A) (A) (A) (A) (A) (A) (A) (A) (A) (A) (A) (A)
                 (A) (A) (A) (A) (A) (A) (A) (A) (A) (A) (A) (A)
                 (A) (A) (A) (A) (A) (A) (A) (A) (A) (A) (A) (A)
                 (A) (A) (A) (A) (A) (A) (A) (A) (A) (A) (A) (A)
                 (A) (A) (A) (A) (A) (A) (A) (A) (A) (A) (A) (A)
                 (A) (A) (A) (A) (A) (A) (A) (A) (A) (A) (A) (A)
                 (A) (A) (A) (A) (A) (A) (A) (A) (A) (A) (A) (A)
                 (A) (A) (A) (A) (A) (A) (A) (A) (A) (A) (A) (A)
                 (A) (A) (A) (A) (A) (A) (A) (A) (A) (A) (A) (A)
                 (A) (A) (A) (A) (A) (A) (A) (A) (A) (A) (A) (A)
                 (A) (A) (A) (A) (A) (A) (A) (A) (A) (A)
       Virtual   (A) (A) (A) (A) (A) (A) (A) (A) (A) (A) (A) (A)
                 (A) (A) (A) (A) (A) (A) (A) (A) (A) (A) (A) (A)
                 (A) (A) (A) (A) (A) (A) (A) (A) (A) (A) (A) (A)
                 (A) (A) (A) (A) (A) (A) (A) (A) (A) (A) (A) (A)
                 (A) (A) (A) (A) (A) (A) (A) (A) (A) (A) (A) (A)
                 (A) (A) (A) (A) (A) (A) (A) (A) (A) (A) (A) (A)
                 (A) (A) (A) (A) (A) (A) (A) (A) (A) (A) (A) (A)
                 (A) (A) (A) (A) (A) (A) (A) (A) (A) (A) (A) (A)
                 (A) (A) (A) (A) (A) (A) (A) (A) (A) (A) (A) (A)
                 (A) (A) (A) (A) (A) (A) (A) (A) (A) (A) (A) (A)
                 (A) (A) (A) (A) (A) (A) (A) (A) (A) (A) (A) (A)
                 (A) (A) (A) (A) (A) (A) (A) (A) (A) (A) (A) (A)
                 (A) (A) (A) (A) (A) (A) (A) (A) (A) (A) (A) (A)
                 (A) (A) (A) (A) (A) (A) (A) (A) (A) (A) (A) (A)
                 (A) (A) (A) (A) (A) (A) (A) (A) (A) (A) (A) (A)
                 (A) (A) (A) (A) (A) (A) (A) (A) (A) (A) (A) (A)
                 (A) (A) (A) (A) (A) (A) (A) (A) (A) (A) (A) (A)
                 (A) (A) (A) (A) (A) (A) (A) (A) (A) (A) (A) (A)
                 (A) (A) (A) (A) (A) (A) (A) (A) (A) (A) (A) (A)
                 (A) (A) (A) (A) (A) (A) (A) (A) (A) (A) (A) (A)
                 (A) (A) (A) (A) (A) (A) (A) (A) (A) (A) (A) (A)
                 (A) (A) (A) (A) (A) (A) (A) (A) (A) (A) (A) (A)
                 (A) (A) (A) (A) (A) (A) (A) (A) (A) (A) (A) (A)
                 (A) (A) (A) (A) (A) (A) (A) (A) (A) (A) (A) (A)
                 (A) (A) (A) (A) (A) (A) (A) (A) (A) (A) (A) (A)
                 (A) (A) (A) (A) (A) (A) (A) (A) (A) (A) (A) (A)
                 (A) (A) (A) (A) (A) (A) (A) (A) (A) (A) (A) (A)
                 (A) (A) (A) (A) (A) (A) (A) (A) (A) (A) (A) (A)
                 (A) (A) (A) (A) (A) (A) (A) (A) (A) (A) (A) (A)
                 (A) (A) (A) (A) (A) (A) (A) (A) (A) (A) (A) (A)
                 (A) (A) (A) (A) (A) (A) (A) (A) (A) (A) (A) (A)
                 (A) (A) (A) (A) (A) (A) (A) (A) (A) (A) (A) (A)
                 (A) (A) (A) (A) (A) (A) (A) (A) (A) (A) (A) (A)
                 (A) (A) (A) (A) (A) (A) (A) (A) (A) (A) (A) (A)
                 (A) (A) (A) (A) (A) (A) (A) (A) (A) (A) (A) (A)
                 (A) (A) (A) (A) (A) (A) (A) (A) (A) (A) (A) (A)
                 (A) (A) (A) (A) (A) (A) (A) (A) (A) (A) (A) (A)
                 (A) (A) (A) (A) (A) (A) (A) (A) (A) (A) (A) (A)
                 (A) (A) (A) (A) (A) (A) (A) (A) (A) (A) (A) (A)
                 (A) (A) (A) (A) (A) (A) (A) (A) (A) (A) (A) (A)
                 (A) (A) (A) (A) (A) (A) (A) (A) (A) (A) (A) (A)
                 (A) (A) (A) (A) (A) (A) (A) (A) (A) (A) (A) (A)
                 (A) (A) (A) (A) (A) (A) (A) (A) (A) (A) (A) (A)
                 (A) (A) (A) (A) (A) (A) (A) (A) (A) (A) (A) (A)
                 (A) (A) (A) (A) (A) (A) (A) (A) (A) (A) (A) (A)
                 (A) (A) (A) (A) (A) (A) (A) (A) (A) (A) (A) (A)
                 (A) (A) (A) (A) (A) (A) (A) (A) (A) (A) (A) (A)
                 (A) (A) (A) (A) (A) (A) (A) (A) (A) (A) (A) (A)
                 (A) (A) (A) (A) (A) (A) (A) (A) (A) (A) (A) (A)
                 (A) (A) (A) (A) (A) (A) (A) (A) (A) (A) (A) (A)
                 (A) (A) (A) (A) (A) (A) (A) (A) (A) (A) (A) (A)
                 (A) (A) (A) (A) (A) (A) (A) (A) (A) (A) (A) (A)
                 (A) (A) (A) (A) (A) (A) (A) (A) (A) (A) (A) (A)
                 (A) (A) (A) (A) (A) (A) (A) (A) (A) (A) (A) (A)
                 (A) (A) (A) (A) (A) (A) (A) (A) (A) (A) (A) (A)
                 (A) (A) (A) (A) (A) (A) (A) (A) (A) (A) (A) (A)
                 (A) (A) (A) (A) (A) (A) (A) (A) (A) (A) (A) (A)
                 (A) (A) (A) (A) (A) (A) (A) (A) (A) (A) (A) (A)
                 (A) (A) (A) (A) (A) (A) (A) (A) (A) (A) (A) (A)
                 (A) (A) (A) (A) (A) (A) (A) (A) (A) (A) (A) (A)
                 (A) (A) (A) (A) (A) (A) (A) (A) (A) (A) (A) (A)
                 (A) (A) (A) (A) (A) (A) (A) (A) (A) (A) (A) (A)
                 (A) (A) (A) (A) (A) (A) (A) (A) (A) (A) (A) (A)
                 (A) (A) (A) (A) (A) (A) (A) (A) (A) (A) (A) (A)
                 (A) (A) (A) (A) (A) (A) (A) (A) (A) (A) (A) (A)
                 (A) (A) (A) (A) (A) (A) (A) (A) (A) (A) (A) (A)
                 (A) (A) (A) (A) (A) (A) (A) (A) (A) (A) (A) (A)
                 (A) (A) (A) (A) (A) (A) (A) (A) (A) (A) (A) (A)
                 (A) (A) (A) (A) (A) (A) (A) (A) (A) (A) (A) (A)
                 (A) (A) (A) (A) (A) (A) (A) (A) (A) (A) (A) (A)
                 (A) (A) (A) (A) (A) (A) (A) (A) (A) (A) (A) (A)
                 (A) (A) (A) (A) (A) (A) (A) (A) (A) (A) (A) (A)
                 (A) (A) (A) (A) (A) (A) (A) (A) (A) (A) (A) (A)
                 (A) (A) (A) (A) (A) (A) (A) (A) (A) (A) (A) (A)
                 (A) (A) (A) (A) (A) (A) (A) (A) (A) (A) (A) (A)
                 (A) (A) (A) (A) (A) (A) (A) (A) (A) (A) (A) (A)
                 (A) (A) (A) (A) (A) (A) (A) (A) (A) (A) (A) (A)
                 (A) (A) (A) (A) (A) (A) (A) (A) (A) (A) (A) (A)
                 (A) (A) (A) (A) (A) (A) (A) (A) (A) (A) (A) (A)
                 (A) (A) (A) (A) (A) (A) (A) (A) (A) (A) (A) (A)
                 (A) (A) (A) (A) (A) (A) (A) (A) (A) (A) (A) (A)
                 (A) (A) (A) (A) (A) (A) (A) (A) (A) (A) (A) (A)
                 (A) (A) (A) (A) (A) (A) (A) (A) (A) (A) (A) (A)
                 (A) (A) (A) (A) (A) (A) (A) (A) (A) (A) (A) (A)
                 (A) (A) (A) (A) (A) (A) (A) (A) (A) (A) (A) (A)
                 (A) (A) (A) (A) (A) (A) (A) (A) (A) (A) (A) (A)
                 (A) (A) (A) (A) (A) (A) (A) (A) (A) (A) (A) (A)
                 (A) (A) (A) (A) (A) (A) (A) (A) (A) (A) (A) (A)
                 (A) (A) (A) (A) (A) (A) (A) (A) (A) (A) (A) (A)
                 (A) (A) (A) (A) (A) (A) (A) (A) (A) (A) (A) (A)
                 (A) (A) (A) (A) (A) (A) (A) (A) (A) (A) (A) (A)
                 (A) (A) (A) (A) (A) (A) (A) (A) (A) (A) (A) (A)
                 (A) (A) (A) (A) (A) (A) (A) (A) (A) (A) (A) (A)
                 (A) (A) (A) (A) (A) (A) (A) (A) (A) (A) (A) (A)
                 (A) (A) (A) (A) (A) (A) (A) (A) (A) (A) (A) (A)
                 (A) (A) (A) (A) (A) (A) (A) (A) (A) (A) (A) (A)
                 (A) (A) (A) (A) (A) (A) (A) (A) (A) (A) (A) (A)
                 (A) (A) (A) (A) (A) (A) (A) (A) (A) (A) (A) (A)
                 (A) (A) (A) (A) (A) (A) (A) (A) (A) (A) (A) (A)
                 (A) (A) (A) (A) (A) (A) (A) (A) (A) (A) (A) (A)
                 (A) (A) (A) (A) (A) (A) (A) (A) (A) (A) (A) (A)
                 (A) (A) (A) (A) (A) (A) (A) (A) (A) (A) (A) (A)
                 (A) (A) (A) (A) (A) (A) (A) (A) (A) (A) (A) (A)
                 (A) (A) (A) (A) (A) (A) (A) (A) (A) (A) (A) (A)
                 (A) (A) (A) (A) (A) (A) (A) (A) (A) (A) (A) (A)
                 (A) (A) (A) (A) (A) (A) (A) (A) (A) (A) (A) (A)
                 (A) (A) (A) (A) (A) (A) (A) (A) (A) (A) (A) (A)
                 (A) (A) (A) (A) (A) (A) (A) (A) (A) (A) (A) (A)
                 (A) (A) (A) (A) (A) (A) (A) (A) (A) (A) (A) (A)
                 (A) (A) (A) (A) (A) (A) (A) (A) (A) (A) (A) (A)
                 (A) (A) (A) (A) (A) (A) (A) (A) (A) (A) (A) (A)
                 (A) (A) (A) (A) (A) (A) (A) (A) (A) (A) (A) (A)
                 (A) (A) (A) (A) (A) (A) (A) (A) (A) (A) (A) (A)
                 (A) (A) (A) (A) (A) (A) (A) (A) (A) (A) (A) (A)
                 (A) (A) (A) (A) (A) (A) (A) (A) (A) (A) (A) (A)
                 (A) (A) (A) (A) (A) (A) (A) (A) (A) (A) (A) (A)
                 (A) (A) (A) (A) (A) (A) (A) (A) (A) (A) (A) (A)
                 (A) (A) (A) (A) (A) (A) (A) (A) (A) (A) (A) (A)
                 (A) (A) (A) (A) (A) (A) (A) (A) (A) (A) (A) (A)
                 (A) (A) (A) (A) (A) (A) (A) (A) (A) (A) (A) (A)
                 (A) (A) (A) (A) (A) (A) (A) (A) (A) (A) (A) (A)
                 (A) (A) (A) (A) (A) (A) (A) (A) (A) (A) (A) (A)
                 (A) (A) (A) (A) (A) (A) (A) (A) (A) (A) (A) (A)
                 (A) (A) (A) (A) (A) (A) (A) (A) (A) (A) (A) (A)
                 (A) (A) (A) (A) (A) (A) (A) (A) (A) (A) (A) (A)
                 (A) (A) (A) (A) (A) (A) (A) (A) (A) (A) (A) (A)
                 (A) (A) (A) (A) (A) (A) (A) (A) (A) (A) (A) (A)
                 (A) (A) (A) (A) (A) (A) (A) (A) (A) (A) (A) (A)
                 (A) (A) (A) (A) (A) (A) (A) (A) (A) (A) (A) (A)
                 (A) (A) (A) (A) (A) (A) (A) (A) (A) (A) (A) (A)
                 (A) (A) (A) (A) (A) (A) (A) (A) (A) (A) (A) (A)
                 (A) (A) (A) (A) (A) (A) (A) (A) (A) (A) (A) (A)
                 (A) (A) (A) (A) (A) (A) (A) (A) (A) (A) (A) (A)
                 (A) (A) (A) (A) (A) (A) (A) (A) (A) (A) (A) (A)
                 (A) (A) (A) (A) (A) (A) (A) (A) (A) (A) (A) (A)
                 (A) (A) (A) (A) (A) (A) (A) (A) (A) (A) (A) (A)
                 (A) (A) (A) (A) (A) (A) (A) (A) (A) (A) (A) (A)
                 (A) (A) (A) (A) (A) (A) (A) (A) (A) (A) (A) (A)
                 (A) (A) (A) (A) (A) (A) (A) (A) (A) (A) (A) (A)
                 (A) (A) (A) (A) (A) (A) (A) (A) (A) (A) (A) (A)
                 (A) (A) (A) (A) (A) (A) (A) (A) (A) (A) (A) (A)
                 (A) (A) (A) (A) (A) (A) (A) (A) (A) (A) (A) (A)
                 (A) (A) (A) (A) (A) (A) (A) (A) (A) (A) (A) (A)
                 (A) (A) (A) (A) (A) (A) (A) (A) (A) (A) (A) (A)
                 (A) (A) (A) (A) (A) (A) (A) (A) (A)
 The electronic state is 5-A.
 Alpha  occ. eigenvalues -- -256.41635 -89.01880 -30.22266 -26.05775 -26.03510
 Alpha  occ. eigenvalues --  -26.03429 -19.26509 -19.23603 -19.19309 -19.16037
 Alpha  occ. eigenvalues --  -14.45430 -14.39113 -14.38242 -14.38032 -14.37937
 Alpha  occ. eigenvalues --  -14.37351 -10.36344 -10.33258 -10.28556 -10.26666
 Alpha  occ. eigenvalues --  -10.25191 -10.25075 -10.24913 -10.24703 -10.24560
 Alpha  occ. eigenvalues --  -10.24372 -10.24034 -10.24021 -10.23956 -10.23682
 Alpha  occ. eigenvalues --  -10.23489 -10.23480 -10.23281 -10.23124 -10.22884
 Alpha  occ. eigenvalues --  -10.22591 -10.22554 -10.22515 -10.22434 -10.22086
 Alpha  occ. eigenvalues --  -10.22073 -10.22032 -10.21849 -10.21766 -10.21645
 Alpha  occ. eigenvalues --  -10.21612 -10.21591 -10.21453 -10.21427 -10.21218
 Alpha  occ. eigenvalues --  -10.21127 -10.20985 -10.20601 -10.20369 -10.20358
 Alpha  occ. eigenvalues --  -10.20080 -10.19258  -7.99823  -5.93476  -5.93189
 Alpha  occ. eigenvalues --   -5.92646  -3.61580  -2.41406  -2.35470  -2.35278
 Alpha  occ. eigenvalues --   -1.17310  -1.14733  -1.07341  -1.03621  -1.01297
 Alpha  occ. eigenvalues --   -0.97035  -0.96121  -0.95706  -0.94530  -0.91527
 Alpha  occ. eigenvalues --   -0.84498  -0.84318  -0.82770  -0.82511  -0.82232
 Alpha  occ. eigenvalues --   -0.81981  -0.81563  -0.80182  -0.79820  -0.78595
 Alpha  occ. eigenvalues --   -0.77677  -0.76482  -0.76051  -0.74833  -0.74051
 Alpha  occ. eigenvalues --   -0.73385  -0.73278  -0.72273  -0.71599  -0.70940
 Alpha  occ. eigenvalues --   -0.70314  -0.68959  -0.68564  -0.68339  -0.66682
 Alpha  occ. eigenvalues --   -0.65390  -0.65035  -0.64316  -0.63646  -0.62959
 Alpha  occ. eigenvalues --   -0.61344  -0.60489  -0.60193  -0.58126  -0.57396
 Alpha  occ. eigenvalues --   -0.56956  -0.55386  -0.54787  -0.54223  -0.53935
 Alpha  occ. eigenvalues --   -0.53175  -0.51895  -0.51747  -0.51531  -0.50800
 Alpha  occ. eigenvalues --   -0.50272  -0.49983  -0.49566  -0.49085  -0.48769
 Alpha  occ. eigenvalues --   -0.48631  -0.48422  -0.48052  -0.47988  -0.47793
 Alpha  occ. eigenvalues --   -0.46736  -0.46475  -0.45654  -0.45247  -0.44719
 Alpha  occ. eigenvalues --   -0.44459  -0.44347  -0.44259  -0.44096  -0.44015
 Alpha  occ. eigenvalues --   -0.43962  -0.43780  -0.43526  -0.43230  -0.43167
 Alpha  occ. eigenvalues --   -0.42993  -0.42768  -0.42629  -0.42381  -0.42273
 Alpha  occ. eigenvalues --   -0.42056  -0.41871  -0.41420  -0.41296  -0.41181
 Alpha  occ. eigenvalues --   -0.41079  -0.40785  -0.40699  -0.40651  -0.40508
 Alpha  occ. eigenvalues --   -0.39824  -0.39381  -0.38944  -0.38472  -0.38410
 Alpha  occ. eigenvalues --   -0.38187  -0.38052  -0.37911  -0.37802  -0.37732
 Alpha  occ. eigenvalues --   -0.37557  -0.37427  -0.36997  -0.36356  -0.36005
 Alpha  occ. eigenvalues --   -0.35861  -0.35577  -0.35265  -0.34685  -0.34488
 Alpha  occ. eigenvalues --   -0.34005  -0.33651  -0.33485  -0.33254  -0.32696
 Alpha  occ. eigenvalues --   -0.32309  -0.32085  -0.31396  -0.31271  -0.30666
 Alpha  occ. eigenvalues --   -0.30599  -0.28918  -0.28518  -0.27068  -0.26818
 Alpha  occ. eigenvalues --   -0.26426  -0.25993  -0.25102  -0.24114  -0.23721
 Alpha  occ. eigenvalues --   -0.22554  -0.21967  -0.20663  -0.19306  -0.18832
 Alpha  occ. eigenvalues --   -0.11505
 Alpha virt. eigenvalues --   -0.08059  -0.06963  -0.04042  -0.02902  -0.01391
 Alpha virt. eigenvalues --    0.00951   0.01181   0.01907   0.02093   0.02173
 Alpha virt. eigenvalues --    0.03022   0.03457   0.04040   0.04221   0.04780
 Alpha virt. eigenvalues --    0.04886   0.05813   0.06129   0.06407   0.06504
 Alpha virt. eigenvalues --    0.06766   0.07285   0.07426   0.07490   0.07619
 Alpha virt. eigenvalues --    0.08074   0.08728   0.08980   0.09052   0.09267
 Alpha virt. eigenvalues --    0.09338   0.09696   0.09812   0.09999   0.10565
 Alpha virt. eigenvalues --    0.10810   0.11236   0.11316   0.11536   0.11588
 Alpha virt. eigenvalues --    0.11889   0.12134   0.12322   0.12526   0.12707
 Alpha virt. eigenvalues --    0.12994   0.13184   0.13554   0.13708   0.13863
 Alpha virt. eigenvalues --    0.14053   0.14109   0.14330   0.14509   0.14646
 Alpha virt. eigenvalues --    0.14979   0.15329   0.15493   0.15663   0.15758
 Alpha virt. eigenvalues --    0.16095   0.16357   0.16462   0.16601   0.16714
 Alpha virt. eigenvalues --    0.16791   0.17233   0.17377   0.17590   0.17801
 Alpha virt. eigenvalues --    0.17949   0.18219   0.18399   0.18581   0.18882
 Alpha virt. eigenvalues --    0.18921   0.19416   0.19571   0.19688   0.19737
 Alpha virt. eigenvalues --    0.20014   0.20145   0.20450   0.20762   0.20827
 Alpha virt. eigenvalues --    0.21110   0.21391   0.21486   0.21806   0.21895
 Alpha virt. eigenvalues --    0.22158   0.22521   0.22573   0.22731   0.22885
 Alpha virt. eigenvalues --    0.23268   0.23358   0.23494   0.23745   0.24078
 Alpha virt. eigenvalues --    0.24255   0.24511   0.24735   0.24796   0.24885
 Alpha virt. eigenvalues --    0.25159   0.25290   0.25483   0.25614   0.25758
 Alpha virt. eigenvalues --    0.26216   0.26546   0.26719   0.26961   0.27307
 Alpha virt. eigenvalues --    0.27539   0.27587   0.27740   0.28067   0.28203
 Alpha virt. eigenvalues --    0.28290   0.28479   0.28529   0.29066   0.29275
 Alpha virt. eigenvalues --    0.29426   0.29523   0.29712   0.29828   0.29892
 Alpha virt. eigenvalues --    0.30376   0.31001   0.31101   0.31221   0.31434
 Alpha virt. eigenvalues --    0.31792   0.31911   0.32074   0.32468   0.32560
 Alpha virt. eigenvalues --    0.32818   0.33121   0.33341   0.33545   0.33786
 Alpha virt. eigenvalues --    0.34146   0.34437   0.34788   0.35068   0.35119
 Alpha virt. eigenvalues --    0.35298   0.35698   0.35781   0.35996   0.36134
 Alpha virt. eigenvalues --    0.36451   0.36577   0.36718   0.36913   0.37312
 Alpha virt. eigenvalues --    0.37430   0.37454   0.37771   0.37848   0.38044
 Alpha virt. eigenvalues --    0.38110   0.38366   0.38583   0.38830   0.38979
 Alpha virt. eigenvalues --    0.39104   0.39423   0.39583   0.39715   0.39965
 Alpha virt. eigenvalues --    0.40147   0.40379   0.40498   0.40563   0.40892
 Alpha virt. eigenvalues --    0.40984   0.41106   0.41444   0.41637   0.41958
 Alpha virt. eigenvalues --    0.42220   0.42226   0.42357   0.42574   0.42675
 Alpha virt. eigenvalues --    0.42802   0.42989   0.43137   0.43406   0.43551
 Alpha virt. eigenvalues --    0.43707   0.43811   0.44027   0.44298   0.44374
 Alpha virt. eigenvalues --    0.44581   0.44701   0.44836   0.44947   0.45213
 Alpha virt. eigenvalues --    0.45416   0.45548   0.45753   0.45782   0.46002
 Alpha virt. eigenvalues --    0.46118   0.46361   0.46667   0.46828   0.46913
 Alpha virt. eigenvalues --    0.47029   0.47187   0.47501   0.47621   0.47828
 Alpha virt. eigenvalues --    0.47959   0.48155   0.48491   0.48538   0.48701
 Alpha virt. eigenvalues --    0.48847   0.49036   0.49318   0.49437   0.49520
 Alpha virt. eigenvalues --    0.49796   0.49936   0.50103   0.50482   0.50573
 Alpha virt. eigenvalues --    0.50775   0.50900   0.51206   0.51538   0.51741
 Alpha virt. eigenvalues --    0.51784   0.52116   0.52199   0.52304   0.52443
 Alpha virt. eigenvalues --    0.52654   0.52765   0.52893   0.53122   0.53302
 Alpha virt. eigenvalues --    0.53630   0.53698   0.53841   0.54166   0.54402
 Alpha virt. eigenvalues --    0.54487   0.54832   0.54931   0.55109   0.55161
 Alpha virt. eigenvalues --    0.55393   0.55639   0.55806   0.56012   0.56248
 Alpha virt. eigenvalues --    0.56557   0.56623   0.56994   0.57103   0.57187
 Alpha virt. eigenvalues --    0.57437   0.57538   0.57835   0.58239   0.58499
 Alpha virt. eigenvalues --    0.58531   0.58749   0.58817   0.59311   0.59486
 Alpha virt. eigenvalues --    0.59623   0.59984   0.60245   0.60536   0.60694
 Alpha virt. eigenvalues --    0.60957   0.61354   0.61480   0.61640   0.61961
 Alpha virt. eigenvalues --    0.61977   0.62270   0.62545   0.62758   0.63210
 Alpha virt. eigenvalues --    0.63547   0.63843   0.63873   0.64652   0.64757
 Alpha virt. eigenvalues --    0.65097   0.65388   0.65629   0.65906   0.66078
 Alpha virt. eigenvalues --    0.66315   0.66699   0.66723   0.66925   0.67082
 Alpha virt. eigenvalues --    0.67417   0.67626   0.68084   0.68357   0.68400
 Alpha virt. eigenvalues --    0.68623   0.68936   0.69147   0.69303   0.69704
 Alpha virt. eigenvalues --    0.69820   0.70316   0.70496   0.70820   0.70914
 Alpha virt. eigenvalues --    0.71113   0.71239   0.71485   0.71692   0.72166
 Alpha virt. eigenvalues --    0.72562   0.72784   0.72949   0.73095   0.73350
 Alpha virt. eigenvalues --    0.73466   0.73954   0.74127   0.74360   0.74911
 Alpha virt. eigenvalues --    0.75048   0.75302   0.75519   0.75717   0.75976
 Alpha virt. eigenvalues --    0.76271   0.76727   0.76964   0.77271   0.77601
 Alpha virt. eigenvalues --    0.77863   0.77969   0.78362   0.78890   0.79280
 Alpha virt. eigenvalues --    0.79341   0.79486   0.80021   0.80407   0.80428
 Alpha virt. eigenvalues --    0.81111   0.81269   0.81670   0.81788   0.82279
 Alpha virt. eigenvalues --    0.82597   0.82870   0.82949   0.83310   0.83703
 Alpha virt. eigenvalues --    0.83849   0.84040   0.84154   0.84284   0.84608
 Alpha virt. eigenvalues --    0.84870   0.85341   0.85486   0.85725   0.86090
 Alpha virt. eigenvalues --    0.86222   0.86642   0.86739   0.87084   0.87824
 Alpha virt. eigenvalues --    0.87925   0.88190   0.88297   0.88491   0.88831
 Alpha virt. eigenvalues --    0.89196   0.89489   0.89702   0.90119   0.90586
 Alpha virt. eigenvalues --    0.90689   0.91121   0.91539   0.91788   0.91915
 Alpha virt. eigenvalues --    0.91994   0.92360   0.92465   0.93068   0.93438
 Alpha virt. eigenvalues --    0.93676   0.93881   0.94245   0.94345   0.94650
 Alpha virt. eigenvalues --    0.94929   0.95184   0.95461   0.95585   0.95725
 Alpha virt. eigenvalues --    0.95958   0.96319   0.96340   0.96761   0.96907
 Alpha virt. eigenvalues --    0.97064   0.97360   0.97865   0.98118   0.98201
 Alpha virt. eigenvalues --    0.98494   0.98891   0.99227   0.99579   0.99635
 Alpha virt. eigenvalues --    0.99934   1.00133   1.00336   1.00559   1.00953
 Alpha virt. eigenvalues --    1.00971   1.01131   1.01597   1.01661   1.02308
 Alpha virt. eigenvalues --    1.02651   1.02824   1.03121   1.03425   1.03493
 Alpha virt. eigenvalues --    1.03694   1.03997   1.04090   1.04699   1.04921
 Alpha virt. eigenvalues --    1.05324   1.05896   1.06121   1.06156   1.06375
 Alpha virt. eigenvalues --    1.06467   1.06855   1.07379   1.07727   1.08229
 Alpha virt. eigenvalues --    1.08324   1.08637   1.09220   1.09501   1.09816
 Alpha virt. eigenvalues --    1.09963   1.10162   1.10286   1.10702   1.10939
 Alpha virt. eigenvalues --    1.11164   1.11591   1.11898   1.12213   1.12501
 Alpha virt. eigenvalues --    1.12598   1.13157   1.13724   1.14032   1.14132
 Alpha virt. eigenvalues --    1.14335   1.14778   1.15043   1.15453   1.15647
 Alpha virt. eigenvalues --    1.16108   1.16635   1.16810   1.17074   1.17655
 Alpha virt. eigenvalues --    1.18105   1.18370   1.18652   1.19266   1.19612
 Alpha virt. eigenvalues --    1.19826   1.19937   1.20511   1.20979   1.21247
 Alpha virt. eigenvalues --    1.21533   1.21668   1.21847   1.22448   1.22485
 Alpha virt. eigenvalues --    1.23015   1.23540   1.23555   1.24111   1.24464
 Alpha virt. eigenvalues --    1.24833   1.25404   1.25441   1.25723   1.26302
 Alpha virt. eigenvalues --    1.26584   1.27087   1.27323   1.28072   1.28251
 Alpha virt. eigenvalues --    1.28328   1.28444   1.29137   1.29225   1.29529
 Alpha virt. eigenvalues --    1.29638   1.29794   1.30181   1.31005   1.31494
 Alpha virt. eigenvalues --    1.31555   1.31969   1.32242   1.32316   1.32743
 Alpha virt. eigenvalues --    1.33165   1.33739   1.33948   1.34312   1.34436
 Alpha virt. eigenvalues --    1.35122   1.35408   1.35767   1.36168   1.36645
 Alpha virt. eigenvalues --    1.37417   1.37706   1.38115   1.38695   1.38844
 Alpha virt. eigenvalues --    1.39230   1.39598   1.39725   1.40113   1.40393
 Alpha virt. eigenvalues --    1.41285   1.41395   1.41645   1.41863   1.42425
 Alpha virt. eigenvalues --    1.43286   1.43549   1.43895   1.44697   1.44931
 Alpha virt. eigenvalues --    1.45348   1.45446   1.46111   1.46647   1.47213
 Alpha virt. eigenvalues --    1.47265   1.47768   1.47996   1.48264   1.48494
 Alpha virt. eigenvalues --    1.48780   1.49275   1.49788   1.49867   1.50096
 Alpha virt. eigenvalues --    1.50314   1.50504   1.50772   1.51126   1.51391
 Alpha virt. eigenvalues --    1.51865   1.52012   1.52335   1.52377   1.52575
 Alpha virt. eigenvalues --    1.52912   1.53045   1.53266   1.53452   1.53867
 Alpha virt. eigenvalues --    1.54266   1.54375   1.54554   1.54729   1.54911
 Alpha virt. eigenvalues --    1.55251   1.55620   1.56030   1.56199   1.56683
 Alpha virt. eigenvalues --    1.56746   1.57069   1.57316   1.57683   1.57797
 Alpha virt. eigenvalues --    1.58174   1.58356   1.58707   1.59057   1.59181
 Alpha virt. eigenvalues --    1.59315   1.59452   1.59695   1.60068   1.60175
 Alpha virt. eigenvalues --    1.60377   1.60693   1.60993   1.61136   1.61266
 Alpha virt. eigenvalues --    1.61666   1.61911   1.62220   1.62393   1.62599
 Alpha virt. eigenvalues --    1.62933   1.63100   1.63176   1.63440   1.63843
 Alpha virt. eigenvalues --    1.63989   1.64320   1.64348   1.64978   1.65115
 Alpha virt. eigenvalues --    1.65524   1.65786   1.65959   1.66209   1.66378
 Alpha virt. eigenvalues --    1.66650   1.67081   1.67456   1.67616   1.67835
 Alpha virt. eigenvalues --    1.68098   1.68500   1.68867   1.69094   1.69300
 Alpha virt. eigenvalues --    1.69647   1.70041   1.70129   1.70519   1.70646
 Alpha virt. eigenvalues --    1.71028   1.71115   1.71688   1.71792   1.71939
 Alpha virt. eigenvalues --    1.72282   1.72442   1.72774   1.72881   1.73383
 Alpha virt. eigenvalues --    1.73754   1.73892   1.74037   1.74732   1.74794
 Alpha virt. eigenvalues --    1.75017   1.75494   1.75809   1.75858   1.76122
 Alpha virt. eigenvalues --    1.76517   1.77026   1.77359   1.77698   1.77897
 Alpha virt. eigenvalues --    1.78394   1.78996   1.79083   1.79888   1.80071
 Alpha virt. eigenvalues --    1.80219   1.80516   1.80844   1.81422   1.81517
 Alpha virt. eigenvalues --    1.82062   1.82218   1.82600   1.82895   1.83168
 Alpha virt. eigenvalues --    1.83445   1.83825   1.84003   1.84342   1.84736
 Alpha virt. eigenvalues --    1.84896   1.85251   1.85648   1.86306   1.86507
 Alpha virt. eigenvalues --    1.86657   1.87465   1.87532   1.87633   1.88451
 Alpha virt. eigenvalues --    1.88678   1.89304   1.89454   1.89770   1.89907
 Alpha virt. eigenvalues --    1.90285   1.90438   1.90776   1.90946   1.91260
 Alpha virt. eigenvalues --    1.91657   1.91933   1.92414   1.92733   1.93026
 Alpha virt. eigenvalues --    1.93318   1.93566   1.93902   1.94633   1.94962
 Alpha virt. eigenvalues --    1.95018   1.95786   1.96072   1.96335   1.96573
 Alpha virt. eigenvalues --    1.96849   1.97419   1.97665   1.98175   1.98538
 Alpha virt. eigenvalues --    1.98623   1.98915   1.99442   1.99682   1.99962
 Alpha virt. eigenvalues --    2.00280   2.00922   2.01219   2.01639   2.02006
 Alpha virt. eigenvalues --    2.02399   2.02822   2.03198   2.03326   2.03475
 Alpha virt. eigenvalues --    2.03736   2.03960   2.04855   2.05190   2.05250
 Alpha virt. eigenvalues --    2.05994   2.06613   2.06702   2.06904   2.07287
 Alpha virt. eigenvalues --    2.07819   2.08270   2.08663   2.09180   2.09293
 Alpha virt. eigenvalues --    2.09320   2.09989   2.10257   2.10826   2.10952
 Alpha virt. eigenvalues --    2.11513   2.11968   2.12323   2.12489   2.12864
 Alpha virt. eigenvalues --    2.13074   2.13622   2.13815   2.14095   2.14360
 Alpha virt. eigenvalues --    2.14501   2.14702   2.14932   2.15128   2.15383
 Alpha virt. eigenvalues --    2.15704   2.16055   2.16349   2.16926   2.17206
 Alpha virt. eigenvalues --    2.17385   2.17612   2.17721   2.18099   2.18518
 Alpha virt. eigenvalues --    2.18880   2.19008   2.19641   2.20160   2.20259
 Alpha virt. eigenvalues --    2.20506   2.21314   2.21549   2.21835   2.22093
 Alpha virt. eigenvalues --    2.22561   2.22794   2.23271   2.23717   2.24363
 Alpha virt. eigenvalues --    2.24818   2.24969   2.25448   2.25748   2.26149
 Alpha virt. eigenvalues --    2.26279   2.26765   2.26947   2.27377   2.27453
 Alpha virt. eigenvalues --    2.27720   2.28693   2.29188   2.29681   2.29750
 Alpha virt. eigenvalues --    2.30051   2.30463   2.30572   2.30664   2.31258
 Alpha virt. eigenvalues --    2.31707   2.32236   2.32705   2.32946   2.33084
 Alpha virt. eigenvalues --    2.33553   2.33764   2.34178   2.34813   2.35061
 Alpha virt. eigenvalues --    2.35436   2.35475   2.35773   2.35867   2.36218
 Alpha virt. eigenvalues --    2.36825   2.37408   2.37759   2.38067   2.38290
 Alpha virt. eigenvalues --    2.38675   2.39249   2.39656   2.39697   2.40067
 Alpha virt. eigenvalues --    2.40683   2.40900   2.41384   2.41637   2.41711
 Alpha virt. eigenvalues --    2.42327   2.42981   2.43262   2.43416   2.43578
 Alpha virt. eigenvalues --    2.43917   2.44621   2.45245   2.45448   2.45669
 Alpha virt. eigenvalues --    2.45840   2.45992   2.46256   2.47099   2.47167
 Alpha virt. eigenvalues --    2.47426   2.48030   2.48130   2.48610   2.49559
 Alpha virt. eigenvalues --    2.49913   2.50148   2.50567   2.50827   2.51109
 Alpha virt. eigenvalues --    2.51711   2.52475   2.52763   2.53236   2.53640
 Alpha virt. eigenvalues --    2.53770   2.54104   2.54131   2.54424   2.54626
 Alpha virt. eigenvalues --    2.55267   2.55691   2.55900   2.56011   2.56472
 Alpha virt. eigenvalues --    2.56799   2.57051   2.57150   2.57755   2.57960
 Alpha virt. eigenvalues --    2.58036   2.58262   2.58550   2.58924   2.58994
 Alpha virt. eigenvalues --    2.59115   2.59582   2.59824   2.60202   2.60410
 Alpha virt. eigenvalues --    2.60824   2.60999   2.61144   2.61858   2.61904
 Alpha virt. eigenvalues --    2.62305   2.62724   2.62749   2.63019   2.63328
 Alpha virt. eigenvalues --    2.63753   2.64017   2.64236   2.64997   2.65153
 Alpha virt. eigenvalues --    2.65279   2.65505   2.65842   2.65951   2.66437
 Alpha virt. eigenvalues --    2.67096   2.67200   2.67944   2.68318   2.68537
 Alpha virt. eigenvalues --    2.68829   2.69347   2.69473   2.69627   2.69801
 Alpha virt. eigenvalues --    2.70126   2.70470   2.70757   2.71115   2.71339
 Alpha virt. eigenvalues --    2.71581   2.71893   2.72151   2.72432   2.72715
 Alpha virt. eigenvalues --    2.73199   2.73782   2.73960   2.74472   2.74508
 Alpha virt. eigenvalues --    2.74958   2.75350   2.75461   2.75671   2.76362
 Alpha virt. eigenvalues --    2.76745   2.77491   2.77671   2.77777   2.78216
 Alpha virt. eigenvalues --    2.78826   2.79330   2.79504   2.79774   2.80037
 Alpha virt. eigenvalues --    2.80223   2.80490   2.80857   2.81285   2.81511
 Alpha virt. eigenvalues --    2.81947   2.82247   2.82343   2.82659   2.82924
 Alpha virt. eigenvalues --    2.83493   2.83753   2.83839   2.84269   2.84657
 Alpha virt. eigenvalues --    2.85305   2.85619   2.86019   2.86449   2.86616
 Alpha virt. eigenvalues --    2.86758   2.86916   2.87322   2.87646   2.87760
 Alpha virt. eigenvalues --    2.88206   2.88750   2.89141   2.89246   2.89412
 Alpha virt. eigenvalues --    2.89680   2.89738   2.90300   2.90633   2.90901
 Alpha virt. eigenvalues --    2.91217   2.91813   2.92081   2.92628   2.92825
 Alpha virt. eigenvalues --    2.93008   2.93610   2.93822   2.94073   2.94505
 Alpha virt. eigenvalues --    2.94575   2.95129   2.95149   2.95500   2.95972
 Alpha virt. eigenvalues --    2.96231   2.96675   2.96964   2.97397   2.97590
 Alpha virt. eigenvalues --    2.97746   2.98024   2.98790   2.98848   2.99017
 Alpha virt. eigenvalues --    2.99258   2.99680   2.99691   3.00077   3.00368
 Alpha virt. eigenvalues --    3.00647   3.00872   3.01033   3.01395   3.01455
 Alpha virt. eigenvalues --    3.01938   3.02167   3.02488   3.02499   3.02778
 Alpha virt. eigenvalues --    3.03262   3.03834   3.03897   3.04169   3.04702
 Alpha virt. eigenvalues --    3.04867   3.05305   3.05426   3.05690   3.06220
 Alpha virt. eigenvalues --    3.06524   3.06777   3.07275   3.07500   3.07990
 Alpha virt. eigenvalues --    3.08201   3.08241   3.08513   3.08917   3.09427
 Alpha virt. eigenvalues --    3.09481   3.09877   3.10064   3.10359   3.10424
 Alpha virt. eigenvalues --    3.10758   3.10937   3.11328   3.11539   3.11779
 Alpha virt. eigenvalues --    3.11850   3.12350   3.12591   3.12823   3.13101
 Alpha virt. eigenvalues --    3.13245   3.13553   3.14087   3.14280   3.14525
 Alpha virt. eigenvalues --    3.14699   3.14958   3.14999   3.15289   3.15541
 Alpha virt. eigenvalues --    3.16148   3.16415   3.16456   3.16909   3.16925
 Alpha virt. eigenvalues --    3.17287   3.17654   3.17753   3.18052   3.18303
 Alpha virt. eigenvalues --    3.18474   3.18641   3.19064   3.19241   3.19791
 Alpha virt. eigenvalues --    3.20145   3.20315   3.20412   3.20728   3.20981
 Alpha virt. eigenvalues --    3.21254   3.21447   3.21817   3.21958   3.22430
 Alpha virt. eigenvalues --    3.22915   3.23049   3.23239   3.23667   3.23868
 Alpha virt. eigenvalues --    3.24218   3.24438   3.24771   3.25020   3.25312
 Alpha virt. eigenvalues --    3.25495   3.25646   3.25879   3.25994   3.26401
 Alpha virt. eigenvalues --    3.26553   3.26787   3.26997   3.27127   3.27425
 Alpha virt. eigenvalues --    3.27772   3.28041   3.28456   3.28533   3.28706
 Alpha virt. eigenvalues --    3.29199   3.29357   3.29697   3.29796   3.30011
 Alpha virt. eigenvalues --    3.30387   3.30608   3.30726   3.30933   3.31427
 Alpha virt. eigenvalues --    3.31832   3.31887   3.32015   3.32464   3.32630
 Alpha virt. eigenvalues --    3.33028   3.33109   3.33346   3.33672   3.33966
 Alpha virt. eigenvalues --    3.34071   3.34456   3.34762   3.35045   3.35402
 Alpha virt. eigenvalues --    3.35445   3.35738   3.35960   3.36054   3.36206
 Alpha virt. eigenvalues --    3.36312   3.36806   3.37002   3.37178   3.37424
 Alpha virt. eigenvalues --    3.37795   3.38211   3.38371   3.38610   3.38926
 Alpha virt. eigenvalues --    3.39118   3.39246   3.39480   3.39693   3.40115
 Alpha virt. eigenvalues --    3.40498   3.40880   3.41030   3.41391   3.41497
 Alpha virt. eigenvalues --    3.41612   3.41885   3.42180   3.42476   3.42496
 Alpha virt. eigenvalues --    3.42755   3.43077   3.43389   3.43723   3.43919
 Alpha virt. eigenvalues --    3.44280   3.44464   3.44817   3.44946   3.45603
 Alpha virt. eigenvalues --    3.45865   3.46108   3.46444   3.46703   3.46981
 Alpha virt. eigenvalues --    3.47344   3.47502   3.47996   3.48063   3.48402
 Alpha virt. eigenvalues --    3.48598   3.49032   3.49814   3.50087   3.50189
 Alpha virt. eigenvalues --    3.50505   3.50709   3.51071   3.51637   3.51873
 Alpha virt. eigenvalues --    3.52259   3.52610   3.52725   3.53289   3.53590
 Alpha virt. eigenvalues --    3.53938   3.54527   3.54902   3.55002   3.55252
 Alpha virt. eigenvalues --    3.55589   3.55983   3.56645   3.56824   3.57029
 Alpha virt. eigenvalues --    3.57474   3.57748   3.57869   3.58099   3.58618
 Alpha virt. eigenvalues --    3.59003   3.59549   3.59799   3.60020   3.60218
 Alpha virt. eigenvalues --    3.60295   3.60811   3.61348   3.61931   3.62099
 Alpha virt. eigenvalues --    3.62492   3.62665   3.62895   3.63526   3.63873
 Alpha virt. eigenvalues --    3.64171   3.64463   3.64635   3.64900   3.65193
 Alpha virt. eigenvalues --    3.65258   3.65749   3.66084   3.66317   3.66511
 Alpha virt. eigenvalues --    3.66950   3.67252   3.67605   3.68142   3.68482
 Alpha virt. eigenvalues --    3.68879   3.69010   3.69247   3.69596   3.70122
 Alpha virt. eigenvalues --    3.70280   3.70613   3.70989   3.71288   3.71724
 Alpha virt. eigenvalues --    3.71799   3.71893   3.72792   3.73106   3.73282
 Alpha virt. eigenvalues --    3.73563   3.74674   3.74846   3.75317   3.75661
 Alpha virt. eigenvalues --    3.76034   3.76547   3.76835   3.77351   3.77600
 Alpha virt. eigenvalues --    3.77677   3.78174   3.78933   3.79320   3.80029
 Alpha virt. eigenvalues --    3.80259   3.80768   3.81208   3.81478   3.82049
 Alpha virt. eigenvalues --    3.82256   3.82840   3.83248   3.83891   3.84219
 Alpha virt. eigenvalues --    3.84900   3.85206   3.85669   3.86116   3.86327
 Alpha virt. eigenvalues --    3.87162   3.88214   3.88384   3.88661   3.89402
 Alpha virt. eigenvalues --    3.89692   3.89887   3.90673   3.90912   3.91756
 Alpha virt. eigenvalues --    3.92231   3.92271   3.92870   3.93542   3.93824
 Alpha virt. eigenvalues --    3.94126   3.94498   3.95096   3.95349   3.96015
 Alpha virt. eigenvalues --    3.96294   3.96782   3.97242   3.97582   3.97867
 Alpha virt. eigenvalues --    3.98474   3.98794   3.99122   3.99590   4.00012
 Alpha virt. eigenvalues --    4.00632   4.00922   4.01488   4.02058   4.02893
 Alpha virt. eigenvalues --    4.03052   4.03877   4.04114   4.04539   4.04815
 Alpha virt. eigenvalues --    4.05773   4.05883   4.06522   4.06929   4.07297
 Alpha virt. eigenvalues --    4.08372   4.08414   4.09246   4.09653   4.10245
 Alpha virt. eigenvalues --    4.10726   4.11780   4.12518   4.12594   4.12810
 Alpha virt. eigenvalues --    4.13358   4.13604   4.13742   4.14157   4.15102
 Alpha virt. eigenvalues --    4.15889   4.15984   4.16445   4.16953   4.17405
 Alpha virt. eigenvalues --    4.18189   4.18816   4.19358   4.19865   4.20183
 Alpha virt. eigenvalues --    4.20726   4.21141   4.21878   4.22469   4.22714
 Alpha virt. eigenvalues --    4.22947   4.23629   4.23962   4.24353   4.24593
 Alpha virt. eigenvalues --    4.24995   4.25373   4.25644   4.26179   4.26749
 Alpha virt. eigenvalues --    4.27040   4.27899   4.28373   4.28922   4.29208
 Alpha virt. eigenvalues --    4.29611   4.29761   4.30410   4.30938   4.31099
 Alpha virt. eigenvalues --    4.31631   4.31679   4.32519   4.33016   4.33627
 Alpha virt. eigenvalues --    4.34022   4.34718   4.35700   4.35817   4.36643
 Alpha virt. eigenvalues --    4.37197   4.37755   4.37923   4.38549   4.39075
 Alpha virt. eigenvalues --    4.39344   4.39577   4.40115   4.40325   4.40637
 Alpha virt. eigenvalues --    4.41465   4.42180   4.42351   4.43325   4.43396
 Alpha virt. eigenvalues --    4.44111   4.44555   4.44851   4.44987   4.46003
 Alpha virt. eigenvalues --    4.46095   4.46783   4.47307   4.48560   4.49397
 Alpha virt. eigenvalues --    4.50190   4.51783   4.52959   4.53476   4.54030
 Alpha virt. eigenvalues --    4.54410   4.54789   4.55663   4.55940   4.56340
 Alpha virt. eigenvalues --    4.56759   4.57219   4.57926   4.58018   4.59418
 Alpha virt. eigenvalues --    4.59943   4.60865   4.61569   4.62159   4.62556
 Alpha virt. eigenvalues --    4.63164   4.63885   4.64718   4.65423   4.65664
 Alpha virt. eigenvalues --    4.66176   4.66290   4.66584   4.66875   4.67364
 Alpha virt. eigenvalues --    4.68039   4.69202   4.69654   4.69794   4.70511
 Alpha virt. eigenvalues --    4.71089   4.71374   4.71642   4.72762   4.73128
 Alpha virt. eigenvalues --    4.74434   4.75256   4.75357   4.75957   4.76436
 Alpha virt. eigenvalues --    4.77606   4.78525   4.79169   4.79625   4.80317
 Alpha virt. eigenvalues --    4.80649   4.81636   4.81733   4.82113   4.82664
 Alpha virt. eigenvalues --    4.83082   4.83993   4.85284   4.85659   4.86090
 Alpha virt. eigenvalues --    4.87442   4.87654   4.88436   4.88631   4.89005
 Alpha virt. eigenvalues --    4.89872   4.90368   4.90680   4.91440   4.92560
 Alpha virt. eigenvalues --    4.92751   4.93318   4.94908   4.95214   4.95399
 Alpha virt. eigenvalues --    4.96665   4.96841   4.97769   4.99223   5.00162
 Alpha virt. eigenvalues --    5.00955   5.02093   5.03914   5.04396   5.04652
 Alpha virt. eigenvalues --    5.05515   5.08390   5.08613   5.09832   5.11383
 Alpha virt. eigenvalues --    5.12377   5.13346   5.15005   5.15410   5.15976
 Alpha virt. eigenvalues --    5.17566   5.18052   5.18985   5.19478   5.20113
 Alpha virt. eigenvalues --    5.20311   5.20577   5.21902   5.22114   5.22648
 Alpha virt. eigenvalues --    5.23052   5.23203   5.24952   5.25688   5.26317
 Alpha virt. eigenvalues --    5.26905   5.27396   5.27809   5.29364   5.30834
 Alpha virt. eigenvalues --    5.31761   5.31893   5.33737   5.34733   5.34898
 Alpha virt. eigenvalues --    5.35150   5.36858   5.38488   5.38962   5.39875
 Alpha virt. eigenvalues --    5.42420   5.42955   5.43610   5.43837   5.44168
 Alpha virt. eigenvalues --    5.44896   5.45236   5.45659   5.46342   5.48413
 Alpha virt. eigenvalues --    5.48916   5.52168   5.54195   5.55383   5.55852
 Alpha virt. eigenvalues --    5.56311   5.57975   5.58136   5.59770   5.60183
 Alpha virt. eigenvalues --    5.61094   5.61868   5.62709   5.62902   5.63227
 Alpha virt. eigenvalues --    5.64002   5.66731   5.69610   5.70973   5.74965
 Alpha virt. eigenvalues --    5.76240   5.77209   5.77555   5.78904   5.81720
 Alpha virt. eigenvalues --    5.82398   5.84073   5.90072   5.91173   5.92373
 Alpha virt. eigenvalues --    5.94330   5.94560   5.95198   5.95472   5.96742
 Alpha virt. eigenvalues --    5.97377   6.02270   6.05558   6.06706   6.07503
 Alpha virt. eigenvalues --    6.09529   6.09843   6.11929   6.12653   6.13832
 Alpha virt. eigenvalues --    6.16868   6.19654   6.21918   6.25917   6.27472
 Alpha virt. eigenvalues --    6.28579   6.30712   6.31196   6.35953   6.37098
 Alpha virt. eigenvalues --    6.40326   6.42171   6.46245   6.46906   6.49359
 Alpha virt. eigenvalues --    6.49864   6.55313   6.64631   6.71616   6.75751
 Alpha virt. eigenvalues --    6.80413   6.85851   6.87002   6.95839   6.99562
 Alpha virt. eigenvalues --    7.06326   7.06987   7.13033   7.18253   7.20935
 Alpha virt. eigenvalues --    7.21778   7.23040   7.35661   9.17756   9.48962
 Alpha virt. eigenvalues --    9.58632  20.09698  22.37482  22.40146  22.42834
 Alpha virt. eigenvalues --   22.46283  22.51848  22.53247  22.53992  22.55155
 Alpha virt. eigenvalues --   22.56751  22.58566  22.66214  22.66942  22.70200
 Alpha virt. eigenvalues --   22.73863  22.77158  22.77560  22.78386  22.87212
 Alpha virt. eigenvalues --   22.88398  22.91117  22.93642  22.97510  23.01137
 Alpha virt. eigenvalues --   23.06856  23.09844  23.15084  23.18150  23.20760
 Alpha virt. eigenvalues --   23.21353  23.29074  23.31514  23.34101  23.39716
 Alpha virt. eigenvalues --   23.46459  23.49751  23.52085  23.64946  23.67166
 Alpha virt. eigenvalues --   23.70194  23.73424  23.82596  32.47404  32.74571
 Alpha virt. eigenvalues --   32.92419  32.98815  33.00530  33.10767  43.96007
 Alpha virt. eigenvalues --   43.99343  44.05698  44.16208
  Beta  occ. eigenvalues -- -256.41534 -89.01804 -30.15930 -25.99249 -25.99177
  Beta  occ. eigenvalues --  -25.98324 -19.26507 -19.23603 -19.19309 -19.16036
  Beta  occ. eigenvalues --  -14.45423 -14.38865 -14.38269 -14.38041 -14.37943
  Beta  occ. eigenvalues --  -14.37339 -10.36342 -10.33259 -10.28554 -10.26657
  Beta  occ. eigenvalues --  -10.25278 -10.25159 -10.25024 -10.24782 -10.24389
  Beta  occ. eigenvalues --  -10.24206 -10.24031 -10.23949 -10.23838 -10.23663
  Beta  occ. eigenvalues --  -10.23477 -10.23300 -10.23270 -10.23110 -10.22894
  Beta  occ. eigenvalues --  -10.22658 -10.22609 -10.22510 -10.22264 -10.22105
  Beta  occ. eigenvalues --  -10.22084 -10.22048 -10.21896 -10.21755 -10.21704
  Beta  occ. eigenvalues --  -10.21688 -10.21636 -10.21427 -10.21215 -10.21188
  Beta  occ. eigenvalues --  -10.21142 -10.21122 -10.20360 -10.20343 -10.20235
  Beta  occ. eigenvalues --  -10.19513 -10.18897  -7.99738  -5.93421  -5.93090
  Beta  occ. eigenvalues --   -5.92495  -3.46291  -2.22221  -2.22116  -2.18572
  Beta  occ. eigenvalues --   -1.17307  -1.14733  -1.07243  -1.03620  -1.01296
  Beta  occ. eigenvalues --   -0.96899  -0.95989  -0.95579  -0.94401  -0.91305
  Beta  occ. eigenvalues --   -0.84338  -0.84215  -0.82661  -0.82413  -0.82204
  Beta  occ. eigenvalues --   -0.81818  -0.81458  -0.80138  -0.79639  -0.78498
  Beta  occ. eigenvalues --   -0.77498  -0.76379  -0.75930  -0.74686  -0.73756
  Beta  occ. eigenvalues --   -0.73332  -0.73144  -0.72146  -0.71511  -0.70610
  Beta  occ. eigenvalues --   -0.70285  -0.68842  -0.68462  -0.68272  -0.66623
  Beta  occ. eigenvalues --   -0.65211  -0.64815  -0.64113  -0.63656  -0.62913
  Beta  occ. eigenvalues --   -0.61260  -0.60152  -0.59936  -0.58004  -0.57308
  Beta  occ. eigenvalues --   -0.56757  -0.55264  -0.54705  -0.54150  -0.53890
  Beta  occ. eigenvalues --   -0.53060  -0.51840  -0.51694  -0.51468  -0.50736
  Beta  occ. eigenvalues --   -0.50245  -0.49951  -0.49430  -0.48959  -0.48694
  Beta  occ. eigenvalues --   -0.48539  -0.48324  -0.47915  -0.47811  -0.47670
  Beta  occ. eigenvalues --   -0.46636  -0.46428  -0.45211  -0.45070  -0.44514
  Beta  occ. eigenvalues --   -0.44218  -0.44145  -0.44078  -0.43946  -0.43861
  Beta  occ. eigenvalues --   -0.43758  -0.43555  -0.43320  -0.43077  -0.42874
  Beta  occ. eigenvalues --   -0.42804  -0.42702  -0.42340  -0.42220  -0.41945
  Beta  occ. eigenvalues --   -0.41798  -0.41283  -0.41164  -0.41033  -0.40968
  Beta  occ. eigenvalues --   -0.40635  -0.40445  -0.40160  -0.39648  -0.39267
  Beta  occ. eigenvalues --   -0.39146  -0.38723  -0.38409  -0.38076  -0.38008
  Beta  occ. eigenvalues --   -0.37752  -0.37478  -0.37186  -0.36847  -0.36710
  Beta  occ. eigenvalues --   -0.36104  -0.35985  -0.35794  -0.35374  -0.35233
  Beta  occ. eigenvalues --   -0.34714  -0.34433  -0.33832  -0.33538  -0.33425
  Beta  occ. eigenvalues --   -0.33106  -0.32543  -0.32251  -0.31788  -0.31422
  Beta  occ. eigenvalues --   -0.31250  -0.30926  -0.30455  -0.28905  -0.28220
  Beta  occ. eigenvalues --   -0.26810  -0.26191  -0.25976  -0.25794  -0.25321
  Beta  occ. eigenvalues --   -0.24867  -0.23853  -0.22999  -0.21696  -0.19768
  Beta  occ. eigenvalues --   -0.17942  -0.17225
  Beta virt. eigenvalues --   -0.09047  -0.08042  -0.04907  -0.04507  -0.03273
  Beta virt. eigenvalues --   -0.02936  -0.02413  -0.00687   0.00752   0.01013
  Beta virt. eigenvalues --    0.01763   0.02074   0.02236   0.02457   0.03099
  Beta virt. eigenvalues --    0.03731   0.04230   0.04419   0.04908   0.05456
  Beta virt. eigenvalues --    0.06041   0.06175   0.06478   0.06566   0.07177
  Beta virt. eigenvalues --    0.07416   0.07569   0.07681   0.07813   0.08336
  Beta virt. eigenvalues --    0.08848   0.09073   0.09315   0.09427   0.09449
  Beta virt. eigenvalues --    0.09814   0.09992   0.10184   0.10681   0.10966
  Beta virt. eigenvalues --    0.11380   0.11389   0.11670   0.11761   0.11998
  Beta virt. eigenvalues --    0.12297   0.12484   0.12618   0.12956   0.13311
  Beta virt. eigenvalues --    0.13598   0.13624   0.13803   0.14048   0.14110
  Beta virt. eigenvalues --    0.14209   0.14579   0.14639   0.14707   0.15112
  Beta virt. eigenvalues --    0.15417   0.15604   0.15726   0.15836   0.16147
  Beta virt. eigenvalues --    0.16457   0.16600   0.16682   0.16824   0.16879
  Beta virt. eigenvalues --    0.17348   0.17502   0.17722   0.17847   0.18075
  Beta virt. eigenvalues --    0.18345   0.18510   0.18648   0.18972   0.19087
  Beta virt. eigenvalues --    0.19496   0.19676   0.19747   0.19804   0.20118
  Beta virt. eigenvalues --    0.20213   0.20531   0.20879   0.21090   0.21172
  Beta virt. eigenvalues --    0.21499   0.21643   0.21975   0.21998   0.22313
  Beta virt. eigenvalues --    0.22626   0.22744   0.22896   0.23002   0.23415
  Beta virt. eigenvalues --    0.23423   0.23765   0.23932   0.24215   0.24365
  Beta virt. eigenvalues --    0.24693   0.24868   0.24905   0.25112   0.25351
  Beta virt. eigenvalues --    0.25441   0.25639   0.25712   0.25884   0.26324
  Beta virt. eigenvalues --    0.26707   0.26901   0.27079   0.27459   0.27608
  Beta virt. eigenvalues --    0.27718   0.27882   0.28279   0.28355   0.28400
  Beta virt. eigenvalues --    0.28632   0.28662   0.29220   0.29434   0.29524
  Beta virt. eigenvalues --    0.29717   0.29856   0.29971   0.30225   0.30522
  Beta virt. eigenvalues --    0.31076   0.31376   0.31469   0.31549   0.31963
  Beta virt. eigenvalues --    0.32064   0.32262   0.32756   0.32811   0.32996
  Beta virt. eigenvalues --    0.33362   0.33468   0.33765   0.33889   0.34491
  Beta virt. eigenvalues --    0.34632   0.34865   0.35231   0.35294   0.35476
  Beta virt. eigenvalues --    0.35824   0.35948   0.36114   0.36304   0.36555
  Beta virt. eigenvalues --    0.36758   0.37055   0.37130   0.37432   0.37493
  Beta virt. eigenvalues --    0.37725   0.37855   0.37944   0.38161   0.38266
  Beta virt. eigenvalues --    0.38522   0.38733   0.39019   0.39222   0.39253
  Beta virt. eigenvalues --    0.39501   0.39655   0.39791   0.40040   0.40294
  Beta virt. eigenvalues --    0.40577   0.40651   0.40720   0.41084   0.41117
  Beta virt. eigenvalues --    0.41278   0.41557   0.41753   0.42081   0.42271
  Beta virt. eigenvalues --    0.42327   0.42438   0.42750   0.42808   0.42981
  Beta virt. eigenvalues --    0.43112   0.43295   0.43571   0.43640   0.43844
  Beta virt. eigenvalues --    0.43941   0.44108   0.44393   0.44525   0.44734
  Beta virt. eigenvalues --    0.44810   0.44964   0.45064   0.45374   0.45512
  Beta virt. eigenvalues --    0.45670   0.45837   0.45876   0.46106   0.46163
  Beta virt. eigenvalues --    0.46463   0.46749   0.46883   0.47067   0.47082
  Beta virt. eigenvalues --    0.47269   0.47562   0.47724   0.47942   0.48048
  Beta virt. eigenvalues --    0.48320   0.48571   0.48636   0.48825   0.48936
  Beta virt. eigenvalues --    0.49169   0.49417   0.49510   0.49602   0.49924
  Beta virt. eigenvalues --    0.50068   0.50183   0.50546   0.50658   0.50889
[...]
  1678. RY*(   4) H  71                  0.00003     1.29791   
  1679. RY*(   5) H  71                  0.00000     3.18378   
  1680. RY*(   1) H  72                  0.00036     1.05609   
  1681. RY*(   2) H  72                  0.00009     1.79963   
  1682. RY*(   3) H  72                  0.00003     2.05726   
  1683. RY*(   4) H  72                  0.00003     2.07046   
  1684. RY*(   5) H  72                  0.00000     2.99644   
  1685. RY*(   1) H  73                  0.00038     0.99772   
  1686. RY*(   2) H  73                  0.00006     1.77249   
  1687. RY*(   3) H  73                  0.00007     2.26575   
  1688. RY*(   4) H  73                  0.00003     2.08685   
  1689. RY*(   5) H  73                  0.00000     3.06520   
  1690. RY*(   1) H  74                  0.00041     1.02948   
  1691. RY*(   2) H  74                  0.00009     1.74193   
  1692. RY*(   3) H  74                  0.00003     2.15508   
  1693. RY*(   4) H  74                  0.00002     2.13607   
  1694. RY*(   5) H  74                  0.00001     2.91105   
  1695. RY*(   1) H  75                  0.00110     0.68759   
  1696. RY*(   2) H  75                  0.00015     2.17760   
  1697. RY*(   3) H  75                  0.00014     2.27042   
  1698. RY*(   4) H  75                  0.00006     3.08527   
  1699. RY*(   5) H  75                  0.00001     3.27536   
  1700. RY*(   1) H  76                  0.00074     0.85834   
  1701. RY*(   2) H  76                  0.00013     2.25094   
  1702. RY*(   3) H  76                  0.00011     2.23337   
  1703. RY*(   4) H  76                  0.00006     3.01569   
  1704. RY*(   5) H  76                  0.00001     3.27854   
  1705. RY*(   1) H  77                  0.00024     1.30137   
  1706. RY*(   2) H  77                  0.00008     1.89797   
  1707. RY*(   3) H  77                  0.00004     2.13248   
  1708. RY*(   4) H  77                  0.00001     2.26373   
  1709. RY*(   5) H  77                  0.00000     2.51234   
  1710. RY*(   1) H  78                  0.00044     0.98138   
  1711. RY*(   2) H  78                  0.00008     1.79271   
  1712. RY*(   3) H  78                  0.00003     2.17421   
  1713. RY*(   4) H  78                  0.00003     2.03648   
  1714. RY*(   5) H  78                  0.00000     2.88815   
  1715. RY*(   1) H  79                  0.00048     0.92687   
  1716. RY*(   2) H  79                  0.00007     1.76927   
  1717. RY*(   3) H  79                  0.00003     2.13385   
  1718. RY*(   4) H  79                  0.00002     2.08424   
  1719. RY*(   5) H  79                  0.00000     2.97396   
  1720. RY*(   1) H  80                  0.00081     0.75935   
  1721. RY*(   2) H  80                  0.00014     2.25508   
  1722. RY*(   3) H  80                  0.00013     2.19484   
  1723. RY*(   4) H  80                  0.00006     3.05937   
  1724. RY*(   5) H  80                  0.00000     3.27651   
  1725. RY*(   1) H  81                  0.00116     0.68941   
  1726. RY*(   2) H  81                  0.00013     2.27130   
  1727. RY*(   3) H  81                  0.00011     2.23666   
  1728. RY*(   4) H  81                  0.00006     3.06724   
  1729. RY*(   5) H  81                  0.00001     3.24700   
  1730. RY*(   1) H  82                  0.00052     1.03615   
  1731. RY*(   2) H  82                  0.00010     1.85609   
  1732. RY*(   3) H  82                  0.00006     2.03410   
  1733. RY*(   4) H  82                  0.00003     2.10533   
  1734. RY*(   5) H  82                  0.00001     3.03651   
  1735. RY*(   1) H  83                  0.00028     1.30933   
  1736. RY*(   2) H  83                  0.00010     1.88396   
  1737. RY*(   3) H  83                  0.00002     2.54036   
  1738. RY*(   4) H  83                  0.00003     2.24661   
  1739. RY*(   5) H  83                  0.00001     2.25399   
  1740. RY*(   1) H  84                  0.00050     0.87303   
  1741. RY*(   2) H  84                  0.00009     1.78347   
  1742. RY*(   3) H  84                  0.00004     2.19236   
  1743. RY*(   4) H  84                  0.00002     2.14394   
  1744. RY*(   5) H  84                  0.00001     3.03463   
  1745. RY*(   1) H  85                  0.00023     1.37924   
  1746. RY*(   2) H  85                  0.00011     1.84223   
  1747. RY*(   3) H  85                  0.00002     2.08841   
  1748. RY*(   4) H  85                  0.00003     2.25799   
  1749. RY*(   5) H  85                  0.00001     2.57764   
  1750. RY*(   1) H  86                  0.00046     0.93721   
  1751. RY*(   2) H  86                  0.00008     1.71134   
  1752. RY*(   3) H  86                  0.00004     2.18331   
  1753. RY*(   4) H  86                  0.00001     2.42405   
  1754. RY*(   5) H  86                  0.00001     2.67191   
  1755. RY*(   1) H  87                  0.00045     0.81882   
  1756. RY*(   2) H  87                  0.00010     1.81538   
  1757. RY*(   3) H  87                  0.00006     2.14685   
  1758. RY*(   4) H  87                  0.00002     2.56979   
  1759. RY*(   5) H  87                  0.00002     2.64831   
  1790. RY*(   1) H  94                  0.00038     0.88835   
  1791. RY*(   2) H  94                  0.00011     2.23089   
  1792. RY*(   3) H  94                  0.00007     2.19912   
  1793. RY*(   4) H  94                  0.00004     2.80816   
  1794. RY*(   5) H  94                  0.00001     3.11715   
  1795. RY*(   1) H  95                  0.00035     1.22260   
  1796. RY*(   2) H  95                  0.00011     1.89084   
  1797. RY*(   3) H  95                  0.00008     2.02099   
  1798. RY*(   4) H  95                  0.00003     2.33381   
  1799. RY*(   5) H  95                  0.00002     2.60882   
  1800. RY*(   1) H  96                  0.00018     1.19320   
  1801. RY*(   2) H  96                  0.00011     1.45439   
  1802. RY*(   3) H  96                  0.00007     1.98147   
  1803. RY*(   4) H  96                  0.00001     3.09247   
  1804. RY*(   5) H  96                  0.00000     1.93957   
  1805. RY*(   1) H  97                  0.00035     1.78271   
  1806. RY*(   2) H  97                  0.00007     1.14482   
  1807. RY*(   3) H  97                  0.00007     2.21086   
  1808. RY*(   4) H  97                  0.00004     2.79022   
  1809. RY*(   5) H  97                  0.00000     3.12946   
  1810. RY*(   1) H  98                  0.00039     1.18164   
  1811. RY*(   2) H  98                  0.00011     1.61282   
  1812. RY*(   3) H  98                  0.00002     2.20528   
  1813. RY*(   4) H  98                  0.00002     2.65934   
  1814. RY*(   5) H  98                  0.00001     2.01305   
  1815. RY*(   1) H  99                  0.00038     1.38412   
  1816. RY*(   2) H  99                  0.00011     1.82845   
  1817. RY*(   3) H  99                  0.00010     1.23598   
  1818. RY*(   4) H  99                  0.00003     2.71242   
  1819. RY*(   5) H  99                  0.00003     1.64978   
  1834. BD*(   1) C   7 - C   8          0.00533     0.36473   
  1835. BD*(   1) C   7 - H  54          0.00430     0.41078   
  1836. BD*(   1) C   7 - H  55          0.00312     0.40673   
  1837. BD*(   1) C   7 - H  56          0.00304     0.41728   
  1838. BD*(   1) C   8 - S   9          0.01667     0.18631   
  1839. BD*(   1) C   8 - H  57          0.00584     0.41365   
  1840. BD*(   1) C   8 - H  58          0.01213     0.39191   
  1841. BD*(   1) S   9 - C  10          0.01230     0.16938   
  1842. BD*(   1) S   9 -Fe  53          0.06130     0.18098   
  1843. BD*(   1) C  10 - H  59          0.00373     0.39919   
  1844. BD*(   1) C  10 - H  60          0.00795     0.40160   
  1845. BD*(   1) C  10 - H  61          0.00553     0.39684   
  1846. BD*(   1) C  11 - C  15          0.00993     0.51627   
  1847. BD*(   1) C  11 - C  42          0.00983     0.52395   
  1848. BD*(   1) C  11 - H  76          0.00585     0.47725   
  1849. BD*(   1) C  12 - C  18          0.01059     0.58461   
  1850. BD*(   2) C  12 - C  18          0.20661     0.05462  1864(v),1884(v),1862(v)
                                                    498(g),658(g)
  1851. BD*(   1) C  12 - C  25          0.01018     0.59670   
  1852. BD*(   1) C  12 - H  75          0.00754     0.45887   
  1853. BD*(   1) C  13 - C  28          0.00999     0.57511   
  1854. BD*(   1) C  13 - C  32          0.01037     0.57689   
  1855. BD*(   1) C  13 - H  81          0.00710     0.46318   
  1856. BD*(   1) C  14 - C  35          0.00998     0.56783   
  1857. BD*(   2) C  14 - C  35          0.20057     0.04944  1903(v),1918(v),1901(v)
                                                    551(g),1100(g),1912(r)
  1858. BD*(   1) C  14 - C  39          0.01022     0.57113   
  1859. BD*(   1) C  14 - H  80          0.00716     0.45277   
  1860. BD*(   1) C  15 - C  16          0.01579     0.47050   
  1861. BD*(   1) C  15 - N  49          0.01385     0.48084   
  1862. BD*(   2) C  15 - N  49          0.34530     0.00300  188(v),1864(v),1850(v)
                                                    207(v),1461(g),577(g),578(g)
                                                    473(v),1901(r),204(v)
                                                    1463(g),1830(r)
  1863. BD*(   1) C  16 - C  17          0.00995     0.56925   
  1864. BD*(   2) C  16 - C  17          0.12917     0.06738  1850(v),1862(v),1872(v)
                                                    1873(v),1871(v),1869(v)
  1865. BD*(   1) C  16 - C  20          0.01211     0.37705   
  1866. BD*(   1) C  17 - C  18          0.01563     0.49743   
  1867. BD*(   1) C  17 - C  19          0.00852     0.36149   
  1868. BD*(   1) C  18 - N  49          0.01513     0.47467   
  1869. BD*(   1) C  19 - H  72          0.00348     0.41421   
  1870. BD*(   1) C  19 - H  73          0.00313     0.42662   
  1871. BD*(   1) C  19 - H  74          0.00457     0.41110   
  1872. BD*(   1) C  20 - C  21          0.00765     0.36586   
  1873. BD*(   1) C  20 - H  70          0.00702     0.41968   
  1874. BD*(   1) C  20 - H  71          0.00580     0.42833   
  1875. BD*(   1) C  21 - C  22          0.03767     0.35941   
  1876. BD*(   1) C  21 - H  68          0.00601     0.40136   
  1877. BD*(   1) C  21 - H  69          0.00600     0.42106   
  1878. BD*(   1) C  22 - O  23          0.01806     0.59622   
  1879. BD*(   2) C  22 - O  23          0.10229     0.02405  1881(v),1876(v),1872(v)
  1880. BD*(   1) C  22 - O  24          0.03582     0.51649   
  1881. BD*(   1) O  24 - H  63          0.00736     0.40340   
  1882. BD*(   1) C  25 - C  26          0.01406     0.52159   
  1883. BD*(   1) C  25 - N  50          0.01509     0.45154   
  1884. BD*(   2) C  25 - N  50          0.32120     0.01603  1850(v),1886(v),194(v)
                                                    206(r),838(g),1487(g),498(v)
                                                    207(r),205(r),1490(g)
                                                    1830(r)
  1885. BD*(   1) C  26 - C  27          0.01061     0.57724   
  1886. BD*(   2) C  26 - C  27          0.15964     0.07338  1895(v),1884(v),194(v)
                                                    891(g),1893(v),1891(v)
  1887. BD*(   1) C  26 - C  29          0.00880     0.36380   
  1888. BD*(   1) C  27 - C  28          0.01640     0.45615   
  1889. BD*(   1) C  27 - C  30          0.01018     0.51616   
  1890. BD*(   1) C  28 - N  50          0.01184     0.47383   
  1891. BD*(   1) C  29 - H  82          0.00558     0.42365   
  1892. BD*(   1) C  29 - H  83          0.00480     0.43600   
  1893. BD*(   1) C  29 - H  84          0.00533     0.41541   
  1894. BD*(   1) C  30 - C  31          0.00271     0.54968   
  1895. BD*(   2) C  30 - C  31          0.03863     0.04950   
  1896. BD*(   1) C  30 - H  97          0.00682     0.45487   
  1897. BD*(   1) C  31 - H  98          0.00323     0.45860   
  1898. BD*(   1) C  31 - H  99          0.00418     0.46168   
  1899. BD*(   1) C  32 - C  33          0.01515     0.47336   
  1900. BD*(   1) C  32 - N  51          0.01334     0.47591   
  1901. BD*(   2) C  32 - N  51          0.34255     0.00490  189(v),1903(v),1857(v)
                                                    1019(g),1513(g),209(r)
                                                    525(v),1862(r),205(r)
                                                    1842(r)
  1902. BD*(   1) C  33 - C  34          0.01077     0.55727   
  1903. BD*(   2) C  33 - C  34          0.14957     0.06499  1857(v),1912(v),1901(v)
                                                    1909(v),1910(v),1072(g)
  1904. BD*(   1) C  33 - C  36          0.00790     0.36113   
  1905. BD*(   1) C  34 - C  35          0.01538     0.47080   
  1906. BD*(   1) C  34 - C  37          0.01121     0.50293   
  1907. BD*(   1) C  35 - N  51          0.01343     0.44893   
  1908. BD*(   1) C  36 - H  85          0.00352     0.42818   
  1909. BD*(   1) C  36 - H  86          0.00437     0.41286   
  1910. BD*(   1) C  36 - H  87          0.00425     0.41706   
  1911. BD*(   1) C  37 - C  38          0.00300     0.53699   
  1912. BD*(   2) C  37 - C  38          0.05137     0.03131   
  1913. BD*(   1) C  37 - H  94          0.00766     0.45172   
  1914. BD*(   1) C  38 - H  95          0.00553     0.46103   
  1915. BD*(   1) C  38 - H  96          0.00301     0.45018   
  1916. BD*(   1) C  39 - C  40          0.01583     0.48613   
  1917. BD*(   1) C  39 - N  52          0.01445     0.46217   
  1918. BD*(   2) C  39 - N  52          0.32318     0.00854  1857(v),1920(v),195(v)
                                                    206(r),1202(g),1539(g)
                                                    551(v),1842(r),209(r),204(r)
                                                    1541(g),1830(r)
  1919. BD*(   1) C  40 - C  41          0.01001     0.58744   
  1920. BD*(   2) C  40 - C  41          0.13201     0.06853  1918(v),195(v),1928(v)
                                                    1927(v),1926(v),1930(v)
  1921. BD*(   1) C  40 - C  43          0.00886     0.36022   
  1922. BD*(   1) C  41 - C  42          0.01626     0.47733   
  1923. BD*(   1) C  41 - C  44          0.01066     0.38990   
  1924. BD*(   1) C  42 - N  52          0.01309     0.48107   
  1925. BD*(   1) C  43 - H  77          0.00253     0.41132   
  1926. BD*(   1) C  43 - H  78          0.00387     0.40394   
  1927. BD*(   1) C  43 - H  79          0.00461     0.40171   
  1928. BD*(   1) C  44 - C  45          0.00613     0.35296   
  1929. BD*(   1) C  44 - H  66          0.00605     0.41726   
  1930. BD*(   1) C  44 - H  67          0.00589     0.41037   
  1931. BD*(   1) C  45 - C  46          0.03829     0.34710   
  1932. BD*(   1) C  45 - H  64          0.00514     0.38983   
  1933. BD*(   1) C  45 - H  65          0.00575     0.38676   
  1934. BD*(   1) C  46 - O  47          0.03549     0.48112   
  1935. BD*(   1) C  46 - O  48          0.02630     0.57388   
  1936. BD*(   2) C  46 - O  48          0.08362     0.05293   
  1937. BD*(   1) O  47 - H  62          0.00688     0.56137   
  1938. BD*(   1) N  49 -Fe  53          0.07612     3.67847   
       -------------------------------
              Total Lewis  174.86371  ( 97.0495%)
        Valence non-Lewis    4.97431  (  2.7607%)
        Rydberg non-Lewis    0.34195  (  0.1898%)
       -------------------------------
            Total unit  2  180.17996  (100.0000%)
           Charge unit  2    1.82004
 1\1\GINC-NODE411\SP\UPBE1PBE\def2TZVP\C41H46Fe1N6O4S1(5)\ZHARTOVSKA\01
 -Sep-2022\0\\# PBE1PBE/def2TZVP empiricaldispersion=GD3BJ int=(grid=ul
 trafine) geom=check pop=nbo\\1v9z_II_Q\\0,5\C,0,-2.723,-19.658001,-18.
 360001\C,0,-2.108,-18.688999,-17.408001\N,0,-2.012,-17.337,-17.67\C,0,
 -1.614,-18.860001,-16.158001\C,0,-1.493,-16.723,-16.627001\N,0,-1.242,
 -17.622999,-15.694\C,0,0.192,-17.089001,-8.719\C,0,-0.598,-17.09,-10.0
 06\S,0,0.404,-16.514999,-11.383\C,0,0.98,-14.914,-10.756\C,0,-3.646,-1
 7.483999,-12.485\C,0,0.282,-20.289,-13.256\C,0,2.755,-16.412001,-14.77
 2\C,0,-1.122,-13.603,-14.048\C,0,-2.761,-18.612,-12.559\C,0,-3.135,-19
 .974001,-12.15\C,0,-2.016,-20.764,-12.373\C,0,-0.995,-19.888,-12.904\C
 ,0,-1.895,-22.284,-12.104\C,0,-4.518,-20.412001,-11.629\C,0,-4.455,-21
 .021,-10.228\C,0,-3.972,-20.058001,-9.16\O,0,-3.094,-20.459,-8.387\O,0
 ,-4.468,-18.912001,-9.108\C,0,1.284,-19.483,-13.744\C,0,2.595,-19.958,
 -14.068\C,0,3.354,-18.884001,-14.514\C,0,2.423,-17.725,-14.43\C,0,3.02
 9,-21.441,-13.918\C,0,4.72,-18.948,-14.941\C,0,5.46986476,-20.11085245
 ,-14.71874119\C,0,1.903,-15.312,-14.696\C,0,2.347,-13.961,-15.057\C,0,
 1.233,-13.139,-14.854\C,0,0.163,-14.026,-14.374\C,0,3.77,-13.6,-15.553
 \C,0,1.072,-11.721,-15.043\C,0,2.17851362,-10.92851737,-15.37694738\C,
 0,-2.153,-14.406,-13.576\C,0,-3.475,-13.918,-13.233\C,0,-4.178,-15.005
 ,-12.793\C,0,-3.281,-16.157,-12.87\C,0,-3.999,-12.471,-13.334\C,0,-5.6
 17,-15.021,-12.301\C,0,-5.552,-14.558,-10.854\C,0,-6.273,-15.467,-9.89
 \O,0,-7.157,-14.956,-9.16\O,0,-5.944,-16.681,-9.866\N,0,-1.456,-18.582
 001,-13.015\N,0,1.161,-18.094999,-13.973\N,0,0.582,-15.366,-14.279\N,0
 ,-2.044,-15.78,-13.354\Fe,0,-0.506,-16.978001,-13.68\H,0,1.12315378,-1
 6.58471713,-8.87246146\H,0,-0.36598317,-16.5840076,-7.95838416\H,0,0.3
 785853,-18.09757042,-8.41424823\H,0,-0.93560614,-18.0847633,-10.209391
 4\H,0,-1.44633306,-16.44704939,-9.89716281\H,0,1.92169843,-14.67356325
 ,-11.20354244\H,0,0.26489239,-14.15675103,-11.00114302\H,0,1.09329541,
 -14.96696781,-9.69333422\H,0,-6.90483793,-14.42480722,-8.40115317\H,0,
 -3.8953815,-18.14226846,-9.07307322\H,0,-4.52453811,-14.49741257,-10.5
 615086\H,0,-5.98394543,-13.58121323,-10.78910972\H,0,-6.01648465,-16.0
 121286,-12.35555371\H,0,-6.21409199,-14.34730558,-12.87937443\H,0,-5.4
 3320592,-21.36268168,-9.96104156\H,0,-3.79416305,-21.86220399,-10.2518
 8259\H,0,-4.92656916,-21.13654997,-12.30205277\H,0,-5.16380511,-19.559
 18572,-11.60572221\H,0,-0.99614785,-22.47900602,-11.55724826\H,0,-2.73
 810695,-22.61346395,-11.53345274\H,0,-1.8671274,-22.8099354,-13.035404
 89\H,0,0.51219824,-21.32713566,-13.13690708\H,0,-4.63846508,-17.646596
 06,-12.11965735\H,0,-3.29850114,-11.87537539,-13.88120442\H,0,-4.94186
 077,-12.46759752,-13.83986756\H,0,-4.12018096,-12.06612148,-12.3510002
 2\H,0,-1.33611631,-12.5620548,-14.17244795\H,0,3.75029278,-16.23551296
 ,-15.12291915\H,0,3.96752659,-21.48795403,-13.40627433\H,0,2.28988971,
 -21.97394258,-13.35711838\H,0,3.12870815,-21.88322682,-14.88722326\H,0
 ,4.44339202,-14.39684024,-15.31532625\H,0,3.75166225,-13.4526236,-16.6
 126433\H,0,4.09752714,-12.70126568,-15.07351841\H,0,-1.30625501,-15.67
 232724,-16.54881495\H,0,-2.29316662,-16.89250515,-18.52051141\H,0,-1.5
 2956742,-19.78713751,-15.63056472\H,0,-2.07421794,-20.50030726,-18.480
 42526\H,0,-3.6659868,-19.98623978,-17.97537754\H,0,-2.87010237,-19.182
 78518,-19.30732925\H,0,0.10748474,-11.27211164,-14.92850307\H,0,3.1256
 6274,-11.38681126,-15.57130597\H,0,2.07621247,-9.86514533,-15.43756397
 \H,0,5.16770902,-18.10793636,-15.42962021\H,0,6.47851855,-20.0383418,-
 14.3690846\H,0,5.03374995,-21.0712267,-14.8987\\Version=ES64L-G16RevA.
 03\State=5-A\HF=-3879.3594612\S2=6.157594\S2-1=0.\S2A=6.008141\RMSD=3.
 591e-09\Dipole=-1.954287,1.8281962,-1.5245043\Quadrupole=-11.4300521,3
 .8325482,7.5975039,-9.5340149,8.0149858,24.7596831\PG=C01 [X(C41H46Fe1
 N6O4S1)]\\@


 REPARTEE - WHAT YOU THINK OF AFTER YOU BECOME A DEPARTEE.
 Job cpu time:      18 days 21 hours 33 minutes 48.6 seconds.
 Elapsed time:       4 days 17 hours 56 minutes 59.7 seconds.
 File lengths (MBytes):  RWF=   3452 Int=      0 D2E=      0 Chk=    289 Scr=      1
 Normal termination of Gaussian 16 at Thu Sep  1 06:27:40 2022.
