 Entering Gaussian System, Link 0=g16
 Input=/net/homes/chemie/zhartovska/work/BioModel/Konrad/1vb6/1vb601/1vb6.com
 Output=/net/homes/chemie/zhartovska/work/BioModel/Konrad/1vb6/1vb601/1vb6.log
 Initial command:
 /afs/math/software/gaussian/g16.A03/g16/l1.exe "/scratch/zhartovska_gaussian.JDdryOM/Gau-24416.inp" -scrdir="/scratch/zhartovska_gaussian.JDdryOM/"
 Entering Link 1 = /afs/math/software/gaussian/g16.A03/g16/l1.exe PID=     24417.
  
 Copyright (c) 1988,1990,1992,1993,1995,1998,2003,2009,2016,
            Gaussian, Inc.  All Rights Reserved.
  
 This is part of the Gaussian(R) 16 program.  It is based on
 the Gaussian(R) 09 system (copyright 2009, Gaussian, Inc.),
 the Gaussian(R) 03 system (copyright 2003, Gaussian, Inc.),
 the Gaussian(R) 98 system (copyright 1998, Gaussian, Inc.),
 the Gaussian(R) 94 system (copyright 1995, Gaussian, Inc.),
 the Gaussian 92(TM) system (copyright 1992, Gaussian, Inc.),
 the Gaussian 90(TM) system (copyright 1990, Gaussian, Inc.),
 the Gaussian 88(TM) system (copyright 1988, Gaussian, Inc.),
 the Gaussian 86(TM) system (copyright 1986, Carnegie Mellon
 University), and the Gaussian 82(TM) system (copyright 1983,
 Carnegie Mellon University). Gaussian is a federally registered
 trademark of Gaussian, Inc.
  
 This software contains proprietary and confidential information,
 including trade secrets, belonging to Gaussian, Inc.
  
 This software is provided under written license and may be
 used, copied, transmitted, or stored only in accord with that
 written license.
  
 The following legend is applicable only to US Government
 contracts under FAR:
  
                    RESTRICTED RIGHTS LEGEND
  
 Use, reproduction and disclosure by the US Government is
 subject to restrictions as set forth in subparagraphs (a)
 and (c) of the Commercial Computer Software - Restricted
 Rights clause in FAR 52.227-19.
  
 Gaussian, Inc.
 340 Quinnipiac St., Bldg. 40, Wallingford CT 06492
  
  
 ---------------------------------------------------------------
 Warning -- This program may not be used in any manner that
 competes with the business of Gaussian, Inc. or will provide
 assistance to any competitor of Gaussian, Inc.  The licensee
 of this program is prohibited from giving any competitor of
 Gaussian, Inc. access to this program.  By using this program,
 the user acknowledges that Gaussian, Inc. is engaged in the
 business of creating and licensing software in the field of
 computational chemistry and represents and warrants to the
 licensee that it is not a competitor of Gaussian, Inc. and that
 it will not use this program in any manner prohibited above.
 ---------------------------------------------------------------
  

 Cite this work as:
 Gaussian 16, Revision A.03,
 M. J. Frisch, G. W. Trucks, H. B. Schlegel, G. E. Scuseria, 
 M. A. Robb, J. R. Cheeseman, G. Scalmani, V. Barone, 
 G. A. Petersson, H. Nakatsuji, X. Li, M. Caricato, A. V. Marenich, 
 J. Bloino, B. G. Janesko, R. Gomperts, B. Mennucci, H. P. Hratchian, 
 J. V. Ortiz, A. F. Izmaylov, J. L. Sonnenberg, D. Williams-Young, 
 F. Ding, F. Lipparini, F. Egidi, J. Goings, B. Peng, A. Petrone, 
 T. Henderson, D. Ranasinghe, V. G. Zakrzewski, J. Gao, N. Rega, 
 G. Zheng, W. Liang, M. Hada, M. Ehara, K. Toyota, R. Fukuda, 
 J. Hasegawa, M. Ishida, T. Nakajima, Y. Honda, O. Kitao, H. Nakai, 
 T. Vreven, K. Throssell, J. A. Montgomery, Jr., J. E. Peralta, 
 F. Ogliaro, M. J. Bearpark, J. J. Heyd, E. N. Brothers, K. N. Kudin, 
 V. N. Staroverov, T. A. Keith, R. Kobayashi, J. Normand, 
 K. Raghavachari, A. P. Rendell, J. C. Burant, S. S. Iyengar, 
 J. Tomasi, M. Cossi, J. M. Millam, M. Klene, C. Adamo, R. Cammi, 
 J. W. Ochterski, R. L. Martin, K. Morokuma, O. Farkas, 
 J. B. Foresman, and D. J. Fox, Gaussian, Inc., Wallingford CT, 2016.
 
 ******************************************
 Gaussian 16:  ES64L-G16RevA.03 25-Dec-2016
                25-Aug-2022 
 ******************************************
 %nprocs=12
 Will use up to   12 processors via shared memory.
 %mem=16GB
 %chk=1vb6_II_S.chk
 ---------------------------------------------------------------------
 # polar def2tzvp empiricaldispersion=gd3bj int=grid=ultrafine pbe1pbe
 ---------------------------------------------------------------------
 1/38=1,172=1/1;
 2/12=2,17=6,18=5,40=1/2;
 3/5=44,7=101,11=2,25=1,30=1,74=-13,75=-5,124=41/1,2,3;
 4//1;
 5/5=2,38=5,98=1/2;
 8/6=4,10=90,11=11/1;
 10/6=1,13=10/2;
 6/7=2,8=2,9=2,10=2,28=1/1;
 99/5=1,9=1/99;
 ---------
 1vb6_II_S
 ---------
 Symbolic Z-matrix:
 Charge =  0 Multiplicity = 1
 C                    -2.424    -20.168   -17.756 
 C                    -1.867    -19.166   -16.792 
 N                    -1.739    -17.828   -17.097 
 C                    -1.43     -19.306   -15.519 
 C                    -1.25     -17.185   -16.053 
 N                    -1.053    -18.058   -15.081 
 C                     0.45698  -17.9583  -8.41997 
 C                    -0.44     -17.849   -9.667 
 S                     0.424    -16.907   -10.952 
 C                     2.103    -17.461   -10.658 
 C                    -3.488    -18.147   -11.841 
 C                     0.475    -20.855   -12.647 
 C                     2.812    -16.967   -14.344 
 C                    -1.12     -14.231   -13.549 
 C                    -2.587    -19.248   -11.935 
 C                    -2.932    -20.6     -11.506 
 C                    -1.805    -21.367   -11.727 
 C                    -0.802    -20.481   -12.283 
 C                    -1.657    -22.876   -11.434 
 C                    -4.327    -21.063   -11.046 
 C                    -4.331    -21.563   -9.609 
 C                    -3.95     -20.499   -8.605 
 O                    -2.992    -20.737   -7.867 
 O                    -4.603    -19.432   -8.572 
 C                     1.452    -20.034   -13.173 
 C                     2.769    -20.487   -13.523 
 C                     3.487    -19.411   -14.027 
 C                     2.526    -18.272   -13.951 
 C                     3.248    -21.954   -13.337 
 C                     4.848    -19.458   -14.494 
 C                     5.64597  -20.57598  -14.21601 
 C                     1.931    -15.889   -14.27 
 C                     2.322    -14.539   -14.688 
 C                     1.194    -13.739   -14.465 
 C                     0.167    -14.634   -13.918 
 C                     3.717    -14.158   -15.246 
 C                     0.995    -12.333   -14.685 
 C                     2.07208  -11.52533  -15.07419 
 C                    -2.116    -15.047   -13.008 
 C                    -3.443    -14.59    -12.61 
 C                    -4.099    -15.687   -12.125 
 C                    -3.174    -16.819   -12.245 
 C                    -4.001    -13.156   -12.69 
 C                    -5.525    -15.74    -11.562 
 C                    -5.357    -15.764   -10.037 
 C                    -6.585    -15.349   -9.233 
 O                    -6.445    -15.222   -7.988 
 O                    -7.668    -15.154   -9.838 
 N                    -1.292    -19.194   -12.411 
 N                     1.284    -18.655   -13.442 
 N                     0.629    -15.962   -13.807 
 N                    -1.964    -16.415   -12.778 
 Fe                   -0.402    -17.572   -13.123 
 H                     2.74283  -16.61187  -10.53759 
 H                     2.1314   -18.05772  -9.7703 
 H                     2.43712  -18.04414  -11.49059 
 H                    -0.66329  -18.82943  -10.03279 
 H                    -1.35     -17.34874  -9.40906 
 H                     1.37488  -17.43671  -8.59403 
 H                    -0.04544  -17.52557  -7.5802 
 H                     0.66472  -18.98857  -8.21924 
 H                    -1.38603  -20.21643  -14.95857 
 H                    -1.04763  -16.13553  -16.00251 
 H                    -1.97919  -17.40947  -17.97286 
 H                    -1.74563  -20.99042  -17.8473 
 H                    -3.36763  -20.52218  -17.39681 
 H                    -2.55663  -19.70718  -18.71253 
 H                    -5.56541  -15.18297  -7.60539 
 H                    -5.08749  -16.75783  -9.74619 
 H                    -4.55169  -15.1083  -9.77925 
 H                    -6.02223  -16.62724  -11.89436 
 H                    -6.0743   -14.8718  -11.861 
 H                    -3.31582  -12.53626  -13.22976 
 H                    -4.94451  -13.16805  -13.19451 
 H                    -4.13017  -12.76787  -11.70128 
 H                    -1.36506  -13.19971  -13.69492 
 H                     4.41883  -14.93026  -15.00948 
 H                     3.65716  -14.04352  -16.30817 
 H                     4.038    -13.23721  -14.80555 
 H                     3.78931  -16.7757  -14.73536 
 H                     4.18905  -21.96008  -12.82779 
 H                     2.52678  -22.49426  -12.76006 
 H                     3.35791  -22.4175  -14.29511 
 H                     0.73386  -21.88383  -12.50773 
 H                    -0.75319  -23.04618  -10.88713 
 H                    -2.49245  -23.21056  -10.85521 
 H                    -1.62282  -23.4168  -12.35664 
 H                    -4.46316  -18.33106  -11.4409 
 H                    -4.658    -21.85273  -11.68761 
 H                    -5.00814  -20.2419  -11.1281 
 H                    -5.31133  -21.92127  -9.37344 
 H                    -3.63939  -22.37529  -9.52676 
 H                    -2.09584  -20.63135  -8.19461 
 H                     0.02444  -11.90273  -14.55166 
 H                     3.03033  -11.96404  -15.25914 
 H                     1.93622  -10.46993  -15.18641 
 H                     5.25027  -18.63933  -15.05334 
 H                     6.65258  -20.44409  -13.87801 
 H                     5.24864  -21.56148  -14.34177 
 
 Stoichiometry    C41H46FeN6O4S
 Framework group  C1[X(C41H46FeN6O4S)]
 Deg. of freedom   291
 Full point group                 C1      NOp   1
 Largest Abelian subgroup         C1      NOp   1
 Largest concise Abelian subgroup C1      NOp   1
                         Standard orientation:                         
 ---------------------------------------------------------------------
 Center     Atomic      Atomic             Coordinates (Angstroms)
 Number     Number       Type             X           Y           Z
 ---------------------------------------------------------------------
      1          6           0       -1.467900   -1.082298    5.643027
      2          6           0       -1.444200   -0.400170    4.309727
      3          7           0       -1.732140    0.938307    4.150902
      4          6           0       -1.139873   -0.869166    3.077443
      5          6           0       -1.603593    1.266652    2.878827
      6          7           0       -1.244935    0.188460    2.204594
      7          6           0        0.995317   -1.347119   -4.062986
      8          6           0        1.095469   -0.845562   -2.610399
      9         16           0       -0.330009    0.209333   -2.235839
     10          6           0       -1.591833   -0.635340   -3.188058
     11          6           0        2.536164   -0.224699    0.801977
     12          6           0       -1.216611   -3.254038    0.147714
     13          6           0       -4.149611    0.517617   -0.646054
     14          6           0       -0.429336    3.571771   -0.005712
     15          6           0        1.736693   -1.401238    0.704821
     16          6           0        2.274546   -2.747536    0.875609
     17          6           0        1.211631   -3.607762    0.682003
     18          6           0        0.054513   -2.781709    0.401190
     19          6           0        1.261316   -5.149550    0.754460
     20          6           0        3.707843   -3.086861    1.325625
     21          6           0        4.477979   -3.873470    0.275330
     22          6           0        4.671350   -3.113992   -1.017369
     23          8           0        4.251929   -3.641159   -2.049470
     24          8           0        5.228567   -1.993903   -0.987351
     25          6           0       -2.334925   -2.493309   -0.127809
     26          6           0       -3.631524   -3.050819   -0.392779
     27          6           0       -4.521851   -2.010234   -0.620417
     28          6           0       -3.681497   -0.784337   -0.487760
     29          6           0       -3.919877   -4.578115   -0.411395
     30          6           0       -5.923133   -2.157186   -0.916107
     31          6           0       -6.438210   -3.413686   -1.262267
     32          6           0       -3.377380    1.673221   -0.536703
     33          6           0       -3.948423    3.008485   -0.739392
     34          6           0       -2.884045    3.900319   -0.555416
     35          6           0       -1.711200    3.071008   -0.252694
     36          6           0       -5.432447    3.289320   -1.087753
     37          6           0       -2.850457    5.334650   -0.635439
     38          6           0       -3.981167    6.038818   -1.070829
     39          6           0        0.712967    2.815496    0.265851
     40          6           0        2.043385    3.368186    0.495423
     41          6           0        2.871333    2.302205    0.712576
     42          6           0        2.038162    1.097682    0.632574
     43          6           0        2.455282    4.852796    0.475559
     44          6           0        4.379892    2.341790    0.988140
     45          6           0        5.044207    1.971147   -0.344427
     46          6           0        6.505910    2.382764   -0.488035
     47          8           0        7.043864    2.221393   -1.615119
     48          8           0        7.102325    2.858642    0.509345
     49          7           0        0.385298   -1.438983    0.424065
     50          7           0       -2.353195   -1.079261   -0.176361
     51          7           0       -2.026664    1.696388   -0.236814
     52          7           0        0.724040    1.422683    0.351755
     53         26           0       -0.768343    0.147840    0.139413
     54          1           0       -2.082531    0.065410   -3.830758
     55          1           0       -1.138410   -1.403932   -3.778459
     56          1           0       -2.307861   -1.071765   -2.523423
     57          1           0        1.104683   -1.682575   -1.943897
     58          1           0        1.997372   -0.282824   -2.488757
     59          1           0        0.117320   -0.941454   -4.520651
     60          1           0        1.859984   -1.032760   -4.609275
     61          1           0        0.939063   -2.415626   -4.068298
     62          1           0       -0.868526   -1.873896    2.828870
     63          1           0       -1.762747    2.240175    2.464313
     64          1           0       -1.997184    1.563406    4.885070
     65          1           0       -2.080768   -1.957474    5.585070
     66          1           0       -0.472411   -1.361598    5.918514
     67          1           0       -1.867451   -0.415106    6.377951
     68          1           0        6.499285    2.048641   -2.386606
     69          1           0        4.982690    0.909692   -0.464545
     70          1           0        4.488323    2.431578   -1.134298
     71          1           0        4.637994    1.628075    1.742391
     72          1           0        4.676199    3.324784    1.289511
     73          1           0        1.580030    5.464942    0.411448
     74          1           0        2.989265    5.086820    1.372774
     75          1           0        3.082588    5.037592   -0.371340
     76          1           0       -0.312439    4.635158   -0.026750
     77          1           0       -5.892519    2.389781   -1.439979
     78          1           0       -5.944983    3.633518   -0.213834
     79          1           0       -5.484283    4.038525   -1.849924
     80          1           0       -5.188504    0.641393   -0.870285
     81          1           0       -4.449036   -4.830293   -1.306547
     82          1           0       -2.995448   -5.116023   -0.379989
     83          1           0       -4.513642   -4.839378    0.439537
     84          1           0       -1.348767   -4.315678    0.166569
     85          1           0        0.785877   -5.562764   -0.110474
     86          1           0        2.280881   -5.472295    0.789440
     87          1           0        0.751616   -5.481857    1.634618
     88          1           0        3.577758   -0.343644    1.016066
     89          1           0        3.660012   -3.665389    2.224467
     90          1           0        4.231369   -2.175857    1.527847
     91          1           0        5.439285   -4.125151    0.672127
     92          1           0        3.945517   -4.777524    0.065401
     93          1           0        3.316766   -3.601680   -2.262805
     94          1           0       -1.962125    5.865048   -0.362596
     95          1           0       -4.886226    5.512999   -1.292827
     96          1           0       -3.939429    7.102285   -1.181264
     97          1           0       -6.571337   -1.307040   -0.871573
     98          1           0       -7.115414   -3.505969   -2.085540
     99          1           0       -6.154280   -4.280768   -0.703293
 ---------------------------------------------------------------------
 Rotational constants (GHZ):           0.0647955           0.0461020           0.0357950
 Standard basis: def2TZVP (5D, 7F)
 There are  2206 symmetry adapted cartesian basis functions of A   symmetry.
 There are  1939 symmetry adapted basis functions of A   symmetry.
  1939 basis functions,  3140 primitive gaussians,  2206 cartesian basis functions
   204 alpha electrons      204 beta electrons
       nuclear repulsion energy      8895.9234543488 Hartrees.
 NAtoms=   99 NActive=   99 NUniq=   99 SFac= 1.00D+00 NAtFMM=   60 NAOKFM=T Big=T
 Integral buffers will be    131072 words long.
 Raffenetti 2 integral format.
 Two-electron integral symmetry is turned on.
 Nuclear repulsion after empirical dispersion term =     8895.7750794277 Hartrees.
 One-electron integrals computed using PRISM.
   1 Symmetry operations used in ECPInt.
 ECPInt:  NShTT=  299151 NPrTT=  925475 LenC2=  220587 LenP2D=  440030.
 LDataN:  DoStor=T MaxTD1= 6 Len=  172
 NBasis=  1939 RedAO= T EigKep=  3.00D-06  NBF=  1939
 NBsUse=  1939 1.00D-06 EigRej= -1.00D+00 NBFU=  1939
 ExpMin= 4.20D-02 ExpMax= 3.01D+05 ExpMxC= 2.91D+03 IAcc=3 IRadAn=         5 AccDes= 0.00D+00
 Harris functional with IExCor= 1009 and IRadAn=       5 diagonalized for initial guess.
 HarFok:  IExCor= 1009 AccDes= 0.00D+00 IRadAn=         5 IDoV= 1 UseB2=F ITyADJ=14
 ICtDFT=  3500011 ScaDFX=  1.000000  1.000000  1.000000  1.000000
 FoFCou: FMM=F IPFlag=           0 FMFlag=      100000 FMFlg1=        2001
         NFxFlg=           0 DoJE=T BraDBF=F KetDBF=T FulRan=T
         wScrn=  0.000000 ICntrl=       500 IOpCl=  0 I1Cent=   200000004 NGrid=           0
         NMat0=    1 NMatS0=      1 NMatT0=    0 NMatD0=    1 NMtDS0=    0 NMtDT0=    0
 Petite list used in FoFCou.
 Requested convergence on RMS density matrix=1.00D-08 within 128 cycles.
 Requested convergence on MAX density matrix=1.00D-06.
 Requested convergence on             energy=1.00D-06.
 No special actions if energy rises.
 EnCoef did     9 forward-backward iterations
 EnCoef did   100 forward-backward iterations
 Restarting incremental Fock formation.
 SCF Done:  E(RPBE1PBE) =  -3879.39497029     A.U. after   23 cycles
            NFock= 23  Conv=0.32D-08     -V/T= 2.0035
 DoSCS=F DFT=T ScalE2(SS,OS)=  1.000000  1.000000
 Range of M.O.s used for correlation:     1  1939
 NBasis=  1939 NAE=   204 NBE=   204 NFC=     0 NFV=     0
 NROrb=   1939 NOA=   204 NOB=   204 NVA=  1735 NVB=  1735

 **** Warning!!: The largest alpha MO coefficient is  0.45815512D+02

          Differentiating once with respect to electric field.
                with respect to dipole field.
          Electric field/nuclear overlap derivatives assumed to be zero.
          There are     3 degrees of freedom in the 1st order CPHF.  IDoFFX=0 NUNeed=     3.
      3 vectors produced by pass  0 Test12= 1.18D-11 3.33D-08 XBig12= 2.10D+03 2.41D+01.
 AX will form     3 AO Fock derivatives at one time.
      3 vectors produced by pass  1 Test12= 1.18D-11 3.33D-08 XBig12= 1.39D+03 1.12D+01.
      3 vectors produced by pass  2 Test12= 1.18D-11 3.33D-08 XBig12= 5.60D+02 5.87D+00.
      3 vectors produced by pass  3 Test12= 1.18D-11 3.33D-08 XBig12= 4.73D+02 4.80D+00.
      3 vectors produced by pass  4 Test12= 1.18D-11 3.33D-08 XBig12= 1.40D+02 2.65D+00.
      3 vectors produced by pass  5 Test12= 1.18D-11 3.33D-08 XBig12= 7.17D+01 1.73D+00.
      3 vectors produced by pass  6 Test12= 1.18D-11 3.33D-08 XBig12= 4.67D+01 1.84D+00.
      3 vectors produced by pass  7 Test12= 1.18D-11 3.33D-08 XBig12= 2.05D+01 8.46D-01.
      3 vectors produced by pass  8 Test12= 1.18D-11 3.33D-08 XBig12= 1.16D+01 6.35D-01.
      3 vectors produced by pass  9 Test12= 1.18D-11 3.33D-08 XBig12= 7.44D+00 4.94D-01.
      3 vectors produced by pass 10 Test12= 1.18D-11 3.33D-08 XBig12= 4.11D+00 5.14D-01.
      3 vectors produced by pass 11 Test12= 1.18D-11 3.33D-08 XBig12= 1.80D+00 2.60D-01.
      3 vectors produced by pass 12 Test12= 1.18D-11 3.33D-08 XBig12= 8.00D-01 1.52D-01.
      3 vectors produced by pass 13 Test12= 1.18D-11 3.33D-08 XBig12= 3.37D-01 1.18D-01.
      3 vectors produced by pass 14 Test12= 1.18D-11 3.33D-08 XBig12= 1.60D-01 8.90D-02.
      3 vectors produced by pass 15 Test12= 1.18D-11 3.33D-08 XBig12= 5.58D-02 8.47D-02.
      3 vectors produced by pass 16 Test12= 1.18D-11 3.33D-08 XBig12= 2.06D-02 4.32D-02.
      3 vectors produced by pass 17 Test12= 1.18D-11 3.33D-08 XBig12= 1.12D-02 2.07D-02.
      3 vectors produced by pass 18 Test12= 1.18D-11 3.33D-08 XBig12= 3.89D-03 1.05D-02.
      3 vectors produced by pass 19 Test12= 1.18D-11 3.33D-08 XBig12= 1.45D-03 9.07D-03.
      3 vectors produced by pass 20 Test12= 1.18D-11 3.33D-08 XBig12= 3.40D-04 5.13D-03.
      3 vectors produced by pass 21 Test12= 1.18D-11 3.33D-08 XBig12= 8.87D-05 2.03D-03.
      3 vectors produced by pass 22 Test12= 1.18D-11 3.33D-08 XBig12= 1.83D-05 8.47D-04.
      3 vectors produced by pass 23 Test12= 1.18D-11 3.33D-08 XBig12= 4.50D-06 3.00D-04.
      3 vectors produced by pass 24 Test12= 1.18D-11 3.33D-08 XBig12= 1.24D-06 1.51D-04.
      3 vectors produced by pass 25 Test12= 1.18D-11 3.33D-08 XBig12= 2.34D-07 6.71D-05.
      3 vectors produced by pass 26 Test12= 1.18D-11 3.33D-08 XBig12= 5.12D-08 2.98D-05.
      3 vectors produced by pass 27 Test12= 1.18D-11 3.33D-08 XBig12= 1.10D-08 1.93D-05.
      3 vectors produced by pass 28 Test12= 1.18D-11 3.33D-08 XBig12= 1.87D-09 8.60D-06.
      3 vectors produced by pass 29 Test12= 1.18D-11 3.33D-08 XBig12= 4.15D-10 3.65D-06.
      3 vectors produced by pass 30 Test12= 1.18D-11 3.33D-08 XBig12= 9.68D-11 1.42D-06.
      3 vectors produced by pass 31 Test12= 1.18D-11 3.33D-08 XBig12= 1.81D-11 4.66D-07.
      3 vectors produced by pass 32 Test12= 1.18D-11 3.33D-08 XBig12= 6.50D-12 2.23D-07.
      3 vectors produced by pass 33 Test12= 1.18D-11 3.33D-08 XBig12= 2.67D-12 1.54D-07.
      3 vectors produced by pass 34 Test12= 1.18D-11 3.33D-08 XBig12= 1.12D-12 1.05D-07.
      2 vectors produced by pass 35 Test12= 1.18D-11 3.33D-08 XBig12= 5.25D-13 3.96D-08.
 InvSVY:  IOpt=1 It=  1 EMax= 2.84D-14
 Solved reduced A of dimension   107 with     3 vectors.
 Isotropic polarizability for W=    0.000000      705.65 Bohr**3.
 End of Minotr F.D. properties file   721 does not exist.
 End of Minotr F.D. properties file   722 does not exist.
 End of Minotr F.D. properties file   788 does not exist.

 **********************************************************************

            Population analysis using the SCF density.

 **********************************************************************

 Orbital symmetries:
       Occupied  (A) (A) (A) (A) (A) (A) (A) (A) (A) (A) (A) (A)
                 (A) (A) (A) (A) (A) (A) (A) (A) (A) (A) (A) (A)
                 (A) (A) (A) (A) (A) (A) (A) (A) (A) (A) (A) (A)
                 (A) (A) (A) (A) (A) (A) (A) (A) (A) (A) (A) (A)
                 (A) (A) (A) (A) (A) (A) (A) (A) (A) (A) (A) (A)
                 (A) (A) (A) (A) (A) (A) (A) (A) (A) (A) (A) (A)
                 (A) (A) (A) (A) (A) (A) (A) (A) (A) (A) (A) (A)
                 (A) (A) (A) (A) (A) (A) (A) (A) (A) (A) (A) (A)
                 (A) (A) (A) (A) (A) (A) (A) (A) (A) (A) (A) (A)
                 (A) (A) (A) (A) (A) (A) (A) (A) (A) (A) (A) (A)
                 (A) (A) (A) (A) (A) (A) (A) (A) (A) (A) (A) (A)
                 (A) (A) (A) (A) (A) (A) (A) (A) (A) (A) (A) (A)
                 (A) (A) (A) (A) (A) (A) (A) (A) (A) (A) (A) (A)
                 (A) (A) (A) (A) (A) (A) (A) (A) (A) (A) (A) (A)
                 (A) (A) (A) (A) (A) (A) (A) (A) (A) (A) (A) (A)
                 (A) (A) (A) (A) (A) (A) (A) (A) (A) (A) (A) (A)
                 (A) (A) (A) (A) (A) (A) (A) (A) (A) (A) (A) (A)
       Virtual   (A) (A) (A) (A) (A) (A) (A) (A) (A) (A) (A) (A)
                 (A) (A) (A) (A) (A) (A) (A) (A) (A) (A) (A) (A)
                 (A) (A) (A) (A) (A) (A) (A) (A) (A) (A) (A) (A)
                 (A) (A) (A) (A) (A) (A) (A) (A) (A) (A) (A) (A)
                 (A) (A) (A) (A) (A) (A) (A) (A) (A) (A) (A) (A)
                 (A) (A) (A) (A) (A) (A) (A) (A) (A) (A) (A) (A)
                 (A) (A) (A) (A) (A) (A) (A) (A) (A) (A) (A) (A)
                 (A) (A) (A) (A) (A) (A) (A) (A) (A) (A) (A) (A)
                 (A) (A) (A) (A) (A) (A) (A) (A) (A) (A) (A) (A)
                 (A) (A) (A) (A) (A) (A) (A) (A) (A) (A) (A) (A)
                 (A) (A) (A) (A) (A) (A) (A) (A) (A) (A) (A) (A)
                 (A) (A) (A) (A) (A) (A) (A) (A) (A) (A) (A) (A)
                 (A) (A) (A) (A) (A) (A) (A) (A) (A) (A) (A) (A)
                 (A) (A) (A) (A) (A) (A) (A) (A) (A) (A) (A) (A)
                 (A) (A) (A) (A) (A) (A) (A) (A) (A) (A) (A) (A)
                 (A) (A) (A) (A) (A) (A) (A) (A) (A) (A) (A) (A)
                 (A) (A) (A) (A) (A) (A) (A) (A) (A) (A) (A) (A)
                 (A) (A) (A) (A) (A) (A) (A) (A) (A) (A) (A) (A)
                 (A) (A) (A) (A) (A) (A) (A) (A) (A) (A) (A) (A)
                 (A) (A) (A) (A) (A) (A) (A) (A) (A) (A) (A) (A)
                 (A) (A) (A) (A) (A) (A) (A) (A) (A) (A) (A) (A)
                 (A) (A) (A) (A) (A) (A) (A) (A) (A) (A) (A) (A)
                 (A) (A) (A) (A) (A) (A) (A) (A) (A) (A) (A) (A)
                 (A) (A) (A) (A) (A) (A) (A) (A) (A) (A) (A) (A)
                 (A) (A) (A) (A) (A) (A) (A) (A) (A) (A) (A) (A)
                 (A) (A) (A) (A) (A) (A) (A) (A) (A) (A) (A) (A)
                 (A) (A) (A) (A) (A) (A) (A) (A) (A) (A) (A) (A)
                 (A) (A) (A) (A) (A) (A) (A) (A) (A) (A) (A) (A)
                 (A) (A) (A) (A) (A) (A) (A) (A) (A) (A) (A) (A)
                 (A) (A) (A) (A) (A) (A) (A) (A) (A) (A) (A) (A)
                 (A) (A) (A) (A) (A) (A) (A) (A) (A) (A) (A) (A)
                 (A) (A) (A) (A) (A) (A) (A) (A) (A) (A) (A) (A)
                 (A) (A) (A) (A) (A) (A) (A) (A) (A) (A) (A) (A)
                 (A) (A) (A) (A) (A) (A) (A) (A) (A) (A) (A) (A)
                 (A) (A) (A) (A) (A) (A) (A) (A) (A) (A) (A) (A)
                 (A) (A) (A) (A) (A) (A) (A) (A) (A) (A) (A) (A)
                 (A) (A) (A) (A) (A) (A) (A) (A) (A) (A) (A) (A)
                 (A) (A) (A) (A) (A) (A) (A) (A) (A) (A) (A) (A)
                 (A) (A) (A) (A) (A) (A) (A) (A) (A) (A) (A) (A)
                 (A) (A) (A) (A) (A) (A) (A) (A) (A) (A) (A) (A)
                 (A) (A) (A) (A) (A) (A) (A) (A) (A) (A) (A) (A)
                 (A) (A) (A) (A) (A) (A) (A) (A) (A) (A) (A) (A)
                 (A) (A) (A) (A) (A) (A) (A) (A) (A) (A) (A) (A)
                 (A) (A) (A) (A) (A) (A) (A) (A) (A) (A) (A) (A)
                 (A) (A) (A) (A) (A) (A) (A) (A) (A) (A) (A) (A)
                 (A) (A) (A) (A) (A) (A) (A) (A) (A) (A) (A) (A)
                 (A) (A) (A) (A) (A) (A) (A) (A) (A) (A) (A) (A)
                 (A) (A) (A) (A) (A) (A) (A) (A) (A) (A) (A) (A)
                 (A) (A) (A) (A) (A) (A) (A) (A) (A) (A) (A) (A)
                 (A) (A) (A) (A) (A) (A) (A) (A) (A) (A) (A) (A)
                 (A) (A) (A) (A) (A) (A) (A) (A) (A) (A) (A) (A)
                 (A) (A) (A) (A) (A) (A) (A) (A) (A) (A) (A) (A)
                 (A) (A) (A) (A) (A) (A) (A) (A) (A) (A) (A) (A)
                 (A) (A) (A) (A) (A) (A) (A) (A) (A) (A) (A) (A)
                 (A) (A) (A) (A) (A) (A) (A) (A) (A) (A) (A) (A)
                 (A) (A) (A) (A) (A) (A) (A) (A) (A) (A) (A) (A)
                 (A) (A) (A) (A) (A) (A) (A) (A) (A) (A) (A) (A)
                 (A) (A) (A) (A) (A) (A) (A) (A) (A) (A) (A) (A)
                 (A) (A) (A) (A) (A) (A) (A) (A) (A) (A) (A) (A)
                 (A) (A) (A) (A) (A) (A) (A) (A) (A) (A) (A) (A)
                 (A) (A) (A) (A) (A) (A) (A) (A) (A) (A) (A) (A)
                 (A) (A) (A) (A) (A) (A) (A) (A) (A) (A) (A) (A)
                 (A) (A) (A) (A) (A) (A) (A) (A) (A) (A) (A) (A)
                 (A) (A) (A) (A) (A) (A) (A) (A) (A) (A) (A) (A)
                 (A) (A) (A) (A) (A) (A) (A) (A) (A) (A) (A) (A)
                 (A) (A) (A) (A) (A) (A) (A) (A) (A) (A) (A) (A)
                 (A) (A) (A) (A) (A) (A) (A) (A) (A) (A) (A) (A)
                 (A) (A) (A) (A) (A) (A) (A) (A) (A) (A) (A) (A)
                 (A) (A) (A) (A) (A) (A) (A) (A) (A) (A) (A) (A)
                 (A) (A) (A) (A) (A) (A) (A) (A) (A) (A) (A) (A)
                 (A) (A) (A) (A) (A) (A) (A) (A) (A) (A) (A) (A)
                 (A) (A) (A) (A) (A) (A) (A) (A) (A) (A) (A) (A)
                 (A) (A) (A) (A) (A) (A) (A) (A) (A) (A) (A) (A)
                 (A) (A) (A) (A) (A) (A) (A) (A) (A) (A) (A) (A)
                 (A) (A) (A) (A) (A) (A) (A) (A) (A) (A) (A) (A)
                 (A) (A) (A) (A) (A) (A) (A) (A) (A) (A) (A) (A)
                 (A) (A) (A) (A) (A) (A) (A) (A) (A) (A) (A) (A)
                 (A) (A) (A) (A) (A) (A) (A) (A) (A) (A) (A) (A)
                 (A) (A) (A) (A) (A) (A) (A) (A) (A) (A) (A) (A)
                 (A) (A) (A) (A) (A) (A) (A) (A) (A) (A) (A) (A)
                 (A) (A) (A) (A) (A) (A) (A) (A) (A) (A) (A) (A)
                 (A) (A) (A) (A) (A) (A) (A) (A) (A) (A) (A) (A)
                 (A) (A) (A) (A) (A) (A) (A) (A) (A) (A) (A) (A)
                 (A) (A) (A) (A) (A) (A) (A) (A) (A) (A) (A) (A)
                 (A) (A) (A) (A) (A) (A) (A) (A) (A) (A) (A) (A)
                 (A) (A) (A) (A) (A) (A) (A) (A) (A) (A) (A) (A)
                 (A) (A) (A) (A) (A) (A) (A) (A) (A) (A) (A) (A)
                 (A) (A) (A) (A) (A) (A) (A) (A) (A) (A) (A) (A)
                 (A) (A) (A) (A) (A) (A) (A) (A) (A) (A) (A) (A)
                 (A) (A) (A) (A) (A) (A) (A) (A) (A) (A) (A) (A)
                 (A) (A) (A) (A) (A) (A) (A) (A) (A) (A) (A) (A)
                 (A) (A) (A) (A) (A) (A) (A) (A) (A) (A) (A) (A)
                 (A) (A) (A) (A) (A) (A) (A) (A) (A) (A) (A) (A)
                 (A) (A) (A) (A) (A) (A) (A) (A) (A) (A) (A) (A)
                 (A) (A) (A) (A) (A) (A) (A) (A) (A) (A) (A) (A)
                 (A) (A) (A) (A) (A) (A) (A) (A) (A) (A) (A) (A)
                 (A) (A) (A) (A) (A) (A) (A) (A) (A) (A) (A) (A)
                 (A) (A) (A) (A) (A) (A) (A) (A) (A) (A) (A) (A)
                 (A) (A) (A) (A) (A) (A) (A) (A) (A) (A) (A) (A)
                 (A) (A) (A) (A) (A) (A) (A) (A) (A) (A) (A) (A)
                 (A) (A) (A) (A) (A) (A) (A) (A) (A) (A) (A) (A)
                 (A) (A) (A) (A) (A) (A) (A) (A) (A) (A) (A) (A)
                 (A) (A) (A) (A) (A) (A) (A) (A) (A) (A) (A) (A)
                 (A) (A) (A) (A) (A) (A) (A) (A) (A) (A) (A) (A)
                 (A) (A) (A) (A) (A) (A) (A) (A) (A) (A) (A) (A)
                 (A) (A) (A) (A) (A) (A) (A) (A) (A) (A) (A) (A)
                 (A) (A) (A) (A) (A) (A) (A) (A) (A) (A) (A) (A)
                 (A) (A) (A) (A) (A) (A) (A) (A) (A) (A) (A) (A)
                 (A) (A) (A) (A) (A) (A) (A) (A) (A) (A) (A) (A)
                 (A) (A) (A) (A) (A) (A) (A) (A) (A) (A) (A) (A)
                 (A) (A) (A) (A) (A) (A) (A) (A) (A) (A) (A) (A)
                 (A) (A) (A) (A) (A) (A) (A) (A) (A) (A) (A) (A)
                 (A) (A) (A) (A) (A) (A) (A) (A) (A) (A) (A) (A)
                 (A) (A) (A) (A) (A) (A) (A) (A) (A) (A) (A) (A)
                 (A) (A) (A) (A) (A) (A) (A) (A) (A) (A) (A) (A)
                 (A) (A) (A) (A) (A) (A) (A) (A) (A) (A) (A) (A)
                 (A) (A) (A) (A) (A) (A) (A) (A) (A) (A) (A) (A)
                 (A) (A) (A) (A) (A) (A) (A) (A) (A) (A) (A) (A)
                 (A) (A) (A) (A) (A) (A) (A) (A) (A) (A) (A) (A)
                 (A) (A) (A) (A) (A) (A) (A) (A) (A) (A) (A) (A)
                 (A) (A) (A) (A) (A) (A) (A) (A) (A) (A) (A) (A)
                 (A) (A) (A) (A) (A) (A) (A) (A) (A) (A) (A) (A)
                 (A) (A) (A) (A) (A) (A) (A) (A) (A) (A) (A) (A)
                 (A) (A) (A) (A) (A) (A) (A) (A) (A) (A) (A) (A)
                 (A) (A) (A) (A) (A) (A) (A) (A) (A) (A) (A) (A)
                 (A) (A) (A) (A) (A) (A) (A) (A) (A) (A) (A) (A)
                 (A) (A) (A) (A) (A) (A) (A) (A) (A) (A) (A) (A)
                 (A) (A) (A) (A) (A) (A) (A) (A) (A) (A) (A) (A)
                 (A) (A) (A) (A) (A) (A) (A) (A) (A) (A) (A) (A)
                 (A) (A) (A) (A) (A) (A) (A) (A) (A) (A) (A) (A)
                 (A) (A) (A) (A) (A) (A) (A) (A) (A) (A) (A) (A)
                 (A) (A) (A) (A) (A) (A) (A) (A) (A) (A) (A) (A)
                 (A) (A) (A) (A) (A) (A) (A) (A) (A) (A) (A) (A)
                 (A) (A) (A) (A) (A) (A) (A) (A) (A) (A) (A) (A)
                 (A) (A) (A) (A) (A) (A) (A) (A) (A) (A) (A) (A)
                 (A) (A) (A) (A) (A) (A) (A) (A) (A) (A) (A) (A)
                 (A) (A) (A) (A) (A) (A) (A) (A) (A) (A) (A) (A)
                 (A) (A) (A) (A) (A) (A) (A) (A) (A) (A) (A) (A)
                 (A) (A) (A) (A) (A) (A) (A) (A) (A) (A) (A) (A)
                 (A) (A) (A) (A) (A) (A) (A) (A) (A) (A) (A) (A)
                 (A) (A) (A) (A) (A) (A) (A) (A) (A) (A) (A) (A)
                 (A) (A) (A) (A) (A) (A) (A) (A) (A) (A) (A) (A)
                 (A) (A) (A) (A) (A) (A) (A) (A) (A) (A) (A) (A)
                 (A) (A) (A) (A) (A) (A) (A) (A) (A) (A) (A) (A)
                 (A) (A) (A) (A) (A) (A) (A)
 The electronic state is 1-A.
 Alpha  occ. eigenvalues -- -256.31596 -89.02381 -30.08422 -25.91218 -25.90895
 Alpha  occ. eigenvalues --  -25.90861 -19.26214 -19.25923 -19.18682 -19.16587
 Alpha  occ. eigenvalues --  -14.44989 -14.39120 -14.37658 -14.37565 -14.37493
 Alpha  occ. eigenvalues --  -14.37411 -10.35641 -10.34284 -10.27989 -10.26294
 Alpha  occ. eigenvalues --  -10.25360 -10.25007 -10.25007 -10.24804 -10.24797
 Alpha  occ. eigenvalues --  -10.24760 -10.24682 -10.24605 -10.24146 -10.23853
 Alpha  occ. eigenvalues --  -10.23593 -10.23409 -10.23366 -10.23333 -10.23297
 Alpha  occ. eigenvalues --  -10.23209 -10.23036 -10.22964 -10.22885 -10.22852
 Alpha  occ. eigenvalues --  -10.22581 -10.22448 -10.22441 -10.22364 -10.22259
 Alpha  occ. eigenvalues --  -10.22210 -10.21946 -10.21835 -10.21834 -10.21747
 Alpha  occ. eigenvalues --  -10.21739 -10.21674 -10.21660 -10.21601 -10.21583
 Alpha  occ. eigenvalues --  -10.21408 -10.21256  -8.00165  -5.93829  -5.93510
 Alpha  occ. eigenvalues --   -5.92999  -3.42945  -2.18841  -2.18260  -2.18215
 Alpha  occ. eigenvalues --   -1.17829  -1.15876  -1.06804  -1.03213  -1.01393
 Alpha  occ. eigenvalues --   -0.97036  -0.96013  -0.95624  -0.94685  -0.90962
 Alpha  occ. eigenvalues --   -0.84697  -0.83981  -0.83011  -0.82788  -0.82676
 Alpha  occ. eigenvalues --   -0.82184  -0.81779  -0.80481  -0.80266  -0.78999
 Alpha  occ. eigenvalues --   -0.77874  -0.76573  -0.76043  -0.75732  -0.74757
 Alpha  occ. eigenvalues --   -0.73624  -0.73001  -0.72465  -0.71804  -0.71571
 Alpha  occ. eigenvalues --   -0.70602  -0.69317  -0.69189  -0.68758  -0.66490
 Alpha  occ. eigenvalues --   -0.65960  -0.64968  -0.64836  -0.64545  -0.62545
 Alpha  occ. eigenvalues --   -0.61708  -0.61329  -0.59916  -0.58705  -0.57262
 Alpha  occ. eigenvalues --   -0.56824  -0.56145  -0.54646  -0.54587  -0.53981
 Alpha  occ. eigenvalues --   -0.53395  -0.52636  -0.52354  -0.51967  -0.51019
 Alpha  occ. eigenvalues --   -0.50697  -0.50097  -0.49967  -0.49678  -0.48778
 Alpha  occ. eigenvalues --   -0.48670  -0.48375  -0.48307  -0.47999  -0.47731
 Alpha  occ. eigenvalues --   -0.46487  -0.45969  -0.45701  -0.45102  -0.44809
 Alpha  occ. eigenvalues --   -0.44600  -0.44477  -0.44439  -0.44159  -0.44046
 Alpha  occ. eigenvalues --   -0.43986  -0.43770  -0.43695  -0.43654  -0.43497
 Alpha  occ. eigenvalues --   -0.43453  -0.43249  -0.43069  -0.43027  -0.42706
 Alpha  occ. eigenvalues --   -0.42472  -0.42329  -0.42106  -0.41359  -0.40927
 Alpha  occ. eigenvalues --   -0.40827  -0.40389  -0.40027  -0.39462  -0.39214
 Alpha  occ. eigenvalues --   -0.39106  -0.38778  -0.38461  -0.38455  -0.38124
 Alpha  occ. eigenvalues --   -0.37886  -0.37692  -0.37467  -0.37065  -0.36754
 Alpha  occ. eigenvalues --   -0.36495  -0.36459  -0.36214  -0.35838  -0.35380
 Alpha  occ. eigenvalues --   -0.34891  -0.34655  -0.34061  -0.33639  -0.33100
 Alpha  occ. eigenvalues --   -0.33022  -0.32593  -0.32126  -0.31790  -0.31494
 Alpha  occ. eigenvalues --   -0.31005  -0.30487  -0.30203  -0.29191  -0.28456
 Alpha  occ. eigenvalues --   -0.27398  -0.27179  -0.26624  -0.26027  -0.25096
 Alpha  occ. eigenvalues --   -0.24480  -0.24002  -0.22461  -0.21385  -0.20576
 Alpha  occ. eigenvalues --   -0.18994  -0.18875  -0.18735  -0.18338
 Alpha virt. eigenvalues --   -0.07671  -0.07314  -0.04148  -0.02274  -0.01929
 Alpha virt. eigenvalues --    0.00396   0.01270   0.01649   0.01829   0.02378
 Alpha virt. eigenvalues --    0.02576   0.03100   0.03653   0.04322   0.04399
 Alpha virt. eigenvalues --    0.04586   0.04903   0.05135   0.05444   0.05710
 Alpha virt. eigenvalues --    0.06007   0.06327   0.06440   0.06614   0.07160
 Alpha virt. eigenvalues --    0.07743   0.07768   0.08076   0.08319   0.08523
 Alpha virt. eigenvalues --    0.08731   0.09135   0.09602   0.09756   0.09912
 Alpha virt. eigenvalues --    0.10225   0.10533   0.10751   0.10887   0.11031
 Alpha virt. eigenvalues --    0.11252   0.11410   0.11876   0.11968   0.12249
 Alpha virt. eigenvalues --    0.12744   0.12988   0.13132   0.13382   0.13540
 Alpha virt. eigenvalues --    0.13643   0.13707   0.13767   0.14031   0.14307
 Alpha virt. eigenvalues --    0.14484   0.14624   0.14934   0.15049   0.15161
 Alpha virt. eigenvalues --    0.15271   0.15340   0.15602   0.15994   0.16354
 Alpha virt. eigenvalues --    0.16497   0.16632   0.16824   0.17045   0.17215
 Alpha virt. eigenvalues --    0.17288   0.17409   0.17767   0.17899   0.18204
 Alpha virt. eigenvalues --    0.18487   0.18704   0.18829   0.18971   0.19357
 Alpha virt. eigenvalues --    0.19723   0.19869   0.20155   0.20377   0.20523
 Alpha virt. eigenvalues --    0.20763   0.21199   0.21276   0.21439   0.21489
 Alpha virt. eigenvalues --    0.21716   0.21802   0.21959   0.22043   0.22484
 Alpha virt. eigenvalues --    0.22764   0.22856   0.22952   0.23383   0.23562
 Alpha virt. eigenvalues --    0.23767   0.24009   0.24203   0.24338   0.24468
 Alpha virt. eigenvalues --    0.24611   0.24936   0.24986   0.25297   0.25389
 Alpha virt. eigenvalues --    0.26102   0.26153   0.26339   0.26523   0.26707
 Alpha virt. eigenvalues --    0.26922   0.27009   0.27418   0.27457   0.27716
 Alpha virt. eigenvalues --    0.27868   0.28309   0.28427   0.28486   0.28696
 Alpha virt. eigenvalues --    0.29003   0.29162   0.29464   0.29616   0.29882
 Alpha virt. eigenvalues --    0.30101   0.30306   0.30362   0.30778   0.30930
 Alpha virt. eigenvalues --    0.31123   0.31350   0.31632   0.31776   0.31875
 Alpha virt. eigenvalues --    0.32142   0.32285   0.32679   0.32870   0.32954
 Alpha virt. eigenvalues --    0.33336   0.33682   0.34065   0.34216   0.34534
 Alpha virt. eigenvalues --    0.34784   0.34953   0.35042   0.35344   0.35616
 Alpha virt. eigenvalues --    0.35764   0.35951   0.36292   0.36613   0.36843
 Alpha virt. eigenvalues --    0.37027   0.37287   0.37424   0.37704   0.37836
 Alpha virt. eigenvalues --    0.38100   0.38164   0.38271   0.38474   0.38924
 Alpha virt. eigenvalues --    0.38938   0.39224   0.39433   0.39610   0.39798
 Alpha virt. eigenvalues --    0.39888   0.40260   0.40399   0.40523   0.40712
 Alpha virt. eigenvalues --    0.40737   0.40850   0.41248   0.41281   0.41520
 Alpha virt. eigenvalues --    0.41656   0.41751   0.42035   0.42283   0.42373
 Alpha virt. eigenvalues --    0.42565   0.42651   0.42868   0.43125   0.43164
 Alpha virt. eigenvalues --    0.43322   0.43449   0.43767   0.43974   0.44089
 Alpha virt. eigenvalues --    0.44406   0.44568   0.44640   0.44877   0.45028
 Alpha virt. eigenvalues --    0.45058   0.45210   0.45417   0.45572   0.45778
 Alpha virt. eigenvalues --    0.45977   0.46325   0.46458   0.46604   0.46671
 Alpha virt. eigenvalues --    0.46848   0.46977   0.47077   0.47139   0.47435
 Alpha virt. eigenvalues --    0.47662   0.47863   0.48004   0.48271   0.48484
 Alpha virt. eigenvalues --    0.48603   0.48759   0.48931   0.48993   0.49300
 Alpha virt. eigenvalues --    0.49461   0.49577   0.49901   0.49976   0.50284
 Alpha virt. eigenvalues --    0.50294   0.50514   0.50674   0.50988   0.51447
 Alpha virt. eigenvalues --    0.51536   0.51597   0.51848   0.51956   0.51996
 Alpha virt. eigenvalues --    0.52178   0.52490   0.52674   0.52901   0.53093
 Alpha virt. eigenvalues --    0.53204   0.53359   0.53621   0.53970   0.54095
 Alpha virt. eigenvalues --    0.54167   0.54281   0.54545   0.54663   0.54978
 Alpha virt. eigenvalues --    0.55119   0.55283   0.55662   0.55686   0.55812
 Alpha virt. eigenvalues --    0.56075   0.56249   0.56408   0.56856   0.56988
 Alpha virt. eigenvalues --    0.57326   0.57553   0.57711   0.57735   0.57866
 Alpha virt. eigenvalues --    0.58114   0.58523   0.58543   0.59092   0.59347
 Alpha virt. eigenvalues --    0.59534   0.59585   0.59690   0.60070   0.60502
 Alpha virt. eigenvalues --    0.60628   0.61015   0.61063   0.61375   0.61577
 Alpha virt. eigenvalues --    0.61992   0.62294   0.62504   0.62734   0.62961
 Alpha virt. eigenvalues --    0.63591   0.63669   0.63853   0.63972   0.64303
 Alpha virt. eigenvalues --    0.64606   0.64759   0.64905   0.65220   0.65393
 Alpha virt. eigenvalues --    0.65692   0.66138   0.66328   0.66487   0.66812
 Alpha virt. eigenvalues --    0.66863   0.67503   0.67618   0.67809   0.68098
 Alpha virt. eigenvalues --    0.68396   0.68655   0.68898   0.69146   0.69502
 Alpha virt. eigenvalues --    0.69658   0.69754   0.70030   0.70180   0.70411
 Alpha virt. eigenvalues --    0.70774   0.71100   0.71243   0.71472   0.71738
 Alpha virt. eigenvalues --    0.71900   0.72113   0.72394   0.72828   0.72839
 Alpha virt. eigenvalues --    0.73339   0.73516   0.73640   0.73748   0.74310
 Alpha virt. eigenvalues --    0.74655   0.74903   0.75356   0.75447   0.75848
 Alpha virt. eigenvalues --    0.76183   0.76513   0.76582   0.76772   0.77132
 Alpha virt. eigenvalues --    0.77319   0.77426   0.77913   0.78323   0.78387
 Alpha virt. eigenvalues --    0.78802   0.79176   0.79620   0.80171   0.80438
 Alpha virt. eigenvalues --    0.80493   0.80663   0.80955   0.81134   0.81524
 Alpha virt. eigenvalues --    0.81754   0.81940   0.82192   0.82285   0.82752
 Alpha virt. eigenvalues --    0.83115   0.83628   0.83884   0.84049   0.84328
 Alpha virt. eigenvalues --    0.84506   0.84827   0.85027   0.85367   0.86028
 Alpha virt. eigenvalues --    0.86270   0.86435   0.86648   0.87221   0.87533
 Alpha virt. eigenvalues --    0.87545   0.87782   0.88030   0.88179   0.88631
 Alpha virt. eigenvalues --    0.88776   0.89195   0.89587   0.89990   0.90302
 Alpha virt. eigenvalues --    0.90474   0.90620   0.90897   0.91512   0.91567
 Alpha virt. eigenvalues --    0.91681   0.92206   0.92440   0.92729   0.92775
 Alpha virt. eigenvalues --    0.93222   0.93373   0.93583   0.93634   0.94107
 Alpha virt. eigenvalues --    0.94584   0.94629   0.94833   0.95019   0.95492
 Alpha virt. eigenvalues --    0.95666   0.95863   0.96176   0.96492   0.96512
 Alpha virt. eigenvalues --    0.96759   0.96928   0.97162   0.97413   0.97763
 Alpha virt. eigenvalues --    0.98219   0.98303   0.98465   0.98927   0.99345
 Alpha virt. eigenvalues --    0.99481   0.99676   0.99958   1.00247   1.00471
 Alpha virt. eigenvalues --    1.00874   1.01211   1.01257   1.01621   1.01903
 Alpha virt. eigenvalues --    1.02072   1.02554   1.02645   1.02784   1.03390
 Alpha virt. eigenvalues --    1.03594   1.03641   1.03983   1.04523   1.04968
 Alpha virt. eigenvalues --    1.05400   1.05705   1.05919   1.06315   1.06604
 Alpha virt. eigenvalues --    1.06887   1.07378   1.07500   1.07709   1.07740
 Alpha virt. eigenvalues --    1.07973   1.08484   1.08838   1.09056   1.09410
 Alpha virt. eigenvalues --    1.09574   1.10172   1.10435   1.10484   1.11032
 Alpha virt. eigenvalues --    1.11456   1.11933   1.12155   1.12521   1.12776
 Alpha virt. eigenvalues --    1.12879   1.13295   1.13313   1.13818   1.13973
 Alpha virt. eigenvalues --    1.14172   1.14308   1.14901   1.15116   1.15770
 Alpha virt. eigenvalues --    1.15865   1.16268   1.16424   1.16717   1.17251
 Alpha virt. eigenvalues --    1.17730   1.18198   1.18610   1.19179   1.19456
 Alpha virt. eigenvalues --    1.19802   1.19896   1.20178   1.20513   1.20749
 Alpha virt. eigenvalues --    1.21290   1.21660   1.21838   1.22247   1.22584
 Alpha virt. eigenvalues --    1.22717   1.23242   1.23561   1.23594   1.24135
 Alpha virt. eigenvalues --    1.24668   1.24935   1.25062   1.25513   1.25832
 Alpha virt. eigenvalues --    1.26071   1.26490   1.26991   1.27173   1.27701
 Alpha virt. eigenvalues --    1.28184   1.28480   1.28783   1.29147   1.29298
 Alpha virt. eigenvalues --    1.29605   1.29951   1.30303   1.30447   1.30809
 Alpha virt. eigenvalues --    1.31213   1.32029   1.32287   1.32873   1.32996
 Alpha virt. eigenvalues --    1.33227   1.33723   1.33851   1.34422   1.34813
 Alpha virt. eigenvalues --    1.34921   1.35455   1.35600   1.36166   1.36382
 Alpha virt. eigenvalues --    1.36942   1.37481   1.37884   1.38059   1.38253
 Alpha virt. eigenvalues --    1.38646   1.38966   1.39224   1.39744   1.39845
 Alpha virt. eigenvalues --    1.40124   1.40784   1.40952   1.41554   1.42160
 Alpha virt. eigenvalues --    1.42411   1.42774   1.42919   1.43382   1.43995
 Alpha virt. eigenvalues --    1.44194   1.44798   1.45186   1.45251   1.45758
 Alpha virt. eigenvalues --    1.46308   1.46402   1.47159   1.47340   1.47796
 Alpha virt. eigenvalues --    1.47995   1.48145   1.48267   1.48803   1.48854
 Alpha virt. eigenvalues --    1.49513   1.49762   1.50081   1.50502   1.50824
 Alpha virt. eigenvalues --    1.51173   1.51465   1.51714   1.51825   1.51989
 Alpha virt. eigenvalues --    1.52514   1.52635   1.52924   1.53060   1.53369
 Alpha virt. eigenvalues --    1.53720   1.53937   1.54014   1.54201   1.54633
 Alpha virt. eigenvalues --    1.54738   1.54956   1.55252   1.55468   1.55810
 Alpha virt. eigenvalues --    1.56084   1.56285   1.56709   1.56937   1.57327
 Alpha virt. eigenvalues --    1.57439   1.57867   1.58155   1.58290   1.58382
 Alpha virt. eigenvalues --    1.58545   1.59206   1.59421   1.59508   1.59644
 Alpha virt. eigenvalues --    1.60035   1.60200   1.60409   1.60743   1.60984
 Alpha virt. eigenvalues --    1.61302   1.61849   1.61938   1.62217   1.62351
 Alpha virt. eigenvalues --    1.62621   1.63128   1.63409   1.63649   1.63889
 Alpha virt. eigenvalues --    1.64069   1.64171   1.64294   1.64639   1.64857
 Alpha virt. eigenvalues --    1.65117   1.65595   1.65788   1.65915   1.66244
 Alpha virt. eigenvalues --    1.66385   1.66984   1.67064   1.67372   1.67836
 Alpha virt. eigenvalues --    1.68016   1.68212   1.68454   1.68628   1.69015
 Alpha virt. eigenvalues --    1.69206   1.69342   1.69518   1.69959   1.70313
 Alpha virt. eigenvalues --    1.70565   1.70977   1.71055   1.71580   1.71652
 Alpha virt. eigenvalues --    1.72011   1.72249   1.72453   1.72821   1.72876
 Alpha virt. eigenvalues --    1.73263   1.73526   1.74188   1.74372   1.75221
 Alpha virt. eigenvalues --    1.75323   1.75671   1.75816   1.76115   1.76247
 Alpha virt. eigenvalues --    1.76717   1.76982   1.77247   1.77480   1.77879
 Alpha virt. eigenvalues --    1.77985   1.78391   1.78859   1.79231   1.79645
 Alpha virt. eigenvalues --    1.79874   1.80246   1.80414   1.80818   1.81406
 Alpha virt. eigenvalues --    1.82142   1.82649   1.82820   1.83231   1.83338
 Alpha virt. eigenvalues --    1.83744   1.84199   1.84417   1.84741   1.84855
 Alpha virt. eigenvalues --    1.85124   1.85786   1.85984   1.86208   1.86526
 Alpha virt. eigenvalues --    1.86993   1.87019   1.87259   1.87820   1.87896
 Alpha virt. eigenvalues --    1.88156   1.88260   1.88869   1.89221   1.89651
 Alpha virt. eigenvalues --    1.89918   1.90191   1.90347   1.91094   1.91215
 Alpha virt. eigenvalues --    1.91751   1.92055   1.92472   1.92724   1.92930
 Alpha virt. eigenvalues --    1.93706   1.93889   1.94181   1.94426   1.94590
 Alpha virt. eigenvalues --    1.95011   1.95563   1.95958   1.96395   1.96696
 Alpha virt. eigenvalues --    1.96782   1.97269   1.97396   1.97881   1.98141
 Alpha virt. eigenvalues --    1.98359   1.98487   1.98979   1.99136   1.99732
 Alpha virt. eigenvalues --    2.00274   2.00542   2.00881   2.01064   2.01218
 Alpha virt. eigenvalues --    2.01377   2.01546   2.01953   2.02243   2.02799
 Alpha virt. eigenvalues --    2.02930   2.03525   2.03692   2.04445   2.04933
 Alpha virt. eigenvalues --    2.05248   2.05827   2.06318   2.06753   2.07001
 Alpha virt. eigenvalues --    2.07632   2.07769   2.08085   2.08612   2.09109
 Alpha virt. eigenvalues --    2.09535   2.09703   2.10293   2.10492   2.10886
 Alpha virt. eigenvalues --    2.11117   2.11416   2.11933   2.12245   2.12680
 Alpha virt. eigenvalues --    2.12914   2.13223   2.13297   2.13766   2.14065
 Alpha virt. eigenvalues --    2.14347   2.14822   2.14948   2.15438   2.15688
 Alpha virt. eigenvalues --    2.15958   2.16347   2.16411   2.16810   2.17316
 Alpha virt. eigenvalues --    2.17516   2.17888   2.18286   2.18760   2.19006
 Alpha virt. eigenvalues --    2.19476   2.19745   2.20023   2.20342   2.20856
 Alpha virt. eigenvalues --    2.20970   2.21497   2.21744   2.21982   2.22197
 Alpha virt. eigenvalues --    2.22476   2.22974   2.23256   2.23768   2.24061
 Alpha virt. eigenvalues --    2.24710   2.24785   2.25159   2.25515   2.25940
 Alpha virt. eigenvalues --    2.26393   2.26606   2.27182   2.27362   2.27711
 Alpha virt. eigenvalues --    2.27819   2.28494   2.28779   2.29183   2.29605
 Alpha virt. eigenvalues --    2.29624   2.30113   2.30456   2.30819   2.31114
 Alpha virt. eigenvalues --    2.31418   2.32192   2.32211   2.32503   2.33180
 Alpha virt. eigenvalues --    2.33496   2.33612   2.33919   2.34438   2.34563
 Alpha virt. eigenvalues --    2.34892   2.35081   2.35431   2.35778   2.36057
 Alpha virt. eigenvalues --    2.36663   2.37175   2.37508   2.37951   2.38815
 Alpha virt. eigenvalues --    2.38868   2.39364   2.39740   2.39869   2.40255
 Alpha virt. eigenvalues --    2.40368   2.40892   2.41092   2.41524   2.41681
 Alpha virt. eigenvalues --    2.41914   2.42479   2.42836   2.42978   2.43381
 Alpha virt. eigenvalues --    2.43992   2.44224   2.44448   2.44792   2.45090
 Alpha virt. eigenvalues --    2.45540   2.45885   2.46251   2.47182   2.47526
 Alpha virt. eigenvalues --    2.47829   2.48099   2.48181   2.49337   2.49911
 Alpha virt. eigenvalues --    2.50093   2.50192   2.50730   2.50863   2.51098
 Alpha virt. eigenvalues --    2.51534   2.51864   2.52532   2.52856   2.53007
 Alpha virt. eigenvalues --    2.53123   2.53373   2.54101   2.54135   2.54469
 Alpha virt. eigenvalues --    2.54702   2.55010   2.55394   2.55797   2.56196
 Alpha virt. eigenvalues --    2.56372   2.56828   2.57216   2.57425   2.57743
 Alpha virt. eigenvalues --    2.57948   2.58160   2.58297   2.58568   2.58931
 Alpha virt. eigenvalues --    2.59282   2.59500   2.59725   2.60030   2.60441
 Alpha virt. eigenvalues --    2.60663   2.60960   2.61464   2.61485   2.61911
 Alpha virt. eigenvalues --    2.62174   2.62572   2.63055   2.63496   2.63816
 Alpha virt. eigenvalues --    2.64026   2.64306   2.64445   2.64687   2.65294
 Alpha virt. eigenvalues --    2.65715   2.66114   2.66175   2.66525   2.66941
 Alpha virt. eigenvalues --    2.67119   2.67452   2.67591   2.67970   2.68373
 Alpha virt. eigenvalues --    2.68451   2.69034   2.69224   2.69515   2.69732
 Alpha virt. eigenvalues --    2.69916   2.70424   2.70767   2.70981   2.71532
 Alpha virt. eigenvalues --    2.71786   2.71921   2.72109   2.72392   2.72611
 Alpha virt. eigenvalues --    2.73031   2.73342   2.73790   2.73887   2.74368
 Alpha virt. eigenvalues --    2.74795   2.74833   2.75167   2.75488   2.75821
 Alpha virt. eigenvalues --    2.76024   2.76282   2.76564   2.77269   2.77554
 Alpha virt. eigenvalues --    2.77625   2.78026   2.78393   2.78969   2.79362
 Alpha virt. eigenvalues --    2.79402   2.79954   2.80089   2.80500   2.80797
 Alpha virt. eigenvalues --    2.81042   2.81373   2.81601   2.81740   2.82278
 Alpha virt. eigenvalues --    2.82518   2.82735   2.83137   2.83442   2.83718
 Alpha virt. eigenvalues --    2.84299   2.84695   2.85006   2.85419   2.85603
 Alpha virt. eigenvalues --    2.86128   2.86527   2.86867   2.86932   2.87120
 Alpha virt. eigenvalues --    2.87405   2.87995   2.88020   2.88046   2.88698
 Alpha virt. eigenvalues --    2.88922   2.89319   2.89757   2.90247   2.90369
 Alpha virt. eigenvalues --    2.90758   2.90840   2.91515   2.91724   2.91975
 Alpha virt. eigenvalues --    2.92529   2.92800   2.93100   2.93206   2.93656
 Alpha virt. eigenvalues --    2.93959   2.94189   2.94605   2.94794   2.95572
 Alpha virt. eigenvalues --    2.96365   2.96517   2.96623   2.97027   2.97342
 Alpha virt. eigenvalues --    2.97444   2.97748   2.98174   2.98597   2.98929
 Alpha virt. eigenvalues --    2.99026   2.99242   2.99592   2.99755   2.99948
 Alpha virt. eigenvalues --    3.00177   3.00629   3.01092   3.01328   3.01486
 Alpha virt. eigenvalues --    3.01887   3.02437   3.02871   3.02971   3.03255
 Alpha virt. eigenvalues --    3.03539   3.03943   3.04104   3.04232   3.04676
 Alpha virt. eigenvalues --    3.04810   3.05174   3.05586   3.05825   3.06171
 Alpha virt. eigenvalues --    3.06523   3.06678   3.07161   3.07343   3.07668
 Alpha virt. eigenvalues --    3.07960   3.08277   3.08546   3.08791   3.09123
 Alpha virt. eigenvalues --    3.09515   3.09612   3.09951   3.10417   3.10545
 Alpha virt. eigenvalues --    3.10781   3.10846   3.11173   3.11429   3.11812
 Alpha virt. eigenvalues --    3.12056   3.12370   3.12703   3.12834   3.13012
 Alpha virt. eigenvalues --    3.13269   3.13818   3.13890   3.14263   3.14671
 Alpha virt. eigenvalues --    3.14841   3.15161   3.15248   3.15322   3.15688
 Alpha virt. eigenvalues --    3.16278   3.16319   3.16774   3.17153   3.17205
 Alpha virt. eigenvalues --    3.17305   3.17780   3.18193   3.18280   3.18395
 Alpha virt. eigenvalues --    3.18595   3.18951   3.19082   3.19455   3.19718
 Alpha virt. eigenvalues --    3.20043   3.20506   3.20622   3.20844   3.21053
 Alpha virt. eigenvalues --    3.21288   3.21507   3.21950   3.22123   3.22509
 Alpha virt. eigenvalues --    3.23000   3.23140   3.23361   3.23581   3.23689
 Alpha virt. eigenvalues --    3.23855   3.24367   3.24633   3.24974   3.25032
 Alpha virt. eigenvalues --    3.25401   3.25782   3.25889   3.26036   3.26296
 Alpha virt. eigenvalues --    3.26452   3.26598   3.26899   3.27184   3.27372
 Alpha virt. eigenvalues --    3.27600   3.27972   3.28260   3.28412   3.28541
 Alpha virt. eigenvalues --    3.28786   3.28927   3.29395   3.29635   3.29954
 Alpha virt. eigenvalues --    3.30128   3.30545   3.30632   3.31132   3.31319
 Alpha virt. eigenvalues --    3.31566   3.31737   3.31895   3.32013   3.32757
 Alpha virt. eigenvalues --    3.33076   3.33263   3.33384   3.33804   3.34071
 Alpha virt. eigenvalues --    3.34278   3.34487   3.34866   3.35029   3.35273
 Alpha virt. eigenvalues --    3.35356   3.35656   3.35814   3.36115   3.36215
 Alpha virt. eigenvalues --    3.36408   3.36657   3.36895   3.37188   3.37444
 Alpha virt. eigenvalues --    3.37742   3.37902   3.38189   3.38259   3.38812
 Alpha virt. eigenvalues --    3.38960   3.39213   3.39418   3.39463   3.40215
 Alpha virt. eigenvalues --    3.40263   3.40715   3.40936   3.41017   3.41112
 Alpha virt. eigenvalues --    3.41538   3.41714   3.42203   3.42260   3.42713
 Alpha virt. eigenvalues --    3.43016   3.43183   3.43348   3.43431   3.43842
 Alpha virt. eigenvalues --    3.44339   3.44872   3.45131   3.45348   3.45570
 Alpha virt. eigenvalues --    3.45958   3.46052   3.46303   3.46547   3.47142
 Alpha virt. eigenvalues --    3.47312   3.47556   3.47748   3.47904   3.48608
 Alpha virt. eigenvalues --    3.48841   3.48922   3.49076   3.49427   3.49589
 Alpha virt. eigenvalues --    3.49960   3.50228   3.50925   3.51200   3.51681
 Alpha virt. eigenvalues --    3.51849   3.51940   3.52335   3.52666   3.52724
 Alpha virt. eigenvalues --    3.53067   3.53454   3.54290   3.54500   3.54698
 Alpha virt. eigenvalues --    3.55069   3.55320   3.55785   3.55956   3.56133
 Alpha virt. eigenvalues --    3.56341   3.56719   3.56964   3.57281   3.57881
 Alpha virt. eigenvalues --    3.58037   3.58278   3.58401   3.59003   3.59288
 Alpha virt. eigenvalues --    3.59656   3.59926   3.60182   3.60762   3.61255
 Alpha virt. eigenvalues --    3.61972   3.62068   3.62353   3.62580   3.62866
 Alpha virt. eigenvalues --    3.63482   3.63731   3.64088   3.64321   3.64875
 Alpha virt. eigenvalues --    3.65076   3.65160   3.65291   3.65687   3.66086
 Alpha virt. eigenvalues --    3.66223   3.66735   3.67022   3.67583   3.67982
 Alpha virt. eigenvalues --    3.68560   3.68864   3.69313   3.69374   3.69789
 Alpha virt. eigenvalues --    3.70158   3.70468   3.70996   3.71341   3.71536
 Alpha virt. eigenvalues --    3.71823   3.72326   3.72611   3.72953   3.73218
 Alpha virt. eigenvalues --    3.73418   3.74122   3.74335   3.74740   3.74806
 Alpha virt. eigenvalues --    3.75258   3.75741   3.76162   3.76417   3.76684
 Alpha virt. eigenvalues --    3.77316   3.77715   3.77931   3.78698   3.78762
 Alpha virt. eigenvalues --    3.79067   3.79696   3.80564   3.80834   3.81458
 Alpha virt. eigenvalues --    3.81877   3.82250   3.82872   3.83596   3.83852
 Alpha virt. eigenvalues --    3.84065   3.84246   3.85413   3.85827   3.86561
 Alpha virt. eigenvalues --    3.87091   3.87368   3.88059   3.88418   3.88853
 Alpha virt. eigenvalues --    3.89168   3.89667   3.89973   3.90201   3.90574
 Alpha virt. eigenvalues --    3.91090   3.91900   3.92143   3.92915   3.93275
 Alpha virt. eigenvalues --    3.93533   3.94108   3.94319   3.95170   3.95373
 Alpha virt. eigenvalues --    3.95761   3.96229   3.96614   3.97362   3.97468
 Alpha virt. eigenvalues --    3.98040   3.98538   3.99081   3.99621   4.00016
 Alpha virt. eigenvalues --    4.01143   4.01296   4.01466   4.02313   4.02607
 Alpha virt. eigenvalues --    4.02785   4.03537   4.04343   4.04892   4.05111
 Alpha virt. eigenvalues --    4.05394   4.05934   4.06473   4.07739   4.07895
 Alpha virt. eigenvalues --    4.08315   4.08733   4.09142   4.09976   4.10600
 Alpha virt. eigenvalues --    4.12016   4.12656   4.13013   4.13292   4.14046
 Alpha virt. eigenvalues --    4.14296   4.15117   4.15225   4.15700   4.16388
 Alpha virt. eigenvalues --    4.16968   4.17245   4.17776   4.18466   4.18773
 Alpha virt. eigenvalues --    4.19139   4.19536   4.19642   4.20298   4.20740
 Alpha virt. eigenvalues --    4.20964   4.21333   4.21700   4.22164   4.23108
 Alpha virt. eigenvalues --    4.23343   4.23702   4.23917   4.24464   4.25027
 Alpha virt. eigenvalues --    4.25107   4.25394   4.26577   4.27010   4.27250
 Alpha virt. eigenvalues --    4.28052   4.28607   4.28887   4.29236   4.29992
 Alpha virt. eigenvalues --    4.30075   4.30340   4.30900   4.31593   4.31712
 Alpha virt. eigenvalues --    4.32081   4.32471   4.32646   4.33695   4.34194
 Alpha virt. eigenvalues --    4.34679   4.35371   4.36044   4.36654   4.36730
 Alpha virt. eigenvalues --    4.37268   4.38313   4.38445   4.38869   4.39035
 Alpha virt. eigenvalues --    4.39934   4.40144   4.40215   4.40752   4.40943
 Alpha virt. eigenvalues --    4.41839   4.42426   4.42778   4.42956   4.43322
 Alpha virt. eigenvalues --    4.43658   4.44272   4.44825   4.45499   4.45900
 Alpha virt. eigenvalues --    4.46294   4.46952   4.47310   4.47801   4.48201
 Alpha virt. eigenvalues --    4.49413   4.49764   4.50211   4.52430   4.52981
 Alpha virt. eigenvalues --    4.53868   4.54115   4.54354   4.54840   4.55470
 Alpha virt. eigenvalues --    4.56071   4.56693   4.56878   4.57408   4.58463
 Alpha virt. eigenvalues --    4.59447   4.60152   4.60410   4.61089   4.61618
 Alpha virt. eigenvalues --    4.61854   4.62516   4.63060   4.63403   4.64877
 Alpha virt. eigenvalues --    4.65235   4.65978   4.66250   4.67081   4.67354
 Alpha virt. eigenvalues --    4.67910   4.68235   4.69013   4.69501   4.69825
 Alpha virt. eigenvalues --    4.70190   4.70594   4.71037   4.71403   4.71975
 Alpha virt. eigenvalues --    4.72597   4.73424   4.74574   4.74644   4.76222
 Alpha virt. eigenvalues --    4.76847   4.77528   4.78385   4.78664   4.79612
 Alpha virt. eigenvalues --    4.80000   4.80509   4.81116   4.81310   4.81903
 Alpha virt. eigenvalues --    4.82301   4.82741   4.83368   4.83809   4.85997
 Alpha virt. eigenvalues --    4.87206   4.87354   4.88192   4.88675   4.89338
 Alpha virt. eigenvalues --    4.89686   4.90271   4.90868   4.91233   4.91390
 Alpha virt. eigenvalues --    4.92376   4.93362   4.94083   4.94914   4.95684
 Alpha virt. eigenvalues --    4.96405   4.96740   4.96861   4.98270   4.99488
 Alpha virt. eigenvalues --    4.99801   5.00566   5.02177   5.03496   5.03912
 Alpha virt. eigenvalues --    5.04438   5.04641   5.05698   5.08655   5.10279
 Alpha virt. eigenvalues --    5.10922   5.11882   5.12417   5.13297   5.14276
 Alpha virt. eigenvalues --    5.16093   5.17705   5.18677   5.18856   5.19217
 Alpha virt. eigenvalues --    5.19618   5.20164   5.20313   5.20666   5.22041
 Alpha virt. eigenvalues --    5.22866   5.23211   5.23457   5.24508   5.25058
 Alpha virt. eigenvalues --    5.26025   5.27660   5.28475   5.29200   5.29707
 Alpha virt. eigenvalues --    5.30579   5.30907   5.31221   5.33396   5.34438
 Alpha virt. eigenvalues --    5.35377   5.35820   5.36542   5.37397   5.38463
 Alpha virt. eigenvalues --    5.39116   5.40077   5.41478   5.43073   5.43290
 Alpha virt. eigenvalues --    5.44048   5.44049   5.44971   5.45127   5.46226
 Alpha virt. eigenvalues --    5.46751   5.47060   5.50093   5.51491   5.54048
 Alpha virt. eigenvalues --    5.55440   5.56460   5.57531   5.58785   5.59252
 Alpha virt. eigenvalues --    5.60464   5.60599   5.62095   5.63730   5.63853
 Alpha virt. eigenvalues --    5.64376   5.64646   5.64901   5.65366   5.68669
 Alpha virt. eigenvalues --    5.72795   5.75376   5.77761   5.79333   5.79978
 Alpha virt. eigenvalues --    5.80934   5.83586   5.85443   5.85570   5.92226
 Alpha virt. eigenvalues --    5.93601   5.95088   5.95497   5.96097   5.96275
 Alpha virt. eigenvalues --    5.97128   5.98985   6.00713   6.01281   6.04872
 Alpha virt. eigenvalues --    6.07235   6.08958   6.09038   6.11037   6.11795
 Alpha virt. eigenvalues --    6.14859   6.15577   6.18488   6.19227   6.20347
 Alpha virt. eigenvalues --    6.22859   6.26846   6.28260   6.30161   6.31383
 Alpha virt. eigenvalues --    6.34571   6.37791   6.39457   6.43929   6.44511
 Alpha virt. eigenvalues --    6.47456   6.48368   6.49798   6.55382   6.66973
 Alpha virt. eigenvalues --    6.74618   6.76423   6.77785   6.86905   6.87659
 Alpha virt. eigenvalues --    6.92212   6.95177   6.99212   7.09549   7.12939
 Alpha virt. eigenvalues --    7.14930   7.19605   7.21421   7.25613   7.29336
 Alpha virt. eigenvalues --    9.26853   9.50405   9.58833  20.14765  22.37280
 Alpha virt. eigenvalues --   22.38213  22.44022  22.50080  22.51241  22.53594
 Alpha virt. eigenvalues --   22.53922  22.54467  22.55401  22.58839  22.64122
 Alpha virt. eigenvalues --   22.68270  22.70168  22.73917  22.75707  22.77572
 Alpha virt. eigenvalues --   22.80548  22.87085  22.90514  22.91342  22.92450
 Alpha virt. eigenvalues --   22.97223  23.00147  23.04825  23.11333  23.14328
 Alpha virt. eigenvalues --   23.17845  23.19490  23.22151  23.29656  23.32659
 Alpha virt. eigenvalues --   23.33758  23.40383  23.45090  23.48278  23.55284
 Alpha virt. eigenvalues --   23.64197  23.66396  23.69933  23.72487  23.82346
 Alpha virt. eigenvalues --   32.47903  32.77654  32.94851  33.01359  33.06915
 Alpha virt. eigenvalues --   33.14177  43.93821  43.95934  44.00859  44.13612
          Condensed to atoms (all electrons):
 Mulliken charges:
               1
     1  C   -0.359745
     2  C    0.133259
     3  N   -0.216137
     4  C   -0.162145
     5  C    0.024175
     6  N   -0.027266
     7  C   -0.372095
     8  C   -0.154029
     9  S    0.020369
    10  C   -0.355635
    11  C   -0.550493
    12  C   -0.544140
    13  C   -0.482728
    14  C   -0.513214
    15  C    0.310246
    16  C   -0.117207
    17  C   -0.083077
    18  C    0.179943
    19  C   -0.394531
    20  C   -0.213691
    21  C   -0.208739
    22  C    0.311685
    23  O   -0.333803
    24  O   -0.360527
    25  C    0.368051
    26  C   -0.030444
    27  C    0.019264
    28  C    0.145893
    29  C   -0.448837
    30  C   -0.179586
    31  C   -0.334090
    32  C    0.333106
    33  C   -0.113916
    34  C    0.036062
    35  C    0.214942
    36  C   -0.386961
    37  C   -0.170824
    38  C   -0.269924
    39  C    0.364612
    40  C   -0.103958
    41  C   -0.048022
    42  C    0.233774
    43  C   -0.418506
    44  C   -0.201974
    45  C   -0.352546
    46  C    0.323135
    47  O   -0.294105
    48  O   -0.375643
    49  N   -0.013239
    50  N   -0.030149
    51  N   -0.043042
    52  N    0.041539
    53  Fe  -0.336628
    54  H    0.148477
    55  H    0.138850
    56  H    0.158180
    57  H    0.082424
    58  H    0.137519
    59  H    0.142137
    60  H    0.131375
    61  H    0.118554
    62  H    0.146269
    63  H    0.175071
    64  H    0.229261
    65  H    0.147501
    66  H    0.148013
    67  H    0.116447
    68  H    0.343001
    69  H    0.182629
    70  H    0.135148
    71  H    0.122344
    72  H    0.125580
    73  H    0.121689
    74  H    0.143927
    75  H    0.137065
    76  H    0.083572
    77  H    0.126301
    78  H    0.154760
    79  H    0.126712
    80  H    0.076207
    81  H    0.159893
    82  H    0.116214
    83  H    0.151293
    84  H    0.094258
    85  H    0.135298
    86  H    0.123964
    87  H    0.142093
    88  H    0.120691
    89  H    0.126927
    90  H    0.123225
    91  H    0.126501
    92  H    0.093313
    93  H    0.356613
    94  H    0.107767
    95  H    0.111572
    96  H    0.124215
    97  H    0.127364
    98  H    0.132941
    99  H    0.168389
 Sum of Mulliken charges =  -0.00000
 Mulliken charges with hydrogens summed into heavy atoms:
               1
     1  C    0.052216
     2  C    0.133259
     3  N    0.013124
     4  C   -0.015876
     5  C    0.199246
     6  N   -0.027266
     7  C    0.019972
     8  C    0.065915
     9  S    0.020369
    10  C    0.089872
    11  C   -0.429802
    12  C   -0.449882
    13  C   -0.406521
    14  C   -0.429642
    15  C    0.310246
    16  C   -0.117207
    17  C   -0.083077
    18  C    0.179943
    19  C    0.006823
    20  C    0.036461
    21  C    0.011074
    22  C    0.311685
    23  O    0.022810
    24  O   -0.360527
    25  C    0.368051
    26  C   -0.030444
    27  C    0.019264
    28  C    0.145893
    29  C   -0.021438
    30  C   -0.052222
    31  C   -0.032761
    32  C    0.333106
    33  C   -0.113916
    34  C    0.036062
    35  C    0.214942
    36  C    0.020812
    37  C   -0.063056
    38  C   -0.034137
    39  C    0.364612
    40  C   -0.103958
    41  C   -0.048022
    42  C    0.233774
    43  C   -0.015825
    44  C    0.045950
    45  C   -0.034768
    46  C    0.323135
    47  O    0.048896
    48  O   -0.375643
    49  N   -0.013239
    50  N   -0.030149
    51  N   -0.043042
    52  N    0.041539
    53  Fe  -0.336628
 Electronic spatial extent (au):  <R**2>=          32798.9614
 Charge=             -0.0000 electrons
 Dipole moment (field-independent basis, Debye):
    X=             -5.8394    Y=             -3.9372    Z=              1.5114  Tot=              7.2030
 Quadrupole moment (field-independent basis, Debye-Ang):
   XX=           -378.3361   YY=           -303.3306   ZZ=           -286.1605
   XY=            -23.3833   XZ=            -17.8651   YZ=              0.1832
 Traceless Quadrupole moment (field-independent basis, Debye-Ang):
   XX=            -55.7270   YY=             19.2784   ZZ=             36.4486
   XY=            -23.3833   XZ=            -17.8651   YZ=              0.1832
 Octapole moment (field-independent basis, Debye-Ang**2):
  XXX=           -456.6019  YYY=            -85.7000  ZZZ=            127.1919  XYY=             -1.5922
  XXY=           -131.2291  XXZ=            -76.2299  XZZ=             -0.4997  YZZ=              8.0463
  YYZ=              8.6503  XYZ=            -71.9060
 Hexadecapole moment (field-independent basis, Debye-Ang**3):
 XXXX=         -26759.4968 YYYY=         -14653.8560 ZZZZ=          -5576.6245 XXXY=          -1618.4960
 XXXZ=           -359.1214 YYYX=           -193.4597 YYYZ=             -2.6630 ZZZX=           -578.6660
 ZZZY=            181.1852 XXYY=          -6663.1552 XXZZ=          -4591.6191 YYZZ=          -3567.5655
 XXYZ=           -391.0094 YYXZ=            -91.9982 ZZXY=             25.8628
 N-N= 8.895775079428D+03 E-N=-2.691472420701D+04  KE= 3.865941534807D+03
  Exact polarizability: 854.413   8.627 821.158  74.439 -11.149 441.367
 Approx polarizability:1517.262  23.8711541.048 202.261 -22.502 696.299

 ----------------------------------------------------------------------

 Electric dipole moment (input orientation):
 (Debye = 10**-18 statcoulomb cm , SI units = C m)
                  (au)            (Debye)         (10**-30 SI)
   Tot        0.283390D+01      0.720305D+01      0.240268D+02
   x          0.187539D+01      0.476676D+01      0.159002D+02
   y         -0.161881D+01     -0.411460D+01     -0.137248D+02
   z         -0.137599D+01     -0.349742D+01     -0.116661D+02

 Dipole polarizability, Alpha (input orientation).
 (esu units = cm**3 , SI units = C**2 m**2 J**-1)
 Alpha(0;0):
               (au)            (10**-24 esu)      (10**-40 SI)
   iso        0.705646D+03      0.104566D+03      0.116345D+03
   aniso      0.418565D+03      0.620249D+02      0.690121D+02
   xx         0.811718D+03      0.120284D+03      0.133834D+03
   yx        -0.345389D+02     -0.511814D+01     -0.569470D+01
   yy         0.801831D+03      0.118819D+03      0.132204D+03
   zx        -0.143306D+03     -0.212357D+02     -0.236279D+02
   zy        -0.772278D+02     -0.114440D+02     -0.127331D+02
   zz         0.503389D+03      0.745945D+02      0.829976D+02

 First dipole hyperpolarizability, Beta (input orientation).
 ||, _|_  parallel and perpendicular components, (z) with respect to z axis,
 vector components x,y,z.  Values do not include the 1/n! factor of 1/2.
 (esu units = statvolt**-1 cm**4 , SI units = C**3 m**3 J**-2)
 Beta(0;0,0):
               (au)            (10**-30 esu)      (10**-50 SI)
   || (z)    -0.655422D+03     -0.566233D+01     -0.210152D+01
   _|_(z)    -0.218474D+03     -0.188744D+01     -0.700506D+00
   x          0.818921D+04      0.707484D+02      0.262576D+02
   y          0.764200D+02      0.660210D+00      0.245030D+00
   z         -0.327711D+04     -0.283117D+02     -0.105076D+02
   ||         0.176418D+04      0.152412D+02      0.565661D+01
   xxx        0.167116D+04      0.144375D+02      0.535834D+01
   xxy       -0.982990D+03     -0.849227D+01     -0.315182D+01
   yxy        0.997383D+03      0.861661D+01      0.319797D+01
   yyy        0.100443D+04      0.867748D+01      0.322056D+01
   xxz       -0.349299D+03     -0.301767D+01     -0.111998D+01
   yxz        0.138163D+03      0.119362D+01      0.443002D+00
   yyz       -0.601956D+03     -0.520043D+01     -0.193009D+01
   zxz        0.611949D+02      0.528677D+00      0.196213D+00
   zyz        0.403435D+01      0.348537D-01      0.129356D-01
   zzz       -0.141114D+03     -0.121912D+01     -0.452463D+00

 ----------------------------------------------------------------------

 Dipole orientation:
     6        -35.13359863         11.73918149         35.03138989
     6        -32.70394073         11.03435326         33.76180795
     7        -32.27137615          8.67048966         32.75740250
     6        -30.59693309         12.40482548         33.29138861
     6        -30.00492540          8.61411371         31.71690642
     7        -28.94665264         10.85599060         32.01378812
     6        -18.55641261         17.17323726         27.68265892
     6        -21.25868750         16.09725997         27.58715670
    16        -21.26128406         12.90555211         28.82983624
     6        -18.92253005         13.23248093         31.25780058
     6        -28.18258260         15.65563849         26.09186958
     6        -25.21151722         16.87321771         34.71060702
     6        -22.34972251          8.18414337         34.99328356
     6        -25.27976895          6.89849584         26.39318372
     6        -27.62887482         16.74448287         28.49337367
     6        -28.20228312         19.36719527         29.12774286
     6        -27.34561045         19.71774033         31.56786193
     6        -26.27823858         17.32870542         32.37592698
     6        -27.50760289         22.18808863         33.11301985
     6        -29.70869200         21.21732976         27.46092583
     6        -28.15739781         23.50777174         26.67713797
     6        -25.88244793         22.83932713         25.08382844
     8        -23.79731544         23.52626165         25.86162980
     8        -26.19829574         21.61551332         23.08513480
     6        -24.17253368         14.62492138         35.52879635
     6        -23.07298859         14.28180955         37.98593241
     6        -22.22902144         11.80577245         38.18477366
     6        -22.86692421         10.67031363         35.68373176
     6        -22.90749394         16.41555335         39.99786966
     6        -21.02192223         10.71650074         40.36602462
     6        -20.14848386         12.28147718         42.31570326
     6        -22.91284949          7.09801039         32.65997065
     6        -22.26534605          4.46800271         32.07519441
     6        -23.10498187          4.07143572         29.59636827
     6        -24.21991990          6.47556817         28.77626284
     6        -20.92092419          2.63300097         33.92044785
     6        -22.96919157          1.85629850         28.03163350
     6        -21.63215504         -0.27279835         28.86384290
     6        -26.32290969          9.16474760         25.53207305
     6        -27.37383052          9.55858411         23.01407104
     6        -28.16903297         12.01526314         22.93286605
     6        -27.63076375         13.11021428         25.42170354
     6        -27.52791219          7.62591628         20.84170129
     6        -29.39078702         13.38688644         20.69019150
     6        -27.27133415         14.98768136         19.52692907
     6        -27.70279162         15.83411080         16.80554516
     8        -25.89819870         16.92344777         15.70118125
     8        -29.80885530         15.41426307         15.79580506
     7        -26.47241625         15.52829468         30.49131894
     7        -24.06969349         12.38179992         34.07693582
     7        -24.10403092          8.33155128         30.68571058
     7        -26.49055540         11.35724562         26.98783701
    26        -25.39679741         11.93986564         30.50671991
     1        -17.51096729         11.80262034         31.03086147
     1        -18.06149791         15.05702258         31.12295419
     1        -19.79890453         13.03297418         33.06906449
     1        -22.48514853         17.25556329         28.70189382
     1        -21.90824821         16.07559014         25.67244695
     1        -17.30004068         15.77478503         28.42722121
     1        -17.96767233         17.68322222         25.81669742
     1        -18.52397024         18.80929914         28.87041358
     1        -30.27528232         14.33120904         33.81493354
     1        -29.16742772          7.02370176         30.79078570
     1        -33.48552760          7.22333697         32.80888244
     1        -34.73924393         12.52720281         36.85128519
     1        -36.11224005         13.10297246         33.90407126
     1        -36.28495786         10.09086900         35.24574942
     1        -24.22877540         16.85593412         16.40797760
     1        -27.02640173         16.63754437         20.66993924
     1        -25.56051111         13.91173849         19.58972714
     1        -30.89570697         14.57557835         21.33108123
     1        -30.07923365         12.04799037         19.34040980
     1        -26.99180135          5.79987507         21.52483433
     1        -29.42199578          7.55279343         20.13770377
     1        -26.27693936          8.18296556         19.35399326
     1        -25.29290285          5.33804232         25.10736708
     1        -20.06121642          3.68964352         35.41474406
     1        -22.27393040          1.34637213         34.69663891
     1        -19.49955063          1.59625727         32.92376743
     1        -21.44475084          7.00961475         36.36806388
     1        -21.01954801         16.52167951         40.71404666
     1        -23.40691647         18.18184357         39.14974932
     1        -24.18209527         16.01194912         41.51477677
     1        -25.18712311         18.41623970         36.01712919
     1        -25.70109527         22.59474853         33.92522060
     1        -28.05802444         23.70797918         31.89832608
     1        -28.87592956         21.97318216         34.58611505
     1        -29.07027292         16.82788789         24.70393971
     1        -31.33193208         21.84846405         28.48819078
     1        -30.32422517         20.24540591         25.79809840
     1        -29.34152078         24.76178445         25.62176266
     1        -27.52349214         24.46180148         28.34342215
     1        -22.96195616         22.58587150         27.16889205
     1        -23.88893502          1.83245220         26.23107374
     1        -20.79742111         -0.28628878         30.70545887
     1        -21.44602957         -1.88491960         27.65763621
     1        -20.79165780          8.71202561         40.49857584
     1        -18.32092817         11.96778670         43.12202242
     1        -21.30915144         13.79005969         42.99800944

 Electric dipole moment (dipole orientation):
 (Debye = 10**-18 statcoulomb cm , SI units = C m)
                  (au)            (Debye)         (10**-30 SI)
   Tot        0.283390D+01      0.720305D+01      0.240268D+02
   x          0.000000D+00      0.000000D+00      0.000000D+00
   y          0.000000D+00      0.000000D+00      0.000000D+00
   z          0.283390D+01      0.720305D+01      0.240268D+02

 Dipole polarizability, Alpha (dipole orientation).
 (esu units = cm**3 , SI units = C**2 m**2 J**-1)
 Alpha(0;0):
               (au)            (10**-24 esu)      (10**-40 SI)
   iso        0.705646D+03      0.104566D+03      0.116345D+03
   aniso      0.418565D+03      0.620249D+02      0.690121D+02
   xx         0.503886D+03      0.746682D+02      0.830796D+02
   yx        -0.982889D+02     -0.145649D+02     -0.162057D+02
   yy         0.801883D+03      0.118827D+03      0.132213D+03
   zx         0.133652D+03      0.198052D+02      0.220362D+02
   zy         0.179856D+02      0.266519D+01      0.296543D+01
   zz         0.811169D+03      0.120203D+03      0.133744D+03

 First dipole hyperpolarizability, Beta (dipole orientation).
 ||, _|_  parallel and perpendicular components, (z) with respect to z axis,
 vector components x,y,z.  Values do not include the 1/n! factor of 1/2.
 (esu units = statvolt**-1 cm**4 , SI units = C**3 m**3 J**-2)
 Beta(0;0,0):
               (au)            (10**-30 esu)      (10**-50 SI)
   || (z)     0.139338D+04      0.120377D+02      0.446769D+01
   _|_(z)     0.464461D+03      0.401258D+01      0.148923D+01
   x          0.362578D+04      0.313239D+02      0.116256D+02
   y         -0.401551D+04     -0.346909D+02     -0.128752D+02
   z          0.696692D+04      0.601887D+02      0.223385D+02
   ||         0.176418D+04      0.152412D+02      0.565661D+01
   xxx        0.594176D+02      0.513322D+00      0.190514D+00
   xxy       -0.613291D+02     -0.529835D+00     -0.196643D+00
   yxy        0.329199D+03      0.284402D+01      0.105553D+01
   yyy       -0.143699D+04     -0.124145D+02     -0.460750D+01
   xxz        0.351588D+03      0.303744D+01      0.112732D+01
   yxz        0.186845D+03      0.161420D+01      0.599093D+00
   yyz       -0.414502D+03     -0.358097D+01     -0.132904D+01
   zxz        0.819977D+03      0.708397D+01      0.262914D+01
   zyz        0.159815D+03      0.138068D+01      0.512425D+00
   zzz        0.238522D+04      0.206064D+02      0.764788D+01

 ----------------------------------------------------------------------
 1\1\GINC-NODE350\SP\RPBE1PBE\def2TZVP\C41H46Fe1N6O4S1\ZHARTOVSKA\27-Au
 g-2022\0\\# polar def2tzvp empiricaldispersion=gd3bj int=grid=ultrafin
 e pbe1pbe\\1vb6_II_S\\0,1\C,0,-2.424,-20.167999,-17.756001\C,0,-1.867,
 -19.166,-16.792\N,0,-1.739,-17.827999,-17.097\C,0,-1.43,-19.306,-15.51
 9\C,0,-1.25,-17.184999,-16.052999\N,0,-1.053,-18.058001,-15.081\C,0,0.
 45697758,-17.95830189,-8.41996971\C,0,-0.44,-17.849001,-9.667\S,0,0.42
 4,-16.907,-10.952\C,0,2.103,-17.461,-10.658\C,0,-3.488,-18.146999,-11.
 841\C,0,0.475,-20.855,-12.647\C,0,2.812,-16.966999,-14.344\C,0,-1.12,-
 14.231,-13.549\C,0,-2.587,-19.247999,-11.935\C,0,-2.932,-20.6,-11.506\
 C,0,-1.805,-21.367001,-11.727\C,0,-0.802,-20.481001,-12.283\C,0,-1.657
 ,-22.875999,-11.434\C,0,-4.327,-21.063,-11.046\C,0,-4.331,-21.563,-9.6
 09\C,0,-3.95,-20.499001,-8.605\O,0,-2.992,-20.737,-7.867\O,0,-4.603,-1
 9.431999,-8.572\C,0,1.452,-20.034,-13.173\C,0,2.769,-20.487,-13.523\C,
 0,3.487,-19.410999,-14.027\C,0,2.526,-18.271999,-13.951\C,0,3.248,-21.
 954,-13.337\C,0,4.848,-19.458,-14.494\C,0,5.64597395,-20.57598179,-14.
 21601394\C,0,1.931,-15.889,-14.27\C,0,2.322,-14.539,-14.688\C,0,1.194,
 -13.739,-14.465\C,0,0.167,-14.634,-13.918\C,0,3.717,-14.158,-15.246\C,
 0,0.995,-12.333,-14.685\C,0,2.07208459,-11.52532515,-15.07419413\C,0,-
 2.116,-15.047,-13.008\C,0,-3.443,-14.59,-12.61\C,0,-4.099,-15.687,-12.
 125\C,0,-3.174,-16.819,-12.245\C,0,-4.001,-13.156,-12.69\C,0,-5.525,-1
 5.74,-11.562\C,0,-5.357,-15.764,-10.037\C,0,-6.585,-15.349,-9.233\O,0,
 -6.445,-15.222,-7.988\O,0,-7.668,-15.154,-9.838\N,0,-1.292,-19.194,-12
 .411\N,0,1.284,-18.655001,-13.442\N,0,0.629,-15.962,-13.807\N,0,-1.964
 ,-16.415001,-12.778\Fe,0,-0.402,-17.572001,-13.123\H,0,2.74283065,-16.
 61187198,-10.53759093\H,0,2.13140383,-18.05772314,-9.77029807\H,0,2.43
 711724,-18.04413915,-11.49059498\H,0,-0.66328638,-18.82943156,-10.0327
 856\H,0,-1.35000161,-17.3487389,-9.40905641\H,0,1.37487921,-17.4367089
 6,-8.5940312\H,0,-0.04544094,-17.52557051,-7.58019642\H,0,0.66471914,-
 18.98856903,-8.2192384\H,0,-1.38602936,-20.21643011,-14.95856838\H,0,-
 1.04762584,-16.13552516,-16.00250783\H,0,-1.9791923,-17.40946593,-17.9
 7286399\H,0,-1.74563411,-20.99042479,-17.84730015\H,0,-3.36763089,-20.
 52217969,-17.39681194\H,0,-2.5566325,-19.70717867,-18.71253289\H,0,-5.
 5654052,-15.1829708,-7.60539093\H,0,-5.08749005,-16.75782718,-9.746187
 49\H,0,-4.55168658,-15.10830396,-9.77925399\H,0,-6.02223092,-16.627240
 52,-11.89436377\H,0,-6.07430299,-14.87180373,-11.86100076\H,0,-3.31581
 583,-12.53625783,-13.22976133\H,0,-4.94451449,-13.1680529,-13.19451475
 \H,0,-4.13016516,-12.76786754,-11.70127883\H,0,-1.36505811,-13.1997123
 ,-13.69491847\H,0,4.41882934,-14.93026432,-15.00947645\H,0,3.65716398,
 -14.04351916,-16.30817409\H,0,4.03799666,-13.23720635,-14.80554546\H,0
 ,3.78931294,-16.77569619,-14.73536001\H,0,4.18904507,-21.96008368,-12.
 82778771\H,0,2.52677545,-22.49425537,-12.76006042\H,0,3.35791026,-22.4
 1750451,-14.29511445\H,0,0.7338584,-21.88383212,-12.5077276\H,0,-0.753
 18818,-23.04617832,-10.8871333\H,0,-2.4924481,-23.21056443,-10.8552146
 8\H,0,-1.62281814,-23.4168021,-12.35663948\H,0,-4.46316194,-18.3310586
 7,-11.44089848\H,0,-4.65799906,-21.85272864,-11.68761382\H,0,-5.008136
 05,-20.24189546,-11.1281037\H,0,-5.31133489,-21.92126563,-9.37343845\H
 ,0,-3.63938766,-22.37528621,-9.52675961\H,0,-2.09583782,-20.6313472,-8
 .19461385\H,0,0.02444052,-11.90272702,-14.55166038\H,0,3.03032594,-11.
 96403803,-15.25913878\H,0,1.93622159,-10.46993439,-15.18640644\H,0,5.2
 5026707,-18.63932871,-15.05333757\H,0,6.65258193,-20.44408593,-13.8780
 1416\H,0,5.24863739,-21.56148158,-14.341767\\Version=ES64L-G16RevA.03\
 State=1-A\HF=-3879.3949703\RMSD=3.194e-09\Dipole=1.8753895,-1.6188084,
 -1.37599\Polar=811.7177273,-34.5389161,801.8306696,-143.3057081,-77.22
 77597,503.3889509\HyperPolar=1671.1605052,-982.9899286,997.3826883,100
 4.4289212,-349.2992019,138.1634393,-601.9560539,61.1949468,4.0343538,-
 141.1142832\Quadrupole=-38.3049738,15.4613841,22.8435897,12.1983331,22
 .9281316,-4.2745614\PG=C01 [X(C41H46Fe1N6O4S1)]\\@


 POCKETA-POCKETA
 BARON VON RICHTOFEN
 SLAUGHTERED THE ALLIES WITH
 HARDLY A CARE.
 KILLED EIGHTY-ONE WITH HIS
 BLOOD-COLORED TRIPLANE, THEN
 UN-AEROBATICALLY
 PLUNGED FROM THE AIR.
   -- TONY HOFFMAN
 Job cpu time:       7 days 22 hours 10 minutes 49.4 seconds.
 Elapsed time:       1 days 23 hours 46 minutes 45.9 seconds.
 File lengths (MBytes):  RWF=   1931 Int=      0 D2E=      0 Chk=    252 Scr=      1
 Normal termination of Gaussian 16 at Sat Aug 27 13:46:26 2022.
