 Entering Gaussian System, Link 0=g16
 Input=/net/homes/chemie/zhartovska/work/BioModel/Konrad/1vb6/1vb605/1vb605.com
 Output=/net/homes/chemie/zhartovska/work/BioModel/Konrad/1vb6/1vb605/1vb605.log
 Initial command:
 /afs/math/software/gaussian/g16.A03/g16/l1.exe "/scratch/zhartovska_gaussian.P1qlzRV/Gau-11269.inp" -scrdir="/scratch/zhartovska_gaussian.P1qlzRV/"
 Entering Link 1 = /afs/math/software/gaussian/g16.A03/g16/l1.exe PID=     11270.
  
 Copyright (c) 1988,1990,1992,1993,1995,1998,2003,2009,2016,
            Gaussian, Inc.  All Rights Reserved.
  
 This is part of the Gaussian(R) 16 program.  It is based on
 the Gaussian(R) 09 system (copyright 2009, Gaussian, Inc.),
 the Gaussian(R) 03 system (copyright 2003, Gaussian, Inc.),
 the Gaussian(R) 98 system (copyright 1998, Gaussian, Inc.),
 the Gaussian(R) 94 system (copyright 1995, Gaussian, Inc.),
 the Gaussian 92(TM) system (copyright 1992, Gaussian, Inc.),
 the Gaussian 90(TM) system (copyright 1990, Gaussian, Inc.),
 the Gaussian 88(TM) system (copyright 1988, Gaussian, Inc.),
 the Gaussian 86(TM) system (copyright 1986, Carnegie Mellon
 University), and the Gaussian 82(TM) system (copyright 1983,
 Carnegie Mellon University). Gaussian is a federally registered
 trademark of Gaussian, Inc.
  
 This software contains proprietary and confidential information,
 including trade secrets, belonging to Gaussian, Inc.
  
 This software is provided under written license and may be
 used, copied, transmitted, or stored only in accord with that
 written license.
  
 The following legend is applicable only to US Government
 contracts under FAR:
  
                    RESTRICTED RIGHTS LEGEND
  
 Use, reproduction and disclosure by the US Government is
 subject to restrictions as set forth in subparagraphs (a)
 and (c) of the Commercial Computer Software - Restricted
 Rights clause in FAR 52.227-19.
  
 Gaussian, Inc.
 340 Quinnipiac St., Bldg. 40, Wallingford CT 06492
  
  
 ---------------------------------------------------------------
 Warning -- This program may not be used in any manner that
 competes with the business of Gaussian, Inc. or will provide
 assistance to any competitor of Gaussian, Inc.  The licensee
 of this program is prohibited from giving any competitor of
 Gaussian, Inc. access to this program.  By using this program,
 the user acknowledges that Gaussian, Inc. is engaged in the
 business of creating and licensing software in the field of
 computational chemistry and represents and warrants to the
 licensee that it is not a competitor of Gaussian, Inc. and that
 it will not use this program in any manner prohibited above.
 ---------------------------------------------------------------
  

 Cite this work as:
 Gaussian 16, Revision A.03,
 M. J. Frisch, G. W. Trucks, H. B. Schlegel, G. E. Scuseria, 
 M. A. Robb, J. R. Cheeseman, G. Scalmani, V. Barone, 
 G. A. Petersson, H. Nakatsuji, X. Li, M. Caricato, A. V. Marenich, 
 J. Bloino, B. G. Janesko, R. Gomperts, B. Mennucci, H. P. Hratchian, 
 J. V. Ortiz, A. F. Izmaylov, J. L. Sonnenberg, D. Williams-Young, 
 F. Ding, F. Lipparini, F. Egidi, J. Goings, B. Peng, A. Petrone, 
 T. Henderson, D. Ranasinghe, V. G. Zakrzewski, J. Gao, N. Rega, 
 G. Zheng, W. Liang, M. Hada, M. Ehara, K. Toyota, R. Fukuda, 
 J. Hasegawa, M. Ishida, T. Nakajima, Y. Honda, O. Kitao, H. Nakai, 
 T. Vreven, K. Throssell, J. A. Montgomery, Jr., J. E. Peralta, 
 F. Ogliaro, M. J. Bearpark, J. J. Heyd, E. N. Brothers, K. N. Kudin, 
 V. N. Staroverov, T. A. Keith, R. Kobayashi, J. Normand, 
 K. Raghavachari, A. P. Rendell, J. C. Burant, S. S. Iyengar, 
 J. Tomasi, M. Cossi, J. M. Millam, M. Klene, C. Adamo, R. Cammi, 
 J. W. Ochterski, R. L. Martin, K. Morokuma, O. Farkas, 
 J. B. Foresman, and D. J. Fox, Gaussian, Inc., Wallingford CT, 2016.
 
 ******************************************
 Gaussian 16:  ES64L-G16RevA.03 25-Dec-2016
                31-Aug-2022 
 ******************************************
 %nprocs=12
 Will use up to   12 processors via shared memory.
 %mem=16GB
 %oldchk=1vb6_II_S.chk
 %chk=1vb6_II_Q.chk
 Copying data from "1vb6_II_S.chk" to current chk file "1vb6_II_Q.chk"
 IOpt=  2 FromEx=T IUOpen= 4 IOptOp= 5 NList=   0 IFRang= 0 IUIn= 4 IUOut= 2.
 ----------------------------------------------------------------------
 # PBE1PBE/def2TZVP empiricaldispersion=GD3BJ scf=maxcycle=999 geom=che
 ck pop=nbo
 ----------------------------------------------------------------------
 1/29=2,38=1,172=1/1;
 2/12=2,40=1/2;
 3/5=44,7=101,11=2,14=-4,25=1,30=1,74=-13,124=41/1,2,3;
 4//1;
 5/5=2,7=999,38=5/2;
 6/7=2,8=2,9=2,10=2,28=1,40=1/1,7;
 99/5=1,9=1/99;
 ---------
 1vb6_II_Q
 ---------
 Structure from the checkpoint file:  "1vb6_II_Q.chk"
 Charge =  0 Multiplicity = 5
 Z-Matrix found in chk file.
 C,0,-2.424,-20.167999,-17.756001
 C,0,-1.867,-19.166,-16.792
 N,0,-1.739,-17.827999,-17.097
 C,0,-1.43,-19.306,-15.519
 C,0,-1.25,-17.184999,-16.052999
 N,0,-1.053,-18.058001,-15.081
 C,0,0.45697758,-17.95830189,-8.41996971
 C,0,-0.44,-17.849001,-9.667
 S,0,0.424,-16.907,-10.952
 C,0,2.103,-17.461,-10.658
 C,0,-3.488,-18.146999,-11.841
 C,0,0.475,-20.855,-12.647
 C,0,2.812,-16.966999,-14.344
 C,0,-1.12,-14.231,-13.549
 C,0,-2.587,-19.247999,-11.935
 C,0,-2.932,-20.6,-11.506
 C,0,-1.805,-21.367001,-11.727
 C,0,-0.802,-20.481001,-12.283
 C,0,-1.657,-22.875999,-11.434
 C,0,-4.327,-21.063,-11.046
 C,0,-4.331,-21.563,-9.609
 C,0,-3.95,-20.499001,-8.605
 O,0,-2.992,-20.737,-7.867
 O,0,-4.603,-19.431999,-8.572
 C,0,1.452,-20.034,-13.173
 C,0,2.769,-20.487,-13.523
 C,0,3.487,-19.410999,-14.027
 C,0,2.526,-18.271999,-13.951
 C,0,3.248,-21.954,-13.337
 C,0,4.848,-19.458,-14.494
 C,0,5.43718768,-20.66545086,-14.0954498
 C,0,1.931,-15.889,-14.27
 C,0,2.322,-14.539,-14.688
 C,0,1.194,-13.739,-14.465
 C,0,0.167,-14.634,-13.918
 C,0,3.717,-14.158,-15.246
 C,0,0.995,-12.333,-14.685
 C,0,2.20853082,-11.74303756,-15.06342995
 C,0,-2.116,-15.047,-13.008
 C,0,-3.443,-14.59,-12.61
 C,0,-4.099,-15.687,-12.125
 C,0,-3.174,-16.819,-12.245
 C,0,-4.001,-13.156,-12.69
 C,0,-5.525,-15.74,-11.562
 C,0,-5.357,-15.764,-10.037
 C,0,-6.585,-15.349,-9.233
 O,0,-6.445,-15.222,-7.988
 O,0,-7.668,-15.154,-9.838
 N,0,-1.292,-19.194,-12.411
 N,0,1.284,-18.655001,-13.442
 N,0,0.629,-15.962,-13.807
 N,0,-1.964,-16.415001,-12.778
 Fe,0,-0.402,-17.572001,-13.123
 H,0,2.74283065,-16.61187198,-10.53759093
 H,0,2.13140383,-18.05772314,-9.77029807
 H,0,2.43711724,-18.04413915,-11.49059498
 H,0,-0.66328638,-18.82943156,-10.0327856
 H,0,-1.35000161,-17.3487389,-9.40905641
 H,0,1.37487921,-17.43670896,-8.5940312
 H,0,-0.04544094,-17.52557051,-7.58019642
 H,0,0.66471914,-18.98856903,-8.2192384
 H,0,-1.38602936,-20.21643011,-14.95856838
 H,0,-1.04762584,-16.13552516,-16.00250783
 H,0,-1.9791923,-17.40946593,-17.97286399
 H,0,-1.74563411,-20.99042479,-17.84730015
 H,0,-3.36763089,-20.52217969,-17.39681194
 H,0,-2.5566325,-19.70717867,-18.71253289
 H,0,-5.5654052,-15.1829708,-7.60539093
 H,0,-5.08749005,-16.75782718,-9.74618749
 H,0,-4.55168658,-15.10830396,-9.77925399
 H,0,-6.02223092,-16.62724052,-11.89436377
 H,0,-6.07430299,-14.87180373,-11.86100076
 H,0,-3.31581583,-12.53625783,-13.22976133
 H,0,-4.94451449,-13.1680529,-13.19451475
 H,0,-4.13016516,-12.76786754,-11.70127883
 H,0,-1.36505811,-13.1997123,-13.69491847
 H,0,0.27251664,-12.19225514,-15.46160072
 H,0,0.64274415,-11.87724362,-13.78327835
 H,0,2.21319203,-10.71502949,-14.76665111
 H,0,3.01808761,-12.2554696,-14.58705698
 H,0,2.32087053,-11.80816418,-16.12552143
 H,0,4.41882934,-14.93026432,-15.00947645
 H,0,3.65716398,-14.04351916,-16.30817409
 H,0,4.03799666,-13.23720635,-14.80554546
 H,0,3.78931294,-16.77569619,-14.73536001
 H,0,4.86124881,-19.39001851,-15.56175605
 H,0,5.39643122,-18.63899858,-14.07763492
 H,0,5.02792258,-21.46914906,-14.67118522
 H,0,6.49429086,-20.61573254,-14.25344012
 H,0,5.23920745,-20.8333865,-13.05742212
 H,0,4.18904507,-21.96008368,-12.82778771
 H,0,2.52677545,-22.49425537,-12.76006042
 H,0,3.35791026,-22.41750451,-14.29511445
 H,0,0.7338584,-21.88383212,-12.5077276
 H,0,-0.75318818,-23.04617832,-10.8871333
 H,0,-2.4924481,-23.21056443,-10.85521468
 H,0,-1.62281814,-23.4168021,-12.35663948
 H,0,-4.46316194,-18.33105867,-11.44089848
 H,0,-4.65799906,-21.85272864,-11.68761382
 H,0,-5.00813605,-20.24189546,-11.1281037
 H,0,-5.31133489,-21.92126563,-9.37343845
 H,0,-3.63938766,-22.37528621,-9.52675961
 H,0,-2.09583782,-20.6313472,-8.19461385
 Recover connectivity data from disk.
 Stoichiometry    C41H50FeN6O4S(5)
 Framework group  C1[X(C41H50FeN6O4S)]
 Deg. of freedom   303
 Full point group                 C1      NOp   1
 Largest Abelian subgroup         C1      NOp   1
 Largest concise Abelian subgroup C1      NOp   1
                         Standard orientation:                         
 ---------------------------------------------------------------------
 Center     Atomic      Atomic             Coordinates (Angstroms)
 Number     Number       Type             X           Y           Z
 ---------------------------------------------------------------------
      1          6           0       -1.396554   -1.101004    5.656971
      2          6           0       -1.380639   -0.417092    4.324470
      3          7           0       -1.673206    0.920733    4.168633
      4          6           0       -1.080271   -0.883599    3.090271
      5          6           0       -1.551138    1.251094    2.896442
      6          7           0       -1.192228    0.174835    2.219261
      7          6           0        1.025374   -1.346049   -4.059946
      8          6           0        1.130337   -0.846071   -2.607155
      9         16           0       -0.296608    0.204129   -2.225059
     10          6           0       -1.560050   -0.643039   -3.172906
     11          6           0        2.583962   -0.225353    0.799760
     12          6           0       -1.162670   -3.264912    0.157802
     13          6           0       -4.110180    0.499087   -0.618361
     14          6           0       -0.396182    3.563383    0.009850
     15          6           0        1.787548   -1.404121    0.704534
     16          6           0        2.330100   -2.749044    0.871241
     17          6           0        1.268896   -3.612154    0.681118
     18          6           0        0.108143   -2.789160    0.406390
     19          6           0        1.323437   -5.153880    0.751353
     20          6           0        3.766326   -3.084715    1.314609
     21          6           0        4.534221   -3.867694    0.259969
     22          6           0        4.719753   -3.105984   -1.032566
     23          8           0        4.297420   -3.633057   -2.063527
     24          8           0        5.273792   -1.984294   -1.003501
     25          6           0       -2.284402   -2.507133   -0.111889
     26          6           0       -3.580489   -3.068127   -0.371972
     27          6           0       -4.474856   -2.029883   -0.594401
     28          6           0       -3.637550   -0.801682   -0.463788
     29          6           0       -3.864418   -4.596242   -0.391326
     30          6           0       -5.876966   -2.180590   -0.884216
     31          6           0       -6.147325   -3.518703   -1.200891
     32          6           0       -3.340891    1.656824   -0.510849
     33          6           0       -3.916739    2.990657   -0.709328
     34          6           0       -2.854207    3.885391   -0.528800
     35          6           0       -1.677623    3.059157   -0.232234
     36          6           0       -5.403078    3.267557   -1.050898
     37          6           0       -2.825192    5.319916   -0.607101
     38          6           0       -4.066418    5.788298   -1.058653
     39          6           0        0.749509    2.810135    0.275483
     40          6           0        2.079275    3.366454    0.500015
     41          6           0        2.911293    2.302642    0.712197
     42          6           0        2.081337    1.095769    0.634234
     43          6           0        2.486706    4.852297    0.480300
     44          6           0        4.420909    2.346326    0.981282
     45          6           0        5.080535    1.979362   -0.354628
     46          6           0        6.540383    2.395477   -0.504025
     47          8           0        7.073924    2.237147   -1.633635
     48          8           0        7.139707    2.871829    0.491383
     49          7           0        0.435067   -1.445494    0.429580
     50          7           0       -2.307049   -1.093084   -0.158522
     51          7           0       -1.988964    1.683592   -0.216777
     52          7           0        0.765058    1.417251    0.359527
     53         26           0       -0.724467    0.138283    0.151987
     54          1           0       -2.055589    0.057087   -3.812565
     55          1           0       -1.106924   -1.409528   -3.766263
     56          1           0       -2.271903   -1.082431   -2.505747
     57          1           0        1.144904   -1.683910   -1.941788
     58          1           0        2.031096   -0.280830   -2.488685
     59          1           0        0.144211   -0.942389   -4.513280
     60          1           0        1.886736   -1.028436   -4.609562
     61          1           0        0.972245   -2.414710   -4.066405
     62          1           0       -0.807044   -1.887203    2.839219
     63          1           0       -1.714954    2.224676    2.483887
     64          1           0       -1.936909    1.544100    4.904754
     65          1           0       -2.007086   -1.977910    5.600528
     66          1           0       -0.399062   -1.377718    5.927785
     67          1           0       -1.794883   -0.435941    6.394485
     68          1           0        6.526520    2.063782   -2.402982
     69          1           0        5.021626    0.917886   -0.475859
     70          1           0        4.519882    2.439168   -1.141487
     71          1           0        4.684377    1.632405    1.733480
     72          1           0        4.715620    3.329802    1.282646
     73          1           0        1.609385    5.461939    0.420773
     74          1           0        3.023878    5.086741    1.375500
     75          1           0        3.109791    5.040035   -0.369064
     76          1           0       -0.282511    4.627137   -0.010310
     77          1           0       -2.621736    5.725954    0.361733
     78          1           0       -2.059339    5.624451   -1.289470
     79          1           0       -3.932202    6.719133   -1.568978
     80          1           0       -4.495343    5.072797   -1.728713
     81          1           0       -4.719411    5.930584   -0.223037
     82          1           0       -5.862019    2.367119   -1.402301
     83          1           0       -5.912837    3.609115   -0.174322
     84          1           0       -5.460422    4.017587   -1.811863
     85          1           0       -5.150395    0.620085   -0.837933
     86          1           0       -6.450997   -1.893702   -0.028013
     87          1           0       -6.138603   -1.557810   -1.714030
     88          1           0       -6.088113   -4.114130   -0.313839
     89          1           0       -7.130182   -3.595213   -1.616868
     90          1           0       -5.430103   -3.868444   -1.913754
     91          1           0       -4.396703   -4.848829   -1.284507
     92          1           0       -2.938281   -5.131459   -0.364621
     93          1           0       -4.453719   -4.860353    0.461827
     94          1           0       -1.291613   -4.326961    0.175848
     95          1           0        0.845476   -5.567382   -0.112052
     96          1           0        2.344090   -5.473659    0.781501
     97          1           0        0.818535   -5.488824    1.633276
     98          1           0        3.626819   -0.341498    1.009184
     99          1           0        3.724093   -3.664539    2.212897
    100          1           0        4.288036   -2.172432    1.515749
    101          1           0        5.497973   -4.117047    0.652276
    102          1           0        4.003520   -4.773045    0.051170
    103          1           0        3.361230   -3.596065   -2.272762
 ---------------------------------------------------------------------
 Rotational constants (GHZ):           0.0643288           0.0457790           0.0355004
 Standard basis: def2TZVP (5D, 7F)
 There are  2230 symmetry adapted cartesian basis functions of A   symmetry.
 There are  1963 symmetry adapted basis functions of A   symmetry.
  1963 basis functions,  3172 primitive gaussians,  2230 cartesian basis functions
   208 alpha electrons      204 beta electrons
       nuclear repulsion energy      9051.8543214259 Hartrees.
 NAtoms=  103 NActive=  103 NUniq=  103 SFac= 1.00D+00 NAtFMM=   60 NAOKFM=T Big=T
 Integral buffers will be    131072 words long.
 Raffenetti 2 integral format.
 Two-electron integral symmetry is turned on.
 Nuclear repulsion after empirical dispersion term =     9051.7023887059 Hartrees.
 One-electron integrals computed using PRISM.
   1 Symmetry operations used in ECPInt.
 ECPInt:  NShTT=  311655 NPrTT=  958403 LenC2=  229008 LenP2D=  455055.
 LDataN:  DoStor=T MaxTD1= 6 Len=  172
 NBasis=  1963 RedAO= T EigKep=  2.88D-06  NBF=  1963
 NBsUse=  1963 1.00D-06 EigRej= -1.00D+00 NBFU=  1963
 ExpMin= 4.20D-02 ExpMax= 3.01D+05 ExpMxC= 2.91D+03 IAcc=3 IRadAn=         5 AccDes= 0.00D+00
 Harris functional with IExCor= 1009 and IRadAn=       5 diagonalized for initial guess.
 HarFok:  IExCor= 1009 AccDes= 0.00D+00 IRadAn=         5 IDoV= 1 UseB2=F ITyADJ=14
 ICtDFT=  3500011 ScaDFX=  1.000000  1.000000  1.000000  1.000000
 FoFCou: FMM=F IPFlag=           0 FMFlag=      100000 FMFlg1=        2001
         NFxFlg=           0 DoJE=T BraDBF=F KetDBF=T FulRan=T
         wScrn=  0.000000 ICntrl=       500 IOpCl=  0 I1Cent=   200000004 NGrid=           0
         NMat0=    1 NMatS0=      1 NMatT0=    0 NMatD0=    1 NMtDS0=    0 NMtDT0=    0
 Petite list used in FoFCou.
 Initial guess <Sx>= 0.0000 <Sy>= 0.0000 <Sz>= 2.0000 <S**2>= 6.0000 S= 2.0000
 Requested convergence on RMS density matrix=1.00D-08 within 999 cycles.
 Requested convergence on MAX density matrix=1.00D-06.
 Requested convergence on             energy=1.00D-06.
 No special actions if energy rises.
 EnCoef did     7 forward-backward iterations
 EnCoef did   100 forward-backward iterations
 EnCoef did     8 forward-backward iterations
 EnCoef did     6 forward-backward iterations
 EnCoef did     7 forward-backward iterations
 EnCoef did     7 forward-backward iterations
 Restarting incremental Fock formation.
 Restarting incremental Fock formation.
 SCF Done:  E(UPBE1PBE) =  -3881.82172503     A.U. after   49 cycles
            NFock= 49  Conv=0.28D-08     -V/T= 2.0029
 <Sx>= 0.0000 <Sy>= 0.0000 <Sz>= 2.0000 <S**2>= 6.1966 S= 2.0390
 <L.S>= 0.000000000000E+00
 Annihilation of the first spin contaminant:
 S**2 before annihilation     6.1966,   after     6.0019
 Hyperfine terms turned off by default for NAtoms > 100.

 **********************************************************************

            Population analysis using the SCF density.

 **********************************************************************

 Orbital symmetries:
 Alpha Orbitals:
       Occupied  (A) (A) (A) (A) (A) (A) (A) (A) (A) (A) (A) (A)
                 (A) (A) (A) (A) (A) (A) (A) (A) (A) (A) (A) (A)
                 (A) (A) (A) (A) (A) (A) (A) (A) (A) (A) (A) (A)
                 (A) (A) (A) (A) (A) (A) (A) (A) (A) (A) (A) (A)
                 (A) (A) (A) (A) (A) (A) (A) (A) (A) (A) (A) (A)
                 (A) (A) (A) (A) (A) (A) (A) (A) (A) (A) (A) (A)
                 (A) (A) (A) (A) (A) (A) (A) (A) (A) (A) (A) (A)
                 (A) (A) (A) (A) (A) (A) (A) (A) (A) (A) (A) (A)
                 (A) (A) (A) (A) (A) (A) (A) (A) (A) (A) (A) (A)
                 (A) (A) (A) (A) (A) (A) (A) (A) (A) (A) (A) (A)
                 (A) (A) (A) (A) (A) (A) (A) (A) (A) (A) (A) (A)
                 (A) (A) (A) (A) (A) (A) (A) (A) (A) (A) (A) (A)
                 (A) (A) (A) (A) (A) (A) (A) (A) (A) (A) (A) (A)
                 (A) (A) (A) (A) (A) (A) (A) (A) (A) (A) (A) (A)
                 (A) (A) (A) (A) (A) (A) (A) (A) (A) (A) (A) (A)
                 (A) (A) (A) (A) (A) (A) (A) (A) (A) (A) (A) (A)
                 (A) (A) (A) (A) (A) (A) (A) (A) (A) (A) (A) (A)
                 (A) (A) (A) (A)
       Virtual   (A) (A) (A) (A) (A) (A) (A) (A) (A) (A) (A) (A)
                 (A) (A) (A) (A) (A) (A) (A) (A) (A) (A) (A) (A)
                 (A) (A) (A) (A) (A) (A) (A) (A) (A) (A) (A) (A)
                 (A) (A) (A) (A) (A) (A) (A) (A) (A) (A) (A) (A)
                 (A) (A) (A) (A) (A) (A) (A) (A) (A) (A) (A) (A)
                 (A) (A) (A) (A) (A) (A) (A) (A) (A) (A) (A) (A)
                 (A) (A) (A) (A) (A) (A) (A) (A) (A) (A) (A) (A)
                 (A) (A) (A) (A) (A) (A) (A) (A) (A) (A) (A) (A)
                 (A) (A) (A) (A) (A) (A) (A) (A) (A) (A) (A) (A)
                 (A) (A) (A) (A) (A) (A) (A) (A) (A) (A) (A) (A)
                 (A) (A) (A) (A) (A) (A) (A) (A) (A) (A) (A) (A)
                 (A) (A) (A) (A) (A) (A) (A) (A) (A) (A) (A) (A)
                 (A) (A) (A) (A) (A) (A) (A) (A) (A) (A) (A) (A)
                 (A) (A) (A) (A) (A) (A) (A) (A) (A) (A) (A) (A)
                 (A) (A) (A) (A) (A) (A) (A) (A) (A) (A) (A) (A)
                 (A) (A) (A) (A) (A) (A) (A) (A) (A) (A) (A) (A)
                 (A) (A) (A) (A) (A) (A) (A) (A) (A) (A) (A) (A)
                 (A) (A) (A) (A) (A) (A) (A) (A) (A) (A) (A) (A)
                 (A) (A) (A) (A) (A) (A) (A) (A) (A) (A) (A) (A)
                 (A) (A) (A) (A) (A) (A) (A) (A) (A) (A) (A) (A)
                 (A) (A) (A) (A) (A) (A) (A) (A) (A) (A) (A) (A)
                 (A) (A) (A) (A) (A) (A) (A) (A) (A) (A) (A) (A)
                 (A) (A) (A) (A) (A) (A) (A) (A) (A) (A) (A) (A)
                 (A) (A) (A) (A) (A) (A) (A) (A) (A) (A) (A) (A)
                 (A) (A) (A) (A) (A) (A) (A) (A) (A) (A) (A) (A)
                 (A) (A) (A) (A) (A) (A) (A) (A) (A) (A) (A) (A)
                 (A) (A) (A) (A) (A) (A) (A) (A) (A) (A) (A) (A)
                 (A) (A) (A) (A) (A) (A) (A) (A) (A) (A) (A) (A)
                 (A) (A) (A) (A) (A) (A) (A) (A) (A) (A) (A) (A)
                 (A) (A) (A) (A) (A) (A) (A) (A) (A) (A) (A) (A)
                 (A) (A) (A) (A) (A) (A) (A) (A) (A) (A) (A) (A)
                 (A) (A) (A) (A) (A) (A) (A) (A) (A) (A) (A) (A)
                 (A) (A) (A) (A) (A) (A) (A) (A) (A) (A) (A) (A)
                 (A) (A) (A) (A) (A) (A) (A) (A) (A) (A) (A) (A)
                 (A) (A) (A) (A) (A) (A) (A) (A) (A) (A) (A) (A)
                 (A) (A) (A) (A) (A) (A) (A) (A) (A) (A) (A) (A)
                 (A) (A) (A) (A) (A) (A) (A) (A) (A) (A) (A) (A)
                 (A) (A) (A) (A) (A) (A) (A) (A) (A) (A) (A) (A)
                 (A) (A) (A) (A) (A) (A) (A) (A) (A) (A) (A) (A)
                 (A) (A) (A) (A) (A) (A) (A) (A) (A) (A) (A) (A)
                 (A) (A) (A) (A) (A) (A) (A) (A) (A) (A) (A) (A)
                 (A) (A) (A) (A) (A) (A) (A) (A) (A) (A) (A) (A)
                 (A) (A) (A) (A) (A) (A) (A) (A) (A) (A) (A) (A)
                 (A) (A) (A) (A) (A) (A) (A) (A) (A) (A) (A) (A)
                 (A) (A) (A) (A) (A) (A) (A) (A) (A) (A) (A) (A)
                 (A) (A) (A) (A) (A) (A) (A) (A) (A) (A) (A) (A)
                 (A) (A) (A) (A) (A) (A) (A) (A) (A) (A) (A) (A)
                 (A) (A) (A) (A) (A) (A) (A) (A) (A) (A) (A) (A)
                 (A) (A) (A) (A) (A) (A) (A) (A) (A) (A) (A) (A)
                 (A) (A) (A) (A) (A) (A) (A) (A) (A) (A) (A) (A)
                 (A) (A) (A) (A) (A) (A) (A) (A) (A) (A) (A) (A)
                 (A) (A) (A) (A) (A) (A) (A) (A) (A) (A) (A) (A)
                 (A) (A) (A) (A) (A) (A) (A) (A) (A) (A) (A) (A)
                 (A) (A) (A) (A) (A) (A) (A) (A) (A) (A) (A) (A)
                 (A) (A) (A) (A) (A) (A) (A) (A) (A) (A) (A) (A)
                 (A) (A) (A) (A) (A) (A) (A) (A) (A) (A) (A) (A)
                 (A) (A) (A) (A) (A) (A) (A) (A) (A) (A) (A) (A)
                 (A) (A) (A) (A) (A) (A) (A) (A) (A) (A) (A) (A)
                 (A) (A) (A) (A) (A) (A) (A) (A) (A) (A) (A) (A)
                 (A) (A) (A) (A) (A) (A) (A) (A) (A) (A) (A) (A)
                 (A) (A) (A) (A) (A) (A) (A) (A) (A) (A) (A) (A)
                 (A) (A) (A) (A) (A) (A) (A) (A) (A) (A) (A) (A)
                 (A) (A) (A) (A) (A) (A) (A) (A) (A) (A) (A) (A)
                 (A) (A) (A) (A) (A) (A) (A) (A) (A) (A) (A) (A)
                 (A) (A) (A) (A) (A) (A) (A) (A) (A) (A) (A) (A)
                 (A) (A) (A) (A) (A) (A) (A) (A) (A) (A) (A) (A)
                 (A) (A) (A) (A) (A) (A) (A) (A) (A) (A) (A) (A)
                 (A) (A) (A) (A) (A) (A) (A) (A) (A) (A) (A) (A)
                 (A) (A) (A) (A) (A) (A) (A) (A) (A) (A) (A) (A)
                 (A) (A) (A) (A) (A) (A) (A) (A) (A) (A) (A) (A)
                 (A) (A) (A) (A) (A) (A) (A) (A) (A) (A) (A) (A)
                 (A) (A) (A) (A) (A) (A) (A) (A) (A) (A) (A) (A)
                 (A) (A) (A) (A) (A) (A) (A) (A) (A) (A) (A) (A)
                 (A) (A) (A) (A) (A) (A) (A) (A) (A) (A) (A) (A)
                 (A) (A) (A) (A) (A) (A) (A) (A) (A) (A) (A) (A)
                 (A) (A) (A) (A) (A) (A) (A) (A) (A) (A) (A) (A)
                 (A) (A) (A) (A) (A) (A) (A) (A) (A) (A) (A) (A)
                 (A) (A) (A) (A) (A) (A) (A) (A) (A) (A) (A) (A)
                 (A) (A) (A) (A) (A) (A) (A) (A) (A) (A) (A) (A)
                 (A) (A) (A) (A) (A) (A) (A) (A) (A) (A) (A) (A)
                 (A) (A) (A) (A) (A) (A) (A) (A) (A) (A) (A) (A)
                 (A) (A) (A) (A) (A) (A) (A) (A) (A) (A) (A) (A)
                 (A) (A) (A) (A) (A) (A) (A) (A) (A) (A) (A) (A)
                 (A) (A) (A) (A) (A) (A) (A) (A) (A) (A) (A) (A)
                 (A) (A) (A) (A) (A) (A) (A) (A) (A) (A) (A) (A)
                 (A) (A) (A) (A) (A) (A) (A) (A) (A) (A) (A) (A)
                 (A) (A) (A) (A) (A) (A) (A) (A) (A) (A) (A) (A)
                 (A) (A) (A) (A) (A) (A) (A) (A) (A) (A) (A) (A)
                 (A) (A) (A) (A) (A) (A) (A) (A) (A) (A) (A) (A)
                 (A) (A) (A) (A) (A) (A) (A) (A) (A) (A) (A) (A)
                 (A) (A) (A) (A) (A) (A) (A) (A) (A) (A) (A) (A)
                 (A) (A) (A) (A) (A) (A) (A) (A) (A) (A) (A) (A)
                 (A) (A) (A) (A) (A) (A) (A) (A) (A) (A) (A) (A)
                 (A) (A) (A) (A) (A) (A) (A) (A) (A) (A) (A) (A)
                 (A) (A) (A) (A) (A) (A) (A) (A) (A) (A) (A) (A)
                 (A) (A) (A) (A) (A) (A) (A) (A) (A) (A) (A) (A)
                 (A) (A) (A) (A) (A) (A) (A) (A) (A) (A) (A) (A)
                 (A) (A) (A) (A) (A) (A) (A) (A) (A) (A) (A) (A)
                 (A) (A) (A) (A) (A) (A) (A) (A) (A) (A) (A) (A)
                 (A) (A) (A) (A) (A) (A) (A) (A) (A) (A) (A) (A)
                 (A) (A) (A) (A) (A) (A) (A) (A) (A) (A) (A) (A)
                 (A) (A) (A) (A) (A) (A) (A) (A) (A) (A) (A) (A)
                 (A) (A) (A) (A) (A) (A) (A) (A) (A) (A) (A) (A)
                 (A) (A) (A) (A) (A) (A) (A) (A) (A) (A) (A) (A)
                 (A) (A) (A) (A) (A) (A) (A) (A) (A) (A) (A) (A)
                 (A) (A) (A) (A) (A) (A) (A) (A) (A) (A) (A) (A)
                 (A) (A) (A) (A) (A) (A) (A) (A) (A) (A) (A) (A)
                 (A) (A) (A) (A) (A) (A) (A) (A) (A) (A) (A) (A)
                 (A) (A) (A) (A) (A) (A) (A) (A) (A) (A) (A) (A)
                 (A) (A) (A) (A) (A) (A) (A) (A) (A) (A) (A) (A)
                 (A) (A) (A) (A) (A) (A) (A) (A) (A) (A) (A) (A)
                 (A) (A) (A) (A) (A) (A) (A) (A) (A) (A) (A) (A)
                 (A) (A) (A) (A) (A) (A) (A) (A) (A) (A) (A) (A)
                 (A) (A) (A) (A) (A) (A) (A) (A) (A) (A) (A) (A)
                 (A) (A) (A) (A) (A) (A) (A) (A) (A) (A) (A) (A)
                 (A) (A) (A) (A) (A) (A) (A) (A) (A) (A) (A) (A)
                 (A) (A) (A) (A) (A) (A) (A) (A) (A) (A) (A) (A)
                 (A) (A) (A) (A) (A) (A) (A) (A) (A) (A) (A) (A)
                 (A) (A) (A) (A) (A) (A) (A) (A) (A) (A) (A) (A)
                 (A) (A) (A) (A) (A) (A) (A) (A) (A) (A) (A) (A)
                 (A) (A) (A) (A) (A) (A) (A) (A) (A) (A) (A) (A)
                 (A) (A) (A) (A) (A) (A) (A) (A) (A) (A) (A) (A)
                 (A) (A) (A) (A) (A) (A) (A) (A) (A) (A) (A) (A)
                 (A) (A) (A) (A) (A) (A) (A) (A) (A) (A) (A) (A)
                 (A) (A) (A) (A) (A) (A) (A) (A) (A) (A) (A) (A)
                 (A) (A) (A) (A) (A) (A) (A) (A) (A) (A) (A) (A)
                 (A) (A) (A) (A) (A) (A) (A) (A) (A) (A) (A) (A)
                 (A) (A) (A) (A) (A) (A) (A) (A) (A) (A) (A) (A)
                 (A) (A) (A) (A) (A) (A) (A) (A) (A) (A) (A) (A)
                 (A) (A) (A) (A) (A) (A) (A) (A) (A) (A) (A) (A)
                 (A) (A) (A) (A) (A) (A) (A) (A) (A) (A) (A) (A)
                 (A) (A) (A) (A) (A) (A) (A) (A) (A) (A) (A) (A)
                 (A) (A) (A) (A) (A) (A) (A) (A) (A) (A) (A) (A)
                 (A) (A) (A) (A) (A) (A) (A) (A) (A) (A) (A) (A)
                 (A) (A) (A) (A) (A) (A) (A) (A) (A) (A) (A) (A)
                 (A) (A) (A) (A) (A) (A) (A) (A) (A) (A) (A) (A)
                 (A) (A) (A) (A) (A) (A) (A) (A) (A) (A) (A) (A)
                 (A) (A) (A) (A) (A) (A) (A) (A) (A) (A) (A) (A)
                 (A) (A) (A) (A) (A) (A) (A) (A) (A) (A) (A) (A)
                 (A) (A) (A) (A) (A) (A) (A) (A) (A) (A) (A) (A)
                 (A) (A) (A) (A) (A) (A) (A) (A) (A) (A) (A) (A)
                 (A) (A) (A) (A) (A) (A) (A) (A) (A) (A) (A) (A)
                 (A) (A) (A) (A) (A) (A) (A) (A) (A) (A) (A) (A)
                 (A) (A) (A) (A) (A) (A) (A) (A) (A) (A) (A) (A)
                 (A) (A) (A) (A) (A) (A) (A) (A) (A) (A) (A) (A)
                 (A) (A) (A) (A) (A) (A) (A) (A) (A) (A) (A) (A)
                 (A) (A) (A)
 Beta  Orbitals:
       Occupied  (A) (A) (A) (A) (A) (A) (A) (A) (A) (A) (A) (A)
                 (A) (A) (A) (A) (A) (A) (A) (A) (A) (A) (A) (A)
                 (A) (A) (A) (A) (A) (A) (A) (A) (A) (A) (A) (A)
                 (A) (A) (A) (A) (A) (A) (A) (A) (A) (A) (A) (A)
                 (A) (A) (A) (A) (A) (A) (A) (A) (A) (A) (A) (A)
                 (A) (A) (A) (A) (A) (A) (A) (A) (A) (A) (A) (A)
                 (A) (A) (A) (A) (A) (A) (A) (A) (A) (A) (A) (A)
                 (A) (A) (A) (A) (A) (A) (A) (A) (A) (A) (A) (A)
                 (A) (A) (A) (A) (A) (A) (A) (A) (A) (A) (A) (A)
                 (A) (A) (A) (A) (A) (A) (A) (A) (A) (A) (A) (A)
                 (A) (A) (A) (A) (A) (A) (A) (A) (A) (A) (A) (A)
                 (A) (A) (A) (A) (A) (A) (A) (A) (A) (A) (A) (A)
                 (A) (A) (A) (A) (A) (A) (A) (A) (A) (A) (A) (A)
                 (A) (A) (A) (A) (A) (A) (A) (A) (A) (A) (A) (A)
                 (A) (A) (A) (A) (A) (A) (A) (A) (A) (A) (A) (A)
                 (A) (A) (A) (A) (A) (A) (A) (A) (A) (A) (A) (A)
                 (A) (A) (A) (A) (A) (A) (A) (A) (A) (A) (A) (A)
       Virtual   (A) (A) (A) (A) (A) (A) (A) (A) (A) (A) (A) (A)
                 (A) (A) (A) (A) (A) (A) (A) (A) (A) (A) (A) (A)
                 (A) (A) (A) (A) (A) (A) (A) (A) (A) (A) (A) (A)
                 (A) (A) (A) (A) (A) (A) (A) (A) (A) (A) (A) (A)
                 (A) (A) (A) (A) (A) (A) (A) (A) (A) (A) (A) (A)
                 (A) (A) (A) (A) (A) (A) (A) (A) (A) (A) (A) (A)
                 (A) (A) (A) (A) (A) (A) (A) (A) (A) (A) (A) (A)
                 (A) (A) (A) (A) (A) (A) (A) (A) (A) (A) (A) (A)
                 (A) (A) (A) (A) (A) (A) (A) (A) (A) (A) (A) (A)
                 (A) (A) (A) (A) (A) (A) (A) (A) (A) (A) (A) (A)
                 (A) (A) (A) (A) (A) (A) (A) (A) (A) (A) (A) (A)
                 (A) (A) (A) (A) (A) (A) (A) (A) (A) (A) (A) (A)
                 (A) (A) (A) (A) (A) (A) (A) (A) (A) (A) (A) (A)
                 (A) (A) (A) (A) (A) (A) (A) (A) (A) (A) (A) (A)
                 (A) (A) (A) (A) (A) (A) (A) (A) (A) (A) (A) (A)
                 (A) (A) (A) (A) (A) (A) (A) (A) (A) (A) (A) (A)
                 (A) (A) (A) (A) (A) (A) (A) (A) (A) (A) (A) (A)
                 (A) (A) (A) (A) (A) (A) (A) (A) (A) (A) (A) (A)
                 (A) (A) (A) (A) (A) (A) (A) (A) (A) (A) (A) (A)
                 (A) (A) (A) (A) (A) (A) (A) (A) (A) (A) (A) (A)
                 (A) (A) (A) (A) (A) (A) (A) (A) (A) (A) (A) (A)
                 (A) (A) (A) (A) (A) (A) (A) (A) (A) (A) (A) (A)
                 (A) (A) (A) (A) (A) (A) (A) (A) (A) (A) (A) (A)
                 (A) (A) (A) (A) (A) (A) (A) (A) (A) (A) (A) (A)
                 (A) (A) (A) (A) (A) (A) (A) (A) (A) (A) (A) (A)
                 (A) (A) (A) (A) (A) (A) (A) (A) (A) (A) (A) (A)
                 (A) (A) (A) (A) (A) (A) (A) (A) (A) (A) (A) (A)
                 (A) (A) (A) (A) (A) (A) (A) (A) (A) (A) (A) (A)
                 (A) (A) (A) (A) (A) (A) (A) (A) (A) (A) (A) (A)
                 (A) (A) (A) (A) (A) (A) (A) (A) (A) (A) (A) (A)
                 (A) (A) (A) (A) (A) (A) (A) (A) (A) (A) (A) (A)
                 (A) (A) (A) (A) (A) (A) (A) (A) (A) (A) (A) (A)
                 (A) (A) (A) (A) (A) (A) (A) (A) (A) (A) (A) (A)
                 (A) (A) (A) (A) (A) (A) (A) (A) (A) (A) (A) (A)
                 (A) (A) (A) (A) (A) (A) (A) (A) (A) (A) (A) (A)
                 (A) (A) (A) (A) (A) (A) (A) (A) (A) (A) (A) (A)
                 (A) (A) (A) (A) (A) (A) (A) (A) (A) (A) (A) (A)
                 (A) (A) (A) (A) (A) (A) (A) (A) (A) (A) (A) (A)
                 (A) (A) (A) (A) (A) (A) (A) (A) (A) (A) (A) (A)
                 (A) (A) (A) (A) (A) (A) (A) (A) (A) (A) (A) (A)
                 (A) (A) (A) (A) (A) (A) (A) (A) (A) (A) (A) (A)
                 (A) (A) (A) (A) (A) (A) (A) (A) (A) (A) (A) (A)
                 (A) (A) (A) (A) (A) (A) (A) (A) (A) (A) (A) (A)
                 (A) (A) (A) (A) (A) (A) (A) (A) (A) (A) (A) (A)
                 (A) (A) (A) (A) (A) (A) (A) (A) (A) (A) (A) (A)
                 (A) (A) (A) (A) (A) (A) (A) (A) (A) (A) (A) (A)
                 (A) (A) (A) (A) (A) (A) (A) (A) (A) (A) (A) (A)
                 (A) (A) (A) (A) (A) (A) (A) (A) (A) (A) (A) (A)
                 (A) (A) (A) (A) (A) (A) (A) (A) (A) (A) (A) (A)
                 (A) (A) (A) (A) (A) (A) (A) (A) (A) (A) (A) (A)
                 (A) (A) (A) (A) (A) (A) (A) (A) (A) (A) (A) (A)
                 (A) (A) (A) (A) (A) (A) (A) (A) (A) (A) (A) (A)
                 (A) (A) (A) (A) (A) (A) (A) (A) (A) (A) (A) (A)
                 (A) (A) (A) (A) (A) (A) (A) (A) (A) (A) (A) (A)
                 (A) (A) (A) (A) (A) (A) (A) (A) (A) (A) (A) (A)
                 (A) (A) (A) (A) (A) (A) (A) (A) (A) (A) (A) (A)
                 (A) (A) (A) (A) (A) (A) (A) (A) (A) (A) (A) (A)
                 (A) (A) (A) (A) (A) (A) (A) (A) (A) (A) (A) (A)
                 (A) (A) (A) (A) (A) (A) (A) (A) (A) (A) (A) (A)
                 (A) (A) (A) (A) (A) (A) (A) (A) (A) (A) (A) (A)
                 (A) (A) (A) (A) (A) (A) (A) (A) (A) (A) (A) (A)
                 (A) (A) (A) (A) (A) (A) (A) (A) (A) (A) (A) (A)
                 (A) (A) (A) (A) (A) (A) (A) (A) (A) (A) (A) (A)
                 (A) (A) (A) (A) (A) (A) (A) (A) (A) (A) (A) (A)
                 (A) (A) (A) (A) (A) (A) (A) (A) (A) (A) (A) (A)
                 (A) (A) (A) (A) (A) (A) (A) (A) (A) (A) (A) (A)
                 (A) (A) (A) (A) (A) (A) (A) (A) (A) (A) (A) (A)
                 (A) (A) (A) (A) (A) (A) (A) (A) (A) (A) (A) (A)
                 (A) (A) (A) (A) (A) (A) (A) (A) (A) (A) (A) (A)
                 (A) (A) (A) (A) (A) (A) (A) (A) (A) (A) (A) (A)
                 (A) (A) (A) (A) (A) (A) (A) (A) (A) (A) (A) (A)
                 (A) (A) (A) (A) (A) (A) (A) (A) (A) (A) (A) (A)
                 (A) (A) (A) (A) (A) (A) (A) (A) (A) (A) (A) (A)
                 (A) (A) (A) (A) (A) (A) (A) (A) (A) (A) (A) (A)
                 (A) (A) (A) (A) (A) (A) (A) (A) (A) (A) (A) (A)
                 (A) (A) (A) (A) (A) (A) (A) (A) (A) (A) (A) (A)
                 (A) (A) (A) (A) (A) (A) (A) (A) (A) (A) (A) (A)
                 (A) (A) (A) (A) (A) (A) (A) (A) (A) (A) (A) (A)
                 (A) (A) (A) (A) (A) (A) (A) (A) (A) (A) (A) (A)
                 (A) (A) (A) (A) (A) (A) (A) (A) (A) (A) (A) (A)
                 (A) (A) (A) (A) (A) (A) (A) (A) (A) (A) (A) (A)
                 (A) (A) (A) (A) (A) (A) (A) (A) (A) (A) (A) (A)
                 (A) (A) (A) (A) (A) (A) (A) (A) (A) (A) (A) (A)
                 (A) (A) (A) (A) (A) (A) (A) (A) (A) (A) (A) (A)
                 (A) (A) (A) (A) (A) (A) (A) (A) (A) (A) (A) (A)
                 (A) (A) (A) (A) (A) (A) (A) (A) (A) (A) (A) (A)
                 (A) (A) (A) (A) (A) (A) (A) (A) (A) (A) (A) (A)
                 (A) (A) (A) (A) (A) (A) (A) (A) (A) (A) (A) (A)
                 (A) (A) (A) (A) (A) (A) (A) (A) (A) (A) (A) (A)
                 (A) (A) (A) (A) (A) (A) (A) (A) (A) (A) (A) (A)
                 (A) (A) (A) (A) (A) (A) (A) (A) (A) (A) (A) (A)
                 (A) (A) (A) (A) (A) (A) (A) (A) (A) (A) (A) (A)
                 (A) (A) (A) (A) (A) (A) (A) (A) (A) (A) (A) (A)
                 (A) (A) (A) (A) (A) (A) (A) (A) (A) (A) (A) (A)
                 (A) (A) (A) (A) (A) (A) (A) (A) (A) (A) (A) (A)
                 (A) (A) (A) (A) (A) (A) (A) (A) (A) (A) (A) (A)
                 (A) (A) (A) (A) (A) (A) (A) (A) (A) (A) (A) (A)
                 (A) (A) (A) (A) (A) (A) (A) (A) (A) (A) (A) (A)
                 (A) (A) (A) (A) (A) (A) (A) (A) (A) (A) (A) (A)
                 (A) (A) (A) (A) (A) (A) (A) (A) (A) (A) (A) (A)
                 (A) (A) (A) (A) (A) (A) (A) (A) (A) (A) (A) (A)
                 (A) (A) (A) (A) (A) (A) (A) (A) (A) (A) (A) (A)
                 (A) (A) (A) (A) (A) (A) (A) (A) (A) (A) (A) (A)
                 (A) (A) (A) (A) (A) (A) (A) (A) (A) (A) (A) (A)
                 (A) (A) (A) (A) (A) (A) (A) (A) (A) (A) (A) (A)
                 (A) (A) (A) (A) (A) (A) (A) (A) (A) (A) (A) (A)
                 (A) (A) (A) (A) (A) (A) (A) (A) (A) (A) (A) (A)
                 (A) (A) (A) (A) (A) (A) (A) (A) (A) (A) (A) (A)
                 (A) (A) (A) (A) (A) (A) (A) (A) (A) (A) (A) (A)
                 (A) (A) (A) (A) (A) (A) (A) (A) (A) (A) (A) (A)
                 (A) (A) (A) (A) (A) (A) (A) (A) (A) (A) (A) (A)
                 (A) (A) (A) (A) (A) (A) (A) (A) (A) (A) (A) (A)
                 (A) (A) (A) (A) (A) (A) (A) (A) (A) (A) (A) (A)
                 (A) (A) (A) (A) (A) (A) (A) (A) (A) (A) (A) (A)
                 (A) (A) (A) (A) (A) (A) (A) (A) (A) (A) (A) (A)
                 (A) (A) (A) (A) (A) (A) (A) (A) (A) (A) (A) (A)
                 (A) (A) (A) (A) (A) (A) (A) (A) (A) (A) (A) (A)
                 (A) (A) (A) (A) (A) (A) (A) (A) (A) (A) (A) (A)
                 (A) (A) (A) (A) (A) (A) (A) (A) (A) (A) (A) (A)
                 (A) (A) (A) (A) (A) (A) (A) (A) (A) (A) (A) (A)
                 (A) (A) (A) (A) (A) (A) (A) (A) (A) (A) (A) (A)
                 (A) (A) (A) (A) (A) (A) (A) (A) (A) (A) (A) (A)
                 (A) (A) (A) (A) (A) (A) (A) (A) (A) (A) (A) (A)
                 (A) (A) (A) (A) (A) (A) (A) (A) (A) (A) (A) (A)
                 (A) (A) (A) (A) (A) (A) (A) (A) (A) (A) (A) (A)
                 (A) (A) (A) (A) (A) (A) (A) (A) (A) (A) (A) (A)
                 (A) (A) (A) (A) (A) (A) (A) (A) (A) (A) (A) (A)
                 (A) (A) (A) (A) (A) (A) (A) (A) (A) (A) (A) (A)
                 (A) (A) (A) (A) (A) (A) (A) (A) (A) (A) (A) (A)
                 (A) (A) (A) (A) (A) (A) (A) (A) (A) (A) (A) (A)
                 (A) (A) (A) (A) (A) (A) (A) (A) (A) (A) (A) (A)
                 (A) (A) (A) (A) (A) (A) (A) (A) (A) (A) (A) (A)
                 (A) (A) (A) (A) (A) (A) (A) (A) (A) (A) (A) (A)
                 (A) (A) (A) (A) (A) (A) (A) (A) (A) (A) (A) (A)
                 (A) (A) (A) (A) (A) (A) (A) (A) (A) (A) (A) (A)
                 (A) (A) (A) (A) (A) (A) (A) (A) (A) (A) (A) (A)
                 (A) (A) (A) (A) (A) (A) (A) (A) (A) (A) (A) (A)
                 (A) (A) (A) (A) (A) (A) (A) (A) (A) (A) (A) (A)
                 (A) (A) (A) (A) (A) (A) (A) (A) (A) (A) (A) (A)
                 (A) (A) (A) (A) (A) (A) (A) (A) (A) (A) (A) (A)
                 (A) (A) (A) (A) (A) (A) (A) (A) (A) (A) (A) (A)
                 (A) (A) (A) (A) (A) (A) (A) (A) (A) (A) (A) (A)
                 (A) (A) (A) (A) (A) (A) (A) (A) (A) (A) (A) (A)
                 (A) (A) (A) (A) (A) (A) (A) (A) (A) (A) (A) (A)
                 (A) (A) (A) (A) (A) (A) (A) (A) (A) (A) (A) (A)
                 (A) (A) (A) (A) (A) (A) (A) (A) (A) (A) (A) (A)
                 (A) (A) (A) (A) (A) (A) (A)
 The electronic state is 5-A.
 Alpha  occ. eigenvalues -- -256.32717 -89.00785 -30.13942 -25.97069 -25.95219
 Alpha  occ. eigenvalues --  -25.95020 -19.25994 -19.25603 -19.18361 -19.16360
 Alpha  occ. eigenvalues --  -14.44551 -14.37748 -14.36302 -14.36194 -14.36053
 Alpha  occ. eigenvalues --  -14.35984 -10.35320 -10.34045 -10.27481 -10.25873
 Alpha  occ. eigenvalues --  -10.25012 -10.24827 -10.24706 -10.24513 -10.24062
 Alpha  occ. eigenvalues --  -10.23918 -10.23867 -10.23699 -10.23527 -10.23110
 Alpha  occ. eigenvalues --  -10.23026 -10.22970 -10.22919 -10.22695 -10.22423
 Alpha  occ. eigenvalues --  -10.22264 -10.22247 -10.22144 -10.22062 -10.21963
 Alpha  occ. eigenvalues --  -10.21846 -10.21769 -10.21752 -10.21464 -10.21433
 Alpha  occ. eigenvalues --  -10.21421 -10.21349 -10.21296 -10.21153 -10.21037
 Alpha  occ. eigenvalues --  -10.20901 -10.20859 -10.20824 -10.20213 -10.19967
 Alpha  occ. eigenvalues --  -10.18819 -10.18414  -7.98737  -5.92390  -5.92077
 Alpha  occ. eigenvalues --   -5.91571  -3.56793  -2.35872  -2.31729  -2.31515
 Alpha  occ. eigenvalues --   -1.17507  -1.15654  -1.06327  -1.02892  -1.01168
 Alpha  occ. eigenvalues --   -0.96731  -0.95634  -0.95158  -0.94150  -0.90529
 Alpha  occ. eigenvalues --   -0.85372  -0.85106  -0.83999  -0.83588  -0.82555
 Alpha  occ. eigenvalues --   -0.82160  -0.81401  -0.80051  -0.79895  -0.78718
 Alpha  occ. eigenvalues --   -0.77811  -0.77016  -0.76425  -0.75419  -0.74267
 Alpha  occ. eigenvalues --   -0.73585  -0.72656  -0.72558  -0.72069  -0.71591
 Alpha  occ. eigenvalues --   -0.70308  -0.68924  -0.68642  -0.68480  -0.66153
 Alpha  occ. eigenvalues --   -0.65646  -0.64715  -0.64546  -0.64358  -0.63064
 Alpha  occ. eigenvalues --   -0.62956  -0.62132  -0.59393  -0.58348  -0.56875
 Alpha  occ. eigenvalues --   -0.56473  -0.56115  -0.54909  -0.54629  -0.53890
 Alpha  occ. eigenvalues --   -0.53279  -0.52375  -0.52148  -0.51730  -0.50701
 Alpha  occ. eigenvalues --   -0.50485  -0.49973  -0.49808  -0.49412  -0.49376
 Alpha  occ. eigenvalues --   -0.49237  -0.48473  -0.48173  -0.47983  -0.47947
 Alpha  occ. eigenvalues --   -0.47758  -0.47612  -0.46281  -0.45805  -0.45420
 Alpha  occ. eigenvalues --   -0.44563  -0.44296  -0.44222  -0.44115  -0.43983
 Alpha  occ. eigenvalues --   -0.43804  -0.43756  -0.43595  -0.43555  -0.43229
 Alpha  occ. eigenvalues --   -0.43154  -0.42878  -0.42825  -0.42743  -0.42556
 Alpha  occ. eigenvalues --   -0.42501  -0.42244  -0.42070  -0.41352  -0.40944
 Alpha  occ. eigenvalues --   -0.40575  -0.40478  -0.40380  -0.40153  -0.39768
 Alpha  occ. eigenvalues --   -0.39599  -0.39118  -0.38791  -0.38531  -0.38411
 Alpha  occ. eigenvalues --   -0.38119  -0.38008  -0.37828  -0.37755  -0.37498
 Alpha  occ. eigenvalues --   -0.37112  -0.36876  -0.36355  -0.36145  -0.35821
 Alpha  occ. eigenvalues --   -0.35693  -0.35379  -0.35281  -0.34863  -0.34408
 Alpha  occ. eigenvalues --   -0.34256  -0.33957  -0.33644  -0.33335  -0.32810
 Alpha  occ. eigenvalues --   -0.32644  -0.32278  -0.32228  -0.31745  -0.31628
 Alpha  occ. eigenvalues --   -0.31271  -0.30801  -0.30780  -0.28680  -0.28138
 Alpha  occ. eigenvalues --   -0.27351  -0.26825  -0.26391  -0.26113  -0.24262
 Alpha  occ. eigenvalues --   -0.23688  -0.23010  -0.22563  -0.22030  -0.18772
 Alpha  occ. eigenvalues --   -0.18374  -0.18154  -0.17732
 Alpha virt. eigenvalues --   -0.06925  -0.06550  -0.01936  -0.00828   0.01068
 Alpha virt. eigenvalues --    0.02056   0.02476   0.02791   0.03338   0.03517
 Alpha virt. eigenvalues --    0.04222   0.04455   0.04676   0.04813   0.05250
 Alpha virt. eigenvalues --    0.05500   0.05928   0.06221   0.06403   0.06668
 Alpha virt. eigenvalues --    0.06827   0.07119   0.07326   0.07365   0.07890
 Alpha virt. eigenvalues --    0.08351   0.08500   0.09036   0.09259   0.09524
 Alpha virt. eigenvalues --    0.09732   0.09867   0.10154   0.10285   0.10595
 Alpha virt. eigenvalues --    0.10804   0.10899   0.11281   0.11483   0.11689
 Alpha virt. eigenvalues --    0.11831   0.12061   0.12417   0.12829   0.12881
 Alpha virt. eigenvalues --    0.13300   0.13497   0.13779   0.13833   0.13836
 Alpha virt. eigenvalues --    0.13964   0.14120   0.14163   0.14365   0.14459
 Alpha virt. eigenvalues --    0.14634   0.14830   0.14913   0.15205   0.15353
 Alpha virt. eigenvalues --    0.15448   0.15592   0.15610   0.16017   0.16441
 Alpha virt. eigenvalues --    0.16877   0.17009   0.17051   0.17456   0.17776
 Alpha virt. eigenvalues --    0.17936   0.18240   0.18442   0.18673   0.18824
 Alpha virt. eigenvalues --    0.19075   0.19179   0.19429   0.19865   0.19937
 Alpha virt. eigenvalues --    0.20083   0.20464   0.20579   0.20736   0.20927
 Alpha virt. eigenvalues --    0.21101   0.21245   0.21530   0.21682   0.21897
 Alpha virt. eigenvalues --    0.22091   0.22304   0.22411   0.22694   0.23069
 Alpha virt. eigenvalues --    0.23243   0.23277   0.23733   0.23802   0.24160
 Alpha virt. eigenvalues --    0.24213   0.24465   0.24517   0.24553   0.24627
 Alpha virt. eigenvalues --    0.24859   0.25081   0.25394   0.25654   0.26018
 Alpha virt. eigenvalues --    0.26294   0.26585   0.26659   0.27028   0.27099
 Alpha virt. eigenvalues --    0.27239   0.27310   0.27429   0.27533   0.27985
 Alpha virt. eigenvalues --    0.28230   0.28468   0.28553   0.28705   0.28873
 Alpha virt. eigenvalues --    0.29277   0.29512   0.29729   0.29944   0.29991
 Alpha virt. eigenvalues --    0.30204   0.30411   0.30698   0.31276   0.31346
 Alpha virt. eigenvalues --    0.31608   0.31812   0.32028   0.32226   0.32386
 Alpha virt. eigenvalues --    0.32596   0.32812   0.33243   0.33466   0.33665
 Alpha virt. eigenvalues --    0.34237   0.34297   0.34511   0.34723   0.34866
 Alpha virt. eigenvalues --    0.35409   0.35612   0.35777   0.36009   0.36209
 Alpha virt. eigenvalues --    0.36346   0.36587   0.36875   0.37376   0.37554
 Alpha virt. eigenvalues --    0.37628   0.37775   0.37887   0.38160   0.38245
 Alpha virt. eigenvalues --    0.38554   0.38720   0.38835   0.39117   0.39347
 Alpha virt. eigenvalues --    0.39477   0.39708   0.39931   0.40071   0.40123
 Alpha virt. eigenvalues --    0.40449   0.40588   0.40639   0.40932   0.40967
 Alpha virt. eigenvalues --    0.41251   0.41318   0.41450   0.41714   0.42005
 Alpha virt. eigenvalues --    0.42193   0.42290   0.42431   0.42513   0.42678
 Alpha virt. eigenvalues --    0.42732   0.42852   0.43077   0.43361   0.43498
 Alpha virt. eigenvalues --    0.43760   0.43831   0.44142   0.44354   0.44574
 Alpha virt. eigenvalues --    0.44654   0.44763   0.44859   0.45187   0.45299
 Alpha virt. eigenvalues --    0.45449   0.45664   0.45671   0.45922   0.45957
 Alpha virt. eigenvalues --    0.46040   0.46295   0.46496   0.46551   0.46730
 Alpha virt. eigenvalues --    0.47034   0.47355   0.47381   0.47437   0.47681
 Alpha virt. eigenvalues --    0.47847   0.48083   0.48155   0.48338   0.48536
 Alpha virt. eigenvalues --    0.48546   0.48633   0.48916   0.49158   0.49274
 Alpha virt. eigenvalues --    0.49479   0.49688   0.49970   0.50334   0.50386
 Alpha virt. eigenvalues --    0.50432   0.50598   0.50696   0.51002   0.51218
 Alpha virt. eigenvalues --    0.51399   0.51545   0.51612   0.51837   0.52023
 Alpha virt. eigenvalues --    0.52231   0.52378   0.52736   0.53011   0.53218
 Alpha virt. eigenvalues --    0.53230   0.53413   0.53566   0.53954   0.54034
 Alpha virt. eigenvalues --    0.54219   0.54358   0.54518   0.54643   0.55061
 Alpha virt. eigenvalues --    0.55240   0.55348   0.55568   0.55736   0.56087
 Alpha virt. eigenvalues --    0.56151   0.56243   0.56510   0.56712   0.56970
 Alpha virt. eigenvalues --    0.57075   0.57332   0.57653   0.57754   0.58006
 Alpha virt. eigenvalues --    0.58265   0.58321   0.58541   0.58820   0.58896
 Alpha virt. eigenvalues --    0.59410   0.59489   0.59612   0.59927   0.60285
 Alpha virt. eigenvalues --    0.60441   0.60652   0.60774   0.61046   0.61242
 Alpha virt. eigenvalues --    0.61417   0.61614   0.61818   0.62271   0.62406
 Alpha virt. eigenvalues --    0.62673   0.63394   0.63818   0.63946   0.64122
 Alpha virt. eigenvalues --    0.64261   0.64336   0.64658   0.64795   0.65074
 Alpha virt. eigenvalues --    0.65385   0.65510   0.65825   0.66085   0.66410
 Alpha virt. eigenvalues --    0.66882   0.67116   0.67159   0.67720   0.68001
 Alpha virt. eigenvalues --    0.68309   0.68496   0.68572   0.68913   0.69365
 Alpha virt. eigenvalues --    0.69573   0.69808   0.69855   0.70345   0.70537
 Alpha virt. eigenvalues --    0.70744   0.70908   0.71126   0.71517   0.71563
 Alpha virt. eigenvalues --    0.71864   0.72179   0.72422   0.72759   0.72956
 Alpha virt. eigenvalues --    0.73224   0.73350   0.73607   0.73937   0.74006
 Alpha virt. eigenvalues --    0.74597   0.74894   0.75030   0.75231   0.75638
 Alpha virt. eigenvalues --    0.76037   0.76259   0.76543   0.76652   0.76869
 Alpha virt. eigenvalues --    0.77189   0.77228   0.77817   0.77937   0.78355
 Alpha virt. eigenvalues --    0.78620   0.79010   0.79206   0.79530   0.79720
 Alpha virt. eigenvalues --    0.80085   0.80122   0.80539   0.80816   0.81206
 Alpha virt. eigenvalues --    0.81502   0.81645   0.81705   0.81960   0.82241
 Alpha virt. eigenvalues --    0.82297   0.83090   0.83639   0.83858   0.84077
 Alpha virt. eigenvalues --    0.84242   0.84510   0.84773   0.85270   0.85438
 Alpha virt. eigenvalues --    0.85979   0.86156   0.86389   0.86814   0.87062
 Alpha virt. eigenvalues --    0.87095   0.87552   0.87667   0.88049   0.88136
 Alpha virt. eigenvalues --    0.88318   0.88600   0.88900   0.88963   0.89614
 Alpha virt. eigenvalues --    0.89867   0.89923   0.90315   0.90562   0.90843
 Alpha virt. eigenvalues --    0.91395   0.91692   0.91770   0.92112   0.92482
 Alpha virt. eigenvalues --    0.92538   0.93070   0.93288   0.93424   0.93624
 Alpha virt. eigenvalues --    0.93973   0.94007   0.94153   0.94652   0.95013
 Alpha virt. eigenvalues --    0.95198   0.95588   0.95639   0.95931   0.96254
 Alpha virt. eigenvalues --    0.96524   0.96730   0.97052   0.97163   0.97578
 Alpha virt. eigenvalues --    0.97691   0.98122   0.98349   0.98546   0.98822
 Alpha virt. eigenvalues --    0.98938   0.99505   0.99585   0.99830   1.00573
 Alpha virt. eigenvalues --    1.00734   1.00957   1.01312   1.01473   1.01538
 Alpha virt. eigenvalues --    1.02109   1.02487   1.02624   1.02874   1.03035
 Alpha virt. eigenvalues --    1.03322   1.03486   1.03730   1.04099   1.04359
 Alpha virt. eigenvalues --    1.04831   1.04877   1.05104   1.05592   1.05801
 Alpha virt. eigenvalues --    1.05939   1.06853   1.06967   1.07141   1.07557
 Alpha virt. eigenvalues --    1.07696   1.07960   1.08216   1.08452   1.09032
 Alpha virt. eigenvalues --    1.09190   1.09473   1.09764   1.10455   1.10594
 Alpha virt. eigenvalues --    1.10669   1.11129   1.11534   1.11878   1.12116
 Alpha virt. eigenvalues --    1.12488   1.12689   1.12986   1.13099   1.13335
 Alpha virt. eigenvalues --    1.13685   1.13893   1.13986   1.14387   1.14633
 Alpha virt. eigenvalues --    1.15274   1.15514   1.15655   1.16197   1.16715
 Alpha virt. eigenvalues --    1.17063   1.17191   1.17584   1.17823   1.18164
 Alpha virt. eigenvalues --    1.18644   1.19432   1.19553   1.19782   1.20095
 Alpha virt. eigenvalues --    1.20567   1.20817   1.21276   1.21383   1.21601
 Alpha virt. eigenvalues --    1.21932   1.22265   1.22485   1.22896   1.23214
 Alpha virt. eigenvalues --    1.23324   1.23972   1.24322   1.24543   1.24899
 Alpha virt. eigenvalues --    1.25084   1.25460   1.25657   1.26025   1.26336
 Alpha virt. eigenvalues --    1.26858   1.27002   1.27253   1.27855   1.28121
 Alpha virt. eigenvalues --    1.28410   1.28818   1.29307   1.29535   1.29730
 Alpha virt. eigenvalues --    1.29865   1.30001   1.30544   1.30848   1.31353
 Alpha virt. eigenvalues --    1.31581   1.31820   1.32865   1.33075   1.33298
 Alpha virt. eigenvalues --    1.33860   1.34071   1.34226   1.34609   1.34818
 Alpha virt. eigenvalues --    1.35308   1.35624   1.35980   1.36352   1.36614
 Alpha virt. eigenvalues --    1.36678   1.37210   1.38155   1.38365   1.38546
 Alpha virt. eigenvalues --    1.38982   1.39418   1.39555   1.39634   1.40089
 Alpha virt. eigenvalues --    1.40409   1.41120   1.41301   1.42201   1.42591
 Alpha virt. eigenvalues --    1.42676   1.42919   1.43213   1.43741   1.44869
 Alpha virt. eigenvalues --    1.45351   1.45592   1.46044   1.46263   1.46678
 Alpha virt. eigenvalues --    1.46788   1.47187   1.47535   1.48016   1.48236
 Alpha virt. eigenvalues --    1.48702   1.48775   1.49214   1.49612   1.50038
 Alpha virt. eigenvalues --    1.50287   1.50692   1.51053   1.51255   1.51361
 Alpha virt. eigenvalues --    1.51471   1.52012   1.52272   1.52322   1.52710
 Alpha virt. eigenvalues --    1.53027   1.53358   1.53414   1.53533   1.53836
 Alpha virt. eigenvalues --    1.54037   1.54443   1.54775   1.55058   1.55172
 Alpha virt. eigenvalues --    1.55430   1.55553   1.56006   1.56259   1.56518
 Alpha virt. eigenvalues --    1.56723   1.56886   1.57157   1.57506   1.57899
 Alpha virt. eigenvalues --    1.58228   1.58358   1.58784   1.59022   1.59248
 Alpha virt. eigenvalues --    1.59543   1.59884   1.59992   1.60399   1.60478
 Alpha virt. eigenvalues --    1.60842   1.61114   1.61254   1.61410   1.61640
 Alpha virt. eigenvalues --    1.61986   1.62353   1.62609   1.62765   1.63057
 Alpha virt. eigenvalues --    1.63422   1.63655   1.63842   1.64074   1.64204
 Alpha virt. eigenvalues --    1.64398   1.64602   1.64856   1.65255   1.65371
 Alpha virt. eigenvalues --    1.65711   1.65903   1.66063   1.66194   1.66315
 Alpha virt. eigenvalues --    1.66675   1.67072   1.67336   1.67596   1.67843
 Alpha virt. eigenvalues --    1.68065   1.68149   1.68338   1.68857   1.68976
 Alpha virt. eigenvalues --    1.69308   1.69679   1.69802   1.70215   1.70462
 Alpha virt. eigenvalues --    1.70616   1.71093   1.71351   1.71440   1.71729
 Alpha virt. eigenvalues --    1.71991   1.72428   1.72559   1.72761   1.72867
 Alpha virt. eigenvalues --    1.73155   1.73484   1.74233   1.74307   1.74624
 Alpha virt. eigenvalues --    1.74988   1.75195   1.75674   1.75858   1.76279
 Alpha virt. eigenvalues --    1.76503   1.76573   1.77359   1.77485   1.77954
 Alpha virt. eigenvalues --    1.78427   1.78465   1.78787   1.79634   1.79893
 Alpha virt. eigenvalues --    1.80171   1.80380   1.80768   1.81285   1.81504
 Alpha virt. eigenvalues --    1.82058   1.82425   1.83193   1.83209   1.83572
 Alpha virt. eigenvalues --    1.83912   1.84171   1.84681   1.84868   1.85092
 Alpha virt. eigenvalues --    1.85379   1.85812   1.86157   1.86596   1.86748
 Alpha virt. eigenvalues --    1.87119   1.87407   1.87779   1.87889   1.88017
 Alpha virt. eigenvalues --    1.88513   1.88697   1.88955   1.89540   1.90147
 Alpha virt. eigenvalues --    1.90440   1.90574   1.91199   1.91332   1.91737
 Alpha virt. eigenvalues --    1.92053   1.92203   1.92545   1.92926   1.93224
 Alpha virt. eigenvalues --    1.93671   1.94007   1.94152   1.94427   1.94848
 Alpha virt. eigenvalues --    1.95214   1.95618   1.96009   1.96228   1.96841
 Alpha virt. eigenvalues --    1.97001   1.97242   1.97483   1.98088   1.98244
 Alpha virt. eigenvalues --    1.98525   1.98774   1.98996   1.99390   1.99712
 Alpha virt. eigenvalues --    2.00160   2.00481   2.00827   2.00991   2.01362
 Alpha virt. eigenvalues --    2.01733   2.01902   2.02134   2.02463   2.02713
 Alpha virt. eigenvalues --    2.02875   2.03182   2.03857   2.04195   2.04839
 Alpha virt. eigenvalues --    2.05071   2.05551   2.05877   2.06112   2.06844
 Alpha virt. eigenvalues --    2.07346   2.07753   2.07961   2.08244   2.08496
 Alpha virt. eigenvalues --    2.08961   2.09246   2.09719   2.10123   2.10370
 Alpha virt. eigenvalues --    2.10896   2.11056   2.11315   2.11484   2.12070
 Alpha virt. eigenvalues --    2.12592   2.12927   2.13372   2.13680   2.13754
 Alpha virt. eigenvalues --    2.14392   2.14928   2.15137   2.15466   2.15622
 Alpha virt. eigenvalues --    2.16003   2.16125   2.16686   2.16810   2.17041
 Alpha virt. eigenvalues --    2.17461   2.17824   2.17992   2.18448   2.18689
 Alpha virt. eigenvalues --    2.19116   2.19568   2.19790   2.20179   2.20740
 Alpha virt. eigenvalues --    2.21248   2.21385   2.21663   2.21929   2.22166
 Alpha virt. eigenvalues --    2.22625   2.22993   2.23447   2.23775   2.24102
 Alpha virt. eigenvalues --    2.24589   2.24935   2.25099   2.25346   2.25541
 Alpha virt. eigenvalues --    2.26101   2.26605   2.26899   2.27150   2.27730
 Alpha virt. eigenvalues --    2.28112   2.28444   2.28979   2.29141   2.29672
 Alpha virt. eigenvalues --    2.29748   2.29963   2.30360   2.30953   2.31019
 Alpha virt. eigenvalues --    2.31603   2.31899   2.32276   2.32660   2.32911
 Alpha virt. eigenvalues --    2.33162   2.33432   2.33787   2.34016   2.34396
 Alpha virt. eigenvalues --    2.34471   2.34827   2.35165   2.35359   2.35840
 Alpha virt. eigenvalues --    2.36197   2.36327   2.36809   2.37254   2.38091
 Alpha virt. eigenvalues --    2.38123   2.38613   2.39011   2.39334   2.39616
 Alpha virt. eigenvalues --    2.40344   2.40424   2.40858   2.41222   2.41378
 Alpha virt. eigenvalues --    2.41745   2.42074   2.42320   2.42411   2.42683
 Alpha virt. eigenvalues --    2.43253   2.43428   2.43841   2.44224   2.44558
 Alpha virt. eigenvalues --    2.44934   2.45314   2.45717   2.45982   2.46344
 Alpha virt. eigenvalues --    2.46659   2.46812   2.46904   2.47255   2.47674
 Alpha virt. eigenvalues --    2.48061   2.48699   2.49056   2.49936   2.50148
 Alpha virt. eigenvalues --    2.50263   2.50661   2.51141   2.51217   2.51506
 Alpha virt. eigenvalues --    2.51787   2.52221   2.52620   2.53096   2.53451
 Alpha virt. eigenvalues --    2.53481   2.53716   2.53963   2.54339   2.54561
 Alpha virt. eigenvalues --    2.55047   2.55437   2.55830   2.56319   2.56539
 Alpha virt. eigenvalues --    2.56712   2.56889   2.57583   2.57768   2.58172
 Alpha virt. eigenvalues --    2.58353   2.58751   2.59014   2.59069   2.59373
 Alpha virt. eigenvalues --    2.60084   2.60357   2.60499   2.60694   2.61036
 Alpha virt. eigenvalues --    2.61317   2.61769   2.61892   2.62210   2.62328
 Alpha virt. eigenvalues --    2.62543   2.62858   2.63271   2.63337   2.63959
 Alpha virt. eigenvalues --    2.64290   2.64588   2.64758   2.65045   2.65213
 Alpha virt. eigenvalues --    2.65507   2.65822   2.66052   2.66527   2.66770
 Alpha virt. eigenvalues --    2.66892   2.67113   2.67334   2.67973   2.68209
 Alpha virt. eigenvalues --    2.68317   2.68674   2.68858   2.69082   2.69334
 Alpha virt. eigenvalues --    2.69669   2.70313   2.70454   2.70684   2.71089
 Alpha virt. eigenvalues --    2.71294   2.71676   2.71832   2.72430   2.72708
 Alpha virt. eigenvalues --    2.72754   2.72790   2.73290   2.73324   2.73839
 Alpha virt. eigenvalues --    2.74352   2.74499   2.74961   2.75377   2.75683
 Alpha virt. eigenvalues --    2.75799   2.76257   2.76568   2.77003   2.77243
 Alpha virt. eigenvalues --    2.77391   2.77902   2.78271   2.78506   2.78803
 Alpha virt. eigenvalues --    2.79024   2.79630   2.79883   2.80171   2.80608
 Alpha virt. eigenvalues --    2.80922   2.81240   2.81689   2.81927   2.82348
 Alpha virt. eigenvalues --    2.82650   2.82863   2.83212   2.83486   2.83812
 Alpha virt. eigenvalues --    2.83976   2.84565   2.84877   2.85109   2.85512
 Alpha virt. eigenvalues --    2.85804   2.86019   2.86366   2.86831   2.86900
 Alpha virt. eigenvalues --    2.87619   2.88088   2.88156   2.88384   2.88762
 Alpha virt. eigenvalues --    2.89340   2.89708   2.89817   2.90191   2.90428
 Alpha virt. eigenvalues --    2.90976   2.90997   2.91465   2.91868   2.92123
 Alpha virt. eigenvalues --    2.92677   2.92861   2.93125   2.93393   2.93650
 Alpha virt. eigenvalues --    2.93908   2.94674   2.94854   2.95082   2.95423
 Alpha virt. eigenvalues --    2.95859   2.96198   2.96389   2.96738   2.97102
 Alpha virt. eigenvalues --    2.97394   2.97667   2.98084   2.98191   2.98439
 Alpha virt. eigenvalues --    2.98513   2.98889   2.99130   2.99370   2.99652
 Alpha virt. eigenvalues --    3.00109   3.00777   3.01012   3.01032   3.01492
 Alpha virt. eigenvalues --    3.01968   3.02009   3.02382   3.02576   3.02923
 Alpha virt. eigenvalues --    3.03333   3.03675   3.03963   3.04039   3.04490
 Alpha virt. eigenvalues --    3.04838   3.05160   3.05614   3.05963   3.06046
 Alpha virt. eigenvalues --    3.06156   3.06459   3.06781   3.07068   3.07405
 Alpha virt. eigenvalues --    3.07541   3.07971   3.08123   3.08443   3.08607
 Alpha virt. eigenvalues --    3.08952   3.09369   3.09511   3.10086   3.10318
 Alpha virt. eigenvalues --    3.10506   3.10814   3.11224   3.11278   3.11406
 Alpha virt. eigenvalues --    3.11678   3.11762   3.12207   3.12541   3.13026
 Alpha virt. eigenvalues --    3.13130   3.13194   3.13856   3.14074   3.14358
 Alpha virt. eigenvalues --    3.14834   3.15189   3.15207   3.15704   3.15808
 Alpha virt. eigenvalues --    3.15953   3.16594   3.16745   3.17056   3.17529
 Alpha virt. eigenvalues --    3.17692   3.17900   3.18161   3.18435   3.18694
 Alpha virt. eigenvalues --    3.19042   3.19297   3.19562   3.19645   3.20027
 Alpha virt. eigenvalues --    3.20196   3.20615   3.20759   3.20841   3.21237
 Alpha virt. eigenvalues --    3.21728   3.21911   3.22182   3.22216   3.22760
 Alpha virt. eigenvalues --    3.23066   3.23487   3.23725   3.23902   3.24142
 Alpha virt. eigenvalues --    3.24493   3.24821   3.24879   3.25047   3.25172
 Alpha virt. eigenvalues --    3.25407   3.25725   3.25941   3.26313   3.26347
 Alpha virt. eigenvalues --    3.26589   3.26902   3.27126   3.27572   3.27890
 Alpha virt. eigenvalues --    3.28060   3.28168   3.28531   3.28655   3.28908
 Alpha virt. eigenvalues --    3.29033   3.29375   3.29658   3.29811   3.30133
 Alpha virt. eigenvalues --    3.30294   3.30433   3.30579   3.30929   3.31276
 Alpha virt. eigenvalues --    3.31417   3.31763   3.32183   3.32319   3.32447
 Alpha virt. eigenvalues --    3.32883   3.33061   3.33442   3.33621   3.33855
 Alpha virt. eigenvalues --    3.33905   3.34217   3.34760   3.35092   3.35236
 Alpha virt. eigenvalues --    3.35700   3.35814   3.36039   3.36304   3.36482
 Alpha virt. eigenvalues --    3.36803   3.36989   3.37130   3.37432   3.37660
 Alpha virt. eigenvalues --    3.37731   3.38003   3.38293   3.38468   3.38692
 Alpha virt. eigenvalues --    3.38798   3.39109   3.39227   3.39714   3.40141
 Alpha virt. eigenvalues --    3.40609   3.40895   3.41092   3.41336   3.41354
 Alpha virt. eigenvalues --    3.41720   3.41840   3.42314   3.42528   3.42613
 Alpha virt. eigenvalues --    3.43263   3.43392   3.43670   3.43990   3.44111
 Alpha virt. eigenvalues --    3.44540   3.44621   3.44917   3.45239   3.45421
 Alpha virt. eigenvalues --    3.45728   3.45859   3.46129   3.46498   3.46719
 Alpha virt. eigenvalues --    3.47057   3.47349   3.47753   3.47793   3.48131
 Alpha virt. eigenvalues --    3.48319   3.48768   3.49082   3.49311   3.49456
 Alpha virt. eigenvalues --    3.49752   3.50113   3.50472   3.50701   3.50941
 Alpha virt. eigenvalues --    3.51208   3.51731   3.51859   3.52597   3.52743
 Alpha virt. eigenvalues --    3.52945   3.53031   3.53584   3.53665   3.53893
 Alpha virt. eigenvalues --    3.54575   3.55191   3.55408   3.55792   3.55844
 Alpha virt. eigenvalues --    3.56003   3.56344   3.56850   3.56972   3.57622
 Alpha virt. eigenvalues --    3.57799   3.58271   3.58653   3.58968   3.59383
 Alpha virt. eigenvalues --    3.59490   3.59904   3.60236   3.60877   3.61418
 Alpha virt. eigenvalues --    3.61754   3.62062   3.62396   3.62882   3.63006
 Alpha virt. eigenvalues --    3.63451   3.63474   3.64096   3.64247   3.64713
 Alpha virt. eigenvalues --    3.64851   3.65243   3.65398   3.65617   3.66227
 Alpha virt. eigenvalues --    3.66547   3.67139   3.67608   3.68060   3.68266
 Alpha virt. eigenvalues --    3.68285   3.68733   3.68959   3.69351   3.69675
 Alpha virt. eigenvalues --    3.69761   3.70341   3.70667   3.71350   3.71612
 Alpha virt. eigenvalues --    3.71914   3.72334   3.72469   3.72891   3.73585
 Alpha virt. eigenvalues --    3.73656   3.74287   3.74573   3.74677   3.75147
 Alpha virt. eigenvalues --    3.75580   3.75744   3.76387   3.76563   3.76947
 Alpha virt. eigenvalues --    3.77091   3.77390   3.77841   3.78288   3.78854
 Alpha virt. eigenvalues --    3.78928   3.79547   3.79940   3.80060   3.80948
 Alpha virt. eigenvalues --    3.81168   3.82182   3.82735   3.82845   3.83538
 Alpha virt. eigenvalues --    3.83635   3.84035   3.84761   3.85310   3.85536
 Alpha virt. eigenvalues --    3.86246   3.86510   3.86611   3.87183   3.87585
 Alpha virt. eigenvalues --    3.88047   3.88349   3.88975   3.89269   3.89834
 Alpha virt. eigenvalues --    3.90060   3.90395   3.90697   3.91137   3.91475
 Alpha virt. eigenvalues --    3.91709   3.92072   3.92353   3.93020   3.93856
 Alpha virt. eigenvalues --    3.94232   3.94538   3.94792   3.95391   3.95820
 Alpha virt. eigenvalues --    3.96383   3.96633   3.97151   3.97236   3.97962
 Alpha virt. eigenvalues --    3.98418   3.98935   3.99458   3.99687   4.00136
 Alpha virt. eigenvalues --    4.00454   4.01018   4.01330   4.01945   4.02035
 Alpha virt. eigenvalues --    4.02335   4.02821   4.02955   4.03673   4.04202
 Alpha virt. eigenvalues --    4.04582   4.04952   4.05498   4.06601   4.06966
 Alpha virt. eigenvalues --    4.07289   4.07933   4.08437   4.09107   4.09878
 Alpha virt. eigenvalues --    4.10024   4.10392   4.11431   4.11932   4.12133
 Alpha virt. eigenvalues --    4.12737   4.12937   4.13359   4.14056   4.14194
 Alpha virt. eigenvalues --    4.15196   4.15522   4.15736   4.16302   4.16558
 Alpha virt. eigenvalues --    4.17453   4.18563   4.18845   4.19232   4.19853
 Alpha virt. eigenvalues --    4.20134   4.20711   4.21147   4.21584   4.21770
 Alpha virt. eigenvalues --    4.22868   4.23143   4.23648   4.24229   4.24469
 Alpha virt. eigenvalues --    4.24908   4.25144   4.25756   4.25957   4.26585
 Alpha virt. eigenvalues --    4.26812   4.27165   4.27698   4.27921   4.28832
 Alpha virt. eigenvalues --    4.29288   4.29848   4.30303   4.30740   4.31393
 Alpha virt. eigenvalues --    4.31751   4.31798   4.32757   4.33036   4.33617
 Alpha virt. eigenvalues --    4.34081   4.34330   4.35165   4.35932   4.36006
 Alpha virt. eigenvalues --    4.36499   4.36926   4.37338   4.38195   4.38900
 Alpha virt. eigenvalues --    4.39376   4.39478   4.39797   4.40232   4.40587
 Alpha virt. eigenvalues --    4.41209   4.41342   4.42094   4.42335   4.43049
 Alpha virt. eigenvalues --    4.43281   4.43731   4.43992   4.44391   4.45103
 Alpha virt. eigenvalues --    4.45608   4.45720   4.46517   4.46815   4.47271
 Alpha virt. eigenvalues --    4.47846   4.48110   4.48535   4.49119   4.50434
 Alpha virt. eigenvalues --    4.51352   4.51756   4.52481   4.53350   4.54052
 Alpha virt. eigenvalues --    4.54640   4.55553   4.56404   4.56885   4.57101
 Alpha virt. eigenvalues --    4.57339   4.58341   4.58662   4.59980   4.61160
 Alpha virt. eigenvalues --    4.61290   4.61615   4.62147   4.62937   4.63290
 Alpha virt. eigenvalues --    4.64719   4.65208   4.65902   4.66537   4.66739
 Alpha virt. eigenvalues --    4.67307   4.67956   4.68195   4.68591   4.68956
 Alpha virt. eigenvalues --    4.69474   4.70033   4.70266   4.70555   4.71284
 Alpha virt. eigenvalues --    4.71573   4.71995   4.72504   4.72946   4.73874
 Alpha virt. eigenvalues --    4.75193   4.75494   4.76282   4.76911   4.77662
 Alpha virt. eigenvalues --    4.78577   4.79315   4.79799   4.80139   4.80887
 Alpha virt. eigenvalues --    4.81568   4.82513   4.82936   4.83537   4.83784
 Alpha virt. eigenvalues --    4.84968   4.85760   4.87248   4.87931   4.87997
 Alpha virt. eigenvalues --    4.88566   4.89299   4.89878   4.90672   4.90915
 Alpha virt. eigenvalues --    4.91687   4.91899   4.92260   4.92341   4.93182
 Alpha virt. eigenvalues --    4.93439   4.93738   4.94957   4.95267   4.96010
 Alpha virt. eigenvalues --    4.96684   4.97059   4.97553   4.98254   4.98413
 Alpha virt. eigenvalues --    4.99860   5.00969   5.02133   5.02739   5.03749
 Alpha virt. eigenvalues --    5.04070   5.04872   5.06468   5.07976   5.10577
 Alpha virt. eigenvalues --    5.11271   5.12242   5.13127   5.13225   5.15781
 Alpha virt. eigenvalues --    5.16992   5.18652   5.18895   5.19323   5.19814
 Alpha virt. eigenvalues --    5.20296   5.20447   5.21100   5.21617   5.22558
 Alpha virt. eigenvalues --    5.23173   5.23671   5.23888   5.24676   5.25411
 Alpha virt. eigenvalues --    5.27008   5.27927   5.28430   5.29524   5.30085
 Alpha virt. eigenvalues --    5.31095   5.31316   5.31807   5.33814   5.35498
 Alpha virt. eigenvalues --    5.35753   5.36272   5.37188   5.38917   5.39269
 Alpha virt. eigenvalues --    5.39524   5.40608   5.42832   5.43692   5.44193
 Alpha virt. eigenvalues --    5.44430   5.44764   5.45308   5.45758   5.46627
 Alpha virt. eigenvalues --    5.47227   5.47746   5.50667   5.51902   5.54750
 Alpha virt. eigenvalues --    5.56314   5.56878   5.57847   5.59140   5.59487
 Alpha virt. eigenvalues --    5.60870   5.61358   5.62688   5.63586   5.64562
 Alpha virt. eigenvalues --    5.64664   5.64992   5.65443   5.66457   5.68892
 Alpha virt. eigenvalues --    5.73422   5.75718   5.78410   5.80041   5.80855
 Alpha virt. eigenvalues --    5.81267   5.84083   5.85251   5.85708   5.92743
 Alpha virt. eigenvalues --    5.93882   5.95524   5.95873   5.96433   5.96617
 Alpha virt. eigenvalues --    5.97888   5.99371   6.01248   6.01512   6.05126
 Alpha virt. eigenvalues --    6.07600   6.09275   6.09399   6.10824   6.11592
 Alpha virt. eigenvalues --    6.15082   6.15441   6.18810   6.19520   6.20686
 Alpha virt. eigenvalues --    6.23081   6.26928   6.28431   6.30477   6.31427
 Alpha virt. eigenvalues --    6.34890   6.38011   6.39777   6.44149   6.44829
 Alpha virt. eigenvalues --    6.47677   6.48689   6.50117   6.55605   6.67294
 Alpha virt. eigenvalues --    6.74836   6.76645   6.78103   6.87127   6.87976
 Alpha virt. eigenvalues --    6.92436   6.95395   6.99529   7.09869   7.13159
 Alpha virt. eigenvalues --    7.15247   7.19831   7.21739   7.25931   7.29554
 Alpha virt. eigenvalues --    9.28128   9.51651   9.60094  20.16261  22.44644
 Alpha virt. eigenvalues --   22.51010  22.53904  22.54170  22.54872  22.55117
 Alpha virt. eigenvalues --   22.58508  22.59519  22.64479  22.68497  22.70115
 Alpha virt. eigenvalues --   22.70475  22.71572  22.75353  22.81070  22.87554
 Alpha virt. eigenvalues --   22.89860  22.91849  22.92754  22.95638  22.98991
 Alpha virt. eigenvalues --   23.00939  23.03396  23.07317  23.11791  23.16093
 Alpha virt. eigenvalues --   23.18657  23.21661  23.22547  23.30144  23.33202
 Alpha virt. eigenvalues --   23.36211  23.42381  23.47917  23.49752  23.55535
 Alpha virt. eigenvalues --   23.64725  23.67764  23.71086  23.74507  23.83299
 Alpha virt. eigenvalues --   32.48432  32.79192  32.96190  33.03082  33.08287
 Alpha virt. eigenvalues --   33.15587  43.94044  43.96161  44.01176  44.13941
  Beta  occ. eigenvalues -- -256.32591 -89.00720 -30.05381 -25.89067 -25.88436
  Beta  occ. eigenvalues --  -25.88224 -19.25994 -19.25603 -19.18361 -19.16360
  Beta  occ. eigenvalues --  -14.44550 -14.37538 -14.36102 -14.35984 -14.35826
  Beta  occ. eigenvalues --  -14.35767 -10.35319 -10.34046 -10.27500 -10.25863
  Beta  occ. eigenvalues --  -10.24957 -10.24770 -10.24658 -10.24467 -10.24150
  Beta  occ. eigenvalues --  -10.23988 -10.23961 -10.23770 -10.23542 -10.23116
  Beta  occ. eigenvalues --  -10.23024 -10.22913 -10.22904 -10.22700 -10.22496
  Beta  occ. eigenvalues --  -10.22327 -10.22188 -10.22145 -10.21990 -10.21969
  Beta  occ. eigenvalues --  -10.21918 -10.21759 -10.21702 -10.21529 -10.21435
  Beta  occ. eigenvalues --  -10.21411 -10.21379 -10.21264 -10.21147 -10.21038
  Beta  occ. eigenvalues --  -10.20956 -10.20860 -10.20820 -10.20206 -10.19969
  Beta  occ. eigenvalues --  -10.18819 -10.18413  -7.98666  -5.92342  -5.92000
  Beta  occ. eigenvalues --   -5.91438  -3.36179  -2.11087  -2.10933  -2.10715
  Beta  occ. eigenvalues --   -1.17507  -1.15656  -1.06259  -1.02892  -1.01168
  Beta  occ. eigenvalues --   -0.96524  -0.95436  -0.94963  -0.93954  -0.90348
  Beta  occ. eigenvalues --   -0.85358  -0.85046  -0.83887  -0.83575  -0.82566
  Beta  occ. eigenvalues --   -0.82141  -0.81386  -0.80033  -0.79877  -0.78673
  Beta  occ. eigenvalues --   -0.77760  -0.76987  -0.76384  -0.75361  -0.74267
  Beta  occ. eigenvalues --   -0.73578  -0.72633  -0.72539  -0.72026  -0.71563
  Beta  occ. eigenvalues --   -0.70270  -0.68910  -0.68599  -0.68438  -0.66143
  Beta  occ. eigenvalues --   -0.65617  -0.64718  -0.64410  -0.64289  -0.63047
  Beta  occ. eigenvalues --   -0.62935  -0.62103  -0.59252  -0.58306  -0.56694
  Beta  occ. eigenvalues --   -0.56399  -0.56104  -0.54845  -0.54565  -0.53831
  Beta  occ. eigenvalues --   -0.53072  -0.52365  -0.52082  -0.51651  -0.50612
  Beta  occ. eigenvalues --   -0.50386  -0.49814  -0.49762  -0.49385  -0.49355
  Beta  occ. eigenvalues --   -0.49166  -0.48371  -0.48083  -0.47927  -0.47890
  Beta  occ. eigenvalues --   -0.47575  -0.47369  -0.46231  -0.45568  -0.45338
  Beta  occ. eigenvalues --   -0.44400  -0.44181  -0.44142  -0.44042  -0.43815
  Beta  occ. eigenvalues --   -0.43721  -0.43657  -0.43469  -0.43311  -0.43194
  Beta  occ. eigenvalues --   -0.43016  -0.42788  -0.42714  -0.42656  -0.42407
  Beta  occ. eigenvalues --   -0.42246  -0.41830  -0.41709  -0.41209  -0.40823
  Beta  occ. eigenvalues --   -0.40487  -0.40390  -0.40230  -0.39936  -0.39625
  Beta  occ. eigenvalues --   -0.39131  -0.38748  -0.38377  -0.38111  -0.38004
  Beta  occ. eigenvalues --   -0.37772  -0.37722  -0.37174  -0.37011  -0.36654
  Beta  occ. eigenvalues --   -0.36256  -0.36004  -0.35689  -0.35501  -0.35378
  Beta  occ. eigenvalues --   -0.35252  -0.35034  -0.34697  -0.34301  -0.33667
  Beta  occ. eigenvalues --   -0.33428  -0.32909  -0.32700  -0.32206  -0.32150
  Beta  occ. eigenvalues --   -0.31631  -0.31419  -0.31282  -0.31140  -0.29960
  Beta  occ. eigenvalues --   -0.29744  -0.28137  -0.27462  -0.27152  -0.26364
  Beta  occ. eigenvalues --   -0.25174  -0.24651  -0.23867  -0.23292  -0.23004
  Beta  occ. eigenvalues --   -0.22621  -0.18558  -0.18373  -0.14504
  Beta virt. eigenvalues --   -0.07259  -0.06034  -0.01942  -0.01057  -0.00019
  Beta virt. eigenvalues --    0.00190   0.01160   0.02079   0.02475   0.02894
  Beta virt. eigenvalues --    0.03337   0.03594   0.04242   0.04407   0.04672
  Beta virt. eigenvalues --    0.04886   0.05294   0.05468   0.05945   0.06221
  Beta virt. eigenvalues --    0.06487   0.06683   0.07031   0.07109   0.07181
  Beta virt. eigenvalues --    0.07388   0.07701   0.07899   0.08464   0.08510
  Beta virt. eigenvalues --    0.08683   0.09087   0.09290   0.09530   0.09764
  Beta virt. eigenvalues --    0.09938   0.10184   0.10326   0.10608   0.10837
  Beta virt. eigenvalues --    0.10980   0.11348   0.11505   0.11809   0.11874
  Beta virt. eigenvalues --    0.12097   0.12429   0.12920   0.12983   0.13326
  Beta virt. eigenvalues --    0.13582   0.13808   0.13874   0.13902   0.14010
  Beta virt. eigenvalues --    0.14180   0.14196   0.14424   0.14532   0.14675
  Beta virt. eigenvalues --    0.14849   0.14952   0.15217   0.15382   0.15478
  Beta virt. eigenvalues --    0.15606   0.15709   0.16061   0.16620   0.16896
  Beta virt. eigenvalues --    0.17022   0.17075   0.17547   0.17836   0.17943
  Beta virt. eigenvalues --    0.18267   0.18490   0.18776   0.18844   0.19109
  Beta virt. eigenvalues --    0.19199   0.19441   0.19894   0.19946   0.20105
  Beta virt. eigenvalues --    0.20474   0.20627   0.20775   0.20994   0.21139
  Beta virt. eigenvalues --    0.21277   0.21577   0.21683   0.22038   0.22138
  Beta virt. eigenvalues --    0.22318   0.22537   0.22853   0.23162   0.23295
  Beta virt. eigenvalues --    0.23381   0.23781   0.23871   0.24197   0.24259
  Beta virt. eigenvalues --    0.24491   0.24561   0.24624   0.24714   0.24960
  Beta virt. eigenvalues --    0.25265   0.25662   0.25760   0.26247   0.26365
  Beta virt. eigenvalues --    0.26690   0.26765   0.27084   0.27155   0.27315
  Beta virt. eigenvalues --    0.27350   0.27679   0.27717   0.28187   0.28359
  Beta virt. eigenvalues --    0.28517   0.28725   0.28773   0.28964   0.29335
  Beta virt. eigenvalues --    0.29584   0.29883   0.30057   0.30189   0.30299
  Beta virt. eigenvalues --    0.30527   0.30750   0.31367   0.31713   0.31774
  Beta virt. eigenvalues --    0.32012   0.32225   0.32313   0.32541   0.32748
  Beta virt. eigenvalues --    0.32928   0.33327   0.33557   0.33794   0.34346
  Beta virt. eigenvalues --    0.34408   0.34560   0.34771   0.35011   0.35499
  Beta virt. eigenvalues --    0.35715   0.35842   0.36176   0.36314   0.36396
  Beta virt. eigenvalues --    0.36625   0.36949   0.37466   0.37659   0.37736
  Beta virt. eigenvalues --    0.37899   0.37914   0.38334   0.38387   0.38618
  Beta virt. eigenvalues --    0.38735   0.38876   0.39209   0.39400   0.39658
  Beta virt. eigenvalues --    0.39752   0.40060   0.40093   0.40315   0.40528
  Beta virt. eigenvalues --    0.40644   0.40708   0.40986   0.41049   0.41284
  Beta virt. eigenvalues --    0.41447   0.41522   0.41827   0.42205   0.42249
  Beta virt. eigenvalues --    0.42417   0.42532   0.42601   0.42783   0.42837
  Beta virt. eigenvalues --    0.42989   0.43258   0.43484   0.43602   0.43851
  Beta virt. eigenvalues --    0.43861   0.44244   0.44429   0.44644   0.44719
  Beta virt. eigenvalues --    0.44860   0.44934   0.45234   0.45325   0.45531
  Beta virt. eigenvalues --    0.45699   0.45770   0.45961   0.46018   0.46113
  Beta virt. eigenvalues --    0.46369   0.46582   0.46616   0.46760   0.47083
  Beta virt. eigenvalues --    0.47378   0.47437   0.47509   0.47706   0.47881
  Beta virt. eigenvalues --    0.48130   0.48203   0.48443   0.48554   0.48616
  Beta virt. eigenvalues --    0.48647   0.48988   0.49196   0.49318   0.49534
  Beta virt. eigenvalues --    0.49735   0.50007   0.50399   0.50418   0.50512
  Beta virt. eigenvalues --    0.50621   0.50739   0.51026   0.51296   0.51437
  Beta virt. eigenvalues --    0.51576   0.51655   0.51913   0.52105   0.52248
  Beta virt. eigenvalues --    0.52398   0.52786   0.53088   0.53286   0.53381
  Beta virt. eigenvalues --    0.53476   0.53614   0.54060   0.54084   0.54302
  Beta virt. eigenvalues --    0.54462   0.54651   0.54713   0.55085   0.55320
  Beta virt. eigenvalues --    0.55438   0.55655   0.55826   0.56101   0.56203
  Beta virt. eigenvalues --    0.56287   0.56579   0.56757   0.57018   0.57124
  Beta virt. eigenvalues --    0.57382   0.57770   0.57835   0.58088   0.58315
  Beta virt. eigenvalues --    0.58340   0.58578   0.58906   0.58945   0.59435
  Beta virt. eigenvalues --    0.59521   0.59720   0.59992   0.60354   0.60535
  Beta virt. eigenvalues --    0.60696   0.60872   0.61139   0.61377   0.61523
  Beta virt. eigenvalues --    0.61661   0.61930   0.62327   0.62518   0.62812
  Beta virt. eigenvalues --    0.63464   0.63911   0.64062   0.64217   0.64396
  Beta virt. eigenvalues --    0.64436   0.64758   0.64850   0.65161   0.65412
[...]
  1741. RY*(   4) H  83                  0.00002     2.33096   
  1742. RY*(   5) H  83                  0.00001     2.71175   
  1743. RY*(   1) H  84                  0.00040     1.05550   
  1744. RY*(   2) H  84                  0.00009     2.17794   
  1745. RY*(   3) H  84                  0.00007     1.87624   
  1746. RY*(   4) H  84                  0.00003     2.20851   
  1747. RY*(   5) H  84                  0.00001     2.97690   
  1748. RY*(   1) H  85                  0.00084     0.72003   
  1749. RY*(   2) H  85                  0.00014     2.26751   
  1750. RY*(   3) H  85                  0.00013     2.17323   
  1751. RY*(   4) H  85                  0.00005     3.02901   
  1752. RY*(   5) H  85                  0.00001     3.25227   
  1753. RY*(   1) H  86                  0.00103     0.66165   
  1754. RY*(   2) H  86                  0.00008     2.49452   
  1755. RY*(   3) H  86                  0.00008     2.49709   
  1756. RY*(   4) H  86                  0.00004     2.40244   
  1757. RY*(   5) H  86                  0.00000     3.01641   
  1758. RY*(   1) H  87                  0.00087     0.69237   
  1759. RY*(   2) H  87                  0.00008     2.52713   
  1760. RY*(   3) H  87                  0.00007     2.51878   
  1761. RY*(   4) H  87                  0.00004     2.34442   
  1762. RY*(   5) H  87                  0.00000     3.06929   
  1763. RY*(   1) H  88                  0.00040     1.13304   
  1764. RY*(   2) H  88                  0.00010     1.56532   
  1765. RY*(   3) H  88                  0.00006     2.42712   
  1766. RY*(   4) H  88                  0.00001     2.71832   
  1767. RY*(   5) H  88                  0.00001     2.84823   
  1768. RY*(   1) H  89                  0.00027     0.89356   
  1769. RY*(   2) H  89                  0.00009     2.00973   
  1770. RY*(   3) H  89                  0.00005     2.27351   
  1771. RY*(   4) H  89                  0.00003     2.29265   
  1772. RY*(   5) H  89                  0.00000     2.94222   
  1773. RY*(   1) H  90                  0.00039     1.12510   
  1774. RY*(   2) H  90                  0.00009     2.02542   
  1775. RY*(   3) H  90                  0.00006     2.02502   
  1776. RY*(   4) H  90                  0.00003     2.45071   
  1777. RY*(   5) H  90                  0.00001     3.10225   
  1778. RY*(   1) H  91                  0.00038     1.06299   
  1779. RY*(   2) H  91                  0.00008     1.61481   
  1780. RY*(   3) H  91                  0.00008     2.33239   
  1781. RY*(   4) H  91                  0.00004     2.23170   
  1782. RY*(   5) H  91                  0.00001     3.02179   
  1783. RY*(   1) H  92                  0.00028     1.34968   
  1784. RY*(   2) H  92                  0.00010     1.88145   
  1785. RY*(   3) H  92                  0.00003     2.56534   
  1786. RY*(   4) H  92                  0.00003     2.24216   
  1787. RY*(   5) H  92                  0.00001     2.21755   
  1788. RY*(   1) H  93                  0.00042     1.01921   
  1789. RY*(   2) H  93                  0.00009     1.86269   
  1790. RY*(   3) H  93                  0.00005     2.07859   
  1791. RY*(   4) H  93                  0.00003     2.06656   
  1792. RY*(   5) H  93                  0.00001     3.06260   
  1793. RY*(   1) H  94                  0.00106     0.66555   
  1794. RY*(   2) H  94                  0.00014     2.17345   
  1795. RY*(   3) H  94                  0.00013     2.26718   
  1796. RY*(   4) H  94                  0.00006     3.07569   
  1797. RY*(   5) H  94                  0.00001     3.27796   
  1798. RY*(   1) H  95                  0.00035     1.02879   
  1799. RY*(   2) H  95                  0.00009     1.80139   
  1800. RY*(   3) H  95                  0.00003     2.08870   
  1801. RY*(   4) H  95                  0.00003     2.05063   
  1802. RY*(   5) H  95                  0.00000     2.96098   
  1803. RY*(   1) H  96                  0.00041     1.00069   
  1804. RY*(   2) H  96                  0.00006     1.75462   
  1805. RY*(   3) H  96                  0.00006     2.24243   
  1806. RY*(   4) H  96                  0.00003     2.07687   
  1807. RY*(   5) H  96                  0.00000     3.05471   
  1808. RY*(   1) H  97                  0.00044     1.05625   
  1809. RY*(   2) H  97                  0.00009     1.69550   
  1810. RY*(   3) H  97                  0.00003     2.15483   
  1811. RY*(   4) H  97                  0.00002     2.09644   
  1812. RY*(   5) H  97                  0.00001     2.92976   
  1813. RY*(   1) H  98                  0.00080     0.76538   
  1814. RY*(   2) H  98                  0.00015     2.26613   
  1815. RY*(   3) H  98                  0.00011     2.20087   
  1816. RY*(   4) H  98                  0.00005     2.99461   
  1817. RY*(   5) H  98                  0.00001     3.25918   
  1818. RY*(   1) H  99                  0.00063     0.62820   
  1819. RY*(   2) H  99                  0.00008     2.64774   
  1820. RY*(   3) H  99                  0.00005     2.28853   
  1821. RY*(   4) H  99                  0.00005     2.45523   
  1822. RY*(   5) H  99                  0.00000     2.98106   
  1823. RY*(   1) H 100                  0.00039     1.79299   
  1824. RY*(   2) H 100                  0.00009     2.69548   
  1825. RY*(   3) H 100                  0.00006     2.44054   
  1826. RY*(   4) H 100                  0.00003     1.26536   
  1827. RY*(   5) H 100                  0.00000     3.12050   
  1828. RY*(   1) H 101                  0.00030     1.08575   
  1829. RY*(   2) H 101                  0.00007     1.73878   
  1830. RY*(   3) H 101                  0.00006     2.38669   
  1831. RY*(   4) H 101                  0.00003     2.54694   
  1832. RY*(   5) H 101                  0.00000     2.83735   
  1833. RY*(   1) H 102                  0.00046     1.01398   
  1834. RY*(   2) H 102                  0.00007     2.12692   
  1835. RY*(   3) H 102                  0.00004     2.36732   
  1836. RY*(   4) H 102                  0.00004     2.23667   
  1837. RY*(   5) H 102                  0.00001     3.05051   
  1838. RY*(   1) H 103                  0.00040     2.09160   
  1839. RY*(   2) H 103                  0.00037     1.65333   
  1840. RY*(   3) H 103                  0.00014     2.19975   
  1841. RY*(   4) H 103                  0.00010     1.51529   
  1842. RY*(   5) H 103                  0.00001     3.32739   
  1857. BD*(   1) C   7 - C   8          0.00421     0.33806   
  1858. BD*(   1) C   7 - H  59          0.00560     0.40972   
  1859. BD*(   1) C   7 - H  60          0.00359     0.41521   
  1860. BD*(   1) C   7 - H  61          0.00293     0.39971   
  1861. BD*(   1) C   8 - S   9          0.01714     0.18428   
  1862. BD*(   1) C   8 - H  57          0.01137     0.41674   
  1863. BD*(   1) C   8 - H  58          0.00628     0.40861   
  1864. BD*(   1) S   9 - C  10          0.01065     0.19318   
  1865. BD*(   1) S   9 -Fe  53          0.03622     0.28995   
  1866. BD*(   1) C  10 - H  54          0.00569     0.39753   
  1867. BD*(   1) C  10 - H  55          0.00678     0.40263   
  1868. BD*(   1) C  10 - H  56          0.00850     0.43556   
  1869. BD*(   1) C  11 - C  15          0.01041     0.52013   
  1870. BD*(   2) C  11 - C  15          0.21540     0.03839  1888(v),196(v),123(v),474(g)
                                                    1874(r)
  1871. BD*(   1) C  11 - C  42          0.01003     0.52426   
  1872. BD*(   1) C  11 - H  98          0.00551     0.46154   
  1873. BD*(   1) C  12 - C  18          0.01071     0.58816   
  1874. BD*(   2) C  12 - C  18          0.23084     0.04687  1888(v),1882(r),1908(v)
                                                    123(v),500(g),1878(r)
                                                    1870(r),660(g)
  1875. BD*(   1) C  12 - C  25          0.01056     0.58622   
  1876. BD*(   1) C  12 - H  94          0.00736     0.45509   
  1877. BD*(   1) C  13 - C  28          0.01035     0.57086   
  1878. BD*(   2) C  13 - C  28          0.20430     0.04976  1910(v),1926(v),1908(v)
                                                    526(g),1874(r),1882(r)
                                                    920(g)
  1879. BD*(   1) C  13 - C  32          0.01071     0.56604   
  1880. BD*(   1) C  13 - H  85          0.00688     0.45456   
  1881. BD*(   1) C  14 - C  35          0.00989     0.56183   
  1882. BD*(   2) C  14 - C  35          0.21838     0.04687  1874(r),1928(v),1944(v)
                                                    1926(v),552(g),1878(r)
                                                    1102(g)
  1883. BD*(   1) C  14 - C  39          0.00992     0.56319   
  1884. BD*(   1) C  14 - H  76          0.00650     0.45669   
  1885. BD*(   1) C  15 - C  16          0.01648     0.47946   
  1886. BD*(   1) C  15 - N  49          0.01275     0.48671   
  1887. BD*(   1) C  16 - C  17          0.01003     0.57264   
  1888. BD*(   2) C  16 - C  17          0.14312     0.05750  1874(v),1870(v),1896(v)
                                                    1895(v),1897(v),1893(v)
                                                    1904(r)
  1889. BD*(   1) C  16 - C  20          0.01228     0.37053   
  1890. BD*(   1) C  17 - C  18          0.01650     0.49105   
  1891. BD*(   1) C  17 - C  19          0.00898     0.35897   
  1892. BD*(   1) C  18 - N  49          0.01390     0.48514   
  1893. BD*(   1) C  19 - H  95          0.00342     0.40096   
  1894. BD*(   1) C  19 - H  96          0.00298     0.41191   
  1895. BD*(   1) C  19 - H  97          0.00480     0.40297   
  1896. BD*(   1) C  20 - C  21          0.00718     0.36068   
  1897. BD*(   1) C  20 - H  99          0.00777     0.40827   
  1898. BD*(   1) C  20 - H 100          0.00631     0.42072   
  1899. BD*(   1) C  21 - C  22          0.04088     0.34939   
  1900. BD*(   1) C  21 - H 101          0.00583     0.39374   
  1901. BD*(   1) C  21 - H 102          0.00736     0.39737   
  1902. BD*(   1) C  22 - O  23          0.03351     0.52971   
  1903. BD*(   1) C  22 - O  24          0.02772     0.51637   
  1904. BD*(   2) C  22 - O  24          0.08338     0.02984   
  1905. BD*(   1) O  23 - H 103          0.00795     0.37179   
  1906. BD*(   1) C  25 - C  26          0.01495     0.51296   
  1907. BD*(   1) C  25 - N  50          0.01446     0.45056   
  1908. BD*(   2) C  25 - N  50          0.35216     0.00224  1874(v),1910(v),1878(v)
                                                    839(g),210(r),1853(r),123(r)
                                                    1488(g),500(v),206(r)
                                                    1944(r),841(g),503(v),207(r)
                                                    1865(r)
  1909. BD*(   1) C  26 - C  27          0.01111     0.56902   
  1910. BD*(   2) C  26 - C  27          0.13400     0.06451  1878(v),1908(v),1919(v)
                                                    1917(v),1920(v),1915(v)
  1911. BD*(   1) C  26 - C  29          0.00966     0.35674   
  1912. BD*(   1) C  27 - C  28          0.01832     0.45012   
  1913. BD*(   1) C  27 - C  30          0.01190     0.48878   
  1914. BD*(   1) C  28 - N  50          0.01209     0.47219   
  1915. BD*(   1) C  29 - H  91          0.00588     0.42380   
  1916. BD*(   1) C  29 - H  92          0.00518     0.43159   
  1917. BD*(   1) C  29 - H  93          0.00447     0.40901   
  1918. BD*(   1) C  30 - C  31          0.00395     0.51245   
  1919. BD*(   1) C  30 - H  86          0.01409     0.40163   
  1920. BD*(   1) C  30 - H  87          0.01250     0.40252   
  1921. BD*(   1) C  31 - H  88          0.00657     0.40950   
  1922. BD*(   1) C  31 - H  89          0.00539     0.42707   
  1923. BD*(   1) C  31 - H  90          0.00740     0.41389   
  1924. BD*(   1) C  32 - C  33          0.01613     0.47448   
  1925. BD*(   1) C  32 - N  51          0.01275     0.48856   
  1926. BD*(   2) C  32 - N  51          0.29908     0.01720  1878(v),1928(v),1882(v)
                                                    1021(g),210(r),1514(g)
                                                    1023(g),526(v),123(r),206(r)
  1927. BD*(   1) C  33 - C  34          0.01180     0.55442   
  1928. BD*(   2) C  33 - C  34          0.13655     0.06123  1882(v),1926(v),1937(v)
                                                    1938(v),1934(v),1074(g)
                                                    1935(v)
  1929. BD*(   1) C  33 - C  36          0.00845     0.35772   
  1930. BD*(   1) C  34 - C  35          0.01671     0.47789   
  1931. BD*(   1) C  34 - C  37          0.01186     0.49491   
  1932. BD*(   1) C  35 - N  51          0.01316     0.45478   
  1933. BD*(   1) C  36 - H  82          0.00447     0.42507   
  1934. BD*(   1) C  36 - H  83          0.00525     0.40932   
  1935. BD*(   1) C  36 - H  84          0.00591     0.43140   
  1936. BD*(   1) C  37 - C  38          0.00416     0.51549   
  1937. BD*(   1) C  37 - H  77          0.01212     0.40229   
  1938. BD*(   1) C  37 - H  78          0.01177     0.40448   
  1939. BD*(   1) C  38 - H  79          0.00452     0.42198   
  1940. BD*(   1) C  38 - H  80          0.01057     0.44317   
  1941. BD*(   1) C  38 - H  81          0.00510     0.40932   
  1942. BD*(   1) C  39 - C  40          0.01619     0.48503   
  1943. BD*(   1) C  39 - N  52          0.01330     0.47101   
  1944. BD*(   2) C  39 - N  52          0.34770     0.00571  1882(v),1946(v),196(v)
                                                    210(r),1203(g),1540(g)
                                                    123(r),206(r),552(v),1205(g)
                                                    1908(r),1853(r)
  1945. BD*(   1) C  40 - C  41          0.00957     0.59993   
  1946. BD*(   2) C  40 - C  41          0.12677     0.07255  1944(v),196(v),1953(v)
                                                    1954(v),1952(v)
  1947. BD*(   1) C  40 - C  43          0.00869     0.37173   
  1948. BD*(   1) C  41 - C  42          0.01709     0.47530   
  1949. BD*(   1) C  41 - C  44          0.01070     0.39035   
  1950. BD*(   1) C  42 - N  52          0.01240     0.48683   
  1951. BD*(   1) C  43 - H  73          0.00243     0.41912   
  1952. BD*(   1) C  43 - H  74          0.00359     0.41554   
  1953. BD*(   1) C  43 - H  75          0.00408     0.41258   
  1954. BD*(   1) C  44 - C  45          0.00674     0.35854   
  1955. BD*(   1) C  44 - H  71          0.00624     0.42735   
  1956. BD*(   1) C  44 - H  72          0.00593     0.43223   
  1957. BD*(   1) C  45 - C  46          0.04012     0.35211   
  1958. BD*(   1) C  45 - H  69          0.00564     0.41054   
  1959. BD*(   1) C  45 - H  70          0.00630     0.39299   
  1960. BD*(   1) C  46 - O  47          0.03599     0.49105   
  1961. BD*(   1) C  46 - O  48          0.02667     0.49840   
  1962. BD*(   2) C  46 - O  48          0.10622     0.06652  1961(g),1959(v),1958(v)
                                                    1439(g)
  1963. BD*(   1) O  47 - H  68          0.00560     0.38264   
       -------------------------------
              Total Lewis  176.91621  ( 97.1292%)
        Valence non-Lewis    4.90018  (  2.6903%)
        Rydberg non-Lewis    0.32877  (  0.1805%)
       -------------------------------
            Total unit  2  182.14517  (100.0000%)
           Charge unit  2    1.85483
 1\1\GINC-NODE462\SP\UPBE1PBE\def2TZVP\C41H50Fe1N6O4S1(5)\ZHARTOVSKA\01
 -Sep-2022\0\\# PBE1PBE/def2TZVP empiricaldispersion=GD3BJ scf=maxcycle
 =999 geom=check pop=nbo\\1vb6_II_Q\\0,5\C,0,-2.424,-20.167999,-17.7560
 01\C,0,-1.867,-19.166,-16.792\N,0,-1.739,-17.827999,-17.097\C,0,-1.43,
 -19.306,-15.519\C,0,-1.25,-17.184999,-16.052999\N,0,-1.053,-18.058001,
 -15.081\C,0,0.45697758,-17.95830189,-8.41996971\C,0,-0.44,-17.849001,-
 9.667\S,0,0.424,-16.907,-10.952\C,0,2.103,-17.461,-10.658\C,0,-3.488,-
 18.146999,-11.841\C,0,0.475,-20.855,-12.647\C,0,2.812,-16.966999,-14.3
 44\C,0,-1.12,-14.231,-13.549\C,0,-2.587,-19.247999,-11.935\C,0,-2.932,
 -20.6,-11.506\C,0,-1.805,-21.367001,-11.727\C,0,-0.802,-20.481001,-12.
 283\C,0,-1.657,-22.875999,-11.434\C,0,-4.327,-21.063,-11.046\C,0,-4.33
 1,-21.563,-9.609\C,0,-3.95,-20.499001,-8.605\O,0,-2.992,-20.737,-7.867
 \O,0,-4.603,-19.431999,-8.572\C,0,1.452,-20.034,-13.173\C,0,2.769,-20.
 487,-13.523\C,0,3.487,-19.410999,-14.027\C,0,2.526,-18.271999,-13.951\
 C,0,3.248,-21.954,-13.337\C,0,4.848,-19.458,-14.494\C,0,5.43718768,-20
 .66545086,-14.0954498\C,0,1.931,-15.889,-14.27\C,0,2.322,-14.539,-14.6
 88\C,0,1.194,-13.739,-14.465\C,0,0.167,-14.634,-13.918\C,0,3.717,-14.1
 58,-15.246\C,0,0.995,-12.333,-14.685\C,0,2.20853082,-11.74303756,-15.0
 6342995\C,0,-2.116,-15.047,-13.008\C,0,-3.443,-14.59,-12.61\C,0,-4.099
 ,-15.687,-12.125\C,0,-3.174,-16.819,-12.245\C,0,-4.001,-13.156,-12.69\
 C,0,-5.525,-15.74,-11.562\C,0,-5.357,-15.764,-10.037\C,0,-6.585,-15.34
 9,-9.233\O,0,-6.445,-15.222,-7.988\O,0,-7.668,-15.154,-9.838\N,0,-1.29
 2,-19.194,-12.411\N,0,1.284,-18.655001,-13.442\N,0,0.629,-15.962,-13.8
 07\N,0,-1.964,-16.415001,-12.778\Fe,0,-0.402,-17.572001,-13.123\H,0,2.
 74283065,-16.61187198,-10.53759093\H,0,2.13140383,-18.05772314,-9.7702
 9807\H,0,2.43711724,-18.04413915,-11.49059498\H,0,-0.66328638,-18.8294
 3156,-10.0327856\H,0,-1.35000161,-17.3487389,-9.40905641\H,0,1.3748792
 1,-17.43670896,-8.5940312\H,0,-0.04544094,-17.52557051,-7.58019642\H,0
 ,0.66471914,-18.98856903,-8.2192384\H,0,-1.38602936,-20.21643011,-14.9
 5856838\H,0,-1.04762584,-16.13552516,-16.00250783\H,0,-1.9791923,-17.4
 0946593,-17.97286399\H,0,-1.74563411,-20.99042479,-17.84730015\H,0,-3.
 36763089,-20.52217969,-17.39681194\H,0,-2.5566325,-19.70717867,-18.712
 53289\H,0,-5.5654052,-15.1829708,-7.60539093\H,0,-5.08749005,-16.75782
 718,-9.74618749\H,0,-4.55168658,-15.10830396,-9.77925399\H,0,-6.022230
 92,-16.62724052,-11.89436377\H,0,-6.07430299,-14.87180373,-11.86100076
 \H,0,-3.31581583,-12.53625783,-13.22976133\H,0,-4.94451449,-13.1680529
 ,-13.19451475\H,0,-4.13016516,-12.76786754,-11.70127883\H,0,-1.3650581
 1,-13.1997123,-13.69491847\H,0,0.27251664,-12.19225514,-15.46160072\H,
 0,0.64274415,-11.87724362,-13.78327835\H,0,2.21319203,-10.71502949,-14
 .76665111\H,0,3.01808761,-12.2554696,-14.58705698\H,0,2.32087053,-11.8
 0816418,-16.12552143\H,0,4.41882934,-14.93026432,-15.00947645\H,0,3.65
 716398,-14.04351916,-16.30817409\H,0,4.03799666,-13.23720635,-14.80554
 546\H,0,3.78931294,-16.77569619,-14.73536001\H,0,4.86124881,-19.390018
 51,-15.56175605\H,0,5.39643122,-18.63899858,-14.07763492\H,0,5.0279225
 8,-21.46914906,-14.67118522\H,0,6.49429086,-20.61573254,-14.25344012\H
 ,0,5.23920745,-20.8333865,-13.05742212\H,0,4.18904507,-21.96008368,-12
 .82778771\H,0,2.52677545,-22.49425537,-12.76006042\H,0,3.35791026,-22.
 41750451,-14.29511445\H,0,0.7338584,-21.88383212,-12.5077276\H,0,-0.75
 318818,-23.04617832,-10.8871333\H,0,-2.4924481,-23.21056443,-10.855214
 68\H,0,-1.62281814,-23.4168021,-12.35663948\H,0,-4.46316194,-18.331058
 67,-11.44089848\H,0,-4.65799906,-21.85272864,-11.68761382\H,0,-5.00813
 605,-20.24189546,-11.1281037\H,0,-5.31133489,-21.92126563,-9.37343845\
 H,0,-3.63938766,-22.37528621,-9.52675961\H,0,-2.09583782,-20.6313472,-
 8.19461385\\Version=ES64L-G16RevA.03\State=5-A\HF=-3881.821725\S2=6.19
 6565\S2-1=0.\S2A=6.001905\RMSD=2.837e-09\Dipole=2.4469147,-1.2616167,-
 1.7740803\Quadrupole=-37.7858655,16.1580416,21.6278239,11.9388955,20.5
 857729,-4.6059268\PG=C01 [X(C41H50Fe1N6O4S1)]\\@


 SILVERMAN'S PARADOX - IF MURPHY'S LAW CAN GO WRONG, IT WILL.
 Job cpu time:       5 days 12 hours 11 minutes 43.5 seconds.
 Elapsed time:       1 days  9 hours 10 minutes 22.6 seconds.
 File lengths (MBytes):  RWF=   3538 Int=      0 D2E=      0 Chk=    296 Scr=      1
 Normal termination of Gaussian 16 at Thu Sep  1 22:19:50 2022.
