 Entering Gaussian System, Link 0=g16
 Input=/net/homes/chemie/zhartovska/work/BioModel/Konrad/2gsm/2gsm12/2gsm16/2gsm16.com
 Output=/net/homes/chemie/zhartovska/work/BioModel/Konrad/2gsm/2gsm12/2gsm16/2gsm16.log
 Initial command:
 /afs/math/software/gaussian/g16.A03/g16/l1.exe "/scratch/zhartovska_gaussian.Rq2nS5I/Gau-12878.inp" -scrdir="/scratch/zhartovska_gaussian.Rq2nS5I/"
 Entering Link 1 = /afs/math/software/gaussian/g16.A03/g16/l1.exe PID=     12879.
  
 Copyright (c) 1988,1990,1992,1993,1995,1998,2003,2009,2016,
            Gaussian, Inc.  All Rights Reserved.
  
 This is part of the Gaussian(R) 16 program.  It is based on
 the Gaussian(R) 09 system (copyright 2009, Gaussian, Inc.),
 the Gaussian(R) 03 system (copyright 2003, Gaussian, Inc.),
 the Gaussian(R) 98 system (copyright 1998, Gaussian, Inc.),
 the Gaussian(R) 94 system (copyright 1995, Gaussian, Inc.),
 the Gaussian 92(TM) system (copyright 1992, Gaussian, Inc.),
 the Gaussian 90(TM) system (copyright 1990, Gaussian, Inc.),
 the Gaussian 88(TM) system (copyright 1988, Gaussian, Inc.),
 the Gaussian 86(TM) system (copyright 1986, Carnegie Mellon
 University), and the Gaussian 82(TM) system (copyright 1983,
 Carnegie Mellon University). Gaussian is a federally registered
 trademark of Gaussian, Inc.
  
 This software contains proprietary and confidential information,
 including trade secrets, belonging to Gaussian, Inc.
  
 This software is provided under written license and may be
 used, copied, transmitted, or stored only in accord with that
 written license.
  
 The following legend is applicable only to US Government
 contracts under FAR:
  
                    RESTRICTED RIGHTS LEGEND
  
 Use, reproduction and disclosure by the US Government is
 subject to restrictions as set forth in subparagraphs (a)
 and (c) of the Commercial Computer Software - Restricted
 Rights clause in FAR 52.227-19.
  
 Gaussian, Inc.
 340 Quinnipiac St., Bldg. 40, Wallingford CT 06492
  
  
 ---------------------------------------------------------------
 Warning -- This program may not be used in any manner that
 competes with the business of Gaussian, Inc. or will provide
 assistance to any competitor of Gaussian, Inc.  The licensee
 of this program is prohibited from giving any competitor of
 Gaussian, Inc. access to this program.  By using this program,
 the user acknowledges that Gaussian, Inc. is engaged in the
 business of creating and licensing software in the field of
 computational chemistry and represents and warrants to the
 licensee that it is not a competitor of Gaussian, Inc. and that
 it will not use this program in any manner prohibited above.
 ---------------------------------------------------------------
  

 Cite this work as:
 Gaussian 16, Revision A.03,
 M. J. Frisch, G. W. Trucks, H. B. Schlegel, G. E. Scuseria, 
 M. A. Robb, J. R. Cheeseman, G. Scalmani, V. Barone, 
 G. A. Petersson, H. Nakatsuji, X. Li, M. Caricato, A. V. Marenich, 
 J. Bloino, B. G. Janesko, R. Gomperts, B. Mennucci, H. P. Hratchian, 
 J. V. Ortiz, A. F. Izmaylov, J. L. Sonnenberg, D. Williams-Young, 
 F. Ding, F. Lipparini, F. Egidi, J. Goings, B. Peng, A. Petrone, 
 T. Henderson, D. Ranasinghe, V. G. Zakrzewski, J. Gao, N. Rega, 
 G. Zheng, W. Liang, M. Hada, M. Ehara, K. Toyota, R. Fukuda, 
 J. Hasegawa, M. Ishida, T. Nakajima, Y. Honda, O. Kitao, H. Nakai, 
 T. Vreven, K. Throssell, J. A. Montgomery, Jr., J. E. Peralta, 
 F. Ogliaro, M. J. Bearpark, J. J. Heyd, E. N. Brothers, K. N. Kudin, 
 V. N. Staroverov, T. A. Keith, R. Kobayashi, J. Normand, 
 K. Raghavachari, A. P. Rendell, J. C. Burant, S. S. Iyengar, 
 J. Tomasi, M. Cossi, J. M. Millam, M. Klene, C. Adamo, R. Cammi, 
 J. W. Ochterski, R. L. Martin, K. Morokuma, O. Farkas, 
 J. B. Foresman, and D. J. Fox, Gaussian, Inc., Wallingford CT, 2016.
 
 ******************************************
 Gaussian 16:  ES64L-G16RevA.03 25-Dec-2016
                 8-Sep-2022 
 ******************************************
 %nprocs=12
 Will use up to   12 processors via shared memory.
 %mem=16GB
 %oldchk=2gsm_III_D.chk
 %chk=2gsm_III_H.chk
 Copying data from "2gsm_III_D.chk" to current chk file "2gsm_III_H.chk"
 IOpt=  2 FromEx=T IUOpen= 4 IOptOp= 5 NList=   0 IFRang= 0 IUIn= 4 IUOut= 2.
 ----------------------------------------------------------------------
 # PBE1PBE/def2TZVP empiricaldispersion=GD3BJ scf=maxcycle=999 geom=che
 ck pop=nbo
 ----------------------------------------------------------------------
 1/29=2,38=1,172=1/1;
 2/12=2,40=1/2;
 3/5=44,7=101,11=2,14=-4,25=1,30=1,74=-13,124=41/1,2,3;
 4//1;
 5/5=2,7=999,38=5/2;
 6/7=2,8=2,9=2,10=2,28=1,40=1/1,7;
 99/5=1,9=1/99;
 ----------
 2gsm_III_H
 ----------
 Structure from the checkpoint file:  "2gsm_III_H.chk"
 Charge =  1 Multiplicity = 6
 Z-Matrix found in chk file.
 C,0,-5.474,-37.528,20.323
 C,0,-5.651,-36.312,21.197001
 N,0,-6.76,-36.129002,21.996
 C,0,-4.88,-35.206001,21.370001
 C,0,-6.668,-34.964001,22.622
 N,0,-5.531,-34.386002,22.267
 Fe,0,-4.52,-32.644001,22.892
 C,0,-1.505,-33.622002,21.511999
 C,0,-3.669,-34.209,25.865999
 C,0,-7.35,-31.365,24.419001
 C,0,-5.164,-30.729,20.121
 N,0,-2.873,-33.743,23.577
 C,0,-1.717,-33.959,22.844
 C,0,-0.784,-34.632,23.719999
 C,0,-1.369,-34.789001,24.924999
 C,0,-2.709,-34.240002,24.858
 C,0,-0.713,-35.43,26.132
 C,0,0.641,-35.077999,23.351
 C,0,0.614,-36.492001,22.771999
 C,0,1.968,-36.821999,22.18
 O,0,2.509,-37.910999,22.504999
 O,0,2.522,-36.009998,21.382
 N,0,-5.361,-32.737,24.851999
 C,0,-4.884,-33.529999,25.874001
 C,0,-5.891,-33.502998,26.929001
 C,0,-6.902,-32.712002,26.533001
 C,0,-6.587,-32.209999,25.195999
 C,0,-5.815,-34.251999,28.274
 N,0,-5.992,-31.296,22.363001
 C,0,-7.062,-30.905001,23.145
 C,0,-7.835,-29.938999,22.396
 C,0,-7.245,-29.76,21.193001
 C,0,-6.066,-30.617001,21.146999
 C,0,-9.098,-29.238001,22.921
 C,0,-7.702,-28.816999,20.072001
 C,0,-8.75969665,-28.08576393,20.49994972
 N,0,-3.508,-32.266998,21.104
 C,0,-3.943,-31.403999,20.125
 C,0,-2.906,-31.361,19.101999
 C,0,-1.903,-32.160999,19.488001
 C,0,-2.265,-32.749001,20.766001
 C,0,-2.973,-30.514999,17.811001
 C,0,-0.603,-32.486,18.752001
 C,0,0.463,-31.393999,18.716999
 C,0,1.5,-31.948999,17.750999
 O,0,2.4,-32.716,18.177999
 O,0,1.407,-31.631001,16.547001
 C,0,-8.129,-32.311001,27.386999
 C,0,-8.57108656,-33.51064774,28.24549022
 H,0,-4.56452282,-38.0267336,20.58570906
 H,0,-6.29974669,-38.19327544,20.46600697
 H,0,-5.43213475,-37.22684082,19.29710992
 H,0,-7.51713514,-36.77562007,22.08890559
 H,0,-7.3904874,-34.55928526,23.29958182
 H,0,-3.9407778,-35.00818999,20.89710306
 H,0,-0.67412167,-34.08387267,21.02086084
 H,0,-5.42815395,-30.23976443,19.20679475
 H,0,-8.26923448,-31.02597678,24.84908381
 H,0,-3.44477242,-34.77809616,26.74392357
 H,0,0.2289573,-34.9580119,26.3186646
 H,0,-1.34627267,-35.31265441,26.9864564
 H,0,-0.55865769,-36.47177242,25.94282105
 H,0,-2.11563814,-30.72081274,17.20480685
 H,0,-3.86129698,-30.76234558,17.26818598
 H,0,-2.98846756,-29.47591759,18.06589426
 H,0,-0.17247032,-33.35104379,19.21161327
 H,0,-0.85094826,-32.7358406,17.74155489
 H,0,0.88966186,-31.25193368,19.6879146
 H,0,0.05301022,-30.47823941,18.34525614
 H,0,3.32412137,-32.48883142,18.05153113
 H,0,3.47960041,-35.96161681,21.33445302
 H,0,0.38460747,-37.1910653,23.54890838
 H,0,-0.13291057,-36.55023353,22.00803985
 H,0,1.25467458,-35.06533955,24.22743781
 H,0,1.04628101,-34.40501289,22.62454491
 H,0,-4.92482514,-33.96367767,28.79299859
 H,0,-6.67000253,-34.00559394,28.86826865
 H,0,-5.79741384,-35.30667488,28.09441851
 H,0,-7.86741933,-31.49289726,28.025107
 H,0,-8.93165372,-32.01836805,26.742784
 H,0,-7.83659535,-33.69890175,29.00046247
 H,0,-9.5103538,-33.29099325,28.70855498
 H,0,-8.67347458,-34.37556899,27.62393739
 H,0,-8.89326064,-28.1983192,23.06947067
 H,0,-9.88892916,-29.34760068,22.20873672
 H,0,-9.3910949,-29.68005715,23.85029099
 H,0,-8.49186734,-27.05005339,20.52165552
 H,0,-9.58426318,-28.22702938,19.83284095
 H,0,-9.03806526,-28.40286138,21.48324018
 H,0,-6.89869522,-28.16142405,19.80776074
 H,0,-7.98885959,-29.39237827,19.21669388
 Recover connectivity data from disk.
 Stoichiometry    C38H42FeN6O4(1+,6)
 Framework group  C1[X(C38H42FeN6O4)]
 Deg. of freedom   267
 Full point group                 C1      NOp   1
 Largest Abelian subgroup         C1      NOp   1
 Largest concise Abelian subgroup C1      NOp   1
                         Standard orientation:                         
 ---------------------------------------------------------------------
 Center     Atomic      Atomic             Coordinates (Angstroms)
 Number     Number       Type             X           Y           Z
 ---------------------------------------------------------------------
      1          6           0       -0.514159   -0.889651    5.116774
      2          6           0        0.318559   -0.748219    3.867598
      3          7           0        1.671159   -1.016014    3.844635
      4          6           0       -0.001279   -0.335145    2.612737
      5          6           0        2.150671   -0.772999    2.632786
      6          7           0        1.154316   -0.366543    1.861458
      7         26           0        0.979555    0.058860   -0.196649
      8          6           0       -2.473216   -0.111193   -0.172800
      9          6           0        1.143814   -3.330182   -0.907639
     10          6           0        4.410096    0.271037   -0.600190
     11          6           0        0.810378    3.474352    0.060651
     12          7           0       -0.422719   -1.471668   -0.480800
     13          6           0       -1.795613   -1.283534   -0.487776
     14          6           0       -2.391008   -2.549427   -0.853577
     15          6           0       -1.400670   -3.439615   -1.067344
     16          6           0       -0.132640   -2.780246   -0.824814
     17          6           0       -1.604658   -4.879911   -1.493963
     18          6           0       -3.896169   -2.832725   -0.994771
     19          6           0       -4.473204   -3.280400    0.347611
     20          6           0       -5.984783   -3.309008    0.264018
     21          8           0       -6.582033   -4.344531    0.657985
     22          8           0       -6.609977   -2.307316   -0.192940
     23          7           0        2.534736   -1.308801   -0.714764
     24          6           0        2.368146   -2.670165   -0.855479
     25          6           0        3.704711   -3.248725   -0.937124
     26          6           0        4.604866   -2.254498   -0.860675
     27          6           0        3.876619   -0.994977   -0.712119
     28          6           0        4.036494   -4.746506   -1.086700
     29          7           0        2.359313    1.594029   -0.253723
     30          6           0        3.722165    1.462070   -0.439530
     31          6           0        4.306353    2.785034   -0.426143
     32          6           0        3.317987    3.686557   -0.231884
     33          6           0        2.064387    2.950354   -0.117421
     34          6           0        5.801746    3.079302   -0.624639
     35          6           0        3.461427    5.212749   -0.161858
     36          6           0        4.744309    5.558613   -0.428615
     37          7           0       -0.579091    1.441909   -0.051675
     38          6           0       -0.412964    2.806637   -0.003164
     39          6           0       -1.744359    3.399204   -0.002765
     40          6           0       -2.644139    2.408418   -0.063949
     41          6           0       -1.921983    1.148502   -0.098274
     42          6           0       -2.036564    4.915541    0.044363
     43          6           0       -4.170080    2.501943   -0.055051
     44          6           0       -4.839178    3.004634   -1.331631
     45          6           0       -6.293702    3.178477   -0.918484
     46          8           0       -7.078292    2.197866   -0.977129
     47          8           0       -6.656199    4.302628   -0.513191
     48          6           0        6.137457   -2.403427   -1.017610
     49          6           0        6.596043   -3.716308   -0.356064
     50          1           0       -1.311836   -1.579903    4.937429
     51          1           0        0.099005   -1.252742    5.914956
     52          1           0       -0.920527    0.063333    5.384329
     53          1           0        2.207762   -1.343192    4.622460
     54          1           0        3.170487   -0.886209    2.329375
     55          1           0       -0.971296   -0.039963    2.270924
     56          1           0       -3.520312   -0.195545    0.030605
     57          1           0        0.764118    4.521770    0.274366
     58          1           0        5.476945    0.341527   -0.642215
     59          1           0        1.189215   -4.392627   -1.026162
     60          1           0       -2.223470   -4.909255   -2.366380
     61          1           0       -0.656559   -5.324393   -1.714062
     62          1           0       -2.077927   -5.422693   -0.702569
     63          1           0       -3.093170    5.073477    0.103858
     64          1           0       -1.563051    5.343495    0.903166
     65          1           0       -1.655845    5.379832   -0.841293
     66          1           0       -4.557896    1.527637    0.157614
     67          1           0       -4.454790    3.154092    0.744037
     68          1           0       -4.753126    2.279298   -2.113541
     69          1           0       -4.418551    3.940650   -1.634696
     70          1           0       -7.877850    2.253793   -1.505502
     71          1           0       -7.448550   -2.429733   -0.643948
     72          1           0       -4.110560   -4.259176    0.582957
     73          1           0       -4.171302   -2.595032    1.111827
     74          1           0       -4.045124   -3.605131   -1.720100
     75          1           0       -4.395835   -1.942946   -1.316529
     76          1           0        3.561163   -5.131156   -1.964769
     77          1           0        5.095922   -4.870421   -1.171297
     78          1           0        3.682718   -5.277685   -0.227869
     79          1           0        6.389490   -2.420941   -2.057356
     80          1           0        6.626292   -1.576671   -0.545999
     81          1           0        6.240079   -4.547380   -0.928348
     82          1           0        7.665036   -3.741712   -0.317232
     83          1           0        6.201641   -3.772028    0.637034
     84          1           0        5.945650    3.580680   -1.558882
     85          1           0        6.151499    3.702156    0.171995
     86          1           0        6.349161    2.159934   -0.625219
     87          1           0        4.777624    6.140457   -1.325971
     88          1           0        5.134953    6.134213    0.384393
     89          1           0        5.333250    4.674247   -0.554885
     90          1           0        2.812783    5.665388   -0.882467
     91          1           0        3.197190    5.551227    0.818199
 ---------------------------------------------------------------------
 Rotational constants (GHZ):           0.0719672           0.0452670           0.0325000
 Standard basis: def2TZVP (5D, 7F)
 There are  2032 symmetry adapted cartesian basis functions of A   symmetry.
 There are  1785 symmetry adapted basis functions of A   symmetry.
  1785 basis functions,  2886 primitive gaussians,  2032 cartesian basis functions
   187 alpha electrons      182 beta electrons
       nuclear repulsion energy      7175.2473456615 Hartrees.
 NAtoms=   91 NActive=   91 NUniq=   91 SFac= 1.00D+00 NAtFMM=   60 NAOKFM=T Big=T
 Integral buffers will be    131072 words long.
 Raffenetti 2 integral format.
 Two-electron integral symmetry is turned on.
 Nuclear repulsion after empirical dispersion term =     7175.1224597716 Hartrees.
 One-electron integrals computed using PRISM.
   1 Symmetry operations used in ECPInt.
 ECPInt:  NShTT=  253116 NPrTT=  780617 LenC2=  179537 LenP2D=  358852.
 LDataN:  DoStor=T MaxTD1= 6 Len=  172
 NBasis=  1785 RedAO= T EigKep=  3.00D-06  NBF=  1785
 NBsUse=  1785 1.00D-06 EigRej= -1.00D+00 NBFU=  1785
 ExpMin= 4.20D-02 ExpMax= 3.01D+05 ExpMxC= 2.91D+03 IAcc=3 IRadAn=         5 AccDes= 0.00D+00
 Harris functional with IExCor= 1009 and IRadAn=       5 diagonalized for initial guess.
 HarFok:  IExCor= 1009 AccDes= 0.00D+00 IRadAn=         5 IDoV= 1 UseB2=F ITyADJ=14
 ICtDFT=  3500011 ScaDFX=  1.000000  1.000000  1.000000  1.000000
 FoFCou: FMM=F IPFlag=           0 FMFlag=      100000 FMFlg1=        2001
         NFxFlg=           0 DoJE=T BraDBF=F KetDBF=T FulRan=T
         wScrn=  0.000000 ICntrl=       500 IOpCl=  0 I1Cent=   200000004 NGrid=           0
         NMat0=    1 NMatS0=      1 NMatT0=    0 NMatD0=    1 NMtDS0=    0 NMtDT0=    0
 Petite list used in FoFCou.
 Initial guess <Sx>= 0.0000 <Sy>= 0.0000 <Sz>= 2.5000 <S**2>= 8.7500 S= 2.5000
 Requested convergence on RMS density matrix=1.00D-08 within 999 cycles.
 Requested convergence on MAX density matrix=1.00D-06.
 Requested convergence on             energy=1.00D-06.
 No special actions if energy rises.
 EnCoef did   100 forward-backward iterations
 EnCoef did   100 forward-backward iterations
 EnCoef did    11 forward-backward iterations
 EnCoef did     2 forward-backward iterations
 Restarting incremental Fock formation.
 SCF Done:  E(UPBE1PBE) =  -3364.53293835     A.U. after   28 cycles
            NFock= 28  Conv=0.48D-08     -V/T= 2.0031
 <Sx>= 0.0000 <Sy>= 0.0000 <Sz>= 2.5000 <S**2>= 8.7597 S= 2.5016
 <L.S>= 0.000000000000E+00
 Annihilation of the first spin contaminant:
 S**2 before annihilation     8.7597,   after     8.7500

 **********************************************************************

            Population analysis using the SCF density.

 **********************************************************************

 Orbital symmetries:
 Alpha Orbitals:
       Occupied  (A) (A) (A) (A) (A) (A) (A) (A) (A) (A) (A) (A)
                 (A) (A) (A) (A) (A) (A) (A) (A) (A) (A) (A) (A)
                 (A) (A) (A) (A) (A) (A) (A) (A) (A) (A) (A) (A)
                 (A) (A) (A) (A) (A) (A) (A) (A) (A) (A) (A) (A)
                 (A) (A) (A) (A) (A) (A) (A) (A) (A) (A) (A) (A)
                 (A) (A) (A) (A) (A) (A) (A) (A) (A) (A) (A) (A)
                 (A) (A) (A) (A) (A) (A) (A) (A) (A) (A) (A) (A)
                 (A) (A) (A) (A) (A) (A) (A) (A) (A) (A) (A) (A)
                 (A) (A) (A) (A) (A) (A) (A) (A) (A) (A) (A) (A)
                 (A) (A) (A) (A) (A) (A) (A) (A) (A) (A) (A) (A)
                 (A) (A) (A) (A) (A) (A) (A) (A) (A) (A) (A) (A)
                 (A) (A) (A) (A) (A) (A) (A) (A) (A) (A) (A) (A)
                 (A) (A) (A) (A) (A) (A) (A) (A) (A) (A) (A) (A)
                 (A) (A) (A) (A) (A) (A) (A) (A) (A) (A) (A) (A)
                 (A) (A) (A) (A) (A) (A) (A) (A) (A) (A) (A) (A)
                 (A) (A) (A) (A) (A) (A) (A)
       Virtual   (A) (A) (A) (A) (A) (A) (A) (A) (A) (A) (A) (A)
                 (A) (A) (A) (A) (A) (A) (A) (A) (A) (A) (A) (A)
                 (A) (A) (A) (A) (A) (A) (A) (A) (A) (A) (A) (A)
                 (A) (A) (A) (A) (A) (A) (A) (A) (A) (A) (A) (A)
                 (A) (A) (A) (A) (A) (A) (A) (A) (A) (A) (A) (A)
                 (A) (A) (A) (A) (A) (A) (A) (A) (A) (A) (A) (A)
                 (A) (A) (A) (A) (A) (A) (A) (A) (A) (A) (A) (A)
                 (A) (A) (A) (A) (A) (A) (A) (A) (A) (A) (A) (A)
                 (A) (A) (A) (A) (A) (A) (A) (A) (A) (A) (A) (A)
                 (A) (A) (A) (A) (A) (A) (A) (A) (A) (A) (A) (A)
                 (A) (A) (A) (A) (A) (A) (A) (A) (A) (A) (A) (A)
                 (A) (A) (A) (A) (A) (A) (A) (A) (A) (A) (A) (A)
                 (A) (A) (A) (A) (A) (A) (A) (A) (A) (A) (A) (A)
                 (A) (A) (A) (A) (A) (A) (A) (A) (A) (A) (A) (A)
                 (A) (A) (A) (A) (A) (A) (A) (A) (A) (A) (A) (A)
                 (A) (A) (A) (A) (A) (A) (A) (A) (A) (A) (A) (A)
                 (A) (A) (A) (A) (A) (A) (A) (A) (A) (A) (A) (A)
                 (A) (A) (A) (A) (A) (A) (A) (A) (A) (A) (A) (A)
                 (A) (A) (A) (A) (A) (A) (A) (A) (A) (A) (A) (A)
                 (A) (A) (A) (A) (A) (A) (A) (A) (A) (A) (A) (A)
                 (A) (A) (A) (A) (A) (A) (A) (A) (A) (A) (A) (A)
                 (A) (A) (A) (A) (A) (A) (A) (A) (A) (A) (A) (A)
                 (A) (A) (A) (A) (A) (A) (A) (A) (A) (A) (A) (A)
                 (A) (A) (A) (A) (A) (A) (A) (A) (A) (A) (A) (A)
                 (A) (A) (A) (A) (A) (A) (A) (A) (A) (A) (A) (A)
                 (A) (A) (A) (A) (A) (A) (A) (A) (A) (A) (A) (A)
                 (A) (A) (A) (A) (A) (A) (A) (A) (A) (A) (A) (A)
                 (A) (A) (A) (A) (A) (A) (A) (A) (A) (A) (A) (A)
                 (A) (A) (A) (A) (A) (A) (A) (A) (A) (A) (A) (A)
                 (A) (A) (A) (A) (A) (A) (A) (A) (A) (A) (A) (A)
                 (A) (A) (A) (A) (A) (A) (A) (A) (A) (A) (A) (A)
                 (A) (A) (A) (A) (A) (A) (A) (A) (A) (A) (A) (A)
                 (A) (A) (A) (A) (A) (A) (A) (A) (A) (A) (A) (A)
                 (A) (A) (A) (A) (A) (A) (A) (A) (A) (A) (A) (A)
                 (A) (A) (A) (A) (A) (A) (A) (A) (A) (A) (A) (A)
                 (A) (A) (A) (A) (A) (A) (A) (A) (A) (A) (A) (A)
                 (A) (A) (A) (A) (A) (A) (A) (A) (A) (A) (A) (A)
                 (A) (A) (A) (A) (A) (A) (A) (A) (A) (A) (A) (A)
                 (A) (A) (A) (A) (A) (A) (A) (A) (A) (A) (A) (A)
                 (A) (A) (A) (A) (A) (A) (A) (A) (A) (A) (A) (A)
                 (A) (A) (A) (A) (A) (A) (A) (A) (A) (A) (A) (A)
                 (A) (A) (A) (A) (A) (A) (A) (A) (A) (A) (A) (A)
                 (A) (A) (A) (A) (A) (A) (A) (A) (A) (A) (A) (A)
                 (A) (A) (A) (A) (A) (A) (A) (A) (A) (A) (A) (A)
                 (A) (A) (A) (A) (A) (A) (A) (A) (A) (A) (A) (A)
                 (A) (A) (A) (A) (A) (A) (A) (A) (A) (A) (A) (A)
                 (A) (A) (A) (A) (A) (A) (A) (A) (A) (A) (A) (A)
                 (A) (A) (A) (A) (A) (A) (A) (A) (A) (A) (A) (A)
                 (A) (A) (A) (A) (A) (A) (A) (A) (A) (A) (A) (A)
                 (A) (A) (A) (A) (A) (A) (A) (A) (A) (A) (A) (A)
                 (A) (A) (A) (A) (A) (A) (A) (A) (A) (A) (A) (A)
                 (A) (A) (A) (A) (A) (A) (A) (A) (A) (A) (A) (A)
                 (A) (A) (A) (A) (A) (A) (A) (A) (A) (A) (A) (A)
                 (A) (A) (A) (A) (A) (A) (A) (A) (A) (A) (A) (A)
                 (A) (A) (A) (A) (A) (A) (A) (A) (A) (A) (A) (A)
                 (A) (A) (A) (A) (A) (A) (A) (A) (A) (A) (A) (A)
                 (A) (A) (A) (A) (A) (A) (A) (A) (A) (A) (A) (A)
                 (A) (A) (A) (A) (A) (A) (A) (A) (A) (A) (A) (A)
                 (A) (A) (A) (A) (A) (A) (A) (A) (A) (A) (A) (A)
                 (A) (A) (A) (A) (A) (A) (A) (A) (A) (A) (A) (A)
                 (A) (A) (A) (A) (A) (A) (A) (A) (A) (A) (A) (A)
                 (A) (A) (A) (A) (A) (A) (A) (A) (A) (A) (A) (A)
                 (A) (A) (A) (A) (A) (A) (A) (A) (A) (A) (A) (A)
                 (A) (A) (A) (A) (A) (A) (A) (A) (A) (A) (A) (A)
                 (A) (A) (A) (A) (A) (A) (A) (A) (A) (A) (A) (A)
                 (A) (A) (A) (A) (A) (A) (A) (A) (A) (A) (A) (A)
                 (A) (A) (A) (A) (A) (A) (A) (A) (A) (A) (A) (A)
                 (A) (A) (A) (A) (A) (A) (A) (A) (A) (A) (A) (A)
                 (A) (A) (A) (A) (A) (A) (A) (A) (A) (A) (A) (A)
                 (A) (A) (A) (A) (A) (A) (A) (A) (A) (A) (A) (A)
                 (A) (A) (A) (A) (A) (A) (A) (A) (A) (A) (A) (A)
                 (A) (A) (A) (A) (A) (A) (A) (A) (A) (A) (A) (A)
                 (A) (A) (A) (A) (A) (A) (A) (A) (A) (A) (A) (A)
                 (A) (A) (A) (A) (A) (A) (A) (A) (A) (A) (A) (A)
                 (A) (A) (A) (A) (A) (A) (A) (A) (A) (A) (A) (A)
                 (A) (A) (A) (A) (A) (A) (A) (A) (A) (A) (A) (A)
                 (A) (A) (A) (A) (A) (A) (A) (A) (A) (A) (A) (A)
                 (A) (A) (A) (A) (A) (A) (A) (A) (A) (A) (A) (A)
                 (A) (A) (A) (A) (A) (A) (A) (A) (A) (A) (A) (A)
                 (A) (A) (A) (A) (A) (A) (A) (A) (A) (A) (A) (A)
                 (A) (A) (A) (A) (A) (A) (A) (A) (A) (A) (A) (A)
                 (A) (A) (A) (A) (A) (A) (A) (A) (A) (A) (A) (A)
                 (A) (A) (A) (A) (A) (A) (A) (A) (A) (A) (A) (A)
                 (A) (A) (A) (A) (A) (A) (A) (A) (A) (A) (A) (A)
                 (A) (A) (A) (A) (A) (A) (A) (A) (A) (A) (A) (A)
                 (A) (A) (A) (A) (A) (A) (A) (A) (A) (A) (A) (A)
                 (A) (A) (A) (A) (A) (A) (A) (A) (A) (A) (A) (A)
                 (A) (A) (A) (A) (A) (A) (A) (A) (A) (A) (A) (A)
                 (A) (A) (A) (A) (A) (A) (A) (A) (A) (A) (A) (A)
                 (A) (A) (A) (A) (A) (A) (A) (A) (A) (A) (A) (A)
                 (A) (A) (A) (A) (A) (A) (A) (A) (A) (A) (A) (A)
                 (A) (A) (A) (A) (A) (A) (A) (A) (A) (A) (A) (A)
                 (A) (A) (A) (A) (A) (A) (A) (A) (A) (A) (A) (A)
                 (A) (A) (A) (A) (A) (A) (A) (A) (A) (A) (A) (A)
                 (A) (A) (A) (A) (A) (A) (A) (A) (A) (A) (A) (A)
                 (A) (A) (A) (A) (A) (A) (A) (A) (A) (A) (A) (A)
                 (A) (A) (A) (A) (A) (A) (A) (A) (A) (A) (A) (A)
                 (A) (A) (A) (A) (A) (A) (A) (A) (A) (A) (A) (A)
                 (A) (A) (A) (A) (A) (A) (A) (A) (A) (A) (A) (A)
                 (A) (A) (A) (A) (A) (A) (A) (A) (A) (A) (A) (A)
                 (A) (A) (A) (A) (A) (A) (A) (A) (A) (A) (A) (A)
                 (A) (A) (A) (A) (A) (A) (A) (A) (A) (A) (A) (A)
                 (A) (A) (A) (A) (A) (A) (A) (A) (A) (A) (A) (A)
                 (A) (A) (A) (A) (A) (A) (A) (A) (A) (A) (A) (A)
                 (A) (A) (A) (A) (A) (A) (A) (A) (A) (A) (A) (A)
                 (A) (A) (A) (A) (A) (A) (A) (A) (A) (A) (A) (A)
                 (A) (A) (A) (A) (A) (A) (A) (A) (A) (A) (A) (A)
                 (A) (A) (A) (A) (A) (A) (A) (A) (A) (A) (A) (A)
                 (A) (A) (A) (A) (A) (A) (A) (A) (A) (A) (A) (A)
                 (A) (A) (A) (A) (A) (A) (A) (A) (A) (A) (A) (A)
                 (A) (A) (A) (A) (A) (A) (A) (A) (A) (A) (A) (A)
                 (A) (A) (A) (A) (A) (A) (A) (A) (A) (A) (A) (A)
                 (A) (A) (A) (A) (A) (A) (A) (A) (A) (A) (A) (A)
                 (A) (A) (A) (A) (A) (A) (A) (A) (A) (A) (A) (A)
                 (A) (A) (A) (A) (A) (A) (A) (A) (A) (A) (A) (A)
                 (A) (A) (A) (A) (A) (A) (A) (A) (A) (A) (A) (A)
                 (A) (A) (A) (A) (A) (A) (A) (A) (A) (A) (A) (A)
                 (A) (A) (A) (A) (A) (A) (A) (A) (A) (A) (A) (A)
                 (A) (A) (A) (A) (A) (A) (A) (A) (A) (A) (A) (A)
                 (A) (A) (A) (A) (A) (A) (A) (A) (A) (A) (A) (A)
                 (A) (A) (A) (A) (A) (A) (A) (A) (A) (A) (A) (A)
                 (A) (A) (A) (A) (A) (A) (A) (A) (A) (A) (A) (A)
                 (A) (A) (A) (A) (A) (A) (A) (A) (A) (A) (A) (A)
                 (A) (A) (A) (A) (A) (A) (A) (A) (A) (A) (A) (A)
                 (A) (A) (A) (A) (A) (A) (A) (A) (A) (A) (A) (A)
                 (A) (A) (A) (A) (A) (A) (A) (A) (A) (A) (A) (A)
                 (A) (A) (A) (A) (A) (A) (A) (A) (A) (A) (A) (A)
                 (A) (A) (A) (A) (A) (A) (A) (A) (A) (A) (A) (A)
                 (A) (A) (A) (A) (A) (A) (A) (A) (A) (A) (A) (A)
                 (A) (A) (A) (A) (A) (A) (A) (A) (A) (A) (A) (A)
                 (A) (A) (A) (A) (A) (A) (A) (A) (A) (A) (A) (A)
                 (A) (A) (A) (A) (A) (A) (A) (A) (A) (A) (A) (A)
                 (A) (A) (A) (A) (A) (A) (A) (A) (A) (A) (A) (A)
                 (A) (A)
 Beta  Orbitals:
       Occupied  (A) (A) (A) (A) (A) (A) (A) (A) (A) (A) (A) (A)
                 (A) (A) (A) (A) (A) (A) (A) (A) (A) (A) (A) (A)
                 (A) (A) (A) (A) (A) (A) (A) (A) (A) (A) (A) (A)
                 (A) (A) (A) (A) (A) (A) (A) (A) (A) (A) (A) (A)
                 (A) (A) (A) (A) (A) (A) (A) (A) (A) (A) (A) (A)
                 (A) (A) (A) (A) (A) (A) (A) (A) (A) (A) (A) (A)
                 (A) (A) (A) (A) (A) (A) (A) (A) (A) (A) (A) (A)
                 (A) (A) (A) (A) (A) (A) (A) (A) (A) (A) (A) (A)
                 (A) (A) (A) (A) (A) (A) (A) (A) (A) (A) (A) (A)
                 (A) (A) (A) (A) (A) (A) (A) (A) (A) (A) (A) (A)
                 (A) (A) (A) (A) (A) (A) (A) (A) (A) (A) (A) (A)
                 (A) (A) (A) (A) (A) (A) (A) (A) (A) (A) (A) (A)
                 (A) (A) (A) (A) (A) (A) (A) (A) (A) (A) (A) (A)
                 (A) (A) (A) (A) (A) (A) (A) (A) (A) (A) (A) (A)
                 (A) (A) (A) (A) (A) (A) (A) (A) (A) (A) (A) (A)
                 (A) (A)
       Virtual   (A) (A) (A) (A) (A) (A) (A) (A) (A) (A) (A) (A)
                 (A) (A) (A) (A) (A) (A) (A) (A) (A) (A) (A) (A)
                 (A) (A) (A) (A) (A) (A) (A) (A) (A) (A) (A) (A)
                 (A) (A) (A) (A) (A) (A) (A) (A) (A) (A) (A) (A)
                 (A) (A) (A) (A) (A) (A) (A) (A) (A) (A) (A) (A)
                 (A) (A) (A) (A) (A) (A) (A) (A) (A) (A) (A) (A)
                 (A) (A) (A) (A) (A) (A) (A) (A) (A) (A) (A) (A)
                 (A) (A) (A) (A) (A) (A) (A) (A) (A) (A) (A) (A)
                 (A) (A) (A) (A) (A) (A) (A) (A) (A) (A) (A) (A)
                 (A) (A) (A) (A) (A) (A) (A) (A) (A) (A) (A) (A)
                 (A) (A) (A) (A) (A) (A) (A) (A) (A) (A) (A) (A)
                 (A) (A) (A) (A) (A) (A) (A) (A) (A) (A) (A) (A)
                 (A) (A) (A) (A) (A) (A) (A) (A) (A) (A) (A) (A)
                 (A) (A) (A) (A) (A) (A) (A) (A) (A) (A) (A) (A)
                 (A) (A) (A) (A) (A) (A) (A) (A) (A) (A) (A) (A)
                 (A) (A) (A) (A) (A) (A) (A) (A) (A) (A) (A) (A)
                 (A) (A) (A) (A) (A) (A) (A) (A) (A) (A) (A) (A)
                 (A) (A) (A) (A) (A) (A) (A) (A) (A) (A) (A) (A)
                 (A) (A) (A) (A) (A) (A) (A) (A) (A) (A) (A) (A)
                 (A) (A) (A) (A) (A) (A) (A) (A) (A) (A) (A) (A)
                 (A) (A) (A) (A) (A) (A) (A) (A) (A) (A) (A) (A)
                 (A) (A) (A) (A) (A) (A) (A) (A) (A) (A) (A) (A)
                 (A) (A) (A) (A) (A) (A) (A) (A) (A) (A) (A) (A)
                 (A) (A) (A) (A) (A) (A) (A) (A) (A) (A) (A) (A)
                 (A) (A) (A) (A) (A) (A) (A) (A) (A) (A) (A) (A)
                 (A) (A) (A) (A) (A) (A) (A) (A) (A) (A) (A) (A)
                 (A) (A) (A) (A) (A) (A) (A) (A) (A) (A) (A) (A)
                 (A) (A) (A) (A) (A) (A) (A) (A) (A) (A) (A) (A)
                 (A) (A) (A) (A) (A) (A) (A) (A) (A) (A) (A) (A)
                 (A) (A) (A) (A) (A) (A) (A) (A) (A) (A) (A) (A)
                 (A) (A) (A) (A) (A) (A) (A) (A) (A) (A) (A) (A)
                 (A) (A) (A) (A) (A) (A) (A) (A) (A) (A) (A) (A)
                 (A) (A) (A) (A) (A) (A) (A) (A) (A) (A) (A) (A)
                 (A) (A) (A) (A) (A) (A) (A) (A) (A) (A) (A) (A)
                 (A) (A) (A) (A) (A) (A) (A) (A) (A) (A) (A) (A)
                 (A) (A) (A) (A) (A) (A) (A) (A) (A) (A) (A) (A)
                 (A) (A) (A) (A) (A) (A) (A) (A) (A) (A) (A) (A)
                 (A) (A) (A) (A) (A) (A) (A) (A) (A) (A) (A) (A)
                 (A) (A) (A) (A) (A) (A) (A) (A) (A) (A) (A) (A)
                 (A) (A) (A) (A) (A) (A) (A) (A) (A) (A) (A) (A)
                 (A) (A) (A) (A) (A) (A) (A) (A) (A) (A) (A) (A)
                 (A) (A) (A) (A) (A) (A) (A) (A) (A) (A) (A) (A)
                 (A) (A) (A) (A) (A) (A) (A) (A) (A) (A) (A) (A)
                 (A) (A) (A) (A) (A) (A) (A) (A) (A) (A) (A) (A)
                 (A) (A) (A) (A) (A) (A) (A) (A) (A) (A) (A) (A)
                 (A) (A) (A) (A) (A) (A) (A) (A) (A) (A) (A) (A)
                 (A) (A) (A) (A) (A) (A) (A) (A) (A) (A) (A) (A)
                 (A) (A) (A) (A) (A) (A) (A) (A) (A) (A) (A) (A)
                 (A) (A) (A) (A) (A) (A) (A) (A) (A) (A) (A) (A)
                 (A) (A) (A) (A) (A) (A) (A) (A) (A) (A) (A) (A)
                 (A) (A) (A) (A) (A) (A) (A) (A) (A) (A) (A) (A)
                 (A) (A) (A) (A) (A) (A) (A) (A) (A) (A) (A) (A)
                 (A) (A) (A) (A) (A) (A) (A) (A) (A) (A) (A) (A)
                 (A) (A) (A) (A) (A) (A) (A) (A) (A) (A) (A) (A)
                 (A) (A) (A) (A) (A) (A) (A) (A) (A) (A) (A) (A)
                 (A) (A) (A) (A) (A) (A) (A) (A) (A) (A) (A) (A)
                 (A) (A) (A) (A) (A) (A) (A) (A) (A) (A) (A) (A)
                 (A) (A) (A) (A) (A) (A) (A) (A) (A) (A) (A) (A)
                 (A) (A) (A) (A) (A) (A) (A) (A) (A) (A) (A) (A)
                 (A) (A) (A) (A) (A) (A) (A) (A) (A) (A) (A) (A)
                 (A) (A) (A) (A) (A) (A) (A) (A) (A) (A) (A) (A)
                 (A) (A) (A) (A) (A) (A) (A) (A) (A) (A) (A) (A)
                 (A) (A) (A) (A) (A) (A) (A) (A) (A) (A) (A) (A)
                 (A) (A) (A) (A) (A) (A) (A) (A) (A) (A) (A) (A)
                 (A) (A) (A) (A) (A) (A) (A) (A) (A) (A) (A) (A)
                 (A) (A) (A) (A) (A) (A) (A) (A) (A) (A) (A) (A)
                 (A) (A) (A) (A) (A) (A) (A) (A) (A) (A) (A) (A)
                 (A) (A) (A) (A) (A) (A) (A) (A) (A) (A) (A) (A)
                 (A) (A) (A) (A) (A) (A) (A) (A) (A) (A) (A) (A)
                 (A) (A) (A) (A) (A) (A) (A) (A) (A) (A) (A) (A)
                 (A) (A) (A) (A) (A) (A) (A) (A) (A) (A) (A) (A)
                 (A) (A) (A) (A) (A) (A) (A) (A) (A) (A) (A) (A)
                 (A) (A) (A) (A) (A) (A) (A) (A) (A) (A) (A) (A)
                 (A) (A) (A) (A) (A) (A) (A) (A) (A) (A) (A) (A)
                 (A) (A) (A) (A) (A) (A) (A) (A) (A) (A) (A) (A)
                 (A) (A) (A) (A) (A) (A) (A) (A) (A) (A) (A) (A)
                 (A) (A) (A) (A) (A) (A) (A) (A) (A) (A) (A) (A)
                 (A) (A) (A) (A) (A) (A) (A) (A) (A) (A) (A) (A)
                 (A) (A) (A) (A) (A) (A) (A) (A) (A) (A) (A) (A)
                 (A) (A) (A) (A) (A) (A) (A) (A) (A) (A) (A) (A)
                 (A) (A) (A) (A) (A) (A) (A) (A) (A) (A) (A) (A)
                 (A) (A) (A) (A) (A) (A) (A) (A) (A) (A) (A) (A)
                 (A) (A) (A) (A) (A) (A) (A) (A) (A) (A) (A) (A)
                 (A) (A) (A) (A) (A) (A) (A) (A) (A) (A) (A) (A)
                 (A) (A) (A) (A) (A) (A) (A) (A) (A) (A) (A) (A)
                 (A) (A) (A) (A) (A) (A) (A) (A) (A) (A) (A) (A)
                 (A) (A) (A) (A) (A) (A) (A) (A) (A) (A) (A) (A)
                 (A) (A) (A) (A) (A) (A) (A) (A) (A) (A) (A) (A)
                 (A) (A) (A) (A) (A) (A) (A) (A) (A) (A) (A) (A)
                 (A) (A) (A) (A) (A) (A) (A) (A) (A) (A) (A) (A)
                 (A) (A) (A) (A) (A) (A) (A) (A) (A) (A) (A) (A)
                 (A) (A) (A) (A) (A) (A) (A) (A) (A) (A) (A) (A)
                 (A) (A) (A) (A) (A) (A) (A) (A) (A) (A) (A) (A)
                 (A) (A) (A) (A) (A) (A) (A) (A) (A) (A) (A) (A)
                 (A) (A) (A) (A) (A) (A) (A) (A) (A) (A) (A) (A)
                 (A) (A) (A) (A) (A) (A) (A) (A) (A) (A) (A) (A)
                 (A) (A) (A) (A) (A) (A) (A) (A) (A) (A) (A) (A)
                 (A) (A) (A) (A) (A) (A) (A) (A) (A) (A) (A) (A)
                 (A) (A) (A) (A) (A) (A) (A) (A) (A) (A) (A) (A)
                 (A) (A) (A) (A) (A) (A) (A) (A) (A) (A) (A) (A)
                 (A) (A) (A) (A) (A) (A) (A) (A) (A) (A) (A) (A)
                 (A) (A) (A) (A) (A) (A) (A) (A) (A) (A) (A) (A)
                 (A) (A) (A) (A) (A) (A) (A) (A) (A) (A) (A) (A)
                 (A) (A) (A) (A) (A) (A) (A) (A) (A) (A) (A) (A)
                 (A) (A) (A) (A) (A) (A) (A) (A) (A) (A) (A) (A)
                 (A) (A) (A) (A) (A) (A) (A) (A) (A) (A) (A) (A)
                 (A) (A) (A) (A) (A) (A) (A) (A) (A) (A) (A) (A)
                 (A) (A) (A) (A) (A) (A) (A) (A) (A) (A) (A) (A)
                 (A) (A) (A) (A) (A) (A) (A) (A) (A) (A) (A) (A)
                 (A) (A) (A) (A) (A) (A) (A) (A) (A) (A) (A) (A)
                 (A) (A) (A) (A) (A) (A) (A) (A) (A) (A) (A) (A)
                 (A) (A) (A) (A) (A) (A) (A) (A) (A) (A) (A) (A)
                 (A) (A) (A) (A) (A) (A) (A) (A) (A) (A) (A) (A)
                 (A) (A) (A) (A) (A) (A) (A) (A) (A) (A) (A) (A)
                 (A) (A) (A) (A) (A) (A) (A) (A) (A) (A) (A) (A)
                 (A) (A) (A) (A) (A) (A) (A) (A) (A) (A) (A) (A)
                 (A) (A) (A) (A) (A) (A) (A) (A) (A) (A) (A) (A)
                 (A) (A) (A) (A) (A) (A) (A) (A) (A) (A) (A) (A)
                 (A) (A) (A) (A) (A) (A) (A) (A) (A) (A) (A) (A)
                 (A) (A) (A) (A) (A) (A) (A) (A) (A) (A) (A) (A)
                 (A) (A) (A) (A) (A) (A) (A) (A) (A) (A) (A) (A)
                 (A) (A) (A) (A) (A) (A) (A) (A) (A) (A) (A) (A)
                 (A) (A) (A) (A) (A) (A) (A) (A) (A) (A) (A) (A)
                 (A) (A) (A) (A) (A) (A) (A) (A) (A) (A) (A) (A)
                 (A) (A) (A) (A) (A) (A) (A) (A) (A) (A) (A) (A)
                 (A) (A) (A) (A) (A) (A) (A) (A) (A) (A) (A) (A)
                 (A) (A) (A) (A) (A) (A) (A) (A) (A) (A) (A) (A)
                 (A) (A) (A) (A) (A) (A) (A) (A) (A) (A) (A) (A)
                 (A) (A) (A) (A) (A) (A) (A) (A) (A) (A) (A) (A)
                 (A) (A) (A) (A) (A) (A) (A) (A) (A) (A) (A) (A)
                 (A) (A) (A) (A) (A) (A) (A) (A) (A) (A) (A) (A)
                 (A) (A) (A) (A) (A) (A) (A) (A) (A) (A) (A) (A)
                 (A) (A) (A) (A) (A) (A) (A) (A) (A) (A) (A) (A)
                 (A) (A) (A) (A) (A) (A) (A)
 The electronic state is 6-A.
 Alpha  occ. eigenvalues -- -256.58752 -30.41248 -26.23061 -26.22875 -26.22811
 Alpha  occ. eigenvalues --  -19.33876 -19.32911 -19.25038 -19.24677 -14.56602
 Alpha  occ. eigenvalues --  -14.52337 -14.49430 -14.49406 -14.49234 -14.49106
 Alpha  occ. eigenvalues --  -10.42653 -10.42523 -10.40682 -10.37775 -10.36517
 Alpha  occ. eigenvalues --  -10.36509 -10.36433 -10.36430 -10.36411 -10.36348
 Alpha  occ. eigenvalues --  -10.36283 -10.36214 -10.35364 -10.33428 -10.33427
 Alpha  occ. eigenvalues --  -10.33143 -10.33065 -10.33026 -10.32930 -10.32797
 Alpha  occ. eigenvalues --  -10.32725 -10.32702 -10.32645 -10.32548 -10.32541
 Alpha  occ. eigenvalues --  -10.32520 -10.31812 -10.31793 -10.31514 -10.31380
 Alpha  occ. eigenvalues --  -10.31040 -10.30815 -10.30217 -10.30143 -10.29493
 Alpha  occ. eigenvalues --  -10.29018 -10.28567 -10.24822  -3.83435  -2.59683
 Alpha  occ. eigenvalues --   -2.59371  -2.59263  -1.23709  -1.23624  -1.18579
 Alpha  occ. eigenvalues --   -1.09649  -1.09352  -1.08949  -1.08514  -1.08202
 Alpha  occ. eigenvalues --   -1.07428  -1.03420  -0.94845  -0.94698  -0.93421
 Alpha  occ. eigenvalues --   -0.93219  -0.92739  -0.92390  -0.92202  -0.91597
 Alpha  occ. eigenvalues --   -0.88962  -0.88503  -0.87891  -0.86883  -0.86150
 Alpha  occ. eigenvalues --   -0.84461  -0.83605  -0.82824  -0.82017  -0.81943
 Alpha  occ. eigenvalues --   -0.79934  -0.78387  -0.77827  -0.77068  -0.76839
 Alpha  occ. eigenvalues --   -0.76726  -0.74051  -0.73894  -0.73718  -0.73226
 Alpha  occ. eigenvalues --   -0.71296  -0.70514  -0.69730  -0.68386  -0.66730
 Alpha  occ. eigenvalues --   -0.66076  -0.65680  -0.65123  -0.63691  -0.63414
 Alpha  occ. eigenvalues --   -0.63249  -0.62641  -0.60944  -0.60724  -0.60084
 Alpha  occ. eigenvalues --   -0.59820  -0.59711  -0.59344  -0.59054  -0.58730
 Alpha  occ. eigenvalues --   -0.58541  -0.58505  -0.58115  -0.57971  -0.57818
 Alpha  occ. eigenvalues --   -0.57622  -0.57329  -0.56931  -0.56387  -0.56055
 Alpha  occ. eigenvalues --   -0.55655  -0.55413  -0.55088  -0.54779  -0.54368
 Alpha  occ. eigenvalues --   -0.54109  -0.53810  -0.53533  -0.53422  -0.53402
 Alpha  occ. eigenvalues --   -0.53259  -0.52709  -0.52626  -0.52427  -0.52291
 Alpha  occ. eigenvalues --   -0.51821  -0.51576  -0.51397  -0.51039  -0.50764
 Alpha  occ. eigenvalues --   -0.50592  -0.50192  -0.50055  -0.49700  -0.49447
 Alpha  occ. eigenvalues --   -0.49256  -0.48692  -0.48259  -0.47994  -0.47857
 Alpha  occ. eigenvalues --   -0.47654  -0.46980  -0.46711  -0.46112  -0.45914
 Alpha  occ. eigenvalues --   -0.45893  -0.45360  -0.44940  -0.44374  -0.43956
 Alpha  occ. eigenvalues --   -0.43667  -0.43158  -0.42861  -0.42388  -0.42188
 Alpha  occ. eigenvalues --   -0.42023  -0.41150  -0.40227  -0.39675  -0.39392
 Alpha  occ. eigenvalues --   -0.39019  -0.39010  -0.36196  -0.35611  -0.35353
 Alpha  occ. eigenvalues --   -0.35160  -0.34879  -0.34523  -0.34453  -0.33875
 Alpha  occ. eigenvalues --   -0.31135  -0.29996
 Alpha virt. eigenvalues --   -0.18661  -0.18506  -0.11601  -0.09847  -0.08286
 Alpha virt. eigenvalues --   -0.07330  -0.07111  -0.06938  -0.06377  -0.06031
 Alpha virt. eigenvalues --   -0.05424  -0.04719  -0.04007  -0.03853  -0.03559
 Alpha virt. eigenvalues --   -0.03264  -0.02995  -0.02564  -0.02352  -0.01984
 Alpha virt. eigenvalues --   -0.01691  -0.01494  -0.00893  -0.00730  -0.00536
 Alpha virt. eigenvalues --   -0.00136   0.00235   0.00604   0.00896   0.01194
 Alpha virt. eigenvalues --    0.01385   0.01606   0.01738   0.01938   0.02363
 Alpha virt. eigenvalues --    0.02467   0.02526   0.02850   0.03024   0.03571
 Alpha virt. eigenvalues --    0.03660   0.03802   0.04036   0.04477   0.04819
 Alpha virt. eigenvalues --    0.04978   0.05102   0.05182   0.05348   0.05480
 Alpha virt. eigenvalues --    0.05554   0.05756   0.05842   0.06189   0.06421
 Alpha virt. eigenvalues --    0.06630   0.06842   0.06972   0.07049   0.07460
 Alpha virt. eigenvalues --    0.07625   0.07868   0.08035   0.08315   0.08460
 Alpha virt. eigenvalues --    0.08764   0.08847   0.09361   0.09647   0.10065
 Alpha virt. eigenvalues --    0.10375   0.10518   0.10775   0.11062   0.11339
 Alpha virt. eigenvalues --    0.11399   0.11635   0.11975   0.12129   0.12248
 Alpha virt. eigenvalues --    0.12406   0.12608   0.12902   0.13196   0.13292
 Alpha virt. eigenvalues --    0.13422   0.13552   0.13859   0.13932   0.14118
 Alpha virt. eigenvalues --    0.14230   0.14582   0.14773   0.15002   0.15176
 Alpha virt. eigenvalues --    0.15494   0.15700   0.15788   0.16023   0.16311
 Alpha virt. eigenvalues --    0.16357   0.16531   0.16739   0.17076   0.17440
 Alpha virt. eigenvalues --    0.17550   0.17907   0.18077   0.18272   0.18644
 Alpha virt. eigenvalues --    0.18833   0.19021   0.19396   0.19592   0.19864
 Alpha virt. eigenvalues --    0.20051   0.20188   0.20730   0.20926   0.21122
 Alpha virt. eigenvalues --    0.21237   0.21648   0.21828   0.21868   0.22029
 Alpha virt. eigenvalues --    0.22339   0.22379   0.23062   0.23123   0.23232
 Alpha virt. eigenvalues --    0.23387   0.23662   0.23795   0.24052   0.24168
 Alpha virt. eigenvalues --    0.24341   0.24691   0.24741   0.25240   0.25516
 Alpha virt. eigenvalues --    0.25835   0.26389   0.26515   0.26567   0.27123
 Alpha virt. eigenvalues --    0.27281   0.27330   0.27457   0.27767   0.27933
 Alpha virt. eigenvalues --    0.28208   0.28356   0.28651   0.28874   0.29126
 Alpha virt. eigenvalues --    0.29287   0.29727   0.30022   0.30108   0.30510
 Alpha virt. eigenvalues --    0.30824   0.31000   0.31161   0.31365   0.31435
 Alpha virt. eigenvalues --    0.31875   0.32016   0.32269   0.32506   0.32732
 Alpha virt. eigenvalues --    0.32969   0.33311   0.33390   0.33734   0.34078
 Alpha virt. eigenvalues --    0.34284   0.34434   0.34519   0.34663   0.34829
 Alpha virt. eigenvalues --    0.34946   0.35338   0.35414   0.35624   0.35719
 Alpha virt. eigenvalues --    0.35793   0.36044   0.36369   0.36425   0.36609
 Alpha virt. eigenvalues --    0.36664   0.37065   0.37148   0.37235   0.37467
 Alpha virt. eigenvalues --    0.37563   0.37755   0.37849   0.38028   0.38201
 Alpha virt. eigenvalues --    0.38527   0.38670   0.38829   0.38995   0.39099
 Alpha virt. eigenvalues --    0.39154   0.39751   0.39883   0.40004   0.40176
 Alpha virt. eigenvalues --    0.40359   0.40603   0.40716   0.40842   0.41267
 Alpha virt. eigenvalues --    0.41309   0.41526   0.41765   0.41797   0.42106
 Alpha virt. eigenvalues --    0.42219   0.42397   0.42646   0.42768   0.42936
 Alpha virt. eigenvalues --    0.43080   0.43334   0.43467   0.43644   0.43824
 Alpha virt. eigenvalues --    0.43974   0.44187   0.44382   0.44578   0.44706
 Alpha virt. eigenvalues --    0.45078   0.45258   0.45468   0.45536   0.45730
 Alpha virt. eigenvalues --    0.45978   0.46274   0.46491   0.46751   0.47167
 Alpha virt. eigenvalues --    0.47387   0.47717   0.47962   0.48145   0.48287
 Alpha virt. eigenvalues --    0.48532   0.48726   0.48887   0.49154   0.49423
 Alpha virt. eigenvalues --    0.49564   0.49659   0.49808   0.50302   0.50426
 Alpha virt. eigenvalues --    0.50731   0.51040   0.51189   0.51454   0.51680
 Alpha virt. eigenvalues --    0.51749   0.52478   0.52608   0.52776   0.53207
 Alpha virt. eigenvalues --    0.53392   0.53804   0.53936   0.54177   0.54204
 Alpha virt. eigenvalues --    0.54899   0.55054   0.55198   0.55399   0.55837
 Alpha virt. eigenvalues --    0.55944   0.56152   0.56534   0.56586   0.57024
 Alpha virt. eigenvalues --    0.57057   0.57405   0.57516   0.58138   0.58346
 Alpha virt. eigenvalues --    0.58644   0.58942   0.59138   0.59191   0.59499
 Alpha virt. eigenvalues --    0.59689   0.60173   0.60247   0.60431   0.60625
 Alpha virt. eigenvalues --    0.60986   0.61254   0.61661   0.61728   0.62130
 Alpha virt. eigenvalues --    0.62197   0.62448   0.62927   0.63157   0.63278
 Alpha virt. eigenvalues --    0.64028   0.64071   0.64364   0.64724   0.65001
 Alpha virt. eigenvalues --    0.65195   0.65404   0.65883   0.65951   0.66361
 Alpha virt. eigenvalues --    0.66692   0.67167   0.67289   0.67582   0.67718
 Alpha virt. eigenvalues --    0.67999   0.68658   0.68749   0.69143   0.69283
 Alpha virt. eigenvalues --    0.69676   0.70146   0.70308   0.70492   0.70832
 Alpha virt. eigenvalues --    0.71058   0.71407   0.71539   0.71758   0.72557
 Alpha virt. eigenvalues --    0.72940   0.73316   0.73629   0.73989   0.74119
 Alpha virt. eigenvalues --    0.74204   0.74749   0.74961   0.75448   0.75823
 Alpha virt. eigenvalues --    0.76387   0.76773   0.76991   0.77253   0.77869
 Alpha virt. eigenvalues --    0.78012   0.78190   0.78512   0.78853   0.79168
 Alpha virt. eigenvalues --    0.79362   0.79445   0.79895   0.80483   0.80805
 Alpha virt. eigenvalues --    0.81215   0.81310   0.81431   0.82040   0.82249
 Alpha virt. eigenvalues --    0.82489   0.82987   0.83047   0.83239   0.83661
 Alpha virt. eigenvalues --    0.83847   0.84371   0.84745   0.84922   0.85217
 Alpha virt. eigenvalues --    0.85316   0.85632   0.85802   0.85941   0.86450
 Alpha virt. eigenvalues --    0.86636   0.87020   0.87357   0.87676   0.88233
 Alpha virt. eigenvalues --    0.88366   0.88844   0.89056   0.89209   0.89384
 Alpha virt. eigenvalues --    0.89698   0.90326   0.90707   0.90895   0.91199
 Alpha virt. eigenvalues --    0.91621   0.91983   0.92147   0.92286   0.92750
 Alpha virt. eigenvalues --    0.92881   0.93094   0.93228   0.93837   0.93950
 Alpha virt. eigenvalues --    0.94289   0.94685   0.94808   0.94989   0.95569
 Alpha virt. eigenvalues --    0.95798   0.96194   0.96416   0.96927   0.97264
 Alpha virt. eigenvalues --    0.97630   0.97797   0.98181   0.98398   0.98869
 Alpha virt. eigenvalues --    0.99132   0.99387   1.00001   1.00199   1.00427
 Alpha virt. eigenvalues --    1.00854   1.01123   1.01520   1.02336   1.02765
 Alpha virt. eigenvalues --    1.03118   1.03333   1.03614   1.04082   1.04313
 Alpha virt. eigenvalues --    1.04727   1.04912   1.05328   1.05689   1.05923
 Alpha virt. eigenvalues --    1.06194   1.06825   1.07331   1.07654   1.08193
 Alpha virt. eigenvalues --    1.08392   1.08827   1.09161   1.09509   1.09711
 Alpha virt. eigenvalues --    1.10352   1.10568   1.10785   1.11188   1.11960
 Alpha virt. eigenvalues --    1.12151   1.12549   1.13000   1.13270   1.13879
 Alpha virt. eigenvalues --    1.13911   1.14299   1.14434   1.14847   1.15217
 Alpha virt. eigenvalues --    1.15343   1.15660   1.15802   1.16062   1.16788
 Alpha virt. eigenvalues --    1.16832   1.17598   1.17873   1.18421   1.18875
 Alpha virt. eigenvalues --    1.18920   1.19333   1.19705   1.19852   1.20358
 Alpha virt. eigenvalues --    1.20838   1.21247   1.21573   1.21670   1.22137
 Alpha virt. eigenvalues --    1.22479   1.23068   1.23817   1.24007   1.24217
 Alpha virt. eigenvalues --    1.24511   1.24785   1.25169   1.25431   1.25514
 Alpha virt. eigenvalues --    1.25982   1.26257   1.26919   1.27367   1.27943
 Alpha virt. eigenvalues --    1.28742   1.28919   1.29599   1.30286   1.30753
 Alpha virt. eigenvalues --    1.31426   1.32041   1.32262   1.32370   1.33393
 Alpha virt. eigenvalues --    1.33600   1.34063   1.34437   1.34647   1.35039
 Alpha virt. eigenvalues --    1.35519   1.35765   1.36243   1.36640   1.36735
 Alpha virt. eigenvalues --    1.36791   1.37061   1.37475   1.38067   1.38588
 Alpha virt. eigenvalues --    1.38747   1.39099   1.39242   1.39680   1.39831
 Alpha virt. eigenvalues --    1.40208   1.40386   1.40629   1.40871   1.41091
 Alpha virt. eigenvalues --    1.41741   1.42215   1.42414   1.42961   1.43269
 Alpha virt. eigenvalues --    1.43460   1.43943   1.44322   1.44748   1.44888
 Alpha virt. eigenvalues --    1.45308   1.45490   1.45921   1.46216   1.46385
 Alpha virt. eigenvalues --    1.46508   1.46558   1.46941   1.47653   1.47697
 Alpha virt. eigenvalues --    1.47881   1.48360   1.48598   1.48655   1.49139
 Alpha virt. eigenvalues --    1.49507   1.49629   1.49847   1.49968   1.50373
 Alpha virt. eigenvalues --    1.50686   1.50945   1.51217   1.51377   1.51642
 Alpha virt. eigenvalues --    1.52117   1.52162   1.52312   1.52735   1.53181
 Alpha virt. eigenvalues --    1.53382   1.53804   1.54120   1.54461   1.54843
 Alpha virt. eigenvalues --    1.55058   1.55350   1.55362   1.55854   1.55993
 Alpha virt. eigenvalues --    1.56312   1.56563   1.56847   1.56996   1.57718
 Alpha virt. eigenvalues --    1.57928   1.58126   1.58293   1.58600   1.58802
 Alpha virt. eigenvalues --    1.59287   1.59605   1.60030   1.60251   1.60550
 Alpha virt. eigenvalues --    1.60779   1.61190   1.61541   1.61874   1.62191
 Alpha virt. eigenvalues --    1.62491   1.62706   1.62983   1.63194   1.63308
 Alpha virt. eigenvalues --    1.64100   1.64266   1.64777   1.65260   1.65418
 Alpha virt. eigenvalues --    1.65788   1.66166   1.66900   1.67520   1.67809
 Alpha virt. eigenvalues --    1.68082   1.68745   1.68861   1.68932   1.69974
 Alpha virt. eigenvalues --    1.70581   1.70789   1.71293   1.71457   1.71545
 Alpha virt. eigenvalues --    1.72311   1.72402   1.72710   1.73206   1.73518
 Alpha virt. eigenvalues --    1.73943   1.74199   1.74850   1.75760   1.76254
 Alpha virt. eigenvalues --    1.76443   1.76706   1.76881   1.77349   1.77812
 Alpha virt. eigenvalues --    1.78085   1.78324   1.78665   1.78958   1.79490
 Alpha virt. eigenvalues --    1.79882   1.80255   1.80664   1.81012   1.81288
 Alpha virt. eigenvalues --    1.81431   1.82010   1.82701   1.82920   1.83174
 Alpha virt. eigenvalues --    1.83721   1.84613   1.84622   1.84909   1.85493
 Alpha virt. eigenvalues --    1.85703   1.85837   1.86352   1.86683   1.87032
 Alpha virt. eigenvalues --    1.87275   1.87678   1.87747   1.88568   1.88837
 Alpha virt. eigenvalues --    1.89374   1.89545   1.89831   1.90881   1.90931
 Alpha virt. eigenvalues --    1.91875   1.92155   1.92622   1.92969   1.93028
 Alpha virt. eigenvalues --    1.93327   1.94005   1.94407   1.94518   1.94622
 Alpha virt. eigenvalues --    1.95319   1.95491   1.95814   1.96073   1.96658
 Alpha virt. eigenvalues --    1.96969   1.97200   1.97445   1.97777   1.97897
 Alpha virt. eigenvalues --    1.98853   1.99342   1.99513   2.00112   2.00349
 Alpha virt. eigenvalues --    2.00760   2.01334   2.01542   2.01639   2.02785
 Alpha virt. eigenvalues --    2.02856   2.03018   2.03333   2.03779   2.04014
 Alpha virt. eigenvalues --    2.04365   2.04577   2.04743   2.05450   2.05619
 Alpha virt. eigenvalues --    2.05923   2.06375   2.06659   2.06803   2.06921
 Alpha virt. eigenvalues --    2.07232   2.07728   2.08406   2.08474   2.08786
 Alpha virt. eigenvalues --    2.09348   2.10189   2.10785   2.10906   2.11247
 Alpha virt. eigenvalues --    2.11878   2.12017   2.12432   2.12706   2.13700
 Alpha virt. eigenvalues --    2.13925   2.14527   2.14816   2.15160   2.15542
 Alpha virt. eigenvalues --    2.16204   2.16287   2.16793   2.17449   2.17734
 Alpha virt. eigenvalues --    2.18651   2.18991   2.19435   2.19770   2.20112
 Alpha virt. eigenvalues --    2.20356   2.20851   2.21459   2.21528   2.22079
 Alpha virt. eigenvalues --    2.22197   2.23104   2.23308   2.23962   2.24463
 Alpha virt. eigenvalues --    2.24977   2.25051   2.25407   2.26179   2.26381
 Alpha virt. eigenvalues --    2.26555   2.26743   2.27394   2.27634   2.28054
 Alpha virt. eigenvalues --    2.28497   2.28919   2.29171   2.29331   2.29751
 Alpha virt. eigenvalues --    2.29796   2.30280   2.30768   2.31064   2.31250
 Alpha virt. eigenvalues --    2.31623   2.32109   2.32475   2.32691   2.33002
 Alpha virt. eigenvalues --    2.33138   2.34015   2.34544   2.34815   2.35235
 Alpha virt. eigenvalues --    2.35458   2.36079   2.36510   2.36930   2.37153
 Alpha virt. eigenvalues --    2.37731   2.37954   2.38393   2.38625   2.38905
 Alpha virt. eigenvalues --    2.39131   2.39545   2.40336   2.40674   2.40939
 Alpha virt. eigenvalues --    2.41365   2.41846   2.42241   2.42391   2.43376
 Alpha virt. eigenvalues --    2.43582   2.43653   2.44125   2.44437   2.44857
 Alpha virt. eigenvalues --    2.45241   2.45599   2.45887   2.46119   2.46657
 Alpha virt. eigenvalues --    2.47354   2.47592   2.47870   2.47992   2.48359
 Alpha virt. eigenvalues --    2.48500   2.48766   2.49345   2.49694   2.50122
 Alpha virt. eigenvalues --    2.50459   2.50656   2.51084   2.51215   2.51465
 Alpha virt. eigenvalues --    2.51893   2.52303   2.52596   2.52950   2.53584
 Alpha virt. eigenvalues --    2.53992   2.54097   2.54346   2.54674   2.54905
 Alpha virt. eigenvalues --    2.55499   2.55820   2.56054   2.56133   2.56725
 Alpha virt. eigenvalues --    2.57147   2.57468   2.57535   2.57796   2.58236
 Alpha virt. eigenvalues --    2.58589   2.58706   2.58898   2.59531   2.59539
 Alpha virt. eigenvalues --    2.60065   2.60209   2.60426   2.60856   2.61353
 Alpha virt. eigenvalues --    2.62186   2.62214   2.62609   2.63311   2.63385
 Alpha virt. eigenvalues --    2.63666   2.64434   2.64629   2.64905   2.65066
 Alpha virt. eigenvalues --    2.65370   2.65552   2.65800   2.66351   2.66775
 Alpha virt. eigenvalues --    2.67486   2.67789   2.68231   2.68354   2.68889
 Alpha virt. eigenvalues --    2.69242   2.69664   2.69867   2.70313   2.70954
 Alpha virt. eigenvalues --    2.71187   2.71563   2.71775   2.72372   2.72914
 Alpha virt. eigenvalues --    2.73209   2.73313   2.73454   2.73822   2.74241
 Alpha virt. eigenvalues --    2.74572   2.74621   2.75216   2.75468   2.75706
 Alpha virt. eigenvalues --    2.76075   2.76702   2.76908   2.77490   2.77703
 Alpha virt. eigenvalues --    2.77826   2.78337   2.78613   2.78976   2.79217
 Alpha virt. eigenvalues --    2.79897   2.80076   2.80405   2.81095   2.81697
 Alpha virt. eigenvalues --    2.81940   2.82043   2.82656   2.82989   2.83209
 Alpha virt. eigenvalues --    2.83872   2.83908   2.84299   2.84553   2.84851
 Alpha virt. eigenvalues --    2.85003   2.85628   2.85908   2.86191   2.86685
 Alpha virt. eigenvalues --    2.87277   2.87632   2.87671   2.88281   2.88578
 Alpha virt. eigenvalues --    2.89108   2.89543   2.89703   2.89997   2.90172
 Alpha virt. eigenvalues --    2.90806   2.91068   2.91534   2.91883   2.92276
 Alpha virt. eigenvalues --    2.92522   2.93039   2.93254   2.93421   2.93574
 Alpha virt. eigenvalues --    2.94106   2.94221   2.94619   2.94773   2.94876
 Alpha virt. eigenvalues --    2.95419   2.95774   2.96000   2.96313   2.97121
 Alpha virt. eigenvalues --    2.97271   2.97524   2.97792   2.98051   2.98273
 Alpha virt. eigenvalues --    2.98591   2.99001   2.99035   2.99218   2.99714
 Alpha virt. eigenvalues --    2.99912   3.00383   3.00559   3.00753   3.01029
 Alpha virt. eigenvalues --    3.01542   3.01663   3.02022   3.02234   3.02577
 Alpha virt. eigenvalues --    3.02836   3.03148   3.03457   3.03816   3.04059
 Alpha virt. eigenvalues --    3.04408   3.04611   3.04941   3.05209   3.05938
 Alpha virt. eigenvalues --    3.05983   3.06170   3.06831   3.07211   3.07341
 Alpha virt. eigenvalues --    3.07462   3.07695   3.08076   3.08156   3.08248
 Alpha virt. eigenvalues --    3.08613   3.08877   3.09294   3.09364   3.09774
 Alpha virt. eigenvalues --    3.09988   3.10346   3.10566   3.10655   3.10991
 Alpha virt. eigenvalues --    3.11370   3.11644   3.11878   3.12025   3.12479
 Alpha virt. eigenvalues --    3.12855   3.12902   3.13247   3.13576   3.13850
 Alpha virt. eigenvalues --    3.14016   3.14297   3.14672   3.14778   3.15133
 Alpha virt. eigenvalues --    3.15368   3.15692   3.16041   3.16077   3.16473
 Alpha virt. eigenvalues --    3.16651   3.16740   3.17122   3.17590   3.18025
 Alpha virt. eigenvalues --    3.18214   3.18345   3.18484   3.18860   3.18992
 Alpha virt. eigenvalues --    3.19244   3.19437   3.19951   3.20089   3.20385
 Alpha virt. eigenvalues --    3.20622   3.21183   3.21493   3.21696   3.22122
 Alpha virt. eigenvalues --    3.22778   3.22801   3.23191   3.23383   3.23452
 Alpha virt. eigenvalues --    3.23711   3.24317   3.24442   3.24528   3.24776
 Alpha virt. eigenvalues --    3.25296   3.25380   3.25572   3.26088   3.26399
 Alpha virt. eigenvalues --    3.26486   3.26893   3.26918   3.27156   3.27498
 Alpha virt. eigenvalues --    3.27757   3.27936   3.28284   3.28489   3.28656
 Alpha virt. eigenvalues --    3.28935   3.29141   3.29411   3.29845   3.29887
 Alpha virt. eigenvalues --    3.30025   3.30497   3.30577   3.31031   3.31316
 Alpha virt. eigenvalues --    3.31891   3.31912   3.32185   3.32342   3.32947
 Alpha virt. eigenvalues --    3.33708   3.34169   3.34353   3.34495   3.34818
 Alpha virt. eigenvalues --    3.35173   3.35382   3.35775   3.36335   3.36365
 Alpha virt. eigenvalues --    3.36537   3.36836   3.37173   3.37894   3.38050
 Alpha virt. eigenvalues --    3.38636   3.38824   3.39392   3.39628   3.40043
 Alpha virt. eigenvalues --    3.40218   3.40599   3.40922   3.41347   3.41734
 Alpha virt. eigenvalues --    3.41961   3.42164   3.42920   3.43239   3.43785
 Alpha virt. eigenvalues --    3.43978   3.44149   3.44611   3.44951   3.45254
 Alpha virt. eigenvalues --    3.45522   3.45947   3.46134   3.46667   3.46893
 Alpha virt. eigenvalues --    3.47306   3.47828   3.48047   3.48563   3.48914
 Alpha virt. eigenvalues --    3.49155   3.49438   3.49884   3.50795   3.51077
 Alpha virt. eigenvalues --    3.51136   3.51311   3.51687   3.52107   3.52537
 Alpha virt. eigenvalues --    3.52952   3.53584   3.53794   3.54113   3.54592
 Alpha virt. eigenvalues --    3.54911   3.55335   3.56101   3.56372   3.56603
 Alpha virt. eigenvalues --    3.57103   3.57252   3.57586   3.57844   3.58517
 Alpha virt. eigenvalues --    3.58728   3.59019   3.59046   3.59841   3.60276
 Alpha virt. eigenvalues --    3.60839   3.61180   3.61411   3.61742   3.62284
 Alpha virt. eigenvalues --    3.62747   3.62780   3.63353   3.63531   3.63753
 Alpha virt. eigenvalues --    3.64491   3.64591   3.65169   3.65370   3.65945
 Alpha virt. eigenvalues --    3.66183   3.66458   3.66953   3.67368   3.68256
 Alpha virt. eigenvalues --    3.68650   3.68990   3.69453   3.69812   3.70759
 Alpha virt. eigenvalues --    3.71462   3.71810   3.72207   3.72510   3.73020
 Alpha virt. eigenvalues --    3.73509   3.74035   3.74370   3.74716   3.75043
 Alpha virt. eigenvalues --    3.75450   3.75721   3.76442   3.76591   3.76727
 Alpha virt. eigenvalues --    3.77556   3.77757   3.78475   3.79020   3.79815
 Alpha virt. eigenvalues --    3.80012   3.80603   3.80733   3.80950   3.81460
 Alpha virt. eigenvalues --    3.81796   3.82258   3.82380   3.82626   3.83257
 Alpha virt. eigenvalues --    3.83503   3.84019   3.84365   3.84950   3.85072
 Alpha virt. eigenvalues --    3.85546   3.86103   3.86393   3.87352   3.87621
 Alpha virt. eigenvalues --    3.88079   3.88659   3.88913   3.89316   3.89986
 Alpha virt. eigenvalues --    3.90218   3.90525   3.91197   3.91841   3.92575
 Alpha virt. eigenvalues --    3.92993   3.93035   3.93301   3.94560   3.95115
 Alpha virt. eigenvalues --    3.95261   3.95988   3.96510   3.96665   3.97944
 Alpha virt. eigenvalues --    3.98177   3.98546   3.98861   3.99430   3.99779
 Alpha virt. eigenvalues --    4.00628   4.01646   4.01914   4.02061   4.02833
 Alpha virt. eigenvalues --    4.02907   4.03234   4.04057   4.04858   4.05519
 Alpha virt. eigenvalues --    4.06269   4.06571   4.06988   4.07645   4.07888
 Alpha virt. eigenvalues --    4.08215   4.09624   4.10093   4.10308   4.10667
 Alpha virt. eigenvalues --    4.11225   4.11327   4.12571   4.12848   4.13209
 Alpha virt. eigenvalues --    4.13368   4.14089   4.14303   4.14776   4.15637
 Alpha virt. eigenvalues --    4.16625   4.17954   4.18736   4.19222   4.20344
 Alpha virt. eigenvalues --    4.20448   4.20823   4.21708   4.21880   4.23037
 Alpha virt. eigenvalues --    4.23291   4.23797   4.24190   4.24628   4.25353
 Alpha virt. eigenvalues --    4.25648   4.26194   4.26709   4.26834   4.27566
 Alpha virt. eigenvalues --    4.28260   4.28935   4.29122   4.29376   4.30277
 Alpha virt. eigenvalues --    4.30738   4.31326   4.31849   4.32079   4.32506
 Alpha virt. eigenvalues --    4.32907   4.33798   4.34118   4.34703   4.35692
 Alpha virt. eigenvalues --    4.36141   4.37118   4.37874   4.39176   4.39604
 Alpha virt. eigenvalues --    4.39979   4.40475   4.41589   4.42463   4.42551
 Alpha virt. eigenvalues --    4.43742   4.44284   4.45349   4.45797   4.47194
 Alpha virt. eigenvalues --    4.47417   4.48213   4.49276   4.49361   4.49903
 Alpha virt. eigenvalues --    4.50540   4.51524   4.52094   4.52723   4.53456
 Alpha virt. eigenvalues --    4.54048   4.54464   4.55262   4.56175   4.56527
 Alpha virt. eigenvalues --    4.56831   4.57584   4.57986   4.58329   4.59078
 Alpha virt. eigenvalues --    4.59303   4.60081   4.60724   4.61128   4.61891
 Alpha virt. eigenvalues --    4.62420   4.63609   4.64266   4.64747   4.65244
 Alpha virt. eigenvalues --    4.65696   4.66573   4.67215   4.68193   4.69211
 Alpha virt. eigenvalues --    4.69596   4.70377   4.70578   4.71609   4.71827
 Alpha virt. eigenvalues --    4.72443   4.72813   4.73711   4.74985   4.75368
 Alpha virt. eigenvalues --    4.76102   4.77009   4.77693   4.77742   4.78294
 Alpha virt. eigenvalues --    4.79328   4.79833   4.80606   4.81343   4.81739
 Alpha virt. eigenvalues --    4.81845   4.82440   4.83167   4.83651   4.84695
 Alpha virt. eigenvalues --    4.85038   4.86227   4.87157   4.88127   4.88511
 Alpha virt. eigenvalues --    4.89140   4.89458   4.90121   4.90469   4.90770
 Alpha virt. eigenvalues --    4.91912   4.92123   4.92744   4.94382   4.95675
 Alpha virt. eigenvalues --    4.96701   4.97301   5.00461   5.01119   5.02454
 Alpha virt. eigenvalues --    5.03187   5.03435   5.04275   5.04474   5.05966
 Alpha virt. eigenvalues --    5.06769   5.08617   5.08941   5.09865   5.10283
 Alpha virt. eigenvalues --    5.10550   5.11064   5.11684   5.12326   5.13567
 Alpha virt. eigenvalues --    5.14283   5.15656   5.16077   5.16650   5.16845
 Alpha virt. eigenvalues --    5.17341   5.19592   5.20139   5.21071   5.22102
 Alpha virt. eigenvalues --    5.22452   5.23848   5.24650   5.25012   5.25472
 Alpha virt. eigenvalues --    5.26161   5.26369   5.28824   5.29380   5.31304
 Alpha virt. eigenvalues --    5.32030   5.33689   5.34430   5.34507   5.35769
 Alpha virt. eigenvalues --    5.36443   5.37369   5.37716   5.38683   5.42494
 Alpha virt. eigenvalues --    5.43491   5.44446   5.46163   5.46368   5.47661
 Alpha virt. eigenvalues --    5.47767   5.49166   5.49835   5.50454   5.50655
 Alpha virt. eigenvalues --    5.50871   5.51520   5.52727   5.55921   5.57412
 Alpha virt. eigenvalues --    5.57784   5.59089   5.61234   5.62544   5.64368
 Alpha virt. eigenvalues --    5.65620   5.67940   5.70049   5.70197   5.70409
 Alpha virt. eigenvalues --    5.74218   5.76261   5.77526   5.82129   5.83134
 Alpha virt. eigenvalues --    5.83755   5.84921   5.85807   5.87163   5.89373
 Alpha virt. eigenvalues --    5.91901   5.92169   5.93560   5.94633   5.98141
 Alpha virt. eigenvalues --    6.00272   6.04564   6.04878   6.05652   6.06380
 Alpha virt. eigenvalues --    6.10494   6.17645   6.18162   6.20485   6.25023
 Alpha virt. eigenvalues --    6.26205   6.26410   6.27078   6.35174   6.36025
 Alpha virt. eigenvalues --    6.40051   6.40770   6.45431   6.46099   6.57574
 Alpha virt. eigenvalues --    6.58641   6.67233   6.67732   6.75003   6.77364
 Alpha virt. eigenvalues --    6.84552   6.87166   6.93172   6.96951   7.04145
 Alpha virt. eigenvalues --    7.05996   7.06422   7.08027   7.21923   7.24778
 Alpha virt. eigenvalues --   22.42485  22.42542  22.45950  22.46114  22.52683
 Alpha virt. eigenvalues --   22.53396  22.54860  22.55471  22.56557  22.59365
 Alpha virt. eigenvalues --   22.60577  22.63703  22.64099  22.74158  22.76589
 Alpha virt. eigenvalues --   22.78237  22.79355  22.83748  22.91047  22.93049
 Alpha virt. eigenvalues --   22.94176  23.00061  23.06327  23.11715  23.16270
 Alpha virt. eigenvalues --   23.17125  23.18662  23.23462  23.27338  23.39347
 Alpha virt. eigenvalues --   23.40583  23.42077  23.47624  23.52913  23.59436
 Alpha virt. eigenvalues --   23.64634  23.65197  23.72356  32.32941  32.49589
 Alpha virt. eigenvalues --   32.75397  32.80872  32.81816  32.90567  43.85798
 Alpha virt. eigenvalues --   43.88385  43.89009  43.89464
  Beta  occ. eigenvalues -- -256.58598 -30.31528 -26.14920 -26.14674 -26.14634
  Beta  occ. eigenvalues --  -19.33876 -19.32910 -19.25037 -19.24676 -14.56585
  Beta  occ. eigenvalues --  -14.51987 -14.49109 -14.49064 -14.48911 -14.48773
  Beta  occ. eigenvalues --  -10.42653 -10.42523 -10.40665 -10.37762 -10.36502
  Beta  occ. eigenvalues --  -10.36498 -10.36424 -10.36421 -10.36404 -10.36338
  Beta  occ. eigenvalues --  -10.36274 -10.36201 -10.35364 -10.33417 -10.33413
  Beta  occ. eigenvalues --  -10.33134 -10.33029 -10.33020 -10.32904 -10.32768
  Beta  occ. eigenvalues --  -10.32700 -10.32694 -10.32611 -10.32521 -10.32511
  Beta  occ. eigenvalues --  -10.32488 -10.31811 -10.31792 -10.31512 -10.31379
  Beta  occ. eigenvalues --  -10.31037 -10.30814 -10.30215 -10.30141 -10.29492
  Beta  occ. eigenvalues --  -10.29016 -10.28566 -10.24821  -3.60231  -2.34980
  Beta  occ. eigenvalues --   -2.34269  -2.34207  -1.23709  -1.23624  -1.18401
  Beta  occ. eigenvalues --   -1.09647  -1.08969  -1.08945  -1.08133  -1.07813
  Beta  occ. eigenvalues --   -1.07017  -1.03058  -0.94747  -0.94612  -0.93303
  Beta  occ. eigenvalues --   -0.93087  -0.92597  -0.92337  -0.92121  -0.91490
  Beta  occ. eigenvalues --   -0.88867  -0.88391  -0.87772  -0.86787  -0.86069
  Beta  occ. eigenvalues --   -0.84346  -0.83531  -0.82679  -0.81923  -0.81869
  Beta  occ. eigenvalues --   -0.79835  -0.78275  -0.77736  -0.76770  -0.76688
  Beta  occ. eigenvalues --   -0.76655  -0.73966  -0.73847  -0.73674  -0.73152
  Beta  occ. eigenvalues --   -0.71226  -0.70340  -0.69396  -0.68234  -0.66577
  Beta  occ. eigenvalues --   -0.65943  -0.65550  -0.64456  -0.63443  -0.63221
  Beta  occ. eigenvalues --   -0.62578  -0.60646  -0.60481  -0.59519  -0.59416
  Beta  occ. eigenvalues --   -0.59316  -0.59187  -0.59031  -0.58138  -0.58013
  Beta  occ. eigenvalues --   -0.57725  -0.57685  -0.56949  -0.56523  -0.56229
  Beta  occ. eigenvalues --   -0.55678  -0.55306  -0.55053  -0.54608  -0.54394
  Beta  occ. eigenvalues --   -0.54311  -0.54176  -0.53788  -0.53438  -0.53385
  Beta  occ. eigenvalues --   -0.53293  -0.52698  -0.52640  -0.52488  -0.52363
  Beta  occ. eigenvalues --   -0.51953  -0.51631  -0.51365  -0.51050  -0.50759
  Beta  occ. eigenvalues --   -0.50722  -0.50259  -0.49969  -0.49534  -0.49360
  Beta  occ. eigenvalues --   -0.49121  -0.48551  -0.48310  -0.48007  -0.47708
  Beta  occ. eigenvalues --   -0.47635  -0.47021  -0.46779  -0.46654  -0.46417
  Beta  occ. eigenvalues --   -0.45983  -0.45717  -0.45591  -0.44770  -0.44412
  Beta  occ. eigenvalues --   -0.43818  -0.43632  -0.43504  -0.42649  -0.42596
  Beta  occ. eigenvalues --   -0.41990  -0.41727  -0.40804  -0.40217  -0.39664
  Beta  occ. eigenvalues --   -0.39367  -0.38956  -0.38927  -0.36165  -0.35628
  Beta  occ. eigenvalues --   -0.35249  -0.35090  -0.34622  -0.34284  -0.33686
  Beta  occ. eigenvalues --   -0.31140  -0.29947
  Beta virt. eigenvalues --   -0.22220  -0.22087  -0.20684  -0.19588  -0.17721
  Beta virt. eigenvalues --   -0.17500  -0.14844  -0.11471  -0.09406  -0.08276
  Beta virt. eigenvalues --   -0.07283  -0.06948  -0.06746  -0.06093  -0.05627
  Beta virt. eigenvalues --   -0.05196  -0.04415  -0.03900  -0.03549  -0.03161
  Beta virt. eigenvalues --   -0.03004  -0.02919  -0.02489  -0.02202  -0.01934
  Beta virt. eigenvalues --   -0.01661  -0.01419  -0.00829  -0.00479  -0.00270
  Beta virt. eigenvalues --   -0.00089   0.00288   0.00662   0.01035   0.01237
  Beta virt. eigenvalues --    0.01470   0.01653   0.01831   0.01996   0.02473
  Beta virt. eigenvalues --    0.02525   0.02697   0.02993   0.03145   0.03659
  Beta virt. eigenvalues --    0.03807   0.03874   0.04212   0.04507   0.04913
  Beta virt. eigenvalues --    0.05080   0.05153   0.05242   0.05435   0.05570
  Beta virt. eigenvalues --    0.05611   0.05791   0.05935   0.06231   0.06504
  Beta virt. eigenvalues --    0.06792   0.06944   0.07097   0.07351   0.07591
  Beta virt. eigenvalues --    0.07705   0.07942   0.08377   0.08416   0.08567
  Beta virt. eigenvalues --    0.08828   0.09018   0.09565   0.09774   0.10130
  Beta virt. eigenvalues --    0.10436   0.10657   0.11045   0.11210   0.11403
  Beta virt. eigenvalues --    0.11520   0.11705   0.12017   0.12286   0.12463
  Beta virt. eigenvalues --    0.12585   0.12720   0.12991   0.13316   0.13566
  Beta virt. eigenvalues --    0.13633   0.13823   0.14004   0.14023   0.14231
  Beta virt. eigenvalues --    0.14403   0.14789   0.14971   0.15132   0.15338
  Beta virt. eigenvalues --    0.15602   0.15784   0.15925   0.16340   0.16440
  Beta virt. eigenvalues --    0.16577   0.16783   0.17041   0.17313   0.17622
  Beta virt. eigenvalues --    0.17656   0.18049   0.18193   0.18418   0.18703
  Beta virt. eigenvalues --    0.19046   0.19131   0.19620   0.19861   0.20042
  Beta virt. eigenvalues --    0.20177   0.20556   0.20852   0.21021   0.21218
  Beta virt. eigenvalues --    0.21618   0.21741   0.21905   0.22031   0.22206
  Beta virt. eigenvalues --    0.22616   0.22652   0.23152   0.23303   0.23427
  Beta virt. eigenvalues --    0.23506   0.23882   0.23921   0.24229   0.24368
  Beta virt. eigenvalues --    0.24464   0.24777   0.24846   0.25363   0.25695
  Beta virt. eigenvalues --    0.25955   0.26509   0.26638   0.26683   0.27284
  Beta virt. eigenvalues --    0.27373   0.27410   0.27696   0.27929   0.28070
  Beta virt. eigenvalues --    0.28388   0.28510   0.28730   0.29005   0.29250
  Beta virt. eigenvalues --    0.29355   0.29827   0.30068   0.30197   0.30704
  Beta virt. eigenvalues --    0.30900   0.31128   0.31304   0.31490   0.31592
  Beta virt. eigenvalues --    0.31994   0.32238   0.32456   0.32693   0.32804
  Beta virt. eigenvalues --    0.33079   0.33402   0.33530   0.33954   0.34169
  Beta virt. eigenvalues --    0.34347   0.34546   0.34602   0.34717   0.34940
  Beta virt. eigenvalues --    0.35102   0.35448   0.35502   0.35675   0.35773
  Beta virt. eigenvalues --    0.35960   0.36109   0.36456   0.36573   0.36732
  Beta virt. eigenvalues --    0.36776   0.37139   0.37200   0.37348   0.37521
  Beta virt. eigenvalues --    0.37671   0.37814   0.37923   0.38100   0.38285
  Beta virt. eigenvalues --    0.38613   0.38756   0.38907   0.39102   0.39179
  Beta virt. eigenvalues --    0.39398   0.39919   0.39974   0.40077   0.40273
  Beta virt. eigenvalues --    0.40424   0.40711   0.40855   0.40917   0.41310
  Beta virt. eigenvalues --    0.41491   0.41598   0.41895   0.41920   0.42231
  Beta virt. eigenvalues --    0.42370   0.42448   0.42824   0.42839   0.42989
  Beta virt. eigenvalues --    0.43177   0.43507   0.43626   0.43768   0.43899
  Beta virt. eigenvalues --    0.44058   0.44257   0.44461   0.44650   0.44839
  Beta virt. eigenvalues --    0.45232   0.45370   0.45559   0.45613   0.45858
  Beta virt. eigenvalues --    0.46082   0.46331   0.46588   0.46882   0.47301
  Beta virt. eigenvalues --    0.47497   0.47847   0.48064   0.48252   0.48332
  Beta virt. eigenvalues --    0.48657   0.48875   0.48970   0.49292   0.49523
  Beta virt. eigenvalues --    0.49677   0.49776   0.49982   0.50434   0.50556
  Beta virt. eigenvalues --    0.50812   0.51135   0.51363   0.51594   0.51799
  Beta virt. eigenvalues --    0.51856   0.52581   0.52763   0.52857   0.53429
  Beta virt. eigenvalues --    0.53495   0.53947   0.54076   0.54269   0.54288
  Beta virt. eigenvalues --    0.55011   0.55140   0.55294   0.55471   0.55942
  Beta virt. eigenvalues --    0.56007   0.56271   0.56619   0.56724   0.57077
  Beta virt. eigenvalues --    0.57159   0.57616   0.57703   0.58301   0.58619
  Beta virt. eigenvalues --    0.58762   0.59051   0.59318   0.59358   0.59585
  Beta virt. eigenvalues --    0.59852   0.60270   0.60343   0.60607   0.60781
  Beta virt. eigenvalues --    0.61143   0.61339   0.61751   0.61836   0.62327
  Beta virt. eigenvalues --    0.62363   0.62665   0.63103   0.63275   0.63419
  Beta virt. eigenvalues --    0.64138   0.64203   0.64481   0.64942   0.65168
  Beta virt. eigenvalues --    0.65415   0.65497   0.66031   0.66062   0.66565
  Beta virt. eigenvalues --    0.66846   0.67283   0.67372   0.67725   0.67851
  Beta virt. eigenvalues --    0.68076   0.68796   0.68835   0.69247   0.69389
  Beta virt. eigenvalues --    0.69793   0.70231   0.70368   0.70613   0.70927
  Beta virt. eigenvalues --    0.71147   0.71514   0.71715   0.71846   0.72667
  Beta virt. eigenvalues --    0.73041   0.73411   0.73737   0.74076   0.74201
  Beta virt. eigenvalues --    0.74274   0.74841   0.75063   0.75556   0.75897
  Beta virt. eigenvalues --    0.76498   0.76855   0.77063   0.77377   0.77996
  Beta virt. eigenvalues --    0.78120   0.78320   0.78672   0.78988   0.79303
  Beta virt. eigenvalues --    0.79434   0.79582   0.80020   0.80710   0.80907
  Beta virt. eigenvalues --    0.81322   0.81384   0.81534   0.82124   0.82612
  Beta virt. eigenvalues --    0.82909   0.83128   0.83256   0.83429   0.83876
  Beta virt. eigenvalues --    0.84151   0.84617   0.84860   0.85044   0.85449
  Beta virt. eigenvalues --    0.85563   0.85927   0.85979   0.86043   0.86629
  Beta virt. eigenvalues --    0.86850   0.87180   0.87555   0.87907   0.88290
  Beta virt. eigenvalues --    0.88514   0.89156   0.89236   0.89416   0.89700
  Beta virt. eigenvalues --    0.89956   0.90429   0.90886   0.91171   0.91381
  Beta virt. eigenvalues --    0.91751   0.92158   0.92392   0.92525   0.93004
  Beta virt. eigenvalues --    0.93116   0.93267   0.93598   0.93995   0.94337
  Beta virt. eigenvalues --    0.94507   0.94846   0.95086   0.95283   0.95703
  Beta virt. eigenvalues --    0.96219   0.96364   0.96677   0.97029   0.97409
  Beta virt. eigenvalues --    0.97922   0.98171   0.98377   0.98654   0.99019
  Beta virt. eigenvalues --    0.99294   0.99774   1.00451   1.00558   1.00810
  Beta virt. eigenvalues --    1.01066   1.01257   1.01727   1.02583   1.02997
  Beta virt. eigenvalues --    1.03305   1.03757   1.04034   1.04255   1.04679
  Beta virt. eigenvalues --    1.04976   1.05134   1.05473   1.05960   1.06161
  Beta virt. eigenvalues --    1.06547   1.07082   1.07528   1.07832   1.08429
  Beta virt. eigenvalues --    1.08683   1.09228   1.09280   1.09659   1.09834
  Beta virt. eigenvalues --    1.10444   1.10747   1.10939   1.11441   1.12187
  Beta virt. eigenvalues --    1.12338   1.12748   1.13230   1.13512   1.13992
  Beta virt. eigenvalues --    1.14121   1.14456   1.14540   1.14966   1.15297
  Beta virt. eigenvalues --    1.15570   1.15853   1.16056   1.16173   1.16916
  Beta virt. eigenvalues --    1.17114   1.17838   1.18021   1.18562   1.19040
  Beta virt. eigenvalues --    1.19197   1.19437   1.19865   1.19962   1.20503
  Beta virt. eigenvalues --    1.20918   1.21495   1.21702   1.21797   1.22262
  Beta virt. eigenvalues --    1.22596   1.23212   1.23957   1.24142   1.24369
  Beta virt. eigenvalues --    1.24678   1.24972   1.25315   1.25532   1.25650
  Beta virt. eigenvalues --    1.26254   1.26438   1.27119   1.27545   1.28042
  Beta virt. eigenvalues --    1.28867   1.29067   1.29816   1.30535   1.31009
  Beta virt. eigenvalues --    1.31602   1.32156   1.32493   1.32714   1.33544
  Beta virt. eigenvalues --    1.33751   1.34223   1.34610   1.34752   1.35472
  Beta virt. eigenvalues --    1.35750   1.35877   1.36388   1.36835   1.36888
  Beta virt. eigenvalues --    1.37035   1.37522   1.37553   1.38233   1.38799
  Beta virt. eigenvalues --    1.38964   1.39202   1.39477   1.39761   1.39981
  Beta virt. eigenvalues --    1.40332   1.40610   1.40741   1.41092   1.41278
  Beta virt. eigenvalues --    1.41873   1.42355   1.42502   1.43054   1.43376
  Beta virt. eigenvalues --    1.43577   1.44016   1.44424   1.44831   1.44959
  Beta virt. eigenvalues --    1.45424   1.45629   1.46022   1.46328   1.46458
  Beta virt. eigenvalues --    1.46561   1.46652   1.46999   1.47722   1.47778
  Beta virt. eigenvalues --    1.47945   1.48464   1.48697   1.48724   1.49202
  Beta virt. eigenvalues --    1.49568   1.49689   1.49924   1.50067   1.50465
  Beta virt. eigenvalues --    1.50737   1.51056   1.51299   1.51479   1.51690
  Beta virt. eigenvalues --    1.52172   1.52255   1.52420   1.52831   1.53274
  Beta virt. eigenvalues --    1.53448   1.53936   1.54206   1.54534   1.54972
  Beta virt. eigenvalues --    1.55113   1.55453   1.55479   1.55949   1.56131
  Beta virt. eigenvalues --    1.56376   1.56625   1.56940   1.57167   1.57813
  Beta virt. eigenvalues --    1.57976   1.58219   1.58357   1.58696   1.58886
  Beta virt. eigenvalues --    1.59410   1.59709   1.60070   1.60420   1.60626
  Beta virt. eigenvalues --    1.60833   1.61300   1.61623   1.62002   1.62281
  Beta virt. eigenvalues --    1.62611   1.62789   1.63045   1.63282   1.63402
  Beta virt. eigenvalues --    1.64215   1.64329   1.64846   1.65396   1.65524
  Beta virt. eigenvalues --    1.65875   1.66274   1.66999   1.67608   1.67925
  Beta virt. eigenvalues --    1.68198   1.68877   1.68973   1.69010   1.70090
  Beta virt. eigenvalues --    1.70684   1.70907   1.71420   1.71554   1.71663
  Beta virt. eigenvalues --    1.72398   1.72484   1.72961   1.73291   1.73589
  Beta virt. eigenvalues --    1.74051   1.74351   1.74967   1.75991   1.76349
  Beta virt. eigenvalues --    1.76550   1.76776   1.76997   1.77487   1.77924
  Beta virt. eigenvalues --    1.78205   1.78495   1.78802   1.79248   1.79603
  Beta virt. eigenvalues --    1.79959   1.80483   1.80880   1.81216   1.81512
  Beta virt. eigenvalues --    1.81570   1.82152   1.82835   1.83098   1.83305
  Beta virt. eigenvalues --    1.83952   1.84706   1.84822   1.85067   1.85601
  Beta virt. eigenvalues --    1.85868   1.86126   1.86516   1.86833   1.87145
  Beta virt. eigenvalues --    1.87320   1.87885   1.88030   1.88656   1.88964
  Beta virt. eigenvalues --    1.89449   1.89683   1.90224   1.91065   1.91209
  Beta virt. eigenvalues --    1.92064   1.92253   1.92845   1.93121   1.93382
  Beta virt. eigenvalues --    1.93584   1.94096   1.94509   1.94774   1.94959
  Beta virt. eigenvalues --    1.95683   1.95869   1.96047   1.96194   1.96775
  Beta virt. eigenvalues --    1.97182   1.97361   1.97538   1.97940   1.98401
  Beta virt. eigenvalues --    1.99092   1.99658   1.99696   2.00427   2.00578
  Beta virt. eigenvalues --    2.01238   2.01525   2.01732   2.02060   2.02886
[...]
  1552. RY*(   2) H  67                  0.00008     2.49849   
  1553. RY*(   3) H  67                  0.00008     2.37467   
  1554. RY*(   4) H  67                  0.00005     2.36137   
  1555. RY*(   5) H  67                  0.00000     2.91809   
  1556. RY*(   1) H  68                  0.00037     0.98914   
  1557. RY*(   2) H  68                  0.00006     1.56799   
  1558. RY*(   3) H  68                  0.00006     2.35892   
  1559. RY*(   4) H  68                  0.00003     2.33991   
  1560. RY*(   5) H  68                  0.00001     2.86233   
  1561. RY*(   1) H  69                  0.00028     1.23662   
  1562. RY*(   2) H  69                  0.00006     2.33764   
  1563. RY*(   3) H  69                  0.00005     1.41195   
  1564. RY*(   4) H  69                  0.00003     2.31260   
  1565. RY*(   5) H  69                  0.00001     2.96137   
  1566. RY*(   1) H  70                  0.00046     1.21117   
  1567. RY*(   2) H  70                  0.00034     1.65606   
  1568. RY*(   3) H  70                  0.00023     1.78431   
  1569. RY*(   4) H  70                  0.00012     2.10166   
  1570. RY*(   5) H  70                  0.00000     3.08309   
  1571. RY*(   1) H  71                  0.00067     0.80247   
  1572. RY*(   2) H  71                  0.00033     2.07504   
  1573. RY*(   3) H  71                  0.00024     1.71984   
  1574. RY*(   4) H  71                  0.00011     2.09861   
  1575. RY*(   5) H  71                  0.00000     3.14212   
  1576. RY*(   1) H  72                  0.00036     1.00054   
  1577. RY*(   2) H  72                  0.00007     1.69281   
  1578. RY*(   3) H  72                  0.00006     2.49069   
  1579. RY*(   4) H  72                  0.00004     2.15765   
  1580. RY*(   5) H  72                  0.00001     2.89863   
  1581. RY*(   1) H  73                  0.00032     1.38439   
  1582. RY*(   2) H  73                  0.00006     1.68108   
  1583. RY*(   3) H  73                  0.00006     2.28918   
  1584. RY*(   4) H  73                  0.00002     2.15485   
  1585. RY*(   5) H  73                  0.00000     2.79614   
  1586. RY*(   1) H  74                  0.00034     1.71462   
  1587. RY*(   2) H  74                  0.00008     2.61855   
  1588. RY*(   3) H  74                  0.00005     2.26936   
  1589. RY*(   4) H  74                  0.00003     1.36682   
  1590. RY*(   5) H  74                  0.00000     2.80825   
  1591. RY*(   1) H  75                  0.00039     1.51823   
  1592. RY*(   2) H  75                  0.00008     2.63741   
  1593. RY*(   3) H  75                  0.00005     1.34757   
  1594. RY*(   4) H  75                  0.00006     2.39293   
  1595. RY*(   5) H  75                  0.00000     2.90890   
  1596. RY*(   1) H  76                  0.00029     1.02058   
  1597. RY*(   2) H  76                  0.00009     1.71371   
  1598. RY*(   3) H  76                  0.00003     1.99206   
  1599. RY*(   4) H  76                  0.00004     2.00825   
  1600. RY*(   5) H  76                  0.00000     2.80657   
  1601. RY*(   1) H  77                  0.00038     1.19811   
  1602. RY*(   2) H  77                  0.00010     1.91089   
  1603. RY*(   3) H  77                  0.00006     2.41318   
  1604. RY*(   4) H  77                  0.00004     2.10216   
  1605. RY*(   5) H  77                  0.00000     2.64767   
  1606. RY*(   1) H  78                  0.00029     1.05197   
  1607. RY*(   2) H  78                  0.00009     1.75629   
  1608. RY*(   3) H  78                  0.00005     1.96849   
  1609. RY*(   4) H  78                  0.00002     2.13209   
  1610. RY*(   5) H  78                  0.00001     2.61481   
  1611. RY*(   1) H  79                  0.00041     1.15620   
  1612. RY*(   2) H  79                  0.00010     1.80235   
  1613. RY*(   3) H  79                  0.00005     2.38814   
  1614. RY*(   4) H  79                  0.00004     1.86837   
  1615. RY*(   5) H  79                  0.00001     2.94990   
  1616. RY*(   1) H  80                  0.00028     1.60845   
  1617. RY*(   2) H  80                  0.00010     1.46936   
  1618. RY*(   3) H  80                  0.00004     2.29587   
  1619. RY*(   4) H  80                  0.00003     2.06418   
  1620. RY*(   5) H  80                  0.00000     2.93017   
  1621. RY*(   1) H  81                  0.00029     1.36009   
  1622. RY*(   2) H  81                  0.00008     1.47758   
  1623. RY*(   3) H  81                  0.00007     2.56183   
  1624. RY*(   4) H  81                  0.00004     2.08090   
  1625. RY*(   5) H  81                  0.00001     2.65525   
  1626. RY*(   1) H  82                  0.00019     1.31911   
  1627. RY*(   2) H  82                  0.00005     1.55904   
  1628. RY*(   3) H  82                  0.00003     1.98090   
  1629. RY*(   4) H  82                  0.00003     2.02407   
  1630. RY*(   5) H  82                  0.00000     2.49619   
  1631. RY*(   1) H  83                  0.00028     1.21869   
  1632. RY*(   2) H  83                  0.00006     1.84980   
  1633. RY*(   3) H  83                  0.00003     1.57376   
  1634. RY*(   4) H  83                  0.00003     2.08099   
  1635. RY*(   5) H  83                  0.00001     2.76976   
  1636. RY*(   1) H  84                  0.00031     1.18013   
  1637. RY*(   2) H  84                  0.00009     1.47974   
  1638. RY*(   3) H  84                  0.00005     2.22219   
  1639. RY*(   4) H  84                  0.00003     1.91357   
  1640. RY*(   5) H  84                  0.00000     2.92484   
  1641. RY*(   1) H  85                  0.00034     1.18596   
  1642. RY*(   2) H  85                  0.00010     1.40526   
  1643. RY*(   3) H  85                  0.00008     2.19741   
  1644. RY*(   4) H  85                  0.00004     2.04173   
  1645. RY*(   5) H  85                  0.00001     2.90891   
  1646. RY*(   1) H  86                  0.00026     1.34681   
  1647. RY*(   2) H  86                  0.00009     1.70345   
  1648. RY*(   3) H  86                  0.00004     2.83817   
  1649. RY*(   4) H  86                  0.00003     2.02518   
  1650. RY*(   5) H  86                  0.00000     1.90904   
  1651. RY*(   1) H  87                  0.00027     1.00342   
  1652. RY*(   2) H  87                  0.00007     1.85774   
  1653. RY*(   3) H  87                  0.00005     2.02868   
  1654. RY*(   4) H  87                  0.00002     2.22709   
  1655. RY*(   5) H  87                  0.00001     2.98361   
  1656. RY*(   1) H  88                  0.00026     1.01033   
  1657. RY*(   2) H  88                  0.00007     1.87167   
  1658. RY*(   3) H  88                  0.00005     1.99078   
  1659. RY*(   4) H  88                  0.00002     2.47575   
  1660. RY*(   5) H  88                  0.00001     2.75079   
  1661. RY*(   1) H  89                  0.00072     1.43356   
  1662. RY*(   2) H  89                  0.00008     2.22918   
  1663. RY*(   3) H  89                  0.00006     2.40750   
  1664. RY*(   4) H  89                  0.00003     3.24343   
  1665. RY*(   5) H  89                  0.00001     2.14990   
  1666. RY*(   1) H  90                  0.00034     1.67602   
  1667. RY*(   2) H  90                  0.00008     2.60150   
  1668. RY*(   3) H  90                  0.00004     2.28288   
  1669. RY*(   4) H  90                  0.00004     1.53903   
  1670. RY*(   5) H  90                  0.00000     2.72027   
  1671. RY*(   1) H  91                  0.00035     1.66737   
  1672. RY*(   2) H  91                  0.00008     2.59534   
  1673. RY*(   3) H  91                  0.00004     2.24598   
  1674. RY*(   4) H  91                  0.00004     1.53761   
  1675. RY*(   5) H  91                  0.00000     2.74176   
  1691. BD*(   1) C   8 - C  13          0.00995     0.45322   
  1692. BD*(   1) C   8 - C  41          0.00978     0.47042   
  1693. BD*(   2) C   8 - C  41          0.19323    -0.06368  1708(v),1763(v),1759(v)
                                                    374(g),375(g),176(r)
  1694. BD*(   1) C   8 - H  56          0.00663     0.34168   
  1695. BD*(   1) C   9 - C  16          0.00933     0.45155   
  1696. BD*(   1) C   9 - C  24          0.00939     0.45211   
  1697. BD*(   2) C   9 - C  24          0.18951    -0.06335  1733(v),179(v),1700(r)
                                                    401(g),794(g),176(r)
  1698. BD*(   1) C   9 - H  59          0.00588     0.34193   
  1699. BD*(   1) C  10 - C  27          0.00958     0.47253   
  1700. BD*(   2) C  10 - C  27          0.19497    -0.06192  1741(v),1733(v),427(g)
                                                    1697(r),872(g),1704(r)
                                                    176(r)
  1701. BD*(   1) C  10 - C  30          0.00989     0.46173   
  1702. BD*(   1) C  10 - H  58          0.00715     0.34287   
  1703. BD*(   1) C  11 - C  33          0.00910     0.48299   
  1704. BD*(   2) C  11 - C  33          0.18165    -0.05656  1759(v),1745(v),1741(v)
                                                    1028(g),452(g),453(g)
                                                    1700(r),176(r)
  1705. BD*(   1) C  11 - C  38          0.00966     0.44876   
  1706. BD*(   1) C  11 - H  57          0.00588     0.34270   
  1707. BD*(   1) N  12 - C  13          0.01340     0.35797   
  1708. BD*(   2) N  12 - C  13          0.32701    -0.11161  1693(v),171(r),1712(v)
                                                    179(v),506(g),479(g),176(r)
                                                    172(r),170(r)
  1709. BD*(   1) N  12 - C  16          0.01308     0.36131   
  1710. BD*(   1) C  13 - C  14          0.01669     0.38477   
  1711. BD*(   1) C  14 - C  15          0.00981     0.51760   
  1712. BD*(   2) C  14 - C  15          0.11791    -0.02963  1708(v),179(v),1719(v)
                                                    1718(v),1716(v)
  1713. BD*(   1) C  14 - C  18          0.01179     0.27915   
  1714. BD*(   1) C  15 - C  16          0.01689     0.38110   
  1715. BD*(   1) C  15 - C  17          0.00826     0.29645   
  1716. BD*(   1) C  17 - H  60          0.00363     0.32306   
  1717. BD*(   1) C  17 - H  61          0.00238     0.32606   
  1718. BD*(   1) C  17 - H  62          0.00406     0.32176   
  1719. BD*(   1) C  18 - C  19          0.00692     0.26429   
  1720. BD*(   1) C  18 - H  74          0.00643     0.32441   
  1721. BD*(   1) C  18 - H  75          0.00652     0.32301   
  1722. BD*(   1) C  19 - C  20          0.03184     0.26567   
  1723. BD*(   1) C  19 - H  72          0.00453     0.32121   
  1724. BD*(   1) C  19 - H  73          0.00660     0.30553   
  1725. BD*(   1) C  20 - O  21          0.01592     0.46918   
  1726. BD*(   2) C  20 - O  21          0.10859    -0.07369  1724(v),1719(v),688(g)
                                                    1728(v)
  1727. BD*(   1) C  20 - O  22          0.03649     0.39068   
  1728. BD*(   1) O  22 - H  71          0.00628     0.31630   
  1729. BD*(   1) N  23 - C  24          0.01274     0.37444   
  1730. BD*(   1) N  23 - C  27          0.01319     0.37473   
  1731. BD*(   1) C  24 - C  25          0.01702     0.37136   
  1732. BD*(   1) C  25 - C  26          0.00905     0.52440   
  1733. BD*(   2) C  25 - C  26          0.10721    -0.02637  1700(v),1697(v),1781(v)
                                                    1739(v),1737(v),177(r)
  1734. BD*(   1) C  25 - C  28          0.00871     0.27254   
  1735. BD*(   1) C  26 - C  27          0.01743     0.36922   
  1736. BD*(   1) C  26 - C  48          0.01181     0.27105   
  1737. BD*(   1) C  28 - H  76          0.00394     0.32373   
  1738. BD*(   1) C  28 - H  77          0.01415     0.39442   
  1739. BD*(   1) C  28 - H  78          0.00358     0.31802   
  1740. BD*(   1) N  29 - C  30          0.01303     0.36713   
  1741. BD*(   2) N  29 - C  30          0.32412    -0.10826  1700(v),1745(v),171(r)
                                                    1704(v),948(g),921(g),176(r)
                                                    427(v),947(g),172(r),174(r)
  1742. BD*(   1) N  29 - C  33          0.01408     0.35182   
  1743. BD*(   1) C  30 - C  31          0.01609     0.38417   
  1744. BD*(   1) C  31 - C  32          0.00950     0.51062   
  1745. BD*(   2) C  31 - C  32          0.11207    -0.02945  1704(v),1741(v),1749(v)
                                                    1000(g),1754(v),1750(v)
                                                    1753(v)
  1746. BD*(   1) C  31 - C  34          0.00974     0.26683   
  1747. BD*(   1) C  32 - C  33          0.01596     0.37401   
  1748. BD*(   1) C  32 - C  35          0.01435     0.29426   
  1749. BD*(   1) C  34 - H  84          0.00447     0.30725   
  1750. BD*(   1) C  34 - H  85          0.00352     0.30487   
  1751. BD*(   1) C  34 - H  86          0.00919     0.34741   
  1752. BD*(   1) C  35 - C  36          0.00404     0.49676   
  1753. BD*(   1) C  35 - H  90          0.00892     0.33299   
  1754. BD*(   1) C  35 - H  91          0.00930     0.33161   
  1755. BD*(   1) C  36 - H  87          0.00495     0.33466   
  1756. BD*(   1) C  36 - H  88          0.00476     0.33341   
  1757. BD*(   1) C  36 - H  89          0.01844     0.41275   
  1758. BD*(   1) N  37 - C  38          0.01296     0.37445   
  1759. BD*(   2) N  37 - C  38          0.32079    -0.10767  1704(v),1693(v),1763(v)
                                                    173(r),1155(g),176(r)
                                                    1129(g),1156(g),171(r)
                                                    175(r)
  1760. BD*(   1) N  37 - C  41          0.01355     0.37438   
  1761. BD*(   1) C  38 - C  39          0.01680     0.37090   
  1762. BD*(   1) C  39 - C  40          0.00959     0.53231   
  1763. BD*(   2) C  39 - C  40          0.11134    -0.02622  1693(v),1759(v),1770(v)
                                                    1769(v),1772(v),1768(v)
  1764. BD*(   1) C  39 - C  42          0.00855     0.26912   
  1765. BD*(   1) C  40 - C  41          0.01750     0.37873   
  1766. BD*(   1) C  40 - C  43          0.01350     0.29160   
  1767. BD*(   1) C  42 - H  63          0.00200     0.33480   
  1768. BD*(   1) C  42 - H  64          0.00332     0.32424   
  1769. BD*(   1) C  42 - H  65          0.00334     0.32488   
  1770. BD*(   1) C  43 - C  44          0.00667     0.26553   
  1771. BD*(   1) C  43 - H  66          0.00628     0.32189   
  1772. BD*(   1) C  43 - H  67          0.00782     0.32458   
  1773. BD*(   1) C  44 - C  45          0.03532     0.25804   
  1774. BD*(   1) C  44 - H  68          0.00664     0.31631   
  1775. BD*(   1) C  44 - H  69          0.00510     0.32474   
  1776. BD*(   1) C  45 - O  46          0.03630     0.41019   
  1777. BD*(   1) C  45 - O  47          0.01931     0.48092   
  1778. BD*(   2) C  45 - O  47          0.09288    -0.06973   
  1779. BD*(   1) O  46 - H  70          0.00649     0.31104   
  1780. BD*(   1) C  48 - C  49          0.00246     0.26193   
  1781. BD*(   1) C  48 - H  79          0.00743     0.31919   
  1782. BD*(   1) C  48 - H  80          0.00552     0.31667   
  1783. BD*(   1) C  49 - H  81          0.00964     0.37199   
  1784. BD*(   1) C  49 - H  82          0.00376     0.34220   
  1785. BD*(   1) C  49 - H  83          0.00369     0.32218   
       -------------------------------
              Total Lewis  146.39703  ( 97.6605%)
        Valence non-Lewis    3.24044  (  2.1617%)
        Rydberg non-Lewis    0.26664  (  0.1779%)
       -------------------------------
            Total unit  3  149.90411  (100.0000%)
           Charge unit  3    0.09589
 1\1\GINC-NODE546\SP\UPBE1PBE\def2TZVP\C38H42Fe1N6O4(1+,6)\ZHARTOVSKA\0
 8-Sep-2022\0\\# PBE1PBE/def2TZVP empiricaldispersion=GD3BJ scf=maxcycl
 e=999 geom=check pop=nbo\\2gsm_III_H\\1,6\C,0,-5.474,-37.528,20.323\C,
 0,-5.651,-36.312,21.197001\N,0,-6.76,-36.129002,21.996\C,0,-4.88,-35.2
 06001,21.370001\C,0,-6.668,-34.964001,22.622\N,0,-5.531,-34.386002,22.
 267\Fe,0,-4.52,-32.644001,22.892\C,0,-1.505,-33.622002,21.511999\C,0,-
 3.669,-34.209,25.865999\C,0,-7.35,-31.365,24.419001\C,0,-5.164,-30.729
 ,20.121\N,0,-2.873,-33.743,23.577\C,0,-1.717,-33.959,22.844\C,0,-0.784
 ,-34.632,23.719999\C,0,-1.369,-34.789001,24.924999\C,0,-2.709,-34.2400
 02,24.858\C,0,-0.713,-35.43,26.132\C,0,0.641,-35.077999,23.351\C,0,0.6
 14,-36.492001,22.771999\C,0,1.968,-36.821999,22.18\O,0,2.509,-37.91099
 9,22.504999\O,0,2.522,-36.009998,21.382\N,0,-5.361,-32.737,24.851999\C
 ,0,-4.884,-33.529999,25.874001\C,0,-5.891,-33.502998,26.929001\C,0,-6.
 902,-32.712002,26.533001\C,0,-6.587,-32.209999,25.195999\C,0,-5.815,-3
 4.251999,28.274\N,0,-5.992,-31.296,22.363001\C,0,-7.062,-30.905001,23.
 145\C,0,-7.835,-29.938999,22.396\C,0,-7.245,-29.76,21.193001\C,0,-6.06
 6,-30.617001,21.146999\C,0,-9.098,-29.238001,22.921\C,0,-7.702,-28.816
 999,20.072001\C,0,-8.75969665,-28.08576393,20.49994972\N,0,-3.508,-32.
 266998,21.104\C,0,-3.943,-31.403999,20.125\C,0,-2.906,-31.361,19.10199
 9\C,0,-1.903,-32.160999,19.488001\C,0,-2.265,-32.749001,20.766001\C,0,
 -2.973,-30.514999,17.811001\C,0,-0.603,-32.486,18.752001\C,0,0.463,-31
 .393999,18.716999\C,0,1.5,-31.948999,17.750999\O,0,2.4,-32.716,18.1779
 99\O,0,1.407,-31.631001,16.547001\C,0,-8.129,-32.311001,27.386999\C,0,
 -8.57108656,-33.51064774,28.24549022\H,0,-4.56452282,-38.0267336,20.58
 570906\H,0,-6.29974669,-38.19327544,20.46600697\H,0,-5.43213475,-37.22
 684082,19.29710992\H,0,-7.51713514,-36.77562007,22.08890559\H,0,-7.390
 4874,-34.55928526,23.29958182\H,0,-3.9407778,-35.00818999,20.89710306\
 H,0,-0.67412167,-34.08387267,21.02086084\H,0,-5.42815395,-30.23976443,
 19.20679475\H,0,-8.26923448,-31.02597678,24.84908381\H,0,-3.44477242,-
 34.77809616,26.74392357\H,0,0.2289573,-34.9580119,26.3186646\H,0,-1.34
 627267,-35.31265441,26.9864564\H,0,-0.55865769,-36.47177242,25.9428210
 5\H,0,-2.11563814,-30.72081274,17.20480685\H,0,-3.86129698,-30.7623455
 8,17.26818598\H,0,-2.98846756,-29.47591759,18.06589426\H,0,-0.17247032
 ,-33.35104379,19.21161327\H,0,-0.85094826,-32.7358406,17.74155489\H,0,
 0.88966186,-31.25193368,19.6879146\H,0,0.05301022,-30.47823941,18.3452
 5614\H,0,3.32412137,-32.48883142,18.05153113\H,0,3.47960041,-35.961616
 81,21.33445302\H,0,0.38460747,-37.1910653,23.54890838\H,0,-0.13291057,
 -36.55023353,22.00803985\H,0,1.25467458,-35.06533955,24.22743781\H,0,1
 .04628101,-34.40501289,22.62454491\H,0,-4.92482514,-33.96367767,28.792
 99859\H,0,-6.67000253,-34.00559394,28.86826865\H,0,-5.79741384,-35.306
 67488,28.09441851\H,0,-7.86741933,-31.49289726,28.025107\H,0,-8.931653
 72,-32.01836805,26.742784\H,0,-7.83659535,-33.69890175,29.00046247\H,0
 ,-9.5103538,-33.29099325,28.70855498\H,0,-8.67347458,-34.37556899,27.6
 2393739\H,0,-8.89326064,-28.1983192,23.06947067\H,0,-9.88892916,-29.34
 760068,22.20873672\H,0,-9.3910949,-29.68005715,23.85029099\H,0,-8.4918
 6734,-27.05005339,20.52165552\H,0,-9.58426318,-28.22702938,19.83284095
 \H,0,-9.03806526,-28.40286138,21.48324018\H,0,-6.89869522,-28.16142405
 ,19.80776074\H,0,-7.98885959,-29.39237827,19.21669388\\Version=ES64L-G
 16RevA.03\State=6-A\HF=-3364.5329383\S2=8.759718\S2-1=0.\S2A=8.750029\
 RMSD=4.839e-09\Dipole=-2.7637243,-0.4743742,1.094555\Quadrupole=32.730
 7726,-17.8782721,-14.8525005,10.4855069,-8.5959532,-3.0910377\PG=C01 [
 X(C38H42Fe1N6O4)]\\@


 HE THAT RISETH LATE MUST TROT ALL DAY.

                  -- BENJAMIN FRANKLIN
 Job cpu time:       1 days 16 hours 12 minutes 29.5 seconds.
 Elapsed time:       0 days 10 hours  4 minutes 34.6 seconds.
 File lengths (MBytes):  RWF=   2927 Int=      0 D2E=      0 Chk=    245 Scr=      1
 Normal termination of Gaussian 16 at Thu Sep  8 19:37:13 2022.
