 Entering Gaussian System, Link 0=g16
 Input=/net/homes/chemie/zhartovska/work/BioModel/Konrad/2gsm/2gsm05/2gsm05.com
 Output=/net/homes/chemie/zhartovska/work/BioModel/Konrad/2gsm/2gsm05/2gsm05.log
 Initial command:
 /afs/math/software/gaussian/g16.A03/g16/l1.exe "/scratch/zhartovska_gaussian.m42qk9Y/Gau-13159.inp" -scrdir="/scratch/zhartovska_gaussian.m42qk9Y/"
 Entering Link 1 = /afs/math/software/gaussian/g16.A03/g16/l1.exe PID=     13160.
  
 Copyright (c) 1988,1990,1992,1993,1995,1998,2003,2009,2016,
            Gaussian, Inc.  All Rights Reserved.
  
 This is part of the Gaussian(R) 16 program.  It is based on
 the Gaussian(R) 09 system (copyright 2009, Gaussian, Inc.),
 the Gaussian(R) 03 system (copyright 2003, Gaussian, Inc.),
 the Gaussian(R) 98 system (copyright 1998, Gaussian, Inc.),
 the Gaussian(R) 94 system (copyright 1995, Gaussian, Inc.),
 the Gaussian 92(TM) system (copyright 1992, Gaussian, Inc.),
 the Gaussian 90(TM) system (copyright 1990, Gaussian, Inc.),
 the Gaussian 88(TM) system (copyright 1988, Gaussian, Inc.),
 the Gaussian 86(TM) system (copyright 1986, Carnegie Mellon
 University), and the Gaussian 82(TM) system (copyright 1983,
 Carnegie Mellon University). Gaussian is a federally registered
 trademark of Gaussian, Inc.
  
 This software contains proprietary and confidential information,
 including trade secrets, belonging to Gaussian, Inc.
  
 This software is provided under written license and may be
 used, copied, transmitted, or stored only in accord with that
 written license.
  
 The following legend is applicable only to US Government
 contracts under FAR:
  
                    RESTRICTED RIGHTS LEGEND
  
 Use, reproduction and disclosure by the US Government is
 subject to restrictions as set forth in subparagraphs (a)
 and (c) of the Commercial Computer Software - Restricted
 Rights clause in FAR 52.227-19.
  
 Gaussian, Inc.
 340 Quinnipiac St., Bldg. 40, Wallingford CT 06492
  
  
 ---------------------------------------------------------------
 Warning -- This program may not be used in any manner that
 competes with the business of Gaussian, Inc. or will provide
 assistance to any competitor of Gaussian, Inc.  The licensee
 of this program is prohibited from giving any competitor of
 Gaussian, Inc. access to this program.  By using this program,
 the user acknowledges that Gaussian, Inc. is engaged in the
 business of creating and licensing software in the field of
 computational chemistry and represents and warrants to the
 licensee that it is not a competitor of Gaussian, Inc. and that
 it will not use this program in any manner prohibited above.
 ---------------------------------------------------------------
  

 Cite this work as:
 Gaussian 16, Revision A.03,
 M. J. Frisch, G. W. Trucks, H. B. Schlegel, G. E. Scuseria, 
 M. A. Robb, J. R. Cheeseman, G. Scalmani, V. Barone, 
 G. A. Petersson, H. Nakatsuji, X. Li, M. Caricato, A. V. Marenich, 
 J. Bloino, B. G. Janesko, R. Gomperts, B. Mennucci, H. P. Hratchian, 
 J. V. Ortiz, A. F. Izmaylov, J. L. Sonnenberg, D. Williams-Young, 
 F. Ding, F. Lipparini, F. Egidi, J. Goings, B. Peng, A. Petrone, 
 T. Henderson, D. Ranasinghe, V. G. Zakrzewski, J. Gao, N. Rega, 
 G. Zheng, W. Liang, M. Hada, M. Ehara, K. Toyota, R. Fukuda, 
 J. Hasegawa, M. Ishida, T. Nakajima, Y. Honda, O. Kitao, H. Nakai, 
 T. Vreven, K. Throssell, J. A. Montgomery, Jr., J. E. Peralta, 
 F. Ogliaro, M. J. Bearpark, J. J. Heyd, E. N. Brothers, K. N. Kudin, 
 V. N. Staroverov, T. A. Keith, R. Kobayashi, J. Normand, 
 K. Raghavachari, A. P. Rendell, J. C. Burant, S. S. Iyengar, 
 J. Tomasi, M. Cossi, J. M. Millam, M. Klene, C. Adamo, R. Cammi, 
 J. W. Ochterski, R. L. Martin, K. Morokuma, O. Farkas, 
 J. B. Foresman, and D. J. Fox, Gaussian, Inc., Wallingford CT, 2016.
 
 ******************************************
 Gaussian 16:  ES64L-G16RevA.03 25-Dec-2016
                27-Aug-2022 
 ******************************************
 %nprocs=12
 Will use up to   12 processors via shared memory.
 %mem=16GB
 %oldchk=2gsm_II_S.chk
 %chk=2gsm_II_Q.chk
 Copying data from "2gsm_II_S.chk" to current chk file "2gsm_II_Q.chk"
 IOpt=  2 FromEx=T IUOpen= 4 IOptOp= 5 NList=   0 IFRang= 0 IUIn= 4 IUOut= 2.
 ----------------------------------------------------------------------
 # PBE1PBE/def2TZVP empiricaldispersion=GD3BJ int=(grid=ultrafine) geom
 =check pop=nbo
 ----------------------------------------------------------------------
 1/29=2,38=1,172=1/1;
 2/12=2,40=1/2;
 3/5=44,7=101,11=2,14=-4,25=1,30=1,74=-13,75=-5,124=41/1,2,3;
 4//1;
 5/5=2,38=5/2;
 6/7=2,8=2,9=2,10=2,28=1,40=1/1,7;
 99/5=1,9=1/99;
 ---------
 2gsm_II_Q
 ---------
 Structure from the checkpoint file:  "2gsm_II_Q.chk"
 Charge =  0 Multiplicity = 5
 Z-Matrix found in chk file.
 C,0,-5.474,-37.528,20.323
 C,0,-5.651,-36.312,21.197001
 N,0,-6.76,-36.129002,21.996
 C,0,-4.88,-35.206001,21.370001
 C,0,-6.668,-34.964001,22.622
 N,0,-5.531,-34.386002,22.267
 Fe,0,-4.52,-32.644001,22.892
 C,0,-1.505,-33.622002,21.511999
 C,0,-3.669,-34.209,25.865999
 C,0,-7.35,-31.365,24.419001
 C,0,-5.164,-30.729,20.121
 N,0,-2.873,-33.743,23.577
 C,0,-1.717,-33.959,22.844
 C,0,-0.784,-34.632,23.719999
 C,0,-1.369,-34.789001,24.924999
 C,0,-2.709,-34.240002,24.858
 C,0,-0.713,-35.43,26.132
 C,0,0.641,-35.077999,23.351
 C,0,0.614,-36.492001,22.771999
 C,0,1.968,-36.821999,22.18
 O,0,2.509,-37.910999,22.504999
 O,0,2.522,-36.009998,21.382
 N,0,-5.361,-32.737,24.851999
 C,0,-4.884,-33.529999,25.874001
 C,0,-5.891,-33.502998,26.929001
 C,0,-6.902,-32.712002,26.533001
 C,0,-6.587,-32.209999,25.195999
 C,0,-5.815,-34.251999,28.274
 N,0,-5.992,-31.296,22.363001
 C,0,-7.062,-30.905001,23.145
 C,0,-7.835,-29.938999,22.396
 C,0,-7.245,-29.76,21.193001
 C,0,-6.066,-30.617001,21.146999
 C,0,-9.098,-29.238001,22.921
 C,0,-7.702,-28.816999,20.072001
 C,0,-8.75969665,-28.08576393,20.49994972
 N,0,-3.508,-32.266998,21.104
 C,0,-3.943,-31.403999,20.125
 C,0,-2.906,-31.361,19.101999
 C,0,-1.903,-32.160999,19.488001
 C,0,-2.265,-32.749001,20.766001
 C,0,-2.973,-30.514999,17.811001
 C,0,-0.603,-32.486,18.752001
 C,0,0.463,-31.393999,18.716999
 C,0,1.5,-31.948999,17.750999
 O,0,2.4,-32.716,18.177999
 O,0,1.407,-31.631001,16.547001
 C,0,-8.129,-32.311001,27.386999
 C,0,-8.57108656,-33.51064774,28.24549022
 H,0,-4.56452282,-38.0267336,20.58570906
 H,0,-6.29974669,-38.19327544,20.46600697
 H,0,-5.43213475,-37.22684082,19.29710992
 H,0,-7.51713514,-36.77562007,22.08890559
 H,0,-7.3904874,-34.55928526,23.29958182
 H,0,-3.9407778,-35.00818999,20.89710306
 H,0,-0.67412167,-34.08387267,21.02086084
 H,0,-5.42815395,-30.23976443,19.20679475
 H,0,-8.26923448,-31.02597678,24.84908381
 H,0,-3.44477242,-34.77809616,26.74392357
 H,0,0.2289573,-34.9580119,26.3186646
 H,0,-1.34627267,-35.31265441,26.9864564
 H,0,-0.55865769,-36.47177242,25.94282105
 H,0,-2.11563814,-30.72081274,17.20480685
 H,0,-3.86129698,-30.76234558,17.26818598
 H,0,-2.98846756,-29.47591759,18.06589426
 H,0,-0.17247032,-33.35104379,19.21161327
 H,0,-0.85094826,-32.7358406,17.74155489
 H,0,0.88966186,-31.25193368,19.6879146
 H,0,0.05301022,-30.47823941,18.34525614
 H,0,3.32412137,-32.48883142,18.05153113
 H,0,3.47960041,-35.96161681,21.33445302
 H,0,0.38460747,-37.1910653,23.54890838
 H,0,-0.13291057,-36.55023353,22.00803985
 H,0,1.25467458,-35.06533955,24.22743781
 H,0,1.04628101,-34.40501289,22.62454491
 H,0,-4.92482514,-33.96367767,28.79299859
 H,0,-6.67000253,-34.00559394,28.86826865
 H,0,-5.79741384,-35.30667488,28.09441851
 H,0,-7.86741933,-31.49289726,28.025107
 H,0,-8.93165372,-32.01836805,26.742784
 H,0,-7.83659535,-33.69890175,29.00046247
 H,0,-9.5103538,-33.29099325,28.70855498
 H,0,-8.67347458,-34.37556899,27.62393739
 H,0,-8.89326064,-28.1983192,23.06947067
 H,0,-9.88892916,-29.34760068,22.20873672
 H,0,-9.3910949,-29.68005715,23.85029099
 H,0,-8.49186734,-27.05005339,20.52165552
 H,0,-9.58426318,-28.22702938,19.83284095
 H,0,-9.03806526,-28.40286138,21.48324018
 H,0,-6.89869522,-28.16142405,19.80776074
 H,0,-7.98885959,-29.39237827,19.21669388
 Recover connectivity data from disk.
 Stoichiometry    C38H42FeN6O4(5)
 Framework group  C1[X(C38H42FeN6O4)]
 Deg. of freedom   267
 Full point group                 C1      NOp   1
 Largest Abelian subgroup         C1      NOp   1
 Largest concise Abelian subgroup C1      NOp   1
                         Standard orientation:                         
 ---------------------------------------------------------------------
 Center     Atomic      Atomic             Coordinates (Angstroms)
 Number     Number       Type             X           Y           Z
 ---------------------------------------------------------------------
      1          6           0       -0.514159   -0.889651    5.116774
      2          6           0        0.318559   -0.748219    3.867598
      3          7           0        1.671159   -1.016014    3.844635
      4          6           0       -0.001279   -0.335145    2.612737
      5          6           0        2.150671   -0.772999    2.632786
      6          7           0        1.154316   -0.366543    1.861458
      7         26           0        0.979555    0.058860   -0.196649
      8          6           0       -2.473216   -0.111193   -0.172800
      9          6           0        1.143814   -3.330182   -0.907639
     10          6           0        4.410096    0.271037   -0.600190
     11          6           0        0.810378    3.474352    0.060651
     12          7           0       -0.422719   -1.471668   -0.480800
     13          6           0       -1.795613   -1.283534   -0.487776
     14          6           0       -2.391008   -2.549427   -0.853577
     15          6           0       -1.400670   -3.439615   -1.067344
     16          6           0       -0.132640   -2.780246   -0.824814
     17          6           0       -1.604658   -4.879911   -1.493963
     18          6           0       -3.896169   -2.832725   -0.994771
     19          6           0       -4.473204   -3.280400    0.347611
     20          6           0       -5.984783   -3.309008    0.264018
     21          8           0       -6.582033   -4.344531    0.657985
     22          8           0       -6.609977   -2.307316   -0.192940
     23          7           0        2.534736   -1.308801   -0.714764
     24          6           0        2.368146   -2.670165   -0.855479
     25          6           0        3.704711   -3.248725   -0.937124
     26          6           0        4.604866   -2.254498   -0.860675
     27          6           0        3.876619   -0.994977   -0.712119
     28          6           0        4.036494   -4.746506   -1.086700
     29          7           0        2.359313    1.594029   -0.253723
     30          6           0        3.722165    1.462070   -0.439530
     31          6           0        4.306353    2.785034   -0.426143
     32          6           0        3.317987    3.686557   -0.231884
     33          6           0        2.064387    2.950354   -0.117421
     34          6           0        5.801746    3.079302   -0.624639
     35          6           0        3.461427    5.212749   -0.161858
     36          6           0        4.744309    5.558613   -0.428615
     37          7           0       -0.579091    1.441909   -0.051675
     38          6           0       -0.412964    2.806637   -0.003164
     39          6           0       -1.744359    3.399204   -0.002765
     40          6           0       -2.644139    2.408418   -0.063949
     41          6           0       -1.921983    1.148502   -0.098274
     42          6           0       -2.036564    4.915541    0.044363
     43          6           0       -4.170080    2.501943   -0.055051
     44          6           0       -4.839178    3.004634   -1.331631
     45          6           0       -6.293702    3.178477   -0.918484
     46          8           0       -7.078292    2.197866   -0.977129
     47          8           0       -6.656199    4.302628   -0.513191
     48          6           0        6.137457   -2.403427   -1.017610
     49          6           0        6.596043   -3.716308   -0.356064
     50          1           0       -1.311836   -1.579903    4.937429
     51          1           0        0.099005   -1.252742    5.914956
     52          1           0       -0.920527    0.063333    5.384329
     53          1           0        2.207762   -1.343192    4.622460
     54          1           0        3.170487   -0.886209    2.329375
     55          1           0       -0.971296   -0.039963    2.270924
     56          1           0       -3.520312   -0.195545    0.030605
     57          1           0        0.764118    4.521770    0.274366
     58          1           0        5.476945    0.341527   -0.642215
     59          1           0        1.189215   -4.392627   -1.026162
     60          1           0       -2.223470   -4.909255   -2.366380
     61          1           0       -0.656559   -5.324393   -1.714062
     62          1           0       -2.077927   -5.422693   -0.702569
     63          1           0       -3.093170    5.073477    0.103858
     64          1           0       -1.563051    5.343495    0.903166
     65          1           0       -1.655845    5.379832   -0.841293
     66          1           0       -4.557896    1.527637    0.157614
     67          1           0       -4.454790    3.154092    0.744037
     68          1           0       -4.753126    2.279298   -2.113541
     69          1           0       -4.418551    3.940650   -1.634696
     70          1           0       -7.877850    2.253793   -1.505502
     71          1           0       -7.448550   -2.429733   -0.643948
     72          1           0       -4.110560   -4.259176    0.582957
     73          1           0       -4.171302   -2.595032    1.111827
     74          1           0       -4.045124   -3.605131   -1.720100
     75          1           0       -4.395835   -1.942946   -1.316529
     76          1           0        3.561163   -5.131156   -1.964769
     77          1           0        5.095922   -4.870421   -1.171297
     78          1           0        3.682718   -5.277685   -0.227869
     79          1           0        6.389490   -2.420941   -2.057356
     80          1           0        6.626292   -1.576671   -0.545999
     81          1           0        6.240079   -4.547380   -0.928348
     82          1           0        7.665036   -3.741712   -0.317232
     83          1           0        6.201641   -3.772028    0.637034
     84          1           0        5.945650    3.580680   -1.558882
     85          1           0        6.151499    3.702156    0.171995
     86          1           0        6.349161    2.159934   -0.625219
     87          1           0        4.777624    6.140457   -1.325971
     88          1           0        5.134953    6.134213    0.384393
     89          1           0        5.333250    4.674247   -0.554885
     90          1           0        2.812783    5.665388   -0.882467
     91          1           0        3.197190    5.551227    0.818199
 ---------------------------------------------------------------------
 Rotational constants (GHZ):           0.0719672           0.0452670           0.0325000
 Standard basis: def2TZVP (5D, 7F)
 There are  2032 symmetry adapted cartesian basis functions of A   symmetry.
 There are  1785 symmetry adapted basis functions of A   symmetry.
  1785 basis functions,  2886 primitive gaussians,  2032 cartesian basis functions
   187 alpha electrons      183 beta electrons
       nuclear repulsion energy      7175.2473456615 Hartrees.
 NAtoms=   91 NActive=   91 NUniq=   91 SFac= 1.00D+00 NAtFMM=   60 NAOKFM=T Big=T
 Integral buffers will be    131072 words long.
 Raffenetti 2 integral format.
 Two-electron integral symmetry is turned on.
 Nuclear repulsion after empirical dispersion term =     7175.1224597716 Hartrees.
 One-electron integrals computed using PRISM.
   1 Symmetry operations used in ECPInt.
 ECPInt:  NShTT=  253116 NPrTT=  780617 LenC2=  179537 LenP2D=  358852.
 LDataN:  DoStor=T MaxTD1= 6 Len=  172
 NBasis=  1785 RedAO= T EigKep=  3.00D-06  NBF=  1785
 NBsUse=  1785 1.00D-06 EigRej= -1.00D+00 NBFU=  1785
 ExpMin= 4.20D-02 ExpMax= 3.01D+05 ExpMxC= 2.91D+03 IAcc=3 IRadAn=         5 AccDes= 0.00D+00
 Harris functional with IExCor= 1009 and IRadAn=       5 diagonalized for initial guess.
 HarFok:  IExCor= 1009 AccDes= 0.00D+00 IRadAn=         5 IDoV= 1 UseB2=F ITyADJ=14
 ICtDFT=  3500011 ScaDFX=  1.000000  1.000000  1.000000  1.000000
 FoFCou: FMM=F IPFlag=           0 FMFlag=      100000 FMFlg1=        2001
         NFxFlg=           0 DoJE=T BraDBF=F KetDBF=T FulRan=T
         wScrn=  0.000000 ICntrl=       500 IOpCl=  0 I1Cent=   200000004 NGrid=           0
         NMat0=    1 NMatS0=      1 NMatT0=    0 NMatD0=    1 NMtDS0=    0 NMtDT0=    0
 Petite list used in FoFCou.
 Initial guess <Sx>= 0.0000 <Sy>= 0.0000 <Sz>= 2.0000 <S**2>= 6.0000 S= 2.0000
 Requested convergence on RMS density matrix=1.00D-08 within 128 cycles.
 Requested convergence on MAX density matrix=1.00D-06.
 Requested convergence on             energy=1.00D-06.
 No special actions if energy rises.
 EnCoef did   100 forward-backward iterations
 EnCoef did     6 forward-backward iterations
 Restarting incremental Fock formation.
 Restarting incremental Fock formation.
 Restarting incremental Fock formation.
 SCF Done:  E(UPBE1PBE) =  -3364.72409943     A.U. after   72 cycles
            NFock= 72  Conv=0.18D-08     -V/T= 2.0031
 <Sx>= 0.0000 <Sy>= 0.0000 <Sz>= 2.0000 <S**2>= 6.0102 S= 2.0020
 <L.S>= 0.000000000000E+00
 Annihilation of the first spin contaminant:
 S**2 before annihilation     6.0102,   after     6.0000

 **********************************************************************

            Population analysis using the SCF density.

 **********************************************************************

 Orbital symmetries:
 Alpha Orbitals:
       Occupied  (A) (A) (A) (A) (A) (A) (A) (A) (A) (A) (A) (A)
                 (A) (A) (A) (A) (A) (A) (A) (A) (A) (A) (A) (A)
                 (A) (A) (A) (A) (A) (A) (A) (A) (A) (A) (A) (A)
                 (A) (A) (A) (A) (A) (A) (A) (A) (A) (A) (A) (A)
                 (A) (A) (A) (A) (A) (A) (A) (A) (A) (A) (A) (A)
                 (A) (A) (A) (A) (A) (A) (A) (A) (A) (A) (A) (A)
                 (A) (A) (A) (A) (A) (A) (A) (A) (A) (A) (A) (A)
                 (A) (A) (A) (A) (A) (A) (A) (A) (A) (A) (A) (A)
                 (A) (A) (A) (A) (A) (A) (A) (A) (A) (A) (A) (A)
                 (A) (A) (A) (A) (A) (A) (A) (A) (A) (A) (A) (A)
                 (A) (A) (A) (A) (A) (A) (A) (A) (A) (A) (A) (A)
                 (A) (A) (A) (A) (A) (A) (A) (A) (A) (A) (A) (A)
                 (A) (A) (A) (A) (A) (A) (A) (A) (A) (A) (A) (A)
                 (A) (A) (A) (A) (A) (A) (A) (A) (A) (A) (A) (A)
                 (A) (A) (A) (A) (A) (A) (A) (A) (A) (A) (A) (A)
                 (A) (A) (A) (A) (A) (A) (A)
       Virtual   (A) (A) (A) (A) (A) (A) (A) (A) (A) (A) (A) (A)
                 (A) (A) (A) (A) (A) (A) (A) (A) (A) (A) (A) (A)
                 (A) (A) (A) (A) (A) (A) (A) (A) (A) (A) (A) (A)
                 (A) (A) (A) (A) (A) (A) (A) (A) (A) (A) (A) (A)
                 (A) (A) (A) (A) (A) (A) (A) (A) (A) (A) (A) (A)
                 (A) (A) (A) (A) (A) (A) (A) (A) (A) (A) (A) (A)
                 (A) (A) (A) (A) (A) (A) (A) (A) (A) (A) (A) (A)
                 (A) (A) (A) (A) (A) (A) (A) (A) (A) (A) (A) (A)
                 (A) (A) (A) (A) (A) (A) (A) (A) (A) (A) (A) (A)
                 (A) (A) (A) (A) (A) (A) (A) (A) (A) (A) (A) (A)
                 (A) (A) (A) (A) (A) (A) (A) (A) (A) (A) (A) (A)
                 (A) (A) (A) (A) (A) (A) (A) (A) (A) (A) (A) (A)
                 (A) (A) (A) (A) (A) (A) (A) (A) (A) (A) (A) (A)
                 (A) (A) (A) (A) (A) (A) (A) (A) (A) (A) (A) (A)
                 (A) (A) (A) (A) (A) (A) (A) (A) (A) (A) (A) (A)
                 (A) (A) (A) (A) (A) (A) (A) (A) (A) (A) (A) (A)
                 (A) (A) (A) (A) (A) (A) (A) (A) (A) (A) (A) (A)
                 (A) (A) (A) (A) (A) (A) (A) (A) (A) (A) (A) (A)
                 (A) (A) (A) (A) (A) (A) (A) (A) (A) (A) (A) (A)
                 (A) (A) (A) (A) (A) (A) (A) (A) (A) (A) (A) (A)
                 (A) (A) (A) (A) (A) (A) (A) (A) (A) (A) (A) (A)
                 (A) (A) (A) (A) (A) (A) (A) (A) (A) (A) (A) (A)
                 (A) (A) (A) (A) (A) (A) (A) (A) (A) (A) (A) (A)
                 (A) (A) (A) (A) (A) (A) (A) (A) (A) (A) (A) (A)
                 (A) (A) (A) (A) (A) (A) (A) (A) (A) (A) (A) (A)
                 (A) (A) (A) (A) (A) (A) (A) (A) (A) (A) (A) (A)
                 (A) (A) (A) (A) (A) (A) (A) (A) (A) (A) (A) (A)
                 (A) (A) (A) (A) (A) (A) (A) (A) (A) (A) (A) (A)
                 (A) (A) (A) (A) (A) (A) (A) (A) (A) (A) (A) (A)
                 (A) (A) (A) (A) (A) (A) (A) (A) (A) (A) (A) (A)
                 (A) (A) (A) (A) (A) (A) (A) (A) (A) (A) (A) (A)
                 (A) (A) (A) (A) (A) (A) (A) (A) (A) (A) (A) (A)
                 (A) (A) (A) (A) (A) (A) (A) (A) (A) (A) (A) (A)
                 (A) (A) (A) (A) (A) (A) (A) (A) (A) (A) (A) (A)
                 (A) (A) (A) (A) (A) (A) (A) (A) (A) (A) (A) (A)
                 (A) (A) (A) (A) (A) (A) (A) (A) (A) (A) (A) (A)
                 (A) (A) (A) (A) (A) (A) (A) (A) (A) (A) (A) (A)
                 (A) (A) (A) (A) (A) (A) (A) (A) (A) (A) (A) (A)
                 (A) (A) (A) (A) (A) (A) (A) (A) (A) (A) (A) (A)
                 (A) (A) (A) (A) (A) (A) (A) (A) (A) (A) (A) (A)
                 (A) (A) (A) (A) (A) (A) (A) (A) (A) (A) (A) (A)
                 (A) (A) (A) (A) (A) (A) (A) (A) (A) (A) (A) (A)
                 (A) (A) (A) (A) (A) (A) (A) (A) (A) (A) (A) (A)
                 (A) (A) (A) (A) (A) (A) (A) (A) (A) (A) (A) (A)
                 (A) (A) (A) (A) (A) (A) (A) (A) (A) (A) (A) (A)
                 (A) (A) (A) (A) (A) (A) (A) (A) (A) (A) (A) (A)
                 (A) (A) (A) (A) (A) (A) (A) (A) (A) (A) (A) (A)
                 (A) (A) (A) (A) (A) (A) (A) (A) (A) (A) (A) (A)
                 (A) (A) (A) (A) (A) (A) (A) (A) (A) (A) (A) (A)
                 (A) (A) (A) (A) (A) (A) (A) (A) (A) (A) (A) (A)
                 (A) (A) (A) (A) (A) (A) (A) (A) (A) (A) (A) (A)
                 (A) (A) (A) (A) (A) (A) (A) (A) (A) (A) (A) (A)
                 (A) (A) (A) (A) (A) (A) (A) (A) (A) (A) (A) (A)
                 (A) (A) (A) (A) (A) (A) (A) (A) (A) (A) (A) (A)
                 (A) (A) (A) (A) (A) (A) (A) (A) (A) (A) (A) (A)
                 (A) (A) (A) (A) (A) (A) (A) (A) (A) (A) (A) (A)
                 (A) (A) (A) (A) (A) (A) (A) (A) (A) (A) (A) (A)
                 (A) (A) (A) (A) (A) (A) (A) (A) (A) (A) (A) (A)
                 (A) (A) (A) (A) (A) (A) (A) (A) (A) (A) (A) (A)
                 (A) (A) (A) (A) (A) (A) (A) (A) (A) (A) (A) (A)
                 (A) (A) (A) (A) (A) (A) (A) (A) (A) (A) (A) (A)
                 (A) (A) (A) (A) (A) (A) (A) (A) (A) (A) (A) (A)
                 (A) (A) (A) (A) (A) (A) (A) (A) (A) (A) (A) (A)
                 (A) (A) (A) (A) (A) (A) (A) (A) (A) (A) (A) (A)
                 (A) (A) (A) (A) (A) (A) (A) (A) (A) (A) (A) (A)
                 (A) (A) (A) (A) (A) (A) (A) (A) (A) (A) (A) (A)
                 (A) (A) (A) (A) (A) (A) (A) (A) (A) (A) (A) (A)
                 (A) (A) (A) (A) (A) (A) (A) (A) (A) (A) (A) (A)
                 (A) (A) (A) (A) (A) (A) (A) (A) (A) (A) (A) (A)
                 (A) (A) (A) (A) (A) (A) (A) (A) (A) (A) (A) (A)
                 (A) (A) (A) (A) (A) (A) (A) (A) (A) (A) (A) (A)
                 (A) (A) (A) (A) (A) (A) (A) (A) (A) (A) (A) (A)
                 (A) (A) (A) (A) (A) (A) (A) (A) (A) (A) (A) (A)
                 (A) (A) (A) (A) (A) (A) (A) (A) (A) (A) (A) (A)
                 (A) (A) (A) (A) (A) (A) (A) (A) (A) (A) (A) (A)
                 (A) (A) (A) (A) (A) (A) (A) (A) (A) (A) (A) (A)
                 (A) (A) (A) (A) (A) (A) (A) (A) (A) (A) (A) (A)
                 (A) (A) (A) (A) (A) (A) (A) (A) (A) (A) (A) (A)
                 (A) (A) (A) (A) (A) (A) (A) (A) (A) (A) (A) (A)
                 (A) (A) (A) (A) (A) (A) (A) (A) (A) (A) (A) (A)
                 (A) (A) (A) (A) (A) (A) (A) (A) (A) (A) (A) (A)
                 (A) (A) (A) (A) (A) (A) (A) (A) (A) (A) (A) (A)
                 (A) (A) (A) (A) (A) (A) (A) (A) (A) (A) (A) (A)
                 (A) (A) (A) (A) (A) (A) (A) (A) (A) (A) (A) (A)
                 (A) (A) (A) (A) (A) (A) (A) (A) (A) (A) (A) (A)
                 (A) (A) (A) (A) (A) (A) (A) (A) (A) (A) (A) (A)
                 (A) (A) (A) (A) (A) (A) (A) (A) (A) (A) (A) (A)
                 (A) (A) (A) (A) (A) (A) (A) (A) (A) (A) (A) (A)
                 (A) (A) (A) (A) (A) (A) (A) (A) (A) (A) (A) (A)
                 (A) (A) (A) (A) (A) (A) (A) (A) (A) (A) (A) (A)
                 (A) (A) (A) (A) (A) (A) (A) (A) (A) (A) (A) (A)
                 (A) (A) (A) (A) (A) (A) (A) (A) (A) (A) (A) (A)
                 (A) (A) (A) (A) (A) (A) (A) (A) (A) (A) (A) (A)
                 (A) (A) (A) (A) (A) (A) (A) (A) (A) (A) (A) (A)
                 (A) (A) (A) (A) (A) (A) (A) (A) (A) (A) (A) (A)
                 (A) (A) (A) (A) (A) (A) (A) (A) (A) (A) (A) (A)
                 (A) (A) (A) (A) (A) (A) (A) (A) (A) (A) (A) (A)
                 (A) (A) (A) (A) (A) (A) (A) (A) (A) (A) (A) (A)
                 (A) (A) (A) (A) (A) (A) (A) (A) (A) (A) (A) (A)
                 (A) (A) (A) (A) (A) (A) (A) (A) (A) (A) (A) (A)
                 (A) (A) (A) (A) (A) (A) (A) (A) (A) (A) (A) (A)
                 (A) (A) (A) (A) (A) (A) (A) (A) (A) (A) (A) (A)
                 (A) (A) (A) (A) (A) (A) (A) (A) (A) (A) (A) (A)
                 (A) (A) (A) (A) (A) (A) (A) (A) (A) (A) (A) (A)
                 (A) (A) (A) (A) (A) (A) (A) (A) (A) (A) (A) (A)
                 (A) (A) (A) (A) (A) (A) (A) (A) (A) (A) (A) (A)
                 (A) (A) (A) (A) (A) (A) (A) (A) (A) (A) (A) (A)
                 (A) (A) (A) (A) (A) (A) (A) (A) (A) (A) (A) (A)
                 (A) (A) (A) (A) (A) (A) (A) (A) (A) (A) (A) (A)
                 (A) (A) (A) (A) (A) (A) (A) (A) (A) (A) (A) (A)
                 (A) (A) (A) (A) (A) (A) (A) (A) (A) (A) (A) (A)
                 (A) (A) (A) (A) (A) (A) (A) (A) (A) (A) (A) (A)
                 (A) (A) (A) (A) (A) (A) (A) (A) (A) (A) (A) (A)
                 (A) (A) (A) (A) (A) (A) (A) (A) (A) (A) (A) (A)
                 (A) (A) (A) (A) (A) (A) (A) (A) (A) (A) (A) (A)
                 (A) (A) (A) (A) (A) (A) (A) (A) (A) (A) (A) (A)
                 (A) (A) (A) (A) (A) (A) (A) (A) (A) (A) (A) (A)
                 (A) (A) (A) (A) (A) (A) (A) (A) (A) (A) (A) (A)
                 (A) (A) (A) (A) (A) (A) (A) (A) (A) (A) (A) (A)
                 (A) (A) (A) (A) (A) (A) (A) (A) (A) (A) (A) (A)
                 (A) (A) (A) (A) (A) (A) (A) (A) (A) (A) (A) (A)
                 (A) (A) (A) (A) (A) (A) (A) (A) (A) (A) (A) (A)
                 (A) (A) (A) (A) (A) (A) (A) (A) (A) (A) (A) (A)
                 (A) (A) (A) (A) (A) (A) (A) (A) (A) (A) (A) (A)
                 (A) (A) (A) (A) (A) (A) (A) (A) (A) (A) (A) (A)
                 (A) (A) (A) (A) (A) (A) (A) (A) (A) (A) (A) (A)
                 (A) (A) (A) (A) (A) (A) (A) (A) (A) (A) (A) (A)
                 (A) (A) (A) (A) (A) (A) (A) (A) (A) (A) (A) (A)
                 (A) (A) (A) (A) (A) (A) (A) (A) (A) (A) (A) (A)
                 (A) (A) (A) (A) (A) (A) (A) (A) (A) (A) (A) (A)
                 (A) (A) (A) (A) (A) (A) (A) (A) (A) (A) (A) (A)
                 (A) (A) (A) (A) (A) (A) (A) (A) (A) (A) (A) (A)
                 (A) (A) (A) (A) (A) (A) (A) (A) (A) (A) (A) (A)
                 (A) (A)
 Beta  Orbitals:
       Occupied  (A) (A) (A) (A) (A) (A) (A) (A) (A) (A) (A) (A)
                 (A) (A) (A) (A) (A) (A) (A) (A) (A) (A) (A) (A)
                 (A) (A) (A) (A) (A) (A) (A) (A) (A) (A) (A) (A)
                 (A) (A) (A) (A) (A) (A) (A) (A) (A) (A) (A) (A)
                 (A) (A) (A) (A) (A) (A) (A) (A) (A) (A) (A) (A)
                 (A) (A) (A) (A) (A) (A) (A) (A) (A) (A) (A) (A)
                 (A) (A) (A) (A) (A) (A) (A) (A) (A) (A) (A) (A)
                 (A) (A) (A) (A) (A) (A) (A) (A) (A) (A) (A) (A)
                 (A) (A) (A) (A) (A) (A) (A) (A) (A) (A) (A) (A)
                 (A) (A) (A) (A) (A) (A) (A) (A) (A) (A) (A) (A)
                 (A) (A) (A) (A) (A) (A) (A) (A) (A) (A) (A) (A)
                 (A) (A) (A) (A) (A) (A) (A) (A) (A) (A) (A) (A)
                 (A) (A) (A) (A) (A) (A) (A) (A) (A) (A) (A) (A)
                 (A) (A) (A) (A) (A) (A) (A) (A) (A) (A) (A) (A)
                 (A) (A) (A) (A) (A) (A) (A) (A) (A) (A) (A) (A)
                 (A) (A) (A)
       Virtual   (A) (A) (A) (A) (A) (A) (A) (A) (A) (A) (A) (A)
                 (A) (A) (A) (A) (A) (A) (A) (A) (A) (A) (A) (A)
                 (A) (A) (A) (A) (A) (A) (A) (A) (A) (A) (A) (A)
                 (A) (A) (A) (A) (A) (A) (A) (A) (A) (A) (A) (A)
                 (A) (A) (A) (A) (A) (A) (A) (A) (A) (A) (A) (A)
                 (A) (A) (A) (A) (A) (A) (A) (A) (A) (A) (A) (A)
                 (A) (A) (A) (A) (A) (A) (A) (A) (A) (A) (A) (A)
                 (A) (A) (A) (A) (A) (A) (A) (A) (A) (A) (A) (A)
                 (A) (A) (A) (A) (A) (A) (A) (A) (A) (A) (A) (A)
                 (A) (A) (A) (A) (A) (A) (A) (A) (A) (A) (A) (A)
                 (A) (A) (A) (A) (A) (A) (A) (A) (A) (A) (A) (A)
                 (A) (A) (A) (A) (A) (A) (A) (A) (A) (A) (A) (A)
                 (A) (A) (A) (A) (A) (A) (A) (A) (A) (A) (A) (A)
                 (A) (A) (A) (A) (A) (A) (A) (A) (A) (A) (A) (A)
                 (A) (A) (A) (A) (A) (A) (A) (A) (A) (A) (A) (A)
                 (A) (A) (A) (A) (A) (A) (A) (A) (A) (A) (A) (A)
                 (A) (A) (A) (A) (A) (A) (A) (A) (A) (A) (A) (A)
                 (A) (A) (A) (A) (A) (A) (A) (A) (A) (A) (A) (A)
                 (A) (A) (A) (A) (A) (A) (A) (A) (A) (A) (A) (A)
                 (A) (A) (A) (A) (A) (A) (A) (A) (A) (A) (A) (A)
                 (A) (A) (A) (A) (A) (A) (A) (A) (A) (A) (A) (A)
                 (A) (A) (A) (A) (A) (A) (A) (A) (A) (A) (A) (A)
                 (A) (A) (A) (A) (A) (A) (A) (A) (A) (A) (A) (A)
                 (A) (A) (A) (A) (A) (A) (A) (A) (A) (A) (A) (A)
                 (A) (A) (A) (A) (A) (A) (A) (A) (A) (A) (A) (A)
                 (A) (A) (A) (A) (A) (A) (A) (A) (A) (A) (A) (A)
                 (A) (A) (A) (A) (A) (A) (A) (A) (A) (A) (A) (A)
                 (A) (A) (A) (A) (A) (A) (A) (A) (A) (A) (A) (A)
                 (A) (A) (A) (A) (A) (A) (A) (A) (A) (A) (A) (A)
                 (A) (A) (A) (A) (A) (A) (A) (A) (A) (A) (A) (A)
                 (A) (A) (A) (A) (A) (A) (A) (A) (A) (A) (A) (A)
                 (A) (A) (A) (A) (A) (A) (A) (A) (A) (A) (A) (A)
                 (A) (A) (A) (A) (A) (A) (A) (A) (A) (A) (A) (A)
                 (A) (A) (A) (A) (A) (A) (A) (A) (A) (A) (A) (A)
                 (A) (A) (A) (A) (A) (A) (A) (A) (A) (A) (A) (A)
                 (A) (A) (A) (A) (A) (A) (A) (A) (A) (A) (A) (A)
                 (A) (A) (A) (A) (A) (A) (A) (A) (A) (A) (A) (A)
                 (A) (A) (A) (A) (A) (A) (A) (A) (A) (A) (A) (A)
                 (A) (A) (A) (A) (A) (A) (A) (A) (A) (A) (A) (A)
                 (A) (A) (A) (A) (A) (A) (A) (A) (A) (A) (A) (A)
                 (A) (A) (A) (A) (A) (A) (A) (A) (A) (A) (A) (A)
                 (A) (A) (A) (A) (A) (A) (A) (A) (A) (A) (A) (A)
                 (A) (A) (A) (A) (A) (A) (A) (A) (A) (A) (A) (A)
                 (A) (A) (A) (A) (A) (A) (A) (A) (A) (A) (A) (A)
                 (A) (A) (A) (A) (A) (A) (A) (A) (A) (A) (A) (A)
                 (A) (A) (A) (A) (A) (A) (A) (A) (A) (A) (A) (A)
                 (A) (A) (A) (A) (A) (A) (A) (A) (A) (A) (A) (A)
                 (A) (A) (A) (A) (A) (A) (A) (A) (A) (A) (A) (A)
                 (A) (A) (A) (A) (A) (A) (A) (A) (A) (A) (A) (A)
                 (A) (A) (A) (A) (A) (A) (A) (A) (A) (A) (A) (A)
                 (A) (A) (A) (A) (A) (A) (A) (A) (A) (A) (A) (A)
                 (A) (A) (A) (A) (A) (A) (A) (A) (A) (A) (A) (A)
                 (A) (A) (A) (A) (A) (A) (A) (A) (A) (A) (A) (A)
                 (A) (A) (A) (A) (A) (A) (A) (A) (A) (A) (A) (A)
                 (A) (A) (A) (A) (A) (A) (A) (A) (A) (A) (A) (A)
                 (A) (A) (A) (A) (A) (A) (A) (A) (A) (A) (A) (A)
                 (A) (A) (A) (A) (A) (A) (A) (A) (A) (A) (A) (A)
                 (A) (A) (A) (A) (A) (A) (A) (A) (A) (A) (A) (A)
                 (A) (A) (A) (A) (A) (A) (A) (A) (A) (A) (A) (A)
                 (A) (A) (A) (A) (A) (A) (A) (A) (A) (A) (A) (A)
                 (A) (A) (A) (A) (A) (A) (A) (A) (A) (A) (A) (A)
                 (A) (A) (A) (A) (A) (A) (A) (A) (A) (A) (A) (A)
                 (A) (A) (A) (A) (A) (A) (A) (A) (A) (A) (A) (A)
                 (A) (A) (A) (A) (A) (A) (A) (A) (A) (A) (A) (A)
                 (A) (A) (A) (A) (A) (A) (A) (A) (A) (A) (A) (A)
                 (A) (A) (A) (A) (A) (A) (A) (A) (A) (A) (A) (A)
                 (A) (A) (A) (A) (A) (A) (A) (A) (A) (A) (A) (A)
                 (A) (A) (A) (A) (A) (A) (A) (A) (A) (A) (A) (A)
                 (A) (A) (A) (A) (A) (A) (A) (A) (A) (A) (A) (A)
                 (A) (A) (A) (A) (A) (A) (A) (A) (A) (A) (A) (A)
                 (A) (A) (A) (A) (A) (A) (A) (A) (A) (A) (A) (A)
                 (A) (A) (A) (A) (A) (A) (A) (A) (A) (A) (A) (A)
                 (A) (A) (A) (A) (A) (A) (A) (A) (A) (A) (A) (A)
                 (A) (A) (A) (A) (A) (A) (A) (A) (A) (A) (A) (A)
                 (A) (A) (A) (A) (A) (A) (A) (A) (A) (A) (A) (A)
                 (A) (A) (A) (A) (A) (A) (A) (A) (A) (A) (A) (A)
                 (A) (A) (A) (A) (A) (A) (A) (A) (A) (A) (A) (A)
                 (A) (A) (A) (A) (A) (A) (A) (A) (A) (A) (A) (A)
                 (A) (A) (A) (A) (A) (A) (A) (A) (A) (A) (A) (A)
                 (A) (A) (A) (A) (A) (A) (A) (A) (A) (A) (A) (A)
                 (A) (A) (A) (A) (A) (A) (A) (A) (A) (A) (A) (A)
                 (A) (A) (A) (A) (A) (A) (A) (A) (A) (A) (A) (A)
                 (A) (A) (A) (A) (A) (A) (A) (A) (A) (A) (A) (A)
                 (A) (A) (A) (A) (A) (A) (A) (A) (A) (A) (A) (A)
                 (A) (A) (A) (A) (A) (A) (A) (A) (A) (A) (A) (A)
                 (A) (A) (A) (A) (A) (A) (A) (A) (A) (A) (A) (A)
                 (A) (A) (A) (A) (A) (A) (A) (A) (A) (A) (A) (A)
                 (A) (A) (A) (A) (A) (A) (A) (A) (A) (A) (A) (A)
                 (A) (A) (A) (A) (A) (A) (A) (A) (A) (A) (A) (A)
                 (A) (A) (A) (A) (A) (A) (A) (A) (A) (A) (A) (A)
                 (A) (A) (A) (A) (A) (A) (A) (A) (A) (A) (A) (A)
                 (A) (A) (A) (A) (A) (A) (A) (A) (A) (A) (A) (A)
                 (A) (A) (A) (A) (A) (A) (A) (A) (A) (A) (A) (A)
                 (A) (A) (A) (A) (A) (A) (A) (A) (A) (A) (A) (A)
                 (A) (A) (A) (A) (A) (A) (A) (A) (A) (A) (A) (A)
                 (A) (A) (A) (A) (A) (A) (A) (A) (A) (A) (A) (A)
                 (A) (A) (A) (A) (A) (A) (A) (A) (A) (A) (A) (A)
                 (A) (A) (A) (A) (A) (A) (A) (A) (A) (A) (A) (A)
                 (A) (A) (A) (A) (A) (A) (A) (A) (A) (A) (A) (A)
                 (A) (A) (A) (A) (A) (A) (A) (A) (A) (A) (A) (A)
                 (A) (A) (A) (A) (A) (A) (A) (A) (A) (A) (A) (A)
                 (A) (A) (A) (A) (A) (A) (A) (A) (A) (A) (A) (A)
                 (A) (A) (A) (A) (A) (A) (A) (A) (A) (A) (A) (A)
                 (A) (A) (A) (A) (A) (A) (A) (A) (A) (A) (A) (A)
                 (A) (A) (A) (A) (A) (A) (A) (A) (A) (A) (A) (A)
                 (A) (A) (A) (A) (A) (A) (A) (A) (A) (A) (A) (A)
                 (A) (A) (A) (A) (A) (A) (A) (A) (A) (A) (A) (A)
                 (A) (A) (A) (A) (A) (A) (A) (A) (A) (A) (A) (A)
                 (A) (A) (A) (A) (A) (A) (A) (A) (A) (A) (A) (A)
                 (A) (A) (A) (A) (A) (A) (A) (A) (A) (A) (A) (A)
                 (A) (A) (A) (A) (A) (A) (A) (A) (A) (A) (A) (A)
                 (A) (A) (A) (A) (A) (A) (A) (A) (A) (A) (A) (A)
                 (A) (A) (A) (A) (A) (A) (A) (A) (A) (A) (A) (A)
                 (A) (A) (A) (A) (A) (A) (A) (A) (A) (A) (A) (A)
                 (A) (A) (A) (A) (A) (A) (A) (A) (A) (A) (A) (A)
                 (A) (A) (A) (A) (A) (A) (A) (A) (A) (A) (A) (A)
                 (A) (A) (A) (A) (A) (A) (A) (A) (A) (A) (A) (A)
                 (A) (A) (A) (A) (A) (A) (A) (A) (A) (A) (A) (A)
                 (A) (A) (A) (A) (A) (A) (A) (A) (A) (A) (A) (A)
                 (A) (A) (A) (A) (A) (A) (A) (A) (A) (A) (A) (A)
                 (A) (A) (A) (A) (A) (A) (A) (A) (A) (A) (A) (A)
                 (A) (A) (A) (A) (A) (A) (A) (A) (A) (A) (A) (A)
                 (A) (A) (A) (A) (A) (A) (A) (A) (A) (A) (A) (A)
                 (A) (A) (A) (A) (A) (A) (A) (A) (A) (A) (A) (A)
                 (A) (A) (A) (A) (A) (A) (A) (A) (A) (A) (A) (A)
                 (A) (A) (A) (A) (A) (A) (A) (A) (A) (A) (A) (A)
                 (A) (A) (A) (A) (A) (A) (A) (A) (A) (A) (A) (A)
                 (A) (A) (A) (A) (A) (A) (A) (A) (A) (A) (A) (A)
                 (A) (A) (A) (A) (A) (A) (A) (A) (A) (A) (A) (A)
                 (A) (A) (A) (A) (A) (A) (A) (A) (A) (A) (A) (A)
                 (A) (A) (A) (A) (A) (A) (A) (A) (A) (A) (A) (A)
                 (A) (A) (A) (A) (A) (A) (A) (A) (A) (A) (A) (A)
                 (A) (A) (A) (A) (A) (A) (A) (A) (A) (A) (A) (A)
                 (A) (A) (A) (A) (A) (A)
 The electronic state is 5-A.
 Alpha  occ. eigenvalues -- -256.30543 -30.10844 -25.95024 -25.91708 -25.91628
 Alpha  occ. eigenvalues --  -19.26736 -19.26004 -19.17931 -19.17494 -14.45744
 Alpha  occ. eigenvalues --  -14.39276 -14.35676 -14.35567 -14.35536 -14.35421
 Alpha  occ. eigenvalues --  -10.35291 -10.35288 -10.29077 -10.26971 -10.24404
 Alpha  occ. eigenvalues --  -10.24378 -10.24360 -10.24357 -10.24357 -10.24293
 Alpha  occ. eigenvalues --  -10.24224 -10.24174 -10.24062 -10.23720 -10.23141
 Alpha  occ. eigenvalues --  -10.22882 -10.22662 -10.22629 -10.22160 -10.21944
 Alpha  occ. eigenvalues --  -10.21924 -10.21906 -10.21882 -10.21757 -10.21654
 Alpha  occ. eigenvalues --  -10.21606 -10.21585 -10.21523 -10.21497 -10.21422
 Alpha  occ. eigenvalues --  -10.21404 -10.21363 -10.20848 -10.20823 -10.20208
 Alpha  occ. eigenvalues --  -10.20191 -10.19641 -10.16420  -3.53625  -2.34404
 Alpha  occ. eigenvalues --   -2.27712  -2.27551  -1.16679  -1.16553  -1.07249
 Alpha  occ. eigenvalues --   -1.02595  -1.01814  -0.96658  -0.95901  -0.95554
 Alpha  occ. eigenvalues --   -0.94801  -0.91665  -0.84844  -0.83764  -0.83554
 Alpha  occ. eigenvalues --   -0.82741  -0.82461  -0.82018  -0.80777  -0.80092
 Alpha  occ. eigenvalues --   -0.78951  -0.78509  -0.77647  -0.76220  -0.75208
 Alpha  occ. eigenvalues --   -0.73895  -0.73432  -0.72520  -0.72329  -0.71922
 Alpha  occ. eigenvalues --   -0.69477  -0.69345  -0.69028  -0.66065  -0.65863
 Alpha  occ. eigenvalues --   -0.65691  -0.64929  -0.64763  -0.63783  -0.63016
 Alpha  occ. eigenvalues --   -0.61720  -0.59111  -0.57614  -0.57390  -0.55947
 Alpha  occ. eigenvalues --   -0.55131  -0.54688  -0.53648  -0.52751  -0.52203
 Alpha  occ. eigenvalues --   -0.51891  -0.51593  -0.51012  -0.50775  -0.50446
 Alpha  occ. eigenvalues --   -0.49390  -0.49016  -0.48939  -0.48773  -0.48697
 Alpha  occ. eigenvalues --   -0.48576  -0.48319  -0.48113  -0.47679  -0.46613
 Alpha  occ. eigenvalues --   -0.45494  -0.45348  -0.44977  -0.44414  -0.44384
 Alpha  occ. eigenvalues --   -0.44182  -0.44095  -0.43948  -0.43908  -0.43706
 Alpha  occ. eigenvalues --   -0.43493  -0.43100  -0.42931  -0.42887  -0.42387
 Alpha  occ. eigenvalues --   -0.41843  -0.41507  -0.41261  -0.40809  -0.40769
 Alpha  occ. eigenvalues --   -0.40582  -0.40026  -0.39959  -0.39657  -0.39425
 Alpha  occ. eigenvalues --   -0.39004  -0.38768  -0.38575  -0.38351  -0.37907
 Alpha  occ. eigenvalues --   -0.37786  -0.37490  -0.37266  -0.36948  -0.36810
 Alpha  occ. eigenvalues --   -0.36419  -0.35854  -0.35636  -0.35310  -0.34690
 Alpha  occ. eigenvalues --   -0.34167  -0.33982  -0.33851  -0.33228  -0.33103
 Alpha  occ. eigenvalues --   -0.32599  -0.32478  -0.31976  -0.31862  -0.31042
 Alpha  occ. eigenvalues --   -0.30213  -0.29009  -0.28445  -0.27864  -0.27577
 Alpha  occ. eigenvalues --   -0.27507  -0.27152  -0.25824  -0.25229  -0.24565
 Alpha  occ. eigenvalues --   -0.23361  -0.22908  -0.22795  -0.22407  -0.18837
 Alpha  occ. eigenvalues --   -0.18518  -0.16313
 Alpha virt. eigenvalues --   -0.07047  -0.06901  -0.01243  -0.00738   0.00227
 Alpha virt. eigenvalues --    0.01521   0.01882   0.02282   0.03641   0.03783
 Alpha virt. eigenvalues --    0.03986   0.04415   0.04991   0.05448   0.05633
 Alpha virt. eigenvalues --    0.05677   0.06229   0.06292   0.06695   0.06955
 Alpha virt. eigenvalues --    0.07536   0.07717   0.08084   0.08519   0.08769
 Alpha virt. eigenvalues --    0.09270   0.09449   0.09605   0.09755   0.09996
 Alpha virt. eigenvalues --    0.10254   0.10566   0.10968   0.11136   0.11352
 Alpha virt. eigenvalues --    0.11530   0.11896   0.11987   0.12299   0.12825
 Alpha virt. eigenvalues --    0.12879   0.13061   0.13294   0.13468   0.13561
 Alpha virt. eigenvalues --    0.13717   0.13902   0.13996   0.14219   0.14384
 Alpha virt. eigenvalues --    0.14643   0.14917   0.15108   0.15345   0.15558
 Alpha virt. eigenvalues --    0.15630   0.16056   0.16159   0.16423   0.16590
 Alpha virt. eigenvalues --    0.16874   0.17080   0.17531   0.17780   0.17971
 Alpha virt. eigenvalues --    0.18228   0.18797   0.19060   0.19081   0.19325
 Alpha virt. eigenvalues --    0.19532   0.19786   0.19923   0.20131   0.20336
 Alpha virt. eigenvalues --    0.20514   0.20669   0.20879   0.21274   0.21661
 Alpha virt. eigenvalues --    0.21712   0.21992   0.22381   0.22473   0.22675
 Alpha virt. eigenvalues --    0.22716   0.22862   0.22904   0.23393   0.23534
 Alpha virt. eigenvalues --    0.23901   0.24039   0.24380   0.24417   0.24842
 Alpha virt. eigenvalues --    0.24960   0.25379   0.25842   0.25960   0.26087
 Alpha virt. eigenvalues --    0.26458   0.26552   0.26837   0.27050   0.27167
 Alpha virt. eigenvalues --    0.27351   0.27494   0.27546   0.27757   0.27994
 Alpha virt. eigenvalues --    0.28390   0.28779   0.28874   0.29340   0.29461
 Alpha virt. eigenvalues --    0.29719   0.29890   0.29920   0.30094   0.30561
 Alpha virt. eigenvalues --    0.30726   0.30974   0.31510   0.31726   0.31789
 Alpha virt. eigenvalues --    0.32290   0.32362   0.32608   0.32872   0.32890
 Alpha virt. eigenvalues --    0.33533   0.33626   0.33944   0.33999   0.34166
 Alpha virt. eigenvalues --    0.34323   0.34418   0.34665   0.35001   0.35552
 Alpha virt. eigenvalues --    0.35829   0.35948   0.36293   0.36588   0.36822
 Alpha virt. eigenvalues --    0.36882   0.37183   0.37316   0.37666   0.37795
 Alpha virt. eigenvalues --    0.38167   0.38314   0.38500   0.38593   0.38928
 Alpha virt. eigenvalues --    0.39144   0.39365   0.39463   0.39663   0.39996
 Alpha virt. eigenvalues --    0.40031   0.40200   0.40654   0.40848   0.40988
 Alpha virt. eigenvalues --    0.41262   0.41498   0.41686   0.41992   0.42265
 Alpha virt. eigenvalues --    0.42578   0.42600   0.42713   0.42910   0.43379
 Alpha virt. eigenvalues --    0.43530   0.43590   0.43680   0.43847   0.44005
 Alpha virt. eigenvalues --    0.44107   0.44267   0.44445   0.44640   0.44824
 Alpha virt. eigenvalues --    0.44852   0.45034   0.45162   0.45324   0.45555
 Alpha virt. eigenvalues --    0.45908   0.46000   0.46168   0.46472   0.46677
 Alpha virt. eigenvalues --    0.46812   0.46903   0.47092   0.47297   0.47477
 Alpha virt. eigenvalues --    0.47712   0.47797   0.48145   0.48259   0.48271
 Alpha virt. eigenvalues --    0.48454   0.48765   0.49000   0.49066   0.49368
 Alpha virt. eigenvalues --    0.49526   0.49697   0.49984   0.50145   0.50322
 Alpha virt. eigenvalues --    0.50572   0.50638   0.50862   0.51222   0.51257
 Alpha virt. eigenvalues --    0.51362   0.51670   0.51827   0.52138   0.52173
 Alpha virt. eigenvalues --    0.52411   0.52613   0.52849   0.53016   0.53313
 Alpha virt. eigenvalues --    0.53486   0.53849   0.53887   0.54122   0.54200
 Alpha virt. eigenvalues --    0.54762   0.54909   0.55061   0.55152   0.55549
 Alpha virt. eigenvalues --    0.55608   0.55695   0.55990   0.56442   0.56511
 Alpha virt. eigenvalues --    0.56780   0.57302   0.57336   0.57533   0.57592
 Alpha virt. eigenvalues --    0.58146   0.58397   0.58521   0.58824   0.59174
 Alpha virt. eigenvalues --    0.59298   0.59819   0.59961   0.60156   0.60296
 Alpha virt. eigenvalues --    0.60497   0.60789   0.60921   0.61168   0.61247
 Alpha virt. eigenvalues --    0.61559   0.62094   0.62575   0.62631   0.63223
 Alpha virt. eigenvalues --    0.63374   0.63480   0.63740   0.64017   0.64179
 Alpha virt. eigenvalues --    0.64307   0.64680   0.65038   0.65242   0.65547
 Alpha virt. eigenvalues --    0.65721   0.65872   0.66372   0.66479   0.66700
 Alpha virt. eigenvalues --    0.67059   0.67412   0.67861   0.68402   0.68592
 Alpha virt. eigenvalues --    0.68713   0.69044   0.69229   0.69400   0.69875
 Alpha virt. eigenvalues --    0.69926   0.70222   0.70504   0.70737   0.70842
 Alpha virt. eigenvalues --    0.71086   0.71422   0.71676   0.71986   0.72395
 Alpha virt. eigenvalues --    0.72585   0.72733   0.73079   0.73340   0.73696
 Alpha virt. eigenvalues --    0.74038   0.74245   0.74418   0.74697   0.74847
 Alpha virt. eigenvalues --    0.75404   0.75786   0.76025   0.76231   0.76333
 Alpha virt. eigenvalues --    0.76550   0.76774   0.76968   0.77611   0.77931
 Alpha virt. eigenvalues --    0.78217   0.78692   0.79045   0.79154   0.79545
 Alpha virt. eigenvalues --    0.79668   0.79987   0.80236   0.80291   0.80707
 Alpha virt. eigenvalues --    0.81108   0.81353   0.81905   0.82059   0.82403
 Alpha virt. eigenvalues --    0.82826   0.83180   0.83446   0.83807   0.83969
 Alpha virt. eigenvalues --    0.84236   0.84870   0.85153   0.85205   0.85593
 Alpha virt. eigenvalues --    0.86214   0.86701   0.86896   0.87372   0.87760
 Alpha virt. eigenvalues --    0.88002   0.88248   0.88440   0.88988   0.89222
 Alpha virt. eigenvalues --    0.89365   0.89606   0.89789   0.90400   0.90586
 Alpha virt. eigenvalues --    0.90689   0.91367   0.91582   0.92005   0.92216
 Alpha virt. eigenvalues --    0.92370   0.92802   0.93020   0.93164   0.93778
 Alpha virt. eigenvalues --    0.94065   0.94204   0.94759   0.94888   0.95083
 Alpha virt. eigenvalues --    0.95389   0.95549   0.95834   0.96307   0.96538
 Alpha virt. eigenvalues --    0.96836   0.97202   0.97525   0.97815   0.98032
 Alpha virt. eigenvalues --    0.98262   0.98793   0.99315   0.99427   0.99736
 Alpha virt. eigenvalues --    0.99903   1.00207   1.00592   1.01024   1.01144
 Alpha virt. eigenvalues --    1.01551   1.01620   1.01952   1.02551   1.02836
 Alpha virt. eigenvalues --    1.02948   1.03411   1.03494   1.03948   1.04335
 Alpha virt. eigenvalues --    1.04441   1.04775   1.04904   1.05281   1.05662
 Alpha virt. eigenvalues --    1.06073   1.06372   1.06740   1.07052   1.07164
 Alpha virt. eigenvalues --    1.07764   1.07868   1.08132   1.08751   1.08961
 Alpha virt. eigenvalues --    1.09060   1.09825   1.10229   1.10437   1.10859
 Alpha virt. eigenvalues --    1.11168   1.11314   1.12118   1.12359   1.12932
 Alpha virt. eigenvalues --    1.13303   1.13591   1.14196   1.14351   1.14552
 Alpha virt. eigenvalues --    1.14944   1.15232   1.15456   1.16053   1.16416
 Alpha virt. eigenvalues --    1.16687   1.17029   1.17459   1.17863   1.18122
 Alpha virt. eigenvalues --    1.18612   1.18865   1.19307   1.19609   1.19819
 Alpha virt. eigenvalues --    1.20633   1.21135   1.21354   1.21433   1.22346
 Alpha virt. eigenvalues --    1.22518   1.22979   1.23528   1.23638   1.23925
 Alpha virt. eigenvalues --    1.24186   1.24251   1.24731   1.24872   1.25303
 Alpha virt. eigenvalues --    1.25582   1.25958   1.26353   1.26520   1.26850
 Alpha virt. eigenvalues --    1.27154   1.28028   1.28176   1.28503   1.28906
 Alpha virt. eigenvalues --    1.29355   1.29422   1.29612   1.30397   1.30590
 Alpha virt. eigenvalues --    1.30709   1.31645   1.31770   1.31979   1.32421
 Alpha virt. eigenvalues --    1.32795   1.33393   1.33895   1.34203   1.34537
 Alpha virt. eigenvalues --    1.34879   1.35126   1.35292   1.35517   1.36113
 Alpha virt. eigenvalues --    1.36292   1.37018   1.37262   1.37949   1.38348
 Alpha virt. eigenvalues --    1.38838   1.39192   1.40177   1.40910   1.41377
 Alpha virt. eigenvalues --    1.41726   1.42236   1.42833   1.42906   1.43022
 Alpha virt. eigenvalues --    1.43731   1.44029   1.44185   1.44860   1.45500
 Alpha virt. eigenvalues --    1.45669   1.45851   1.46121   1.46719   1.46952
 Alpha virt. eigenvalues --    1.47376   1.47471   1.47989   1.48316   1.48580
 Alpha virt. eigenvalues --    1.49050   1.49321   1.49375   1.49683   1.50178
 Alpha virt. eigenvalues --    1.50411   1.50870   1.51082   1.51155   1.51442
 Alpha virt. eigenvalues --    1.51836   1.52079   1.52526   1.52572   1.53119
 Alpha virt. eigenvalues --    1.53240   1.53658   1.54049   1.54239   1.54641
 Alpha virt. eigenvalues --    1.55073   1.55427   1.55477   1.55852   1.56338
 Alpha virt. eigenvalues --    1.56450   1.56671   1.56763   1.57181   1.57490
 Alpha virt. eigenvalues --    1.57719   1.57861   1.58041   1.58402   1.58703
 Alpha virt. eigenvalues --    1.58918   1.59412   1.59462   1.60093   1.60184
 Alpha virt. eigenvalues --    1.60499   1.60587   1.60943   1.61201   1.61638
 Alpha virt. eigenvalues --    1.62074   1.62210   1.62291   1.62810   1.63117
 Alpha virt. eigenvalues --    1.63330   1.63565   1.63866   1.64164   1.64679
 Alpha virt. eigenvalues --    1.64745   1.65227   1.65649   1.65745   1.66166
 Alpha virt. eigenvalues --    1.66299   1.66549   1.66903   1.67210   1.67545
 Alpha virt. eigenvalues --    1.67606   1.67930   1.68438   1.68715   1.68903
 Alpha virt. eigenvalues --    1.69072   1.69458   1.70022   1.70338   1.70583
 Alpha virt. eigenvalues --    1.70694   1.71324   1.71424   1.71829   1.72271
 Alpha virt. eigenvalues --    1.72573   1.72646   1.72733   1.73326   1.73518
 Alpha virt. eigenvalues --    1.73805   1.74039   1.74957   1.75197   1.75598
 Alpha virt. eigenvalues --    1.75811   1.76173   1.77054   1.77563   1.77830
 Alpha virt. eigenvalues --    1.78364   1.78591   1.78789   1.79216   1.80266
 Alpha virt. eigenvalues --    1.80480   1.81171   1.81435   1.81746   1.82106
 Alpha virt. eigenvalues --    1.82322   1.82486   1.83197   1.83383   1.83812
 Alpha virt. eigenvalues --    1.84072   1.84410   1.85065   1.85604   1.86425
 Alpha virt. eigenvalues --    1.86728   1.86801   1.86813   1.87354   1.87625
 Alpha virt. eigenvalues --    1.88096   1.88382   1.88793   1.88883   1.89931
 Alpha virt. eigenvalues --    1.90052   1.90366   1.90877   1.91190   1.91885
 Alpha virt. eigenvalues --    1.92054   1.92203   1.92527   1.92665   1.93317
 Alpha virt. eigenvalues --    1.93598   1.93905   1.94674   1.95145   1.95211
 Alpha virt. eigenvalues --    1.95850   1.96077   1.96354   1.96769   1.97125
 Alpha virt. eigenvalues --    1.97384   1.98006   1.98100   1.98996   1.99302
 Alpha virt. eigenvalues --    1.99513   2.00243   2.00468   2.01129   2.01333
 Alpha virt. eigenvalues --    2.01842   2.02366   2.02620   2.02848   2.03198
 Alpha virt. eigenvalues --    2.03528   2.04021   2.04267   2.04714   2.05111
 Alpha virt. eigenvalues --    2.05259   2.05875   2.06023   2.06480   2.06822
 Alpha virt. eigenvalues --    2.07288   2.07575   2.07746   2.08113   2.08798
 Alpha virt. eigenvalues --    2.09097   2.09617   2.09984   2.10140   2.10536
 Alpha virt. eigenvalues --    2.11148   2.11739   2.11892   2.12175   2.12614
 Alpha virt. eigenvalues --    2.12862   2.13340   2.13777   2.14058   2.14430
 Alpha virt. eigenvalues --    2.14740   2.14841   2.15230   2.15566   2.15759
 Alpha virt. eigenvalues --    2.16150   2.16409   2.16816   2.16961   2.17305
 Alpha virt. eigenvalues --    2.17635   2.17948   2.17999   2.18485   2.19065
 Alpha virt. eigenvalues --    2.19601   2.20144   2.21035   2.21530   2.21832
 Alpha virt. eigenvalues --    2.21846   2.22496   2.22880   2.23663   2.23859
 Alpha virt. eigenvalues --    2.24112   2.24408   2.25302   2.25758   2.25873
 Alpha virt. eigenvalues --    2.26575   2.26630   2.26834   2.27239   2.27916
 Alpha virt. eigenvalues --    2.28339   2.28522   2.29292   2.29815   2.30075
 Alpha virt. eigenvalues --    2.30505   2.31263   2.31559   2.31648   2.32065
 Alpha virt. eigenvalues --    2.32454   2.32953   2.33181   2.33360   2.33880
 Alpha virt. eigenvalues --    2.34165   2.34898   2.35475   2.35744   2.36107
 Alpha virt. eigenvalues --    2.36302   2.36754   2.37158   2.37615   2.37715
 Alpha virt. eigenvalues --    2.37844   2.38422   2.38930   2.39607   2.39744
 Alpha virt. eigenvalues --    2.40431   2.40841   2.41226   2.41295   2.41383
 Alpha virt. eigenvalues --    2.41864   2.42102   2.42774   2.43139   2.43472
 Alpha virt. eigenvalues --    2.43734   2.44397   2.44638   2.44989   2.45054
 Alpha virt. eigenvalues --    2.45415   2.46146   2.46444   2.46732   2.47011
 Alpha virt. eigenvalues --    2.47692   2.48089   2.48736   2.48925   2.49411
 Alpha virt. eigenvalues --    2.49580   2.49858   2.50423   2.50673   2.51116
 Alpha virt. eigenvalues --    2.51451   2.52085   2.52352   2.52491   2.53095
 Alpha virt. eigenvalues --    2.53357   2.53832   2.54404   2.54523   2.55043
 Alpha virt. eigenvalues --    2.55212   2.55597   2.55871   2.56190   2.56491
 Alpha virt. eigenvalues --    2.56868   2.57242   2.57582   2.57822   2.58140
 Alpha virt. eigenvalues --    2.58784   2.59127   2.59518   2.59670   2.60317
 Alpha virt. eigenvalues --    2.60338   2.60712   2.61118   2.61201   2.61596
 Alpha virt. eigenvalues --    2.62107   2.62343   2.62479   2.63105   2.63306
 Alpha virt. eigenvalues --    2.63634   2.63963   2.64336   2.64400   2.65087
 Alpha virt. eigenvalues --    2.65258   2.65533   2.65788   2.66001   2.66125
 Alpha virt. eigenvalues --    2.66644   2.66890   2.67488   2.67756   2.68217
 Alpha virt. eigenvalues --    2.68378   2.69168   2.69373   2.69668   2.70080
 Alpha virt. eigenvalues --    2.70303   2.70611   2.70834   2.71502   2.71598
 Alpha virt. eigenvalues --    2.72344   2.72635   2.72990   2.73429   2.73789
 Alpha virt. eigenvalues --    2.74003   2.74218   2.74651   2.74762   2.74997
 Alpha virt. eigenvalues --    2.75477   2.75936   2.76120   2.76330   2.76730
 Alpha virt. eigenvalues --    2.77310   2.77760   2.78068   2.78793   2.78881
 Alpha virt. eigenvalues --    2.79220   2.79854   2.80140   2.80483   2.80582
 Alpha virt. eigenvalues --    2.81197   2.81983   2.82236   2.82710   2.83160
 Alpha virt. eigenvalues --    2.83425   2.83768   2.83918   2.84172   2.84542
 Alpha virt. eigenvalues --    2.84668   2.85343   2.85456   2.85681   2.85971
 Alpha virt. eigenvalues --    2.86657   2.86723   2.87607   2.88107   2.88295
 Alpha virt. eigenvalues --    2.88567   2.88822   2.89478   2.89600   2.89987
 Alpha virt. eigenvalues --    2.90443   2.90602   2.90759   2.91134   2.91642
 Alpha virt. eigenvalues --    2.91962   2.92310   2.92701   2.92884   2.93170
 Alpha virt. eigenvalues --    2.93903   2.94099   2.94531   2.94810   2.95141
 Alpha virt. eigenvalues --    2.95445   2.95594   2.96151   2.96505   2.97048
 Alpha virt. eigenvalues --    2.97642   2.97898   2.98069   2.98090   2.99020
 Alpha virt. eigenvalues --    2.99257   2.99269   2.99560   3.00028   3.00368
 Alpha virt. eigenvalues --    3.00610   3.00950   3.01474   3.02112   3.02241
 Alpha virt. eigenvalues --    3.02523   3.03049   3.03581   3.03670   3.03933
 Alpha virt. eigenvalues --    3.04077   3.04514   3.04810   3.05096   3.05417
 Alpha virt. eigenvalues --    3.05798   3.06016   3.06253   3.06821   3.07311
 Alpha virt. eigenvalues --    3.07634   3.07859   3.07913   3.08217   3.08407
 Alpha virt. eigenvalues --    3.08643   3.09069   3.09597   3.09904   3.10023
 Alpha virt. eigenvalues --    3.10284   3.10461   3.11051   3.11170   3.11343
 Alpha virt. eigenvalues --    3.11459   3.11728   3.12163   3.12911   3.13059
 Alpha virt. eigenvalues --    3.13401   3.13448   3.13967   3.14149   3.14454
 Alpha virt. eigenvalues --    3.14731   3.15148   3.15185   3.15612   3.15938
 Alpha virt. eigenvalues --    3.16125   3.16388   3.16880   3.17364   3.17542
 Alpha virt. eigenvalues --    3.17972   3.18014   3.18408   3.18551   3.18614
 Alpha virt. eigenvalues --    3.18992   3.19143   3.19265   3.19629   3.20141
 Alpha virt. eigenvalues --    3.20568   3.20665   3.21036   3.21267   3.21337
 Alpha virt. eigenvalues --    3.21503   3.21935   3.22055   3.22715   3.23070
 Alpha virt. eigenvalues --    3.23209   3.23390   3.23739   3.23886   3.24355
 Alpha virt. eigenvalues --    3.24454   3.24483   3.24693   3.24993   3.25216
 Alpha virt. eigenvalues --    3.25563   3.25665   3.25950   3.26234   3.26498
 Alpha virt. eigenvalues --    3.26653   3.27112   3.27331   3.27775   3.27968
 Alpha virt. eigenvalues --    3.28787   3.28890   3.29001   3.29130   3.29432
 Alpha virt. eigenvalues --    3.29705   3.29925   3.30195   3.30388   3.30823
 Alpha virt. eigenvalues --    3.31047   3.31378   3.32076   3.32181   3.32553
 Alpha virt. eigenvalues --    3.33160   3.33341   3.33590   3.33763   3.33861
 Alpha virt. eigenvalues --    3.34177   3.34671   3.34792   3.34962   3.35306
 Alpha virt. eigenvalues --    3.35544   3.35744   3.36005   3.36249   3.36542
 Alpha virt. eigenvalues --    3.36675   3.36811   3.37202   3.37355   3.37666
 Alpha virt. eigenvalues --    3.37848   3.38161   3.38373   3.38725   3.38968
 Alpha virt. eigenvalues --    3.39272   3.39409   3.39590   3.39940   3.40026
 Alpha virt. eigenvalues --    3.40400   3.40989   3.41275   3.41422   3.41562
 Alpha virt. eigenvalues --    3.41948   3.42432   3.42517   3.42985   3.43315
 Alpha virt. eigenvalues --    3.44033   3.44153   3.44412   3.44489   3.45008
 Alpha virt. eigenvalues --    3.45467   3.45660   3.46188   3.46296   3.46680
 Alpha virt. eigenvalues --    3.46723   3.46942   3.47486   3.47727   3.48238
 Alpha virt. eigenvalues --    3.48574   3.48720   3.49156   3.49486   3.49834
 Alpha virt. eigenvalues --    3.50577   3.50742   3.51448   3.51569   3.52111
 Alpha virt. eigenvalues --    3.52322   3.52707   3.53490   3.53958   3.54225
 Alpha virt. eigenvalues --    3.54616   3.54713   3.54983   3.55192   3.55545
 Alpha virt. eigenvalues --    3.56163   3.56368   3.56642   3.57370   3.57463
 Alpha virt. eigenvalues --    3.57932   3.58312   3.58566   3.58740   3.59025
 Alpha virt. eigenvalues --    3.59995   3.60778   3.60970   3.61166   3.61614
 Alpha virt. eigenvalues --    3.61797   3.62214   3.62408   3.62756   3.63209
 Alpha virt. eigenvalues --    3.63930   3.64465   3.64985   3.65441   3.65513
 Alpha virt. eigenvalues --    3.65894   3.65997   3.66884   3.67007   3.67111
 Alpha virt. eigenvalues --    3.67539   3.67737   3.68150   3.68428   3.68979
 Alpha virt. eigenvalues --    3.69166   3.69785   3.70310   3.70815   3.71228
 Alpha virt. eigenvalues --    3.71484   3.72123   3.72515   3.72924   3.73173
 Alpha virt. eigenvalues --    3.73392   3.73529   3.73669   3.74179   3.74704
 Alpha virt. eigenvalues --    3.74763   3.75529   3.75917   3.76492   3.77035
 Alpha virt. eigenvalues --    3.77305   3.77666   3.77818   3.78732   3.78999
 Alpha virt. eigenvalues --    3.79620   3.80373   3.80500   3.81090   3.81264
 Alpha virt. eigenvalues --    3.82182   3.82664   3.82920   3.83290   3.83771
 Alpha virt. eigenvalues --    3.84211   3.84507   3.85000   3.85539   3.85766
 Alpha virt. eigenvalues --    3.86293   3.86371   3.87128   3.87605   3.88092
 Alpha virt. eigenvalues --    3.88422   3.88650   3.89040   3.89846   3.90202
 Alpha virt. eigenvalues --    3.90998   3.91497   3.91519   3.91567   3.92506
 Alpha virt. eigenvalues --    3.92749   3.93126   3.93275   3.93424   3.93813
 Alpha virt. eigenvalues --    3.94618   3.95167   3.95590   3.95776   3.96094
 Alpha virt. eigenvalues --    3.96940   3.97260   3.98056   3.98482   3.99372
 Alpha virt. eigenvalues --    3.99705   4.00097   4.00857   4.01023   4.01263
 Alpha virt. eigenvalues --    4.02140   4.02374   4.03337   4.03601   4.04276
 Alpha virt. eigenvalues --    4.04887   4.05095   4.06011   4.06613   4.06940
 Alpha virt. eigenvalues --    4.07326   4.07880   4.08692   4.09218   4.09448
 Alpha virt. eigenvalues --    4.09874   4.10943   4.11915   4.12136   4.12782
 Alpha virt. eigenvalues --    4.12902   4.13138   4.13845   4.14115   4.14668
 Alpha virt. eigenvalues --    4.15415   4.15967   4.16225   4.17045   4.17380
 Alpha virt. eigenvalues --    4.18444   4.18787   4.19038   4.19641   4.19860
 Alpha virt. eigenvalues --    4.20540   4.21181   4.21350   4.21782   4.22309
 Alpha virt. eigenvalues --    4.23032   4.24004   4.24407   4.24591   4.24883
 Alpha virt. eigenvalues --    4.25519   4.26208   4.26557   4.27216   4.28138
 Alpha virt. eigenvalues --    4.28541   4.28873   4.29042   4.29644   4.31053
 Alpha virt. eigenvalues --    4.31232   4.31904   4.32891   4.33446   4.33925
 Alpha virt. eigenvalues --    4.34789   4.34905   4.35476   4.36167   4.36575
 Alpha virt. eigenvalues --    4.36949   4.37366   4.37776   4.38331   4.38425
 Alpha virt. eigenvalues --    4.39064   4.39685   4.39787   4.40017   4.40421
 Alpha virt. eigenvalues --    4.41108   4.41921   4.42132   4.42414   4.42854
 Alpha virt. eigenvalues --    4.43191   4.43949   4.45187   4.45393   4.45927
 Alpha virt. eigenvalues --    4.46723   4.47539   4.48607   4.48884   4.49614
 Alpha virt. eigenvalues --    4.49969   4.50351   4.51387   4.52168   4.52876
 Alpha virt. eigenvalues --    4.53213   4.54742   4.55365   4.56317   4.56914
 Alpha virt. eigenvalues --    4.57776   4.57996   4.59697   4.60062   4.61015
 Alpha virt. eigenvalues --    4.61418   4.62154   4.62733   4.63256   4.64219
 Alpha virt. eigenvalues --    4.64644   4.65562   4.65681   4.66539   4.67000
 Alpha virt. eigenvalues --    4.67840   4.68555   4.68871   4.69214   4.69838
 Alpha virt. eigenvalues --    4.70195   4.70670   4.71369   4.72535   4.72994
 Alpha virt. eigenvalues --    4.73869   4.74437   4.74626   4.75385   4.75681
 Alpha virt. eigenvalues --    4.76212   4.77159   4.77827   4.79041   4.79796
 Alpha virt. eigenvalues --    4.80499   4.81359   4.81658   4.82444   4.83102
 Alpha virt. eigenvalues --    4.83485   4.83744   4.84210   4.85394   4.86998
 Alpha virt. eigenvalues --    4.87523   4.87814   4.88160   4.88259   4.89529
 Alpha virt. eigenvalues --    4.90103   4.90864   4.91775   4.93337   4.93661
 Alpha virt. eigenvalues --    4.94036   4.94518   4.94737   4.95364   4.95681
 Alpha virt. eigenvalues --    4.96226   4.97251   4.98281   4.99445   4.99999
 Alpha virt. eigenvalues --    5.00504   5.00808   5.01971   5.02501   5.02811
 Alpha virt. eigenvalues --    5.03141   5.04005   5.04685   5.05735   5.07122
 Alpha virt. eigenvalues --    5.08177   5.09340   5.11965   5.12859   5.14047
 Alpha virt. eigenvalues --    5.14683   5.14986   5.16374   5.16519   5.17034
 Alpha virt. eigenvalues --    5.17858   5.18035   5.18768   5.20363   5.20788
 Alpha virt. eigenvalues --    5.21164   5.21846   5.22389   5.22902   5.23213
 Alpha virt. eigenvalues --    5.23803   5.24055   5.25481   5.26464   5.27254
 Alpha virt. eigenvalues --    5.28189   5.29131   5.29360   5.31299   5.34090
 Alpha virt. eigenvalues --    5.35081   5.36839   5.37338   5.37572   5.38313
 Alpha virt. eigenvalues --    5.38583   5.38756   5.40769   5.41209   5.43423
 Alpha virt. eigenvalues --    5.43520   5.45736   5.46536   5.47151   5.48150
 Alpha virt. eigenvalues --    5.48448   5.49562   5.49857   5.50475   5.50875
 Alpha virt. eigenvalues --    5.51152   5.56101   5.57617   5.57962   5.58250
 Alpha virt. eigenvalues --    5.58467   5.59052   5.59894   5.61109   5.61727
 Alpha virt. eigenvalues --    5.62497   5.63030   5.63623   5.64501   5.65608
 Alpha virt. eigenvalues --    5.69584   5.71130   5.73319   5.75075   5.76608
 Alpha virt. eigenvalues --    5.77336   5.77425   5.78205   5.80392   5.83015
 Alpha virt. eigenvalues --    5.87291   5.89068   5.90126   5.90419   5.92104
 Alpha virt. eigenvalues --    5.94396   5.96747   5.98582   5.99622   6.02921
 Alpha virt. eigenvalues --    6.04706   6.05271   6.05971   6.06512   6.07277
 Alpha virt. eigenvalues --    6.07675   6.11910   6.16669   6.17497   6.17889
 Alpha virt. eigenvalues --    6.20007   6.27594   6.30238   6.30707   6.32050
 Alpha virt. eigenvalues --    6.33342   6.34058   6.38781   6.42292   6.42969
 Alpha virt. eigenvalues --    6.47164   6.47748   6.52569   6.53107   6.64542
 Alpha virt. eigenvalues --    6.65733   6.74211   6.74864   6.82082   6.84355
 Alpha virt. eigenvalues --    6.91649   6.94095   7.00285   7.03915   7.11222
 Alpha virt. eigenvalues --    7.13009   7.13564   7.15029   7.28851   7.31920
 Alpha virt. eigenvalues --   22.51284  22.51623  22.55285  22.55526  22.61721
 Alpha virt. eigenvalues --   22.62805  22.63192  22.63989  22.65450  22.68693
 Alpha virt. eigenvalues --   22.69802  22.73450  22.74785  22.85594  22.87989
 Alpha virt. eigenvalues --   22.89667  22.90818  22.95151  23.02334  23.04451
 Alpha virt. eigenvalues --   23.05516  23.10217  23.16817  23.23149  23.27639
 Alpha virt. eigenvalues --   23.28142  23.30102  23.35023  23.39186  23.47813
 Alpha virt. eigenvalues --   23.51781  23.53311  23.58371  23.61407  23.70676
 Alpha virt. eigenvalues --   23.75935  23.76332  23.83910  32.43790  32.62724
 Alpha virt. eigenvalues --   32.89160  32.94702  32.95550  33.04298  43.92956
 Alpha virt. eigenvalues --   43.95419  43.96143  43.96432
  Beta  occ. eigenvalues -- -256.30419 -30.02865 -25.87214 -25.85540 -25.85502
  Beta  occ. eigenvalues --  -19.26736 -19.26004 -19.17931 -19.17494 -14.45732
  Beta  occ. eigenvalues --  -14.39131 -14.35562 -14.35462 -14.35426 -14.35305
  Beta  occ. eigenvalues --  -10.35291 -10.35288 -10.29053 -10.26969 -10.24388
  Beta  occ. eigenvalues --  -10.24365 -10.24347 -10.24344 -10.24339 -10.24277
  Beta  occ. eigenvalues --  -10.24211 -10.24165 -10.24045 -10.23718 -10.23140
  Beta  occ. eigenvalues --  -10.22881 -10.22661 -10.22629 -10.22159 -10.21947
  Beta  occ. eigenvalues --  -10.21924 -10.21893 -10.21874 -10.21745 -10.21661
  Beta  occ. eigenvalues --  -10.21594 -10.21572 -10.21513 -10.21503 -10.21421
  Beta  occ. eigenvalues --  -10.21393 -10.21350 -10.20847 -10.20822 -10.20208
  Beta  occ. eigenvalues --  -10.20191 -10.19641 -10.16420  -3.34076  -2.09837
  Beta  occ. eigenvalues --   -2.08444  -2.08396  -1.16678  -1.16553  -1.07164
  Beta  occ. eigenvalues --   -1.02594  -1.01814  -0.96543  -0.95787  -0.95444
  Beta  occ. eigenvalues --   -0.94680  -0.91502  -0.84815  -0.83740  -0.83531
  Beta  occ. eigenvalues --   -0.82715  -0.82424  -0.81995  -0.80750  -0.80062
  Beta  occ. eigenvalues --   -0.78909  -0.78463  -0.77614  -0.76190  -0.75186
  Beta  occ. eigenvalues --   -0.73856  -0.73388  -0.72482  -0.72307  -0.71884
  Beta  occ. eigenvalues --   -0.69446  -0.69320  -0.68979  -0.66027  -0.65831
  Beta  occ. eigenvalues --   -0.65542  -0.64898  -0.64737  -0.63757  -0.62970
  Beta  occ. eigenvalues --   -0.61700  -0.59053  -0.57568  -0.57323  -0.55916
  Beta  occ. eigenvalues --   -0.55095  -0.54652  -0.53544  -0.52702  -0.52153
  Beta  occ. eigenvalues --   -0.51843  -0.51575  -0.50991  -0.50759  -0.50394
  Beta  occ. eigenvalues --   -0.49320  -0.48990  -0.48926  -0.48699  -0.48616
  Beta  occ. eigenvalues --   -0.48489  -0.48265  -0.47992  -0.47670  -0.46487
  Beta  occ. eigenvalues --   -0.45404  -0.45240  -0.44906  -0.44315  -0.44147
  Beta  occ. eigenvalues --   -0.44085  -0.43986  -0.43905  -0.43860  -0.43665
  Beta  occ. eigenvalues --   -0.43450  -0.43040  -0.42845  -0.42822  -0.42348
  Beta  occ. eigenvalues --   -0.41744  -0.41431  -0.41221  -0.40740  -0.40675
  Beta  occ. eigenvalues --   -0.40444  -0.39981  -0.39797  -0.39551  -0.39313
  Beta  occ. eigenvalues --   -0.38957  -0.38682  -0.38449  -0.38171  -0.37753
  Beta  occ. eigenvalues --   -0.37475  -0.37002  -0.36868  -0.36655  -0.35899
  Beta  occ. eigenvalues --   -0.35590  -0.35357  -0.35096  -0.34667  -0.33982
  Beta  occ. eigenvalues --   -0.33861  -0.33143  -0.32731  -0.32491  -0.32289
  Beta  occ. eigenvalues --   -0.32028  -0.31812  -0.30254  -0.29054  -0.28634
  Beta  occ. eigenvalues --   -0.28333  -0.27833  -0.27565  -0.27477  -0.27155
  Beta  occ. eigenvalues --   -0.25230  -0.24071  -0.23494  -0.23117  -0.22765
  Beta  occ. eigenvalues --   -0.19149  -0.18431  -0.15975
  Beta virt. eigenvalues --   -0.07390  -0.07300  -0.01241  -0.00705   0.00116
  Beta virt. eigenvalues --    0.00421   0.01446   0.02040   0.02222   0.02680
  Beta virt. eigenvalues --    0.02862   0.03823   0.03912   0.04422   0.04788
  Beta virt. eigenvalues --    0.05213   0.05591   0.05652   0.05728   0.06257
  Beta virt. eigenvalues --    0.06749   0.07121   0.07530   0.07883   0.08005
  Beta virt. eigenvalues --    0.08284   0.08675   0.08991   0.09460   0.09606
  Beta virt. eigenvalues --    0.09734   0.09801   0.10047   0.10311   0.10747
  Beta virt. eigenvalues --    0.10998   0.11243   0.11421   0.11601   0.12016
  Beta virt. eigenvalues --    0.12304   0.12470   0.12618   0.12879   0.13095
  Beta virt. eigenvalues --    0.13154   0.13346   0.13535   0.13701   0.13768
  Beta virt. eigenvalues --    0.13963   0.14040   0.14247   0.14471   0.14807
  Beta virt. eigenvalues --    0.14988   0.15246   0.15402   0.15671   0.15713
  Beta virt. eigenvalues --    0.16098   0.16226   0.16483   0.16625   0.16915
  Beta virt. eigenvalues --    0.17142   0.17599   0.17956   0.18075   0.18457
  Beta virt. eigenvalues --    0.18895   0.19102   0.19360   0.19537   0.19564
  Beta virt. eigenvalues --    0.19878   0.19948   0.20254   0.20386   0.20555
  Beta virt. eigenvalues --    0.20914   0.20941   0.21360   0.21742   0.21831
  Beta virt. eigenvalues --    0.22067   0.22427   0.22530   0.22703   0.22837
  Beta virt. eigenvalues --    0.22956   0.23051   0.23460   0.23587   0.24105
  Beta virt. eigenvalues --    0.24256   0.24470   0.24740   0.24889   0.25142
  Beta virt. eigenvalues --    0.25468   0.25919   0.26055   0.26186   0.26605
  Beta virt. eigenvalues --    0.26718   0.27016   0.27127   0.27281   0.27472
  Beta virt. eigenvalues --    0.27582   0.27656   0.27839   0.28069   0.28468
  Beta virt. eigenvalues --    0.28879   0.29092   0.29496   0.29541   0.29853
  Beta virt. eigenvalues --    0.29991   0.30059   0.30224   0.30603   0.30852
  Beta virt. eigenvalues --    0.31025   0.31627   0.31796   0.31911   0.32396
  Beta virt. eigenvalues --    0.32599   0.32848   0.32923   0.33095   0.33661
  Beta virt. eigenvalues --    0.33814   0.34045   0.34209   0.34319   0.34443
  Beta virt. eigenvalues --    0.34553   0.34865   0.35479   0.35677   0.35982
  Beta virt. eigenvalues --    0.36219   0.36393   0.36754   0.36889   0.37029
  Beta virt. eigenvalues --    0.37257   0.37386   0.37762   0.37877   0.38325
  Beta virt. eigenvalues --    0.38418   0.38559   0.38711   0.39023   0.39225
  Beta virt. eigenvalues --    0.39394   0.39588   0.39697   0.40069   0.40126
  Beta virt. eigenvalues --    0.40242   0.40697   0.40940   0.41088   0.41446
  Beta virt. eigenvalues --    0.41594   0.41726   0.42124   0.42395   0.42597
  Beta virt. eigenvalues --    0.42631   0.42893   0.43032   0.43463   0.43591
  Beta virt. eigenvalues --    0.43639   0.43797   0.43933   0.44041   0.44147
  Beta virt. eigenvalues --    0.44316   0.44560   0.44737   0.44871   0.44925
  Beta virt. eigenvalues --    0.45107   0.45306   0.45432   0.45616   0.45958
  Beta virt. eigenvalues --    0.46067   0.46232   0.46552   0.46749   0.46911
  Beta virt. eigenvalues --    0.47041   0.47157   0.47350   0.47537   0.47770
  Beta virt. eigenvalues --    0.47857   0.48253   0.48330   0.48354   0.48505
  Beta virt. eigenvalues --    0.48864   0.49031   0.49310   0.49496   0.49616
  Beta virt. eigenvalues --    0.49763   0.50144   0.50201   0.50357   0.50639
  Beta virt. eigenvalues --    0.50702   0.50919   0.51274   0.51406   0.51462
  Beta virt. eigenvalues --    0.51757   0.51951   0.52216   0.52365   0.52585
  Beta virt. eigenvalues --    0.52710   0.52945   0.53069   0.53452   0.53608
  Beta virt. eigenvalues --    0.53930   0.54056   0.54195   0.54444   0.54874
  Beta virt. eigenvalues --    0.54995   0.55142   0.55255   0.55637   0.55727
  Beta virt. eigenvalues --    0.55841   0.56045   0.56507   0.56626   0.56934
  Beta virt. eigenvalues --    0.57360   0.57396   0.57624   0.57685   0.58247
  Beta virt. eigenvalues --    0.58486   0.58591   0.58896   0.59315   0.59391
  Beta virt. eigenvalues --    0.59921   0.60071   0.60223   0.60392   0.60574
  Beta virt. eigenvalues --    0.60846   0.61021   0.61304   0.61359   0.61718
  Beta virt. eigenvalues --    0.62149   0.62701   0.62712   0.63368   0.63445
  Beta virt. eigenvalues --    0.63512   0.63849   0.64121   0.64349   0.64483
  Beta virt. eigenvalues --    0.64803   0.65094   0.65308   0.65640   0.65824
  Beta virt. eigenvalues --    0.65923   0.66444   0.66576   0.66799   0.67096
  Beta virt. eigenvalues --    0.67465   0.67964   0.68536   0.68731   0.68813
  Beta virt. eigenvalues --    0.69158   0.69430   0.69445   0.70012   0.70071
  Beta virt. eigenvalues --    0.70334   0.70611   0.70851   0.70987   0.71244
  Beta virt. eigenvalues --    0.71495   0.71762   0.72061   0.72465   0.72727
  Beta virt. eigenvalues --    0.72829   0.73209   0.73474   0.73808   0.74082
  Beta virt. eigenvalues --    0.74384   0.74573   0.74764   0.74918   0.75597
  Beta virt. eigenvalues --    0.75880   0.76150   0.76349   0.76394   0.76685
  Beta virt. eigenvalues --    0.76861   0.77259   0.77700   0.78186   0.78419
  Beta virt. eigenvalues --    0.78753   0.79112   0.79250   0.79624   0.79704
  Beta virt. eigenvalues --    0.80088   0.80326   0.80351   0.80803   0.81177
  Beta virt. eigenvalues --    0.81419   0.81971   0.82179   0.82540   0.82934
  Beta virt. eigenvalues --    0.83233   0.83501   0.83884   0.84019   0.84316
  Beta virt. eigenvalues --    0.84936   0.85202   0.85256   0.85698   0.86276
  Beta virt. eigenvalues --    0.86766   0.86965   0.87425   0.87840   0.88060
  Beta virt. eigenvalues --    0.88373   0.88560   0.89047   0.89302   0.89438
  Beta virt. eigenvalues --    0.89748   0.89861   0.90453   0.90665   0.90724
  Beta virt. eigenvalues --    0.91430   0.91623   0.92115   0.92328   0.92431
  Beta virt. eigenvalues --    0.92946   0.93168   0.93270   0.93866   0.94236
  Beta virt. eigenvalues --    0.94383   0.94866   0.94993   0.95172   0.95463
  Beta virt. eigenvalues --    0.95660   0.96048   0.96392   0.96749   0.96898
  Beta virt. eigenvalues --    0.97291   0.97656   0.98066   0.98125   0.98495
  Beta virt. eigenvalues --    0.98924   0.99405   0.99567   0.99865   1.00161
  Beta virt. eigenvalues --    1.00437   1.00909   1.01126   1.01278   1.01660
  Beta virt. eigenvalues --    1.01833   1.02145   1.02628   1.02922   1.03126
  Beta virt. eigenvalues --    1.03580   1.03621   1.04172   1.04498   1.04614
  Beta virt. eigenvalues --    1.04927   1.05091   1.05458   1.05778   1.06126
  Beta virt. eigenvalues --    1.06464   1.06927   1.07110   1.07426   1.07843
  Beta virt. eigenvalues --    1.08255   1.08348   1.08848   1.09115   1.09245
  Beta virt. eigenvalues --    1.09991   1.10376   1.10826   1.11039   1.11312
  Beta virt. eigenvalues --    1.11636   1.12434   1.12878   1.13369   1.13643
  Beta virt. eigenvalues --    1.13697   1.14358   1.14428   1.14865   1.15333
  Beta virt. eigenvalues --    1.15596   1.15851   1.16252   1.16647   1.16938
  Beta virt. eigenvalues --    1.17408   1.17587   1.18284   1.18307   1.18796
  Beta virt. eigenvalues --    1.18929   1.19602   1.19909   1.20180   1.20788
  Beta virt. eigenvalues --    1.21214   1.21498   1.21715   1.22534   1.22764
  Beta virt. eigenvalues --    1.23172   1.23689   1.23878   1.24100   1.24242
  Beta virt. eigenvalues --    1.24387   1.24900   1.25015   1.25585   1.25763
  Beta virt. eigenvalues --    1.26068   1.26465   1.26754   1.27088   1.27498
  Beta virt. eigenvalues --    1.28141   1.28295   1.28688   1.28998   1.29458
  Beta virt. eigenvalues --    1.29779   1.29915   1.30555   1.30739   1.30858
  Beta virt. eigenvalues --    1.31789   1.31937   1.32070   1.32600   1.32999
  Beta virt. eigenvalues --    1.33502   1.33992   1.34243   1.34637   1.35007
  Beta virt. eigenvalues --    1.35218   1.35431   1.35622   1.36302   1.36488
  Beta virt. eigenvalues --    1.37214   1.37514   1.38323   1.38531   1.38908
  Beta virt. eigenvalues --    1.39353   1.40381   1.41050   1.41473   1.41867
  Beta virt. eigenvalues --    1.42327   1.42916   1.43108   1.43244   1.43807
  Beta virt. eigenvalues --    1.44188   1.44297   1.44972   1.45632   1.45767
  Beta virt. eigenvalues --    1.45947   1.46282   1.46889   1.47054   1.47449
  Beta virt. eigenvalues --    1.47594   1.48236   1.48474   1.48746   1.49144
  Beta virt. eigenvalues --    1.49454   1.49523   1.49792   1.50289   1.50668
  Beta virt. eigenvalues --    1.51162   1.51191   1.51310   1.51648   1.51960
  Beta virt. eigenvalues --    1.52138   1.52693   1.52811   1.53209   1.53514
  Beta virt. eigenvalues --    1.53735   1.54121   1.54388   1.54722   1.55217
  Beta virt. eigenvalues --    1.55472   1.55534   1.55902   1.56379   1.56618
  Beta virt. eigenvalues --    1.56763   1.56853   1.57212   1.57519   1.57787
  Beta virt. eigenvalues --    1.57903   1.58085   1.58458   1.58739   1.59003
  Beta virt. eigenvalues --    1.59462   1.59509   1.60141   1.60278   1.60570
  Beta virt. eigenvalues --    1.60647   1.60992   1.61279   1.61715   1.62106
  Beta virt. eigenvalues --    1.62261   1.62382   1.62854   1.63192   1.63373
  Beta virt. eigenvalues --    1.63641   1.63917   1.64194   1.64718   1.64816
  Beta virt. eigenvalues --    1.65278   1.65713   1.65779   1.66210   1.66439
  Beta virt. eigenvalues --    1.66619   1.66958   1.67304   1.67618   1.67655
  Beta virt. eigenvalues --    1.68053   1.68489   1.68766   1.68967   1.69166
  Beta virt. eigenvalues --    1.69555   1.70158   1.70422   1.70633   1.70758
  Beta virt. eigenvalues --    1.71391   1.71474   1.71934   1.72316   1.72641
  Beta virt. eigenvalues --    1.72731   1.72786   1.73437   1.73622   1.73875
  Beta virt. eigenvalues --    1.74091   1.75008   1.75281   1.75671   1.75895
  Beta virt. eigenvalues --    1.76257   1.77090   1.77593   1.77921   1.78482
  Beta virt. eigenvalues --    1.78661   1.78905   1.79346   1.80340   1.80577
  Beta virt. eigenvalues --    1.81217   1.81529   1.81829   1.82147   1.82445
  Beta virt. eigenvalues --    1.82558   1.83280   1.83517   1.83909   1.84127
  Beta virt. eigenvalues --    1.84524   1.85151   1.85640   1.86469   1.86806
  Beta virt. eigenvalues --    1.86847   1.86904   1.87439   1.87658   1.88152
  Beta virt. eigenvalues --    1.88480   1.88848   1.89065   1.90009   1.90255
  Beta virt. eigenvalues --    1.90440   1.90915   1.91289   1.92013   1.92121
  Beta virt. eigenvalues --    1.92322   1.92709   1.92786   1.93431   1.93813
  Beta virt. eigenvalues --    1.93988   1.94855   1.95205   1.95314   1.95955
  Beta virt. eigenvalues --    1.96116   1.96475   1.96863   1.97248   1.97593
  Beta virt. eigenvalues --    1.98178   1.98205   1.99148   1.99376   1.99627
  Beta virt. eigenvalues --    2.00278   2.00569   2.01180   2.01463   2.01931
  Beta virt. eigenvalues --    2.02454   2.02733   2.02907   2.03329   2.03633
  Beta virt. eigenvalues --    2.04097   2.04399   2.04765   2.05182   2.05454
  Beta virt. eigenvalues --    2.06029   2.06169   2.06518   2.06951   2.07378
  Beta virt. eigenvalues --    2.07905   2.08087   2.08249   2.08962   2.09351
  Beta virt. eigenvalues --    2.09734   2.10127   2.10255   2.10809   2.11270
  Beta virt. eigenvalues --    2.11818   2.12017   2.12415   2.12803   2.13192
[...]
  1557. RY*(   1) H  68                  0.00039     1.04805   
  1558. RY*(   2) H  68                  0.00006     1.65906   
  1559. RY*(   3) H  68                  0.00006     2.43737   
  1560. RY*(   4) H  68                  0.00003     2.42273   
  1561. RY*(   5) H  68                  0.00001     2.94424   
  1562. RY*(   1) H  69                  0.00030     1.28992   
  1563. RY*(   2) H  69                  0.00005     1.43581   
  1564. RY*(   3) H  69                  0.00006     2.45900   
  1565. RY*(   4) H  69                  0.00003     2.42416   
  1566. RY*(   5) H  69                  0.00001     3.04483   
  1567. RY*(   1) H  70                  0.00053     1.02405   
  1568. RY*(   2) H  70                  0.00036     1.89313   
  1569. RY*(   3) H  70                  0.00023     1.92801   
  1570. RY*(   4) H  70                  0.00012     2.16393   
  1571. RY*(   5) H  70                  0.00000     3.14212   
  1572. RY*(   1) H  71                  0.00081     0.81869   
  1573. RY*(   2) H  71                  0.00034     2.13998   
  1574. RY*(   3) H  71                  0.00025     1.84065   
  1575. RY*(   4) H  71                  0.00011     2.16379   
  1576. RY*(   5) H  71                  0.00000     3.20262   
  1577. RY*(   1) H  72                  0.00038     1.05696   
  1578. RY*(   2) H  72                  0.00007     1.74281   
  1579. RY*(   3) H  72                  0.00006     2.57771   
  1580. RY*(   4) H  72                  0.00004     2.27014   
  1581. RY*(   5) H  72                  0.00001     2.98763   
  1582. RY*(   1) H  73                  0.00036     1.39553   
  1583. RY*(   2) H  73                  0.00006     1.77282   
  1584. RY*(   3) H  73                  0.00006     2.36957   
  1585. RY*(   4) H  73                  0.00002     2.29505   
  1586. RY*(   5) H  73                  0.00000     2.89545   
  1587. RY*(   1) H  74                  0.00078     0.57168   
  1588. RY*(   2) H  74                  0.00009     2.24348   
  1589. RY*(   3) H  74                  0.00009     2.70455   
  1590. RY*(   4) H  74                  0.00005     2.41551   
  1591. RY*(   5) H  74                  0.00001     3.10383   
  1592. RY*(   1) H  75                  0.00042     1.59309   
  1593. RY*(   2) H  75                  0.00007     2.69668   
  1594. RY*(   3) H  75                  0.00007     2.33883   
  1595. RY*(   4) H  75                  0.00004     1.63215   
  1596. RY*(   5) H  75                  0.00000     2.97743   
  1597. RY*(   1) H  76                  0.00036     1.01753   
  1598. RY*(   2) H  76                  0.00009     1.83606   
  1599. RY*(   3) H  76                  0.00004     2.13917   
  1600. RY*(   4) H  76                  0.00003     2.07196   
  1601. RY*(   5) H  76                  0.00000     2.90962   
  1602. RY*(   1) H  77                  0.00043     1.26471   
  1603. RY*(   2) H  77                  0.00010     1.93901   
  1604. RY*(   3) H  77                  0.00006     2.56645   
  1605. RY*(   4) H  77                  0.00004     2.23819   
  1606. RY*(   5) H  77                  0.00000     2.69264   
  1607. RY*(   1) H  78                  0.00036     1.04382   
  1608. RY*(   2) H  78                  0.00009     1.87918   
  1609. RY*(   3) H  78                  0.00005     2.05471   
  1610. RY*(   4) H  78                  0.00002     2.26746   
  1611. RY*(   5) H  78                  0.00001     2.71436   
  1612. RY*(   1) H  79                  0.00049     1.12980   
  1613. RY*(   2) H  79                  0.00011     1.95814   
  1614. RY*(   3) H  79                  0.00005     2.47363   
  1615. RY*(   4) H  79                  0.00004     2.00001   
  1616. RY*(   5) H  79                  0.00001     3.02776   
  1617. RY*(   1) H  80                  0.00032     1.58495   
  1618. RY*(   2) H  80                  0.00012     1.61388   
  1619. RY*(   3) H  80                  0.00004     2.40704   
  1620. RY*(   4) H  80                  0.00003     2.18228   
  1621. RY*(   5) H  80                  0.00000     3.01685   
  1622. RY*(   1) H  81                  0.00032     1.36543   
  1623. RY*(   2) H  81                  0.00008     1.59921   
  1624. RY*(   3) H  81                  0.00007     2.63436   
  1625. RY*(   4) H  81                  0.00004     2.18482   
  1626. RY*(   5) H  81                  0.00001     2.74924   
  1627. RY*(   1) H  82                  0.00024     1.20434   
  1628. RY*(   2) H  82                  0.00006     1.68477   
  1629. RY*(   3) H  82                  0.00004     2.10699   
  1630. RY*(   4) H  82                  0.00004     2.11675   
  1631. RY*(   5) H  82                  0.00000     2.64759   
  1632. RY*(   1) H  83                  0.00032     1.25228   
  1633. RY*(   2) H  83                  0.00007     1.94360   
  1634. RY*(   3) H  83                  0.00003     1.68261   
  1635. RY*(   4) H  83                  0.00003     2.16736   
  1636. RY*(   5) H  83                  0.00001     2.85298   
  1637. RY*(   1) H  84                  0.00038     1.12600   
  1638. RY*(   2) H  84                  0.00010     1.64823   
  1639. RY*(   3) H  84                  0.00005     2.31098   
  1640. RY*(   4) H  84                  0.00003     2.05314   
  1641. RY*(   5) H  84                  0.00000     3.01428   
  1642. RY*(   1) H  85                  0.00040     1.13167   
  1643. RY*(   2) H  85                  0.00011     1.59254   
  1644. RY*(   3) H  85                  0.00008     2.29571   
  1645. RY*(   4) H  85                  0.00004     2.15311   
  1646. RY*(   5) H  85                  0.00001     2.99655   
  1647. RY*(   1) H  86                  0.00029     1.42240   
  1648. RY*(   2) H  86                  0.00009     1.80049   
  1649. RY*(   3) H  86                  0.00004     2.93379   
  1650. RY*(   4) H  86                  0.00003     2.11688   
  1651. RY*(   5) H  86                  0.00001     1.99823   
  1652. RY*(   1) H  87                  0.00031     1.00595   
  1653. RY*(   2) H  87                  0.00007     1.91062   
  1654. RY*(   3) H  87                  0.00006     2.19711   
  1655. RY*(   4) H  87                  0.00002     2.30704   
  1656. RY*(   5) H  87                  0.00001     3.06655   
  1657. RY*(   1) H  88                  0.00032     1.00669   
  1658. RY*(   2) H  88                  0.00008     1.92089   
  1659. RY*(   3) H  88                  0.00005     2.17419   
  1660. RY*(   4) H  88                  0.00002     2.56288   
  1661. RY*(   5) H  88                  0.00001     2.82027   
  1662. RY*(   1) H  89                  0.00077     1.48121   
  1663. RY*(   2) H  89                  0.00008     2.25823   
  1664. RY*(   3) H  89                  0.00006     2.49482   
  1665. RY*(   4) H  89                  0.00003     3.34190   
  1666. RY*(   5) H  89                  0.00001     2.30869   
  1667. RY*(   1) H  90                  0.00038     1.71595   
  1668. RY*(   2) H  90                  0.00008     2.71134   
  1669. RY*(   3) H  90                  0.00005     1.88731   
  1670. RY*(   4) H  90                  0.00003     2.07588   
  1671. RY*(   5) H  90                  0.00000     2.87079   
  1672. RY*(   1) H  91                  0.00038     1.71436   
  1673. RY*(   2) H  91                  0.00008     2.70382   
  1674. RY*(   3) H  91                  0.00005     2.34447   
  1675. RY*(   4) H  91                  0.00004     1.59238   
  1676. RY*(   5) H  91                  0.00000     2.87418   
  1691. BD*(   1) C   8 - C  13          0.01019     0.57044   
  1692. BD*(   2) C   8 - C  13          0.21290     0.04741  1711(v),187(v),1696(r)
                                                    375(g),509(g),170(r),171(r)
                                                    177(r)
  1693. BD*(   1) C   8 - C  41          0.01010     0.58736   
  1694. BD*(   1) C   8 - H  56          0.00690     0.44931   
  1695. BD*(   1) C   9 - C  16          0.00959     0.56860   
  1696. BD*(   2) C   9 - C  16          0.20476     0.05006  1729(v),1711(v),1700(r)
                                                    1692(r),402(g),587(g),170(r)
                                                    171(r),176(r),177(r)
  1697. BD*(   1) C   9 - C  24          0.00970     0.56903   
  1698. BD*(   1) C   9 - H  59          0.00616     0.44970   
  1699. BD*(   1) C  10 - C  27          0.00986     0.58965   
  1700. BD*(   2) C  10 - C  27          0.20366     0.05229  1741(v),1733(v),1729(v)
                                                    1696(r),427(g),873(g)
                                                    1704(r),177(r),170(r),171(r)
  1701. BD*(   1) C  10 - C  30          0.01018     0.57923   
  1702. BD*(   1) C  10 - H  58          0.00733     0.45106   
  1703. BD*(   1) C  11 - C  33          0.00934     0.60082   
  1704. BD*(   2) C  11 - C  33          0.19026     0.05838  1745(v),1759(v),1741(v)
                                                    453(g),1029(g),1700(r)
                                                    175(r),171(r),177(r)
  1705. BD*(   1) C  11 - C  38          0.00997     0.56622   
  1706. BD*(   1) C  11 - H  57          0.00613     0.45117   
  1707. BD*(   1) N  12 - C  13          0.01378     0.48515   
  1708. BD*(   1) N  12 - C  16          0.01353     0.48837   
  1709. BD*(   1) C  13 - C  14          0.01738     0.49819   
  1710. BD*(   1) C  14 - C  15          0.00962     0.62626   
  1711. BD*(   2) C  14 - C  15          0.12345     0.07670  1696(v),1692(v),1718(v)
                                                    1717(v),1715(v)
  1712. BD*(   1) C  14 - C  18          0.01241     0.37888   
  1713. BD*(   1) C  15 - C  16          0.01749     0.49526   
  1714. BD*(   1) C  15 - C  17          0.00909     0.39679   
  1715. BD*(   1) C  17 - H  60          0.00423     0.41206   
  1716. BD*(   1) C  17 - H  61          0.00269     0.41800   
  1717. BD*(   1) C  17 - H  62          0.00476     0.41058   
  1718. BD*(   1) C  18 - C  19          0.00755     0.35191   
  1719. BD*(   1) C  18 - H  74          0.00692     0.40961   
  1720. BD*(   1) C  18 - H  75          0.00681     0.41333   
  1721. BD*(   1) C  19 - C  20          0.03115     0.34491   
  1722. BD*(   1) C  19 - H  72          0.00467     0.40221   
  1723. BD*(   1) C  19 - H  73          0.00671     0.39066   
  1724. BD*(   1) C  20 - O  21          0.01639     0.54096   
  1725. BD*(   2) C  20 - O  21          0.10980    -0.00106  1723(v),689(g),1727(v)
                                                    1718(v)
  1726. BD*(   1) C  20 - O  22          0.03643     0.46319   
  1727. BD*(   1) O  22 - H  71          0.00670     0.38243   
  1728. BD*(   1) N  23 - C  24          0.01282     0.49538   
  1729. BD*(   2) N  23 - C  24          0.30617     0.01401  1696(v),1700(v),1733(v)
                                                    177(r),1759(r),793(g),767(g)
                                                    170(r),176(r),172(r)
  1730. BD*(   1) N  23 - C  27          0.01317     0.49586   
  1731. BD*(   1) C  24 - C  25          0.01777     0.48472   
  1732. BD*(   1) C  25 - C  26          0.00886     0.63231   
  1733. BD*(   2) C  25 - C  26          0.11235     0.07915  1700(v),1729(v),1763(r)
                                                    1781(v),1739(v),1737(v)
  1734. BD*(   1) C  25 - C  28          0.00957     0.37187   
  1735. BD*(   1) C  26 - C  27          0.01824     0.48266   
  1736. BD*(   1) C  26 - C  48          0.01230     0.37075   
  1737. BD*(   1) C  28 - H  76          0.00452     0.41373   
  1738. BD*(   1) C  28 - H  77          0.01382     0.48354   
  1739. BD*(   1) C  28 - H  78          0.00419     0.40834   
  1740. BD*(   1) N  29 - C  30          0.01360     0.49008   
  1741. BD*(   2) N  29 - C  30          0.30532     0.01341  1700(v),1745(v),1704(v)
                                                    175(r),949(g),923(g),177(r)
                                                    951(g),171(r),176(r),1687(r)
                                                    172(r)
  1742. BD*(   1) N  29 - C  33          0.01456     0.47482   
  1743. BD*(   1) C  30 - C  31          0.01688     0.49864   
  1744. BD*(   1) C  31 - C  32          0.00934     0.61934   
  1745. BD*(   2) C  31 - C  32          0.11674     0.07684  1704(v),1741(v),1749(v)
                                                    1754(v),1750(v),1001(g)
                                                    1753(v)
  1746. BD*(   1) C  31 - C  34          0.01056     0.36703   
  1747. BD*(   1) C  32 - C  33          0.01664     0.48848   
  1748. BD*(   1) C  32 - C  35          0.01459     0.39507   
  1749. BD*(   1) C  34 - H  84          0.00519     0.39658   
  1750. BD*(   1) C  34 - H  85          0.00410     0.39419   
  1751. BD*(   1) C  34 - H  86          0.00941     0.44057   
  1752. BD*(   1) C  35 - C  36          0.00417     0.58488   
  1753. BD*(   1) C  35 - H  90          0.00943     0.42349   
  1754. BD*(   1) C  35 - H  91          0.00990     0.42175   
  1755. BD*(   1) C  36 - H  87          0.00522     0.41476   
  1756. BD*(   1) C  36 - H  88          0.00506     0.41324   
  1757. BD*(   1) C  36 - H  89          0.01897     0.49985   
  1758. BD*(   1) N  37 - C  38          0.01334     0.49659   
  1759. BD*(   2) N  37 - C  38          0.30321     0.01369  1704(v),1763(v),187(v)
                                                    176(r),1729(r),1157(g)
                                                    1131(g),175(r),171(r),177(r)
  1760. BD*(   1) N  37 - C  41          0.01391     0.49663   
  1761. BD*(   1) C  38 - C  39          0.01747     0.48464   
  1762. BD*(   1) C  39 - C  40          0.00941     0.64032   
  1763. BD*(   2) C  39 - C  40          0.11694     0.07917  1759(v),187(v),1733(r)
                                                    1770(v),1769(v),1772(v)
                                                    1768(v)
  1764. BD*(   1) C  39 - C  42          0.00937     0.36879   
  1765. BD*(   1) C  40 - C  41          0.01821     0.49248   
  1766. BD*(   1) C  40 - C  43          0.01381     0.39109   
  1767. BD*(   1) C  42 - H  63          0.00225     0.42335   
  1768. BD*(   1) C  42 - H  64          0.00388     0.41482   
  1769. BD*(   1) C  42 - H  65          0.00391     0.41505   
  1770. BD*(   1) C  43 - C  44          0.00767     0.35190   
  1771. BD*(   1) C  43 - H  66          0.00647     0.41256   
  1772. BD*(   1) C  43 - H  67          0.00819     0.41151   
  1773. BD*(   1) C  44 - C  45          0.03448     0.33538   
  1774. BD*(   1) C  44 - H  68          0.00679     0.39679   
  1775. BD*(   1) C  44 - H  69          0.00534     0.40462   
  1776. BD*(   1) C  45 - O  46          0.03644     0.48088   
  1777. BD*(   1) C  45 - O  47          0.01925     0.55214   
  1778. BD*(   2) C  45 - O  47          0.09400     0.00157   
  1779. BD*(   1) O  46 - H  70          0.00664     0.37469   
  1780. BD*(   1) C  48 - C  49          0.00288     0.34908   
  1781. BD*(   1) C  48 - H  79          0.00807     0.40679   
  1782. BD*(   1) C  48 - H  80          0.00581     0.40710   
  1783. BD*(   1) C  49 - H  81          0.01025     0.45393   
  1784. BD*(   1) C  49 - H  82          0.00414     0.42000   
  1785. BD*(   1) C  49 - H  83          0.00400     0.40574   
       -------------------------------
              Total Lewis  146.85372  ( 97.6304%)
        Valence non-Lewis    3.28817  (  2.1860%)
        Rydberg non-Lewis    0.27616  (  0.1836%)
       -------------------------------
            Total unit  3  150.41805  (100.0000%)
           Charge unit  3   -0.41805
 1\1\GINC-NODE481\SP\UPBE1PBE\def2TZVP\C38H42Fe1N6O4(5)\ZHARTOVSKA\28-A
 ug-2022\0\\# PBE1PBE/def2TZVP empiricaldispersion=GD3BJ int=(grid=ultr
 afine) geom=check pop=nbo\\2gsm_II_Q\\0,5\C,0,-5.474,-37.528,20.323\C,
 0,-5.651,-36.312,21.197001\N,0,-6.76,-36.129002,21.996\C,0,-4.88,-35.2
 06001,21.370001\C,0,-6.668,-34.964001,22.622\N,0,-5.531,-34.386002,22.
 267\Fe,0,-4.52,-32.644001,22.892\C,0,-1.505,-33.622002,21.511999\C,0,-
 3.669,-34.209,25.865999\C,0,-7.35,-31.365,24.419001\C,0,-5.164,-30.729
 ,20.121\N,0,-2.873,-33.743,23.577\C,0,-1.717,-33.959,22.844\C,0,-0.784
 ,-34.632,23.719999\C,0,-1.369,-34.789001,24.924999\C,0,-2.709,-34.2400
 02,24.858\C,0,-0.713,-35.43,26.132\C,0,0.641,-35.077999,23.351\C,0,0.6
 14,-36.492001,22.771999\C,0,1.968,-36.821999,22.18\O,0,2.509,-37.91099
 9,22.504999\O,0,2.522,-36.009998,21.382\N,0,-5.361,-32.737,24.851999\C
 ,0,-4.884,-33.529999,25.874001\C,0,-5.891,-33.502998,26.929001\C,0,-6.
 902,-32.712002,26.533001\C,0,-6.587,-32.209999,25.195999\C,0,-5.815,-3
 4.251999,28.274\N,0,-5.992,-31.296,22.363001\C,0,-7.062,-30.905001,23.
 145\C,0,-7.835,-29.938999,22.396\C,0,-7.245,-29.76,21.193001\C,0,-6.06
 6,-30.617001,21.146999\C,0,-9.098,-29.238001,22.921\C,0,-7.702,-28.816
 999,20.072001\C,0,-8.75969665,-28.08576393,20.49994972\N,0,-3.508,-32.
 266998,21.104\C,0,-3.943,-31.403999,20.125\C,0,-2.906,-31.361,19.10199
 9\C,0,-1.903,-32.160999,19.488001\C,0,-2.265,-32.749001,20.766001\C,0,
 -2.973,-30.514999,17.811001\C,0,-0.603,-32.486,18.752001\C,0,0.463,-31
 .393999,18.716999\C,0,1.5,-31.948999,17.750999\O,0,2.4,-32.716,18.1779
 99\O,0,1.407,-31.631001,16.547001\C,0,-8.129,-32.311001,27.386999\C,0,
 -8.57108656,-33.51064774,28.24549022\H,0,-4.56452282,-38.0267336,20.58
 570906\H,0,-6.29974669,-38.19327544,20.46600697\H,0,-5.43213475,-37.22
 684082,19.29710992\H,0,-7.51713514,-36.77562007,22.08890559\H,0,-7.390
 4874,-34.55928526,23.29958182\H,0,-3.9407778,-35.00818999,20.89710306\
 H,0,-0.67412167,-34.08387267,21.02086084\H,0,-5.42815395,-30.23976443,
 19.20679475\H,0,-8.26923448,-31.02597678,24.84908381\H,0,-3.44477242,-
 34.77809616,26.74392357\H,0,0.2289573,-34.9580119,26.3186646\H,0,-1.34
 627267,-35.31265441,26.9864564\H,0,-0.55865769,-36.47177242,25.9428210
 5\H,0,-2.11563814,-30.72081274,17.20480685\H,0,-3.86129698,-30.7623455
 8,17.26818598\H,0,-2.98846756,-29.47591759,18.06589426\H,0,-0.17247032
 ,-33.35104379,19.21161327\H,0,-0.85094826,-32.7358406,17.74155489\H,0,
 0.88966186,-31.25193368,19.6879146\H,0,0.05301022,-30.47823941,18.3452
 5614\H,0,3.32412137,-32.48883142,18.05153113\H,0,3.47960041,-35.961616
 81,21.33445302\H,0,0.38460747,-37.1910653,23.54890838\H,0,-0.13291057,
 -36.55023353,22.00803985\H,0,1.25467458,-35.06533955,24.22743781\H,0,1
 .04628101,-34.40501289,22.62454491\H,0,-4.92482514,-33.96367767,28.792
 99859\H,0,-6.67000253,-34.00559394,28.86826865\H,0,-5.79741384,-35.306
 67488,28.09441851\H,0,-7.86741933,-31.49289726,28.025107\H,0,-8.931653
 72,-32.01836805,26.742784\H,0,-7.83659535,-33.69890175,29.00046247\H,0
 ,-9.5103538,-33.29099325,28.70855498\H,0,-8.67347458,-34.37556899,27.6
 2393739\H,0,-8.89326064,-28.1983192,23.06947067\H,0,-9.88892916,-29.34
 760068,22.20873672\H,0,-9.3910949,-29.68005715,23.85029099\H,0,-8.4918
 6734,-27.05005339,20.52165552\H,0,-9.58426318,-28.22702938,19.83284095
 \H,0,-9.03806526,-28.40286138,21.48324018\H,0,-6.89869522,-28.16142405
 ,19.80776074\H,0,-7.98885959,-29.39237827,19.21669388\\Version=ES64L-G
 16RevA.03\State=5-A\HF=-3364.7240994\S2=6.010233\S2-1=0.\S2A=6.000034\
 RMSD=1.752e-09\Dipole=-1.4628697,-0.8122362,0.4780404\Quadrupole=25.65
 81143,-8.8801604,-16.7779539,22.7242655,0.812646,4.5788762\PG=C01 [X(C
 38H42Fe1N6O4)]\\@


 HO!  SUCH BUGS AND GOBLINS IN MY LIFE!

                            -- HAMLET, ACT 5, SCENE 2
 Job cpu time:       4 days 23 hours 46 minutes  4.6 seconds.
 Elapsed time:       1 days  6 hours  2 minutes 59.5 seconds.
 File lengths (MBytes):  RWF=   2927 Int=      0 D2E=      0 Chk=    245 Scr=      1
 Normal termination of Gaussian 16 at Sun Aug 28 18:39:37 2022.
