 Entering Gaussian System, Link 0=g16
 Input=/net/homes/chemie/zhartovska/work/BioModel/Konrad/2oyy/2oyy12/Teil_1/def2TZVP/nonbo/2oyy12.com
 Output=/net/homes/chemie/zhartovska/work/BioModel/Konrad/2oyy/2oyy12/Teil_1/def2TZVP/nonbo/2oyy12.log
 Initial command:
 /afs/math/software/gaussian/g16.A03/g16/l1.exe "/scratch/zhartovska_gaussian.28vlBNM/Gau-24964.inp" -scrdir="/scratch/zhartovska_gaussian.28vlBNM/"
 Entering Link 1 = /afs/math/software/gaussian/g16.A03/g16/l1.exe PID=     24965.
  
 Copyright (c) 1988,1990,1992,1993,1995,1998,2003,2009,2016,
            Gaussian, Inc.  All Rights Reserved.
  
 This is part of the Gaussian(R) 16 program.  It is based on
 the Gaussian(R) 09 system (copyright 2009, Gaussian, Inc.),
 the Gaussian(R) 03 system (copyright 2003, Gaussian, Inc.),
 the Gaussian(R) 98 system (copyright 1998, Gaussian, Inc.),
 the Gaussian(R) 94 system (copyright 1995, Gaussian, Inc.),
 the Gaussian 92(TM) system (copyright 1992, Gaussian, Inc.),
 the Gaussian 90(TM) system (copyright 1990, Gaussian, Inc.),
 the Gaussian 88(TM) system (copyright 1988, Gaussian, Inc.),
 the Gaussian 86(TM) system (copyright 1986, Carnegie Mellon
 University), and the Gaussian 82(TM) system (copyright 1983,
 Carnegie Mellon University). Gaussian is a federally registered
 trademark of Gaussian, Inc.
  
 This software contains proprietary and confidential information,
 including trade secrets, belonging to Gaussian, Inc.
  
 This software is provided under written license and may be
 used, copied, transmitted, or stored only in accord with that
 written license.
  
 The following legend is applicable only to US Government
 contracts under FAR:
  
                    RESTRICTED RIGHTS LEGEND
  
 Use, reproduction and disclosure by the US Government is
 subject to restrictions as set forth in subparagraphs (a)
 and (c) of the Commercial Computer Software - Restricted
 Rights clause in FAR 52.227-19.
  
 Gaussian, Inc.
 340 Quinnipiac St., Bldg. 40, Wallingford CT 06492
  
  
 ---------------------------------------------------------------
 Warning -- This program may not be used in any manner that
 competes with the business of Gaussian, Inc. or will provide
 assistance to any competitor of Gaussian, Inc.  The licensee
 of this program is prohibited from giving any competitor of
 Gaussian, Inc. access to this program.  By using this program,
 the user acknowledges that Gaussian, Inc. is engaged in the
 business of creating and licensing software in the field of
 computational chemistry and represents and warrants to the
 licensee that it is not a competitor of Gaussian, Inc. and that
 it will not use this program in any manner prohibited above.
 ---------------------------------------------------------------
  

 Cite this work as:
 Gaussian 16, Revision A.03,
 M. J. Frisch, G. W. Trucks, H. B. Schlegel, G. E. Scuseria, 
 M. A. Robb, J. R. Cheeseman, G. Scalmani, V. Barone, 
 G. A. Petersson, H. Nakatsuji, X. Li, M. Caricato, A. V. Marenich, 
 J. Bloino, B. G. Janesko, R. Gomperts, B. Mennucci, H. P. Hratchian, 
 J. V. Ortiz, A. F. Izmaylov, J. L. Sonnenberg, D. Williams-Young, 
 F. Ding, F. Lipparini, F. Egidi, J. Goings, B. Peng, A. Petrone, 
 T. Henderson, D. Ranasinghe, V. G. Zakrzewski, J. Gao, N. Rega, 
 G. Zheng, W. Liang, M. Hada, M. Ehara, K. Toyota, R. Fukuda, 
 J. Hasegawa, M. Ishida, T. Nakajima, Y. Honda, O. Kitao, H. Nakai, 
 T. Vreven, K. Throssell, J. A. Montgomery, Jr., J. E. Peralta, 
 F. Ogliaro, M. J. Bearpark, J. J. Heyd, E. N. Brothers, K. N. Kudin, 
 V. N. Staroverov, T. A. Keith, R. Kobayashi, J. Normand, 
 K. Raghavachari, A. P. Rendell, J. C. Burant, S. S. Iyengar, 
 J. Tomasi, M. Cossi, J. M. Millam, M. Klene, C. Adamo, R. Cammi, 
 J. W. Ochterski, R. L. Martin, K. Morokuma, O. Farkas, 
 J. B. Foresman, and D. J. Fox, Gaussian, Inc., Wallingford CT, 2016.
 
 ******************************************
 Gaussian 16:  ES64L-G16RevA.03 25-Dec-2016
                 3-Nov-2022 
 ******************************************
 %nprocs=12
 Will use up to   12 processors via shared memory.
 %mem=16GB
 %oldchk=2oyy_III_Dn.chk
 %chk=2oyy_III_D.chk
 Copying data from "2oyy_III_Dn.chk" to current chk file "2oyy_III_D.chk"
 IOpt=  2 FromEx=T IUOpen= 4 IOptOp= 5 NList=   0 IFRang= 0 IUIn= 4 IUOut= 2.
 ----------------------------------------------------------------------
 # PBE1PBE/def2TZVP empiricaldispersion=GD3BJ scf=maxcycle=999 geom=che
 ck pop=nbo guess=read
 ----------------------------------------------------------------------
 1/29=2,38=1,172=1/1;
 2/12=2,40=1/2;
 3/5=44,7=101,11=2,14=-4,25=1,30=1,74=-13,116=-2,124=41/1,2,3;
 4/5=1/1;
 5/5=2,7=999,38=6/2;
 6/7=2,8=2,9=2,10=2,28=1,40=1/1,7;
 99/5=1,9=1/99;
 ----------
 2oyy_III_D
 ----------
 Structure from the checkpoint file:  "2oyy_III_D.chk"
 Charge =  1 Multiplicity = 2
 Z-Matrix found in chk file.
 C,0,-9.798,9.567,15.464
 C,0,-10.572,10.224,14.346
 C,0,-11.964,10.299,14.396
 C,0,-9.92,10.785,13.233
 C,0,-12.695,10.906,13.365
 C,0,-10.646,11.407,12.204
 C,0,-12.03,11.46,12.279
 O,0,-12.773,12.062,11.295
 C,0,-15.456,14.809,9.857
 C,0,-12.225,12.768,6.963
 C,0,-12.602,8.644,9.439
 C,0,-16.236,10.516,12.035
 C,0,-14.536,14.635,8.864
 C,0,-14.104,15.652,7.922
 C,0,-13.201,15.086,7.114
 C,0,-13.05,13.7,7.529
 C,0,-12.439,15.754,5.946
 C,0,-14.611,17.115999,7.899
 C,0,-13.952,17.922001,9.031
 C,0,-14.447,19.354,9.039
 O,0,-14.57,19.983,7.957
 O,0,-14.731,19.879999,10.138
 C,0,-12.06,11.467,7.375
 C,0,-11.216,10.499,6.719
 C,0,-11.311,9.349,7.403
 C,0,-12.227,9.568,8.502
 C,0,-10.372,10.787,5.453
 C,0,-10.582,8.021,7.09
 C,0,-11.28375547,7.32876603,6.15999009
 C,0,-13.605,8.807,10.369
 C,0,-14.005,7.821,11.341
 C,0,-15.013,8.328,12.061
 C,0,-15.281,9.658,11.559
 C,0,-13.342,6.435,11.479
 C,0,-15.758,7.67,13.235
 C,0,-15.93524936,6.35172888,12.97555643
 C,0,-16.363001,11.84,11.68
 C,0,-17.370001,12.733,12.204
 C,0,-17.124001,14.046,11.519
 C,0,-15.992,13.838,10.657
 C,0,-18.482,12.454,13.226
 C,0,-17.924,15.343,11.748
 C,0,-17.15,16.049999,12.86
 C,0,-17.771999,17.357,13.25
 O,0,-18.888,17.295,13.836
 O,0,-17.142,18.426001,12.985
 N,0,-13.868,13.46,8.599
 N,0,-12.663,10.866,8.462
 N,0,-14.405,9.927,10.528
 N,0,-15.562,12.528,10.769
 Fe,0,-13.949,11.765,9.678
 H,0,-8.86501856,10.07356498,15.5975573
 H,0,-10.36538307,9.61984555,16.36964
 H,0,-9.61520081,8.54208922,15.21693251
 H,0,-8.85298002,10.73709658,13.16917502
 H,0,-10.13495082,11.83698145,11.36803069
 H,0,-13.76322137,10.94231674,13.41484172
 H,0,-12.48289756,9.8861245,15.23574945
 H,0,-15.79322632,15.81006832,10.02741312
 H,0,-11.65145596,13.08225846,6.11612996
 H,0,-12.07063392,7.71533258,9.45026587
 H,0,-16.94037542,10.12596611,12.73971898
 H,0,-18.13761199,12.70922065,14.20638733
 H,0,-19.34285814,13.04239052,12.98595863
 H,0,-18.74023506,11.41601569,13.19765891
 H,0,-11.50303124,15.25648972,5.79989734
 H,0,-13.02344933,15.68396244,5.05246
 H,0,-12.26324028,16.78378207,6.17742474
 H,0,-14.36545405,17.56129311,6.95755412
 H,0,-15.6730101,17.12530687,8.02918418
 H,0,-12.89094771,17.91813641,8.89296699
 H,0,-14.18567563,17.46457203,9.969645
 H,0,-14.03028509,20.16329122,10.72989875
 H,0,-16.18200771,18.42973429,12.98407454
 H,0,-16.14978671,16.22941527,12.52491319
 H,0,-17.11836401,15.41228011,13.71861155
 H,0,-17.93605347,15.93957399,10.85982536
 H,0,-18.92061415,15.11920119,12.06670729
 H,0,-15.18330663,7.78315809,14.13044557
 H,0,-16.71095896,8.13998775,13.36101877
 H,0,-15.37548305,5.77137634,13.67894295
 H,0,-16.97387691,6.10834964,13.05873918
 H,0,-15.59633561,6.13461792,11.98414315
 H,0,-12.39986347,6.53815839,11.97562571
 H,0,-13.97754988,5.79087255,12.0500308
 H,0,-13.18870667,6.014591,10.50706511
 H,0,-9.44512069,10.25587358,5.51382325
 H,0,-10.91009645,10.46711792,4.58522833
 H,0,-10.17760857,11.83700636,5.38518697
 H,0,-9.60269785,8.2317608,6.71390535
 H,0,-10.50298644,7.43822603,7.98388554
 H,0,-10.94092925,6.31546187,6.13580617
 H,0,-12.32372573,7.34754984,6.41100607
 H,0,-11.14068341,7.77673212,5.19886742
 H,0,-12.18536314,12.4581693,10.64744088
 Recover connectivity data from disk.
 Stoichiometry    C41H44FeN4O5(1+,2)
 Framework group  C1[X(C41H44FeN4O5)]
 Deg. of freedom   279
 Full point group                 C1      NOp   1
 Largest Abelian subgroup         C1      NOp   1
 Largest concise Abelian subgroup C1      NOp   1
                         Standard orientation:                         
 ---------------------------------------------------------------------
 Center     Atomic      Atomic             Coordinates (Angstroms)
 Number     Number       Type             X           Y           Z
 ---------------------------------------------------------------------
      1          6           0        4.234322   -2.734672    5.092978
      2          6           0        3.324331   -2.054154    4.098262
      3          6           0        2.750907   -2.776823    3.051971
      4          6           0        3.020503   -0.684443    4.199126
      5          6           0        1.904437   -2.157646    2.121445
      6          6           0        2.161896   -0.061775    3.278321
      7          6           0        1.612260   -0.805613    2.244641
      8          8           0        0.766830   -0.233178    1.327976
      9          6           0       -2.787468    0.142838   -0.681481
     10          6           0        0.240388    3.840925   -0.311996
     11          6           0        3.985430    0.812123   -0.596773
     12          6           0        0.964460   -2.864424   -1.494712
     13          6           0       -2.307372    1.412287   -0.537497
     14          6           0       -3.113220    2.609248   -0.375730
     15          6           0       -2.271101    3.642892   -0.270642
     16          6           0       -0.918308    3.117160   -0.368513
     17          6           0       -2.635645    5.133296   -0.078560
     18          6           0       -4.661612    2.639101   -0.326109
     19          6           0       -5.156496    2.152237    1.046261
     20          6           0       -6.670238    2.156028    1.111670
     21          8           0       -7.317730    3.125424    0.639950
     22          8           0       -7.246322    1.176881    1.635627
     23          6           0        1.518992    3.339986   -0.373655
     24          6           0        2.716728    4.143085   -0.361170
     25          6           0        3.764623    3.309002   -0.436018
     26          6           0        3.245678    1.959728   -0.506547
     27          6           0        2.734511    5.689203   -0.276090
     28          6           0        5.261501    3.699198   -0.445872
     29          6           0        5.637995    4.013877   -1.709121
     30          6           0        3.484540   -0.447234   -0.842958
     31          6           0        4.273556   -1.648122   -0.953870
     32          6           0        3.447019   -2.670059   -1.206842
     33          6           0        2.102681   -2.138909   -1.264834
     34          6           0        5.807554   -1.683751   -0.795153
     35          6           0        3.808496   -4.155282   -1.379208
     36          6           0        4.968815   -4.260413   -2.071433
     37          6           0       -0.320930   -2.388759   -1.365694
     38          6           0       -1.509866   -3.174613   -1.600087
     39          6           0       -2.654977   -2.235143   -1.355494
     40          6           0       -2.064363   -0.977253   -0.985869
     41          6           0       -1.636904   -4.645731   -2.022627
     42          6           0       -4.149987   -2.595048   -1.455807
     43          6           0       -4.511252   -3.025423   -0.034634
     44          6           0       -5.948604   -3.431373    0.093659
     45          8           0       -6.286068   -4.495709   -0.494563
     46          8           0       -6.720707   -2.700584    0.786256
     47          7           0       -0.974437    1.758859   -0.521787
     48          7           0        1.877447    2.009560   -0.462292
     49          7           0        2.153400   -0.779570   -1.036091
     50          7           0       -0.686008   -1.093298   -1.000501
     51         26           0        0.592548    0.498823   -0.548103
     52          1           0        4.102307   -2.291966    6.058111
     53          1           0        3.993530   -3.776059    5.142305
     54          1           0        5.251878   -2.618156    4.783297
     55          1           0        3.450725   -0.107142    4.990664
     56          1           0        1.933392    0.979190    3.373598
     57          1           0        1.484361   -2.725768    1.317906
     58          1           0        2.960685   -3.821832    2.957903
     59          1           0       -3.839938    0.010090   -0.541535
     60          1           0        0.142202    4.901491   -0.209718
     61          1           0        5.043572    0.900544   -0.464796
     62          1           0        1.083666   -3.883242   -1.799179
     63          1           0       -1.734818   -5.259753   -1.151829
     64          1           0       -2.500839   -4.765461   -2.642451
     65          1           0       -0.763560   -4.936874   -2.567976
     66          1           0       -1.835168    5.634292    0.424570
     67          1           0       -2.795938    5.587289   -1.034121
     68          1           0       -3.528083    5.209618    0.506786
     69          1           0       -5.002208    3.639956   -0.490983
     70          1           0       -5.053024    2.001080   -1.090718
     71          1           0       -4.770625    2.797415    1.807674
     72          1           0       -4.800334    1.157493    1.215179
     73          1           0       -7.247316    1.074981    2.590203
     74          1           0       -6.376409   -2.220694    1.543068
     75          1           0       -4.321278   -2.210508    0.632242
     76          1           0       -3.892191   -3.852454    0.244085
     77          1           0       -4.724066   -1.740577   -1.747716
     78          1           0       -4.297548   -3.402251   -2.142501
     79          1           0        3.925098   -4.608006   -0.416740
     80          1           0        3.027203   -4.652657   -1.915025
     81          1           0        5.723346   -4.682278   -1.440868
     82          1           0        4.820636   -4.892314   -2.922106
     83          1           0        5.278593   -3.289653   -2.397873
     84          1           0        6.060424   -1.616892    0.242385
     85          1           0        6.186426   -2.600532   -1.196240
     86          1           0        6.239847   -0.858545   -1.321515
     87          1           0        3.566225    6.004127    0.318869
     88          1           0        2.824250    6.099555   -1.260193
     89          1           0        1.825346    6.032241    0.171843
     90          1           0        5.414053    4.544104    0.192691
     91          1           0        5.847067    2.875733   -0.093852
     92          1           0        6.706159    4.023195   -1.771076
     93          1           0        5.247607    3.286060   -2.389400
     94          1           0        5.257480    4.980831   -1.964285
     95          1           0        0.600498    0.680083    1.572698
 ---------------------------------------------------------------------
 Rotational constants (GHZ):           0.0676043           0.0418842           0.0319553
 Standard basis: def2TZVP (5D, 7F)
 There are  2116 symmetry adapted cartesian basis functions of A   symmetry.
 There are  1859 symmetry adapted basis functions of A   symmetry.
  1859 basis functions,  3004 primitive gaussians,  2116 cartesian basis functions
   192 alpha electrons      191 beta electrons
       nuclear repulsion energy      7663.5799396905 Hartrees.
 NAtoms=   95 NActive=   95 NUniq=   95 SFac= 1.00D+00 NAtFMM=   60 NAOKFM=T Big=T
 Integral buffers will be    131072 words long.
 Raffenetti 2 integral format.
 Two-electron integral symmetry is turned on.
 Nuclear repulsion after empirical dispersion term =     7663.4469367962 Hartrees.
 One-electron integrals computed using PRISM.
   1 Symmetry operations used in ECPInt.
 ECPInt:  NShTT=  274911 NPrTT=  846941 LenC2=  194808 LenP2D=  387948.
 LDataN:  DoStor=T MaxTD1= 6 Len=  172
 NBasis=  1859 RedAO= T EigKep=  2.93D-06  NBF=  1859
 NBsUse=  1859 1.00D-06 EigRej= -1.00D+00 NBFU=  1859
 Initial guess from the checkpoint file:  "2oyy_III_D.chk"
 B after Tr=    -0.000000   -0.000000   -0.000000
         Rot=    1.000000    0.000000   -0.000000    0.000000 Ang=   0.00 deg.
 Initial guess <Sx>= 0.0000 <Sy>= 0.0000 <Sz>= 0.5000 <S**2>= 1.6413 S= 0.8753
 Requested convergence on RMS density matrix=1.00D-08 within 999 cycles.
 Requested convergence on MAX density matrix=1.00D-06.
 Requested convergence on             energy=1.00D-06.
 No special actions if energy rises.
 SCF Done:  E(UPBE1PBE) =  -3445.65440201     A.U. after    1 cycles
            NFock=  1  Conv=0.29D-09     -V/T= 2.0031
 <Sx>= 0.0000 <Sy>= 0.0000 <Sz>= 0.5000 <S**2>= 1.6413 S= 0.8753
 <L.S>= 0.000000000000E+00
 Annihilation of the first spin contaminant:
 S**2 before annihilation     1.6413,   after     0.9515

 **********************************************************************

            Population analysis using the SCF density.

 **********************************************************************

 Orbital symmetries:
 Alpha Orbitals:
       Occupied  (A) (A) (A) (A) (A) (A) (A) (A) (A) (A) (A) (A)
                 (A) (A) (A) (A) (A) (A) (A) (A) (A) (A) (A) (A)
                 (A) (A) (A) (A) (A) (A) (A) (A) (A) (A) (A) (A)
                 (A) (A) (A) (A) (A) (A) (A) (A) (A) (A) (A) (A)
                 (A) (A) (A) (A) (A) (A) (A) (A) (A) (A) (A) (A)
                 (A) (A) (A) (A) (A) (A) (A) (A) (A) (A) (A) (A)
                 (A) (A) (A) (A) (A) (A) (A) (A) (A) (A) (A) (A)
                 (A) (A) (A) (A) (A) (A) (A) (A) (A) (A) (A) (A)
                 (A) (A) (A) (A) (A) (A) (A) (A) (A) (A) (A) (A)
                 (A) (A) (A) (A) (A) (A) (A) (A) (A) (A) (A) (A)
                 (A) (A) (A) (A) (A) (A) (A) (A) (A) (A) (A) (A)
                 (A) (A) (A) (A) (A) (A) (A) (A) (A) (A) (A) (A)
                 (A) (A) (A) (A) (A) (A) (A) (A) (A) (A) (A) (A)
                 (A) (A) (A) (A) (A) (A) (A) (A) (A) (A) (A) (A)
                 (A) (A) (A) (A) (A) (A) (A) (A) (A) (A) (A) (A)
                 (A) (A) (A) (A) (A) (A) (A) (A) (A) (A) (A) (A)
       Virtual   (A) (A) (A) (A) (A) (A) (A) (A) (A) (A) (A) (A)
                 (A) (A) (A) (A) (A) (A) (A) (A) (A) (A) (A) (A)
                 (A) (A) (A) (A) (A) (A) (A) (A) (A) (A) (A) (A)
                 (A) (A) (A) (A) (A) (A) (A) (A) (A) (A) (A) (A)
                 (A) (A) (A) (A) (A) (A) (A) (A) (A) (A) (A) (A)
                 (A) (A) (A) (A) (A) (A) (A) (A) (A) (A) (A) (A)
                 (A) (A) (A) (A) (A) (A) (A) (A) (A) (A) (A) (A)
                 (A) (A) (A) (A) (A) (A) (A) (A) (A) (A) (A) (A)
                 (A) (A) (A) (A) (A) (A) (A) (A) (A) (A) (A) (A)
                 (A) (A) (A) (A) (A) (A) (A) (A) (A) (A) (A) (A)
                 (A) (A) (A) (A) (A) (A) (A) (A) (A) (A) (A) (A)
                 (A) (A) (A) (A) (A) (A) (A) (A) (A) (A) (A) (A)
                 (A) (A) (A) (A) (A) (A) (A) (A) (A) (A) (A) (A)
                 (A) (A) (A) (A) (A) (A) (A) (A) (A) (A) (A) (A)
                 (A) (A) (A) (A) (A) (A) (A) (A) (A) (A) (A) (A)
                 (A) (A) (A) (A) (A) (A) (A) (A) (A) (A) (A) (A)
                 (A) (A) (A) (A) (A) (A) (A) (A) (A) (A) (A) (A)
                 (A) (A) (A) (A) (A) (A) (A) (A) (A) (A) (A) (A)
                 (A) (A) (A) (A) (A) (A) (A) (A) (A) (A) (A) (A)
                 (A) (A) (A) (A) (A) (A) (A) (A) (A) (A) (A) (A)
                 (A) (A) (A) (A) (A) (A) (A) (A) (A) (A) (A) (A)
                 (A) (A) (A) (A) (A) (A) (A) (A) (A) (A) (A) (A)
                 (A) (A) (A) (A) (A) (A) (A) (A) (A) (A) (A) (A)
                 (A) (A) (A) (A) (A) (A) (A) (A) (A) (A) (A) (A)
                 (A) (A) (A) (A) (A) (A) (A) (A) (A) (A) (A) (A)
                 (A) (A) (A) (A) (A) (A) (A) (A) (A) (A) (A) (A)
                 (A) (A) (A) (A) (A) (A) (A) (A) (A) (A) (A) (A)
                 (A) (A) (A) (A) (A) (A) (A) (A) (A) (A) (A) (A)
                 (A) (A) (A) (A) (A) (A) (A) (A) (A) (A) (A) (A)
                 (A) (A) (A) (A) (A) (A) (A) (A) (A) (A) (A) (A)
                 (A) (A) (A) (A) (A) (A) (A) (A) (A) (A) (A) (A)
                 (A) (A) (A) (A) (A) (A) (A) (A) (A) (A) (A) (A)
                 (A) (A) (A) (A) (A) (A) (A) (A) (A) (A) (A) (A)
                 (A) (A) (A) (A) (A) (A) (A) (A) (A) (A) (A) (A)
                 (A) (A) (A) (A) (A) (A) (A) (A) (A) (A) (A) (A)
                 (A) (A) (A) (A) (A) (A) (A) (A) (A) (A) (A) (A)
                 (A) (A) (A) (A) (A) (A) (A) (A) (A) (A) (A) (A)
                 (A) (A) (A) (A) (A) (A) (A) (A) (A) (A) (A) (A)
                 (A) (A) (A) (A) (A) (A) (A) (A) (A) (A) (A) (A)
                 (A) (A) (A) (A) (A) (A) (A) (A) (A) (A) (A) (A)
                 (A) (A) (A) (A) (A) (A) (A) (A) (A) (A) (A) (A)
                 (A) (A) (A) (A) (A) (A) (A) (A) (A) (A) (A) (A)
                 (A) (A) (A) (A) (A) (A) (A) (A) (A) (A) (A) (A)
                 (A) (A) (A) (A) (A) (A) (A) (A) (A) (A) (A) (A)
                 (A) (A) (A) (A) (A) (A) (A) (A) (A) (A) (A) (A)
                 (A) (A) (A) (A) (A) (A) (A) (A) (A) (A) (A) (A)
                 (A) (A) (A) (A) (A) (A) (A) (A) (A) (A) (A) (A)
                 (A) (A) (A) (A) (A) (A) (A) (A) (A) (A) (A) (A)
                 (A) (A) (A) (A) (A) (A) (A) (A) (A) (A) (A) (A)
                 (A) (A) (A) (A) (A) (A) (A) (A) (A) (A) (A) (A)
                 (A) (A) (A) (A) (A) (A) (A) (A) (A) (A) (A) (A)
                 (A) (A) (A) (A) (A) (A) (A) (A) (A) (A) (A) (A)
                 (A) (A) (A) (A) (A) (A) (A) (A) (A) (A) (A) (A)
                 (A) (A) (A) (A) (A) (A) (A) (A) (A) (A) (A) (A)
                 (A) (A) (A) (A) (A) (A) (A) (A) (A) (A) (A) (A)
                 (A) (A) (A) (A) (A) (A) (A) (A) (A) (A) (A) (A)
                 (A) (A) (A) (A) (A) (A) (A) (A) (A) (A) (A) (A)
                 (A) (A) (A) (A) (A) (A) (A) (A) (A) (A) (A) (A)
                 (A) (A) (A) (A) (A) (A) (A) (A) (A) (A) (A) (A)
                 (A) (A) (A) (A) (A) (A) (A) (A) (A) (A) (A) (A)
                 (A) (A) (A) (A) (A) (A) (A) (A) (A) (A) (A) (A)
                 (A) (A) (A) (A) (A) (A) (A) (A) (A) (A) (A) (A)
                 (A) (A) (A) (A) (A) (A) (A) (A) (A) (A) (A) (A)
                 (A) (A) (A) (A) (A) (A) (A) (A) (A) (A) (A) (A)
                 (A) (A) (A) (A) (A) (A) (A) (A) (A) (A) (A) (A)
                 (A) (A) (A) (A) (A) (A) (A) (A) (A) (A) (A) (A)
                 (A) (A) (A) (A) (A) (A) (A) (A) (A) (A) (A) (A)
                 (A) (A) (A) (A) (A) (A) (A) (A) (A) (A) (A) (A)
                 (A) (A) (A) (A) (A) (A) (A) (A) (A) (A) (A) (A)
                 (A) (A) (A) (A) (A) (A) (A) (A) (A) (A) (A) (A)
                 (A) (A) (A) (A) (A) (A) (A) (A) (A) (A) (A) (A)
                 (A) (A) (A) (A) (A) (A) (A) (A) (A) (A) (A) (A)
                 (A) (A) (A) (A) (A) (A) (A) (A) (A) (A) (A) (A)
                 (A) (A) (A) (A) (A) (A) (A) (A) (A) (A) (A) (A)
                 (A) (A) (A) (A) (A) (A) (A) (A) (A) (A) (A) (A)
                 (A) (A) (A) (A) (A) (A) (A) (A) (A) (A) (A) (A)
                 (A) (A) (A) (A) (A) (A) (A) (A) (A) (A) (A) (A)
                 (A) (A) (A) (A) (A) (A) (A) (A) (A) (A) (A) (A)
                 (A) (A) (A) (A) (A) (A) (A) (A) (A) (A) (A) (A)
                 (A) (A) (A) (A) (A) (A) (A) (A) (A) (A) (A) (A)
                 (A) (A) (A) (A) (A) (A) (A) (A) (A) (A) (A) (A)
                 (A) (A) (A) (A) (A) (A) (A) (A) (A) (A) (A) (A)
                 (A) (A) (A) (A) (A) (A) (A) (A) (A) (A) (A) (A)
                 (A) (A) (A) (A) (A) (A) (A) (A) (A) (A) (A) (A)
                 (A) (A) (A) (A) (A) (A) (A) (A) (A) (A) (A) (A)
                 (A) (A) (A) (A) (A) (A) (A) (A) (A) (A) (A) (A)
                 (A) (A) (A) (A) (A) (A) (A) (A) (A) (A) (A) (A)
                 (A) (A) (A) (A) (A) (A) (A) (A) (A) (A) (A) (A)
                 (A) (A) (A) (A) (A) (A) (A) (A) (A) (A) (A) (A)
                 (A) (A) (A) (A) (A) (A) (A) (A) (A) (A) (A) (A)
                 (A) (A) (A) (A) (A) (A) (A) (A) (A) (A) (A) (A)
                 (A) (A) (A) (A) (A) (A) (A) (A) (A) (A) (A) (A)
                 (A) (A) (A) (A) (A) (A) (A) (A) (A) (A) (A) (A)
                 (A) (A) (A) (A) (A) (A) (A) (A) (A) (A) (A) (A)
                 (A) (A) (A) (A) (A) (A) (A) (A) (A) (A) (A) (A)
                 (A) (A) (A) (A) (A) (A) (A) (A) (A) (A) (A) (A)
                 (A) (A) (A) (A) (A) (A) (A) (A) (A) (A) (A) (A)
                 (A) (A) (A) (A) (A) (A) (A) (A) (A) (A) (A) (A)
                 (A) (A) (A) (A) (A) (A) (A) (A) (A) (A) (A) (A)
                 (A) (A) (A) (A) (A) (A) (A) (A) (A) (A) (A) (A)
                 (A) (A) (A) (A) (A) (A) (A) (A) (A) (A) (A) (A)
                 (A) (A) (A) (A) (A) (A) (A) (A) (A) (A) (A) (A)
                 (A) (A) (A) (A) (A) (A) (A) (A) (A) (A) (A) (A)
                 (A) (A) (A) (A) (A) (A) (A) (A) (A) (A) (A) (A)
                 (A) (A) (A) (A) (A) (A) (A) (A) (A) (A) (A) (A)
                 (A) (A) (A) (A) (A) (A) (A) (A) (A) (A) (A) (A)
                 (A) (A) (A) (A) (A) (A) (A) (A) (A) (A) (A) (A)
                 (A) (A) (A) (A) (A) (A) (A) (A) (A) (A) (A) (A)
                 (A) (A) (A) (A) (A) (A) (A) (A) (A) (A) (A) (A)
                 (A) (A) (A) (A) (A) (A) (A) (A) (A) (A) (A) (A)
                 (A) (A) (A) (A) (A) (A) (A) (A) (A) (A) (A) (A)
                 (A) (A) (A) (A) (A) (A) (A) (A) (A) (A) (A) (A)
                 (A) (A) (A) (A) (A) (A) (A) (A) (A) (A) (A) (A)
                 (A) (A) (A) (A) (A) (A) (A) (A) (A) (A) (A) (A)
                 (A) (A) (A) (A) (A) (A) (A) (A) (A) (A) (A) (A)
                 (A) (A) (A) (A) (A) (A) (A) (A) (A) (A) (A) (A)
                 (A) (A) (A) (A) (A) (A) (A) (A) (A) (A) (A) (A)
                 (A) (A) (A) (A) (A) (A) (A) (A) (A) (A) (A) (A)
                 (A) (A) (A) (A) (A) (A) (A) (A) (A) (A) (A) (A)
                 (A) (A) (A) (A) (A) (A) (A) (A) (A) (A) (A) (A)
                 (A) (A) (A) (A) (A) (A) (A) (A) (A) (A) (A) (A)
                 (A) (A) (A) (A) (A) (A) (A) (A) (A) (A) (A) (A)
                 (A) (A) (A) (A) (A) (A) (A) (A) (A) (A) (A) (A)
                 (A) (A) (A) (A) (A) (A) (A) (A) (A) (A) (A) (A)
                 (A) (A) (A) (A) (A) (A) (A) (A) (A) (A) (A) (A)
                 (A) (A) (A) (A) (A) (A) (A) (A) (A) (A) (A) (A)
                 (A) (A) (A) (A) (A) (A) (A) (A) (A) (A) (A) (A)
                 (A) (A) (A) (A) (A) (A) (A) (A) (A) (A) (A) (A)
                 (A) (A) (A) (A) (A) (A) (A) (A) (A) (A) (A) (A)
                 (A) (A) (A) (A) (A) (A) (A) (A) (A) (A) (A) (A)
                 (A) (A) (A) (A) (A) (A) (A) (A) (A) (A) (A) (A)
                 (A) (A) (A) (A) (A) (A) (A) (A) (A) (A) (A) (A)
                 (A) (A) (A) (A) (A) (A) (A) (A) (A) (A) (A) (A)
                 (A) (A) (A) (A) (A) (A) (A) (A) (A) (A) (A) (A)
                 (A) (A) (A) (A) (A) (A) (A) (A) (A) (A) (A) (A)
                 (A) (A) (A) (A) (A) (A) (A) (A) (A) (A) (A) (A)
                 (A) (A) (A) (A) (A) (A) (A) (A) (A) (A) (A) (A)
                 (A) (A) (A) (A) (A) (A) (A) (A) (A) (A) (A) (A)
                 (A) (A) (A) (A) (A) (A) (A) (A) (A) (A) (A)
 Beta  Orbitals:
       Occupied  (A) (A) (A) (A) (A) (A) (A) (A) (A) (A) (A) (A)
                 (A) (A) (A) (A) (A) (A) (A) (A) (A) (A) (A) (A)
                 (A) (A) (A) (A) (A) (A) (A) (A) (A) (A) (A) (A)
                 (A) (A) (A) (A) (A) (A) (A) (A) (A) (A) (A) (A)
                 (A) (A) (A) (A) (A) (A) (A) (A) (A) (A) (A) (A)
                 (A) (A) (A) (A) (A) (A) (A) (A) (A) (A) (A) (A)
                 (A) (A) (A) (A) (A) (A) (A) (A) (A) (A) (A) (A)
                 (A) (A) (A) (A) (A) (A) (A) (A) (A) (A) (A) (A)
                 (A) (A) (A) (A) (A) (A) (A) (A) (A) (A) (A) (A)
                 (A) (A) (A) (A) (A) (A) (A) (A) (A) (A) (A) (A)
                 (A) (A) (A) (A) (A) (A) (A) (A) (A) (A) (A) (A)
                 (A) (A) (A) (A) (A) (A) (A) (A) (A) (A) (A) (A)
                 (A) (A) (A) (A) (A) (A) (A) (A) (A) (A) (A) (A)
                 (A) (A) (A) (A) (A) (A) (A) (A) (A) (A) (A) (A)
                 (A) (A) (A) (A) (A) (A) (A) (A) (A) (A) (A) (A)
                 (A) (A) (A) (A) (A) (A) (A) (A) (A) (A) (A)
       Virtual   (A) (A) (A) (A) (A) (A) (A) (A) (A) (A) (A) (A)
                 (A) (A) (A) (A) (A) (A) (A) (A) (A) (A) (A) (A)
                 (A) (A) (A) (A) (A) (A) (A) (A) (A) (A) (A) (A)
                 (A) (A) (A) (A) (A) (A) (A) (A) (A) (A) (A) (A)
                 (A) (A) (A) (A) (A) (A) (A) (A) (A) (A) (A) (A)
                 (A) (A) (A) (A) (A) (A) (A) (A) (A) (A) (A) (A)
                 (A) (A) (A) (A) (A) (A) (A) (A) (A) (A) (A) (A)
                 (A) (A) (A) (A) (A) (A) (A) (A) (A) (A) (A) (A)
                 (A) (A) (A) (A) (A) (A) (A) (A) (A) (A) (A) (A)
                 (A) (A) (A) (A) (A) (A) (A) (A) (A) (A) (A) (A)
                 (A) (A) (A) (A) (A) (A) (A) (A) (A) (A) (A) (A)
                 (A) (A) (A) (A) (A) (A) (A) (A) (A) (A) (A) (A)
                 (A) (A) (A) (A) (A) (A) (A) (A) (A) (A) (A) (A)
                 (A) (A) (A) (A) (A) (A) (A) (A) (A) (A) (A) (A)
                 (A) (A) (A) (A) (A) (A) (A) (A) (A) (A) (A) (A)
                 (A) (A) (A) (A) (A) (A) (A) (A) (A) (A) (A) (A)
                 (A) (A) (A) (A) (A) (A) (A) (A) (A) (A) (A) (A)
                 (A) (A) (A) (A) (A) (A) (A) (A) (A) (A) (A) (A)
                 (A) (A) (A) (A) (A) (A) (A) (A) (A) (A) (A) (A)
                 (A) (A) (A) (A) (A) (A) (A) (A) (A) (A) (A) (A)
                 (A) (A) (A) (A) (A) (A) (A) (A) (A) (A) (A) (A)
                 (A) (A) (A) (A) (A) (A) (A) (A) (A) (A) (A) (A)
                 (A) (A) (A) (A) (A) (A) (A) (A) (A) (A) (A) (A)
                 (A) (A) (A) (A) (A) (A) (A) (A) (A) (A) (A) (A)
                 (A) (A) (A) (A) (A) (A) (A) (A) (A) (A) (A) (A)
                 (A) (A) (A) (A) (A) (A) (A) (A) (A) (A) (A) (A)
                 (A) (A) (A) (A) (A) (A) (A) (A) (A) (A) (A) (A)
                 (A) (A) (A) (A) (A) (A) (A) (A) (A) (A) (A) (A)
                 (A) (A) (A) (A) (A) (A) (A) (A) (A) (A) (A) (A)
                 (A) (A) (A) (A) (A) (A) (A) (A) (A) (A) (A) (A)
                 (A) (A) (A) (A) (A) (A) (A) (A) (A) (A) (A) (A)
                 (A) (A) (A) (A) (A) (A) (A) (A) (A) (A) (A) (A)
                 (A) (A) (A) (A) (A) (A) (A) (A) (A) (A) (A) (A)
                 (A) (A) (A) (A) (A) (A) (A) (A) (A) (A) (A) (A)
                 (A) (A) (A) (A) (A) (A) (A) (A) (A) (A) (A) (A)
                 (A) (A) (A) (A) (A) (A) (A) (A) (A) (A) (A) (A)
                 (A) (A) (A) (A) (A) (A) (A) (A) (A) (A) (A) (A)
                 (A) (A) (A) (A) (A) (A) (A) (A) (A) (A) (A) (A)
                 (A) (A) (A) (A) (A) (A) (A) (A) (A) (A) (A) (A)
                 (A) (A) (A) (A) (A) (A) (A) (A) (A) (A) (A) (A)
                 (A) (A) (A) (A) (A) (A) (A) (A) (A) (A) (A) (A)
                 (A) (A) (A) (A) (A) (A) (A) (A) (A) (A) (A) (A)
                 (A) (A) (A) (A) (A) (A) (A) (A) (A) (A) (A) (A)
                 (A) (A) (A) (A) (A) (A) (A) (A) (A) (A) (A) (A)
                 (A) (A) (A) (A) (A) (A) (A) (A) (A) (A) (A) (A)
                 (A) (A) (A) (A) (A) (A) (A) (A) (A) (A) (A) (A)
                 (A) (A) (A) (A) (A) (A) (A) (A) (A) (A) (A) (A)
                 (A) (A) (A) (A) (A) (A) (A) (A) (A) (A) (A) (A)
                 (A) (A) (A) (A) (A) (A) (A) (A) (A) (A) (A) (A)
                 (A) (A) (A) (A) (A) (A) (A) (A) (A) (A) (A) (A)
                 (A) (A) (A) (A) (A) (A) (A) (A) (A) (A) (A) (A)
                 (A) (A) (A) (A) (A) (A) (A) (A) (A) (A) (A) (A)
                 (A) (A) (A) (A) (A) (A) (A) (A) (A) (A) (A) (A)
                 (A) (A) (A) (A) (A) (A) (A) (A) (A) (A) (A) (A)
                 (A) (A) (A) (A) (A) (A) (A) (A) (A) (A) (A) (A)
                 (A) (A) (A) (A) (A) (A) (A) (A) (A) (A) (A) (A)
                 (A) (A) (A) (A) (A) (A) (A) (A) (A) (A) (A) (A)
                 (A) (A) (A) (A) (A) (A) (A) (A) (A) (A) (A) (A)
                 (A) (A) (A) (A) (A) (A) (A) (A) (A) (A) (A) (A)
                 (A) (A) (A) (A) (A) (A) (A) (A) (A) (A) (A) (A)
                 (A) (A) (A) (A) (A) (A) (A) (A) (A) (A) (A) (A)
                 (A) (A) (A) (A) (A) (A) (A) (A) (A) (A) (A) (A)
                 (A) (A) (A) (A) (A) (A) (A) (A) (A) (A) (A) (A)
                 (A) (A) (A) (A) (A) (A) (A) (A) (A) (A) (A) (A)
                 (A) (A) (A) (A) (A) (A) (A) (A) (A) (A) (A) (A)
                 (A) (A) (A) (A) (A) (A) (A) (A) (A) (A) (A) (A)
                 (A) (A) (A) (A) (A) (A) (A) (A) (A) (A) (A) (A)
                 (A) (A) (A) (A) (A) (A) (A) (A) (A) (A) (A) (A)
                 (A) (A) (A) (A) (A) (A) (A) (A) (A) (A) (A) (A)
                 (A) (A) (A) (A) (A) (A) (A) (A) (A) (A) (A) (A)
                 (A) (A) (A) (A) (A) (A) (A) (A) (A) (A) (A) (A)
                 (A) (A) (A) (A) (A) (A) (A) (A) (A) (A) (A) (A)
                 (A) (A) (A) (A) (A) (A) (A) (A) (A) (A) (A) (A)
                 (A) (A) (A) (A) (A) (A) (A) (A) (A) (A) (A) (A)
                 (A) (A) (A) (A) (A) (A) (A) (A) (A) (A) (A) (A)
                 (A) (A) (A) (A) (A) (A) (A) (A) (A) (A) (A) (A)
                 (A) (A) (A) (A) (A) (A) (A) (A) (A) (A) (A) (A)
                 (A) (A) (A) (A) (A) (A) (A) (A) (A) (A) (A) (A)
                 (A) (A) (A) (A) (A) (A) (A) (A) (A) (A) (A) (A)
                 (A) (A) (A) (A) (A) (A) (A) (A) (A) (A) (A) (A)
                 (A) (A) (A) (A) (A) (A) (A) (A) (A) (A) (A) (A)
                 (A) (A) (A) (A) (A) (A) (A) (A) (A) (A) (A) (A)
                 (A) (A) (A) (A) (A) (A) (A) (A) (A) (A) (A) (A)
                 (A) (A) (A) (A) (A) (A) (A) (A) (A) (A) (A) (A)
                 (A) (A) (A) (A) (A) (A) (A) (A) (A) (A) (A) (A)
                 (A) (A) (A) (A) (A) (A) (A) (A) (A) (A) (A) (A)
                 (A) (A) (A) (A) (A) (A) (A) (A) (A) (A) (A) (A)
                 (A) (A) (A) (A) (A) (A) (A) (A) (A) (A) (A) (A)
                 (A) (A) (A) (A) (A) (A) (A) (A) (A) (A) (A) (A)
                 (A) (A) (A) (A) (A) (A) (A) (A) (A) (A) (A) (A)
                 (A) (A) (A) (A) (A) (A) (A) (A) (A) (A) (A) (A)
                 (A) (A) (A) (A) (A) (A) (A) (A) (A) (A) (A) (A)
                 (A) (A) (A) (A) (A) (A) (A) (A) (A) (A) (A) (A)
                 (A) (A) (A) (A) (A) (A) (A) (A) (A) (A) (A) (A)
                 (A) (A) (A) (A) (A) (A) (A) (A) (A) (A) (A) (A)
                 (A) (A) (A) (A) (A) (A) (A) (A) (A) (A) (A) (A)
                 (A) (A) (A) (A) (A) (A) (A) (A) (A) (A) (A) (A)
                 (A) (A) (A) (A) (A) (A) (A) (A) (A) (A) (A) (A)
                 (A) (A) (A) (A) (A) (A) (A) (A) (A) (A) (A) (A)
                 (A) (A) (A) (A) (A) (A) (A) (A) (A) (A) (A) (A)
                 (A) (A) (A) (A) (A) (A) (A) (A) (A) (A) (A) (A)
                 (A) (A) (A) (A) (A) (A) (A) (A) (A) (A) (A) (A)
                 (A) (A) (A) (A) (A) (A) (A) (A) (A) (A) (A) (A)
                 (A) (A) (A) (A) (A) (A) (A) (A) (A) (A) (A) (A)
                 (A) (A) (A) (A) (A) (A) (A) (A) (A) (A) (A) (A)
                 (A) (A) (A) (A) (A) (A) (A) (A) (A) (A) (A) (A)
                 (A) (A) (A) (A) (A) (A) (A) (A) (A) (A) (A) (A)
                 (A) (A) (A) (A) (A) (A) (A) (A) (A) (A) (A) (A)
                 (A) (A) (A) (A) (A) (A) (A) (A) (A) (A) (A) (A)
                 (A) (A) (A) (A) (A) (A) (A) (A) (A) (A) (A) (A)
                 (A) (A) (A) (A) (A) (A) (A) (A) (A) (A) (A) (A)
                 (A) (A) (A) (A) (A) (A) (A) (A) (A) (A) (A) (A)
                 (A) (A) (A) (A) (A) (A) (A) (A) (A) (A) (A) (A)
                 (A) (A) (A) (A) (A) (A) (A) (A) (A) (A) (A) (A)
                 (A) (A) (A) (A) (A) (A) (A) (A) (A) (A) (A) (A)
                 (A) (A) (A) (A) (A) (A) (A) (A) (A) (A) (A) (A)
                 (A) (A) (A) (A) (A) (A) (A) (A) (A) (A) (A) (A)
                 (A) (A) (A) (A) (A) (A) (A) (A) (A) (A) (A) (A)
                 (A) (A) (A) (A) (A) (A) (A) (A) (A) (A) (A) (A)
                 (A) (A) (A) (A) (A) (A) (A) (A) (A) (A) (A) (A)
                 (A) (A) (A) (A) (A) (A) (A) (A) (A) (A) (A) (A)
                 (A) (A) (A) (A) (A) (A) (A) (A) (A) (A) (A) (A)
                 (A) (A) (A) (A) (A) (A) (A) (A) (A) (A) (A) (A)
                 (A) (A) (A) (A) (A) (A) (A) (A) (A) (A) (A) (A)
                 (A) (A) (A) (A) (A) (A) (A) (A) (A) (A) (A) (A)
                 (A) (A) (A) (A) (A) (A) (A) (A) (A) (A) (A) (A)
                 (A) (A) (A) (A) (A) (A) (A) (A) (A) (A) (A) (A)
                 (A) (A) (A) (A) (A) (A) (A) (A) (A) (A) (A) (A)
                 (A) (A) (A) (A) (A) (A) (A) (A) (A) (A) (A) (A)
                 (A) (A) (A) (A) (A) (A) (A) (A) (A) (A) (A) (A)
                 (A) (A) (A) (A) (A) (A) (A) (A) (A) (A) (A) (A)
                 (A) (A) (A) (A) (A) (A) (A) (A) (A) (A) (A) (A)
                 (A) (A) (A) (A) (A) (A) (A) (A) (A) (A) (A) (A)
                 (A) (A) (A) (A) (A) (A) (A) (A) (A) (A) (A) (A)
                 (A) (A) (A) (A) (A) (A) (A) (A) (A) (A) (A) (A)
                 (A) (A) (A) (A) (A) (A) (A) (A) (A) (A) (A) (A)
                 (A) (A) (A) (A) (A) (A) (A) (A) (A) (A) (A) (A)
                 (A) (A) (A) (A) (A) (A) (A) (A) (A) (A) (A) (A)
                 (A) (A) (A) (A) (A) (A) (A) (A) (A) (A) (A) (A)
 The electronic state is 2-A.
 Alpha  occ. eigenvalues -- -256.46614 -30.25108 -26.07799 -26.07621 -26.06717
 Alpha  occ. eigenvalues --  -19.37842 -19.34413 -19.33847 -19.26562 -19.25148
 Alpha  occ. eigenvalues --  -14.51445 -14.51246 -14.50630 -14.49886 -10.43826
 Alpha  occ. eigenvalues --  -10.42840 -10.39176 -10.37549 -10.37494 -10.37476
 Alpha  occ. eigenvalues --  -10.37311 -10.37194 -10.37024 -10.36966 -10.36936
 Alpha  occ. eigenvalues --  -10.35480 -10.35392 -10.35382 -10.35380 -10.34927
 Alpha  occ. eigenvalues --  -10.34701 -10.33969 -10.33770 -10.33759 -10.33349
 Alpha  occ. eigenvalues --  -10.33165 -10.32871 -10.32812 -10.32746 -10.32730
 Alpha  occ. eigenvalues --  -10.32719 -10.32704 -10.32301 -10.32277 -10.32010
 Alpha  occ. eigenvalues --  -10.31731 -10.31550 -10.31412 -10.31056 -10.30672
 Alpha  occ. eigenvalues --  -10.30522 -10.30231 -10.29203 -10.27598 -10.27091
 Alpha  occ. eigenvalues --   -3.63467  -2.41063  -2.39505  -2.37502  -1.24937
 Alpha  occ. eigenvalues --   -1.23786  -1.23242  -1.10885  -1.10625  -1.09905
 Alpha  occ. eigenvalues --   -1.09653  -1.09103  -1.07378  -0.97976  -0.96791
 Alpha  occ. eigenvalues --   -0.95335  -0.95120  -0.94258  -0.93892  -0.93578
 Alpha  occ. eigenvalues --   -0.92707  -0.89918  -0.89617  -0.89197  -0.88875
 Alpha  occ. eigenvalues --   -0.88650  -0.87987  -0.86998  -0.85479  -0.82891
 Alpha  occ. eigenvalues --   -0.82467  -0.82159  -0.80720  -0.80608  -0.79310
 Alpha  occ. eigenvalues --   -0.78535  -0.78028  -0.77253  -0.75294  -0.75163
 Alpha  occ. eigenvalues --   -0.74894  -0.72956  -0.72726  -0.72028  -0.71675
 Alpha  occ. eigenvalues --   -0.70919  -0.67731  -0.67446  -0.67283  -0.66961
 Alpha  occ. eigenvalues --   -0.65294  -0.64615  -0.63678  -0.63486  -0.62265
 Alpha  occ. eigenvalues --   -0.62247  -0.62074  -0.61377  -0.60846  -0.59753
 Alpha  occ. eigenvalues --   -0.59198  -0.59073  -0.58810  -0.58301  -0.58007
 Alpha  occ. eigenvalues --   -0.57719  -0.57392  -0.57227  -0.56842  -0.56385
 Alpha  occ. eigenvalues --   -0.56189  -0.55718  -0.55387  -0.55334  -0.54992
 Alpha  occ. eigenvalues --   -0.54855  -0.54334  -0.54222  -0.53885  -0.53844
 Alpha  occ. eigenvalues --   -0.53584  -0.53408  -0.53202  -0.52738  -0.52344
 Alpha  occ. eigenvalues --   -0.52285  -0.52211  -0.52049  -0.51754  -0.51658
 Alpha  occ. eigenvalues --   -0.51365  -0.51047  -0.50737  -0.50225  -0.49818
 Alpha  occ. eigenvalues --   -0.49516  -0.49237  -0.48876  -0.48762  -0.48515
 Alpha  occ. eigenvalues --   -0.48483  -0.48278  -0.48193  -0.47730  -0.46897
 Alpha  occ. eigenvalues --   -0.46585  -0.46366  -0.45959  -0.45687  -0.45322
 Alpha  occ. eigenvalues --   -0.45243  -0.44794  -0.44318  -0.44019  -0.43653
 Alpha  occ. eigenvalues --   -0.43380  -0.43105  -0.42870  -0.42814  -0.42263
 Alpha  occ. eigenvalues --   -0.41761  -0.41467  -0.40215  -0.39728  -0.39633
 Alpha  occ. eigenvalues --   -0.39341  -0.39077  -0.37034  -0.36295  -0.36252
 Alpha  occ. eigenvalues --   -0.35329  -0.35103  -0.34982  -0.34045  -0.33175
 Alpha  occ. eigenvalues --   -0.32420  -0.31775
 Alpha virt. eigenvalues --   -0.26902  -0.19100  -0.18450  -0.14175  -0.12350
 Alpha virt. eigenvalues --   -0.10935  -0.10167  -0.09032  -0.08920  -0.07905
 Alpha virt. eigenvalues --   -0.07175  -0.06878  -0.05817  -0.05073  -0.04923
 Alpha virt. eigenvalues --   -0.04716  -0.04133  -0.04024  -0.03637  -0.03194
 Alpha virt. eigenvalues --   -0.03112  -0.02870  -0.02380  -0.01844  -0.01747
 Alpha virt. eigenvalues --   -0.01325  -0.01072  -0.00904  -0.00623  -0.00105
 Alpha virt. eigenvalues --    0.00120   0.00660   0.00983   0.01242   0.01559
 Alpha virt. eigenvalues --    0.01866   0.02043   0.02167   0.02299   0.02412
 Alpha virt. eigenvalues --    0.02808   0.02991   0.03341   0.03533   0.03681
 Alpha virt. eigenvalues --    0.03934   0.04111   0.04240   0.04311   0.04691
 Alpha virt. eigenvalues --    0.04826   0.04879   0.05042   0.05387   0.05719
 Alpha virt. eigenvalues --    0.05787   0.06042   0.06139   0.06450   0.06580
 Alpha virt. eigenvalues --    0.06917   0.06997   0.07132   0.07273   0.07599
 Alpha virt. eigenvalues --    0.07730   0.07863   0.07984   0.08058   0.08567
 Alpha virt. eigenvalues --    0.08800   0.08997   0.09153   0.09253   0.09474
 Alpha virt. eigenvalues --    0.09952   0.10106   0.10345   0.10452   0.10709
 Alpha virt. eigenvalues --    0.10804   0.11035   0.11279   0.11555   0.11775
 Alpha virt. eigenvalues --    0.12091   0.12123   0.12307   0.12460   0.12602
 Alpha virt. eigenvalues --    0.12926   0.13022   0.13396   0.13581   0.13725
 Alpha virt. eigenvalues --    0.13898   0.14101   0.14347   0.14488   0.14617
 Alpha virt. eigenvalues --    0.14950   0.15029   0.15383   0.15652   0.15994
 Alpha virt. eigenvalues --    0.16027   0.16083   0.16575   0.16661   0.16906
 Alpha virt. eigenvalues --    0.17158   0.17480   0.17646   0.17679   0.18227
 Alpha virt. eigenvalues --    0.18270   0.18445   0.18658   0.18824   0.18961
 Alpha virt. eigenvalues --    0.19406   0.19544   0.19751   0.19964   0.20164
 Alpha virt. eigenvalues --    0.20378   0.20606   0.20665   0.20942   0.21045
 Alpha virt. eigenvalues --    0.21335   0.21546   0.21830   0.22279   0.22415
 Alpha virt. eigenvalues --    0.22559   0.22879   0.23000   0.23370   0.23412
 Alpha virt. eigenvalues --    0.23661   0.24001   0.24124   0.24584   0.24855
 Alpha virt. eigenvalues --    0.25031   0.25224   0.25303   0.25549   0.25755
 Alpha virt. eigenvalues --    0.25973   0.26293   0.26419   0.26479   0.26891
 Alpha virt. eigenvalues --    0.27334   0.27460   0.27616   0.27916   0.27984
 Alpha virt. eigenvalues --    0.28235   0.28429   0.28518   0.28967   0.29109
 Alpha virt. eigenvalues --    0.29280   0.29540   0.29623   0.29942   0.30177
 Alpha virt. eigenvalues --    0.30298   0.30407   0.30583   0.30666   0.31028
 Alpha virt. eigenvalues --    0.31382   0.31643   0.31759   0.31803   0.31941
 Alpha virt. eigenvalues --    0.32076   0.32317   0.32478   0.32643   0.32944
 Alpha virt. eigenvalues --    0.33364   0.33436   0.33625   0.34014   0.34193
 Alpha virt. eigenvalues --    0.34288   0.34426   0.34598   0.34668   0.34957
 Alpha virt. eigenvalues --    0.35026   0.35342   0.35584   0.35682   0.36071
 Alpha virt. eigenvalues --    0.36222   0.36397   0.36614   0.36937   0.37105
 Alpha virt. eigenvalues --    0.37154   0.37464   0.37502   0.37751   0.37974
 Alpha virt. eigenvalues --    0.38289   0.38394   0.38463   0.38538   0.38711
 Alpha virt. eigenvalues --    0.38945   0.39085   0.39293   0.39502   0.39721
 Alpha virt. eigenvalues --    0.39907   0.39955   0.40143   0.40314   0.40585
 Alpha virt. eigenvalues --    0.40740   0.40876   0.41154   0.41550   0.41565
 Alpha virt. eigenvalues --    0.41959   0.42206   0.42355   0.42581   0.42720
 Alpha virt. eigenvalues --    0.42965   0.43102   0.43169   0.43310   0.43519
 Alpha virt. eigenvalues --    0.43722   0.44056   0.44362   0.44448   0.44642
 Alpha virt. eigenvalues --    0.44770   0.44965   0.45001   0.45258   0.45413
 Alpha virt. eigenvalues --    0.45533   0.45700   0.45755   0.46279   0.46601
 Alpha virt. eigenvalues --    0.46701   0.46805   0.47192   0.47523   0.47603
 Alpha virt. eigenvalues --    0.47739   0.48115   0.48251   0.48614   0.48772
 Alpha virt. eigenvalues --    0.48952   0.49319   0.49362   0.49571   0.49751
 Alpha virt. eigenvalues --    0.50073   0.50265   0.50483   0.50700   0.51088
 Alpha virt. eigenvalues --    0.51286   0.51664   0.51683   0.51935   0.52126
 Alpha virt. eigenvalues --    0.52177   0.52567   0.52925   0.53022   0.53097
 Alpha virt. eigenvalues --    0.53468   0.53626   0.53817   0.53950   0.54459
 Alpha virt. eigenvalues --    0.54715   0.55047   0.55440   0.55511   0.55978
 Alpha virt. eigenvalues --    0.56170   0.56189   0.56662   0.56819   0.57018
 Alpha virt. eigenvalues --    0.57211   0.57319   0.57492   0.57734   0.57787
 Alpha virt. eigenvalues --    0.57906   0.58384   0.58555   0.58795   0.58815
 Alpha virt. eigenvalues --    0.59333   0.59470   0.59886   0.60173   0.60268
 Alpha virt. eigenvalues --    0.60422   0.60760   0.60925   0.61183   0.61426
 Alpha virt. eigenvalues --    0.61958   0.62228   0.62376   0.62469   0.62941
 Alpha virt. eigenvalues --    0.63008   0.63260   0.63604   0.63659   0.63869
 Alpha virt. eigenvalues --    0.64441   0.64627   0.64981   0.65292   0.65793
 Alpha virt. eigenvalues --    0.66089   0.66409   0.66865   0.67187   0.67427
 Alpha virt. eigenvalues --    0.67788   0.67972   0.68390   0.68453   0.68801
 Alpha virt. eigenvalues --    0.69086   0.69137   0.69436   0.69710   0.70042
 Alpha virt. eigenvalues --    0.70412   0.70927   0.71280   0.71670   0.71870
 Alpha virt. eigenvalues --    0.72210   0.72395   0.72512   0.72918   0.73283
 Alpha virt. eigenvalues --    0.73369   0.73656   0.73907   0.73973   0.74221
 Alpha virt. eigenvalues --    0.74642   0.74888   0.74935   0.75368   0.75597
 Alpha virt. eigenvalues --    0.76163   0.76517   0.77099   0.77417   0.77515
 Alpha virt. eigenvalues --    0.77830   0.78185   0.78393   0.78953   0.79123
 Alpha virt. eigenvalues --    0.79390   0.79713   0.80413   0.80451   0.80526
 Alpha virt. eigenvalues --    0.80781   0.80968   0.81522   0.81688   0.81962
 Alpha virt. eigenvalues --    0.82326   0.83070   0.83100   0.83162   0.83508
 Alpha virt. eigenvalues --    0.83604   0.84011   0.84521   0.84919   0.85045
 Alpha virt. eigenvalues --    0.85495   0.85677   0.85919   0.86271   0.86553
 Alpha virt. eigenvalues --    0.86824   0.87150   0.87430   0.87668   0.88075
 Alpha virt. eigenvalues --    0.88317   0.88737   0.88844   0.89196   0.89375
 Alpha virt. eigenvalues --    0.89650   0.89759   0.90103   0.90459   0.91007
 Alpha virt. eigenvalues --    0.91133   0.91558   0.91657   0.91866   0.92366
 Alpha virt. eigenvalues --    0.92504   0.92600   0.92844   0.93453   0.93874
 Alpha virt. eigenvalues --    0.93986   0.94233   0.94483   0.95100   0.95309
 Alpha virt. eigenvalues --    0.95544   0.95982   0.96271   0.96805   0.97008
 Alpha virt. eigenvalues --    0.97132   0.97448   0.97549   0.98135   0.98601
 Alpha virt. eigenvalues --    0.98939   0.99086   0.99444   0.99706   1.00207
 Alpha virt. eigenvalues --    1.00541   1.00576   1.01096   1.01676   1.01809
 Alpha virt. eigenvalues --    1.02047   1.02554   1.02808   1.02980   1.03107
 Alpha virt. eigenvalues --    1.03367   1.03767   1.04074   1.04856   1.05095
 Alpha virt. eigenvalues --    1.05375   1.05635   1.06368   1.06542   1.06972
 Alpha virt. eigenvalues --    1.07081   1.07628   1.07801   1.08194   1.08598
 Alpha virt. eigenvalues --    1.09253   1.09412   1.09588   1.10297   1.10765
 Alpha virt. eigenvalues --    1.10878   1.11394   1.11498   1.11766   1.12370
 Alpha virt. eigenvalues --    1.12391   1.12893   1.13084   1.13857   1.14203
 Alpha virt. eigenvalues --    1.14613   1.14754   1.15025   1.15093   1.15606
 Alpha virt. eigenvalues --    1.16006   1.16277   1.16523   1.17033   1.17125
 Alpha virt. eigenvalues --    1.17360   1.17622   1.17874   1.18397   1.18556
 Alpha virt. eigenvalues --    1.18757   1.19028   1.19294   1.19697   1.20018
 Alpha virt. eigenvalues --    1.20644   1.21152   1.21545   1.22031   1.22182
 Alpha virt. eigenvalues --    1.22743   1.23002   1.23165   1.23845   1.24141
 Alpha virt. eigenvalues --    1.24433   1.24648   1.24926   1.25297   1.25576
 Alpha virt. eigenvalues --    1.26036   1.26152   1.26718   1.26999   1.27702
 Alpha virt. eigenvalues --    1.28133   1.28290   1.28795   1.29174   1.29984
 Alpha virt. eigenvalues --    1.30165   1.30713   1.31302   1.32008   1.32559
 Alpha virt. eigenvalues --    1.32835   1.33483   1.33513   1.34333   1.34423
 Alpha virt. eigenvalues --    1.34726   1.35459   1.35667   1.36362   1.36488
 Alpha virt. eigenvalues --    1.36688   1.37196   1.37309   1.37665   1.37814
 Alpha virt. eigenvalues --    1.37941   1.38622   1.39272   1.39513   1.39644
 Alpha virt. eigenvalues --    1.40227   1.40642   1.40882   1.41412   1.41530
 Alpha virt. eigenvalues --    1.41801   1.42373   1.42713   1.42949   1.43357
 Alpha virt. eigenvalues --    1.43548   1.43840   1.43973   1.44382   1.44557
 Alpha virt. eigenvalues --    1.45046   1.45418   1.45801   1.46200   1.46441
 Alpha virt. eigenvalues --    1.46887   1.47008   1.47204   1.47381   1.47595
 Alpha virt. eigenvalues --    1.47973   1.48219   1.48800   1.48861   1.49026
 Alpha virt. eigenvalues --    1.49185   1.49618   1.49793   1.49880   1.50393
 Alpha virt. eigenvalues --    1.50587   1.50725   1.51121   1.51202   1.51408
 Alpha virt. eigenvalues --    1.51746   1.52178   1.52336   1.52787   1.53029
 Alpha virt. eigenvalues --    1.53076   1.53359   1.53540   1.53868   1.54192
 Alpha virt. eigenvalues --    1.54321   1.54695   1.54991   1.55298   1.55367
 Alpha virt. eigenvalues --    1.55440   1.55909   1.56270   1.56392   1.56554
 Alpha virt. eigenvalues --    1.57151   1.57359   1.57536   1.57713   1.57925
 Alpha virt. eigenvalues --    1.58373   1.58805   1.58905   1.59236   1.59492
 Alpha virt. eigenvalues --    1.59777   1.60000   1.60114   1.60444   1.60702
 Alpha virt. eigenvalues --    1.61012   1.61356   1.61877   1.62109   1.62508
 Alpha virt. eigenvalues --    1.62618   1.63213   1.63328   1.63446   1.63820
 Alpha virt. eigenvalues --    1.64190   1.64632   1.64769   1.64853   1.65267
 Alpha virt. eigenvalues --    1.65956   1.66126   1.66435   1.66766   1.66850
 Alpha virt. eigenvalues --    1.67587   1.68421   1.68585   1.68715   1.69261
 Alpha virt. eigenvalues --    1.69598   1.70123   1.70643   1.70908   1.71688
 Alpha virt. eigenvalues --    1.72081   1.72415   1.72939   1.73234   1.73373
 Alpha virt. eigenvalues --    1.73715   1.74095   1.74622   1.74755   1.74897
 Alpha virt. eigenvalues --    1.75223   1.75990   1.76209   1.76583   1.76824
 Alpha virt. eigenvalues --    1.77576   1.77782   1.78259   1.78332   1.78584
 Alpha virt. eigenvalues --    1.78607   1.78888   1.79425   1.79772   1.80027
 Alpha virt. eigenvalues --    1.80477   1.80949   1.81130   1.81585   1.82121
 Alpha virt. eigenvalues --    1.82511   1.83149   1.83485   1.83942   1.84171
 Alpha virt. eigenvalues --    1.84947   1.85208   1.85492   1.85999   1.86294
 Alpha virt. eigenvalues --    1.86607   1.86959   1.87416   1.87756   1.87905
 Alpha virt. eigenvalues --    1.88084   1.88478   1.88777   1.89294   1.89645
 Alpha virt. eigenvalues --    1.89927   1.90150   1.90784   1.90867   1.90975
 Alpha virt. eigenvalues --    1.91551   1.92038   1.92628   1.92969   1.93128
 Alpha virt. eigenvalues --    1.93671   1.93797   1.95245   1.95299   1.95767
 Alpha virt. eigenvalues --    1.96047   1.96577   1.96672   1.97032   1.97357
 Alpha virt. eigenvalues --    1.97664   1.97927   1.97987   1.98267   1.98404
 Alpha virt. eigenvalues --    1.98855   1.99105   1.99428   1.99964   2.00279
 Alpha virt. eigenvalues --    2.00340   2.01114   2.01758   2.01912   2.02430
 Alpha virt. eigenvalues --    2.02812   2.02956   2.03550   2.04445   2.04821
 Alpha virt. eigenvalues --    2.05337   2.05376   2.05806   2.06001   2.06245
 Alpha virt. eigenvalues --    2.06639   2.06867   2.07051   2.07442   2.07827
 Alpha virt. eigenvalues --    2.08317   2.08742   2.08911   2.09263   2.09505
 Alpha virt. eigenvalues --    2.10002   2.10143   2.10610   2.10952   2.11347
 Alpha virt. eigenvalues --    2.11425   2.11945   2.12050   2.12793   2.13065
 Alpha virt. eigenvalues --    2.13237   2.13790   2.14125   2.14593   2.14872
 Alpha virt. eigenvalues --    2.15084   2.15324   2.15410   2.16258   2.16537
 Alpha virt. eigenvalues --    2.17408   2.17559   2.17651   2.18195   2.18768
 Alpha virt. eigenvalues --    2.19270   2.19461   2.19813   2.19977   2.20272
 Alpha virt. eigenvalues --    2.21219   2.22124   2.22405   2.23022   2.23144
 Alpha virt. eigenvalues --    2.23522   2.24052   2.24624   2.24813   2.25379
 Alpha virt. eigenvalues --    2.25446   2.26171   2.26480   2.26764   2.27051
 Alpha virt. eigenvalues --    2.27496   2.27933   2.28362   2.28786   2.29043
 Alpha virt. eigenvalues --    2.29496   2.29931   2.30140   2.30407   2.30849
 Alpha virt. eigenvalues --    2.31151   2.31799   2.32031   2.32298   2.32662
 Alpha virt. eigenvalues --    2.32765   2.33377   2.33521   2.33913   2.34363
 Alpha virt. eigenvalues --    2.34796   2.35161   2.35663   2.36039   2.36186
 Alpha virt. eigenvalues --    2.36542   2.36804   2.36949   2.37456   2.37773
 Alpha virt. eigenvalues --    2.37969   2.38077   2.38568   2.38961   2.39157
 Alpha virt. eigenvalues --    2.39323   2.39566   2.40334   2.40794   2.41006
 Alpha virt. eigenvalues --    2.41147   2.41912   2.42198   2.42593   2.42854
 Alpha virt. eigenvalues --    2.43225   2.43679   2.44128   2.44679   2.45130
 Alpha virt. eigenvalues --    2.45197   2.45773   2.46073   2.46503   2.46828
 Alpha virt. eigenvalues --    2.47009   2.47446   2.47789   2.47943   2.48314
 Alpha virt. eigenvalues --    2.48345   2.48755   2.49050   2.49265   2.49500
 Alpha virt. eigenvalues --    2.50328   2.50405   2.50639   2.50918   2.51741
 Alpha virt. eigenvalues --    2.52437   2.52515   2.52591   2.52860   2.53638
 Alpha virt. eigenvalues --    2.53682   2.54024   2.54267   2.54462   2.54587
 Alpha virt. eigenvalues --    2.54666   2.55174   2.55190   2.55695   2.56279
 Alpha virt. eigenvalues --    2.56688   2.56848   2.57090   2.57396   2.57737
 Alpha virt. eigenvalues --    2.57800   2.58478   2.58846   2.59011   2.59160
 Alpha virt. eigenvalues --    2.59313   2.59667   2.60031   2.60155   2.60558
 Alpha virt. eigenvalues --    2.60604   2.60666   2.61148   2.61458   2.61776
 Alpha virt. eigenvalues --    2.62650   2.62774   2.63345   2.63720   2.63867
 Alpha virt. eigenvalues --    2.64134   2.64180   2.64900   2.65036   2.65228
 Alpha virt. eigenvalues --    2.65488   2.65676   2.65818   2.66093   2.66483
 Alpha virt. eigenvalues --    2.66738   2.67105   2.67570   2.67937   2.68194
 Alpha virt. eigenvalues --    2.68344   2.68831   2.69157   2.69704   2.69864
 Alpha virt. eigenvalues --    2.70365   2.70933   2.70983   2.71114   2.71359
 Alpha virt. eigenvalues --    2.72040   2.72400   2.72829   2.73019   2.73309
 Alpha virt. eigenvalues --    2.73434   2.73642   2.74164   2.74549   2.75062
 Alpha virt. eigenvalues --    2.75274   2.75448   2.76172   2.76513   2.76870
 Alpha virt. eigenvalues --    2.77350   2.77658   2.78217   2.78355   2.78676
 Alpha virt. eigenvalues --    2.79052   2.79232   2.79744   2.80080   2.80522
 Alpha virt. eigenvalues --    2.81073   2.81227   2.81315   2.81760   2.82145
 Alpha virt. eigenvalues --    2.82739   2.83143   2.83268   2.83500   2.83592
 Alpha virt. eigenvalues --    2.83926   2.84300   2.84732   2.85385   2.85535
 Alpha virt. eigenvalues --    2.85906   2.86082   2.86748   2.87139   2.87368
 Alpha virt. eigenvalues --    2.87454   2.87931   2.88328   2.88412   2.88577
 Alpha virt. eigenvalues --    2.88967   2.89540   2.89892   2.90175   2.90536
 Alpha virt. eigenvalues --    2.90732   2.91081   2.91660   2.91783   2.92313
 Alpha virt. eigenvalues --    2.92471   2.92779   2.93154   2.93295   2.93992
 Alpha virt. eigenvalues --    2.94108   2.94718   2.94884   2.95214   2.95460
 Alpha virt. eigenvalues --    2.95845   2.96126   2.96251   2.96773   2.96844
 Alpha virt. eigenvalues --    2.97080   2.97538   2.97633   2.97952   2.98057
 Alpha virt. eigenvalues --    2.98316   2.98638   2.99071   2.99206   2.99517
 Alpha virt. eigenvalues --    2.99778   3.00134   3.00187   3.00514   3.00869
 Alpha virt. eigenvalues --    3.00981   3.01257   3.01472   3.02001   3.02370
 Alpha virt. eigenvalues --    3.02576   3.02684   3.02858   3.03487   3.03916
 Alpha virt. eigenvalues --    3.04169   3.04271   3.04360   3.04861   3.05328
 Alpha virt. eigenvalues --    3.05739   3.05863   3.06409   3.06560   3.06765
 Alpha virt. eigenvalues --    3.06946   3.07220   3.07551   3.07708   3.07987
 Alpha virt. eigenvalues --    3.08234   3.08454   3.08560   3.08681   3.09369
 Alpha virt. eigenvalues --    3.09439   3.09939   3.10129   3.10544   3.10919
 Alpha virt. eigenvalues --    3.11285   3.11619   3.11907   3.12044   3.12287
 Alpha virt. eigenvalues --    3.12528   3.13057   3.13077   3.13654   3.13804
 Alpha virt. eigenvalues --    3.13861   3.13910   3.14339   3.14547   3.14714
 Alpha virt. eigenvalues --    3.14937   3.15513   3.15777   3.15939   3.16358
 Alpha virt. eigenvalues --    3.16621   3.17028   3.17192   3.17353   3.17865
 Alpha virt. eigenvalues --    3.18092   3.18616   3.18893   3.18982   3.19098
 Alpha virt. eigenvalues --    3.19194   3.19397   3.19874   3.20088   3.20432
 Alpha virt. eigenvalues --    3.20646   3.21206   3.21410   3.21615   3.21693
 Alpha virt. eigenvalues --    3.22094   3.22550   3.22941   3.23136   3.23298
 Alpha virt. eigenvalues --    3.23529   3.23889   3.24290   3.24373   3.24749
 Alpha virt. eigenvalues --    3.25146   3.25292   3.25493   3.25756   3.26210
 Alpha virt. eigenvalues --    3.26489   3.26879   3.27069   3.27365   3.27672
 Alpha virt. eigenvalues --    3.27738   3.28022   3.28354   3.28399   3.28510
 Alpha virt. eigenvalues --    3.28736   3.28920   3.29393   3.29685   3.29825
 Alpha virt. eigenvalues --    3.30021   3.30054   3.30682   3.30903   3.31251
 Alpha virt. eigenvalues --    3.31510   3.31699   3.31776   3.32234   3.32642
 Alpha virt. eigenvalues --    3.32820   3.32981   3.33349   3.33511   3.33632
 Alpha virt. eigenvalues --    3.34040   3.34273   3.34412   3.34653   3.34761
 Alpha virt. eigenvalues --    3.35410   3.35600   3.35810   3.36078   3.36132
 Alpha virt. eigenvalues --    3.36590   3.36935   3.37126   3.37670   3.38006
 Alpha virt. eigenvalues --    3.38026   3.38136   3.38576   3.39254   3.39513
 Alpha virt. eigenvalues --    3.39834   3.40057   3.40152   3.40457   3.40801
 Alpha virt. eigenvalues --    3.41081   3.41549   3.41808   3.42158   3.42868
 Alpha virt. eigenvalues --    3.43247   3.43397   3.43722   3.43981   3.44266
 Alpha virt. eigenvalues --    3.44949   3.45245   3.45452   3.45903   3.46195
 Alpha virt. eigenvalues --    3.46551   3.46882   3.47427   3.47505   3.48314
 Alpha virt. eigenvalues --    3.48467   3.48557   3.49071   3.49576   3.50132
 Alpha virt. eigenvalues --    3.50356   3.50856   3.51110   3.51260   3.51729
 Alpha virt. eigenvalues --    3.52507   3.52643   3.53198   3.53491   3.53702
 Alpha virt. eigenvalues --    3.54512   3.54956   3.55126   3.55720   3.55970
 Alpha virt. eigenvalues --    3.56289   3.56530   3.56693   3.57716   3.57771
 Alpha virt. eigenvalues --    3.58378   3.58810   3.59154   3.59386   3.59493
 Alpha virt. eigenvalues --    3.60118   3.60234   3.60753   3.60930   3.61248
 Alpha virt. eigenvalues --    3.61766   3.61941   3.62478   3.62959   3.63163
 Alpha virt. eigenvalues --    3.63799   3.64028   3.64463   3.64901   3.65124
 Alpha virt. eigenvalues --    3.65532   3.66070   3.66431   3.67123   3.67384
 Alpha virt. eigenvalues --    3.67600   3.68105   3.68399   3.68494   3.69148
 Alpha virt. eigenvalues --    3.69278   3.70198   3.70335   3.70898   3.71168
 Alpha virt. eigenvalues --    3.71562   3.72038   3.72573   3.73299   3.73602
 Alpha virt. eigenvalues --    3.73903   3.74111   3.74320   3.74771   3.74918
 Alpha virt. eigenvalues --    3.75622   3.76075   3.76996   3.77652   3.78060
 Alpha virt. eigenvalues --    3.78925   3.79356   3.79739   3.80148   3.80658
 Alpha virt. eigenvalues --    3.81018   3.81223   3.82014   3.82540   3.82873
 Alpha virt. eigenvalues --    3.83393   3.83999   3.84032   3.84492   3.84727
 Alpha virt. eigenvalues --    3.85619   3.86187   3.86558   3.87061   3.87352
 Alpha virt. eigenvalues --    3.88490   3.88712   3.89280   3.89817   3.89954
 Alpha virt. eigenvalues --    3.90732   3.90833   3.91836   3.92342   3.93132
 Alpha virt. eigenvalues --    3.93501   3.93530   3.93754   3.94375   3.94773
 Alpha virt. eigenvalues --    3.94988   3.95668   3.96417   3.96705   3.96955
 Alpha virt. eigenvalues --    3.97900   3.98274   3.98989   3.99502   3.99956
 Alpha virt. eigenvalues --    4.00370   4.00738   4.01448   4.01793   4.02326
 Alpha virt. eigenvalues --    4.02755   4.03133   4.03312   4.03968   4.04534
 Alpha virt. eigenvalues --    4.04552   4.04782   4.05235   4.05626   4.05939
 Alpha virt. eigenvalues --    4.06690   4.07039   4.07377   4.07769   4.08265
 Alpha virt. eigenvalues --    4.08859   4.09260   4.09689   4.09955   4.10448
 Alpha virt. eigenvalues --    4.11176   4.11519   4.11702   4.12017   4.12413
 Alpha virt. eigenvalues --    4.12505   4.12674   4.13032   4.13925   4.14858
 Alpha virt. eigenvalues --    4.15030   4.15214   4.15901   4.16298   4.16607
 Alpha virt. eigenvalues --    4.17045   4.17365   4.17525   4.18490   4.18820
 Alpha virt. eigenvalues --    4.19115   4.19983   4.20845   4.21260   4.21896
 Alpha virt. eigenvalues --    4.22794   4.23532   4.23782   4.24431   4.25291
 Alpha virt. eigenvalues --    4.25827   4.26498   4.26874   4.27476   4.27622
 Alpha virt. eigenvalues --    4.28202   4.28361   4.29100   4.29478   4.29537
 Alpha virt. eigenvalues --    4.30325   4.30807   4.31619   4.31878   4.32617
 Alpha virt. eigenvalues --    4.32946   4.33617   4.34577   4.35263   4.35634
 Alpha virt. eigenvalues --    4.36309   4.36713   4.37421   4.38180   4.39108
 Alpha virt. eigenvalues --    4.39864   4.40031   4.40404   4.40916   4.41166
 Alpha virt. eigenvalues --    4.41406   4.42538   4.44335   4.45388   4.45672
 Alpha virt. eigenvalues --    4.45904   4.46138   4.46846   4.47877   4.48769
 Alpha virt. eigenvalues --    4.48916   4.49600   4.50289   4.50683   4.51087
 Alpha virt. eigenvalues --    4.51731   4.52339   4.53681   4.53852   4.54350
 Alpha virt. eigenvalues --    4.55176   4.55653   4.55936   4.56222   4.57487
 Alpha virt. eigenvalues --    4.58249   4.58559   4.59398   4.59952   4.61166
 Alpha virt. eigenvalues --    4.61615   4.62074   4.62729   4.63009   4.63364
 Alpha virt. eigenvalues --    4.64220   4.64572   4.65416   4.66184   4.66327
 Alpha virt. eigenvalues --    4.66666   4.67650   4.68400   4.68969   4.69412
 Alpha virt. eigenvalues --    4.70592   4.71529   4.72290   4.72889   4.73869
 Alpha virt. eigenvalues --    4.74437   4.75567   4.76606   4.77071   4.77795
 Alpha virt. eigenvalues --    4.78820   4.79354   4.79889   4.80311   4.81072
 Alpha virt. eigenvalues --    4.81516   4.81697   4.81917   4.82532   4.83050
 Alpha virt. eigenvalues --    4.83537   4.84598   4.85823   4.86199   4.86760
 Alpha virt. eigenvalues --    4.87577   4.87693   4.88819   4.88989   4.89948
 Alpha virt. eigenvalues --    4.90300   4.91098   4.91811   4.92533   4.92836
 Alpha virt. eigenvalues --    4.94247   4.96418   4.96917   4.97768   5.00056
 Alpha virt. eigenvalues --    5.00849   5.03954   5.04339   5.05381   5.06130
 Alpha virt. eigenvalues --    5.07638   5.08249   5.08783   5.10075   5.10259
 Alpha virt. eigenvalues --    5.11554   5.12110   5.12262   5.12527   5.13222
 Alpha virt. eigenvalues --    5.14013   5.14166   5.16071   5.16290   5.18141
 Alpha virt. eigenvalues --    5.19966   5.20640   5.21408   5.22070   5.22347
 Alpha virt. eigenvalues --    5.23628   5.24532   5.25066   5.25597   5.28203
 Alpha virt. eigenvalues --    5.29408   5.30857   5.32536   5.33738   5.34788
 Alpha virt. eigenvalues --    5.34924   5.35689   5.35764   5.36696   5.37342
 Alpha virt. eigenvalues --    5.37589   5.38358   5.39742   5.42177   5.43783
 Alpha virt. eigenvalues --    5.45604   5.47277   5.47727   5.48145   5.48343
 Alpha virt. eigenvalues --    5.49583   5.50233   5.50537   5.50590   5.52403
 Alpha virt. eigenvalues --    5.53940   5.56164   5.57250   5.58038   5.61370
 Alpha virt. eigenvalues --    5.62506   5.64630   5.65656   5.69615   5.70143
 Alpha virt. eigenvalues --    5.73079   5.75715   5.76602   5.77044   5.79270
 Alpha virt. eigenvalues --    5.83045   5.84686   5.86809   5.87568   5.88456
 Alpha virt. eigenvalues --    5.92138   5.92335   5.95242   5.95867   5.96317
 Alpha virt. eigenvalues --    5.96553   5.97893   6.02831   6.04134   6.06294
 Alpha virt. eigenvalues --    6.10165   6.16081   6.17747   6.18373   6.22571
 Alpha virt. eigenvalues --    6.23077   6.25220   6.28631   6.30907   6.35363
 Alpha virt. eigenvalues --    6.35618   6.35743   6.39122   6.40338   6.42304
 Alpha virt. eigenvalues --    6.44084   6.45145   6.57701   6.60605   6.65757
 Alpha virt. eigenvalues --    6.67807   6.74243   6.77177   6.78751   6.82532
 Alpha virt. eigenvalues --    6.84197   6.86246   6.87938   6.97996   7.03558
 Alpha virt. eigenvalues --    7.03830   7.05475   7.09803   7.10808   7.15737
 Alpha virt. eigenvalues --    7.20524   7.25603  22.12608  22.39598  22.40125
 Alpha virt. eigenvalues --   22.40775  22.43081  22.48050  22.50909  22.52395
 Alpha virt. eigenvalues --   22.53229  22.54896  22.58868  22.60739  22.68270
 Alpha virt. eigenvalues --   22.68869  22.72485  22.75713  22.79166  22.83856
 Alpha virt. eigenvalues --   22.84540  22.86696  22.91802  22.92201  22.93699
 Alpha virt. eigenvalues --   22.97895  22.98964  23.07542  23.09412  23.11315
 Alpha virt. eigenvalues --   23.16050  23.19258  23.23893  23.31670  23.34840
 Alpha virt. eigenvalues --   23.41119  23.41569  23.45628  23.47843  23.53522
 Alpha virt. eigenvalues --   23.63967  23.67240  23.73992  32.73183  32.76778
 Alpha virt. eigenvalues --   32.79704  32.89752  43.86190  43.86872  43.89769
 Alpha virt. eigenvalues --   43.90246  44.16887
  Beta  occ. eigenvalues -- -256.46552 -30.21283 -26.04933 -26.04369 -26.03205
  Beta  occ. eigenvalues --  -19.37820 -19.34413 -19.33846 -19.26562 -19.25147
  Beta  occ. eigenvalues --  -14.51798 -14.51571 -14.51042 -14.50207 -10.43825
  Beta  occ. eigenvalues --  -10.42839 -10.39174 -10.37437 -10.37390 -10.37365
  Beta  occ. eigenvalues --  -10.37209 -10.37090 -10.36906 -10.36858 -10.36855
  Beta  occ. eigenvalues --  -10.35800 -10.35707 -10.35706 -10.35705 -10.34948
  Beta  occ. eigenvalues --  -10.34660 -10.33962 -10.33769 -10.33752 -10.33313
  Beta  occ. eigenvalues --  -10.33150 -10.32872 -10.32800 -10.32748 -10.32737
  Beta  occ. eigenvalues --  -10.32721 -10.32702 -10.32299 -10.32278 -10.32012
  Beta  occ. eigenvalues --  -10.31727 -10.31550 -10.31413 -10.31056 -10.30673
  Beta  occ. eigenvalues --  -10.30524 -10.30232 -10.29203 -10.27595 -10.27090
  Beta  occ. eigenvalues --   -3.53993  -2.30606  -2.29964  -2.26859  -1.24937
  Beta  occ. eigenvalues --   -1.23785  -1.23205  -1.11203  -1.10627  -1.10226
  Beta  occ. eigenvalues --   -1.09651  -1.09473  -1.07708  -0.97989  -0.97167
  Beta  occ. eigenvalues --   -0.95407  -0.95199  -0.94415  -0.94260  -0.93863
  Beta  occ. eigenvalues --   -0.92819  -0.90030  -0.89663  -0.89437  -0.89199
  Beta  occ. eigenvalues --   -0.88970  -0.88137  -0.86999  -0.85424  -0.82981
  Beta  occ. eigenvalues --   -0.82553  -0.82211  -0.80727  -0.80599  -0.79373
  Beta  occ. eigenvalues --   -0.78607  -0.78121  -0.77293  -0.75304  -0.75178
  Beta  occ. eigenvalues --   -0.74885  -0.72974  -0.72749  -0.71998  -0.71747
  Beta  occ. eigenvalues --   -0.71231  -0.67752  -0.67447  -0.67333  -0.67036
  Beta  occ. eigenvalues --   -0.65344  -0.64741  -0.63751  -0.63557  -0.62288
  Beta  occ. eigenvalues --   -0.62121  -0.62003  -0.61406  -0.60917  -0.59800
  Beta  occ. eigenvalues --   -0.59219  -0.59087  -0.58895  -0.58332  -0.58072
  Beta  occ. eigenvalues --   -0.57772  -0.57473  -0.57247  -0.56831  -0.56636
  Beta  occ. eigenvalues --   -0.56240  -0.55861  -0.55386  -0.55359  -0.55037
  Beta  occ. eigenvalues --   -0.55000  -0.54460  -0.54231  -0.54012  -0.53744
  Beta  occ. eigenvalues --   -0.53637  -0.53416  -0.53207  -0.52798  -0.52380
  Beta  occ. eigenvalues --   -0.52300  -0.52253  -0.52096  -0.51902  -0.51792
  Beta  occ. eigenvalues --   -0.51430  -0.51122  -0.50880  -0.50312  -0.49910
  Beta  occ. eigenvalues --   -0.49503  -0.49267  -0.48951  -0.48685  -0.48492
  Beta  occ. eigenvalues --   -0.48433  -0.48285  -0.48050  -0.47735  -0.46879
  Beta  occ. eigenvalues --   -0.46534  -0.46323  -0.46137  -0.45887  -0.45271
  Beta  occ. eigenvalues --   -0.45125  -0.44851  -0.44267  -0.43870  -0.43493
  Beta  occ. eigenvalues --   -0.43288  -0.42871  -0.42791  -0.42293  -0.42228
  Beta  occ. eigenvalues --   -0.41765  -0.41334  -0.41029  -0.39648  -0.37694
  Beta  occ. eigenvalues --   -0.36800  -0.36522  -0.36272  -0.36108  -0.35206
  Beta  occ. eigenvalues --   -0.34774  -0.34299  -0.33922  -0.33324  -0.32066
  Beta  occ. eigenvalues --   -0.30908
  Beta virt. eigenvalues --   -0.20581  -0.19801  -0.13209  -0.12902  -0.11801
  Beta virt. eigenvalues --   -0.10968  -0.10165  -0.09264  -0.08954  -0.08764
  Beta virt. eigenvalues --   -0.07880  -0.07189  -0.07035  -0.05689  -0.05039
  Beta virt. eigenvalues --   -0.04882  -0.04675  -0.04066  -0.03752  -0.03183
  Beta virt. eigenvalues --   -0.03061  -0.02872  -0.02731  -0.02302  -0.01781
  Beta virt. eigenvalues --   -0.01636  -0.01332  -0.01036  -0.00947  -0.00638
  Beta virt. eigenvalues --   -0.00131   0.00100   0.00636   0.00906   0.01183
  Beta virt. eigenvalues --    0.01508   0.01863   0.02078   0.02115   0.02237
  Beta virt. eigenvalues --    0.02392   0.02682   0.02923   0.03309   0.03503
  Beta virt. eigenvalues --    0.03645   0.03901   0.04020   0.04190   0.04220
  Beta virt. eigenvalues --    0.04664   0.04737   0.04794   0.05042   0.05350
  Beta virt. eigenvalues --    0.05667   0.05742   0.06022   0.06116   0.06458
  Beta virt. eigenvalues --    0.06516   0.06911   0.07023   0.07122   0.07271
  Beta virt. eigenvalues --    0.07648   0.07692   0.07829   0.07978   0.08079
  Beta virt. eigenvalues --    0.08582   0.08732   0.08928   0.09207   0.09249
  Beta virt. eigenvalues --    0.09455   0.09932   0.10157   0.10348   0.10445
  Beta virt. eigenvalues --    0.10741   0.10965   0.11071   0.11277   0.11525
  Beta virt. eigenvalues --    0.11827   0.12121   0.12263   0.12310   0.12435
  Beta virt. eigenvalues --    0.12659   0.12931   0.13040   0.13370   0.13575
  Beta virt. eigenvalues --    0.13753   0.13922   0.14197   0.14340   0.14475
  Beta virt. eigenvalues --    0.14615   0.14915   0.15051   0.15388   0.15610
  Beta virt. eigenvalues --    0.16010   0.16065   0.16201   0.16556   0.16657
  Beta virt. eigenvalues --    0.16956   0.17129   0.17508   0.17651   0.17711
  Beta virt. eigenvalues --    0.18172   0.18254   0.18528   0.18650   0.18780
  Beta virt. eigenvalues --    0.18953   0.19399   0.19520   0.19728   0.19986
  Beta virt. eigenvalues --    0.20175   0.20430   0.20587   0.20666   0.20962
  Beta virt. eigenvalues --    0.21115   0.21378   0.21539   0.21859   0.22338
  Beta virt. eigenvalues --    0.22442   0.22538   0.22845   0.23005   0.23382
  Beta virt. eigenvalues --    0.23484   0.23616   0.24009   0.24118   0.24602
  Beta virt. eigenvalues --    0.24866   0.24981   0.25201   0.25285   0.25629
  Beta virt. eigenvalues --    0.25777   0.25934   0.26280   0.26412   0.26502
  Beta virt. eigenvalues --    0.26884   0.27259   0.27379   0.27579   0.27843
  Beta virt. eigenvalues --    0.27915   0.28178   0.28378   0.28480   0.28860
  Beta virt. eigenvalues --    0.29117   0.29243   0.29475   0.29600   0.29948
  Beta virt. eigenvalues --    0.30146   0.30246   0.30395   0.30615   0.30647
  Beta virt. eigenvalues --    0.31011   0.31463   0.31656   0.31723   0.31758
  Beta virt. eigenvalues --    0.31899   0.32011   0.32314   0.32444   0.32681
  Beta virt. eigenvalues --    0.32964   0.33385   0.33410   0.33666   0.33950
  Beta virt. eigenvalues --    0.34154   0.34257   0.34424   0.34571   0.34685
  Beta virt. eigenvalues --    0.34941   0.35050   0.35333   0.35560   0.35677
  Beta virt. eigenvalues --    0.36056   0.36224   0.36399   0.36596   0.36914
  Beta virt. eigenvalues --    0.37075   0.37148   0.37446   0.37496   0.37776
  Beta virt. eigenvalues --    0.37967   0.38286   0.38385   0.38456   0.38515
  Beta virt. eigenvalues --    0.38723   0.38949   0.39079   0.39264   0.39509
  Beta virt. eigenvalues --    0.39788   0.39907   0.40006   0.40192   0.40333
  Beta virt. eigenvalues --    0.40572   0.40771   0.40878   0.41148   0.41554
  Beta virt. eigenvalues --    0.41576   0.41955   0.42242   0.42329   0.42554
  Beta virt. eigenvalues --    0.42747   0.42938   0.43090   0.43180   0.43325
  Beta virt. eigenvalues --    0.43534   0.43700   0.44051   0.44412   0.44491
  Beta virt. eigenvalues --    0.44632   0.44775   0.44950   0.45023   0.45196
  Beta virt. eigenvalues --    0.45453   0.45538   0.45727   0.45762   0.46279
  Beta virt. eigenvalues --    0.46634   0.46749   0.46808   0.47179   0.47505
  Beta virt. eigenvalues --    0.47584   0.47706   0.48116   0.48233   0.48603
  Beta virt. eigenvalues --    0.48770   0.48903   0.49289   0.49383   0.49538
  Beta virt. eigenvalues --    0.49694   0.50067   0.50226   0.50457   0.50741
  Beta virt. eigenvalues --    0.51032   0.51310   0.51603   0.51651   0.51868
  Beta virt. eigenvalues --    0.52115   0.52177   0.52533   0.52920   0.53003
  Beta virt. eigenvalues --    0.53127   0.53454   0.53644   0.53785   0.53922
  Beta virt. eigenvalues --    0.54462   0.54681   0.55026   0.55396   0.55505
  Beta virt. eigenvalues --    0.55946   0.56136   0.56137   0.56593   0.56761
  Beta virt. eigenvalues --    0.57034   0.57170   0.57316   0.57460   0.57741
  Beta virt. eigenvalues --    0.57748   0.57840   0.58386   0.58507   0.58771
  Beta virt. eigenvalues --    0.58815   0.59273   0.59442   0.59870   0.60114
  Beta virt. eigenvalues --    0.60250   0.60408   0.60688   0.60885   0.61192
  Beta virt. eigenvalues --    0.61408   0.61938   0.62211   0.62334   0.62443
  Beta virt. eigenvalues --    0.62879   0.63020   0.63270   0.63571   0.63663
  Beta virt. eigenvalues --    0.63820   0.64434   0.64644   0.64969   0.65288
  Beta virt. eigenvalues --    0.65802   0.66039   0.66365   0.66887   0.67171
  Beta virt. eigenvalues --    0.67406   0.67813   0.68044   0.68367   0.68422
  Beta virt. eigenvalues --    0.68833   0.69056   0.69090   0.69436   0.69657
  Beta virt. eigenvalues --    0.70007   0.70388   0.70893   0.71253   0.71673
  Beta virt. eigenvalues --    0.71807   0.72185   0.72353   0.72454   0.72851
  Beta virt. eigenvalues --    0.73235   0.73356   0.73597   0.73882   0.73944
  Beta virt. eigenvalues --    0.74236   0.74588   0.74837   0.74931   0.75330
  Beta virt. eigenvalues --    0.75533   0.76126   0.76472   0.77058   0.77381
  Beta virt. eigenvalues --    0.77479   0.77764   0.78158   0.78309   0.78914
  Beta virt. eigenvalues --    0.79125   0.79345   0.79643   0.80352   0.80401
  Beta virt. eigenvalues --    0.80493   0.80748   0.80991   0.81503   0.81670
  Beta virt. eigenvalues --    0.82020   0.82277   0.82996   0.83054   0.83178
  Beta virt. eigenvalues --    0.83520   0.83553   0.84059   0.84512   0.84930
  Beta virt. eigenvalues --    0.85041   0.85477   0.85690   0.85946   0.86238
  Beta virt. eigenvalues --    0.86524   0.86819   0.87172   0.87431   0.87616
  Beta virt. eigenvalues --    0.88063   0.88307   0.88738   0.88817   0.89207
  Beta virt. eigenvalues --    0.89355   0.89615   0.89774   0.90135   0.90453
  Beta virt. eigenvalues --    0.91037   0.91114   0.91560   0.91653   0.91875
  Beta virt. eigenvalues --    0.92418   0.92549   0.92583   0.92810   0.93469
  Beta virt. eigenvalues --    0.93877   0.94116   0.94248   0.94552   0.95126
  Beta virt. eigenvalues --    0.95632   0.95737   0.96033   0.96483   0.96849
  Beta virt. eigenvalues --    0.97137   0.97160   0.97559   0.97626   0.98069
  Beta virt. eigenvalues --    0.98715   0.98990   0.99059   0.99520   0.99726
  Beta virt. eigenvalues --    1.00288   1.00520   1.00638   1.01124   1.01774
  Beta virt. eigenvalues --    1.01808   1.02173   1.02579   1.02805   1.03000
  Beta virt. eigenvalues --    1.03292   1.03512   1.03775   1.04244   1.04887
  Beta virt. eigenvalues --    1.05078   1.05379   1.05886   1.06413   1.06573
  Beta virt. eigenvalues --    1.07007   1.07128   1.07597   1.07868   1.08168
  Beta virt. eigenvalues --    1.08678   1.09300   1.09487   1.09722   1.10299
  Beta virt. eigenvalues --    1.10806   1.10958   1.11411   1.11501   1.11773
  Beta virt. eigenvalues --    1.12360   1.12415   1.12926   1.13055   1.13818
  Beta virt. eigenvalues --    1.14193   1.14685   1.14734   1.15008   1.15092
  Beta virt. eigenvalues --    1.15657   1.16055   1.16374   1.16562   1.17042
  Beta virt. eigenvalues --    1.17070   1.17390   1.17601   1.17852   1.18388
  Beta virt. eigenvalues --    1.18561   1.18747   1.19069   1.19305   1.19747
  Beta virt. eigenvalues --    1.20064   1.20674   1.21155   1.21553   1.22089
  Beta virt. eigenvalues --    1.22173   1.22810   1.23028   1.23151   1.23847
  Beta virt. eigenvalues --    1.24152   1.24414   1.24628   1.24896   1.25298
  Beta virt. eigenvalues --    1.25548   1.26016   1.26147   1.26756   1.27041
  Beta virt. eigenvalues --    1.27737   1.28108   1.28279   1.28827   1.29167
  Beta virt. eigenvalues --    1.29936   1.30106   1.30673   1.31290   1.31977
  Beta virt. eigenvalues --    1.32609   1.32772   1.33496   1.33565   1.34271
  Beta virt. eigenvalues --    1.34424   1.34608   1.35446   1.35574   1.36131
  Beta virt. eigenvalues --    1.36454   1.36621   1.37159   1.37269   1.37692
  Beta virt. eigenvalues --    1.37850   1.37964   1.38630   1.39252   1.39455
  Beta virt. eigenvalues --    1.39636   1.40248   1.40723   1.40908   1.41420
  Beta virt. eigenvalues --    1.41458   1.41732   1.42271   1.42688   1.42976
  Beta virt. eigenvalues --    1.43345   1.43573   1.43823   1.43967   1.44366
  Beta virt. eigenvalues --    1.44551   1.45046   1.45384   1.45768   1.46188
  Beta virt. eigenvalues --    1.46394   1.46892   1.46993   1.47167   1.47350
  Beta virt. eigenvalues --    1.47595   1.47946   1.48181   1.48767   1.48859
  Beta virt. eigenvalues --    1.48969   1.49186   1.49597   1.49802   1.49871
  Beta virt. eigenvalues --    1.50353   1.50526   1.50711   1.51099   1.51153
  Beta virt. eigenvalues --    1.51373   1.51717   1.52117   1.52331   1.52763
  Beta virt. eigenvalues --    1.52947   1.53067   1.53308   1.53515   1.53872
  Beta virt. eigenvalues --    1.54151   1.54251   1.54684   1.54917   1.55278
[...]
  1776. BD*(   1) C  11 - H  61          0.00684     0.32597   
  1777. BD*(   1) C  12 - C  33          0.01010     0.46966   
  1778. BD*(   2) C  12 - C  33          0.19208    -0.07752  1840(v),1824(v),1822(v)
                                                    486(g),1759(r),1035(g)
                                                    1774(r),1033(g)
  1779. BD*(   1) C  12 - C  37          0.01052     0.45887   
  1780. BD*(   1) C  12 - H  62          0.00707     0.32767   
  1781. BD*(   1) C  13 - C  14          0.01771     0.36502   
  1782. BD*(   1) C  13 - N  47          0.01436     0.35248   
  1783. BD*(   1) C  14 - C  15          0.00929     0.52378   
  1784. BD*(   2) C  14 - C  15          0.10248    -0.03695  1766(v),1770(v),1792(v)
                                                    1790(v)
  1785. BD*(   1) C  14 - C  18          0.01196     0.25990   
  1786. BD*(   1) C  15 - C  16          0.01790     0.36170   
  1787. BD*(   1) C  15 - C  17          0.00875     0.25497   
  1788. BD*(   1) C  16 - N  47          0.01370     0.36438   
  1789. BD*(   1) C  17 - H  66          0.00223     0.31253   
  1790. BD*(   1) C  17 - H  67          0.00384     0.31574   
  1791. BD*(   1) C  17 - H  68          0.00233     0.31799   
  1792. BD*(   1) C  18 - C  19          0.00604     0.24563   
  1793. BD*(   1) C  18 - H  69          0.00543     0.32968   
  1794. BD*(   1) C  18 - H  70          0.00594     0.31605   
  1795. BD*(   1) C  19 - C  20          0.04023     0.25491   
  1796. BD*(   1) C  19 - H  71          0.00581     0.29583   
  1797. BD*(   1) C  19 - H  72          0.00672     0.29458   
  1798. BD*(   1) C  20 - O  21          0.02306     0.44224   
  1799. BD*(   2) C  20 - O  21          0.08251    -0.07427   
  1800. BD*(   1) C  20 - O  22          0.03458     0.41242   
  1801. BD*(   1) O  22 - H  73          0.00718     0.28847   
  1802. BD*(   1) C  23 - C  24          0.01707     0.37695   
  1803. BD*(   1) C  23 - N  48          0.01448     0.34826   
  1804. BD*(   2) C  23 - N  48          0.32543    -0.12894  1770(v),1806(v),1774(v)
                                                    773(g),197(r),198(r),434(v)
                                                    436(v),196(r),194(r)
  1805. BD*(   1) C  24 - C  25          0.00952     0.51898   
  1806. BD*(   2) C  24 - C  25          0.10341    -0.03588  1774(v),1804(v),1812(v)
                                                    1814(v)
  1807. BD*(   1) C  24 - C  27          0.00894     0.25236   
  1808. BD*(   1) C  25 - C  26          0.01702     0.37266   
  1809. BD*(   1) C  25 - C  28          0.01613     0.26619   
  1810. BD*(   1) C  26 - N  48          0.01435     0.36352   
  1811. BD*(   1) C  27 - H  87          0.00292     0.31601   
  1812. BD*(   1) C  27 - H  88          0.00381     0.31354   
  1813. BD*(   1) C  27 - H  89          0.00244     0.31307   
  1814. BD*(   1) C  28 - C  29          0.00416     0.47741   
  1815. BD*(   1) C  28 - H  90          0.01017     0.31119   
  1816. BD*(   1) C  28 - H  91          0.01015     0.30863   
  1817. BD*(   1) C  29 - H  92          0.00612     0.33236   
  1818. BD*(   1) C  29 - H  93          0.00675     0.32611   
  1819. BD*(   1) C  29 - H  94          0.00666     0.32602   
  1820. BD*(   1) C  30 - C  31          0.01715     0.38497   
  1821. BD*(   1) C  30 - N  49          0.01370     0.34869   
  1822. BD*(   2) C  30 - N  49          0.31361    -0.12388  1774(v),1824(v),1778(v)
                                                    955(g),192(r),460(v),1447(g)
                                                    198(r),196(r),197(r),195(r)
                                                    193(r)
  1823. BD*(   1) C  31 - C  32          0.00992     0.52727   
  1824. BD*(   2) C  31 - C  32          0.10361    -0.03068  1778(v),1822(v),1833(v)
                                                    1829(v)
  1825. BD*(   1) C  31 - C  34          0.00942     0.26275   
  1826. BD*(   1) C  32 - C  33          0.01725     0.38155   
  1827. BD*(   1) C  32 - C  35          0.01450     0.28064   
  1828. BD*(   1) C  33 - N  49          0.01393     0.35755   
  1829. BD*(   1) C  34 - H  84          0.00448     0.31732   
  1830. BD*(   1) C  34 - H  85          0.00467     0.33331   
  1831. BD*(   1) C  34 - H  86          0.00296     0.31349   
  1832. BD*(   1) C  35 - C  36          0.00398     0.48172   
  1833. BD*(   1) C  35 - H  79          0.00950     0.32071   
  1834. BD*(   1) C  35 - H  80          0.00796     0.31882   
  1835. BD*(   1) C  36 - H  81          0.00474     0.32661   
  1836. BD*(   1) C  36 - H  82          0.00535     0.33862   
  1837. BD*(   1) C  36 - H  83          0.00603     0.33062   
  1838. BD*(   1) C  37 - C  38          0.01550     0.37332   
  1839. BD*(   1) C  37 - N  50          0.01395     0.34361   
  1840. BD*(   2) C  37 - N  50          0.33514    -0.12296  1778(v),1842(v),180(v)
                                                    1137(g),197(r),486(v),198(r)
                                                    1473(g),193(r),196(r),194(r)
  1841. BD*(   1) C  38 - C  39          0.01226     0.32117   
  1842. BD*(   2) C  38 - C  39          0.13801    -0.07614  1840(v),180(v),1847(v)
                                                    1850(v)
  1843. BD*(   1) C  38 - C  41          0.00626     0.26780   
  1844. BD*(   1) C  39 - C  40          0.01597     0.37959   
  1845. BD*(   1) C  39 - C  42          0.00916     0.26395   
  1846. BD*(   1) C  40 - N  50          0.01408     0.35852   
  1847. BD*(   1) C  41 - H  63          0.00466     0.31548   
  1848. BD*(   1) C  41 - H  64          0.00312     0.32204   
  1849. BD*(   1) C  41 - H  65          0.00284     0.31586   
  1850. BD*(   1) C  42 - C  43          0.00590     0.25315   
  1851. BD*(   1) C  42 - H  77          0.00655     0.31476   
  1852. BD*(   1) C  42 - H  78          0.00665     0.32785   
  1853. BD*(   1) C  43 - C  44          0.03711     0.28096   
  1854. BD*(   1) C  43 - H  75          0.00766     0.29535   
  1855. BD*(   1) C  43 - H  76          0.00615     0.31218   
  1856. BD*(   1) C  44 - O  45          0.03266     0.39191   
  1857. BD*(   2) C  44 - O  45          0.09343    -0.01430   
  1858. BD*(   1) C  44 - O  46          0.03804     0.38766   
  1859. BD*(   1) O  46 - H  74          0.00620     0.29503   
       -------------------------------
              Total Lewis  146.79852  ( 97.6309%)
        Valence non-Lewis    3.27897  (  2.1807%)
        Rydberg non-Lewis    0.28318  (  0.1883%)
       -------------------------------
            Total unit  2  150.36067  (100.0000%)
           Charge unit  2   -0.36067

 Molecular unit  3  (Fe)
   165. CR (   1)Fe  51                  1.00000  -250.27742  1763(r),1810(r),1782(r)
                                                    1803(r),1828(r),1788(r)
                                                    1839(r),1821(r),1846(r)
   166. CR (   2)Fe  51                  1.00000   -35.03011  1810(r),1763(r),1782(r)
                                                    1803(r),1788(r),1828(r)
                                                    1839(r),1821(r),1846(r)
   167. CR (   3)Fe  51                  0.99788    -4.83637  193(g),196(g),1763(r)
                                                    1810(r),1782(r),1828(r)
                                                    1788(r),1803(r),1839(r)
                                                    1821(r),1846(r),198(g)
                                                    1822(r),1764(r),1802(r)
                                                    1773(r),1771(r),1765(r)
                                                    1844(r),1820(r),1769(r)
                                                    1786(r),1781(r),1808(r)
                                                    1777(r),1775(r),1767(r)
   168. CR (   4)Fe  51                  1.00000   -25.98244   
   169. CR (   5)Fe  51                  0.99920    -2.35303  1788(r),1828(r),1803(r)
                                                    1839(r),1782(r),1822(r)
   170. CR (   6)Fe  51                  1.00000   -25.97962   
   171. CR (   7)Fe  51                  0.99927    -2.35043  1810(r),1782(r),1846(r)
                                                    1821(r),1822(r),1763(r)
                                                    1839(r)
   172. CR (   8)Fe  51                  1.00000   -25.96770   
   173. CR (   9)Fe  51                  0.99914    -2.32617  198(g),1763(r),1804(r)
                                                    1840(r)
   190. LP (   1)Fe  51                  0.98430    -0.34241  1396(r),1499(g),1473(r)
                                                    1421(r),1448(r),1422(r)
                                                    1447(r),1474(r),1803(r)
                                                    1810(r),1782(r),1788(r)
                                                    193(g),1839(r),1821(r)
                                                    1846(r),1828(r),1515(g)
                                                    381(r),1395(r),1741(r)
                                                    1475(r),1743(r),1763(r)
                                                    771(r),589(r),1424(r)
                                                    1449(r),1135(r),1143(r)
                                                    1398(r),1222(r),1764(r)
                                                    1220(r)
   191. LP (   2)Fe  51                  0.97072    -0.33795  1395(r),193(g),1422(r)
                                                    1822(r),1421(r),1474(r)
                                                    1447(r),1473(r),1424(r)
                                                    1840(r),1763(r),1500(g)
                                                    381(r),1397(r),1804(r)
                                                    1448(r),1423(r),1449(r)
                                                    1398(r),180(r),1476(r)
                                                    1741(r),1478(r),382(r)
                                                    849(r),1744(r),1743(r)
                                                    771(r),1764(r),1456(r)
                                                    1774(r),511(r),774(r),589(r)
                                                    1450(r),852(r),1766(r)
                                                    384(r)
   192. LP*(   3)Fe  51                  0.27475    -0.19275  1506(g),1822(r),1449(r)
                                                    1474(r),1397(r),1450(r)
                                                    1395(r),1398(r),1424(r)
                                                    1476(r),1422(r),1475(r)
                                                    1423(r),1031(r),1447(r)
                                                    1135(r),1771(r),1213(r)
                                                    1769(r),1810(r),511(r)
                                                    1773(r),487(r),1478(r)
                                                    1839(r),1765(r),1767(r)
                                                    1453(r),953(r),1775(r)
                                                    1828(r),461(r),382(r)
   193. LP*(   4)Fe  51                  0.14908     0.01905  196(g),198(g),1504(g)
                                                    1422(r),383(r),1397(r)
                                                    1395(r),1449(r),1474(r)
                                                    1423(r),1505(g),197(g)
                                                    1764(r),1518(g),1475(r)
                                                    1424(r),1810(r),1450(r)
                                                    1398(r),1782(r),1821(r)
                                                    1741(r),1396(r),849(r)
                                                    1846(r),1476(r),589(r)
                                                    1828(r),355(r),771(r),511(r)
                                                    1551(r),1447(r),1788(r)
                                                    382(r),1839(r),774(r)
                                                    1763(r),1135(r),1561(r)
                                                    592(r),381(r),1803(r),591(r)
                                                    1478(r),1421(r),518(r)
                                                    514(r),956(r),1216(r)
                                                    1220(r),1031(r),1571(r)
                                                    852(r),1566(r),1136(r)
                                                    1473(r),1452(r),851(r)
                                                    599(r),781(r),1213(r)
                                                    1038(r),424(r),384(r)
                                                    1139(r),1840(r),1576(r)
                                                    437(r),1034(r),1032(r)
                                                    1459(r),410(r),364(r)
                                                    1187(r),777(r),953(r),407(r)
                                                    1744(r),590(r),597(r),963(r)
                                                    358(r),1765(r),489(r),459(r)
                                                    1773(r),538(r),512(r),960(r)
                                                    1453(r)
   194. LP*(   5)Fe  51                  0.09369     0.30585   
   195. LP*(   6)Fe  51                  0.09224     0.38208   
   196. LP*(   7)Fe  51                  0.08688     0.16740   
   197. LP*(   8)Fe  51                  0.05605    -0.05543   
   198. LP*(   9)Fe  51                  0.03358     0.07116   
  1499. RY*(   1)Fe  51                  0.00347     1.44917   
  1500. RY*(   2)Fe  51                  0.00139     0.65315   
  1501. RY*(   3)Fe  51                  0.00114     0.56954   
  1502. RY*(   4)Fe  51                  0.00066     0.96444   
  1503. RY*(   5)Fe  51                  0.00036     0.69863   
  1504. RY*(   6)Fe  51                  0.00027     1.35238   
  1505. RY*(   7)Fe  51                  0.00020     1.04795   
  1506. RY*(   8)Fe  51                  0.00011     2.83470   
  1507. RY*(   9)Fe  51                  0.00008     1.69389   
  1508. RY*(  10)Fe  51                  0.00006     2.02305   
  1509. RY*(  11)Fe  51                  0.00004     1.85126   
  1510. RY*(  12)Fe  51                  0.00004     2.28506   
  1511. RY*(  13)Fe  51                  0.00005     1.92565   
  1512. RY*(  14)Fe  51                  0.00004     3.97506   
  1513. RY*(  15)Fe  51                  0.00004     3.87739   
  1514. RY*(  16)Fe  51                  0.00001     1.90327   
  1515. RY*(  17)Fe  51                  0.00000     2.55272   
  1516. RY*(  18)Fe  51                  0.00001     2.16544   
  1517. RY*(  19)Fe  51                  0.00001     4.02630   
  1518. RY*(  20)Fe  51                  0.00001     2.51407   
  1519. RY*(  21)Fe  51                  0.00001     2.17917   
  1520. RY*(  22)Fe  51                  0.00001     2.92823   
  1521. RY*(  23)Fe  51                  0.00000     2.93505   
  1522. RY*(  24)Fe  51                  0.00000     3.99041   
  1523. RY*(  25)Fe  51                  0.00001     4.06625   
  1524. RY*(  26)Fe  51                  0.00001     4.20299   
  1525. RY*(  27)Fe  51                  0.00001     4.15308   
       -------------------------------
              Total Lewis   10.95050  ( 93.2368%)
        Valence non-Lewis    0.78628  (  6.6947%)
        Rydberg non-Lewis    0.00804  (  0.0685%)
       -------------------------------
            Total unit  3   11.74482  (100.0000%)
           Charge unit  3    1.25518
 1\1\GINC-NODE526\SP\UPBE1PBE\def2TZVP\C41H44Fe1N4O5(1+,2)\ZHARTOVSKA\0
 3-Nov-2022\0\\# PBE1PBE/def2TZVP empiricaldispersion=GD3BJ scf=maxcycl
 e=999 geom=check pop=nbo guess=read\\2oyy_III_D\\1,2\C,0,-9.798,9.567,
 15.464\C,0,-10.572,10.224,14.346\C,0,-11.964,10.299,14.396\C,0,-9.92,1
 0.785,13.233\C,0,-12.695,10.906,13.365\C,0,-10.646,11.407,12.204\C,0,-
 12.03,11.46,12.279\O,0,-12.773,12.062,11.295\C,0,-15.456,14.809,9.857\
 C,0,-12.225,12.768,6.963\C,0,-12.602,8.644,9.439\C,0,-16.236,10.516,12
 .035\C,0,-14.536,14.635,8.864\C,0,-14.104,15.652,7.922\C,0,-13.201,15.
 086,7.114\C,0,-13.05,13.7,7.529\C,0,-12.439,15.754,5.946\C,0,-14.611,1
 7.115999,7.899\C,0,-13.952,17.922001,9.031\C,0,-14.447,19.354,9.039\O,
 0,-14.57,19.983,7.957\O,0,-14.731,19.879999,10.138\C,0,-12.06,11.467,7
 .375\C,0,-11.216,10.499,6.719\C,0,-11.311,9.349,7.403\C,0,-12.227,9.56
 8,8.502\C,0,-10.372,10.787,5.453\C,0,-10.582,8.021,7.09\C,0,-11.283755
 47,7.32876603,6.15999009\C,0,-13.605,8.807,10.369\C,0,-14.005,7.821,11
 .341\C,0,-15.013,8.328,12.061\C,0,-15.281,9.658,11.559\C,0,-13.342,6.4
 35,11.479\C,0,-15.758,7.67,13.235\C,0,-15.93524936,6.35172888,12.97555
 643\C,0,-16.363001,11.84,11.68\C,0,-17.370001,12.733,12.204\C,0,-17.12
 4001,14.046,11.519\C,0,-15.992,13.838,10.657\C,0,-18.482,12.454,13.226
 \C,0,-17.924,15.343,11.748\C,0,-17.15,16.049999,12.86\C,0,-17.771999,1
 7.357,13.25\O,0,-18.888,17.295,13.836\O,0,-17.142,18.426001,12.985\N,0
 ,-13.868,13.46,8.599\N,0,-12.663,10.866,8.462\N,0,-14.405,9.927,10.528
 \N,0,-15.562,12.528,10.769\Fe,0,-13.949,11.765,9.678\H,0,-8.86501856,1
 0.07356498,15.5975573\H,0,-10.36538307,9.61984555,16.36964\H,0,-9.6152
 0081,8.54208922,15.21693251\H,0,-8.85298002,10.73709658,13.16917502\H,
 0,-10.13495082,11.83698145,11.36803069\H,0,-13.76322137,10.94231674,13
 .41484172\H,0,-12.48289756,9.8861245,15.23574945\H,0,-15.79322632,15.8
 1006832,10.02741312\H,0,-11.65145596,13.08225846,6.11612996\H,0,-12.07
 063392,7.71533258,9.45026587\H,0,-16.94037542,10.12596611,12.73971898\
 H,0,-18.13761199,12.70922065,14.20638733\H,0,-19.34285814,13.04239052,
 12.98595863\H,0,-18.74023506,11.41601569,13.19765891\H,0,-11.50303124,
 15.25648972,5.79989734\H,0,-13.02344933,15.68396244,5.05246\H,0,-12.26
 324028,16.78378207,6.17742474\H,0,-14.36545405,17.56129311,6.95755412\
 H,0,-15.6730101,17.12530687,8.02918418\H,0,-12.89094771,17.91813641,8.
 89296699\H,0,-14.18567563,17.46457203,9.969645\H,0,-14.03028509,20.163
 29122,10.72989875\H,0,-16.18200771,18.42973429,12.98407454\H,0,-16.149
 78671,16.22941527,12.52491319\H,0,-17.11836401,15.41228011,13.71861155
 \H,0,-17.93605347,15.93957399,10.85982536\H,0,-18.92061415,15.11920119
 ,12.06670729\H,0,-15.18330663,7.78315809,14.13044557\H,0,-16.71095896,
 8.13998775,13.36101877\H,0,-15.37548305,5.77137634,13.67894295\H,0,-16
 .97387691,6.10834964,13.05873918\H,0,-15.59633561,6.13461792,11.984143
 15\H,0,-12.39986347,6.53815839,11.97562571\H,0,-13.97754988,5.79087255
 ,12.0500308\H,0,-13.18870667,6.014591,10.50706511\H,0,-9.44512069,10.2
 5587358,5.51382325\H,0,-10.91009645,10.46711792,4.58522833\H,0,-10.177
 60857,11.83700636,5.38518697\H,0,-9.60269785,8.2317608,6.71390535\H,0,
 -10.50298644,7.43822603,7.98388554\H,0,-10.94092925,6.31546187,6.13580
 617\H,0,-12.32372573,7.34754984,6.41100607\H,0,-11.14068341,7.77673212
 ,5.19886742\H,0,-12.18536314,12.4581693,10.64744088\\Version=ES64L-G16
 RevA.03\State=2-A\HF=-3445.654402\S2=1.64134\S2-1=0.\S2A=0.951492\RMSD
 =2.924e-10\Dipole=3.5293839,-2.671582,0.1340264\Quadrupole=-12.4974623
 ,8.4610649,4.0363974,14.3020932,-8.1312889,-3.2965891\PG=C01 [X(C41H44
 Fe1N4O5)]\\@


 The best way to pay for a lovely moment is to enjoy it.
 -- Richard Bach
 Job cpu time:       0 days  2 hours 44 minutes 52.2 seconds.
 Elapsed time:       0 days  0 hours 41 minutes 19.6 seconds.
 File lengths (MBytes):  RWF=   3148 Int=      0 D2E=      0 Chk=    265 Scr=      1
 Normal termination of Gaussian 16 at Thu Nov  3 12:13:21 2022.
