 Entering Gaussian System, Link 0=g16
 Input=/net/work/kleich/bench/splitthejobs/2v07/2v0701/2v0701.com
 Output=/net/work/kleich/bench/splitthejobs/2v07/2v0701/2v0701.log
 Initial command:
 /afs/math/software/gaussian/g16.A03/g16/l1.exe "/scratch/kleich_gaussian.PgkRiZT/Gau-15950.inp" -scrdir="/scratch/kleich_gaussian.PgkRiZT/"
 Entering Link 1 = /afs/math/software/gaussian/g16.A03/g16/l1.exe PID=     15951.
  
 Copyright (c) 1988,1990,1992,1993,1995,1998,2003,2009,2016,
            Gaussian, Inc.  All Rights Reserved.
  
 This is part of the Gaussian(R) 16 program.  It is based on
 the Gaussian(R) 09 system (copyright 2009, Gaussian, Inc.),
 the Gaussian(R) 03 system (copyright 2003, Gaussian, Inc.),
 the Gaussian(R) 98 system (copyright 1998, Gaussian, Inc.),
 the Gaussian(R) 94 system (copyright 1995, Gaussian, Inc.),
 the Gaussian 92(TM) system (copyright 1992, Gaussian, Inc.),
 the Gaussian 90(TM) system (copyright 1990, Gaussian, Inc.),
 the Gaussian 88(TM) system (copyright 1988, Gaussian, Inc.),
 the Gaussian 86(TM) system (copyright 1986, Carnegie Mellon
 University), and the Gaussian 82(TM) system (copyright 1983,
 Carnegie Mellon University). Gaussian is a federally registered
 trademark of Gaussian, Inc.
  
 This software contains proprietary and confidential information,
 including trade secrets, belonging to Gaussian, Inc.
  
 This software is provided under written license and may be
 used, copied, transmitted, or stored only in accord with that
 written license.
  
 The following legend is applicable only to US Government
 contracts under FAR:
  
                    RESTRICTED RIGHTS LEGEND
  
 Use, reproduction and disclosure by the US Government is
 subject to restrictions as set forth in subparagraphs (a)
 and (c) of the Commercial Computer Software - Restricted
 Rights clause in FAR 52.227-19.
  
 Gaussian, Inc.
 340 Quinnipiac St., Bldg. 40, Wallingford CT 06492
  
  
 ---------------------------------------------------------------
 Warning -- This program may not be used in any manner that
 competes with the business of Gaussian, Inc. or will provide
 assistance to any competitor of Gaussian, Inc.  The licensee
 of this program is prohibited from giving any competitor of
 Gaussian, Inc. access to this program.  By using this program,
 the user acknowledges that Gaussian, Inc. is engaged in the
 business of creating and licensing software in the field of
 computational chemistry and represents and warrants to the
 licensee that it is not a competitor of Gaussian, Inc. and that
 it will not use this program in any manner prohibited above.
 ---------------------------------------------------------------
  

 Cite this work as:
 Gaussian 16, Revision A.03,
 M. J. Frisch, G. W. Trucks, H. B. Schlegel, G. E. Scuseria, 
 M. A. Robb, J. R. Cheeseman, G. Scalmani, V. Barone, 
 G. A. Petersson, H. Nakatsuji, X. Li, M. Caricato, A. V. Marenich, 
 J. Bloino, B. G. Janesko, R. Gomperts, B. Mennucci, H. P. Hratchian, 
 J. V. Ortiz, A. F. Izmaylov, J. L. Sonnenberg, D. Williams-Young, 
 F. Ding, F. Lipparini, F. Egidi, J. Goings, B. Peng, A. Petrone, 
 T. Henderson, D. Ranasinghe, V. G. Zakrzewski, J. Gao, N. Rega, 
 G. Zheng, W. Liang, M. Hada, M. Ehara, K. Toyota, R. Fukuda, 
 J. Hasegawa, M. Ishida, T. Nakajima, Y. Honda, O. Kitao, H. Nakai, 
 T. Vreven, K. Throssell, J. A. Montgomery, Jr., J. E. Peralta, 
 F. Ogliaro, M. J. Bearpark, J. J. Heyd, E. N. Brothers, K. N. Kudin, 
 V. N. Staroverov, T. A. Keith, R. Kobayashi, J. Normand, 
 K. Raghavachari, A. P. Rendell, J. C. Burant, S. S. Iyengar, 
 J. Tomasi, M. Cossi, J. M. Millam, M. Klene, C. Adamo, R. Cammi, 
 J. W. Ochterski, R. L. Martin, K. Morokuma, O. Farkas, 
 J. B. Foresman, and D. J. Fox, Gaussian, Inc., Wallingford CT, 2016.
 
 ******************************************
 Gaussian 16:  ES64L-G16RevA.03 25-Dec-2016
                18-Sep-2022 
 ******************************************
 %nprocs=12
 Will use up to   12 processors via shared memory.
 %mem=16GB
 %chk=2v07_II_S.chk
 ----------------------------------------------------------------------
 # PBE1PBE/def2TZVP empiricaldispersion=GD3BJ int=(grid=ultrafine) geom
 =check guess=read pop=nbo
 ----------------------------------------------------------------------
 1/29=2,38=1,172=1/1;
 2/12=2,40=1/2;
 3/5=44,7=101,11=2,14=-4,25=1,30=1,74=-13,75=-5,116=-2,124=41/1,2,3;
 4/5=1/1;
 5/5=2,38=6/2;
 6/7=2,8=2,9=2,10=2,28=1,40=1/1,7;
 99/5=1,9=1/99;
 -------------
 2v07_II_S_nbo
 -------------
 Structure from the checkpoint file:  "2v07_II_S.chk"
 Charge =  0 Multiplicity = 1
 Z-Matrix found in chk file.
 C,0,19.31,-18.566,20.036
 C,0,19.862,-19.718,19.248
 N,0,21.133,-20.196,19.454
 C,0,19.335,-20.466,18.244
 C,0,21.372,-21.198,18.617
 N,0,20.306,-21.37,17.855
 C,0,21.268,-26.36,14.954
 C,0,20.836,-25.248,13.998
 S,0,19.563,-24.21,14.646
 C,0,18.971,-23.364,13.215
 Fe,0,20.044,-22.673,16.351
 C,0,23.427,-23.259,16.142
 C,0,20.379,-20.037,14.221
 C,0,16.633,-22.302,16.288
 C,0,19.732,-25.058,18.706
 N,0,21.592,-21.835,15.357
 C,0,22.929,-22.196,15.445
 C,0,23.716,-21.253,14.673
 C,0,22.869,-20.378,14.119
 C,0,21.51,-20.718,14.541
 C,0,23.219,-19.187,13.215
 C,0,25.251,-21.313,14.578
 C,0,25.839,-20.816,15.905
 C,0,27.343,-20.976,16.007
 O,0,27.909,-21.789,15.233
 O,0,27.981,-20.318,16.902
 N,0,18.738,-21.419,15.446
 C,0,19.097,-20.373,14.631
 C,0,17.892,-19.7,14.208
 C,0,16.847,-20.33,14.771
 C,0,17.372,-21.429,15.546
 C,0,17.916,-18.486,13.271
 C,0,15.349,-20.071,14.594
 C,0,14.937,-20.186,13.293
 N,0,18.461,-23.518,17.311
 C,0,17.147,-23.218,17.15
 C,0,16.387,-24.015,18.098
 C,0,17.243,-24.788,18.779
 C,0,18.572,-24.486,18.28
 C,0,14.876,-23.957,18.249
 C,0,16.934,-25.784,19.901
 C,0,15.978,-26.724,19.784
 N,0,21.344,-23.921,17.258
 C,0,20.959,-24.892,18.174
 C,0,22.095,-25.74,18.503
 C,0,23.221,-25.194,17.691
 C,0,22.694,-24.076,16.966
 C,0,22.126,-26.956,19.441
 C,0,24.633,-25.775,17.674
 C,0,24.649,-26.905,16.636
 C,0,26.007,-27.59,16.542
 O,0,26.229,-28.393,15.615
 O,0,26.876,-27.363,17.394
 H,0,18.69588043,-17.9616168,19.40158837
 H,0,20.11679155,-17.97627665,20.41837909
 H,0,18.7238086,-18.93884864,20.84979576
 H,0,18.35215653,-20.37294573,17.83137473
 H,0,22.27503937,-21.76981705,18.56755147
 H,0,22.14320354,-26.84079558,14.56961167
 H,0,21.48410112,-25.94070726,15.9144134
 H,0,20.47905825,-27.07680167,15.04709283
 H,0,20.40829078,-25.74090735,13.15005709
 H,0,21.6925391,-24.61858986,13.87518448
 H,0,18.32338451,-22.56663084,13.51449389
 H,0,18.43099686,-24.04802106,12.59418457
 H,0,19.79965513,-22.96436985,12.66862428
 H,0,24.47041554,-23.47186812,16.0377351
 H,0,20.48565692,-19.1706565,13.60215169
 H,0,15.56880874,-22.26290086,16.18374929
 H,0,19.66184279,-25.70817764,19.55290437
 H,0,22.31878791,-18.75123154,12.83470533
 H,0,23.82431295,-19.52395494,12.39955067
 H,0,23.75777106,-18.45595225,13.78085769
 H,0,25.54533352,-20.61331695,13.82387042
 H,0,25.51852378,-22.34476436,14.48422723
 H,0,25.42600106,-21.44878447,16.66257224
 H,0,25.65515154,-19.7621943,15.92935762
 H,0,16.91490785,-18.15233342,13.09385284
 H,0,18.36981406,-18.76142053,12.34197022
 H,0,18.48002154,-17.69730667,13.72348485
 H,0,15.12768929,-19.08256047,14.93883164
 H,0,15.55364565,-20.89788817,12.78519751
 H,0,13.91898758,-20.51459357,13.2689794
 H,0,14.56010682,-24.69188594,18.95967162
 H,0,14.58871593,-22.9843583,18.5900806
 H,0,14.41525625,-24.15391697,17.30356946
 H,0,17.49759236,-25.73054597,20.80896823
 H,0,15.40352635,-26.79369589,18.8839875
 H,0,15.79240037,-27.4016565,20.59099098
 H,0,23.13817859,-27.27444351,19.57879778
 H,0,21.70464327,-26.68742956,20.38716511
 H,0,21.55677244,-27.75318065,19.01043874
 H,0,24.80377746,-26.22136791,18.63133523
 H,0,25.2874811,-25.00737506,17.31719972
 H,0,24.48451422,-26.43926211,15.68682528
 H,0,23.96581868,-27.64687309,16.99347392
 H,0,27.80506974,-27.42523148,17.16042634
 H,0,28.86746391,-21.82831723,15.19556883
 H,0,21.7791892,-19.8432351,20.13075435
 H,0,15.01647167,-19.23536762,12.8083534
 H,0,14.8055584,-20.77381571,15.19033992
 Recover connectivity data from disk.
 Center=     20.63270410    -22.78634843     16.33891383
 Residue   0                        charge    0.00000000 layers R        AvRTP=      1.42638797     43.36013034     99.76088908
 Residue   4                        charge    0.00000000 layers R        AvRTP=      0.00000000      0.00000000      0.00000000
 Residue   2 PDB Number    60_A MET charge    0.00000000 layers R        AvRTP=      3.17274967    260.67716879    137.16680796
 Residue   3 PDB Number  1102_A HEC charge    0.00000000 layers R        AvRTP=      0.18161309    299.92294354     97.21555089
 Residue   1 PDB Number    20_A HIS charge    0.00000000 layers R        AvRTP=      4.10169257    103.10738699     46.95863707
 Stoichiometry    C41H48FeN6O4S
 Framework group  C1[X(C41H48FeN6O4S)]
 Deg. of freedom   297
 Full point group                 C1      NOp   1
 Largest Abelian subgroup         C1      NOp   1
 Largest concise Abelian subgroup C1      NOp   1
                         Standard orientation:                         
 ---------------------------------------------------------------------
 Center     Atomic      Atomic             Coordinates (Angstroms)
 Number     Number       Type             X           Y           Z
 ---------------------------------------------------------------------
      1          6           0        2.644068   -1.585285    4.965724
      2          6           0        1.804293   -1.106549    3.817534
      3          7           0        0.450037   -0.912954    3.939492
      4          6           0        2.113948   -0.809797    2.528619
      5          6           0       -0.047469   -0.508556    2.777320
      6          7           0        0.936052   -0.458039    1.896003
      7          6           0       -1.329303    2.201808   -2.798114
      8          6           0       -0.605716    0.915390   -3.196431
      9         16           0        0.897720    0.643730   -2.311130
     10          6           0        1.705736   -0.598781   -3.268844
     11         26           0        0.842731    0.013503   -0.052691
     12          6           0       -2.570892   -0.407909   -0.089486
     13          6           0        1.249349   -3.302958   -0.710999
     14          6           0        4.226438    0.497914   -0.356674
     15          6           0        0.480902    3.215656    0.920391
     16          7           0       -0.413346   -1.538952   -0.366911
     17          6           0       -1.798622   -1.515922   -0.288706
     18          6           0       -2.295121   -2.869238   -0.451881
     19          6           0       -1.238941   -3.665821   -0.651600
     20          6           0       -0.026030   -2.849501   -0.596511
     21          6           0       -1.246718   -5.185369   -0.873209
     22          6           0       -3.788045   -3.235694   -0.376122
     23          6           0       -4.226518   -3.183248    1.093120
     24          6           0       -5.717942   -3.365306    1.294438
     25          8           0       -6.479116   -3.171864    0.312809
     26          8           0       -6.158246   -3.663263    2.459937
     27          7           0        2.445694   -1.157446   -0.448377
     28          6           0        2.389319   -2.514355   -0.655359
     29          6           0        3.734335   -2.991000   -0.873586
     30          6           0        4.565420   -1.938615   -0.785959
     31          6           0        3.756926   -0.770200   -0.530629
     32          6           0        4.046720   -4.466222   -1.153722
     33          6           0        6.078420   -1.877185   -1.008381
     34          6           0        6.451217   -2.285307   -2.261389
     35          7           0        2.130786    1.564584    0.224037
     36          6           0        3.477771    1.553847    0.056604
     37          6           0        3.986951    2.858384    0.444458
     38          6           0        2.949098    3.625170    0.803520
     39          6           0        1.755175    2.812600    0.659559
     40          6           0        5.455909    3.246796    0.420270
     41          6           0        2.969159    5.070415    1.310713
     42          6           0        3.634288    6.048084    0.668069
     43          7           0       -0.752837    1.181739    0.346733
     44          6           0       -0.651642    2.528218    0.673649
     45          6           0       -1.977284    3.126731    0.721598
     46          6           0       -2.907700    2.010105    0.385728
     47          6           0       -2.092408    0.849306    0.182941
     48          6           0       -2.343145    4.590747    1.008413
     49          6           0       -4.424344    2.153149    0.281205
     50          6           0       -4.740876    2.627023   -1.143523
     51          6           0       -6.233377    2.835802   -1.369524
     52          8           0       -6.659902    3.033099   -2.523895
     53          8           0       -7.012893    2.828326   -0.407810
     54          1           0        3.403046   -2.245725    4.601482
     55          1           0        2.025759   -2.105027    5.667480
     56          1           0        3.102074   -0.746391    5.446753
     57          1           0        3.087463   -0.842226    2.085767
     58          1           0       -1.071642   -0.264687    2.586278
     59          1           0       -2.299993    2.218958   -3.247964
     60          1           0       -1.428877    2.239999   -1.733442
     61          1           0       -0.765487    3.046848   -3.134147
     62          1           0       -0.323174    1.043681   -4.220448
     63          1           0       -1.258166    0.114415   -2.917776
     64          1           0        2.543967   -0.980154   -2.724028
     65          1           0        2.043064   -0.174772   -4.191517
     66          1           0        1.020123   -1.394824   -3.471703
     67          1           0       -3.632255   -0.529095   -0.150504
     68          1           0        1.385829   -4.354275   -0.855935
     69          1           0        5.261771    0.674841   -0.560838
     70          1           0        0.366733    4.180443    1.368780
     71          1           0       -0.259745   -5.514398   -1.123258
     72          1           0       -1.916072   -5.425802   -1.672619
     73          1           0       -1.569756   -5.674692    0.021838
     74          1           0       -3.876689   -4.253883   -0.692876
     75          1           0       -4.325423   -2.466637   -0.890591
     76          1           0       -4.005513   -2.191516    1.428567
     77          1           0       -3.763266   -4.023743    1.566265
     78          1           0        5.101832   -4.589210   -1.282221
     79          1           0        3.540547   -4.775087   -2.044391
     80          1           0        3.715714   -5.063550   -0.329990
     81          1           0        6.558085   -2.503650   -0.285634
     82          1           0        5.667241   -2.066180   -2.955842
     83          1           0        7.341688   -1.769406   -2.554320
     84          1           0        5.555984    4.279930    0.680115
     85          1           0        5.994789    2.648066    1.124565
     86          1           0        5.851273    3.085880   -0.560899
     87          1           0        2.436041    5.310923    2.206727
     88          1           0        4.173416    5.827746   -0.229535
     89          1           0        3.623975    7.045723    1.054734
     90          1           0       -3.404559    4.679754    1.110290
     91          1           0       -1.870169    4.905531    1.915112
     92          1           0       -2.009565    5.206775    0.199628
     93          1           0       -4.715609    2.937406    0.948293
     94          1           0       -4.843412    1.174703    0.390401
     95          1           0       -4.450448    1.828559   -1.793913
     96          1           0       -4.287193    3.590853   -1.244034
     97          1           0       -7.922515    2.546541   -0.529406
     98          1           0       -7.411938   -3.388907    0.378647
     99          1           0       -0.079852   -1.054898    4.775595
    100          1           0        6.635988   -3.339199   -2.252979
    101          1           0        6.406854   -0.869274   -0.862967
 ---------------------------------------------------------------------
 Rotational constants (GHZ):           0.0664463           0.0435039           0.0340808
 Standard basis: def2TZVP (5D, 7F)
 There are  2218 symmetry adapted cartesian basis functions of A   symmetry.
 There are  1951 symmetry adapted basis functions of A   symmetry.
  1951 basis functions,  3156 primitive gaussians,  2218 cartesian basis functions
   205 alpha electrons      205 beta electrons
       nuclear repulsion energy      8968.6430917394 Hartrees.
 NAtoms=  101 NActive=  101 NUniq=  101 SFac= 1.00D+00 NAtFMM=   60 NAOKFM=T Big=T
 Integral buffers will be    131072 words long.
 Raffenetti 2 integral format.
 Two-electron integral symmetry is turned on.
 Nuclear repulsion after empirical dispersion term =     8968.4911544101 Hartrees.
 One-electron integrals computed using PRISM.
   1 Symmetry operations used in ECPInt.
 ECPInt:  NShTT=  305371 NPrTT=  941867 LenC2=  224130 LenP2D=  447274.
 LDataN:  DoStor=T MaxTD1= 6 Len=  172
 NBasis=  1951 RedAO= T EigKep=  3.00D-06  NBF=  1951
 NBsUse=  1951 1.00D-06 EigRej= -1.00D+00 NBFU=  1951
 Initial guess from the checkpoint file:  "2v07_II_S.chk"
 B after Tr=     0.000000    0.000000   -0.000000
         Rot=    1.000000    0.000000   -0.000000   -0.000000 Ang=   0.00 deg.
 Requested convergence on RMS density matrix=1.00D-08 within 128 cycles.
 Requested convergence on MAX density matrix=1.00D-06.
 Requested convergence on             energy=1.00D-06.
 No special actions if energy rises.
 SCF Done:  E(RPBE1PBE) =  -3880.65700800     A.U. after    1 cycles
            NFock=  1  Conv=0.20D-08     -V/T= 2.0030
 Hyperfine terms turned off by default for NAtoms > 100.

 **********************************************************************

            Population analysis using the SCF density.

 **********************************************************************

 Orbital symmetries:
       Occupied  (A) (A) (A) (A) (A) (A) (A) (A) (A) (A) (A) (A)
                 (A) (A) (A) (A) (A) (A) (A) (A) (A) (A) (A) (A)
                 (A) (A) (A) (A) (A) (A) (A) (A) (A) (A) (A) (A)
                 (A) (A) (A) (A) (A) (A) (A) (A) (A) (A) (A) (A)
                 (A) (A) (A) (A) (A) (A) (A) (A) (A) (A) (A) (A)
                 (A) (A) (A) (A) (A) (A) (A) (A) (A) (A) (A) (A)
                 (A) (A) (A) (A) (A) (A) (A) (A) (A) (A) (A) (A)
                 (A) (A) (A) (A) (A) (A) (A) (A) (A) (A) (A) (A)
                 (A) (A) (A) (A) (A) (A) (A) (A) (A) (A) (A) (A)
                 (A) (A) (A) (A) (A) (A) (A) (A) (A) (A) (A) (A)
                 (A) (A) (A) (A) (A) (A) (A) (A) (A) (A) (A) (A)
                 (A) (A) (A) (A) (A) (A) (A) (A) (A) (A) (A) (A)
                 (A) (A) (A) (A) (A) (A) (A) (A) (A) (A) (A) (A)
                 (A) (A) (A) (A) (A) (A) (A) (A) (A) (A) (A) (A)
                 (A) (A) (A) (A) (A) (A) (A) (A) (A) (A) (A) (A)
                 (A) (A) (A) (A) (A) (A) (A) (A) (A) (A) (A) (A)
                 (A) (A) (A) (A) (A) (A) (A) (A) (A) (A) (A) (A)
                 (A)
       Virtual   (A) (A) (A) (A) (A) (A) (A) (A) (A) (A) (A) (A)
                 (A) (A) (A) (A) (A) (A) (A) (A) (A) (A) (A) (A)
                 (A) (A) (A) (A) (A) (A) (A) (A) (A) (A) (A) (A)
                 (A) (A) (A) (A) (A) (A) (A) (A) (A) (A) (A) (A)
                 (A) (A) (A) (A) (A) (A) (A) (A) (A) (A) (A) (A)
                 (A) (A) (A) (A) (A) (A) (A) (A) (A) (A) (A) (A)
                 (A) (A) (A) (A) (A) (A) (A) (A) (A) (A) (A) (A)
                 (A) (A) (A) (A) (A) (A) (A) (A) (A) (A) (A) (A)
                 (A) (A) (A) (A) (A) (A) (A) (A) (A) (A) (A) (A)
                 (A) (A) (A) (A) (A) (A) (A) (A) (A) (A) (A) (A)
                 (A) (A) (A) (A) (A) (A) (A) (A) (A) (A) (A) (A)
                 (A) (A) (A) (A) (A) (A) (A) (A) (A) (A) (A) (A)
                 (A) (A) (A) (A) (A) (A) (A) (A) (A) (A) (A) (A)
                 (A) (A) (A) (A) (A) (A) (A) (A) (A) (A) (A) (A)
                 (A) (A) (A) (A) (A) (A) (A) (A) (A) (A) (A) (A)
                 (A) (A) (A) (A) (A) (A) (A) (A) (A) (A) (A) (A)
                 (A) (A) (A) (A) (A) (A) (A) (A) (A) (A) (A) (A)
                 (A) (A) (A) (A) (A) (A) (A) (A) (A) (A) (A) (A)
                 (A) (A) (A) (A) (A) (A) (A) (A) (A) (A) (A) (A)
                 (A) (A) (A) (A) (A) (A) (A) (A) (A) (A) (A) (A)
                 (A) (A) (A) (A) (A) (A) (A) (A) (A) (A) (A) (A)
                 (A) (A) (A) (A) (A) (A) (A) (A) (A) (A) (A) (A)
                 (A) (A) (A) (A) (A) (A) (A) (A) (A) (A) (A) (A)
                 (A) (A) (A) (A) (A) (A) (A) (A) (A) (A) (A) (A)
                 (A) (A) (A) (A) (A) (A) (A) (A) (A) (A) (A) (A)
                 (A) (A) (A) (A) (A) (A) (A) (A) (A) (A) (A) (A)
                 (A) (A) (A) (A) (A) (A) (A) (A) (A) (A) (A) (A)
                 (A) (A) (A) (A) (A) (A) (A) (A) (A) (A) (A) (A)
                 (A) (A) (A) (A) (A) (A) (A) (A) (A) (A) (A) (A)
                 (A) (A) (A) (A) (A) (A) (A) (A) (A) (A) (A) (A)
                 (A) (A) (A) (A) (A) (A) (A) (A) (A) (A) (A) (A)
                 (A) (A) (A) (A) (A) (A) (A) (A) (A) (A) (A) (A)
                 (A) (A) (A) (A) (A) (A) (A) (A) (A) (A) (A) (A)
                 (A) (A) (A) (A) (A) (A) (A) (A) (A) (A) (A) (A)
                 (A) (A) (A) (A) (A) (A) (A) (A) (A) (A) (A) (A)
                 (A) (A) (A) (A) (A) (A) (A) (A) (A) (A) (A) (A)
                 (A) (A) (A) (A) (A) (A) (A) (A) (A) (A) (A) (A)
                 (A) (A) (A) (A) (A) (A) (A) (A) (A) (A) (A) (A)
                 (A) (A) (A) (A) (A) (A) (A) (A) (A) (A) (A) (A)
                 (A) (A) (A) (A) (A) (A) (A) (A) (A) (A) (A) (A)
                 (A) (A) (A) (A) (A) (A) (A) (A) (A) (A) (A) (A)
                 (A) (A) (A) (A) (A) (A) (A) (A) (A) (A) (A) (A)
                 (A) (A) (A) (A) (A) (A) (A) (A) (A) (A) (A) (A)
                 (A) (A) (A) (A) (A) (A) (A) (A) (A) (A) (A) (A)
                 (A) (A) (A) (A) (A) (A) (A) (A) (A) (A) (A) (A)
                 (A) (A) (A) (A) (A) (A) (A) (A) (A) (A) (A) (A)
                 (A) (A) (A) (A) (A) (A) (A) (A) (A) (A) (A) (A)
                 (A) (A) (A) (A) (A) (A) (A) (A) (A) (A) (A) (A)
                 (A) (A) (A) (A) (A) (A) (A) (A) (A) (A) (A) (A)
                 (A) (A) (A) (A) (A) (A) (A) (A) (A) (A) (A) (A)
                 (A) (A) (A) (A) (A) (A) (A) (A) (A) (A) (A) (A)
                 (A) (A) (A) (A) (A) (A) (A) (A) (A) (A) (A) (A)
                 (A) (A) (A) (A) (A) (A) (A) (A) (A) (A) (A) (A)
                 (A) (A) (A) (A) (A) (A) (A) (A) (A) (A) (A) (A)
                 (A) (A) (A) (A) (A) (A) (A) (A) (A) (A) (A) (A)
                 (A) (A) (A) (A) (A) (A) (A) (A) (A) (A) (A) (A)
                 (A) (A) (A) (A) (A) (A) (A) (A) (A) (A) (A) (A)
                 (A) (A) (A) (A) (A) (A) (A) (A) (A) (A) (A) (A)
                 (A) (A) (A) (A) (A) (A) (A) (A) (A) (A) (A) (A)
                 (A) (A) (A) (A) (A) (A) (A) (A) (A) (A) (A) (A)
                 (A) (A) (A) (A) (A) (A) (A) (A) (A) (A) (A) (A)
                 (A) (A) (A) (A) (A) (A) (A) (A) (A) (A) (A) (A)
                 (A) (A) (A) (A) (A) (A) (A) (A) (A) (A) (A) (A)
                 (A) (A) (A) (A) (A) (A) (A) (A) (A) (A) (A) (A)
                 (A) (A) (A) (A) (A) (A) (A) (A) (A) (A) (A) (A)
                 (A) (A) (A) (A) (A) (A) (A) (A) (A) (A) (A) (A)
                 (A) (A) (A) (A) (A) (A) (A) (A) (A) (A) (A) (A)
                 (A) (A) (A) (A) (A) (A) (A) (A) (A) (A) (A) (A)
                 (A) (A) (A) (A) (A) (A) (A) (A) (A) (A) (A) (A)
                 (A) (A) (A) (A) (A) (A) (A) (A) (A) (A) (A) (A)
                 (A) (A) (A) (A) (A) (A) (A) (A) (A) (A) (A) (A)
                 (A) (A) (A) (A) (A) (A) (A) (A) (A) (A) (A) (A)
                 (A) (A) (A) (A) (A) (A) (A) (A) (A) (A) (A) (A)
                 (A) (A) (A) (A) (A) (A) (A) (A) (A) (A) (A) (A)
                 (A) (A) (A) (A) (A) (A) (A) (A) (A) (A) (A) (A)
                 (A) (A) (A) (A) (A) (A) (A) (A) (A) (A) (A) (A)
                 (A) (A) (A) (A) (A) (A) (A) (A) (A) (A) (A) (A)
                 (A) (A) (A) (A) (A) (A) (A) (A) (A) (A) (A) (A)
                 (A) (A) (A) (A) (A) (A) (A) (A) (A) (A) (A) (A)
                 (A) (A) (A) (A) (A) (A) (A) (A) (A) (A) (A) (A)
                 (A) (A) (A) (A) (A) (A) (A) (A) (A) (A) (A) (A)
                 (A) (A) (A) (A) (A) (A) (A) (A) (A) (A) (A) (A)
                 (A) (A) (A) (A) (A) (A) (A) (A) (A) (A) (A) (A)
                 (A) (A) (A) (A) (A) (A) (A) (A) (A) (A) (A) (A)
                 (A) (A) (A) (A) (A) (A) (A) (A) (A) (A) (A) (A)
                 (A) (A) (A) (A) (A) (A) (A) (A) (A) (A) (A) (A)
                 (A) (A) (A) (A) (A) (A) (A) (A) (A) (A) (A) (A)
                 (A) (A) (A) (A) (A) (A) (A) (A) (A) (A) (A) (A)
                 (A) (A) (A) (A) (A) (A) (A) (A) (A) (A) (A) (A)
                 (A) (A) (A) (A) (A) (A) (A) (A) (A) (A) (A) (A)
                 (A) (A) (A) (A) (A) (A) (A) (A) (A) (A) (A) (A)
                 (A) (A) (A) (A) (A) (A) (A) (A) (A) (A) (A) (A)
                 (A) (A) (A) (A) (A) (A) (A) (A) (A) (A) (A) (A)
                 (A) (A) (A) (A) (A) (A) (A) (A) (A) (A) (A) (A)
                 (A) (A) (A) (A) (A) (A) (A) (A) (A) (A) (A) (A)
                 (A) (A) (A) (A) (A) (A) (A) (A) (A) (A) (A) (A)
                 (A) (A) (A) (A) (A) (A) (A) (A) (A) (A) (A) (A)
                 (A) (A) (A) (A) (A) (A) (A) (A) (A) (A) (A) (A)
                 (A) (A) (A) (A) (A) (A) (A) (A) (A) (A) (A) (A)
                 (A) (A) (A) (A) (A) (A) (A) (A) (A) (A) (A) (A)
                 (A) (A) (A) (A) (A) (A) (A) (A) (A) (A) (A) (A)
                 (A) (A) (A) (A) (A) (A) (A) (A) (A) (A) (A) (A)
                 (A) (A) (A) (A) (A) (A) (A) (A) (A) (A) (A) (A)
                 (A) (A) (A) (A) (A) (A) (A) (A) (A) (A) (A) (A)
                 (A) (A) (A) (A) (A) (A) (A) (A) (A) (A) (A) (A)
                 (A) (A) (A) (A) (A) (A) (A) (A) (A) (A) (A) (A)
                 (A) (A) (A) (A) (A) (A) (A) (A) (A) (A) (A) (A)
                 (A) (A) (A) (A) (A) (A) (A) (A) (A) (A) (A) (A)
                 (A) (A) (A) (A) (A) (A) (A) (A) (A) (A) (A) (A)
                 (A) (A) (A) (A) (A) (A) (A) (A) (A) (A) (A) (A)
                 (A) (A) (A) (A) (A) (A) (A) (A) (A) (A) (A) (A)
                 (A) (A) (A) (A) (A) (A) (A) (A) (A) (A) (A) (A)
                 (A) (A) (A) (A) (A) (A) (A) (A) (A) (A) (A) (A)
                 (A) (A) (A) (A) (A) (A) (A) (A) (A) (A) (A) (A)
                 (A) (A) (A) (A) (A) (A) (A) (A) (A) (A) (A) (A)
                 (A) (A) (A) (A) (A) (A) (A) (A) (A) (A) (A) (A)
                 (A) (A) (A) (A) (A) (A) (A) (A) (A) (A) (A) (A)
                 (A) (A) (A) (A) (A) (A) (A) (A) (A) (A) (A) (A)
                 (A) (A) (A) (A) (A) (A) (A) (A) (A) (A) (A) (A)
                 (A) (A) (A) (A) (A) (A) (A) (A) (A) (A) (A) (A)
                 (A) (A) (A) (A) (A) (A) (A) (A) (A) (A) (A) (A)
                 (A) (A) (A) (A) (A) (A) (A) (A) (A) (A) (A) (A)
                 (A) (A) (A) (A) (A) (A) (A) (A) (A) (A) (A) (A)
                 (A) (A) (A) (A) (A) (A) (A) (A) (A) (A) (A) (A)
                 (A) (A) (A) (A) (A) (A) (A) (A) (A) (A) (A) (A)
                 (A) (A) (A) (A) (A) (A) (A) (A) (A) (A) (A) (A)
                 (A) (A) (A) (A) (A) (A) (A) (A) (A) (A) (A) (A)
                 (A) (A) (A) (A) (A) (A) (A) (A) (A) (A) (A) (A)
                 (A) (A) (A) (A) (A) (A) (A) (A) (A) (A) (A) (A)
                 (A) (A) (A) (A) (A) (A) (A) (A) (A) (A) (A) (A)
                 (A) (A) (A) (A) (A) (A) (A) (A) (A) (A) (A) (A)
                 (A) (A) (A) (A) (A) (A) (A) (A) (A) (A) (A) (A)
                 (A) (A) (A) (A) (A) (A) (A) (A) (A) (A) (A) (A)
                 (A) (A) (A) (A) (A) (A) (A) (A) (A) (A) (A) (A)
                 (A) (A) (A) (A) (A) (A) (A) (A) (A) (A) (A) (A)
                 (A) (A) (A) (A) (A) (A) (A) (A) (A) (A) (A) (A)
                 (A) (A) (A) (A) (A) (A) (A) (A) (A) (A) (A) (A)
                 (A) (A) (A) (A) (A) (A) (A) (A) (A) (A) (A) (A)
                 (A) (A) (A) (A) (A) (A) (A) (A) (A) (A) (A) (A)
                 (A) (A) (A) (A) (A) (A) (A) (A) (A) (A) (A) (A)
                 (A) (A) (A) (A) (A) (A) (A) (A) (A) (A) (A) (A)
                 (A) (A) (A) (A) (A) (A) (A) (A) (A) (A) (A) (A)
                 (A) (A) (A) (A) (A) (A) (A) (A) (A) (A) (A) (A)
                 (A) (A) (A) (A) (A) (A) (A) (A) (A) (A) (A) (A)
                 (A) (A) (A) (A) (A) (A) (A) (A) (A) (A) (A) (A)
                 (A) (A) (A) (A) (A) (A)
 The electronic state is 1-A.
 Alpha  occ. eigenvalues -- -256.30632 -89.00748 -30.07511 -25.90311 -25.90013
 Alpha  occ. eigenvalues --  -25.89904 -19.27720 -19.26508 -19.17595 -19.16828
 Alpha  occ. eigenvalues --  -14.44622 -14.39037 -14.36646 -14.36382 -14.36342
 Alpha  occ. eigenvalues --  -14.36337 -10.35788 -10.34614 -10.27776 -10.26041
 Alpha  occ. eigenvalues --  -10.24152 -10.24075 -10.24014 -10.23825 -10.23619
 Alpha  occ. eigenvalues --  -10.23615 -10.23578 -10.23512 -10.23442 -10.23310
 Alpha  occ. eigenvalues --  -10.23114 -10.23100 -10.23090 -10.23090 -10.22985
 Alpha  occ. eigenvalues --  -10.22914 -10.22694 -10.22665 -10.21918 -10.21757
 Alpha  occ. eigenvalues --  -10.21659 -10.21545 -10.21526 -10.21510 -10.21480
 Alpha  occ. eigenvalues --  -10.21455 -10.21324 -10.21269 -10.21194 -10.21154
 Alpha  occ. eigenvalues --  -10.21097 -10.21029 -10.20786 -10.20280 -10.20267
 Alpha  occ. eigenvalues --  -10.19161 -10.18643  -7.98699  -5.92356  -5.92050
 Alpha  occ. eigenvalues --   -5.91520  -3.41966  -2.17932  -2.17317  -2.17143
 Alpha  occ. eigenvalues --   -1.17766  -1.17448  -1.06343  -1.01809  -1.00989
 Alpha  occ. eigenvalues --   -0.97401  -0.96330  -0.95984  -0.94626  -0.90752
 Alpha  occ. eigenvalues --   -0.84569  -0.84155  -0.83830  -0.83725  -0.83178
 Alpha  occ. eigenvalues --   -0.81883  -0.81325  -0.81052  -0.80686  -0.79130
 Alpha  occ. eigenvalues --   -0.78441  -0.77776  -0.76778  -0.76166  -0.75746
 Alpha  occ. eigenvalues --   -0.74181  -0.72896  -0.72698  -0.71998  -0.71020
 Alpha  occ. eigenvalues --   -0.69886  -0.69275  -0.68907  -0.66541  -0.66223
 Alpha  occ. eigenvalues --   -0.65743  -0.65020  -0.64677  -0.64488  -0.62809
 Alpha  occ. eigenvalues --   -0.62189  -0.60461  -0.59158  -0.58917  -0.57784
 Alpha  occ. eigenvalues --   -0.56540  -0.55833  -0.54929  -0.54410  -0.53555
 Alpha  occ. eigenvalues --   -0.52962  -0.52345  -0.51849  -0.51581  -0.51398
 Alpha  occ. eigenvalues --   -0.50684  -0.50602  -0.49462  -0.49382  -0.49037
 Alpha  occ. eigenvalues --   -0.48826  -0.48636  -0.48328  -0.48030  -0.47875
 Alpha  occ. eigenvalues --   -0.47391  -0.46666  -0.46344  -0.46032  -0.45560
 Alpha  occ. eigenvalues --   -0.45374  -0.44926  -0.44580  -0.44249  -0.44079
 Alpha  occ. eigenvalues --   -0.43889  -0.43628  -0.43530  -0.43424  -0.43275
 Alpha  occ. eigenvalues --   -0.43186  -0.43088  -0.42922  -0.42774  -0.42552
 Alpha  occ. eigenvalues --   -0.42432  -0.41813  -0.41186  -0.41080  -0.40908
 Alpha  occ. eigenvalues --   -0.40435  -0.40258  -0.39973  -0.39865  -0.39636
 Alpha  occ. eigenvalues --   -0.39360  -0.39001  -0.38912  -0.38452  -0.38074
 Alpha  occ. eigenvalues --   -0.37935  -0.37715  -0.37587  -0.37283  -0.37198
 Alpha  occ. eigenvalues --   -0.36543  -0.36433  -0.36051  -0.35931  -0.35283
 Alpha  occ. eigenvalues --   -0.34904  -0.34711  -0.34118  -0.33741  -0.33265
 Alpha  occ. eigenvalues --   -0.32910  -0.32472  -0.32006  -0.31948  -0.31772
 Alpha  occ. eigenvalues --   -0.31554  -0.30714  -0.29822  -0.28990  -0.28538
 Alpha  occ. eigenvalues --   -0.28095  -0.27719  -0.27505  -0.27107  -0.25313
 Alpha  occ. eigenvalues --   -0.24670  -0.24314  -0.23217  -0.22708  -0.22132
 Alpha  occ. eigenvalues --   -0.19734  -0.18837  -0.18603  -0.18216  -0.17984
 Alpha virt. eigenvalues --   -0.07046  -0.06392  -0.01309   0.00501   0.00668
 Alpha virt. eigenvalues --    0.01083   0.01645   0.02223   0.02570   0.03178
 Alpha virt. eigenvalues --    0.03542   0.03700   0.04515   0.04555   0.04877
 Alpha virt. eigenvalues --    0.05255   0.05511   0.05607   0.05664   0.05915
 Alpha virt. eigenvalues --    0.06132   0.06173   0.06895   0.07145   0.07422
 Alpha virt. eigenvalues --    0.07740   0.08366   0.08450   0.08578   0.08909
 Alpha virt. eigenvalues --    0.09004   0.09065   0.09553   0.09892   0.10051
 Alpha virt. eigenvalues --    0.10668   0.10880   0.11131   0.11520   0.11631
 Alpha virt. eigenvalues --    0.11951   0.11995   0.12202   0.12479   0.12585
 Alpha virt. eigenvalues --    0.12876   0.13076   0.13316   0.13506   0.13631
 Alpha virt. eigenvalues --    0.13814   0.14022   0.14164   0.14218   0.14304
 Alpha virt. eigenvalues --    0.14662   0.14678   0.14942   0.15170   0.15290
 Alpha virt. eigenvalues --    0.15405   0.15582   0.15710   0.15934   0.16069
 Alpha virt. eigenvalues --    0.16164   0.16458   0.16774   0.17056   0.17119
 Alpha virt. eigenvalues --    0.17290   0.17395   0.17673   0.17809   0.18299
 Alpha virt. eigenvalues --    0.18661   0.18827   0.18901   0.19396   0.19651
 Alpha virt. eigenvalues --    0.19710   0.19993   0.20051   0.20307   0.20510
 Alpha virt. eigenvalues --    0.20585   0.20869   0.21154   0.21293   0.21503
 Alpha virt. eigenvalues --    0.21860   0.21933   0.22303   0.22327   0.22591
 Alpha virt. eigenvalues --    0.22842   0.22972   0.23059   0.23289   0.23420
 Alpha virt. eigenvalues --    0.23595   0.23913   0.24149   0.24378   0.24506
 Alpha virt. eigenvalues --    0.24774   0.24873   0.25156   0.25594   0.25868
 Alpha virt. eigenvalues --    0.25998   0.26201   0.26276   0.26634   0.26775
 Alpha virt. eigenvalues --    0.26982   0.27077   0.27122   0.27575   0.27615
 Alpha virt. eigenvalues --    0.27994   0.28241   0.28302   0.28375   0.28961
 Alpha virt. eigenvalues --    0.29039   0.29223   0.29623   0.29939   0.30105
 Alpha virt. eigenvalues --    0.30209   0.30352   0.30744   0.31093   0.31175
 Alpha virt. eigenvalues --    0.31507   0.31827   0.31999   0.32180   0.32458
 Alpha virt. eigenvalues --    0.32651   0.32737   0.33134   0.33207   0.33502
 Alpha virt. eigenvalues --    0.33546   0.34168   0.34344   0.34501   0.34812
 Alpha virt. eigenvalues --    0.34878   0.34992   0.35257   0.35432   0.35725
 Alpha virt. eigenvalues --    0.35945   0.36199   0.36438   0.36714   0.36816
 Alpha virt. eigenvalues --    0.37146   0.37300   0.37377   0.37988   0.38053
 Alpha virt. eigenvalues --    0.38190   0.38337   0.38569   0.38945   0.39137
 Alpha virt. eigenvalues --    0.39319   0.39612   0.39794   0.39986   0.40037
 Alpha virt. eigenvalues --    0.40215   0.40447   0.40562   0.40725   0.40917
 Alpha virt. eigenvalues --    0.41172   0.41292   0.41422   0.41625   0.41938
 Alpha virt. eigenvalues --    0.42267   0.42344   0.42650   0.42807   0.42863
 Alpha virt. eigenvalues --    0.43001   0.43126   0.43243   0.43452   0.43644
 Alpha virt. eigenvalues --    0.43688   0.44118   0.44184   0.44474   0.44615
 Alpha virt. eigenvalues --    0.44910   0.45103   0.45138   0.45388   0.45584
 Alpha virt. eigenvalues --    0.45783   0.45887   0.45950   0.46144   0.46212
 Alpha virt. eigenvalues --    0.46547   0.46624   0.46858   0.46961   0.47129
 Alpha virt. eigenvalues --    0.47201   0.47442   0.47585   0.47788   0.47959
 Alpha virt. eigenvalues --    0.48128   0.48432   0.48543   0.48630   0.48817
 Alpha virt. eigenvalues --    0.48895   0.49013   0.49057   0.49304   0.49542
 Alpha virt. eigenvalues --    0.49849   0.49937   0.50044   0.50176   0.50217
 Alpha virt. eigenvalues --    0.50505   0.50547   0.50891   0.51054   0.51180
 Alpha virt. eigenvalues --    0.51226   0.51520   0.51990   0.52066   0.52164
 Alpha virt. eigenvalues --    0.52266   0.52475   0.52640   0.52946   0.53058
 Alpha virt. eigenvalues --    0.53075   0.53186   0.53363   0.53576   0.53755
 Alpha virt. eigenvalues --    0.53914   0.54063   0.54136   0.54339   0.54397
 Alpha virt. eigenvalues --    0.54672   0.55007   0.55270   0.55643   0.55745
 Alpha virt. eigenvalues --    0.56106   0.56365   0.56578   0.56660   0.56999
 Alpha virt. eigenvalues --    0.57088   0.57206   0.57674   0.57780   0.58147
 Alpha virt. eigenvalues --    0.58288   0.58423   0.58602   0.58931   0.59202
 Alpha virt. eigenvalues --    0.59391   0.59408   0.59816   0.59988   0.60333
 Alpha virt. eigenvalues --    0.60604   0.60765   0.60927   0.61017   0.61156
 Alpha virt. eigenvalues --    0.61640   0.61841   0.62159   0.62470   0.62746
 Alpha virt. eigenvalues --    0.62868   0.63249   0.63320   0.63586   0.63832
 Alpha virt. eigenvalues --    0.64107   0.64466   0.64689   0.64924   0.65026
 Alpha virt. eigenvalues --    0.65524   0.65833   0.66036   0.66293   0.66490
 Alpha virt. eigenvalues --    0.66621   0.66883   0.67090   0.67306   0.67383
 Alpha virt. eigenvalues --    0.68026   0.68641   0.68739   0.68899   0.69331
 Alpha virt. eigenvalues --    0.69414   0.69770   0.69915   0.70067   0.70247
 Alpha virt. eigenvalues --    0.70506   0.70647   0.71279   0.71608   0.71776
 Alpha virt. eigenvalues --    0.72213   0.72371   0.72670   0.73217   0.73510
 Alpha virt. eigenvalues --    0.73617   0.73849   0.73952   0.74357   0.74797
 Alpha virt. eigenvalues --    0.75031   0.75335   0.75677   0.75832   0.75989
 Alpha virt. eigenvalues --    0.76168   0.76711   0.76821   0.77005   0.77716
 Alpha virt. eigenvalues --    0.77917   0.78040   0.78187   0.78754   0.79202
 Alpha virt. eigenvalues --    0.79346   0.79565   0.79649   0.79787   0.80237
 Alpha virt. eigenvalues --    0.80684   0.81146   0.81357   0.81877   0.81994
 Alpha virt. eigenvalues --    0.82127   0.82363   0.82727   0.83021   0.83694
 Alpha virt. eigenvalues --    0.83867   0.84231   0.84361   0.84475   0.84752
 Alpha virt. eigenvalues --    0.85102   0.85390   0.85672   0.85987   0.86129
 Alpha virt. eigenvalues --    0.86370   0.86465   0.86846   0.87019   0.87705
 Alpha virt. eigenvalues --    0.87825   0.88073   0.88641   0.88714   0.89078
 Alpha virt. eigenvalues --    0.89533   0.89825   0.90235   0.90280   0.90654
 Alpha virt. eigenvalues --    0.90748   0.91067   0.91365   0.91697   0.92106
 Alpha virt. eigenvalues --    0.92124   0.92527   0.92869   0.93015   0.93205
 Alpha virt. eigenvalues --    0.93428   0.93700   0.93872   0.93955   0.94159
 Alpha virt. eigenvalues --    0.94532   0.94814   0.95016   0.95562   0.95668
 Alpha virt. eigenvalues --    0.95857   0.96201   0.96612   0.96730   0.96952
 Alpha virt. eigenvalues --    0.97103   0.97390   0.97451   0.97662   0.98142
 Alpha virt. eigenvalues --    0.98497   0.98555   0.98586   0.99015   0.99188
 Alpha virt. eigenvalues --    0.99277   0.99848   1.00043   1.00259   1.00640
 Alpha virt. eigenvalues --    1.01014   1.01063   1.01251   1.01576   1.01701
 Alpha virt. eigenvalues --    1.02336   1.02596   1.03059   1.03413   1.03695
 Alpha virt. eigenvalues --    1.03767   1.04374   1.04440   1.04848   1.05074
 Alpha virt. eigenvalues --    1.05326   1.05510   1.05780   1.06150   1.06318
 Alpha virt. eigenvalues --    1.06410   1.07004   1.07247   1.07315   1.07786
 Alpha virt. eigenvalues --    1.08126   1.08438   1.08673   1.08691   1.09033
 Alpha virt. eigenvalues --    1.09539   1.09949   1.10328   1.10749   1.11049
 Alpha virt. eigenvalues --    1.11250   1.11416   1.11779   1.11921   1.12188
 Alpha virt. eigenvalues --    1.12684   1.13063   1.13211   1.13487   1.13826
 Alpha virt. eigenvalues --    1.14313   1.14421   1.14628   1.14873   1.15207
 Alpha virt. eigenvalues --    1.15703   1.16013   1.17062   1.17171   1.17280
 Alpha virt. eigenvalues --    1.17690   1.18070   1.18560   1.18659   1.19049
 Alpha virt. eigenvalues --    1.19505   1.19656   1.19797   1.20266   1.20682
 Alpha virt. eigenvalues --    1.20729   1.21122   1.21378   1.21686   1.22020
 Alpha virt. eigenvalues --    1.22508   1.22851   1.23328   1.23744   1.24318
 Alpha virt. eigenvalues --    1.24699   1.24893   1.25375   1.25444   1.25651
 Alpha virt. eigenvalues --    1.25949   1.26320   1.26488   1.26707   1.27413
 Alpha virt. eigenvalues --    1.27649   1.27957   1.28579   1.28766   1.28910
 Alpha virt. eigenvalues --    1.29236   1.29436   1.29800   1.29981   1.30711
 Alpha virt. eigenvalues --    1.31008   1.31241   1.31333   1.32347   1.32647
 Alpha virt. eigenvalues --    1.33093   1.33260   1.33404   1.33641   1.33766
 Alpha virt. eigenvalues --    1.33960   1.34825   1.35062   1.35297   1.35662
 Alpha virt. eigenvalues --    1.35712   1.36172   1.36749   1.37226   1.37891
 Alpha virt. eigenvalues --    1.37925   1.38183   1.38381   1.38804   1.39302
 Alpha virt. eigenvalues --    1.40188   1.40805   1.41235   1.41428   1.41862
 Alpha virt. eigenvalues --    1.42398   1.42860   1.43088   1.43138   1.43757
 Alpha virt. eigenvalues --    1.44395   1.44762   1.45325   1.45448   1.45928
 Alpha virt. eigenvalues --    1.46785   1.47146   1.47753   1.48047   1.48127
 Alpha virt. eigenvalues --    1.48614   1.48668   1.48718   1.49021   1.49342
 Alpha virt. eigenvalues --    1.49517   1.50042   1.50679   1.50797   1.50808
 Alpha virt. eigenvalues --    1.50861   1.51285   1.51427   1.51599   1.52231
 Alpha virt. eigenvalues --    1.52664   1.52765   1.53130   1.53158   1.53659
 Alpha virt. eigenvalues --    1.53810   1.53988   1.54091   1.54334   1.54516
 Alpha virt. eigenvalues --    1.54880   1.55486   1.55582   1.55789   1.56298
 Alpha virt. eigenvalues --    1.56411   1.56735   1.56853   1.57117   1.57633
 Alpha virt. eigenvalues --    1.57733   1.58069   1.58413   1.58621   1.58771
 Alpha virt. eigenvalues --    1.58981   1.59139   1.59389   1.59892   1.60340
 Alpha virt. eigenvalues --    1.60437   1.60462   1.60802   1.60992   1.61121
 Alpha virt. eigenvalues --    1.61244   1.61452   1.61954   1.62043   1.62410
 Alpha virt. eigenvalues --    1.62678   1.62765   1.62951   1.63293   1.63498
 Alpha virt. eigenvalues --    1.63536   1.63758   1.64102   1.64683   1.64819
 Alpha virt. eigenvalues --    1.65025   1.65194   1.65312   1.65913   1.66055
 Alpha virt. eigenvalues --    1.66108   1.66441   1.66785   1.67339   1.67452
 Alpha virt. eigenvalues --    1.68046   1.68197   1.68529   1.68672   1.68914
 Alpha virt. eigenvalues --    1.69138   1.69293   1.69546   1.69962   1.70100
 Alpha virt. eigenvalues --    1.70159   1.70653   1.71073   1.71233   1.71493
 Alpha virt. eigenvalues --    1.71533   1.71980   1.72330   1.72449   1.72711
 Alpha virt. eigenvalues --    1.73056   1.73426   1.73697   1.73912   1.74400
 Alpha virt. eigenvalues --    1.74579   1.74673   1.74839   1.75160   1.75953
 Alpha virt. eigenvalues --    1.76048   1.76624   1.76861   1.77064   1.77169
 Alpha virt. eigenvalues --    1.77875   1.78242   1.78683   1.78819   1.79100
 Alpha virt. eigenvalues --    1.79665   1.79961   1.80271   1.80714   1.81016
 Alpha virt. eigenvalues --    1.81332   1.81920   1.82611   1.82824   1.82930
 Alpha virt. eigenvalues --    1.83386   1.83847   1.83955   1.84422   1.84660
 Alpha virt. eigenvalues --    1.85209   1.85592   1.86219   1.86550   1.86697
 Alpha virt. eigenvalues --    1.87201   1.87291   1.87622   1.87926   1.88081
 Alpha virt. eigenvalues --    1.88444   1.88763   1.89128   1.89377   1.89770
 Alpha virt. eigenvalues --    1.90018   1.90208   1.90748   1.91098   1.91197
 Alpha virt. eigenvalues --    1.91855   1.92044   1.92911   1.93167   1.93450
 Alpha virt. eigenvalues --    1.93852   1.93988   1.94218   1.94516   1.94865
 Alpha virt. eigenvalues --    1.95219   1.95406   1.95755   1.96315   1.96524
 Alpha virt. eigenvalues --    1.96845   1.97086   1.97157   1.97861   1.98168
 Alpha virt. eigenvalues --    1.98361   1.99043   1.99269   1.99470   1.99651
 Alpha virt. eigenvalues --    1.99941   2.00458   2.00752   2.00851   2.01216
 Alpha virt. eigenvalues --    2.01451   2.02035   2.02151   2.02429   2.02890
 Alpha virt. eigenvalues --    2.03287   2.03592   2.03866   2.03988   2.04295
 Alpha virt. eigenvalues --    2.04636   2.04863   2.05386   2.05877   2.06134
 Alpha virt. eigenvalues --    2.06511   2.06973   2.07271   2.07798   2.08037
 Alpha virt. eigenvalues --    2.08432   2.08821   2.09016   2.09743   2.10043
 Alpha virt. eigenvalues --    2.10345   2.10728   2.11188   2.11703   2.12204
 Alpha virt. eigenvalues --    2.12550   2.12751   2.12985   2.13395   2.13652
 Alpha virt. eigenvalues --    2.13854   2.14331   2.14650   2.14998   2.15402
 Alpha virt. eigenvalues --    2.15870   2.16067   2.16561   2.16957   2.17051
 Alpha virt. eigenvalues --    2.17170   2.17423   2.17527   2.17826   2.18247
 Alpha virt. eigenvalues --    2.18434   2.18593   2.19154   2.19532   2.19762
 Alpha virt. eigenvalues --    2.20052   2.20439   2.20782   2.21474   2.21736
 Alpha virt. eigenvalues --    2.21918   2.22464   2.22848   2.23181   2.23408
 Alpha virt. eigenvalues --    2.23912   2.24184   2.25142   2.25546   2.25631
 Alpha virt. eigenvalues --    2.26229   2.26552   2.26685   2.27161   2.27261
 Alpha virt. eigenvalues --    2.27519   2.27868   2.28461   2.28909   2.28998
 Alpha virt. eigenvalues --    2.29286   2.29646   2.30219   2.30256   2.30468
 Alpha virt. eigenvalues --    2.31040   2.31246   2.31579   2.32023   2.32345
 Alpha virt. eigenvalues --    2.32636   2.33242   2.33514   2.33556   2.34325
 Alpha virt. eigenvalues --    2.34486   2.34598   2.35717   2.35785   2.36064
 Alpha virt. eigenvalues --    2.36373   2.36463   2.36716   2.37044   2.37304
 Alpha virt. eigenvalues --    2.37548   2.37969   2.38430   2.38595   2.39003
 Alpha virt. eigenvalues --    2.39476   2.39747   2.40062   2.40384   2.40759
 Alpha virt. eigenvalues --    2.41005   2.41085   2.41312   2.41578   2.41965
 Alpha virt. eigenvalues --    2.42202   2.42236   2.42597   2.42944   2.43713
 Alpha virt. eigenvalues --    2.44021   2.44559   2.45125   2.45659   2.46226
 Alpha virt. eigenvalues --    2.46358   2.46501   2.47616   2.47791   2.48003
 Alpha virt. eigenvalues --    2.48732   2.49000   2.49206   2.49425   2.49902
 Alpha virt. eigenvalues --    2.49971   2.50195   2.50675   2.51123   2.51795
 Alpha virt. eigenvalues --    2.52053   2.52434   2.52835   2.53238   2.53630
 Alpha virt. eigenvalues --    2.53747   2.54222   2.54692   2.54765   2.55072
 Alpha virt. eigenvalues --    2.55330   2.55657   2.56008   2.56520   2.56769
 Alpha virt. eigenvalues --    2.56851   2.57449   2.57689   2.58079   2.58299
 Alpha virt. eigenvalues --    2.58845   2.59115   2.59199   2.59618   2.59804
 Alpha virt. eigenvalues --    2.60021   2.60098   2.60409   2.60935   2.61043
 Alpha virt. eigenvalues --    2.61601   2.61987   2.62097   2.62230   2.62327
 Alpha virt. eigenvalues --    2.62756   2.63088   2.63303   2.63550   2.63979
 Alpha virt. eigenvalues --    2.64166   2.64704   2.64940   2.65138   2.65474
 Alpha virt. eigenvalues --    2.66000   2.66208   2.66253   2.66857   2.67016
 Alpha virt. eigenvalues --    2.67428   2.67625   2.67839   2.68024   2.68212
 Alpha virt. eigenvalues --    2.68823   2.69094   2.69711   2.69857   2.70114
 Alpha virt. eigenvalues --    2.70258   2.70565   2.70961   2.71257   2.72338
 Alpha virt. eigenvalues --    2.72401   2.72734   2.73251   2.73287   2.73578
 Alpha virt. eigenvalues --    2.74023   2.74380   2.74818   2.75070   2.75256
 Alpha virt. eigenvalues --    2.75526   2.75769   2.76188   2.76831   2.76990
 Alpha virt. eigenvalues --    2.77103   2.77306   2.77537   2.77958   2.78064
 Alpha virt. eigenvalues --    2.78522   2.78764   2.79094   2.79555   2.79609
 Alpha virt. eigenvalues --    2.79819   2.80341   2.80551   2.80723   2.81214
 Alpha virt. eigenvalues --    2.81341   2.81602   2.82041   2.82624   2.82873
 Alpha virt. eigenvalues --    2.83331   2.83650   2.83828   2.83910   2.84622
 Alpha virt. eigenvalues --    2.84628   2.84943   2.85365   2.85528   2.86051
 Alpha virt. eigenvalues --    2.86187   2.86483   2.86926   2.87330   2.87729
 Alpha virt. eigenvalues --    2.87898   2.88379   2.88689   2.89116   2.89367
 Alpha virt. eigenvalues --    2.89722   2.90060   2.90542   2.90783   2.91220
 Alpha virt. eigenvalues --    2.91617   2.91830   2.91939   2.92603   2.92842
 Alpha virt. eigenvalues --    2.93044   2.93338   2.93716   2.93819   2.94432
 Alpha virt. eigenvalues --    2.94874   2.94969   2.95568   2.95849   2.95948
 Alpha virt. eigenvalues --    2.96209   2.96482   2.96982   2.97194   2.97674
 Alpha virt. eigenvalues --    2.98108   2.98234   2.98630   2.98727   2.98934
 Alpha virt. eigenvalues --    2.99127   2.99636   3.00023   3.00317   3.00473
 Alpha virt. eigenvalues --    3.00864   3.01193   3.01622   3.01745   3.01867
 Alpha virt. eigenvalues --    3.02713   3.02836   3.03240   3.03395   3.03430
 Alpha virt. eigenvalues --    3.03903   3.04327   3.04697   3.04900   3.04977
 Alpha virt. eigenvalues --    3.05261   3.05879   3.06043   3.06208   3.06467
 Alpha virt. eigenvalues --    3.06793   3.07048   3.07549   3.07652   3.08309
 Alpha virt. eigenvalues --    3.08513   3.08612   3.09044   3.09349   3.09438
 Alpha virt. eigenvalues --    3.09759   3.09892   3.09980   3.10256   3.10638
 Alpha virt. eigenvalues --    3.10983   3.11215   3.11433   3.11733   3.12039
 Alpha virt. eigenvalues --    3.12292   3.13017   3.13075   3.13396   3.13457
 Alpha virt. eigenvalues --    3.13792   3.14251   3.14421   3.14887   3.15170
 Alpha virt. eigenvalues --    3.15204   3.16018   3.16277   3.16379   3.16534
 Alpha virt. eigenvalues --    3.16793   3.17391   3.17445   3.18002   3.18219
 Alpha virt. eigenvalues --    3.18376   3.18447   3.18790   3.18904   3.19236
 Alpha virt. eigenvalues --    3.19498   3.19730   3.20325   3.20481   3.20666
 Alpha virt. eigenvalues --    3.20970   3.21012   3.21219   3.21609   3.22015
 Alpha virt. eigenvalues --    3.22143   3.22385   3.22508   3.22847   3.23276
 Alpha virt. eigenvalues --    3.23465   3.23747   3.23867   3.24278   3.24387
 Alpha virt. eigenvalues --    3.24975   3.25114   3.25211   3.25527   3.25788
 Alpha virt. eigenvalues --    3.26060   3.26097   3.26370   3.26532   3.27121
 Alpha virt. eigenvalues --    3.27245   3.27472   3.27606   3.27868   3.27961
 Alpha virt. eigenvalues --    3.28140   3.28409   3.28732   3.28934   3.29059
 Alpha virt. eigenvalues --    3.29335   3.29618   3.29997   3.30519   3.30714
 Alpha virt. eigenvalues --    3.31071   3.31139   3.31371   3.31716   3.31879
 Alpha virt. eigenvalues --    3.32477   3.32526   3.32988   3.33316   3.33497
 Alpha virt. eigenvalues --    3.33647   3.34074   3.34121   3.34256   3.34617
 Alpha virt. eigenvalues --    3.34928   3.35087   3.35633   3.35808   3.35883
 Alpha virt. eigenvalues --    3.36101   3.36302   3.36671   3.36854   3.37027
 Alpha virt. eigenvalues --    3.37116   3.37392   3.37484   3.37547   3.38047
 Alpha virt. eigenvalues --    3.38207   3.38418   3.38587   3.38955   3.39467
 Alpha virt. eigenvalues --    3.39596   3.40000   3.40496   3.40574   3.41025
 Alpha virt. eigenvalues --    3.41234   3.41243   3.41595   3.41735   3.41841
 Alpha virt. eigenvalues --    3.42154   3.42272   3.42384   3.42936   3.43021
 Alpha virt. eigenvalues --    3.43273   3.43438   3.43861   3.44213   3.44817
 Alpha virt. eigenvalues --    3.44944   3.45062   3.45424   3.45906   3.46015
 Alpha virt. eigenvalues --    3.46360   3.46613   3.46843   3.47136   3.47393
 Alpha virt. eigenvalues --    3.47631   3.48005   3.48069   3.48440   3.48744
 Alpha virt. eigenvalues --    3.49031   3.49434   3.49800   3.50047   3.50404
 Alpha virt. eigenvalues --    3.50683   3.50803   3.51268   3.51583   3.51789
 Alpha virt. eigenvalues --    3.52235   3.52528   3.52779   3.52952   3.53438
 Alpha virt. eigenvalues --    3.53685   3.53934   3.54116   3.54401   3.54991
 Alpha virt. eigenvalues --    3.55214   3.55545   3.55693   3.56016   3.56359
 Alpha virt. eigenvalues --    3.56456   3.56945   3.57462   3.58049   3.58139
 Alpha virt. eigenvalues --    3.58396   3.59009   3.59321   3.59776   3.59996
 Alpha virt. eigenvalues --    3.60404   3.60606   3.60961   3.61419   3.61711
 Alpha virt. eigenvalues --    3.61802   3.62173   3.62610   3.62952   3.63338
 Alpha virt. eigenvalues --    3.63554   3.63626   3.64325   3.64570   3.64655
 Alpha virt. eigenvalues --    3.65499   3.65955   3.66093   3.66655   3.66977
 Alpha virt. eigenvalues --    3.67276   3.67835   3.67996   3.68456   3.68711
 Alpha virt. eigenvalues --    3.69319   3.69881   3.70062   3.70619   3.70757
 Alpha virt. eigenvalues --    3.71194   3.71567   3.71924   3.72040   3.72411
 Alpha virt. eigenvalues --    3.72815   3.72893   3.73672   3.73799   3.74356
 Alpha virt. eigenvalues --    3.74636   3.74919   3.75207   3.75606   3.75663
 Alpha virt. eigenvalues --    3.76346   3.76465   3.76776   3.77101   3.77440
 Alpha virt. eigenvalues --    3.77753   3.78299   3.79059   3.79670   3.79818
 Alpha virt. eigenvalues --    3.80157   3.80218   3.81096   3.81287   3.81626
 Alpha virt. eigenvalues --    3.82013   3.82806   3.83121   3.83640   3.84102
 Alpha virt. eigenvalues --    3.84461   3.84556   3.84927   3.85239   3.86154
 Alpha virt. eigenvalues --    3.86542   3.86749   3.87185   3.87731   3.88062
 Alpha virt. eigenvalues --    3.88199   3.89159   3.89729   3.89955   3.90322
 Alpha virt. eigenvalues --    3.91199   3.91542   3.91787   3.92065   3.92790
 Alpha virt. eigenvalues --    3.93239   3.93423   3.93843   3.93892   3.94980
 Alpha virt. eigenvalues --    3.95287   3.95448   3.96039   3.96457   3.97066
 Alpha virt. eigenvalues --    3.97283   3.97965   3.98238   3.98994   3.99259
 Alpha virt. eigenvalues --    3.99933   4.00004   4.00772   4.01210   4.02128
 Alpha virt. eigenvalues --    4.02785   4.02957   4.03203   4.04094   4.04419
 Alpha virt. eigenvalues --    4.04922   4.05824   4.06102   4.06632   4.07070
 Alpha virt. eigenvalues --    4.07435   4.08253   4.08321   4.08875   4.10026
 Alpha virt. eigenvalues --    4.10428   4.10766   4.11748   4.12212   4.13292
 Alpha virt. eigenvalues --    4.13492   4.13705   4.15025   4.15514   4.16361
 Alpha virt. eigenvalues --    4.16721   4.17216   4.17714   4.18212   4.19139
 Alpha virt. eigenvalues --    4.19463   4.19711   4.20181   4.20584   4.21047
 Alpha virt. eigenvalues --    4.21251   4.21864   4.22134   4.22363   4.22746
 Alpha virt. eigenvalues --    4.23044   4.23196   4.23773   4.25112   4.25914
 Alpha virt. eigenvalues --    4.25975   4.26294   4.26498   4.26916   4.27210
 Alpha virt. eigenvalues --    4.27395   4.28152   4.28605   4.28634   4.29711
 Alpha virt. eigenvalues --    4.30233   4.30644   4.31278   4.31694   4.32533
 Alpha virt. eigenvalues --    4.33085   4.33797   4.34503   4.34611   4.35023
 Alpha virt. eigenvalues --    4.35543   4.35942   4.36613   4.37174   4.37673
 Alpha virt. eigenvalues --    4.37834   4.38068   4.38431   4.39125   4.39467
 Alpha virt. eigenvalues --    4.39529   4.40397   4.40558   4.40967   4.41728
 Alpha virt. eigenvalues --    4.42298   4.42669   4.42901   4.43625   4.43930
 Alpha virt. eigenvalues --    4.44185   4.44837   4.45479   4.45613   4.46065
 Alpha virt. eigenvalues --    4.46429   4.46940   4.47682   4.48140   4.48215
 Alpha virt. eigenvalues --    4.48688   4.49210   4.49605   4.49961   4.50161
 Alpha virt. eigenvalues --    4.50673   4.51479   4.52708   4.53650   4.54125
 Alpha virt. eigenvalues --    4.54624   4.55508   4.56072   4.56682   4.57216
 Alpha virt. eigenvalues --    4.57479   4.57647   4.58161   4.58703   4.59310
 Alpha virt. eigenvalues --    4.59797   4.61269   4.61719   4.62338   4.63179
 Alpha virt. eigenvalues --    4.63340   4.63654   4.64716   4.65439   4.66345
 Alpha virt. eigenvalues --    4.66709   4.67700   4.68232   4.69211   4.70479
 Alpha virt. eigenvalues --    4.70921   4.70966   4.72039   4.72442   4.72843
 Alpha virt. eigenvalues --    4.73374   4.73817   4.74091   4.75172   4.75362
 Alpha virt. eigenvalues --    4.75819   4.76908   4.77741   4.77784   4.78149
 Alpha virt. eigenvalues --    4.78503   4.79325   4.79870   4.80403   4.81000
 Alpha virt. eigenvalues --    4.82307   4.83090   4.83457   4.83910   4.84500
 Alpha virt. eigenvalues --    4.85270   4.86171   4.86993   4.87238   4.88071
 Alpha virt. eigenvalues --    4.88389   4.89590   4.90141   4.90943   4.91837
 Alpha virt. eigenvalues --    4.91946   4.92948   4.93330   4.94407   4.94978
 Alpha virt. eigenvalues --    4.95380   4.96243   4.97365   4.97592   4.97724
 Alpha virt. eigenvalues --    4.98322   4.98734   4.98979   4.99648   5.01572
 Alpha virt. eigenvalues --    5.02580   5.03187   5.03652   5.04649   5.05076
 Alpha virt. eigenvalues --    5.05510   5.06204   5.07078   5.07914   5.08853
 Alpha virt. eigenvalues --    5.10174   5.11085   5.12322   5.13074   5.13331
 Alpha virt. eigenvalues --    5.14780   5.15833   5.17545   5.17731   5.18947
 Alpha virt. eigenvalues --    5.19577   5.20714   5.20973   5.21344   5.21526
 Alpha virt. eigenvalues --    5.22014   5.22721   5.23600   5.24440   5.25640
 Alpha virt. eigenvalues --    5.25967   5.28030   5.28176   5.28905   5.29314
 Alpha virt. eigenvalues --    5.30599   5.31373   5.31970   5.34149   5.35532
 Alpha virt. eigenvalues --    5.36996   5.38220   5.39147   5.39952   5.40614
 Alpha virt. eigenvalues --    5.41442   5.42293   5.42507   5.44272   5.44769
 Alpha virt. eigenvalues --    5.45379   5.46114   5.47550   5.49761   5.50573
 Alpha virt. eigenvalues --    5.52008   5.52352   5.53433   5.53783   5.54476
 Alpha virt. eigenvalues --    5.54710   5.56969   5.58479   5.59698   5.60379
 Alpha virt. eigenvalues --    5.62034   5.62659   5.62910   5.63544   5.63861
 Alpha virt. eigenvalues --    5.65526   5.65839   5.67763   5.69259   5.71015
 Alpha virt. eigenvalues --    5.72849   5.73384   5.75710   5.76447   5.78646
 Alpha virt. eigenvalues --    5.81056   5.84651   5.85052   5.85741   5.89514
 Alpha virt. eigenvalues --    5.94405   5.96726   5.97692   5.98972   6.00660
 Alpha virt. eigenvalues --    6.01220   6.02734   6.03524   6.04160   6.05825
 Alpha virt. eigenvalues --    6.07977   6.08334   6.08826   6.09578   6.11271
 Alpha virt. eigenvalues --    6.14143   6.15807   6.18179   6.19454   6.20457
 Alpha virt. eigenvalues --    6.20582   6.24548   6.29008   6.30740   6.32851
 Alpha virt. eigenvalues --    6.33320   6.34222   6.35550   6.40281   6.41330
 Alpha virt. eigenvalues --    6.43639   6.45783   6.49753   6.50408   6.54327
 Alpha virt. eigenvalues --    6.66512   6.67392   6.73767   6.76977   6.82714
 Alpha virt. eigenvalues --    6.84769   6.86871   6.94594   6.98223   7.02357
 Alpha virt. eigenvalues --    7.08986   7.13152   7.13617   7.14633   7.34388
 Alpha virt. eigenvalues --    7.35899   9.29707   9.54154   9.69413  20.34195
 Alpha virt. eigenvalues --   22.31277  22.48991  22.51881  22.52455  22.53652
 Alpha virt. eigenvalues --   22.54536  22.58114  22.60579  22.60908  22.63501
 Alpha virt. eigenvalues --   22.64322  22.66852  22.71453  22.73529  22.81555
 Alpha virt. eigenvalues --   22.82059  22.95387  22.96941  22.98387  23.01699
 Alpha virt. eigenvalues --   23.04330  23.06682  23.12096  23.14404  23.15903
 Alpha virt. eigenvalues --   23.21969  23.24693  23.29752  23.32393  23.33674
 Alpha virt. eigenvalues --   23.37084  23.43863  23.46649  23.48983  23.56307
 Alpha virt. eigenvalues --   23.58061  23.64716  23.69493  23.77094  23.80293
 Alpha virt. eigenvalues --   23.88379  32.48559  32.83167  32.99449  33.08285
 Alpha virt. eigenvalues --   33.10725  33.18135  43.92365  43.93761  43.94550
 Alpha virt. eigenvalues --   43.96945
          Condensed to atoms (all electrons):
 Mulliken charges:
               1
     1  C   -0.375365
     2  C    0.149638
     3  N   -0.220323
     4  C   -0.192940
     5  C    0.014048
     6  N    0.062347
     7  C   -0.344878
     8  C   -0.146637
     9  S    0.027070
    10  C   -0.340988
    11  Fe  -0.366694
    12  C   -0.703113
    13  C   -0.544505
    14  C   -0.458158
    15  C   -0.514855
    16  N    0.047221
    17  C    0.274669
    18  C    0.027852
    19  C   -0.102688
    20  C    0.316253
    21  C   -0.425151
    22  C   -0.287194
    23  C   -0.143154
    24  C    0.246784
    25  O   -0.319108
    26  O   -0.404926
    27  N   -0.042912
    28  C    0.252881
    29  C   -0.046600
    30  C   -0.044299
    31  C    0.189522
    32  C   -0.398249
    33  C   -0.180470
    34  C   -0.335309
    35  N    0.042652
    36  C    0.172407
    37  C   -0.045484
    38  C    0.021890
    39  C    0.253644
    40  C   -0.394381
    41  C   -0.259342
    42  C   -0.271011
    43  N   -0.027688
    44  C    0.305231
    45  C   -0.087551
    46  C    0.112660
    47  C    0.221036
    48  C   -0.409568
    49  C   -0.352529
    50  C   -0.126886
    51  C    0.233807
    52  O   -0.376519
    53  O   -0.318126
    54  H    0.148534
    55  H    0.120977
    56  H    0.147230
    57  H    0.149191
    58  H    0.168129
    59  H    0.125067
    60  H    0.122898
    61  H    0.110750
    62  H    0.122335
    63  H    0.116242
    64  H    0.159438
    65  H    0.141533
    66  H    0.130114
    67  H    0.102973
    68  H    0.107428
    69  H    0.104834
    70  H    0.099687
    71  H    0.124811
    72  H    0.138999
    73  H    0.137502
    74  H    0.118794
    75  H    0.121055
    76  H    0.136355
    77  H    0.131613
    78  H    0.123201
    79  H    0.139480
    80  H    0.135497
    81  H    0.109355
    82  H    0.121528
    83  H    0.111375
    84  H    0.144613
    85  H    0.134905
    86  H    0.131212
    87  H    0.116910
    88  H    0.141638
    89  H    0.124918
    90  H    0.121530
    91  H    0.135825
    92  H    0.152894
    93  H    0.125885
    94  H    0.101582
    95  H    0.129573
    96  H    0.132446
    97  H    0.347478
    98  H    0.342360
    99  H    0.230303
   100  H    0.102259
   101  H    0.092739
 Sum of Mulliken charges =  -0.00000
 Mulliken charges with hydrogens summed into heavy atoms:
               1
     1  C    0.041376
     2  C    0.149638
     3  N    0.009980
     4  C   -0.043749
     5  C    0.182176
     6  N    0.062347
     7  C    0.013836
     8  C    0.091940
     9  S    0.027070
    10  C    0.090098
    11  Fe  -0.366694
    12  C   -0.600141
    13  C   -0.437078
    14  C   -0.353325
    15  C   -0.415169
    16  N    0.047221
    17  C    0.274669
    18  C    0.027852
    19  C   -0.102688
    20  C    0.316253
    21  C   -0.023839
    22  C   -0.047344
    23  C    0.124813
    24  C    0.246784
    25  O    0.023252
    26  O   -0.404926
    27  N   -0.042912
    28  C    0.252881
    29  C   -0.046600
    30  C   -0.044299
    31  C    0.189522
    32  C   -0.000071
    33  C    0.021623
    34  C   -0.000147
    35  N    0.042652
    36  C    0.172407
    37  C   -0.045484
    38  C    0.021890
    39  C    0.253644
    40  C    0.016350
    41  C   -0.142432
    42  C   -0.004455
    43  N   -0.027688
    44  C    0.305231
    45  C   -0.087551
    46  C    0.112660
    47  C    0.221036
    48  C    0.000681
    49  C   -0.125061
    50  C    0.135133
    51  C    0.233807
    52  O   -0.376519
    53  O    0.029351
 Electronic spatial extent (au):  <R**2>=          33980.9156
 Charge=              0.0000 electrons
 Dipole moment (field-independent basis, Debye):
    X=              1.2182    Y=             -2.5181    Z=              3.2667  Tot=              4.3007
 Quadrupole moment (field-independent basis, Debye-Ang):
   XX=           -305.8516   YY=           -319.7597   ZZ=           -317.4926
   XY=              0.2070   XZ=              0.4476   YZ=             17.3739
 Traceless Quadrupole moment (field-independent basis, Debye-Ang):
   XX=              8.5163   YY=             -5.3917   ZZ=             -3.1246
   XY=              0.2070   XZ=              0.4476   YZ=             17.3739
 Octapole moment (field-independent basis, Debye-Ang**2):
  XXX=           -167.8289  YYY=            -20.3942  ZZZ=            122.9866  XYY=             38.5837
  XXY=            -64.0544  XXZ=              3.2665  XZZ=            134.6233  YZZ=            -24.7461
  YYZ=              3.9546  XYZ=           -151.7223
 Hexadecapole moment (field-independent basis, Debye-Ang**3):
 XXXX=         -21472.0794 YYYY=         -14465.2146 ZZZZ=          -5599.6763 XXXY=            328.0064
 XXXZ=           -118.0242 YYYX=             80.9475 YYYZ=            338.4299 ZZZX=             58.4020
 ZZZY=            -84.2250 XXYY=          -6726.2339 XXZZ=          -6106.5249 YYZZ=          -3754.2332
 XXYZ=            855.2108 YYXZ=             76.0148 ZZXY=            -57.2149
 N-N= 8.968491154410D+03 E-N=-2.706543393990D+04  KE= 3.868943716216D+03
 ******************************Gaussian NBO Version 3.1******************************
             N A T U R A L   A T O M I C   O R B I T A L   A N D
          N A T U R A L   B O N D   O R B I T A L   A N A L Y S I S
 ******************************Gaussian NBO Version 3.1******************************
       /RESON  / : Allow strongly delocalized NBO set

 Analyzing the SCF density

 Job title: 2v07_II_S_nbo                                                   

 Storage needed:  11451858 in NPA,  15241703 in NBO (2147431229 available)
 GSVD:  LWork=     1717441 too small for GESVD, short by     2451299 words or     2451299 for optimal perf.


 NATURAL POPULATIONS:  Natural atomic orbital occupancies 
                                                          
   NAO  Atom  No  lang   Type(AO)    Occupancy      Energy
 ----------------------------------------------------------
     1    C    1  S      Cor( 1S)     1.99939     -10.07560
     2    C    1  S      Val( 2S)     1.09944      -0.30645
     3    C    1  S      Ryd( 3S)     0.00061       1.03948
     4    C    1  S      Ryd( 4S)     0.00015       1.88255
     5    C    1  S      Ryd( 5S)     0.00000      21.68980
     6    C    1  px     Val( 2p)     1.18869      -0.11965
     7    C    1  px     Ryd( 3p)     0.00085       0.82806
     8    C    1  px     Ryd( 4p)     0.00012       1.55717
     9    C    1  py     Val( 2p)     1.21096      -0.12106
    10    C    1  py     Ryd( 3p)     0.00024       0.78937
    11    C    1  py     Ryd( 4p)     0.00018       1.45864
    12    C    1  pz     Val( 2p)     1.13322      -0.11584
    13    C    1  pz     Ryd( 3p)     0.00046       0.79461
    14    C    1  pz     Ryd( 4p)     0.00021       1.47330
    15    C    1  dxy    Ryd( 4d)     0.00070       3.06231
    16    C    1  dxy    Ryd( 3d)     0.00005       2.34711
    17    C    1  dxz    Ryd( 4d)     0.00078       3.42806
    18    C    1  dxz    Ryd( 3d)     0.00003       2.44743
    19    C    1  dyz    Ryd( 4d)     0.00070       3.03822
    20    C    1  dyz    Ryd( 3d)     0.00006       2.33150
    21    C    1  dx2y2  Ryd( 4d)     0.00028       2.73399
    22    C    1  dx2y2  Ryd( 3d)     0.00020       2.55829
    23    C    1  dz2    Ryd( 4d)     0.00028       2.95416
    24    C    1  dz2    Ryd( 3d)     0.00008       2.55855
    25    C    1  f(0)   Ryd( 4f)     0.00003       3.43288
    26    C    1  f(C1)  Ryd( 4f)     0.00006       3.51415
    27    C    1  f(S1)  Ryd( 4f)     0.00001       3.40277
    28    C    1  f(C2)  Ryd( 4f)     0.00003       3.35565
    29    C    1  f(S2)  Ryd( 4f)     0.00018       3.84180
    30    C    1  f(C3)  Ryd( 4f)     0.00003       3.39024
    31    C    1  f(S3)  Ryd( 4f)     0.00002       3.42238

    32    C    2  S      Cor( 1S)     1.99911     -10.11336
    33    C    2  S      Val( 2S)     0.89331      -0.20154
    34    C    2  S      Ryd( 3S)     0.00113       1.58447
    35    C    2  S      Ryd( 4S)     0.00004       1.72540
    36    C    2  S      Ryd( 5S)     0.00001      21.42515
    37    C    2  px     Val( 2p)     0.85272      -0.04155
    38    C    2  px     Ryd( 3p)     0.00298       1.29086
    39    C    2  px     Ryd( 4p)     0.00013       1.79982
    40    C    2  py     Val( 2p)     1.06540      -0.11613
    41    C    2  py     Ryd( 3p)     0.00294       0.87852
    42    C    2  py     Ryd( 4p)     0.00052       1.37356
    43    C    2  pz     Val( 2p)     1.07171      -0.07714
    44    C    2  pz     Ryd( 3p)     0.00354       1.36939
    45    C    2  pz     Ryd( 4p)     0.00038       2.04606
    46    C    2  dxy    Ryd( 3d)     0.00046       1.16258
    47    C    2  dxy    Ryd( 4d)     0.00042       3.35842
    48    C    2  dxz    Ryd( 3d)     0.00099       1.79491
    49    C    2  dxz    Ryd( 4d)     0.00069       3.74480
    50    C    2  dyz    Ryd( 3d)     0.00076       1.24875
    51    C    2  dyz    Ryd( 4d)     0.00042       3.44139
    52    C    2  dx2y2  Ryd( 3d)     0.00057       1.52083
    53    C    2  dx2y2  Ryd( 4d)     0.00038       3.91239
    54    C    2  dz2    Ryd( 3d)     0.00126       1.62187
    55    C    2  dz2    Ryd( 4d)     0.00070       3.69575
    56    C    2  f(0)   Ryd( 4f)     0.00015       4.09128
    57    C    2  f(C1)  Ryd( 4f)     0.00015       4.03545
    58    C    2  f(S1)  Ryd( 4f)     0.00021       3.77572
    59    C    2  f(C2)  Ryd( 4f)     0.00012       3.80823
    60    C    2  f(S2)  Ryd( 4f)     0.00007       3.57827
    61    C    2  f(C3)  Ryd( 4f)     0.00007       3.61836
    62    C    2  f(S3)  Ryd( 4f)     0.00008       3.61725

    63    N    3  S      Cor( 1S)     1.99937     -14.24389
    64    N    3  S      Val( 2S)     1.23612      -0.58224
    65    N    3  S      Ryd( 3S)     0.00077       1.87523
    66    N    3  S      Ryd( 4S)     0.00007       2.36123
    67    N    3  S      Ryd( 5S)     0.00000      30.71565
    68    N    3  px     Val( 2p)     1.30798      -0.26214
    69    N    3  px     Ryd( 3p)     0.00187       1.08271
    70    N    3  px     Ryd( 4p)     0.00019       2.79833
    71    N    3  py     Val( 2p)     1.54575      -0.28363
    72    N    3  py     Ryd( 3p)     0.00235       0.63191
    73    N    3  py     Ryd( 4p)     0.00040       2.30062
    74    N    3  pz     Val( 2p)     1.37381      -0.27637
    75    N    3  pz     Ryd( 3p)     0.00211       1.17056
    76    N    3  pz     Ryd( 4p)     0.00042       2.91495
    77    N    3  dxy    Ryd( 3d)     0.00101       1.45417
    78    N    3  dxy    Ryd( 4d)     0.00009       4.60456
    79    N    3  dxz    Ryd( 3d)     0.00204       1.78651
    80    N    3  dxz    Ryd( 4d)     0.00024       4.96186
    81    N    3  dyz    Ryd( 3d)     0.00170       1.38983
    82    N    3  dyz    Ryd( 4d)     0.00006       4.57009
    83    N    3  dx2y2  Ryd( 3d)     0.00274       1.63439
    84    N    3  dx2y2  Ryd( 4d)     0.00005       4.78233
    85    N    3  dz2    Ryd( 3d)     0.00292       1.71990
    86    N    3  dz2    Ryd( 4d)     0.00009       4.90478
    87    N    3  f(0)   Ryd( 4f)     0.00015       4.74467
    88    N    3  f(C1)  Ryd( 4f)     0.00020       5.28023
    89    N    3  f(S1)  Ryd( 4f)     0.00022       4.55628
    90    N    3  f(C2)  Ryd( 4f)     0.00022       4.64420
    91    N    3  f(S2)  Ryd( 4f)     0.00006       4.50545
    92    N    3  f(C3)  Ryd( 4f)     0.00018       4.55930
    93    N    3  f(S3)  Ryd( 4f)     0.00019       4.48388

    94    C    4  S      Cor( 1S)     1.99887     -10.08440
    95    C    4  S      Val( 2S)     0.93950      -0.18863
    96    C    4  S      Ryd( 3S)     0.00162       0.97979
    97    C    4  S      Ryd( 4S)     0.00055       1.65531
    98    C    4  S      Ryd( 5S)     0.00001      21.84546
    99    C    4  px     Val( 2p)     1.07247      -0.04469
   100    C    4  px     Ryd( 3p)     0.00277       1.12562
   101    C    4  px     Ryd( 4p)     0.00078       1.58718
   102    C    4  py     Val( 2p)     1.03947      -0.10336
   103    C    4  py     Ryd( 3p)     0.00253       0.70629
   104    C    4  py     Ryd( 4p)     0.00055       1.42339
   105    C    4  pz     Val( 2p)     1.00102      -0.05358
   106    C    4  pz     Ryd( 3p)     0.00215       1.02623
   107    C    4  pz     Ryd( 4p)     0.00094       1.81626
   108    C    4  dxy    Ryd( 3d)     0.00071       1.36728
   109    C    4  dxy    Ryd( 4d)     0.00010       3.18309
   110    C    4  dxz    Ryd( 3d)     0.00103       1.94142
   111    C    4  dxz    Ryd( 4d)     0.00051       3.80744
   112    C    4  dyz    Ryd( 3d)     0.00074       1.39296
   113    C    4  dyz    Ryd( 4d)     0.00023       3.35798
   114    C    4  dx2y2  Ryd( 3d)     0.00076       1.72361
   115    C    4  dx2y2  Ryd( 4d)     0.00019       3.67581
   116    C    4  dz2    Ryd( 3d)     0.00175       1.67213
   117    C    4  dz2    Ryd( 4d)     0.00042       3.66283
   118    C    4  f(0)   Ryd( 4f)     0.00010       4.04670
   119    C    4  f(C1)  Ryd( 4f)     0.00004       4.09445
   120    C    4  f(S1)  Ryd( 4f)     0.00007       3.67240
   121    C    4  f(C2)  Ryd( 4f)     0.00011       3.89567
   122    C    4  f(S2)  Ryd( 4f)     0.00006       3.57487
   123    C    4  f(C3)  Ryd( 4f)     0.00007       3.76700
   124    C    4  f(S3)  Ryd( 4f)     0.00008       3.51484

   125    C    5  S      Cor( 1S)     1.99932     -10.14192
   126    C    5  S      Val( 2S)     0.89514      -0.18916
   127    C    5  S      Ryd( 3S)     0.00228       1.22124
   128    C    5  S      Ryd( 4S)     0.00057       1.34785
   129    C    5  S      Ryd( 5S)     0.00001      21.93279
   130    C    5  px     Val( 2p)     1.10411      -0.07309
   131    C    5  px     Ryd( 3p)     0.00316       1.20996
   132    C    5  px     Ryd( 4p)     0.00089       1.45299
   133    C    5  py     Val( 2p)     0.97900      -0.11977
   134    C    5  py     Ryd( 3p)     0.00353       0.79068
   135    C    5  py     Ryd( 4p)     0.00061       1.23999
   136    C    5  pz     Val( 2p)     0.81329      -0.03936
   137    C    5  pz     Ryd( 3p)     0.00441       1.08173
   138    C    5  pz     Ryd( 4p)     0.00069       1.50465
   139    C    5  dxy    Ryd( 4d)     0.00034       3.22388
   140    C    5  dxy    Ryd( 3d)     0.00013       2.39045
   141    C    5  dxz    Ryd( 4d)     0.00036       4.01188
   142    C    5  dxz    Ryd( 3d)     0.00035       2.61877
   143    C    5  dyz    Ryd( 4d)     0.00076       3.42885
   144    C    5  dyz    Ryd( 3d)     0.00011       2.44455
   145    C    5  dx2y2  Ryd( 4d)     0.00041       3.60924
   146    C    5  dx2y2  Ryd( 3d)     0.00011       2.67668
   147    C    5  dz2    Ryd( 4d)     0.00074       3.85885
   148    C    5  dz2    Ryd( 3d)     0.00006       2.71358
   149    C    5  f(0)   Ryd( 4f)     0.00004       3.93900
   150    C    5  f(C1)  Ryd( 4f)     0.00006       4.10730
   151    C    5  f(S1)  Ryd( 4f)     0.00004       3.52917
   152    C    5  f(C2)  Ryd( 4f)     0.00009       3.65078
   153    C    5  f(S2)  Ryd( 4f)     0.00004       3.54373
   154    C    5  f(C3)  Ryd( 4f)     0.00011       3.60706
   155    C    5  f(S3)  Ryd( 4f)     0.00010       3.49647

   156    N    6  S      Cor( 1S)     1.99936     -14.18442
   157    N    6  S      Val( 2S)     1.27875      -0.53420
   158    N    6  S      Ryd( 3S)     0.00494       1.60855
   159    N    6  S      Ryd( 4S)     0.00012       4.04982
   160    N    6  S      Ryd( 5S)     0.00000      31.88763
   161    N    6  px     Val( 2p)     1.19856      -0.17705
   162    N    6  px     Ryd( 3p)     0.01120       1.21903
   163    N    6  px     Ryd( 4p)     0.00018       3.71948
   164    N    6  py     Val( 2p)     1.33049      -0.19826
   165    N    6  py     Ryd( 3p)     0.01134       0.78681
   166    N    6  py     Ryd( 4p)     0.00018       2.68080
   167    N    6  pz     Val( 2p)     1.46233      -0.22272
   168    N    6  pz     Ryd( 3p)     0.01097       1.38482
   169    N    6  pz     Ryd( 4p)     0.00024       3.67706
   170    N    6  dxy    Ryd( 3d)     0.00091       1.48191
   171    N    6  dxy    Ryd( 4d)     0.00021       4.77331
   172    N    6  dxz    Ryd( 3d)     0.00530       1.96702
   173    N    6  dxz    Ryd( 4d)     0.00020       5.14515
   174    N    6  dyz    Ryd( 3d)     0.00329       1.50611
   175    N    6  dyz    Ryd( 4d)     0.00014       4.78202
   176    N    6  dx2y2  Ryd( 3d)     0.00243       1.62849
   177    N    6  dx2y2  Ryd( 4d)     0.00011       4.88593
   178    N    6  dz2    Ryd( 3d)     0.00193       1.61656
   179    N    6  dz2    Ryd( 4d)     0.00025       4.87167
   180    N    6  f(0)   Ryd( 4f)     0.00015       4.64715
   181    N    6  f(C1)  Ryd( 4f)     0.00005       5.05481
   182    N    6  f(S1)  Ryd( 4f)     0.00011       4.36025
   183    N    6  f(C2)  Ryd( 4f)     0.00020       4.84354
   184    N    6  f(S2)  Ryd( 4f)     0.00008       4.66743
   185    N    6  f(C3)  Ryd( 4f)     0.00015       4.59878
   186    N    6  f(S3)  Ryd( 4f)     0.00023       4.54103

   187    C    7  S      Cor( 1S)     1.99943     -10.04007
   188    C    7  S      Val( 2S)     1.09656      -0.27532
   189    C    7  S      Ryd( 3S)     0.00058       1.26686
   190    C    7  S      Ryd( 4S)     0.00019       2.90414
   191    C    7  S      Ryd( 5S)     0.00000      21.01240
   192    C    7  px     Val( 2p)     1.17676      -0.08665
   193    C    7  px     Ryd( 3p)     0.00119       1.03291
   194    C    7  px     Ryd( 4p)     0.00015       1.83464
   195    C    7  py     Val( 2p)     1.08912      -0.08100
   196    C    7  py     Ryd( 3p)     0.00066       0.88310
   197    C    7  py     Ryd( 4p)     0.00024       1.73173
   198    C    7  pz     Val( 2p)     1.23515      -0.08614
   199    C    7  pz     Ryd( 3p)     0.00085       0.93028
   200    C    7  pz     Ryd( 4p)     0.00018       1.35243
   201    C    7  dxy    Ryd( 3d)     0.00161       1.69790
   202    C    7  dxy    Ryd( 4d)     0.00013       3.01068
   203    C    7  dxz    Ryd( 3d)     0.00116       1.56130
   204    C    7  dxz    Ryd( 4d)     0.00005       2.92706
   205    C    7  dyz    Ryd( 3d)     0.00074       1.47371
   206    C    7  dyz    Ryd( 4d)     0.00009       2.87864
   207    C    7  dx2y2  Ryd( 3d)     0.00105       1.62057
   208    C    7  dx2y2  Ryd( 4d)     0.00015       2.94598
   209    C    7  dz2    Ryd( 3d)     0.00208       1.80240
   210    C    7  dz2    Ryd( 4d)     0.00009       3.06677
   211    C    7  f(0)   Ryd( 4f)     0.00020       3.92428
   212    C    7  f(C1)  Ryd( 4f)     0.00001       3.31625
   213    C    7  f(S1)  Ryd( 4f)     0.00002       3.45220
   214    C    7  f(C2)  Ryd( 4f)     0.00002       3.60237
   215    C    7  f(S2)  Ryd( 4f)     0.00004       3.54521
   216    C    7  f(C3)  Ryd( 4f)     0.00011       3.81304
   217    C    7  f(S3)  Ryd( 4f)     0.00002       3.46647

   218    C    8  S      Cor( 1S)     1.99939     -10.09345
   219    C    8  S      Val( 2S)     1.11177      -0.33575
   220    C    8  S      Ryd( 3S)     0.00237       1.49051
   221    C    8  S      Ryd( 4S)     0.00057       2.15522
   222    C    8  S      Ryd( 5S)     0.00000      21.30976
   223    C    8  px     Val( 2p)     1.09351      -0.13278
   224    C    8  px     Ryd( 3p)     0.00101       1.14869
   225    C    8  px     Ryd( 4p)     0.00027       1.40151
   226    C    8  py     Val( 2p)     1.15131      -0.11365
   227    C    8  py     Ryd( 3p)     0.00069       1.06633
   228    C    8  py     Ryd( 4p)     0.00017       1.47030
   229    C    8  pz     Val( 2p)     1.17884      -0.12422
   230    C    8  pz     Ryd( 3p)     0.00107       1.13373
   231    C    8  pz     Ryd( 4p)     0.00100       1.94488
   232    C    8  dxy    Ryd( 3d)     0.00141       1.46727
   233    C    8  dxy    Ryd( 4d)     0.00028       3.42201
   234    C    8  dxz    Ryd( 3d)     0.00338       1.28580
[...]
  1710. RY*(   4) H  77                  0.00006     2.39672   
  1711. RY*(   5) H  77                  0.00001     3.02063   
  1712. RY*(   1) H  78                  0.00074     1.02093   
  1713. RY*(   2) H  78                  0.00013     1.85633   
  1714. RY*(   3) H  78                  0.00009     2.07130   
  1715. RY*(   4) H  78                  0.00006     2.04282   
  1716. RY*(   5) H  78                  0.00000     3.05082   
  1717. RY*(   1) H  79                  0.00076     1.04296   
  1718. RY*(   2) H  79                  0.00019     1.77321   
  1719. RY*(   3) H  79                  0.00007     2.17767   
  1720. RY*(   4) H  79                  0.00004     2.01412   
  1721. RY*(   5) H  79                  0.00001     3.01010   
  1722. RY*(   1) H  80                  0.00080     1.01471   
  1723. RY*(   2) H  80                  0.00019     1.74868   
  1724. RY*(   3) H  80                  0.00006     2.20233   
  1725. RY*(   4) H  80                  0.00005     2.06929   
  1726. RY*(   5) H  80                  0.00001     2.96997   
  1727. RY*(   1) H  81                  0.00155     0.63591   
  1728. RY*(   2) H  81                  0.00016     2.76616   
  1729. RY*(   3) H  81                  0.00010     2.26883   
  1730. RY*(   4) H  81                  0.00009     2.47304   
  1731. RY*(   5) H  81                  0.00001     2.99118   
  1732. RY*(   1) H  82                  0.00094     1.19670   
  1733. RY*(   2) H  82                  0.00016     1.58676   
  1734. RY*(   3) H  82                  0.00011     2.21155   
  1735. RY*(   4) H  82                  0.00006     2.45370   
  1736. RY*(   5) H  82                  0.00001     3.14946   
  1737. RY*(   1) H  83                  0.00074     0.90209   
  1738. RY*(   2) H  83                  0.00017     1.81342   
  1739. RY*(   3) H  83                  0.00010     2.26711   
  1740. RY*(   4) H  83                  0.00004     2.32940   
  1741. RY*(   5) H  83                  0.00000     3.01277   
  1742. RY*(   1) H  84                  0.00072     1.21847   
  1743. RY*(   2) H  84                  0.00017     1.78400   
  1744. RY*(   3) H  84                  0.00008     1.87039   
  1745. RY*(   4) H  84                  0.00006     2.13157   
  1746. RY*(   5) H  84                  0.00001     3.06955   
  1747. RY*(   1) H  85                  0.00086     1.01698   
  1748. RY*(   2) H  85                  0.00018     1.77187   
  1749. RY*(   3) H  85                  0.00007     2.17524   
  1750. RY*(   4) H  85                  0.00004     2.08821   
  1751. RY*(   5) H  85                  0.00001     2.97583   
  1752. RY*(   1) H  86                  0.00074     1.04079   
  1753. RY*(   2) H  86                  0.00018     1.79415   
  1754. RY*(   3) H  86                  0.00007     2.20096   
  1755. RY*(   4) H  86                  0.00005     2.02214   
  1756. RY*(   5) H  86                  0.00001     2.96969   
  1757. RY*(   1) H  87                  0.00079     1.34883   
  1758. RY*(   2) H  87                  0.00024     1.61733   
  1759. RY*(   3) H  87                  0.00014     2.38499   
  1760. RY*(   4) H  87                  0.00010     2.37001   
  1761. RY*(   5) H  87                  0.00001     3.10961   
  1762. RY*(   1) H  88                  0.00076     1.11148   
  1763. RY*(   2) H  88                  0.00028     1.55325   
  1764. RY*(   3) H  88                  0.00018     2.16425   
  1765. RY*(   4) H  88                  0.00007     2.49578   
  1766. RY*(   5) H  88                  0.00001     3.05210   
  1767. RY*(   1) H  89                  0.00055     1.23902   
  1768. RY*(   2) H  89                  0.00028     1.32955   
  1769. RY*(   3) H  89                  0.00015     2.09403   
  1770. RY*(   4) H  89                  0.00005     2.55376   
  1771. RY*(   5) H  89                  0.00001     3.07998   
  1772. RY*(   1) H  90                  0.00065     1.30606   
  1773. RY*(   2) H  90                  0.00016     1.85037   
  1774. RY*(   3) H  90                  0.00006     2.11767   
  1775. RY*(   4) H  90                  0.00002     1.75022   
  1776. RY*(   5) H  90                  0.00001     2.99022   
  1777. RY*(   1) H  91                  0.00083     1.19049   
  1778. RY*(   2) H  91                  0.00018     1.73218   
  1779. RY*(   3) H  91                  0.00006     2.11069   
  1780. RY*(   4) H  91                  0.00003     1.93282   
  1781. RY*(   5) H  91                  0.00001     2.94812   
  1782. RY*(   1) H  92                  0.00091     1.16100   
  1783. RY*(   2) H  92                  0.00016     1.73871   
  1784. RY*(   3) H  92                  0.00007     2.15861   
  1785. RY*(   4) H  92                  0.00004     1.83956   
  1786. RY*(   5) H  92                  0.00001     3.01102   
  1787. RY*(   1) H  93                  0.00179     0.62340   
  1788. RY*(   2) H  93                  0.00023     2.27572   
  1789. RY*(   3) H  93                  0.00017     2.68400   
  1790. RY*(   4) H  93                  0.00008     2.46250   
  1791. RY*(   5) H  93                  0.00001     3.08866   
  1792. RY*(   1) H  94                  0.00158     0.65203   
  1793. RY*(   2) H  94                  0.00021     2.27362   
  1794. RY*(   3) H  94                  0.00018     2.63514   
  1795. RY*(   4) H  94                  0.00010     2.47784   
  1796. RY*(   5) H  94                  0.00001     3.12173   
  1797. RY*(   1) H  95                  0.00090     1.26510   
  1798. RY*(   2) H  95                  0.00018     1.91399   
  1799. RY*(   3) H  95                  0.00012     2.17525   
  1800. RY*(   4) H  95                  0.00007     2.43556   
  1801. RY*(   5) H  95                  0.00001     3.06353   
  1802. RY*(   1) H  96                  0.00074     1.33993   
  1803. RY*(   2) H  96                  0.00018     2.01733   
  1804. RY*(   3) H  96                  0.00009     1.86048   
  1805. RY*(   4) H  96                  0.00007     2.44393   
  1806. RY*(   5) H  96                  0.00001     3.07632   
  1807. RY*(   1) H  97                  0.00186     0.86886   
  1808. RY*(   2) H  97                  0.00065     2.14389   
  1809. RY*(   3) H  97                  0.00049     1.81948   
  1810. RY*(   4) H  97                  0.00021     2.14241   
  1811. RY*(   5) H  97                  0.00000     3.14983   
  1812. RY*(   1) H  98                  0.00188     0.88290   
  1813. RY*(   2) H  98                  0.00059     2.11999   
  1814. RY*(   3) H  98                  0.00052     1.85810   
  1815. RY*(   4) H  98                  0.00021     2.12822   
  1816. RY*(   5) H  98                  0.00001     3.14186   
  1822. RY*(   1) H 100                  0.00093     0.93226   
  1823. RY*(   2) H 100                  0.00016     1.74109   
  1824. RY*(   3) H 100                  0.00012     2.28544   
  1825. RY*(   4) H 100                  0.00005     2.35115   
  1826. RY*(   5) H 100                  0.00001     3.11643   
  1827. RY*(   1) H 101                  0.00077     1.86314   
  1828. RY*(   2) H 101                  0.00016     2.65806   
  1829. RY*(   3) H 101                  0.00012     2.41404   
  1830. RY*(   4) H 101                  0.00006     1.39894   
  1831. RY*(   5) H 101                  0.00001     3.05394   
  1858. BD*(   1) C  12 - C  17          0.02069     0.60347   
  1859. BD*(   2) C  12 - C  17          0.40792     0.05258  103(v),1879(v),1876(v)
                                                    500(g),1864(r),632(g),634(g)
  1860. BD*(   1) C  12 - C  47          0.02427     0.59572   
  1861. BD*(   1) C  12 - H  67          0.01564     0.44358   
  1862. BD*(   1) C  13 - C  20          0.01939     0.61813   
  1863. BD*(   1) C  13 - C  28          0.02195     0.57915   
  1864. BD*(   2) C  13 - C  28          0.43116     0.05077  1876(v),1901(v),1898(v)
                                                    526(g),1859(r),920(g),918(g)
                                                    1838(r),1855(r)
  1865. BD*(   1) C  13 - H  68          0.01436     0.45225   
  1866. BD*(   1) C  14 - C  31          0.02232     0.61467   
  1867. BD*(   1) C  14 - C  36          0.02159     0.62204   
  1868. BD*(   2) C  14 - C  36          0.41663     0.06029  1919(v),1898(v),1916(v)
                                                    552(g),1126(g),1872(r)
                                                    1128(g)
  1869. BD*(   1) C  14 - H  69          0.01605     0.45540   
  1870. BD*(   1) C  15 - C  39          0.02154     0.61935   
  1871. BD*(   1) C  15 - C  44          0.02254     0.64048   
  1872. BD*(   2) C  15 - C  44          0.41703     0.06475  1916(v),1935(v),103(v)
                                                    1927(r),578(g),1336(g)
                                                    1868(r),1848(r),195(r)
  1873. BD*(   1) C  15 - H  70          0.01488     0.45044   
  1874. BD*(   1) N  16 - C  17          0.02769     0.48887   
  1875. BD*(   1) N  16 - C  20          0.02761     0.49166   
  1876. BD*(   2) N  16 - C  20          0.61650     0.01306  1864(v),1859(v),1879(v)
                                                    710(g),604(g),526(v),195(r)
                                                    1854(r),196(r),197(r),194(r)
                                                    1844(r)
  1877. BD*(   1) C  17 - C  18          0.03477     0.49220   
  1878. BD*(   1) C  18 - C  19          0.01880     0.64201   
  1879. BD*(   2) C  18 - C  19          0.22678     0.07790  1859(v),1876(v),1886(v)
                                                    1885(v),1884(v)
  1880. BD*(   1) C  18 - C  22          0.02514     0.37541   
  1881. BD*(   1) C  19 - C  20          0.03540     0.48046   
  1882. BD*(   1) C  19 - C  21          0.01921     0.37390   
  1883. BD*(   1) C  21 - H  71          0.00526     0.41603   
  1884. BD*(   1) C  21 - H  72          0.00769     0.40937   
  1885. BD*(   1) C  21 - H  73          0.00873     0.40751   
  1886. BD*(   1) C  22 - C  23          0.01635     0.34859   
  1887. BD*(   1) C  22 - H  74          0.01093     0.40635   
  1888. BD*(   1) C  22 - H  75          0.01364     0.40313   
  1889. BD*(   1) C  23 - C  24          0.06239     0.34255   
  1890. BD*(   1) C  23 - H  76          0.01225     0.38621   
  1891. BD*(   1) C  23 - H  77          0.00913     0.38764   
  1892. BD*(   1) C  24 - O  25          0.07174     0.47078   
  1893. BD*(   1) C  24 - O  26          0.03875     0.47825   
  1894. BD*(   2) C  24 - O  26          0.23906     0.01093  1893(g),1890(v),814(g)
  1895. BD*(   1) O  25 - H  98          0.01470     0.37853   
  1896. BD*(   1) N  27 - C  28          0.02750     0.49956   
  1897. BD*(   1) N  27 - C  31          0.02871     0.50545   
  1898. BD*(   2) N  27 - C  31          0.64303     0.01003  1868(v),1864(v),1901(v)
                                                    996(g),891(g),552(v),195(r)
                                                    103(r),1854(r),1844(r)
                                                    197(r),1838(r),1842(r)
                                                    1855(r),196(r)
  1899. BD*(   1) C  28 - C  29          0.03365     0.50346   
  1900. BD*(   1) C  29 - C  30          0.02049     0.63838   
  1901. BD*(   2) C  29 - C  30          0.24112     0.07836  1864(v),1898(v),1909(v)
                                                    1906(v),1907(v),1908(v)
  1902. BD*(   1) C  29 - C  32          0.01976     0.37819   
  1903. BD*(   1) C  30 - C  31          0.03412     0.50702   
  1904. BD*(   1) C  30 - C  33          0.03122     0.39636   
  1905. BD*(   1) C  32 - H  78          0.00513     0.41855   
  1906. BD*(   1) C  32 - H  79          0.00817     0.41095   
  1907. BD*(   1) C  32 - H  80          0.00883     0.41143   
  1908. BD*(   1) C  33 - C  34          0.00909     0.55518   
  1909. BD*(   1) C  33 - H  81          0.02090     0.40762   
  1910. BD*(   1) C  33 - H 101          0.01791     0.41792   
  1911. BD*(   1) C  34 - H  82          0.01312     0.41816   
  1912. BD*(   1) C  34 - H  83          0.01082     0.41837   
  1913. BD*(   1) C  34 - H 100          0.01196     0.41380   
  1914. BD*(   1) N  35 - C  36          0.02667     0.52783   
  1915. BD*(   1) N  35 - C  39          0.02736     0.50494   
  1916. BD*(   2) N  35 - C  39          0.60916     0.01736  1872(v),1868(v),1919(v)
                                                    1204(g),1098(g),1206(g)
                                                    195(r),1844(r),1854(r)
                                                    197(r),1850(r),1838(r)
  1917. BD*(   1) C  36 - C  37          0.03639     0.49559   
  1918. BD*(   1) C  37 - C  38          0.02047     0.64211   
  1919. BD*(   2) C  37 - C  38          0.23614     0.08271  1868(v),1927(v),1916(v)
                                                    1924(v),1925(v),1928(v)
  1920. BD*(   1) C  37 - C  40          0.01829     0.39686   
  1921. BD*(   1) C  38 - C  39          0.03506     0.49610   
  1922. BD*(   1) C  38 - C  41          0.02917     0.40513   
  1923. BD*(   1) C  40 - H  84          0.00666     0.42855   
  1924. BD*(   1) C  40 - H  85          0.01004     0.41562   
  1925. BD*(   1) C  40 - H  86          0.00823     0.41414   
  1926. BD*(   1) C  41 - C  42          0.00584     0.59457   
  1927. BD*(   2) C  41 - C  42          0.04124     0.06552   
  1928. BD*(   1) C  41 - H  87          0.01782     0.45391   
  1929. BD*(   1) C  42 - H  88          0.00996     0.44814   
  1930. BD*(   1) C  42 - H  89          0.00879     0.45030   
  1931. BD*(   1) N  43 - C  44          0.03033     0.48956   
  1932. BD*(   1) N  43 - C  47          0.02933     0.48640   
  1933. BD*(   1) C  44 - C  45          0.03292     0.48409   
  1934. BD*(   1) C  45 - C  46          0.02427     0.44631   
  1935. BD*(   2) C  45 - C  46          0.31255     0.03550  103(v),1872(v),1942(v)
                                                    1941(v),1940(v)
  1936. BD*(   1) C  45 - C  48          0.01450     0.37214   
  1937. BD*(   1) C  46 - C  47          0.03153     0.51140   
  1938. BD*(   1) C  46 - C  49          0.02186     0.38845   
  1939. BD*(   1) C  48 - H  90          0.00601     0.41077   
  1940. BD*(   1) C  48 - H  91          0.00934     0.40813   
  1941. BD*(   1) C  48 - H  92          0.01027     0.40992   
  1942. BD*(   1) C  49 - C  50          0.01747     0.35084   
  1943. BD*(   1) C  49 - H  93          0.01428     0.40530   
  1944. BD*(   1) C  49 - H  94          0.01370     0.40172   
  1945. BD*(   1) C  50 - C  51          0.06925     0.34444   
  1946. BD*(   1) C  50 - H  95          0.00919     0.39343   
  1947. BD*(   1) C  50 - H  96          0.01034     0.39167   
  1948. BD*(   1) C  51 - O  52          0.03668     0.56286   
  1949. BD*(   2) C  51 - O  52          0.22556     0.01080  1947(v),1946(v),1948(g)
                                                    1951(v)
  1950. BD*(   1) C  51 - O  53          0.07123     0.51619   
  1951. BD*(   1) O  53 - H  97          0.01558     0.37883   
       -------------------------------
              Total Lewis  290.61828  ( 97.2962%)
        Valence non-Lewis    7.45016  (  2.4942%)
        Rydberg non-Lewis    0.62607  (  0.2096%)
       -------------------------------
            Total unit  3  298.69451  (100.0000%)
           Charge unit  3   -0.69451
 1\1\GINC-NODE706\SP\RPBE1PBE\def2TZVP\C41H48Fe1N6O4S1\KLEICH\18-Sep-20
 22\0\\# PBE1PBE/def2TZVP empiricaldispersion=GD3BJ int=(grid=ultrafine
 ) geom=check guess=read pop=nbo\\2v07_II_S_nbo\\0,1\C,0,19.31,-18.566,
 20.036\C,0,19.862,-19.718,19.248\N,0,21.133,-20.196,19.454\C,0,19.335,
 -20.466,18.244\C,0,21.372,-21.198,18.617\N,0,20.306,-21.37,17.855\C,0,
 21.268,-26.36,14.954\C,0,20.836,-25.248,13.998\S,0,19.563,-24.21,14.64
 6\C,0,18.971,-23.364,13.215\Fe,0,20.044,-22.673,16.351\C,0,23.427,-23.
 259,16.142\C,0,20.379,-20.037,14.221\C,0,16.633,-22.302,16.288\C,0,19.
 732,-25.058,18.706\N,0,21.592,-21.835,15.357\C,0,22.929,-22.196,15.445
 \C,0,23.716,-21.253,14.673\C,0,22.869,-20.378,14.119\C,0,21.51,-20.718
 ,14.541\C,0,23.219,-19.187,13.215\C,0,25.251,-21.313,14.578\C,0,25.839
 ,-20.816,15.905\C,0,27.343,-20.976,16.007\O,0,27.909,-21.789,15.233\O,
 0,27.981,-20.318,16.902\N,0,18.738,-21.419,15.446\C,0,19.097,-20.373,1
 4.631\C,0,17.892,-19.7,14.208\C,0,16.847,-20.33,14.771\C,0,17.372,-21.
 429,15.546\C,0,17.916,-18.486,13.271\C,0,15.349,-20.071,14.594\C,0,14.
 937,-20.186,13.293\N,0,18.461,-23.518,17.311\C,0,17.147,-23.218,17.15\
 C,0,16.387,-24.015,18.098\C,0,17.243,-24.788,18.779\C,0,18.572,-24.486
 ,18.28\C,0,14.876,-23.957,18.249\C,0,16.934,-25.784,19.901\C,0,15.978,
 -26.724,19.784\N,0,21.344,-23.921,17.258\C,0,20.959,-24.892,18.174\C,0
 ,22.095,-25.74,18.503\C,0,23.221,-25.194,17.691\C,0,22.694,-24.076,16.
 966\C,0,22.126,-26.956,19.441\C,0,24.633,-25.775,17.674\C,0,24.649,-26
 .905,16.636\C,0,26.007,-27.59,16.542\O,0,26.229,-28.393,15.615\O,0,26.
 876,-27.363,17.394\H,0,18.69588043,-17.9616168,19.40158837\H,0,20.1167
 9155,-17.97627665,20.41837909\H,0,18.7238086,-18.93884864,20.84979576\
 H,0,18.35215653,-20.37294573,17.83137473\H,0,22.27503937,-21.76981705,
 18.56755147\H,0,22.14320354,-26.84079558,14.56961167\H,0,21.48410112,-
 25.94070726,15.9144134\H,0,20.47905825,-27.07680167,15.04709283\H,0,20
 .40829078,-25.74090735,13.15005709\H,0,21.6925391,-24.61858986,13.8751
 8448\H,0,18.32338451,-22.56663084,13.51449389\H,0,18.43099686,-24.0480
 2106,12.59418457\H,0,19.79965513,-22.96436985,12.66862428\H,0,24.47041
 554,-23.47186812,16.0377351\H,0,20.48565692,-19.1706565,13.60215169\H,
 0,15.56880874,-22.26290086,16.18374929\H,0,19.66184279,-25.70817764,19
 .55290437\H,0,22.31878791,-18.75123154,12.83470533\H,0,23.82431295,-19
 .52395494,12.39955067\H,0,23.75777106,-18.45595225,13.78085769\H,0,25.
 54533352,-20.61331695,13.82387042\H,0,25.51852378,-22.34476436,14.4842
 2723\H,0,25.42600106,-21.44878447,16.66257224\H,0,25.65515154,-19.7621
 943,15.92935762\H,0,16.91490785,-18.15233342,13.09385284\H,0,18.369814
 06,-18.76142053,12.34197022\H,0,18.48002154,-17.69730667,13.72348485\H
 ,0,15.12768929,-19.08256047,14.93883164\H,0,15.55364565,-20.89788817,1
 2.78519751\H,0,13.91898758,-20.51459357,13.2689794\H,0,14.56010682,-24
 .69188594,18.95967162\H,0,14.58871593,-22.9843583,18.5900806\H,0,14.41
 525625,-24.15391697,17.30356946\H,0,17.49759236,-25.73054597,20.808968
 23\H,0,15.40352635,-26.79369589,18.8839875\H,0,15.79240037,-27.4016565
 ,20.59099098\H,0,23.13817859,-27.27444351,19.57879778\H,0,21.70464327,
 -26.68742956,20.38716511\H,0,21.55677244,-27.75318065,19.01043874\H,0,
 24.80377746,-26.22136791,18.63133523\H,0,25.2874811,-25.00737506,17.31
 719972\H,0,24.48451422,-26.43926211,15.68682528\H,0,23.96581868,-27.64
 687309,16.99347392\H,0,27.80506974,-27.42523148,17.16042634\H,0,28.867
 46391,-21.82831723,15.19556883\H,0,21.7791892,-19.8432351,20.13075435\
 H,0,15.01647167,-19.23536762,12.8083534\H,0,14.8055584,-20.77381571,15
 .19033992\\Version=ES64L-G16RevA.03\State=1-A\HF=-3880.657008\RMSD=1.9
 86e-09\Dipole=-0.0639333,1.5511921,0.6728423\Quadrupole=4.8217713,-12.
 7786828,7.9569115,-5.3800307,-2.1595878,-6.2631259\PG=C01 [X(C41H48Fe1
 N6O4S1)]\\@


 ORIGINALITY CONSISTS NOT IN SAYING WHAT NO ONE HAS EVER SAID BEFORE, 
 BUT IN SAYING WHAT YOU THINK YOUR SELF.

                                    -- JAMES F. STEPHEN
 Job cpu time:       0 days  2 hours  9 minutes  1.1 seconds.
 Elapsed time:       0 days  0 hours 32 minutes 21.9 seconds.
 File lengths (MBytes):  RWF=   1941 Int=      0 D2E=      0 Chk=    249 Scr=      1
 Normal termination of Gaussian 16 at Sun Sep 18 17:27:13 2022.
