 Entering Gaussian System, Link 0=g16
 Input=/net/work/kleich/bench/splitthejobs/451c/451c01/451c01.com
 Output=/net/work/kleich/bench/splitthejobs/451c/451c01/451c01.log
 Initial command:
 /afs/math/software/gaussian/g16.A03/g16/l1.exe "/scratch/kleich_gaussian.wpTzwzc/Gau-30792.inp" -scrdir="/scratch/kleich_gaussian.wpTzwzc/"
 Entering Link 1 = /afs/math/software/gaussian/g16.A03/g16/l1.exe PID=     30793.
  
 Copyright (c) 1988,1990,1992,1993,1995,1998,2003,2009,2016,
            Gaussian, Inc.  All Rights Reserved.
  
 This is part of the Gaussian(R) 16 program.  It is based on
 the Gaussian(R) 09 system (copyright 2009, Gaussian, Inc.),
 the Gaussian(R) 03 system (copyright 2003, Gaussian, Inc.),
 the Gaussian(R) 98 system (copyright 1998, Gaussian, Inc.),
 the Gaussian(R) 94 system (copyright 1995, Gaussian, Inc.),
 the Gaussian 92(TM) system (copyright 1992, Gaussian, Inc.),
 the Gaussian 90(TM) system (copyright 1990, Gaussian, Inc.),
 the Gaussian 88(TM) system (copyright 1988, Gaussian, Inc.),
 the Gaussian 86(TM) system (copyright 1986, Carnegie Mellon
 University), and the Gaussian 82(TM) system (copyright 1983,
 Carnegie Mellon University). Gaussian is a federally registered
 trademark of Gaussian, Inc.
  
 This software contains proprietary and confidential information,
 including trade secrets, belonging to Gaussian, Inc.
  
 This software is provided under written license and may be
 used, copied, transmitted, or stored only in accord with that
 written license.
  
 The following legend is applicable only to US Government
 contracts under FAR:
  
                    RESTRICTED RIGHTS LEGEND
  
 Use, reproduction and disclosure by the US Government is
 subject to restrictions as set forth in subparagraphs (a)
 and (c) of the Commercial Computer Software - Restricted
 Rights clause in FAR 52.227-19.
  
 Gaussian, Inc.
 340 Quinnipiac St., Bldg. 40, Wallingford CT 06492
  
  
 ---------------------------------------------------------------
 Warning -- This program may not be used in any manner that
 competes with the business of Gaussian, Inc. or will provide
 assistance to any competitor of Gaussian, Inc.  The licensee
 of this program is prohibited from giving any competitor of
 Gaussian, Inc. access to this program.  By using this program,
 the user acknowledges that Gaussian, Inc. is engaged in the
 business of creating and licensing software in the field of
 computational chemistry and represents and warrants to the
 licensee that it is not a competitor of Gaussian, Inc. and that
 it will not use this program in any manner prohibited above.
 ---------------------------------------------------------------
  

 Cite this work as:
 Gaussian 16, Revision A.03,
 M. J. Frisch, G. W. Trucks, H. B. Schlegel, G. E. Scuseria, 
 M. A. Robb, J. R. Cheeseman, G. Scalmani, V. Barone, 
 G. A. Petersson, H. Nakatsuji, X. Li, M. Caricato, A. V. Marenich, 
 J. Bloino, B. G. Janesko, R. Gomperts, B. Mennucci, H. P. Hratchian, 
 J. V. Ortiz, A. F. Izmaylov, J. L. Sonnenberg, D. Williams-Young, 
 F. Ding, F. Lipparini, F. Egidi, J. Goings, B. Peng, A. Petrone, 
 T. Henderson, D. Ranasinghe, V. G. Zakrzewski, J. Gao, N. Rega, 
 G. Zheng, W. Liang, M. Hada, M. Ehara, K. Toyota, R. Fukuda, 
 J. Hasegawa, M. Ishida, T. Nakajima, Y. Honda, O. Kitao, H. Nakai, 
 T. Vreven, K. Throssell, J. A. Montgomery, Jr., J. E. Peralta, 
 F. Ogliaro, M. J. Bearpark, J. J. Heyd, E. N. Brothers, K. N. Kudin, 
 V. N. Staroverov, T. A. Keith, R. Kobayashi, J. Normand, 
 K. Raghavachari, A. P. Rendell, J. C. Burant, S. S. Iyengar, 
 J. Tomasi, M. Cossi, J. M. Millam, M. Klene, C. Adamo, R. Cammi, 
 J. W. Ochterski, R. L. Martin, K. Morokuma, O. Farkas, 
 J. B. Foresman, and D. J. Fox, Gaussian, Inc., Wallingford CT, 2016.
 
 ******************************************
 Gaussian 16:  ES64L-G16RevA.03 25-Dec-2016
                19-Sep-2022 
 ******************************************
 %nprocs=12
 Will use up to   12 processors via shared memory.
 %mem=16GB
 %chk=451c_II_S.chk
 ----------------------------------------------------------------------
 # PBE1PBE/def2TZVP empiricaldispersion=GD3BJ int=(grid=ultrafine) geom
 =check guess=read pop=nbo
 ----------------------------------------------------------------------
 1/29=2,38=1,172=1/1;
 2/12=2,40=1/2;
 3/5=44,7=101,11=2,14=-4,25=1,30=1,74=-13,75=-5,116=-2,124=41/1,2,3;
 4/5=1/1;
 5/5=2,38=6/2;
 6/7=2,8=2,9=2,10=2,28=1,40=1/1,7;
 99/5=1,9=1/99;
 -------------
 451c_II_S_nbo
 -------------
 Structure from the checkpoint file:  "451c_II_S.chk"
 Charge =  0 Multiplicity = 1
 Z-Matrix found in chk file.
 C,0,10.502,-8.068,15.869
 C,0,10.644,-9.486,16.397
 N,0,11.619,-10.33,15.982
 C,0,9.793,-10.187,17.233
 C,0,11.389,-11.544,16.547
 N,0,10.269,-11.46,17.324
 C,0,9.895,-15.821,21.142
 C,0,8.597,-15.027,20.951
 S,0,8.145,-14.71,19.221
 C,0,8.329,-16.29,18.364
 C,0,11.705,-15.239,17.133
 C,0,7.601,-13.454,15.352
 C,0,6.884,-11.032,19.466
 C,0,11.276,-12.321,20.96
 C,0,10.634,-14.991,16.299
 C,0,10.451,-15.547,15.05
 C,0,9.297,-14.993,14.516
 C,0,8.779,-14.157,15.475
 C,0,8.679,-15.258,13.158
 C,0,11.329,-16.591,14.424
 C,0,10.903,-17.937,14.962
 C,0,11.76,-19.039,14.369
 O,0,12.509,-18.781,13.431
 O,0,11.265,-20.229,14.446
 C,0,7.048,-12.619,16.3
 C,0,5.816,-11.979,16.18
 C,0,5.558,-11.35,17.403
 C,0,6.695,-11.546,18.199
 C,0,4.912,-12.026,14.967
 C,0,4.299,-10.621,17.829
 C,0,3.091,-11.541,17.981
 C,0,8.016,-11.19,20.251
 C,0,8.243,-10.559,21.468
 C,0,9.57,-10.805,21.808
 C,0,10.044,-11.718,20.897
 C,0,7.266,-9.649,22.19
 C,0,10.391,-10.166,22.92
 C,0,9.85,-10.474,24.312
 C,0,11.754,-13.25,20.069
 C,0,12.959,-13.93,20.212
 C,0,13.04,-14.833,19.16
 C,0,11.929,-14.616,18.347
 C,0,13.966,-13.748,21.33
 C,0,14.127,-15.851,18.915
 C,0,13.727,-17.251,19.352
 C,0,14.825,-18.245,18.978
 O,0,14.505,-19.418,18.767
 O,0,16.095,-17.97,19.199
 N,0,9.61,-14.148,16.551
 N,0,7.581,-12.332,17.521
 N,0,9.124,-11.898,19.917
 N,0,11.12,-13.676,18.928
 Fe,0,9.397,-12.981,18.23
 H,0,10.46839937,-7.38321688,16.69048833
 H,0,11.33864153,-7.83463157,15.24412391
 H,0,9.59898282,-7.98779688,15.30064498
 H,0,8.9214689,-9.80030703,17.71859457
 H,0,11.98631983,-12.42056673,16.40650162
 H,0,9.93600409,-16.20256592,22.14081235
 H,0,9.92062521,-16.63493896,20.44792023
 H,0,10.7340315,-15.17949718,20.97053491
 H,0,8.78164574,-14.06499607,21.38152804
 H,0,7.81889627,-15.64813452,21.34297768
 H,0,8.16163485,-16.56876805,17.34459955
 H,0,7.26503222,-16.18494868,18.32114241
 H,0,9.11663949,-15.73815759,17.89496483
 H,0,12.41809298,-15.97079501,16.8153926
 H,0,7.06380432,-13.56644186,14.43348074
 H,0,6.082081,-10.45802045,19.88117875
 H,0,11.91684591,-12.04392441,21.77083021
 H,0,8.01519655,-14.45755894,12.90589072
 H,0,8.13331632,-16.17791224,13.18784625
 H,0,9.45211529,-15.3256462,12.42137477
 H,0,12.32555659,-16.41399773,14.77105211
 H,0,11.11994637,-16.59058764,13.37462094
 H,0,9.90576196,-18.10397519,14.61194919
 H,0,11.10614254,-17.9240994,16.01246022
 H,0,4.00909843,-12.54388128,15.21492686
 H,0,4.67779859,-11.02876108,14.65786535
 H,0,5.41001715,-12.53858445,14.17067337
 H,0,4.06080585,-9.9526977,17.02804084
 H,0,4.49931467,-10.23464658,18.80649939
 H,0,2.96060595,-11.79086025,19.01321473
 H,0,2.21532461,-11.04222675,17.62139208
 H,0,3.25006128,-12.43498544,17.41497038
 H,0,7.47253986,-9.66521916,23.23975151
 H,0,7.37008572,-8.64989614,21.82141128
 H,0,6.26665029,-9.99039139,22.01780223
 H,0,10.29013206,-9.10857362,22.79125564
 H,0,11.35824964,-10.62097146,22.87173917
 H,0,10.66240104,-10.52973498,25.00611682
 H,0,9.17663336,-9.69866705,24.61255978
 H,0,9.33134476,-11.40972222,24.29409274
 H,0,14.37868432,-14.69855006,21.596545
 H,0,14.75007586,-13.09821715,21.00150755
 H,0,13.48016448,-13.31874393,22.1812362
 H,0,14.35511297,-15.86763035,17.8697307
 H,0,12.86341159,-17.51692048,18.77893686
 H,0,13.67629946,-17.23670871,20.42070258
 H,0,13.46058197,-18.81464202,13.55331092
 H,0,15.18347647,-20.08644009,18.64676056
 H,0,12.37438365,-10.10014482,15.3683534
 H,0,15.00273251,-15.55772375,19.45535324
 Recover connectivity data from disk.
 Stoichiometry    C41H50FeN6O4S
 Framework group  C1[X(C41H50FeN6O4S)]
 Deg. of freedom   303
 Full point group                 C1      NOp   1
 Largest Abelian subgroup         C1      NOp   1
 Largest concise Abelian subgroup C1      NOp   1
                         Standard orientation:                         
 ---------------------------------------------------------------------
 Center     Atomic      Atomic             Coordinates (Angstroms)
 Number     Number       Type             X           Y           Z
 ---------------------------------------------------------------------
      1          6           0        3.279414   -0.858909    5.033445
      2          6           0        2.263317   -0.513617    3.957345
      3          7           0        0.931154   -0.455993    4.196525
      4          6           0        2.466145   -0.341152    2.599547
      5          6           0        0.302271   -0.249437    3.010033
      6          7           0        1.243531   -0.171292    2.023571
      7          6           0       -0.815655    2.314888   -2.804885
      8          6           0        0.513037    1.571128   -2.986873
      9         16           0        0.567587   -0.084816   -2.243525
     10          6           0       -0.961251   -0.904624   -2.748773
     11          6           0       -2.521303   -0.043649    0.543992
     12          6           0        0.821877   -3.476345    0.053321
     13          6           0        4.165297   -0.087634   -0.748767
     14          6           0        0.947664    3.315032    0.370128
     15          6           0       -1.910592   -1.277372    0.448798
     16          6           0       -2.549586   -2.494156    0.566059
     17          6           0       -1.578979   -3.480980    0.477237
     18          6           0       -0.383977   -2.841611    0.253451
     19          6           0       -1.765758   -4.981878    0.570674
     20          6           0       -4.030032   -2.689748    0.716789
     21          6           0       -4.647874   -2.624878   -0.660418
     22          6           0       -6.150766   -2.810787   -0.575235
     23          8           0       -6.653495   -3.177065    0.483308
     24          8           0       -6.731009   -3.151437   -1.677202
     25          6           0        2.034253   -2.864713   -0.187073
     26          6           0        3.225804   -3.532955   -0.461812
     27          6           0        4.178005   -2.560248   -0.785988
     28          6           0        3.556855   -1.317575   -0.599608
     29          6           0        3.413613   -5.034779   -0.468515
     30          6           0        5.596933   -2.771567   -1.275871
     31          6           0        5.668621   -3.389542   -2.669332
     32          6           0        3.572926    1.147815   -0.535748
     33          6           0        4.233638    2.369899   -0.563091
     34          6           0        3.340337    3.321715   -0.080280
     35          6           0        2.126328    2.690284    0.044791
     36          6           0        5.697770    2.578058   -0.904999
     37          6           0        3.622486    4.767608    0.305323
     38          6           0        4.082238    5.619372   -0.872953
     39          6           0       -0.275548    2.700588    0.477915
     40          6           0       -1.474995    3.369151    0.699780
     41          6           0       -2.482507    2.414148    0.660263
     42          6           0       -1.865616    1.173353    0.511090
     43          6           0       -1.647875    4.861472    0.900252
     44          6           0       -3.968433    2.652376    0.775108
     45          6           0       -4.669282    2.639124   -0.573818
     46          6           0       -6.177727    2.777348   -0.376329
     47          8           0       -6.926245    2.287789   -1.226566
     48          8           0       -6.675016    3.662972    0.463755
     49          7           0       -0.592729   -1.498170    0.255888
     50          7           0        2.252575   -1.521120   -0.253342
     51          7           0        2.284836    1.360106   -0.166639
     52          7           0       -0.516975    1.354414    0.356085
     53         26           0        0.858666   -0.051523    0.091682
     54          1           0        4.032987   -0.100123    5.069080
     55          1           0        2.788017   -0.918391    5.982071
     56          1           0        3.732629   -1.801320    4.806822
     57          1           0        3.409672   -0.341204    2.094911
     58          1           0       -0.755142   -0.162415    2.871454
     59          1           0       -0.864810    3.131286   -3.494796
     60          1           0       -1.628297    1.643438   -2.988374
     61          1           0       -0.880934    2.688887   -1.804503
     62          1           0        1.241560    2.148850   -2.457355
     63          1           0        0.615232    1.417401   -4.040830
     64          1           0       -1.339888   -1.885677   -2.551115
     65          1           0       -0.253990   -1.485470   -3.303119
     66          1           0       -1.141785   -0.819347   -1.697566
     67          1           0       -3.585742   -0.027435    0.651719
     68          1           0        0.817569   -4.545786    0.087636
     69          1           0        5.189753   -0.087549   -1.057620
     70          1           0        0.985525    4.368254    0.555030
     71          1           0       -0.829382   -5.443964    0.804292
     72          1           0       -2.124175   -5.355668   -0.365658
     73          1           0       -2.475601   -5.205791    1.339365
     74          1           0       -4.403726   -1.853238    1.269511
     75          1           0       -4.180857   -3.683636    1.083311
     76          1           0       -4.266994   -3.463041   -1.205682
     77          1           0       -4.483166   -1.631542   -1.022434
     78          1           0        3.630719   -5.362636   -1.463641
     79          1           0        4.225324   -5.295606    0.178010
     80          1           0        2.517569   -5.507816   -0.124654
     81          1           0        6.033121   -3.489363   -0.612992
     82          1           0        6.025906   -1.795348   -1.364629
     83          1           0        5.830646   -2.618653   -3.393471
     84          1           0        6.476313   -4.090306   -2.707602
     85          1           0        4.749171   -3.892971   -2.883972
     86          1           0        5.838276    3.569001   -1.283402
     87          1           0        6.291947    2.444651   -0.025194
     88          1           0        5.995208    1.867259   -1.647424
     89          1           0        4.447073    4.736077    0.986470
     90          1           0        2.685259    5.178009    0.618495
     91          1           0        3.735100    6.623282   -0.744265
     92          1           0        5.151166    5.614958   -0.920638
     93          1           0        3.683057    5.217562   -1.780754
     94          1           0       -2.542829    5.185681    0.411534
     95          1           0       -1.715297    5.075349    1.946488
     96          1           0       -0.807548    5.376937    0.484263
     97          1           0       -4.393709    1.888978    1.392574
     98          1           0       -4.502184    1.670912   -0.997544
     99          1           0       -4.346190    3.514965   -1.096709
    100          1           0       -7.218388   -2.579392    0.978567
    101          1           0       -7.870027    2.459973   -1.191511
    102          1           0        0.488891   -0.549029    5.088572
    103          1           0       -4.130811    3.602745    1.239147
 ---------------------------------------------------------------------
 Rotational constants (GHZ):           0.0678581           0.0440914           0.0339213
 Standard basis: def2TZVP (5D, 7F)
 There are  2230 symmetry adapted cartesian basis functions of A   symmetry.
 There are  1963 symmetry adapted basis functions of A   symmetry.
  1963 basis functions,  3172 primitive gaussians,  2230 cartesian basis functions
   206 alpha electrons      206 beta electrons
       nuclear repulsion energy      9097.1378532609 Hartrees.
 NAtoms=  103 NActive=  103 NUniq=  103 SFac= 1.00D+00 NAtFMM=   60 NAOKFM=T Big=T
 Integral buffers will be    131072 words long.
 Raffenetti 2 integral format.
 Two-electron integral symmetry is turned on.
 Nuclear repulsion after empirical dispersion term =     9096.9836719200 Hartrees.
 One-electron integrals computed using PRISM.
   1 Symmetry operations used in ECPInt.
 ECPInt:  NShTT=  311655 NPrTT=  958403 LenC2=  229438 LenP2D=  457812.
 LDataN:  DoStor=T MaxTD1= 6 Len=  172
 NBasis=  1963 RedAO= T EigKep=  2.24D-06  NBF=  1963
 NBsUse=  1963 1.00D-06 EigRej= -1.00D+00 NBFU=  1963
 Initial guess from the checkpoint file:  "451c_II_S.chk"
 B after Tr=     0.000000   -0.000000    0.000000
         Rot=    1.000000    0.000000    0.000000   -0.000000 Ang=   0.00 deg.
 Requested convergence on RMS density matrix=1.00D-08 within 128 cycles.
 Requested convergence on MAX density matrix=1.00D-06.
 Requested convergence on             energy=1.00D-06.
 No special actions if energy rises.
 SCF Done:  E(RPBE1PBE) =  -3881.65417403     A.U. after    1 cycles
            NFock=  1  Conv=0.35D-08     -V/T= 2.0028
 Hyperfine terms turned off by default for NAtoms > 100.

 **********************************************************************

            Population analysis using the SCF density.

 **********************************************************************

 Orbital symmetries:
       Occupied  (A) (A) (A) (A) (A) (A) (A) (A) (A) (A) (A) (A)
                 (A) (A) (A) (A) (A) (A) (A) (A) (A) (A) (A) (A)
                 (A) (A) (A) (A) (A) (A) (A) (A) (A) (A) (A) (A)
                 (A) (A) (A) (A) (A) (A) (A) (A) (A) (A) (A) (A)
                 (A) (A) (A) (A) (A) (A) (A) (A) (A) (A) (A) (A)
                 (A) (A) (A) (A) (A) (A) (A) (A) (A) (A) (A) (A)
                 (A) (A) (A) (A) (A) (A) (A) (A) (A) (A) (A) (A)
                 (A) (A) (A) (A) (A) (A) (A) (A) (A) (A) (A) (A)
                 (A) (A) (A) (A) (A) (A) (A) (A) (A) (A) (A) (A)
                 (A) (A) (A) (A) (A) (A) (A) (A) (A) (A) (A) (A)
                 (A) (A) (A) (A) (A) (A) (A) (A) (A) (A) (A) (A)
                 (A) (A) (A) (A) (A) (A) (A) (A) (A) (A) (A) (A)
                 (A) (A) (A) (A) (A) (A) (A) (A) (A) (A) (A) (A)
                 (A) (A) (A) (A) (A) (A) (A) (A) (A) (A) (A) (A)
                 (A) (A) (A) (A) (A) (A) (A) (A) (A) (A) (A) (A)
                 (A) (A) (A) (A) (A) (A) (A) (A) (A) (A) (A) (A)
                 (A) (A) (A) (A) (A) (A) (A) (A) (A) (A) (A) (A)
                 (A) (A)
       Virtual   (A) (A) (A) (A) (A) (A) (A) (A) (A) (A) (A) (A)
                 (A) (A) (A) (A) (A) (A) (A) (A) (A) (A) (A) (A)
                 (A) (A) (A) (A) (A) (A) (A) (A) (A) (A) (A) (A)
                 (A) (A) (A) (A) (A) (A) (A) (A) (A) (A) (A) (A)
                 (A) (A) (A) (A) (A) (A) (A) (A) (A) (A) (A) (A)
                 (A) (A) (A) (A) (A) (A) (A) (A) (A) (A) (A) (A)
                 (A) (A) (A) (A) (A) (A) (A) (A) (A) (A) (A) (A)
                 (A) (A) (A) (A) (A) (A) (A) (A) (A) (A) (A) (A)
                 (A) (A) (A) (A) (A) (A) (A) (A) (A) (A) (A) (A)
                 (A) (A) (A) (A) (A) (A) (A) (A) (A) (A) (A) (A)
                 (A) (A) (A) (A) (A) (A) (A) (A) (A) (A) (A) (A)
                 (A) (A) (A) (A) (A) (A) (A) (A) (A) (A) (A) (A)
                 (A) (A) (A) (A) (A) (A) (A) (A) (A) (A) (A) (A)
                 (A) (A) (A) (A) (A) (A) (A) (A) (A) (A) (A) (A)
                 (A) (A) (A) (A) (A) (A) (A) (A) (A) (A) (A) (A)
                 (A) (A) (A) (A) (A) (A) (A) (A) (A) (A) (A) (A)
                 (A) (A) (A) (A) (A) (A) (A) (A) (A) (A) (A) (A)
                 (A) (A) (A) (A) (A) (A) (A) (A) (A) (A) (A) (A)
                 (A) (A) (A) (A) (A) (A) (A) (A) (A) (A) (A) (A)
                 (A) (A) (A) (A) (A) (A) (A) (A) (A) (A) (A) (A)
                 (A) (A) (A) (A) (A) (A) (A) (A) (A) (A) (A) (A)
                 (A) (A) (A) (A) (A) (A) (A) (A) (A) (A) (A) (A)
                 (A) (A) (A) (A) (A) (A) (A) (A) (A) (A) (A) (A)
                 (A) (A) (A) (A) (A) (A) (A) (A) (A) (A) (A) (A)
                 (A) (A) (A) (A) (A) (A) (A) (A) (A) (A) (A) (A)
                 (A) (A) (A) (A) (A) (A) (A) (A) (A) (A) (A) (A)
                 (A) (A) (A) (A) (A) (A) (A) (A) (A) (A) (A) (A)
                 (A) (A) (A) (A) (A) (A) (A) (A) (A) (A) (A) (A)
                 (A) (A) (A) (A) (A) (A) (A) (A) (A) (A) (A) (A)
                 (A) (A) (A) (A) (A) (A) (A) (A) (A) (A) (A) (A)
                 (A) (A) (A) (A) (A) (A) (A) (A) (A) (A) (A) (A)
                 (A) (A) (A) (A) (A) (A) (A) (A) (A) (A) (A) (A)
                 (A) (A) (A) (A) (A) (A) (A) (A) (A) (A) (A) (A)
                 (A) (A) (A) (A) (A) (A) (A) (A) (A) (A) (A) (A)
                 (A) (A) (A) (A) (A) (A) (A) (A) (A) (A) (A) (A)
                 (A) (A) (A) (A) (A) (A) (A) (A) (A) (A) (A) (A)
                 (A) (A) (A) (A) (A) (A) (A) (A) (A) (A) (A) (A)
                 (A) (A) (A) (A) (A) (A) (A) (A) (A) (A) (A) (A)
                 (A) (A) (A) (A) (A) (A) (A) (A) (A) (A) (A) (A)
                 (A) (A) (A) (A) (A) (A) (A) (A) (A) (A) (A) (A)
                 (A) (A) (A) (A) (A) (A) (A) (A) (A) (A) (A) (A)
                 (A) (A) (A) (A) (A) (A) (A) (A) (A) (A) (A) (A)
                 (A) (A) (A) (A) (A) (A) (A) (A) (A) (A) (A) (A)
                 (A) (A) (A) (A) (A) (A) (A) (A) (A) (A) (A) (A)
                 (A) (A) (A) (A) (A) (A) (A) (A) (A) (A) (A) (A)
                 (A) (A) (A) (A) (A) (A) (A) (A) (A) (A) (A) (A)
                 (A) (A) (A) (A) (A) (A) (A) (A) (A) (A) (A) (A)
                 (A) (A) (A) (A) (A) (A) (A) (A) (A) (A) (A) (A)
                 (A) (A) (A) (A) (A) (A) (A) (A) (A) (A) (A) (A)
                 (A) (A) (A) (A) (A) (A) (A) (A) (A) (A) (A) (A)
                 (A) (A) (A) (A) (A) (A) (A) (A) (A) (A) (A) (A)
                 (A) (A) (A) (A) (A) (A) (A) (A) (A) (A) (A) (A)
                 (A) (A) (A) (A) (A) (A) (A) (A) (A) (A) (A) (A)
                 (A) (A) (A) (A) (A) (A) (A) (A) (A) (A) (A) (A)
                 (A) (A) (A) (A) (A) (A) (A) (A) (A) (A) (A) (A)
                 (A) (A) (A) (A) (A) (A) (A) (A) (A) (A) (A) (A)
                 (A) (A) (A) (A) (A) (A) (A) (A) (A) (A) (A) (A)
                 (A) (A) (A) (A) (A) (A) (A) (A) (A) (A) (A) (A)
                 (A) (A) (A) (A) (A) (A) (A) (A) (A) (A) (A) (A)
                 (A) (A) (A) (A) (A) (A) (A) (A) (A) (A) (A) (A)
                 (A) (A) (A) (A) (A) (A) (A) (A) (A) (A) (A) (A)
                 (A) (A) (A) (A) (A) (A) (A) (A) (A) (A) (A) (A)
                 (A) (A) (A) (A) (A) (A) (A) (A) (A) (A) (A) (A)
                 (A) (A) (A) (A) (A) (A) (A) (A) (A) (A) (A) (A)
                 (A) (A) (A) (A) (A) (A) (A) (A) (A) (A) (A) (A)
                 (A) (A) (A) (A) (A) (A) (A) (A) (A) (A) (A) (A)
                 (A) (A) (A) (A) (A) (A) (A) (A) (A) (A) (A) (A)
                 (A) (A) (A) (A) (A) (A) (A) (A) (A) (A) (A) (A)
                 (A) (A) (A) (A) (A) (A) (A) (A) (A) (A) (A) (A)
                 (A) (A) (A) (A) (A) (A) (A) (A) (A) (A) (A) (A)
                 (A) (A) (A) (A) (A) (A) (A) (A) (A) (A) (A) (A)
                 (A) (A) (A) (A) (A) (A) (A) (A) (A) (A) (A) (A)
                 (A) (A) (A) (A) (A) (A) (A) (A) (A) (A) (A) (A)
                 (A) (A) (A) (A) (A) (A) (A) (A) (A) (A) (A) (A)
                 (A) (A) (A) (A) (A) (A) (A) (A) (A) (A) (A) (A)
                 (A) (A) (A) (A) (A) (A) (A) (A) (A) (A) (A) (A)
                 (A) (A) (A) (A) (A) (A) (A) (A) (A) (A) (A) (A)
                 (A) (A) (A) (A) (A) (A) (A) (A) (A) (A) (A) (A)
                 (A) (A) (A) (A) (A) (A) (A) (A) (A) (A) (A) (A)
                 (A) (A) (A) (A) (A) (A) (A) (A) (A) (A) (A) (A)
                 (A) (A) (A) (A) (A) (A) (A) (A) (A) (A) (A) (A)
                 (A) (A) (A) (A) (A) (A) (A) (A) (A) (A) (A) (A)
                 (A) (A) (A) (A) (A) (A) (A) (A) (A) (A) (A) (A)
                 (A) (A) (A) (A) (A) (A) (A) (A) (A) (A) (A) (A)
                 (A) (A) (A) (A) (A) (A) (A) (A) (A) (A) (A) (A)
                 (A) (A) (A) (A) (A) (A) (A) (A) (A) (A) (A) (A)
                 (A) (A) (A) (A) (A) (A) (A) (A) (A) (A) (A) (A)
                 (A) (A) (A) (A) (A) (A) (A) (A) (A) (A) (A) (A)
                 (A) (A) (A) (A) (A) (A) (A) (A) (A) (A) (A) (A)
                 (A) (A) (A) (A) (A) (A) (A) (A) (A) (A) (A) (A)
                 (A) (A) (A) (A) (A) (A) (A) (A) (A) (A) (A) (A)
                 (A) (A) (A) (A) (A) (A) (A) (A) (A) (A) (A) (A)
                 (A) (A) (A) (A) (A) (A) (A) (A) (A) (A) (A) (A)
                 (A) (A) (A) (A) (A) (A) (A) (A) (A) (A) (A) (A)
                 (A) (A) (A) (A) (A) (A) (A) (A) (A) (A) (A) (A)
                 (A) (A) (A) (A) (A) (A) (A) (A) (A) (A) (A) (A)
                 (A) (A) (A) (A) (A) (A) (A) (A) (A) (A) (A) (A)
                 (A) (A) (A) (A) (A) (A) (A) (A) (A) (A) (A) (A)
                 (A) (A) (A) (A) (A) (A) (A) (A) (A) (A) (A) (A)
                 (A) (A) (A) (A) (A) (A) (A) (A) (A) (A) (A) (A)
                 (A) (A) (A) (A) (A) (A) (A) (A) (A) (A) (A) (A)
                 (A) (A) (A) (A) (A) (A) (A) (A) (A) (A) (A) (A)
                 (A) (A) (A) (A) (A) (A) (A) (A) (A) (A) (A) (A)
                 (A) (A) (A) (A) (A) (A) (A) (A) (A) (A) (A) (A)
                 (A) (A) (A) (A) (A) (A) (A) (A) (A) (A) (A) (A)
                 (A) (A) (A) (A) (A) (A) (A) (A) (A) (A) (A) (A)
                 (A) (A) (A) (A) (A) (A) (A) (A) (A) (A) (A) (A)
                 (A) (A) (A) (A) (A) (A) (A) (A) (A) (A) (A) (A)
                 (A) (A) (A) (A) (A) (A) (A) (A) (A) (A) (A) (A)
                 (A) (A) (A) (A) (A) (A) (A) (A) (A) (A) (A) (A)
                 (A) (A) (A) (A) (A) (A) (A) (A) (A) (A) (A) (A)
                 (A) (A) (A) (A) (A) (A) (A) (A) (A) (A) (A) (A)
                 (A) (A) (A) (A) (A) (A) (A) (A) (A) (A) (A) (A)
                 (A) (A) (A) (A) (A) (A) (A) (A) (A) (A) (A) (A)
                 (A) (A) (A) (A) (A) (A) (A) (A) (A) (A) (A) (A)
                 (A) (A) (A) (A) (A) (A) (A) (A) (A) (A) (A) (A)
                 (A) (A) (A) (A) (A) (A) (A) (A) (A) (A) (A) (A)
                 (A) (A) (A) (A) (A) (A) (A) (A) (A) (A) (A) (A)
                 (A) (A) (A) (A) (A) (A) (A) (A) (A) (A) (A) (A)
                 (A) (A) (A) (A) (A) (A) (A) (A) (A) (A) (A) (A)
                 (A) (A) (A) (A) (A) (A) (A) (A) (A) (A) (A) (A)
                 (A) (A) (A) (A) (A) (A) (A) (A) (A) (A) (A) (A)
                 (A) (A) (A) (A) (A) (A) (A) (A) (A) (A) (A) (A)
                 (A) (A) (A) (A) (A) (A) (A) (A) (A) (A) (A) (A)
                 (A) (A) (A) (A) (A) (A) (A) (A) (A) (A) (A) (A)
                 (A) (A) (A) (A) (A) (A) (A) (A) (A) (A) (A) (A)
                 (A) (A) (A) (A) (A) (A) (A) (A) (A) (A) (A) (A)
                 (A) (A) (A) (A) (A) (A) (A) (A) (A) (A) (A) (A)
                 (A) (A) (A) (A) (A) (A) (A) (A) (A) (A) (A) (A)
                 (A) (A) (A) (A) (A) (A) (A) (A) (A) (A) (A) (A)
                 (A) (A) (A) (A) (A) (A) (A) (A) (A) (A) (A) (A)
                 (A) (A) (A) (A) (A) (A) (A) (A) (A) (A) (A) (A)
                 (A) (A) (A) (A) (A) (A) (A) (A) (A) (A) (A) (A)
                 (A) (A) (A) (A) (A) (A) (A) (A) (A) (A) (A) (A)
                 (A) (A) (A) (A) (A) (A) (A) (A) (A) (A) (A) (A)
                 (A) (A) (A) (A) (A) (A) (A) (A) (A) (A) (A) (A)
                 (A) (A) (A) (A) (A) (A) (A) (A) (A) (A) (A) (A)
                 (A) (A) (A) (A) (A) (A) (A) (A) (A) (A) (A) (A)
                 (A) (A) (A) (A) (A) (A) (A) (A) (A) (A) (A) (A)
                 (A) (A) (A) (A) (A) (A) (A) (A) (A) (A) (A) (A)
                 (A) (A) (A) (A) (A) (A) (A) (A) (A) (A) (A) (A)
                 (A) (A) (A) (A) (A) (A) (A) (A) (A) (A) (A) (A)
                 (A) (A) (A) (A) (A) (A) (A) (A) (A) (A) (A) (A)
                 (A) (A) (A) (A) (A) (A) (A) (A) (A) (A) (A) (A)
                 (A) (A) (A) (A) (A) (A) (A) (A) (A) (A) (A) (A)
                 (A) (A) (A) (A) (A) (A) (A) (A) (A) (A) (A) (A)
                 (A) (A) (A) (A) (A)
 The electronic state is 1-A.
 Alpha  occ. eigenvalues -- -256.30688 -89.03710 -30.07573 -25.90361 -25.90051
 Alpha  occ. eigenvalues --  -25.90001 -19.27708 -19.26166 -19.17515 -19.17094
 Alpha  occ. eigenvalues --  -14.45691 -14.40087 -14.36383 -14.36248 -14.35934
 Alpha  occ. eigenvalues --  -14.35716 -10.35858 -10.35057 -10.28597 -10.26648
 Alpha  occ. eigenvalues --  -10.23859 -10.23841 -10.23840 -10.23695 -10.23439
 Alpha  occ. eigenvalues --  -10.23438 -10.23430 -10.23395 -10.23390 -10.23372
 Alpha  occ. eigenvalues --  -10.23025 -10.22811 -10.22649 -10.22394 -10.22296
 Alpha  occ. eigenvalues --  -10.22094 -10.21931 -10.21814 -10.21701 -10.21678
 Alpha  occ. eigenvalues --  -10.21623 -10.21615 -10.21517 -10.21454 -10.21277
 Alpha  occ. eigenvalues --  -10.21259 -10.21250 -10.21163 -10.21055 -10.21054
 Alpha  occ. eigenvalues --  -10.20954 -10.20837 -10.20764 -10.19921 -10.19760
 Alpha  occ. eigenvalues --  -10.18404 -10.18066  -8.01178  -5.94993  -5.94494
 Alpha  occ. eigenvalues --   -5.93914  -3.42044  -2.18009  -2.17359  -2.17277
 Alpha  occ. eigenvalues --   -1.18310  -1.18010  -1.05955  -1.00279  -0.98984
 Alpha  occ. eigenvalues --   -0.98826  -0.98153  -0.97254  -0.96645  -0.91438
 Alpha  occ. eigenvalues --   -0.85016  -0.84628  -0.84264  -0.83698  -0.82492
 Alpha  occ. eigenvalues --   -0.82145  -0.81661  -0.81436  -0.80870  -0.79560
 Alpha  occ. eigenvalues --   -0.79013  -0.77703  -0.77320  -0.76824  -0.75930
 Alpha  occ. eigenvalues --   -0.74792  -0.73362  -0.72425  -0.72255  -0.71176
 Alpha  occ. eigenvalues --   -0.70529  -0.69902  -0.69702  -0.67537  -0.67032
 Alpha  occ. eigenvalues --   -0.66530  -0.65713  -0.65542  -0.64538  -0.63731
 Alpha  occ. eigenvalues --   -0.63552  -0.62363  -0.59506  -0.58881  -0.58619
 Alpha  occ. eigenvalues --   -0.57084  -0.56328  -0.55628  -0.55264  -0.54070
 Alpha  occ. eigenvalues --   -0.53161  -0.52526  -0.52415  -0.52193  -0.51715
 Alpha  occ. eigenvalues --   -0.51238  -0.50822  -0.50456  -0.50042  -0.49408
 Alpha  occ. eigenvalues --   -0.48922  -0.48518  -0.48183  -0.48000  -0.47911
 Alpha  occ. eigenvalues --   -0.47538  -0.47268  -0.47214  -0.47103  -0.46718
 Alpha  occ. eigenvalues --   -0.45598  -0.45241  -0.44945  -0.44728  -0.44534
 Alpha  occ. eigenvalues --   -0.44266  -0.43891  -0.43835  -0.43503  -0.43346
 Alpha  occ. eigenvalues --   -0.43202  -0.43112  -0.42903  -0.42667  -0.42435
 Alpha  occ. eigenvalues --   -0.42155  -0.41777  -0.41509  -0.41358  -0.41238
 Alpha  occ. eigenvalues --   -0.40994  -0.40389  -0.40298  -0.39908  -0.39799
 Alpha  occ. eigenvalues --   -0.39356  -0.39036  -0.38901  -0.38569  -0.38291
 Alpha  occ. eigenvalues --   -0.38102  -0.37693  -0.37386  -0.37299  -0.37100
 Alpha  occ. eigenvalues --   -0.36785  -0.36636  -0.36020  -0.35762  -0.35563
 Alpha  occ. eigenvalues --   -0.35432  -0.35065  -0.34809  -0.34119  -0.33890
 Alpha  occ. eigenvalues --   -0.33670  -0.33519  -0.33162  -0.33032  -0.32574
 Alpha  occ. eigenvalues --   -0.31987  -0.30843  -0.30795  -0.29779  -0.29228
 Alpha  occ. eigenvalues --   -0.28579  -0.28380  -0.27119  -0.26902  -0.25348
 Alpha  occ. eigenvalues --   -0.24818  -0.23892  -0.23101  -0.22681  -0.22431
 Alpha  occ. eigenvalues --   -0.20105  -0.20014  -0.19702  -0.18944  -0.18230
 Alpha  occ. eigenvalues --   -0.17873
 Alpha virt. eigenvalues --   -0.07638  -0.07210  -0.03290  -0.02488  -0.01687
 Alpha virt. eigenvalues --   -0.01151   0.00793   0.01282   0.01852   0.03336
 Alpha virt. eigenvalues --    0.03541   0.03612   0.03828   0.04376   0.04430
 Alpha virt. eigenvalues --    0.04994   0.05460   0.05548   0.05828   0.06037
 Alpha virt. eigenvalues --    0.06352   0.06435   0.06733   0.07112   0.07531
 Alpha virt. eigenvalues --    0.07651   0.08077   0.08117   0.08544   0.08580
 Alpha virt. eigenvalues --    0.08842   0.09071   0.09453   0.09615   0.09860
 Alpha virt. eigenvalues --    0.10174   0.10548   0.10876   0.11015   0.11388
 Alpha virt. eigenvalues --    0.11508   0.11747   0.12165   0.12316   0.12590
 Alpha virt. eigenvalues --    0.12760   0.12995   0.13185   0.13408   0.13589
 Alpha virt. eigenvalues --    0.13767   0.13853   0.14241   0.14461   0.14573
 Alpha virt. eigenvalues --    0.14742   0.14798   0.14973   0.15277   0.15354
 Alpha virt. eigenvalues --    0.15549   0.15711   0.15837   0.15940   0.16182
 Alpha virt. eigenvalues --    0.16482   0.16667   0.16914   0.17200   0.17426
 Alpha virt. eigenvalues --    0.17541   0.17673   0.17827   0.18144   0.18229
 Alpha virt. eigenvalues --    0.18738   0.18867   0.19195   0.19244   0.19461
 Alpha virt. eigenvalues --    0.19747   0.19853   0.20130   0.20427   0.20515
 Alpha virt. eigenvalues --    0.20807   0.20902   0.21070   0.21170   0.21484
 Alpha virt. eigenvalues --    0.21600   0.21882   0.22089   0.22152   0.22475
 Alpha virt. eigenvalues --    0.22617   0.22776   0.23154   0.23296   0.23496
 Alpha virt. eigenvalues --    0.23631   0.23916   0.24342   0.24468   0.24585
 Alpha virt. eigenvalues --    0.24739   0.24979   0.25212   0.25412   0.25534
 Alpha virt. eigenvalues --    0.25583   0.25833   0.25897   0.26219   0.26462
 Alpha virt. eigenvalues --    0.26519   0.26712   0.27192   0.27363   0.27665
 Alpha virt. eigenvalues --    0.27804   0.27912   0.27969   0.28260   0.28766
 Alpha virt. eigenvalues --    0.28907   0.29110   0.29500   0.29686   0.29740
 Alpha virt. eigenvalues --    0.30056   0.30141   0.30343   0.30782   0.31036
 Alpha virt. eigenvalues --    0.31170   0.31375   0.31645   0.32035   0.32186
 Alpha virt. eigenvalues --    0.32415   0.32737   0.32865   0.33139   0.33386
 Alpha virt. eigenvalues --    0.33598   0.33807   0.33971   0.34085   0.34405
 Alpha virt. eigenvalues --    0.34710   0.34854   0.35269   0.35531   0.35710
 Alpha virt. eigenvalues --    0.35920   0.36523   0.36588   0.36894   0.37068
 Alpha virt. eigenvalues --    0.37084   0.37390   0.37657   0.37831   0.38147
 Alpha virt. eigenvalues --    0.38386   0.38446   0.38626   0.38722   0.38899
 Alpha virt. eigenvalues --    0.39104   0.39507   0.39607   0.39773   0.40071
 Alpha virt. eigenvalues --    0.40103   0.40319   0.40487   0.40706   0.40934
 Alpha virt. eigenvalues --    0.41209   0.41320   0.41448   0.41562   0.41713
 Alpha virt. eigenvalues --    0.41810   0.42075   0.42209   0.42319   0.42487
 Alpha virt. eigenvalues --    0.42699   0.42973   0.43151   0.43481   0.43594
 Alpha virt. eigenvalues --    0.43660   0.43793   0.43985   0.44209   0.44421
 Alpha virt. eigenvalues --    0.44518   0.44557   0.44793   0.44888   0.45107
 Alpha virt. eigenvalues --    0.45299   0.45410   0.45478   0.45613   0.45883
 Alpha virt. eigenvalues --    0.46141   0.46181   0.46260   0.46517   0.46610
 Alpha virt. eigenvalues --    0.46687   0.46842   0.47006   0.47161   0.47346
 Alpha virt. eigenvalues --    0.47582   0.47613   0.47818   0.47967   0.48064
 Alpha virt. eigenvalues --    0.48179   0.48620   0.48688   0.48754   0.49118
 Alpha virt. eigenvalues --    0.49412   0.49685   0.49765   0.49984   0.50167
 Alpha virt. eigenvalues --    0.50349   0.50480   0.50690   0.50975   0.51128
 Alpha virt. eigenvalues --    0.51284   0.51508   0.51600   0.51690   0.51877
 Alpha virt. eigenvalues --    0.52016   0.52226   0.52281   0.52482   0.52812
 Alpha virt. eigenvalues --    0.52834   0.53044   0.53252   0.53281   0.53634
 Alpha virt. eigenvalues --    0.53758   0.54174   0.54390   0.54405   0.54557
 Alpha virt. eigenvalues --    0.54778   0.54846   0.55263   0.55495   0.55593
 Alpha virt. eigenvalues --    0.55675   0.55900   0.56050   0.56584   0.56621
 Alpha virt. eigenvalues --    0.56951   0.57039   0.57255   0.57331   0.57655
 Alpha virt. eigenvalues --    0.58029   0.58171   0.58348   0.58692   0.58970
 Alpha virt. eigenvalues --    0.59091   0.59499   0.59618   0.60124   0.60238
 Alpha virt. eigenvalues --    0.60270   0.60498   0.60547   0.60656   0.61202
 Alpha virt. eigenvalues --    0.61489   0.62001   0.62114   0.62304   0.62554
 Alpha virt. eigenvalues --    0.62698   0.62934   0.63100   0.63535   0.63677
 Alpha virt. eigenvalues --    0.63960   0.64202   0.64405   0.64531   0.64722
 Alpha virt. eigenvalues --    0.65280   0.65343   0.65674   0.65921   0.66093
 Alpha virt. eigenvalues --    0.66202   0.66472   0.66974   0.67392   0.67477
 Alpha virt. eigenvalues --    0.67884   0.68022   0.68395   0.68577   0.68719
 Alpha virt. eigenvalues --    0.69069   0.69334   0.69579   0.69937   0.70245
 Alpha virt. eigenvalues --    0.70359   0.70456   0.70880   0.71139   0.71649
 Alpha virt. eigenvalues --    0.71763   0.71955   0.72294   0.72461   0.72660
 Alpha virt. eigenvalues --    0.72865   0.73171   0.73357   0.73870   0.74071
 Alpha virt. eigenvalues --    0.74319   0.74627   0.74939   0.75179   0.75410
 Alpha virt. eigenvalues --    0.75833   0.75942   0.76295   0.76567   0.76779
 Alpha virt. eigenvalues --    0.77215   0.77677   0.77822   0.78140   0.78304
 Alpha virt. eigenvalues --    0.78484   0.78781   0.79159   0.79661   0.79728
 Alpha virt. eigenvalues --    0.79977   0.80243   0.80469   0.80730   0.81163
 Alpha virt. eigenvalues --    0.81523   0.81688   0.81799   0.82232   0.82738
 Alpha virt. eigenvalues --    0.82811   0.83155   0.83428   0.83716   0.84033
 Alpha virt. eigenvalues --    0.84249   0.84715   0.84908   0.85720   0.85965
 Alpha virt. eigenvalues --    0.86186   0.86391   0.86754   0.87010   0.87133
 Alpha virt. eigenvalues --    0.87273   0.87641   0.87834   0.87961   0.88260
 Alpha virt. eigenvalues --    0.88331   0.88695   0.88737   0.89342   0.89609
 Alpha virt. eigenvalues --    0.89873   0.90205   0.90463   0.90593   0.90890
 Alpha virt. eigenvalues --    0.91074   0.91332   0.92122   0.92239   0.92492
 Alpha virt. eigenvalues --    0.92602   0.92867   0.93201   0.93469   0.93595
 Alpha virt. eigenvalues --    0.94121   0.94393   0.94456   0.94893   0.94977
 Alpha virt. eigenvalues --    0.95133   0.95456   0.95648   0.95928   0.96146
 Alpha virt. eigenvalues --    0.96296   0.96445   0.96925   0.97077   0.97696
 Alpha virt. eigenvalues --    0.97809   0.98020   0.98406   0.98602   0.98882
 Alpha virt. eigenvalues --    0.99002   0.99364   0.99687   0.99921   1.00122
 Alpha virt. eigenvalues --    1.00169   1.00594   1.00781   1.01204   1.01319
 Alpha virt. eigenvalues --    1.01678   1.02139   1.02342   1.02542   1.02696
 Alpha virt. eigenvalues --    1.03152   1.03494   1.03575   1.03668   1.04083
 Alpha virt. eigenvalues --    1.04387   1.04793   1.04899   1.05173   1.05483
 Alpha virt. eigenvalues --    1.05893   1.05968   1.06198   1.06405   1.06759
 Alpha virt. eigenvalues --    1.07033   1.07371   1.07408   1.07853   1.08029
 Alpha virt. eigenvalues --    1.08436   1.08596   1.08827   1.09341   1.09495
 Alpha virt. eigenvalues --    1.10040   1.10356   1.10893   1.11159   1.11473
 Alpha virt. eigenvalues --    1.11751   1.12172   1.12317   1.12784   1.13005
 Alpha virt. eigenvalues --    1.13024   1.13466   1.13732   1.14050   1.14448
 Alpha virt. eigenvalues --    1.14765   1.15249   1.15580   1.15695   1.16364
 Alpha virt. eigenvalues --    1.16598   1.16965   1.17046   1.17288   1.17985
 Alpha virt. eigenvalues --    1.18206   1.18603   1.18876   1.19061   1.19236
 Alpha virt. eigenvalues --    1.19595   1.19728   1.20331   1.20790   1.21286
 Alpha virt. eigenvalues --    1.21652   1.21849   1.22094   1.22701   1.22892
 Alpha virt. eigenvalues --    1.23354   1.23558   1.23840   1.24041   1.24249
 Alpha virt. eigenvalues --    1.24642   1.25074   1.25285   1.26452   1.26874
 Alpha virt. eigenvalues --    1.27306   1.27425   1.28067   1.28247   1.28641
 Alpha virt. eigenvalues --    1.29285   1.29364   1.29646   1.29874   1.30187
 Alpha virt. eigenvalues --    1.30387   1.30912   1.31329   1.31585   1.31833
 Alpha virt. eigenvalues --    1.31960   1.32233   1.32410   1.32532   1.33316
 Alpha virt. eigenvalues --    1.33611   1.34081   1.34239   1.34548   1.34742
 Alpha virt. eigenvalues --    1.35119   1.35585   1.35859   1.36324   1.36518
 Alpha virt. eigenvalues --    1.36970   1.37440   1.37655   1.38105   1.38490
 Alpha virt. eigenvalues --    1.38747   1.39736   1.39848   1.39909   1.40363
 Alpha virt. eigenvalues --    1.41168   1.41643   1.41654   1.41920   1.42642
 Alpha virt. eigenvalues --    1.43287   1.43831   1.44016   1.44321   1.45100
 Alpha virt. eigenvalues --    1.45422   1.45534   1.45986   1.46840   1.47207
 Alpha virt. eigenvalues --    1.47322   1.47849   1.48114   1.48921   1.48978
 Alpha virt. eigenvalues --    1.49503   1.49710   1.49950   1.50297   1.50333
 Alpha virt. eigenvalues --    1.50558   1.51003   1.51221   1.51740   1.51966
 Alpha virt. eigenvalues --    1.52145   1.52263   1.52608   1.52946   1.53031
 Alpha virt. eigenvalues --    1.53117   1.53533   1.53780   1.53950   1.54150
 Alpha virt. eigenvalues --    1.54292   1.54713   1.54946   1.55426   1.55524
 Alpha virt. eigenvalues --    1.55928   1.56379   1.56448   1.56580   1.56714
 Alpha virt. eigenvalues --    1.57078   1.57329   1.57560   1.58031   1.58246
 Alpha virt. eigenvalues --    1.58524   1.58627   1.58818   1.59016   1.59472
 Alpha virt. eigenvalues --    1.59667   1.60120   1.60216   1.60445   1.60734
 Alpha virt. eigenvalues --    1.60832   1.61195   1.61381   1.61636   1.61818
 Alpha virt. eigenvalues --    1.62090   1.62546   1.62751   1.62762   1.63001
 Alpha virt. eigenvalues --    1.63329   1.63492   1.63625   1.64228   1.64447
 Alpha virt. eigenvalues --    1.64683   1.65012   1.65269   1.65573   1.65949
 Alpha virt. eigenvalues --    1.66075   1.66291   1.66619   1.66947   1.67568
 Alpha virt. eigenvalues --    1.67766   1.68029   1.68195   1.68317   1.68670
 Alpha virt. eigenvalues --    1.68862   1.69094   1.69222   1.69500   1.69722
 Alpha virt. eigenvalues --    1.69837   1.70311   1.70543   1.70825   1.71139
 Alpha virt. eigenvalues --    1.71604   1.71884   1.72156   1.72369   1.72581
 Alpha virt. eigenvalues --    1.73112   1.73442   1.73569   1.74083   1.74291
 Alpha virt. eigenvalues --    1.74413   1.74711   1.74958   1.75312   1.75532
 Alpha virt. eigenvalues --    1.75777   1.76082   1.76267   1.76501   1.76578
 Alpha virt. eigenvalues --    1.77339   1.77576   1.77873   1.78174   1.78271
 Alpha virt. eigenvalues --    1.78590   1.78869   1.79617   1.79777   1.80233
 Alpha virt. eigenvalues --    1.80455   1.80853   1.81265   1.81408   1.81708
 Alpha virt. eigenvalues --    1.81869   1.82132   1.82585   1.83027   1.83415
 Alpha virt. eigenvalues --    1.83564   1.84214   1.84413   1.84712   1.85360
 Alpha virt. eigenvalues --    1.85517   1.85819   1.85968   1.86673   1.86894
 Alpha virt. eigenvalues --    1.87335   1.87646   1.88199   1.88386   1.88843
 Alpha virt. eigenvalues --    1.89193   1.89466   1.89833   1.89862   1.90452
 Alpha virt. eigenvalues --    1.90651   1.91234   1.91459   1.91764   1.92241
 Alpha virt. eigenvalues --    1.92332   1.92569   1.92916   1.93424   1.93811
 Alpha virt. eigenvalues --    1.94145   1.94279   1.94686   1.94895   1.95538
 Alpha virt. eigenvalues --    1.95565   1.96171   1.96364   1.96802   1.97010
 Alpha virt. eigenvalues --    1.97460   1.97763   1.97927   1.98267   1.98627
 Alpha virt. eigenvalues --    1.98947   1.98997   1.99237   1.99724   1.99855
 Alpha virt. eigenvalues --    2.00153   2.00792   2.00994   2.01213   2.01513
 Alpha virt. eigenvalues --    2.01707   2.02271   2.02784   2.03189   2.03231
 Alpha virt. eigenvalues --    2.03543   2.03926   2.04094   2.04537   2.04967
 Alpha virt. eigenvalues --    2.05238   2.05752   2.06396   2.06608   2.06978
 Alpha virt. eigenvalues --    2.07123   2.07755   2.07841   2.08481   2.08842
 Alpha virt. eigenvalues --    2.09119   2.09496   2.09820   2.10122   2.10352
 Alpha virt. eigenvalues --    2.10577   2.10635   2.10841   2.11175   2.11307
 Alpha virt. eigenvalues --    2.12078   2.12480   2.12857   2.13132   2.13347
 Alpha virt. eigenvalues --    2.13731   2.14122   2.14277   2.14519   2.14785
 Alpha virt. eigenvalues --    2.15212   2.15668   2.15838   2.16008   2.16364
 Alpha virt. eigenvalues --    2.16547   2.17107   2.17351   2.17929   2.18015
 Alpha virt. eigenvalues --    2.18319   2.18622   2.18973   2.19454   2.19995
 Alpha virt. eigenvalues --    2.20074   2.20593   2.20742   2.21305   2.21594
 Alpha virt. eigenvalues --    2.21754   2.22021   2.22328   2.23034   2.23270
 Alpha virt. eigenvalues --    2.23653   2.23832   2.24176   2.24355   2.24888
 Alpha virt. eigenvalues --    2.25409   2.25981   2.26355   2.26540   2.26625
 Alpha virt. eigenvalues --    2.27200   2.27260   2.27765   2.28048   2.28511
 Alpha virt. eigenvalues --    2.28845   2.29189   2.29708   2.29886   2.30528
 Alpha virt. eigenvalues --    2.30965   2.31026   2.31368   2.31689   2.32028
 Alpha virt. eigenvalues --    2.32651   2.33144   2.33346   2.33659   2.34197
 Alpha virt. eigenvalues --    2.34414   2.34714   2.35362   2.35594   2.36006
 Alpha virt. eigenvalues --    2.36129   2.36623   2.36870   2.37164   2.37415
 Alpha virt. eigenvalues --    2.37945   2.38201   2.38344   2.38554   2.39096
 Alpha virt. eigenvalues --    2.39205   2.39607   2.40092   2.40194   2.40243
 Alpha virt. eigenvalues --    2.40498   2.41000   2.41239   2.41505   2.41624
 Alpha virt. eigenvalues --    2.41863   2.42130   2.42503   2.42916   2.43333
 Alpha virt. eigenvalues --    2.43560   2.43825   2.44369   2.45008   2.45504
 Alpha virt. eigenvalues --    2.45762   2.46177   2.46344   2.46698   2.47490
 Alpha virt. eigenvalues --    2.47785   2.47986   2.48154   2.48676   2.49345
 Alpha virt. eigenvalues --    2.49930   2.50118   2.50754   2.51247   2.51526
 Alpha virt. eigenvalues --    2.51872   2.52311   2.52480   2.52997   2.53276
 Alpha virt. eigenvalues --    2.53741   2.54227   2.54479   2.54574   2.54893
 Alpha virt. eigenvalues --    2.55067   2.55295   2.55637   2.56042   2.56402
 Alpha virt. eigenvalues --    2.56415   2.56791   2.57086   2.57168   2.57297
 Alpha virt. eigenvalues --    2.57661   2.58005   2.58194   2.58631   2.58691
 Alpha virt. eigenvalues --    2.58961   2.59066   2.59411   2.60068   2.60342
 Alpha virt. eigenvalues --    2.60521   2.60623   2.61234   2.61329   2.61890
 Alpha virt. eigenvalues --    2.62142   2.62290   2.62722   2.62855   2.63225
 Alpha virt. eigenvalues --    2.63573   2.63720   2.64113   2.64506   2.64759
 Alpha virt. eigenvalues --    2.65131   2.65324   2.65922   2.66028   2.66369
 Alpha virt. eigenvalues --    2.66586   2.66922   2.67498   2.67707   2.67959
 Alpha virt. eigenvalues --    2.68427   2.68568   2.69340   2.69413   2.69679
 Alpha virt. eigenvalues --    2.69914   2.70268   2.70427   2.70840   2.71029
 Alpha virt. eigenvalues --    2.71340   2.71859   2.72398   2.72506   2.72751
 Alpha virt. eigenvalues --    2.72927   2.73476   2.73803   2.74214   2.74457
 Alpha virt. eigenvalues --    2.74896   2.75201   2.75436   2.75599   2.76081
 Alpha virt. eigenvalues --    2.76450   2.76720   2.76964   2.77361   2.77521
 Alpha virt. eigenvalues --    2.77884   2.78170   2.78662   2.79108   2.79528
 Alpha virt. eigenvalues --    2.79842   2.80136   2.80446   2.80625   2.80864
 Alpha virt. eigenvalues --    2.81348   2.81719   2.82074   2.82376   2.82821
 Alpha virt. eigenvalues --    2.82928   2.83071   2.83447   2.83989   2.84356
 Alpha virt. eigenvalues --    2.84699   2.84822   2.85528   2.85774   2.86249
 Alpha virt. eigenvalues --    2.86439   2.86563   2.86850   2.86975   2.87482
 Alpha virt. eigenvalues --    2.87669   2.88184   2.88590   2.88615   2.89147
 Alpha virt. eigenvalues --    2.89234   2.89609   2.89914   2.90139   2.90659
 Alpha virt. eigenvalues --    2.91167   2.91485   2.91852   2.92759   2.93299
 Alpha virt. eigenvalues --    2.93584   2.93928   2.94068   2.94239   2.94573
 Alpha virt. eigenvalues --    2.95001   2.95277   2.95569   2.96021   2.96146
 Alpha virt. eigenvalues --    2.96711   2.96795   2.96839   2.97346   2.97574
 Alpha virt. eigenvalues --    2.97756   2.98090   2.98212   2.98629   2.98885
 Alpha virt. eigenvalues --    2.99204   2.99421   2.99616   3.00321   3.00472
 Alpha virt. eigenvalues --    3.00599   3.00896   3.01076   3.01559   3.02053
 Alpha virt. eigenvalues --    3.02141   3.02468   3.02801   3.03031   3.03113
 Alpha virt. eigenvalues --    3.03534   3.03916   3.04493   3.04883   3.04995
 Alpha virt. eigenvalues --    3.05181   3.05413   3.05642   3.06033   3.06381
 Alpha virt. eigenvalues --    3.06631   3.07005   3.07227   3.07640   3.07808
 Alpha virt. eigenvalues --    3.07988   3.08235   3.08473   3.08922   3.09021
 Alpha virt. eigenvalues --    3.09244   3.09393   3.09933   3.10183   3.10570
 Alpha virt. eigenvalues --    3.11210   3.11552   3.11776   3.11829   3.12103
 Alpha virt. eigenvalues --    3.12423   3.12836   3.12873   3.13412   3.13608
 Alpha virt. eigenvalues --    3.13746   3.13883   3.14033   3.14235   3.14403
 Alpha virt. eigenvalues --    3.14653   3.15019   3.15195   3.15385   3.15875
 Alpha virt. eigenvalues --    3.16176   3.16343   3.16419   3.16653   3.17105
 Alpha virt. eigenvalues --    3.17327   3.17479   3.17832   3.18324   3.18513
 Alpha virt. eigenvalues --    3.18783   3.18818   3.19181   3.19323   3.19750
 Alpha virt. eigenvalues --    3.20369   3.20745   3.20843   3.20969   3.21644
 Alpha virt. eigenvalues --    3.21968   3.22101   3.22374   3.22813   3.22966
 Alpha virt. eigenvalues --    3.23189   3.23404   3.24046   3.24214   3.24542
 Alpha virt. eigenvalues --    3.24799   3.25015   3.25435   3.25563   3.25719
 Alpha virt. eigenvalues --    3.26115   3.26285   3.26437   3.26539   3.26721
 Alpha virt. eigenvalues --    3.27327   3.27484   3.27783   3.28019   3.28200
 Alpha virt. eigenvalues --    3.28453   3.28604   3.29044   3.29429   3.29576
 Alpha virt. eigenvalues --    3.29837   3.30058   3.30120   3.30573   3.30748
 Alpha virt. eigenvalues --    3.30999   3.31309   3.31508   3.31685   3.31862
 Alpha virt. eigenvalues --    3.32151   3.32517   3.32632   3.32786   3.33006
 Alpha virt. eigenvalues --    3.33276   3.33450   3.33612   3.33952   3.34172
 Alpha virt. eigenvalues --    3.34463   3.34878   3.34966   3.35366   3.35858
 Alpha virt. eigenvalues --    3.35981   3.36168   3.36329   3.36641   3.36854
 Alpha virt. eigenvalues --    3.36961   3.37363   3.37425   3.37676   3.37917
 Alpha virt. eigenvalues --    3.38293   3.38439   3.38838   3.39054   3.39231
 Alpha virt. eigenvalues --    3.39462   3.39734   3.40094   3.40437   3.40796
 Alpha virt. eigenvalues --    3.40834   3.41001   3.41304   3.41876   3.42022
 Alpha virt. eigenvalues --    3.42130   3.42363   3.42757   3.43006   3.43140
 Alpha virt. eigenvalues --    3.43292   3.43527   3.43700   3.44023   3.44200
 Alpha virt. eigenvalues --    3.44511   3.45070   3.45279   3.45841   3.45927
 Alpha virt. eigenvalues --    3.46060   3.46449   3.46550   3.46678   3.47140
 Alpha virt. eigenvalues --    3.47694   3.47899   3.48151   3.48516   3.48949
 Alpha virt. eigenvalues --    3.49121   3.49671   3.50042   3.50059   3.50465
 Alpha virt. eigenvalues --    3.51085   3.51142   3.51449   3.51667   3.52145
 Alpha virt. eigenvalues --    3.52229   3.52371   3.52760   3.52837   3.53368
 Alpha virt. eigenvalues --    3.53791   3.54316   3.54638   3.54888   3.54944
 Alpha virt. eigenvalues --    3.55218   3.55441   3.56003   3.56106   3.56268
 Alpha virt. eigenvalues --    3.56606   3.56963   3.57342   3.57724   3.58206
 Alpha virt. eigenvalues --    3.58245   3.58435   3.59206   3.59497   3.59742
 Alpha virt. eigenvalues --    3.59833   3.60017   3.60325   3.60822   3.61383
 Alpha virt. eigenvalues --    3.61519   3.61593   3.62861   3.63307   3.63589
 Alpha virt. eigenvalues --    3.63863   3.64046   3.64336   3.64631   3.64814
 Alpha virt. eigenvalues --    3.65031   3.65564   3.65990   3.66599   3.66920
 Alpha virt. eigenvalues --    3.67093   3.67593   3.67862   3.68291   3.68910
 Alpha virt. eigenvalues --    3.69380   3.69810   3.70097   3.70529   3.70812
 Alpha virt. eigenvalues --    3.71286   3.71364   3.71497   3.71908   3.72253
 Alpha virt. eigenvalues --    3.72799   3.72929   3.73398   3.73586   3.73886
 Alpha virt. eigenvalues --    3.74434   3.74879   3.75242   3.75374   3.75898
 Alpha virt. eigenvalues --    3.76090   3.76183   3.76858   3.76938   3.77191
 Alpha virt. eigenvalues --    3.77535   3.77788   3.78155   3.78796   3.79128
 Alpha virt. eigenvalues --    3.79415   3.79712   3.79814   3.80579   3.81249
 Alpha virt. eigenvalues --    3.81821   3.82600   3.82780   3.83058   3.83331
 Alpha virt. eigenvalues --    3.83706   3.84229   3.84397   3.84691   3.84981
 Alpha virt. eigenvalues --    3.85421   3.85704   3.86070   3.86288   3.86724
 Alpha virt. eigenvalues --    3.87190   3.87763   3.88017   3.88759   3.88885
 Alpha virt. eigenvalues --    3.89009   3.89381   3.89785   3.90208   3.90688
 Alpha virt. eigenvalues --    3.90905   3.91203   3.92227   3.92546   3.92979
 Alpha virt. eigenvalues --    3.93528   3.94224   3.94498   3.95324   3.96078
 Alpha virt. eigenvalues --    3.96452   3.96821   3.97179   3.97449   3.98095
 Alpha virt. eigenvalues --    3.98496   3.98938   3.99379   3.99914   4.00115
 Alpha virt. eigenvalues --    4.01007   4.01371   4.01533   4.02264   4.02478
 Alpha virt. eigenvalues --    4.03332   4.03561   4.04087   4.04384   4.05231
 Alpha virt. eigenvalues --    4.05511   4.06358   4.06807   4.07009   4.07758
 Alpha virt. eigenvalues --    4.08052   4.08755   4.09474   4.09916   4.09986
 Alpha virt. eigenvalues --    4.10334   4.10873   4.11628   4.11696   4.12161
 Alpha virt. eigenvalues --    4.13026   4.13206   4.14289   4.14512   4.15538
 Alpha virt. eigenvalues --    4.16036   4.16659   4.16921   4.17642   4.17787
 Alpha virt. eigenvalues --    4.18574   4.18920   4.19138   4.19654   4.20572
 Alpha virt. eigenvalues --    4.21317   4.21448   4.22026   4.22337   4.22731
 Alpha virt. eigenvalues --    4.23020   4.23938   4.24028   4.24315   4.25079
 Alpha virt. eigenvalues --    4.25917   4.26648   4.26978   4.27061   4.27442
 Alpha virt. eigenvalues --    4.27960   4.28557   4.28949   4.29383   4.29757
 Alpha virt. eigenvalues --    4.30125   4.31411   4.31485   4.31834   4.32225
 Alpha virt. eigenvalues --    4.33225   4.33458   4.33885   4.34610   4.35011
 Alpha virt. eigenvalues --    4.35505   4.35996   4.36643   4.37009   4.37998
 Alpha virt. eigenvalues --    4.38081   4.38570   4.38900   4.39266   4.39589
 Alpha virt. eigenvalues --    4.39874   4.40168   4.40955   4.41637   4.42373
 Alpha virt. eigenvalues --    4.43129   4.43582   4.43652   4.44418   4.45092
 Alpha virt. eigenvalues --    4.45731   4.46248   4.46842   4.47411   4.47874
 Alpha virt. eigenvalues --    4.48221   4.48611   4.48830   4.49913   4.50144
 Alpha virt. eigenvalues --    4.50698   4.50920   4.52013   4.52443   4.52878
 Alpha virt. eigenvalues --    4.53477   4.53651   4.53941   4.54612   4.55341
 Alpha virt. eigenvalues --    4.55418   4.56081   4.56867   4.56991   4.57660
 Alpha virt. eigenvalues --    4.58561   4.59112   4.59325   4.59443   4.60147
 Alpha virt. eigenvalues --    4.61368   4.61748   4.62579   4.62741   4.63869
 Alpha virt. eigenvalues --    4.64691   4.64739   4.65245   4.66836   4.67434
 Alpha virt. eigenvalues --    4.68171   4.68509   4.69314   4.70608   4.71595
 Alpha virt. eigenvalues --    4.71767   4.72078   4.72339   4.73440   4.73607
 Alpha virt. eigenvalues --    4.73970   4.74511   4.75005   4.75339   4.75730
 Alpha virt. eigenvalues --    4.76134   4.77138   4.77622   4.78147   4.78667
 Alpha virt. eigenvalues --    4.80064   4.80360   4.80669   4.81222   4.81745
 Alpha virt. eigenvalues --    4.82185   4.83188   4.85075   4.85845   4.86004
 Alpha virt. eigenvalues --    4.86865   4.87561   4.87791   4.88081   4.88939
 Alpha virt. eigenvalues --    4.89650   4.90068   4.91070   4.91350   4.92062
 Alpha virt. eigenvalues --    4.92272   4.92917   4.93801   4.94963   4.95698
 Alpha virt. eigenvalues --    4.97138   4.98145   4.98276   4.98411   4.99412
 Alpha virt. eigenvalues --    4.99902   5.00679   5.01551   5.01985   5.02898
 Alpha virt. eigenvalues --    5.03201   5.03352   5.05352   5.06161   5.06716
 Alpha virt. eigenvalues --    5.06864   5.08378   5.10188   5.10341   5.11084
 Alpha virt. eigenvalues --    5.11619   5.11990   5.12630   5.13371   5.14779
 Alpha virt. eigenvalues --    5.15669   5.15792   5.16713   5.18652   5.19782
 Alpha virt. eigenvalues --    5.19995   5.21121   5.21353   5.21716   5.22295
 Alpha virt. eigenvalues --    5.22787   5.23138   5.23640   5.24389   5.24968
 Alpha virt. eigenvalues --    5.27034   5.28701   5.29790   5.30687   5.31103
 Alpha virt. eigenvalues --    5.32351   5.32796   5.33858   5.34487   5.35469
 Alpha virt. eigenvalues --    5.36193   5.38901   5.39096   5.39275   5.40682
 Alpha virt. eigenvalues --    5.41002   5.42545   5.42744   5.43221   5.43981
 Alpha virt. eigenvalues --    5.44202   5.45305   5.46096   5.49186   5.49660
 Alpha virt. eigenvalues --    5.51481   5.52531   5.53153   5.53490   5.54797
 Alpha virt. eigenvalues --    5.55454   5.55870   5.56112   5.56814   5.57709
 Alpha virt. eigenvalues --    5.61366   5.62824   5.63649   5.65089   5.66596
 Alpha virt. eigenvalues --    5.66801   5.68184   5.68642   5.69209   5.69269
 Alpha virt. eigenvalues --    5.72007   5.74011   5.74653   5.75396   5.77159
 Alpha virt. eigenvalues --    5.78910   5.79221   5.81192   5.85361   5.89481
 Alpha virt. eigenvalues --    5.91339   5.94018   5.96246   5.98501   5.99317
 Alpha virt. eigenvalues --    6.01213   6.02107   6.02966   6.03480   6.04093
 Alpha virt. eigenvalues --    6.04708   6.06237   6.06870   6.07861   6.08734
 Alpha virt. eigenvalues --    6.14959   6.15882   6.17148   6.18306   6.19219
 Alpha virt. eigenvalues --    6.19581   6.21259   6.27342   6.28446   6.30446
 Alpha virt. eigenvalues --    6.33714   6.36791   6.38792   6.40211   6.42648
 Alpha virt. eigenvalues --    6.42889   6.47378   6.47568   6.50662   6.51798
 Alpha virt. eigenvalues --    6.55151   6.64997   6.66919   6.69694   6.74951
 Alpha virt. eigenvalues --    6.82210   6.85682   6.86166   6.95035   6.95873
 Alpha virt. eigenvalues --    7.01529   7.06663   7.08948   7.10055   7.15331
 Alpha virt. eigenvalues --    7.22503   7.32453   9.29777   9.49239   9.63072
 Alpha virt. eigenvalues --   20.21256  22.41328  22.49277  22.50679  22.50935
 Alpha virt. eigenvalues --   22.55196  22.56627  22.57631  22.57656  22.60022
 Alpha virt. eigenvalues --   22.60124  22.65110  22.67659  22.70115  22.73579
 Alpha virt. eigenvalues --   22.76798  22.79021  22.79926  22.99249  23.00145
 Alpha virt. eigenvalues --   23.03015  23.03970  23.05566  23.07211  23.13976
 Alpha virt. eigenvalues --   23.14568  23.23182  23.26531  23.32356  23.41903
 Alpha virt. eigenvalues --   23.42606  23.46155  23.47642  23.48974  23.53733
 Alpha virt. eigenvalues --   23.56708  23.58943  23.66613  23.78761  23.87710
 Alpha virt. eigenvalues --   23.91736  24.01886  32.46176  32.82528  33.05521
 Alpha virt. eigenvalues --   33.10369  33.15750  33.20338  43.90075  43.91213
 Alpha virt. eigenvalues --   43.94726  43.98951
          Condensed to atoms (all electrons):
 Mulliken charges:
               1
     1  C   -0.358353
     2  C    0.122778
     3  N   -0.212314
     4  C   -0.188084
     5  C   -0.025800
     6  N    0.088330
     7  C   -0.376250
     8  C   -0.089927
     9  S    0.028947
    10  C   -0.652928
    11  C   -0.569272
    12  C   -0.532081
    13  C   -0.494791
    14  C   -0.499342
    15  C    0.125072
    16  C    0.124261
    17  C   -0.101488
    18  C    0.287892
    19  C   -0.405510
    20  C   -0.294681
    21  C   -0.168642
    22  C    0.240040
    23  O   -0.311317
    24  O   -0.362553
    25  C    0.316265
    26  C   -0.114839
    27  C   -0.063033
    28  C    0.256028
    29  C   -0.377208
    30  C   -0.160301
    31  C   -0.357030
    32  C    0.215306
    33  C   -0.046183
    34  C   -0.121140
    35  C    0.290844
    36  C   -0.400033
    37  C   -0.134169
    38  C   -0.380874
    39  C    0.181356
    40  C   -0.014562
    41  C    0.063440
    42  C    0.270296
    43  C   -0.412269
    44  C   -0.473397
    45  C   -0.067468
    46  C    0.223763
    47  O   -0.286342
    48  O   -0.444832
    49  N   -0.080130
    50  N   -0.006398
    51  N    0.016889
    52  N    0.086189
    53  Fe  -0.398907
    54  H    0.147377
    55  H    0.114139
    56  H    0.147909
    57  H    0.158815
    58  H    0.177721
    59  H    0.107901
    60  H    0.150280
    61  H    0.115549
    62  H    0.132676
    63  H    0.109729
    64  H    0.244371
    65  H    0.248146
    66  H    0.194519
    67  H    0.091949
    68  H    0.076651
    69  H    0.086859
    70  H    0.074807
    71  H    0.125708
    72  H    0.144187
    73  H    0.134541
    74  H    0.094175
    75  H    0.110491
    76  H    0.128770
    77  H    0.135657
    78  H    0.132422
    79  H    0.129040
    80  H    0.117521
    81  H    0.102124
    82  H    0.096622
    83  H    0.115762
    84  H    0.112954
    85  H    0.127247
    86  H    0.134704
    87  H    0.135440
    88  H    0.128380
    89  H    0.113093
    90  H    0.095370
    91  H    0.119361
    92  H    0.112517
    93  H    0.133786
    94  H    0.138113
    95  H    0.145749
    96  H    0.123677
    97  H    0.119825
    98  H    0.134129
    99  H    0.135307
   100  H    0.352992
   101  H    0.349244
   102  H    0.234515
   103  H    0.151933
 Sum of Mulliken charges =  -0.00000
 Mulliken charges with hydrogens summed into heavy atoms:
               1
     1  C    0.051072
     2  C    0.122778
     3  N    0.022201
     4  C   -0.029269
     5  C    0.151922
     6  N    0.088330
     7  C   -0.002521
     8  C    0.152477
     9  S    0.028947
    10  C    0.034108
    11  C   -0.477323
    12  C   -0.455430
    13  C   -0.407931
    14  C   -0.424535
    15  C    0.125072
    16  C    0.124261
    17  C   -0.101488
    18  C    0.287892
    19  C   -0.001074
    20  C   -0.090015
    21  C    0.095785
    22  C    0.240040
    23  O    0.041675
    24  O   -0.362553
    25  C    0.316265
    26  C   -0.114839
    27  C   -0.063033
    28  C    0.256028
    29  C    0.001775
    30  C    0.038446
    31  C   -0.001068
    32  C    0.215306
    33  C   -0.046183
    34  C   -0.121140
    35  C    0.290844
    36  C   -0.001509
    37  C    0.074293
    38  C   -0.015210
    39  C    0.181356
    40  C   -0.014562
    41  C    0.063440
    42  C    0.270296
    43  C   -0.004731
    44  C   -0.201639
    45  C    0.201969
    46  C    0.223763
    47  O    0.062902
    48  O   -0.444832
    49  N   -0.080130
    50  N   -0.006398
    51  N    0.016889
    52  N    0.086189
    53  Fe  -0.398907
 Electronic spatial extent (au):  <R**2>=          33864.2277
 Charge=              0.0000 electrons
 Dipole moment (field-independent basis, Debye):
    X=              3.7818    Y=             -0.9161    Z=              6.9287  Tot=              7.9466
 Quadrupole moment (field-independent basis, Debye-Ang):
   XX=           -324.3108   YY=           -326.8523   ZZ=           -308.7658
   XY=             -1.7304   XZ=            -10.5218   YZ=            -18.4160
 Traceless Quadrupole moment (field-independent basis, Debye-Ang):
   XX=             -4.3345   YY=             -6.8760   ZZ=             11.2105
   XY=             -1.7304   XZ=            -10.5218   YZ=            -18.4160
 Octapole moment (field-independent basis, Debye-Ang**2):
  XXX=             28.1655  YYY=            -31.6071  ZZZ=            202.4052  XYY=            147.5699
  XXY=             32.3476  XXZ=             93.8940  XZZ=             49.0989  YZZ=            -10.4729
  YYZ=             -4.8210  XYZ=            118.8405
 Hexadecapole moment (field-independent basis, Debye-Ang**3):
 XXXX=         -23323.8565 YYYY=         -15001.4197 ZZZZ=          -4979.7201 XXXY=           -436.9735
 XXXZ=           -383.3938 YYYX=             99.1480 YYYZ=           -114.8719 ZZZX=             85.5311
 ZZZY=           -184.4834 XXYY=          -7580.0037 XXZZ=          -5184.5101 YYZZ=          -3560.6073
 XXYZ=           -932.7689 YYXZ=             31.3706 ZZXY=           -133.3349
 N-N= 9.096983671920D+03 E-N=-2.732434730163D+04  KE= 3.870912664733D+03
 ******************************Gaussian NBO Version 3.1******************************
             N A T U R A L   A T O M I C   O R B I T A L   A N D
          N A T U R A L   B O N D   O R B I T A L   A N A L Y S I S
 ******************************Gaussian NBO Version 3.1******************************
       /RESON  / : Allow strongly delocalized NBO set

 Analyzing the SCF density

 Job title: 451c_II_S_nbo                                                   

 Storage needed:  11594000 in NPA,  15430019 in NBO (2147429161 available)
 GSVD:  LWork=     1715065 too small for GESVD, short by     2552255 words or     2552255 for optimal perf.


 NATURAL POPULATIONS:  Natural atomic orbital occupancies 
                                                          
   NAO  Atom  No  lang   Type(AO)    Occupancy      Energy
 ----------------------------------------------------------
     1    C    1  S      Cor( 1S)     1.99940     -10.08147
     2    C    1  S      Val( 2S)     1.10458      -0.31272
     3    C    1  S      Ryd( 3S)     0.00053       1.04436
     4    C    1  S      Ryd( 4S)     0.00014       1.95617
     5    C    1  S      Ryd( 5S)     0.00000      21.68541
     6    C    1  px     Val( 2p)     1.16562      -0.12154
     7    C    1  px     Ryd( 3p)     0.00073       0.79862
     8    C    1  px     Ryd( 4p)     0.00015       1.55215
     9    C    1  py     Val( 2p)     1.22431      -0.12438
    10    C    1  py     Ryd( 3p)     0.00028       0.76099
    11    C    1  py     Ryd( 4p)     0.00017       1.42571
    12    C    1  pz     Val( 2p)     1.13642      -0.11789
    13    C    1  pz     Ryd( 3p)     0.00044       0.82809
    14    C    1  pz     Ryd( 4p)     0.00021       1.48835
    15    C    1  dxy    Ryd( 4d)     0.00077       3.03266
    16    C    1  dxy    Ryd( 3d)     0.00004       2.30956
    17    C    1  dxz    Ryd( 4d)     0.00078       3.44787
    18    C    1  dxz    Ryd( 3d)     0.00005       2.51038
    19    C    1  dyz    Ryd( 4d)     0.00032       2.66741
    20    C    1  dyz    Ryd( 3d)     0.00020       2.40033
    21    C    1  dx2y2  Ryd( 4d)     0.00041       2.87074
    22    C    1  dx2y2  Ryd( 3d)     0.00010       2.63387
    23    C    1  dz2    Ryd( 4d)     0.00046       3.08909
    24    C    1  dz2    Ryd( 3d)     0.00005       2.41043
    25    C    1  f(0)   Ryd( 4f)     0.00004       3.47648
    26    C    1  f(C1)  Ryd( 4f)     0.00014       3.75014
    27    C    1  f(S1)  Ryd( 4f)     0.00002       3.35426
    28    C    1  f(C2)  Ryd( 4f)     0.00001       3.39338
    29    C    1  f(S2)  Ryd( 4f)     0.00004       3.31493
    30    C    1  f(C3)  Ryd( 4f)     0.00008       3.60962
    31    C    1  f(S3)  Ryd( 4f)     0.00003       3.36300

    32    C    2  S      Cor( 1S)     1.99920     -10.12391
    33    C    2  S      Val( 2S)     0.89819      -0.21203
    34    C    2  S      Ryd( 3S)     0.00126       1.55040
    35    C    2  S      Ryd( 4S)     0.00004       1.68676
    36    C    2  S      Ryd( 5S)     0.00001      21.47975
    37    C    2  px     Val( 2p)     0.85946      -0.04332
    38    C    2  px     Ryd( 3p)     0.00304       1.32494
    39    C    2  px     Ryd( 4p)     0.00015       1.77369
    40    C    2  py     Val( 2p)     1.06494      -0.12391
    41    C    2  py     Ryd( 3p)     0.00338       0.80398
    42    C    2  py     Ryd( 4p)     0.00050       1.34032
    43    C    2  pz     Val( 2p)     1.05437      -0.07799
    44    C    2  pz     Ryd( 3p)     0.00345       1.33777
    45    C    2  pz     Ryd( 4p)     0.00043       2.03358
    46    C    2  dxy    Ryd( 3d)     0.00043       1.07842
    47    C    2  dxy    Ryd( 4d)     0.00050       3.31262
    48    C    2  dxz    Ryd( 3d)     0.00096       1.97845
    49    C    2  dxz    Ryd( 4d)     0.00072       3.76999
    50    C    2  dyz    Ryd( 3d)     0.00077       1.14870
    51    C    2  dyz    Ryd( 4d)     0.00043       3.35770
    52    C    2  dx2y2  Ryd( 3d)     0.00075       1.57640
    53    C    2  dx2y2  Ryd( 4d)     0.00029       3.94293
    54    C    2  dz2    Ryd( 3d)     0.00105       1.54314
    55    C    2  dz2    Ryd( 4d)     0.00065       3.64481
    56    C    2  f(0)   Ryd( 4f)     0.00012       4.12680
    57    C    2  f(C1)  Ryd( 4f)     0.00015       4.06451
    58    C    2  f(S1)  Ryd( 4f)     0.00022       3.60025
    59    C    2  f(C2)  Ryd( 4f)     0.00011       3.85597
    60    C    2  f(S2)  Ryd( 4f)     0.00004       3.46581
    61    C    2  f(C3)  Ryd( 4f)     0.00009       3.64969
    62    C    2  f(S3)  Ryd( 4f)     0.00008       3.57456

    63    N    3  S      Cor( 1S)     1.99937     -14.25674
    64    N    3  S      Val( 2S)     1.24022      -0.59443
    65    N    3  S      Ryd( 3S)     0.00071       1.85238
    66    N    3  S      Ryd( 4S)     0.00007       2.42787
    67    N    3  S      Ryd( 5S)     0.00000      30.68526
    68    N    3  px     Val( 2p)     1.29987      -0.27065
    69    N    3  px     Ryd( 3p)     0.00183       1.03365
    70    N    3  px     Ryd( 4p)     0.00016       2.86794
    71    N    3  py     Val( 2p)     1.55433      -0.29083
    72    N    3  py     Ryd( 3p)     0.00209       0.61165
    73    N    3  py     Ryd( 4p)     0.00044       2.23531
    74    N    3  pz     Val( 2p)     1.36761      -0.28269
    75    N    3  pz     Ryd( 3p)     0.00208       1.21845
    76    N    3  pz     Ryd( 4p)     0.00044       2.91637
    77    N    3  dxy    Ryd( 3d)     0.00085       1.40469
    78    N    3  dxy    Ryd( 4d)     0.00007       4.55824
    79    N    3  dxz    Ryd( 3d)     0.00229       1.75854
    80    N    3  dxz    Ryd( 4d)     0.00022       4.96661
    81    N    3  dyz    Ryd( 3d)     0.00113       1.28434
    82    N    3  dyz    Ryd( 4d)     0.00005       4.47207
    83    N    3  dx2y2  Ryd( 3d)     0.00309       1.66784
    84    N    3  dx2y2  Ryd( 4d)     0.00004       4.79248
    85    N    3  dz2    Ryd( 3d)     0.00306       1.76523
    86    N    3  dz2    Ryd( 4d)     0.00011       4.94693
    87    N    3  f(0)   Ryd( 4f)     0.00014       4.82242
    88    N    3  f(C1)  Ryd( 4f)     0.00021       5.33869
    89    N    3  f(S1)  Ryd( 4f)     0.00024       4.38936
    90    N    3  f(C2)  Ryd( 4f)     0.00017       4.64124
    91    N    3  f(S2)  Ryd( 4f)     0.00003       4.41766
    92    N    3  f(C3)  Ryd( 4f)     0.00016       4.57152
    93    N    3  f(S3)  Ryd( 4f)     0.00026       4.43996

    94    C    4  S      Cor( 1S)     1.99898     -10.09229
    95    C    4  S      Val( 2S)     0.94119      -0.19638
    96    C    4  S      Ryd( 3S)     0.00193       1.04592
    97    C    4  S      Ryd( 4S)     0.00047       1.61783
    98    C    4  S      Ryd( 5S)     0.00001      21.92480
    99    C    4  px     Val( 2p)     1.05488      -0.04755
   100    C    4  px     Ryd( 3p)     0.00286       1.08332
   101    C    4  px     Ryd( 4p)     0.00081       1.59026
   102    C    4  py     Val( 2p)     1.04688      -0.11180
   103    C    4  py     Ryd( 3p)     0.00270       0.66499
   104    C    4  py     Ryd( 4p)     0.00051       1.40974
   105    C    4  pz     Val( 2p)     1.00663      -0.05512
   106    C    4  pz     Ryd( 3p)     0.00217       1.03110
   107    C    4  pz     Ryd( 4p)     0.00095       1.83558
   108    C    4  dxy    Ryd( 3d)     0.00076       1.34639
   109    C    4  dxy    Ryd( 4d)     0.00008       3.12469
   110    C    4  dxz    Ryd( 3d)     0.00091       2.00875
   111    C    4  dxz    Ryd( 4d)     0.00062       3.81516
   112    C    4  dyz    Ryd( 3d)     0.00055       1.35112
   113    C    4  dyz    Ryd( 4d)     0.00021       3.27743
   114    C    4  dx2y2  Ryd( 3d)     0.00064       1.72610
   115    C    4  dx2y2  Ryd( 4d)     0.00019       3.71033
   116    C    4  dz2    Ryd( 3d)     0.00176       1.65831
   117    C    4  dz2    Ryd( 4d)     0.00037       3.69264
   118    C    4  f(0)   Ryd( 4f)     0.00011       4.14347
   119    C    4  f(C1)  Ryd( 4f)     0.00004       4.09229
   120    C    4  f(S1)  Ryd( 4f)     0.00007       3.52948
   121    C    4  f(C2)  Ryd( 4f)     0.00011       3.95149
   122    C    4  f(S2)  Ryd( 4f)     0.00005       3.47796
   123    C    4  f(C3)  Ryd( 4f)     0.00006       3.76150
   124    C    4  f(S3)  Ryd( 4f)     0.00009       3.51210

   125    C    5  S      Cor( 1S)     1.99939     -10.16106
   126    C    5  S      Val( 2S)     0.92106      -0.22335
   127    C    5  S      Ryd( 3S)     0.00204       1.14286
   128    C    5  S      Ryd( 4S)     0.00047       1.42895
   129    C    5  S      Ryd( 5S)     0.00000      22.07903
   130    C    5  px     Val( 2p)     1.09570      -0.07616
   131    C    5  px     Ryd( 3p)     0.00269       1.17233
   132    C    5  px     Ryd( 4p)     0.00082       1.54719
   133    C    5  py     Val( 2p)     1.01510      -0.13452
   134    C    5  py     Ryd( 3p)     0.00416       0.68504
   135    C    5  py     Ryd( 4p)     0.00046       1.28033
   136    C    5  pz     Val( 2p)     0.78676      -0.04391
   137    C    5  pz     Ryd( 3p)     0.00409       1.03923
   138    C    5  pz     Ryd( 4p)     0.00067       1.56555
   139    C    5  dxy    Ryd( 4d)     0.00029       2.99668
   140    C    5  dxy    Ryd( 3d)     0.00014       2.33415
   141    C    5  dxz    Ryd( 4d)     0.00031       4.14667
   142    C    5  dxz    Ryd( 3d)     0.00036       2.72483
   143    C    5  dyz    Ryd( 4d)     0.00079       3.15192
   144    C    5  dyz    Ryd( 3d)     0.00009       2.44964
   145    C    5  dx2y2  Ryd( 4d)     0.00045       3.59905
   146    C    5  dx2y2  Ryd( 3d)     0.00006       2.84618
   147    C    5  dz2    Ryd( 4d)     0.00066       3.83726
   148    C    5  dz2    Ryd( 3d)     0.00006       2.76474
   149    C    5  f(0)   Ryd( 4f)     0.00003       4.02555
   150    C    5  f(C1)  Ryd( 4f)     0.00006       4.04968
   151    C    5  f(S1)  Ryd( 4f)     0.00003       3.43443
   152    C    5  f(C2)  Ryd( 4f)     0.00007       3.63187
   153    C    5  f(S2)  Ryd( 4f)     0.00004       3.44044
   154    C    5  f(C3)  Ryd( 4f)     0.00010       3.72551
   155    C    5  f(S3)  Ryd( 4f)     0.00010       3.28581

   156    N    6  S      Cor( 1S)     1.99937     -14.19675
   157    N    6  S      Val( 2S)     1.28588      -0.54742
   158    N    6  S      Ryd( 3S)     0.00514       1.64510
   159    N    6  S      Ryd( 4S)     0.00010       4.05559
   160    N    6  S      Ryd( 5S)     0.00000      31.84108
   161    N    6  px     Val( 2p)     1.20614      -0.18486
   162    N    6  px     Ryd( 3p)     0.01117       1.24665
   163    N    6  px     Ryd( 4p)     0.00018       3.69329
   164    N    6  py     Val( 2p)     1.31415      -0.20281
   165    N    6  py     Ryd( 3p)     0.01157       0.74728
   166    N    6  py     Ryd( 4p)     0.00017       2.61820
   167    N    6  pz     Val( 2p)     1.45390      -0.23198
   168    N    6  pz     Ryd( 3p)     0.01113       1.37103
   169    N    6  pz     Ryd( 4p)     0.00022       3.69198
   170    N    6  dxy    Ryd( 3d)     0.00051       1.47834
   171    N    6  dxy    Ryd( 4d)     0.00021       4.73225
   172    N    6  dxz    Ryd( 3d)     0.00453       1.91339
   173    N    6  dxz    Ryd( 4d)     0.00023       5.12792
   174    N    6  dyz    Ryd( 3d)     0.00308       1.51264
   175    N    6  dyz    Ryd( 4d)     0.00014       4.73980
   176    N    6  dx2y2  Ryd( 3d)     0.00289       1.63819
   177    N    6  dx2y2  Ryd( 4d)     0.00010       4.89902
   178    N    6  dz2    Ryd( 3d)     0.00190       1.65147
   179    N    6  dz2    Ryd( 4d)     0.00025       4.86919
   180    N    6  f(0)   Ryd( 4f)     0.00016       4.65946
   181    N    6  f(C1)  Ryd( 4f)     0.00007       5.06159
   182    N    6  f(S1)  Ryd( 4f)     0.00008       4.31177
   183    N    6  f(C2)  Ryd( 4f)     0.00019       4.79742
   184    N    6  f(S2)  Ryd( 4f)     0.00004       4.59468
   185    N    6  f(C3)  Ryd( 4f)     0.00014       4.59103
   186    N    6  f(S3)  Ryd( 4f)     0.00022       4.51588

   187    C    7  S      Cor( 1S)     1.99944     -10.02956
   188    C    7  S      Val( 2S)     1.10175      -0.26876
   189    C    7  S      Ryd( 3S)     0.00044       1.48323
   190    C    7  S      Ryd( 4S)     0.00040       2.10598
   191    C    7  S      Ryd( 5S)     0.00000      21.58957
   192    C    7  px     Val( 2p)     1.10684      -0.07408
   193    C    7  px     Ryd( 3p)     0.00072       0.83266
   194    C    7  px     Ryd( 4p)     0.00027       1.67630
   195    C    7  py     Val( 2p)     1.18302      -0.07738
   196    C    7  py     Ryd( 3p)     0.00114       1.02911
   197    C    7  py     Ryd( 4p)     0.00014       1.94291
   198    C    7  pz     Val( 2p)     1.22404      -0.07499
   199    C    7  pz     Ryd( 3p)     0.00066       0.96386
   200    C    7  pz     Ryd( 4p)     0.00056       1.55404
   201    C    7  dxy    Ryd( 3d)     0.00171       1.81091
   202    C    7  dxy    Ryd( 4d)     0.00015       3.06116
   203    C    7  dxz    Ryd( 3d)     0.00030       1.44990
   204    C    7  dxz    Ryd( 4d)     0.00008       2.79225
   205    C    7  dyz    Ryd( 3d)     0.00190       1.72932
   206    C    7  dyz    Ryd( 4d)     0.00010       3.02301
   207    C    7  dx2y2  Ryd( 3d)     0.00085       1.56824
   208    C    7  dx2y2  Ryd( 4d)     0.00011       2.87624
   209    C    7  dz2    Ryd( 3d)     0.00150       1.78790
   210    C    7  dz2    Ryd( 4d)     0.00007       3.04008
   211    C    7  f(0)   Ryd( 4f)     0.00006       3.64133
   212    C    7  f(C1)  Ryd( 4f)     0.00003       3.50280
   213    C    7  f(S1)  Ryd( 4f)     0.00009       3.69140
   214    C    7  f(C2)  Ryd( 4f)     0.00002       3.63625
   215    C    7  f(S2)  Ryd( 4f)     0.00001       3.43391
   216    C    7  f(C3)  Ryd( 4f)     0.00003       3.56693
   217    C    7  f(S3)  Ryd( 4f)     0.00010       3.72535

   218    C    8  S      Cor( 1S)     1.99936     -10.09215
   219    C    8  S      Val( 2S)     1.12602      -0.33196
   220    C    8  S      Ryd( 3S)     0.00136       1.48079
   221    C    8  S      Ryd( 4S)     0.00065       2.45952
   222    C    8  S      Ryd( 5S)     0.00000      21.13238
   223    C    8  px     Val( 2p)     1.14035      -0.10458
   224    C    8  px     Ryd( 3p)     0.00183       0.91866
   225    C    8  px     Ryd( 4p)     0.00024       1.69332
   226    C    8  py     Val( 2p)     1.04945      -0.12809
   227    C    8  py     Ryd( 3p)     0.00179       1.01857
   228    C    8  py     Ryd( 4p)     0.00033       1.49423
   229    C    8  pz     Val( 2p)     1.20567      -0.11199
   230    C    8  pz     Ryd( 3p)     0.00243       1.08059
   231    C    8  pz     Ryd( 4p)     0.00112       2.00881
   232    C    8  dxy    Ryd( 3d)     0.00116       1.42422
   233    C    8  dxy    Ryd( 4d)     0.00023       3.44325
   234    C    8  dxz    Ryd( 3d)     0.00124       1.25424
   235    C    8  dxz    Ryd( 4d)     0.00013       3.17201
   236    C    8  dyz    Ryd( 3d)     0.00253       1.27995
   237    C    8  dyz    Ryd( 4d)     0.00017       3.18948
[...]
  1779. RY*(   3) H  91                  0.00008     2.10650   
  1780. RY*(   4) H  91                  0.00007     1.93280   
  1781. RY*(   5) H  91                  0.00001     2.86712   
  1782. RY*(   1) H  92                  0.00060     1.14212   
  1783. RY*(   2) H  92                  0.00016     2.14980   
  1784. RY*(   3) H  92                  0.00012     1.44638   
  1785. RY*(   4) H  92                  0.00007     2.14839   
  1786. RY*(   5) H  92                  0.00000     2.92977   
  1787. RY*(   1) H  93                  0.00076     1.15396   
  1788. RY*(   2) H  93                  0.00014     1.95235   
  1789. RY*(   3) H  93                  0.00008     2.11828   
  1790. RY*(   4) H  93                  0.00004     1.84277   
  1791. RY*(   5) H  93                  0.00001     2.89800   
  1792. RY*(   1) H  94                  0.00066     1.13534   
  1793. RY*(   2) H  94                  0.00017     1.87179   
  1794. RY*(   3) H  94                  0.00006     2.22024   
  1795. RY*(   4) H  94                  0.00003     1.97333   
  1796. RY*(   5) H  94                  0.00000     2.89895   
  1797. RY*(   1) H  95                  0.00093     1.05522   
  1798. RY*(   2) H  95                  0.00016     1.66944   
  1799. RY*(   3) H  95                  0.00007     2.17068   
  1800. RY*(   4) H  95                  0.00004     2.08487   
  1801. RY*(   5) H  95                  0.00001     2.98660   
  1802. RY*(   1) H  96                  0.00057     1.22914   
  1803. RY*(   2) H  96                  0.00019     1.91202   
  1804. RY*(   3) H  96                  0.00007     2.17169   
  1805. RY*(   4) H  96                  0.00004     1.89698   
  1806. RY*(   5) H  96                  0.00001     2.95002   
  1807. RY*(   1) H  97                  0.00154     0.58150   
  1808. RY*(   2) H  97                  0.00018     2.65650   
  1809. RY*(   3) H  97                  0.00015     2.43788   
  1810. RY*(   4) H  97                  0.00012     2.44443   
  1811. RY*(   5) H  97                  0.00001     3.05069   
  1812. RY*(   1) H  98                  0.00106     1.24800   
  1813. RY*(   2) H  98                  0.00013     1.66692   
  1814. RY*(   3) H  98                  0.00014     2.53191   
  1815. RY*(   4) H  98                  0.00006     2.41921   
  1816. RY*(   5) H  98                  0.00001     3.15785   
  1817. RY*(   1) H  99                  0.00079     1.35239   
  1818. RY*(   2) H  99                  0.00017     2.16142   
  1819. RY*(   3) H  99                  0.00009     1.68843   
  1820. RY*(   4) H  99                  0.00005     2.34376   
  1821. RY*(   5) H  99                  0.00001     3.05240   
  1822. RY*(   1) H 100                  0.00091     1.30514   
  1823. RY*(   2) H 100                  0.00083     1.51198   
  1824. RY*(   3) H 100                  0.00044     1.98896   
  1825. RY*(   4) H 100                  0.00022     2.18178   
  1826. RY*(   5) H 100                  0.00001     3.25843   
  1827. RY*(   1) H 101                  0.00198     0.86900   
  1828. RY*(   2) H 101                  0.00054     2.10404   
  1829. RY*(   3) H 101                  0.00045     1.78627   
  1830. RY*(   4) H 101                  0.00020     2.10486   
  1831. RY*(   5) H 101                  0.00001     3.26194   
  1837. RY*(   1) H 103                  0.00070     1.82941   
  1838. RY*(   2) H 103                  0.00015     2.77702   
  1839. RY*(   3) H 103                  0.00012     2.45495   
  1840. RY*(   4) H 103                  0.00005     1.43377   
  1841. RY*(   5) H 103                  0.00001     2.94450   
  1856. BD*(   1) C   7 - C   8          0.01596     0.36145   
  1857. BD*(   1) C   7 - H  59          0.00724     0.42632   
  1858. BD*(   1) C   7 - H  60          0.01325     0.44213   
  1859. BD*(   1) C   7 - H  61          0.00933     0.45469   
  1860. BD*(   1) C   8 - S   9          0.08506     0.17730   
  1861. BD*(   1) C   8 - H  62          0.01205     0.41595   
  1862. BD*(   1) C   8 - H  63          0.01791     0.39743   
  1863. BD*(   1) S   9 - C  10          0.07457     0.18025   
  1864. BD*(   1) S   9 -Fe  53          0.10585     0.32403  1962(g),1963(g),207(g)
                                                    1866(v),1541(v),1515(v)
                                                    1539(v),423(g),1567(g)
                                                    1861(v),344(r),1513(v)
                                                    1489(r),1463(r),425(g)
                                                    343(r),1855(r),352(r),210(r)
                                                    1853(r),342(r),289(r)
                                                    1849(r)
  1865. BD*(   1) C  10 - H  65          0.02903     0.38689   
  1866. BD*(   1) C  10 - H  66          0.04951     0.41606   
  1867. BD*(   1) C  11 - C  15          0.02445     0.57804   
  1868. BD*(   1) C  11 - C  42          0.02330     0.57625   
  1869. BD*(   2) C  11 - C  42          0.43437     0.04470  1944(v),1884(v),1942(v)
                                                    473(g),1281(g),1872(r)
                                                    1283(g),210(r)
  1870. BD*(   1) C  11 - H  67          0.01386     0.44384   
  1871. BD*(   1) C  12 - C  18          0.02343     0.59119   
  1872. BD*(   2) C  12 - C  18          0.42251     0.05021  1886(v),1906(v),1884(v)
                                                    499(g),210(r),1876(r),659(g)
                                                    1869(r)
  1873. BD*(   1) C  12 - C  25          0.02246     0.58957   
  1874. BD*(   1) C  12 - H  68          0.01451     0.45277   
  1875. BD*(   1) C  13 - C  28          0.02211     0.58753   
  1876. BD*(   2) C  13 - C  28          0.40828     0.05224  1908(v),1924(v),1906(v)
                                                    1872(r),525(g),917(g),919(g)
  1877. BD*(   1) C  13 - C  32          0.02293     0.57894   
  1878. BD*(   1) C  13 - H  69          0.01412     0.45569   
  1879. BD*(   1) C  14 - C  35          0.02394     0.59885   
  1880. BD*(   1) C  14 - C  39          0.02294     0.59787   
  1881. BD*(   1) C  14 - H  70          0.01549     0.45548   
  1882. BD*(   1) C  15 - C  16          0.03227     0.58248   
  1883. BD*(   1) C  15 - N  49          0.02898     0.53511   
  1884. BD*(   2) C  15 - N  49          0.65322     0.01062  1869(v),1886(v),1872(v)
                                                    579(g),1461(g),473(v)
                                                    1848(r),210(r)
  1885. BD*(   1) C  16 - C  17          0.02383     0.57646   
  1886. BD*(   2) C  16 - C  17          0.29947     0.05943  1872(v),1884(v),1892(v)
                                                    1894(v),1893(v)
  1887. BD*(   1) C  16 - C  20          0.02524     0.41516   
  1888. BD*(   1) C  17 - C  18          0.03001     0.59091   
  1889. BD*(   1) C  17 - C  19          0.01816     0.39187   
  1890. BD*(   1) C  18 - N  49          0.02934     0.52733   
  1891. BD*(   1) C  19 - H  71          0.00645     0.41126   
  1892. BD*(   1) C  19 - H  72          0.01020     0.40463   
  1893. BD*(   1) C  19 - H  73          0.00743     0.40744   
  1894. BD*(   1) C  20 - C  21          0.01705     0.37254   
  1895. BD*(   1) C  20 - H  74          0.01585     0.39402   
  1896. BD*(   1) C  20 - H  75          0.01379     0.40507   
  1897. BD*(   1) C  21 - C  22          0.07353     0.34498   
  1898. BD*(   1) C  21 - H  76          0.01069     0.39444   
  1899. BD*(   1) C  21 - H  77          0.01160     0.39104   
  1900. BD*(   1) C  22 - O  23          0.06090     0.52508   
  1901. BD*(   1) C  22 - O  24          0.05130     0.45062   
  1902. BD*(   2) C  22 - O  24          0.17679     0.02267  1901(g),1903(v),1898(v)
                                                    1899(v),1900(g)
  1903. BD*(   1) O  23 - H 100          0.01665     0.36114   
  1904. BD*(   1) C  25 - C  26          0.03042     0.56763   
  1905. BD*(   1) C  25 - N  50          0.02785     0.52840   
  1906. BD*(   2) C  25 - N  50          0.62334     0.02088  1872(v),1908(v),1876(v)
                                                    839(g),1487(g),499(v)
                                                    1848(r)
  1907. BD*(   1) C  26 - C  27          0.02320     0.56194   
  1908. BD*(   2) C  26 - C  27          0.27796     0.06395  1876(v),1906(v),1916(v)
                                                    1913(v),1914(v),1917(v)
  1909. BD*(   1) C  26 - C  29          0.01759     0.39904   
  1910. BD*(   1) C  27 - C  28          0.03061     0.55797   
  1911. BD*(   1) C  27 - C  30          0.02290     0.40830   
  1912. BD*(   1) C  28 - N  50          0.02791     0.52537   
  1913. BD*(   1) C  29 - H  78          0.01029     0.41142   
  1914. BD*(   1) C  29 - H  79          0.00927     0.41021   
  1915. BD*(   1) C  29 - H  80          0.00587     0.41825   
  1916. BD*(   1) C  30 - C  31          0.01031     0.36986   
  1917. BD*(   1) C  30 - H  81          0.01444     0.40010   
  1918. BD*(   1) C  30 - H  82          0.01090     0.40883   
  1919. BD*(   1) C  31 - H  83          0.00580     0.41615   
  1920. BD*(   1) C  31 - H  84          0.00539     0.41553   
  1921. BD*(   1) C  31 - H  85          0.00682     0.41919   
  1922. BD*(   1) C  32 - C  33          0.03034     0.57154   
  1923. BD*(   1) C  32 - N  51          0.02860     0.53641   
  1924. BD*(   2) C  32 - N  51          0.63479     0.01838  1876(v),1926(v),197(v)
                                                    1021(g),1513(g),1022(g)
  1925. BD*(   1) C  33 - C  34          0.02350     0.57312   
  1926. BD*(   2) C  33 - C  34          0.28603     0.06495  1924(v),197(v),1932(v)
                                                    1934(v),1935(v)
  1927. BD*(   1) C  33 - C  36          0.01780     0.39510   
  1928. BD*(   1) C  34 - C  35          0.02944     0.59637   
  1929. BD*(   1) C  34 - C  37          0.02358     0.40032   
  1930. BD*(   1) C  35 - N  51          0.02997     0.53718   
  1931. BD*(   1) C  36 - H  86          0.00662     0.41954   
  1932. BD*(   1) C  36 - H  87          0.01120     0.40987   
  1933. BD*(   1) C  36 - H  88          0.00602     0.41379   
  1934. BD*(   1) C  37 - C  38          0.00948     0.36919   
  1935. BD*(   1) C  37 - H  89          0.01357     0.40128   
  1936. BD*(   1) C  37 - H  90          0.01157     0.40863   
  1937. BD*(   1) C  38 - H  91          0.00649     0.41765   
  1938. BD*(   1) C  38 - H  92          0.00611     0.41206   
  1939. BD*(   1) C  38 - H  93          0.00733     0.41735   
  1940. BD*(   1) C  39 - C  40          0.03082     0.56817   
  1941. BD*(   1) C  39 - N  52          0.03104     0.50934   
  1942. BD*(   2) C  39 - N  52          0.65050     0.01199  192(v),1944(v),1869(v)
                                                    1203(g),1539(g),1204(g)
                                                    1859(r)
  1943. BD*(   1) C  40 - C  41          0.02328     0.57553   
  1944. BD*(   2) C  40 - C  41          0.27989     0.06271  1869(v),1942(v),1952(v)
                                                    1950(v),1949(v)
  1945. BD*(   1) C  40 - C  43          0.01793     0.39551   
  1946. BD*(   1) C  41 - C  42          0.03152     0.56452   
  1947. BD*(   1) C  41 - C  44          0.02408     0.41250   
  1948. BD*(   1) C  42 - N  52          0.02963     0.51417   
  1949. BD*(   1) C  43 - H  94          0.00633     0.41326   
  1950. BD*(   1) C  43 - H  95          0.01049     0.40985   
  1951. BD*(   1) C  43 - H  96          0.00616     0.41452   
  1952. BD*(   1) C  44 - C  45          0.01505     0.36239   
  1953. BD*(   1) C  44 - H  97          0.01534     0.40565   
  1954. BD*(   1) C  44 - H 103          0.01292     0.42468   
  1955. BD*(   1) C  45 - C  46          0.05991     0.32691   
  1956. BD*(   1) C  45 - H  98          0.01231     0.38987   
  1957. BD*(   1) C  45 - H  99          0.01042     0.38458   
  1958. BD*(   1) C  46 - O  47          0.05776     0.51386   
  1959. BD*(   1) C  46 - O  48          0.04947     0.41217   
  1960. BD*(   2) C  46 - O  48          0.25265     0.02127  1959(g),1957(v),1385(g)
  1961. BD*(   1) O  47 - H 101          0.01606     0.37595   
  1962. BD*(   1) N  51 -Fe  53          0.11504     0.31952  1963(g),1864(g),208(g)
                                                    207(g),1515(g),1541(v)
                                                    1488(r),341(r),1570(g)
                                                    421(v),342(r),1463(r)
                                                    1516(g),424(v),344(r)
                                                    1612(r),345(r),1607(r)
                                                    343(r),1855(r),1849(r)
                                                    1854(r),319(r),1847(r)
  1963. BD*(   1) N  52 -Fe  53          0.11700     0.31700  1962(g),1864(g),207(g)
                                                    208(g),1541(g),1515(v)
                                                    423(v),1570(g),341(r)
                                                    1866(r),1462(r),1489(r)
                                                    1542(g),343(r),342(r),344(r)
                                                    345(r),1612(r),1607(r)
                                                    1849(r),289(r),1853(r)
       -------------------------------
              Total Lewis  358.35671  ( 97.4520%)
        Valence non-Lewis    8.63229  (  2.3475%)
        Rydberg non-Lewis    0.73736  (  0.2005%)
       -------------------------------
            Total unit  2  367.72636  (100.0000%)
           Charge unit  2   -0.72636

 Molecular unit  3  (H)
   210. LP*(   1) H  64                  0.58727     0.05402  1863(r),1865(r),1866(r)
                                                    1642(g),1872(r),1643(g)
                                                    1644(g),452(r),1645(g)
                                                    1860(r),1646(g),459(r)
                                                    462(r),454(r),1864(r),463(r)
                                                    450(r),451(r),419(r),460(r)
                                                    472(r),1652(r),1647(r)
                                                    657(r),457(r),1962(r),470(r)
                                                    1861(r),465(r),1869(r)
                                                    453(r),1858(r),208(r),420(r)
                                                    469(r),456(r),423(r),424(r)
                                                    1650(r),209(r),471(r),422(r)
                                                    458(r),448(r),464(r),393(r)
                                                    631(r),447(r)
  1642. RY*(   1) H  64                  0.00079     1.62606   
  1643. RY*(   2) H  64                  0.00032     2.21630   
  1644. RY*(   3) H  64                  0.00024     2.34000   
  1645. RY*(   4) H  64                  0.00007     1.26559   
  1646. RY*(   5) H  64                  0.00002     3.15495   
       -------------------------------
              Total Lewis    0.00000  (  0.0000%)
        Valence non-Lewis    0.58727  ( 99.7558%)
        Rydberg non-Lewis    0.00144  (  0.2442%)
       -------------------------------
            Total unit  3    0.58871  (100.0000%)
           Charge unit  3    0.41129
 1\1\GINC-NODE365\SP\RPBE1PBE\def2TZVP\C41H50Fe1N6O4S1\KLEICH\19-Sep-20
 22\0\\# PBE1PBE/def2TZVP empiricaldispersion=GD3BJ int=(grid=ultrafine
 ) geom=check guess=read pop=nbo\\451c_II_S_nbo\\0,1\C,0,10.502,-8.068,
 15.869\C,0,10.644,-9.486,16.397\N,0,11.619,-10.33,15.982\C,0,9.793,-10
 .187,17.233\C,0,11.389,-11.544,16.547\N,0,10.269,-11.46,17.324\C,0,9.8
 95,-15.821,21.142\C,0,8.597,-15.027,20.951\S,0,8.145,-14.71,19.221\C,0
 ,8.329,-16.29,18.364\C,0,11.705,-15.239,17.133\C,0,7.601,-13.454,15.35
 2\C,0,6.884,-11.032,19.466\C,0,11.276,-12.321,20.96\C,0,10.634,-14.991
 ,16.299\C,0,10.451,-15.547,15.05\C,0,9.297,-14.993,14.516\C,0,8.779,-1
 4.157,15.475\C,0,8.679,-15.258,13.158\C,0,11.329,-16.591,14.424\C,0,10
 .903,-17.937,14.962\C,0,11.76,-19.039,14.369\O,0,12.509,-18.781,13.431
 \O,0,11.265,-20.229,14.446\C,0,7.048,-12.619,16.3\C,0,5.816,-11.979,16
 .18\C,0,5.558,-11.35,17.403\C,0,6.695,-11.546,18.199\C,0,4.912,-12.026
 ,14.967\C,0,4.299,-10.621,17.829\C,0,3.091,-11.541,17.981\C,0,8.016,-1
 1.19,20.251\C,0,8.243,-10.559,21.468\C,0,9.57,-10.805,21.808\C,0,10.04
 4,-11.718,20.897\C,0,7.266,-9.649,22.19\C,0,10.391,-10.166,22.92\C,0,9
 .85,-10.474,24.312\C,0,11.754,-13.25,20.069\C,0,12.959,-13.93,20.212\C
 ,0,13.04,-14.833,19.16\C,0,11.929,-14.616,18.347\C,0,13.966,-13.748,21
 .33\C,0,14.127,-15.851,18.915\C,0,13.727,-17.251,19.352\C,0,14.825,-18
 .245,18.978\O,0,14.505,-19.418,18.767\O,0,16.095,-17.97,19.199\N,0,9.6
 1,-14.148,16.551\N,0,7.581,-12.332,17.521\N,0,9.124,-11.898,19.917\N,0
 ,11.12,-13.676,18.928\Fe,0,9.397,-12.981,18.23\H,0,10.46839937,-7.3832
 1688,16.69048833\H,0,11.33864153,-7.83463157,15.24412391\H,0,9.5989828
 2,-7.98779688,15.30064498\H,0,8.9214689,-9.80030703,17.71859457\H,0,11
 .98631983,-12.42056673,16.40650162\H,0,9.93600409,-16.20256592,22.1408
 1235\H,0,9.92062521,-16.63493896,20.44792023\H,0,10.7340315,-15.179497
 18,20.97053491\H,0,8.78164574,-14.06499607,21.38152804\H,0,7.81889627,
 -15.64813452,21.34297768\H,0,8.16163485,-16.56876805,17.34459955\H,0,7
 .26503222,-16.18494868,18.32114241\H,0,9.11663949,-15.73815759,17.8949
 6483\H,0,12.41809298,-15.97079501,16.8153926\H,0,7.06380432,-13.566441
 86,14.43348074\H,0,6.082081,-10.45802045,19.88117875\H,0,11.91684591,-
 12.04392441,21.77083021\H,0,8.01519655,-14.45755894,12.90589072\H,0,8.
 13331632,-16.17791224,13.18784625\H,0,9.45211529,-15.3256462,12.421374
 77\H,0,12.32555659,-16.41399773,14.77105211\H,0,11.11994637,-16.590587
 64,13.37462094\H,0,9.90576196,-18.10397519,14.61194919\H,0,11.10614254
 ,-17.9240994,16.01246022\H,0,4.00909843,-12.54388128,15.21492686\H,0,4
 .67779859,-11.02876108,14.65786535\H,0,5.41001715,-12.53858445,14.1706
 7337\H,0,4.06080585,-9.9526977,17.02804084\H,0,4.49931467,-10.23464658
 ,18.80649939\H,0,2.96060595,-11.79086025,19.01321473\H,0,2.21532461,-1
 1.04222675,17.62139208\H,0,3.25006128,-12.43498544,17.41497038\H,0,7.4
 7253986,-9.66521916,23.23975151\H,0,7.37008572,-8.64989614,21.82141128
 \H,0,6.26665029,-9.99039139,22.01780223\H,0,10.29013206,-9.10857362,22
 .79125564\H,0,11.35824964,-10.62097146,22.87173917\H,0,10.66240104,-10
 .52973498,25.00611682\H,0,9.17663336,-9.69866705,24.61255978\H,0,9.331
 34476,-11.40972222,24.29409274\H,0,14.37868432,-14.69855006,21.596545\
 H,0,14.75007586,-13.09821715,21.00150755\H,0,13.48016448,-13.31874393,
 22.1812362\H,0,14.35511297,-15.86763035,17.8697307\H,0,12.86341159,-17
 .51692048,18.77893686\H,0,13.67629946,-17.23670871,20.42070258\H,0,13.
 46058197,-18.81464202,13.55331092\H,0,15.18347647,-20.08644009,18.6467
 6056\H,0,12.37438365,-10.10014482,15.3683534\H,0,15.00273251,-15.55772
 375,19.45535324\\Version=ES64L-G16RevA.03\State=1-A\HF=-3881.654174\RM
 SD=3.496e-09\Dipole=0.5623991,2.8356366,-1.1905623\Quadrupole=-1.70950
 46,-8.4647733,10.1742779,-2.2123005,-10.6823165,-9.760053\PG=C01 [X(C4
 1H50Fe1N6O4S1)]\\@


 There are more things in heaven and earth, Horatio,
 than are dreamt of in your philosophy.
                   -- Hamlet, Act I, Scene 5
 Job cpu time:       0 days  4 hours 12 minutes 27.4 seconds.
 Elapsed time:       0 days  1 hours  3 minutes 24.2 seconds.
 File lengths (MBytes):  RWF=   1965 Int=      0 D2E=      0 Chk=    252 Scr=      1
 Normal termination of Gaussian 16 at Mon Sep 19 18:05:13 2022.
