 Entering Gaussian System, Link 0=g16
 Input=/net/work/kleich/bench/splitthejobs/451c/451c05/451c05.com
 Output=/net/work/kleich/bench/splitthejobs/451c/451c05/451c05.log
 Initial command:
 /afs/math/software/gaussian/g16.A03/g16/l1.exe "/scratch/kleich_gaussian.ug9ihvK/Gau-26107.inp" -scrdir="/scratch/kleich_gaussian.ug9ihvK/"
 Entering Link 1 = /afs/math/software/gaussian/g16.A03/g16/l1.exe PID=     26108.
  
 Copyright (c) 1988,1990,1992,1993,1995,1998,2003,2009,2016,
            Gaussian, Inc.  All Rights Reserved.
  
 This is part of the Gaussian(R) 16 program.  It is based on
 the Gaussian(R) 09 system (copyright 2009, Gaussian, Inc.),
 the Gaussian(R) 03 system (copyright 2003, Gaussian, Inc.),
 the Gaussian(R) 98 system (copyright 1998, Gaussian, Inc.),
 the Gaussian(R) 94 system (copyright 1995, Gaussian, Inc.),
 the Gaussian 92(TM) system (copyright 1992, Gaussian, Inc.),
 the Gaussian 90(TM) system (copyright 1990, Gaussian, Inc.),
 the Gaussian 88(TM) system (copyright 1988, Gaussian, Inc.),
 the Gaussian 86(TM) system (copyright 1986, Carnegie Mellon
 University), and the Gaussian 82(TM) system (copyright 1983,
 Carnegie Mellon University). Gaussian is a federally registered
 trademark of Gaussian, Inc.
  
 This software contains proprietary and confidential information,
 including trade secrets, belonging to Gaussian, Inc.
  
 This software is provided under written license and may be
 used, copied, transmitted, or stored only in accord with that
 written license.
  
 The following legend is applicable only to US Government
 contracts under FAR:
  
                    RESTRICTED RIGHTS LEGEND
  
 Use, reproduction and disclosure by the US Government is
 subject to restrictions as set forth in subparagraphs (a)
 and (c) of the Commercial Computer Software - Restricted
 Rights clause in FAR 52.227-19.
  
 Gaussian, Inc.
 340 Quinnipiac St., Bldg. 40, Wallingford CT 06492
  
  
 ---------------------------------------------------------------
 Warning -- This program may not be used in any manner that
 competes with the business of Gaussian, Inc. or will provide
 assistance to any competitor of Gaussian, Inc.  The licensee
 of this program is prohibited from giving any competitor of
 Gaussian, Inc. access to this program.  By using this program,
 the user acknowledges that Gaussian, Inc. is engaged in the
 business of creating and licensing software in the field of
 computational chemistry and represents and warrants to the
 licensee that it is not a competitor of Gaussian, Inc. and that
 it will not use this program in any manner prohibited above.
 ---------------------------------------------------------------
  

 Cite this work as:
 Gaussian 16, Revision A.03,
 M. J. Frisch, G. W. Trucks, H. B. Schlegel, G. E. Scuseria, 
 M. A. Robb, J. R. Cheeseman, G. Scalmani, V. Barone, 
 G. A. Petersson, H. Nakatsuji, X. Li, M. Caricato, A. V. Marenich, 
 J. Bloino, B. G. Janesko, R. Gomperts, B. Mennucci, H. P. Hratchian, 
 J. V. Ortiz, A. F. Izmaylov, J. L. Sonnenberg, D. Williams-Young, 
 F. Ding, F. Lipparini, F. Egidi, J. Goings, B. Peng, A. Petrone, 
 T. Henderson, D. Ranasinghe, V. G. Zakrzewski, J. Gao, N. Rega, 
 G. Zheng, W. Liang, M. Hada, M. Ehara, K. Toyota, R. Fukuda, 
 J. Hasegawa, M. Ishida, T. Nakajima, Y. Honda, O. Kitao, H. Nakai, 
 T. Vreven, K. Throssell, J. A. Montgomery, Jr., J. E. Peralta, 
 F. Ogliaro, M. J. Bearpark, J. J. Heyd, E. N. Brothers, K. N. Kudin, 
 V. N. Staroverov, T. A. Keith, R. Kobayashi, J. Normand, 
 K. Raghavachari, A. P. Rendell, J. C. Burant, S. S. Iyengar, 
 J. Tomasi, M. Cossi, J. M. Millam, M. Klene, C. Adamo, R. Cammi, 
 J. W. Ochterski, R. L. Martin, K. Morokuma, O. Farkas, 
 J. B. Foresman, and D. J. Fox, Gaussian, Inc., Wallingford CT, 2016.
 
 ******************************************
 Gaussian 16:  ES64L-G16RevA.03 25-Dec-2016
                19-Sep-2022 
 ******************************************
 %nprocs=12
 Will use up to   12 processors via shared memory.
 %mem=16GB
 %oldchk=451c_II_S.chk
 %chk=451c_II_Q.chk
 Copying data from "451c_II_S.chk" to current chk file "451c_II_Q.chk"
 IOpt=  2 FromEx=T IUOpen= 4 IOptOp= 5 NList=   0 IFRang= 0 IUIn= 4 IUOut= 2.
 ----------------------------------------------------------------------
 # PBE1PBE/def2TZVP empiricaldispersion=GD3BJ int=(grid=ultrafine) geom
 =check pop=nbo
 ----------------------------------------------------------------------
 1/29=2,38=1,172=1/1;
 2/12=2,40=1/2;
 3/5=44,7=101,11=2,14=-4,25=1,30=1,74=-13,75=-5,124=41/1,2,3;
 4//1;
 5/5=2,38=5/2;
 6/7=2,8=2,9=2,10=2,28=1,40=1/1,7;
 99/5=1,9=1/99;
 ---------
 451c_II_Q
 ---------
 Structure from the checkpoint file:  "451c_II_Q.chk"
 Charge =  0 Multiplicity = 5
 Z-Matrix found in chk file.
 C,0,10.502,-8.068,15.869
 C,0,10.644,-9.486,16.397
 N,0,11.619,-10.33,15.982
 C,0,9.793,-10.187,17.233
 C,0,11.389,-11.544,16.547
 N,0,10.269,-11.46,17.324
 C,0,9.895,-15.821,21.142
 C,0,8.597,-15.027,20.951
 S,0,8.145,-14.71,19.221
 C,0,8.329,-16.29,18.364
 C,0,11.705,-15.239,17.133
 C,0,7.601,-13.454,15.352
 C,0,6.884,-11.032,19.466
 C,0,11.276,-12.321,20.96
 C,0,10.634,-14.991,16.299
 C,0,10.451,-15.547,15.05
 C,0,9.297,-14.993,14.516
 C,0,8.779,-14.157,15.475
 C,0,8.679,-15.258,13.158
 C,0,11.329,-16.591,14.424
 C,0,10.903,-17.937,14.962
 C,0,11.76,-19.039,14.369
 O,0,12.509,-18.781,13.431
 O,0,11.265,-20.229,14.446
 C,0,7.048,-12.619,16.3
 C,0,5.816,-11.979,16.18
 C,0,5.558,-11.35,17.403
 C,0,6.695,-11.546,18.199
 C,0,4.912,-12.026,14.967
 C,0,4.299,-10.621,17.829
 C,0,3.091,-11.541,17.981
 C,0,8.016,-11.19,20.251
 C,0,8.243,-10.559,21.468
 C,0,9.57,-10.805,21.808
 C,0,10.044,-11.718,20.897
 C,0,7.266,-9.649,22.19
 C,0,10.391,-10.166,22.92
 C,0,9.85,-10.474,24.312
 C,0,11.754,-13.25,20.069
 C,0,12.959,-13.93,20.212
 C,0,13.04,-14.833,19.16
 C,0,11.929,-14.616,18.347
 C,0,13.966,-13.748,21.33
 C,0,14.127,-15.851,18.915
 C,0,13.727,-17.251,19.352
 C,0,14.825,-18.245,18.978
 O,0,14.505,-19.418,18.767
 O,0,16.095,-17.97,19.199
 N,0,9.61,-14.148,16.551
 N,0,7.581,-12.332,17.521
 N,0,9.124,-11.898,19.917
 N,0,11.12,-13.676,18.928
 Fe,0,9.397,-12.981,18.23
 H,0,10.46839937,-7.38321688,16.69048833
 H,0,11.33864153,-7.83463157,15.24412391
 H,0,9.59898282,-7.98779688,15.30064498
 H,0,8.9214689,-9.80030703,17.71859457
 H,0,11.98631983,-12.42056673,16.40650162
 H,0,9.93600409,-16.20256592,22.14081235
 H,0,9.92062521,-16.63493896,20.44792023
 H,0,10.7340315,-15.17949718,20.97053491
 H,0,8.78164574,-14.06499607,21.38152804
 H,0,7.81889627,-15.64813452,21.34297768
 H,0,8.16163485,-16.56876805,17.34459955
 H,0,7.26503222,-16.18494868,18.32114241
 H,0,9.11663949,-15.73815759,17.89496483
 H,0,12.41809298,-15.97079501,16.8153926
 H,0,7.06380432,-13.56644186,14.43348074
 H,0,6.082081,-10.45802045,19.88117875
 H,0,11.91684591,-12.04392441,21.77083021
 H,0,8.01519655,-14.45755894,12.90589072
 H,0,8.13331632,-16.17791224,13.18784625
 H,0,9.45211529,-15.3256462,12.42137477
 H,0,12.32555659,-16.41399773,14.77105211
 H,0,11.11994637,-16.59058764,13.37462094
 H,0,9.90576196,-18.10397519,14.61194919
 H,0,11.10614254,-17.9240994,16.01246022
 H,0,4.00909843,-12.54388128,15.21492686
 H,0,4.67779859,-11.02876108,14.65786535
 H,0,5.41001715,-12.53858445,14.17067337
 H,0,4.06080585,-9.9526977,17.02804084
 H,0,4.49931467,-10.23464658,18.80649939
 H,0,2.96060595,-11.79086025,19.01321473
 H,0,2.21532461,-11.04222675,17.62139208
 H,0,3.25006128,-12.43498544,17.41497038
 H,0,7.47253986,-9.66521916,23.23975151
 H,0,7.37008572,-8.64989614,21.82141128
 H,0,6.26665029,-9.99039139,22.01780223
 H,0,10.29013206,-9.10857362,22.79125564
 H,0,11.35824964,-10.62097146,22.87173917
 H,0,10.66240104,-10.52973498,25.00611682
 H,0,9.17663336,-9.69866705,24.61255978
 H,0,9.33134476,-11.40972222,24.29409274
 H,0,14.37868432,-14.69855006,21.596545
 H,0,14.75007586,-13.09821715,21.00150755
 H,0,13.48016448,-13.31874393,22.1812362
 H,0,14.35511297,-15.86763035,17.8697307
 H,0,12.86341159,-17.51692048,18.77893686
 H,0,13.67629946,-17.23670871,20.42070258
 H,0,13.46058197,-18.81464202,13.55331092
 H,0,15.18347647,-20.08644009,18.64676056
 H,0,12.37438365,-10.10014482,15.3683534
 H,0,15.00273251,-15.55772375,19.45535324
 Recover connectivity data from disk.
 Stoichiometry    C41H50FeN6O4S(5)
 Framework group  C1[X(C41H50FeN6O4S)]
 Deg. of freedom   303
 Full point group                 C1      NOp   1
 Largest Abelian subgroup         C1      NOp   1
 Largest concise Abelian subgroup C1      NOp   1
                         Standard orientation:                         
 ---------------------------------------------------------------------
 Center     Atomic      Atomic             Coordinates (Angstroms)
 Number     Number       Type             X           Y           Z
 ---------------------------------------------------------------------
      1          6           0        3.279414   -0.858909    5.033445
      2          6           0        2.263317   -0.513617    3.957345
      3          7           0        0.931154   -0.455993    4.196525
      4          6           0        2.466145   -0.341152    2.599547
      5          6           0        0.302271   -0.249437    3.010033
      6          7           0        1.243531   -0.171292    2.023571
      7          6           0       -0.815655    2.314888   -2.804885
      8          6           0        0.513037    1.571128   -2.986873
      9         16           0        0.567587   -0.084816   -2.243525
     10          6           0       -0.961251   -0.904624   -2.748773
     11          6           0       -2.521303   -0.043649    0.543992
     12          6           0        0.821877   -3.476345    0.053321
     13          6           0        4.165297   -0.087634   -0.748767
     14          6           0        0.947664    3.315032    0.370128
     15          6           0       -1.910592   -1.277372    0.448798
     16          6           0       -2.549586   -2.494156    0.566059
     17          6           0       -1.578979   -3.480980    0.477237
     18          6           0       -0.383977   -2.841611    0.253451
     19          6           0       -1.765758   -4.981878    0.570674
     20          6           0       -4.030032   -2.689748    0.716789
     21          6           0       -4.647874   -2.624878   -0.660418
     22          6           0       -6.150766   -2.810787   -0.575235
     23          8           0       -6.653495   -3.177065    0.483308
     24          8           0       -6.731009   -3.151437   -1.677202
     25          6           0        2.034253   -2.864713   -0.187073
     26          6           0        3.225804   -3.532955   -0.461812
     27          6           0        4.178005   -2.560248   -0.785988
     28          6           0        3.556855   -1.317575   -0.599608
     29          6           0        3.413613   -5.034779   -0.468515
     30          6           0        5.596933   -2.771567   -1.275871
     31          6           0        5.668621   -3.389542   -2.669332
     32          6           0        3.572926    1.147815   -0.535748
     33          6           0        4.233638    2.369899   -0.563091
     34          6           0        3.340337    3.321715   -0.080280
     35          6           0        2.126328    2.690284    0.044791
     36          6           0        5.697770    2.578058   -0.904999
     37          6           0        3.622486    4.767608    0.305323
     38          6           0        4.082238    5.619372   -0.872953
     39          6           0       -0.275548    2.700588    0.477915
     40          6           0       -1.474995    3.369151    0.699780
     41          6           0       -2.482507    2.414148    0.660263
     42          6           0       -1.865616    1.173353    0.511090
     43          6           0       -1.647875    4.861472    0.900252
     44          6           0       -3.968433    2.652376    0.775108
     45          6           0       -4.669282    2.639124   -0.573818
     46          6           0       -6.177727    2.777348   -0.376329
     47          8           0       -6.926245    2.287789   -1.226566
     48          8           0       -6.675016    3.662972    0.463755
     49          7           0       -0.592729   -1.498170    0.255888
     50          7           0        2.252575   -1.521120   -0.253342
     51          7           0        2.284836    1.360106   -0.166639
     52          7           0       -0.516975    1.354414    0.356085
     53         26           0        0.858666   -0.051523    0.091682
     54          1           0        4.032987   -0.100123    5.069080
     55          1           0        2.788017   -0.918391    5.982071
     56          1           0        3.732629   -1.801320    4.806822
     57          1           0        3.409672   -0.341204    2.094911
     58          1           0       -0.755142   -0.162415    2.871454
     59          1           0       -0.864810    3.131286   -3.494796
     60          1           0       -1.628297    1.643438   -2.988374
     61          1           0       -0.880934    2.688887   -1.804503
     62          1           0        1.241560    2.148850   -2.457355
     63          1           0        0.615232    1.417401   -4.040830
     64          1           0       -1.339888   -1.885677   -2.551115
     65          1           0       -0.253990   -1.485470   -3.303119
     66          1           0       -1.141785   -0.819347   -1.697566
     67          1           0       -3.585742   -0.027435    0.651719
     68          1           0        0.817569   -4.545786    0.087636
     69          1           0        5.189753   -0.087549   -1.057620
     70          1           0        0.985525    4.368254    0.555030
     71          1           0       -0.829382   -5.443964    0.804292
     72          1           0       -2.124175   -5.355668   -0.365658
     73          1           0       -2.475601   -5.205791    1.339365
     74          1           0       -4.403726   -1.853238    1.269511
     75          1           0       -4.180857   -3.683636    1.083311
     76          1           0       -4.266994   -3.463041   -1.205682
     77          1           0       -4.483166   -1.631542   -1.022434
     78          1           0        3.630719   -5.362636   -1.463641
     79          1           0        4.225324   -5.295606    0.178010
     80          1           0        2.517569   -5.507816   -0.124654
     81          1           0        6.033121   -3.489363   -0.612992
     82          1           0        6.025906   -1.795348   -1.364629
     83          1           0        5.830646   -2.618653   -3.393471
     84          1           0        6.476313   -4.090306   -2.707602
     85          1           0        4.749171   -3.892971   -2.883972
     86          1           0        5.838276    3.569001   -1.283402
     87          1           0        6.291947    2.444651   -0.025194
     88          1           0        5.995208    1.867259   -1.647424
     89          1           0        4.447073    4.736077    0.986470
     90          1           0        2.685259    5.178009    0.618495
     91          1           0        3.735100    6.623282   -0.744265
     92          1           0        5.151166    5.614958   -0.920638
     93          1           0        3.683057    5.217562   -1.780754
     94          1           0       -2.542829    5.185681    0.411534
     95          1           0       -1.715297    5.075349    1.946488
     96          1           0       -0.807548    5.376937    0.484263
     97          1           0       -4.393709    1.888978    1.392574
     98          1           0       -4.502184    1.670912   -0.997544
     99          1           0       -4.346190    3.514965   -1.096709
    100          1           0       -7.218388   -2.579392    0.978567
    101          1           0       -7.870027    2.459973   -1.191511
    102          1           0        0.488891   -0.549029    5.088572
    103          1           0       -4.130811    3.602745    1.239147
 ---------------------------------------------------------------------
 Rotational constants (GHZ):           0.0678581           0.0440914           0.0339213
 Standard basis: def2TZVP (5D, 7F)
 There are  2230 symmetry adapted cartesian basis functions of A   symmetry.
 There are  1963 symmetry adapted basis functions of A   symmetry.
  1963 basis functions,  3172 primitive gaussians,  2230 cartesian basis functions
   208 alpha electrons      204 beta electrons
       nuclear repulsion energy      9097.1378532609 Hartrees.
 NAtoms=  103 NActive=  103 NUniq=  103 SFac= 1.00D+00 NAtFMM=   60 NAOKFM=T Big=T
 Integral buffers will be    131072 words long.
 Raffenetti 2 integral format.
 Two-electron integral symmetry is turned on.
 Nuclear repulsion after empirical dispersion term =     9096.9836719200 Hartrees.
 One-electron integrals computed using PRISM.
   1 Symmetry operations used in ECPInt.
 ECPInt:  NShTT=  311655 NPrTT=  958403 LenC2=  229438 LenP2D=  457812.
 LDataN:  DoStor=T MaxTD1= 6 Len=  172
 NBasis=  1963 RedAO= T EigKep=  2.24D-06  NBF=  1963
 NBsUse=  1963 1.00D-06 EigRej= -1.00D+00 NBFU=  1963
 ExpMin= 4.20D-02 ExpMax= 3.01D+05 ExpMxC= 2.91D+03 IAcc=3 IRadAn=         5 AccDes= 0.00D+00
 Harris functional with IExCor= 1009 and IRadAn=       5 diagonalized for initial guess.
 HarFok:  IExCor= 1009 AccDes= 0.00D+00 IRadAn=         5 IDoV= 1 UseB2=F ITyADJ=14
 ICtDFT=  3500011 ScaDFX=  1.000000  1.000000  1.000000  1.000000
 FoFCou: FMM=F IPFlag=           0 FMFlag=      100000 FMFlg1=        2001
         NFxFlg=           0 DoJE=T BraDBF=F KetDBF=T FulRan=T
         wScrn=  0.000000 ICntrl=       500 IOpCl=  0 I1Cent=   200000004 NGrid=           0
         NMat0=    1 NMatS0=      1 NMatT0=    0 NMatD0=    1 NMtDS0=    0 NMtDT0=    0
 Petite list used in FoFCou.
 Initial guess <Sx>= 0.0000 <Sy>= 0.0000 <Sz>= 2.0000 <S**2>= 6.0000 S= 2.0000
 Requested convergence on RMS density matrix=1.00D-08 within 128 cycles.
 Requested convergence on MAX density matrix=1.00D-06.
 Requested convergence on             energy=1.00D-06.
 No special actions if energy rises.
 EnCoef did    10 forward-backward iterations
 EnCoef did   100 forward-backward iterations
 EnCoef did     7 forward-backward iterations
 EnCoef did     8 forward-backward iterations
 EnCoef did     7 forward-backward iterations
 EnCoef did     7 forward-backward iterations
 EnCoef did     3 forward-backward iterations
 Restarting incremental Fock formation.
 Restarting incremental Fock formation.
 Restarting incremental Fock formation.
 SCF Done:  E(UPBE1PBE) =  -3881.63189075     A.U. after   68 cycles
            NFock= 68  Conv=0.23D-08     -V/T= 2.0025
 <Sx>= 0.0000 <Sy>= 0.0000 <Sz>= 2.0000 <S**2>= 6.2246 S= 2.0445
 <L.S>= 0.000000000000E+00
 Annihilation of the first spin contaminant:
 S**2 before annihilation     6.2246,   after     6.0021
 Hyperfine terms turned off by default for NAtoms > 100.

 **********************************************************************

            Population analysis using the SCF density.

 **********************************************************************

 Orbital symmetries:
 Alpha Orbitals:
       Occupied  (A) (A) (A) (A) (A) (A) (A) (A) (A) (A) (A) (A)
                 (A) (A) (A) (A) (A) (A) (A) (A) (A) (A) (A) (A)
                 (A) (A) (A) (A) (A) (A) (A) (A) (A) (A) (A) (A)
                 (A) (A) (A) (A) (A) (A) (A) (A) (A) (A) (A) (A)
                 (A) (A) (A) (A) (A) (A) (A) (A) (A) (A) (A) (A)
                 (A) (A) (A) (A) (A) (A) (A) (A) (A) (A) (A) (A)
                 (A) (A) (A) (A) (A) (A) (A) (A) (A) (A) (A) (A)
                 (A) (A) (A) (A) (A) (A) (A) (A) (A) (A) (A) (A)
                 (A) (A) (A) (A) (A) (A) (A) (A) (A) (A) (A) (A)
                 (A) (A) (A) (A) (A) (A) (A) (A) (A) (A) (A) (A)
                 (A) (A) (A) (A) (A) (A) (A) (A) (A) (A) (A) (A)
                 (A) (A) (A) (A) (A) (A) (A) (A) (A) (A) (A) (A)
                 (A) (A) (A) (A) (A) (A) (A) (A) (A) (A) (A) (A)
                 (A) (A) (A) (A) (A) (A) (A) (A) (A) (A) (A) (A)
                 (A) (A) (A) (A) (A) (A) (A) (A) (A) (A) (A) (A)
                 (A) (A) (A) (A) (A) (A) (A) (A) (A) (A) (A) (A)
                 (A) (A) (A) (A) (A) (A) (A) (A) (A) (A) (A) (A)
                 (A) (A) (A) (A)
       Virtual   (A) (A) (A) (A) (A) (A) (A) (A) (A) (A) (A) (A)
                 (A) (A) (A) (A) (A) (A) (A) (A) (A) (A) (A) (A)
                 (A) (A) (A) (A) (A) (A) (A) (A) (A) (A) (A) (A)
                 (A) (A) (A) (A) (A) (A) (A) (A) (A) (A) (A) (A)
                 (A) (A) (A) (A) (A) (A) (A) (A) (A) (A) (A) (A)
                 (A) (A) (A) (A) (A) (A) (A) (A) (A) (A) (A) (A)
                 (A) (A) (A) (A) (A) (A) (A) (A) (A) (A) (A) (A)
                 (A) (A) (A) (A) (A) (A) (A) (A) (A) (A) (A) (A)
                 (A) (A) (A) (A) (A) (A) (A) (A) (A) (A) (A) (A)
                 (A) (A) (A) (A) (A) (A) (A) (A) (A) (A) (A) (A)
                 (A) (A) (A) (A) (A) (A) (A) (A) (A) (A) (A) (A)
                 (A) (A) (A) (A) (A) (A) (A) (A) (A) (A) (A) (A)
                 (A) (A) (A) (A) (A) (A) (A) (A) (A) (A) (A) (A)
                 (A) (A) (A) (A) (A) (A) (A) (A) (A) (A) (A) (A)
                 (A) (A) (A) (A) (A) (A) (A) (A) (A) (A) (A) (A)
                 (A) (A) (A) (A) (A) (A) (A) (A) (A) (A) (A) (A)
                 (A) (A) (A) (A) (A) (A) (A) (A) (A) (A) (A) (A)
                 (A) (A) (A) (A) (A) (A) (A) (A) (A) (A) (A) (A)
                 (A) (A) (A) (A) (A) (A) (A) (A) (A) (A) (A) (A)
                 (A) (A) (A) (A) (A) (A) (A) (A) (A) (A) (A) (A)
                 (A) (A) (A) (A) (A) (A) (A) (A) (A) (A) (A) (A)
                 (A) (A) (A) (A) (A) (A) (A) (A) (A) (A) (A) (A)
                 (A) (A) (A) (A) (A) (A) (A) (A) (A) (A) (A) (A)
                 (A) (A) (A) (A) (A) (A) (A) (A) (A) (A) (A) (A)
                 (A) (A) (A) (A) (A) (A) (A) (A) (A) (A) (A) (A)
                 (A) (A) (A) (A) (A) (A) (A) (A) (A) (A) (A) (A)
                 (A) (A) (A) (A) (A) (A) (A) (A) (A) (A) (A) (A)
                 (A) (A) (A) (A) (A) (A) (A) (A) (A) (A) (A) (A)
                 (A) (A) (A) (A) (A) (A) (A) (A) (A) (A) (A) (A)
                 (A) (A) (A) (A) (A) (A) (A) (A) (A) (A) (A) (A)
                 (A) (A) (A) (A) (A) (A) (A) (A) (A) (A) (A) (A)
                 (A) (A) (A) (A) (A) (A) (A) (A) (A) (A) (A) (A)
                 (A) (A) (A) (A) (A) (A) (A) (A) (A) (A) (A) (A)
                 (A) (A) (A) (A) (A) (A) (A) (A) (A) (A) (A) (A)
                 (A) (A) (A) (A) (A) (A) (A) (A) (A) (A) (A) (A)
                 (A) (A) (A) (A) (A) (A) (A) (A) (A) (A) (A) (A)
                 (A) (A) (A) (A) (A) (A) (A) (A) (A) (A) (A) (A)
                 (A) (A) (A) (A) (A) (A) (A) (A) (A) (A) (A) (A)
                 (A) (A) (A) (A) (A) (A) (A) (A) (A) (A) (A) (A)
                 (A) (A) (A) (A) (A) (A) (A) (A) (A) (A) (A) (A)
                 (A) (A) (A) (A) (A) (A) (A) (A) (A) (A) (A) (A)
                 (A) (A) (A) (A) (A) (A) (A) (A) (A) (A) (A) (A)
                 (A) (A) (A) (A) (A) (A) (A) (A) (A) (A) (A) (A)
                 (A) (A) (A) (A) (A) (A) (A) (A) (A) (A) (A) (A)
                 (A) (A) (A) (A) (A) (A) (A) (A) (A) (A) (A) (A)
                 (A) (A) (A) (A) (A) (A) (A) (A) (A) (A) (A) (A)
                 (A) (A) (A) (A) (A) (A) (A) (A) (A) (A) (A) (A)
                 (A) (A) (A) (A) (A) (A) (A) (A) (A) (A) (A) (A)
                 (A) (A) (A) (A) (A) (A) (A) (A) (A) (A) (A) (A)
                 (A) (A) (A) (A) (A) (A) (A) (A) (A) (A) (A) (A)
                 (A) (A) (A) (A) (A) (A) (A) (A) (A) (A) (A) (A)
                 (A) (A) (A) (A) (A) (A) (A) (A) (A) (A) (A) (A)
                 (A) (A) (A) (A) (A) (A) (A) (A) (A) (A) (A) (A)
                 (A) (A) (A) (A) (A) (A) (A) (A) (A) (A) (A) (A)
                 (A) (A) (A) (A) (A) (A) (A) (A) (A) (A) (A) (A)
                 (A) (A) (A) (A) (A) (A) (A) (A) (A) (A) (A) (A)
                 (A) (A) (A) (A) (A) (A) (A) (A) (A) (A) (A) (A)
                 (A) (A) (A) (A) (A) (A) (A) (A) (A) (A) (A) (A)
                 (A) (A) (A) (A) (A) (A) (A) (A) (A) (A) (A) (A)
                 (A) (A) (A) (A) (A) (A) (A) (A) (A) (A) (A) (A)
                 (A) (A) (A) (A) (A) (A) (A) (A) (A) (A) (A) (A)
                 (A) (A) (A) (A) (A) (A) (A) (A) (A) (A) (A) (A)
                 (A) (A) (A) (A) (A) (A) (A) (A) (A) (A) (A) (A)
                 (A) (A) (A) (A) (A) (A) (A) (A) (A) (A) (A) (A)
                 (A) (A) (A) (A) (A) (A) (A) (A) (A) (A) (A) (A)
                 (A) (A) (A) (A) (A) (A) (A) (A) (A) (A) (A) (A)
                 (A) (A) (A) (A) (A) (A) (A) (A) (A) (A) (A) (A)
                 (A) (A) (A) (A) (A) (A) (A) (A) (A) (A) (A) (A)
                 (A) (A) (A) (A) (A) (A) (A) (A) (A) (A) (A) (A)
                 (A) (A) (A) (A) (A) (A) (A) (A) (A) (A) (A) (A)
                 (A) (A) (A) (A) (A) (A) (A) (A) (A) (A) (A) (A)
                 (A) (A) (A) (A) (A) (A) (A) (A) (A) (A) (A) (A)
                 (A) (A) (A) (A) (A) (A) (A) (A) (A) (A) (A) (A)
                 (A) (A) (A) (A) (A) (A) (A) (A) (A) (A) (A) (A)
                 (A) (A) (A) (A) (A) (A) (A) (A) (A) (A) (A) (A)
                 (A) (A) (A) (A) (A) (A) (A) (A) (A) (A) (A) (A)
                 (A) (A) (A) (A) (A) (A) (A) (A) (A) (A) (A) (A)
                 (A) (A) (A) (A) (A) (A) (A) (A) (A) (A) (A) (A)
                 (A) (A) (A) (A) (A) (A) (A) (A) (A) (A) (A) (A)
                 (A) (A) (A) (A) (A) (A) (A) (A) (A) (A) (A) (A)
                 (A) (A) (A) (A) (A) (A) (A) (A) (A) (A) (A) (A)
                 (A) (A) (A) (A) (A) (A) (A) (A) (A) (A) (A) (A)
                 (A) (A) (A) (A) (A) (A) (A) (A) (A) (A) (A) (A)
                 (A) (A) (A) (A) (A) (A) (A) (A) (A) (A) (A) (A)
                 (A) (A) (A) (A) (A) (A) (A) (A) (A) (A) (A) (A)
                 (A) (A) (A) (A) (A) (A) (A) (A) (A) (A) (A) (A)
                 (A) (A) (A) (A) (A) (A) (A) (A) (A) (A) (A) (A)
                 (A) (A) (A) (A) (A) (A) (A) (A) (A) (A) (A) (A)
                 (A) (A) (A) (A) (A) (A) (A) (A) (A) (A) (A) (A)
                 (A) (A) (A) (A) (A) (A) (A) (A) (A) (A) (A) (A)
                 (A) (A) (A) (A) (A) (A) (A) (A) (A) (A) (A) (A)
                 (A) (A) (A) (A) (A) (A) (A) (A) (A) (A) (A) (A)
                 (A) (A) (A) (A) (A) (A) (A) (A) (A) (A) (A) (A)
                 (A) (A) (A) (A) (A) (A) (A) (A) (A) (A) (A) (A)
                 (A) (A) (A) (A) (A) (A) (A) (A) (A) (A) (A) (A)
                 (A) (A) (A) (A) (A) (A) (A) (A) (A) (A) (A) (A)
                 (A) (A) (A) (A) (A) (A) (A) (A) (A) (A) (A) (A)
                 (A) (A) (A) (A) (A) (A) (A) (A) (A) (A) (A) (A)
                 (A) (A) (A) (A) (A) (A) (A) (A) (A) (A) (A) (A)
                 (A) (A) (A) (A) (A) (A) (A) (A) (A) (A) (A) (A)
                 (A) (A) (A) (A) (A) (A) (A) (A) (A) (A) (A) (A)
                 (A) (A) (A) (A) (A) (A) (A) (A) (A) (A) (A) (A)
                 (A) (A) (A) (A) (A) (A) (A) (A) (A) (A) (A) (A)
                 (A) (A) (A) (A) (A) (A) (A) (A) (A) (A) (A) (A)
                 (A) (A) (A) (A) (A) (A) (A) (A) (A) (A) (A) (A)
                 (A) (A) (A) (A) (A) (A) (A) (A) (A) (A) (A) (A)
                 (A) (A) (A) (A) (A) (A) (A) (A) (A) (A) (A) (A)
                 (A) (A) (A) (A) (A) (A) (A) (A) (A) (A) (A) (A)
                 (A) (A) (A) (A) (A) (A) (A) (A) (A) (A) (A) (A)
                 (A) (A) (A) (A) (A) (A) (A) (A) (A) (A) (A) (A)
                 (A) (A) (A) (A) (A) (A) (A) (A) (A) (A) (A) (A)
                 (A) (A) (A) (A) (A) (A) (A) (A) (A) (A) (A) (A)
                 (A) (A) (A) (A) (A) (A) (A) (A) (A) (A) (A) (A)
                 (A) (A) (A) (A) (A) (A) (A) (A) (A) (A) (A) (A)
                 (A) (A) (A) (A) (A) (A) (A) (A) (A) (A) (A) (A)
                 (A) (A) (A) (A) (A) (A) (A) (A) (A) (A) (A) (A)
                 (A) (A) (A) (A) (A) (A) (A) (A) (A) (A) (A) (A)
                 (A) (A) (A) (A) (A) (A) (A) (A) (A) (A) (A) (A)
                 (A) (A) (A) (A) (A) (A) (A) (A) (A) (A) (A) (A)
                 (A) (A) (A) (A) (A) (A) (A) (A) (A) (A) (A) (A)
                 (A) (A) (A) (A) (A) (A) (A) (A) (A) (A) (A) (A)
                 (A) (A) (A) (A) (A) (A) (A) (A) (A) (A) (A) (A)
                 (A) (A) (A) (A) (A) (A) (A) (A) (A) (A) (A) (A)
                 (A) (A) (A) (A) (A) (A) (A) (A) (A) (A) (A) (A)
                 (A) (A) (A) (A) (A) (A) (A) (A) (A) (A) (A) (A)
                 (A) (A) (A) (A) (A) (A) (A) (A) (A) (A) (A) (A)
                 (A) (A) (A) (A) (A) (A) (A) (A) (A) (A) (A) (A)
                 (A) (A) (A) (A) (A) (A) (A) (A) (A) (A) (A) (A)
                 (A) (A) (A) (A) (A) (A) (A) (A) (A) (A) (A) (A)
                 (A) (A) (A) (A) (A) (A) (A) (A) (A) (A) (A) (A)
                 (A) (A) (A) (A) (A) (A) (A) (A) (A) (A) (A) (A)
                 (A) (A) (A) (A) (A) (A) (A) (A) (A) (A) (A) (A)
                 (A) (A) (A) (A) (A) (A) (A) (A) (A) (A) (A) (A)
                 (A) (A) (A) (A) (A) (A) (A) (A) (A) (A) (A) (A)
                 (A) (A) (A) (A) (A) (A) (A) (A) (A) (A) (A) (A)
                 (A) (A) (A) (A) (A) (A) (A) (A) (A) (A) (A) (A)
                 (A) (A) (A) (A) (A) (A) (A) (A) (A) (A) (A) (A)
                 (A) (A) (A) (A) (A) (A) (A) (A) (A) (A) (A) (A)
                 (A) (A) (A) (A) (A) (A) (A) (A) (A) (A) (A) (A)
                 (A) (A) (A) (A) (A) (A) (A) (A) (A) (A) (A) (A)
                 (A) (A) (A) (A) (A) (A) (A) (A) (A) (A) (A) (A)
                 (A) (A) (A) (A) (A) (A) (A) (A) (A) (A) (A) (A)
                 (A) (A) (A) (A) (A) (A) (A) (A) (A) (A) (A) (A)
                 (A) (A) (A) (A) (A) (A) (A) (A) (A) (A) (A) (A)
                 (A) (A) (A) (A) (A) (A) (A) (A) (A) (A) (A) (A)
                 (A) (A) (A) (A) (A) (A) (A) (A) (A) (A) (A) (A)
                 (A) (A) (A)
 Beta  Orbitals:
       Occupied  (A) (A) (A) (A) (A) (A) (A) (A) (A) (A) (A) (A)
                 (A) (A) (A) (A) (A) (A) (A) (A) (A) (A) (A) (A)
                 (A) (A) (A) (A) (A) (A) (A) (A) (A) (A) (A) (A)
                 (A) (A) (A) (A) (A) (A) (A) (A) (A) (A) (A) (A)
                 (A) (A) (A) (A) (A) (A) (A) (A) (A) (A) (A) (A)
                 (A) (A) (A) (A) (A) (A) (A) (A) (A) (A) (A) (A)
                 (A) (A) (A) (A) (A) (A) (A) (A) (A) (A) (A) (A)
                 (A) (A) (A) (A) (A) (A) (A) (A) (A) (A) (A) (A)
                 (A) (A) (A) (A) (A) (A) (A) (A) (A) (A) (A) (A)
                 (A) (A) (A) (A) (A) (A) (A) (A) (A) (A) (A) (A)
                 (A) (A) (A) (A) (A) (A) (A) (A) (A) (A) (A) (A)
                 (A) (A) (A) (A) (A) (A) (A) (A) (A) (A) (A) (A)
                 (A) (A) (A) (A) (A) (A) (A) (A) (A) (A) (A) (A)
                 (A) (A) (A) (A) (A) (A) (A) (A) (A) (A) (A) (A)
                 (A) (A) (A) (A) (A) (A) (A) (A) (A) (A) (A) (A)
                 (A) (A) (A) (A) (A) (A) (A) (A) (A) (A) (A) (A)
                 (A) (A) (A) (A) (A) (A) (A) (A) (A) (A) (A) (A)
       Virtual   (A) (A) (A) (A) (A) (A) (A) (A) (A) (A) (A) (A)
                 (A) (A) (A) (A) (A) (A) (A) (A) (A) (A) (A) (A)
                 (A) (A) (A) (A) (A) (A) (A) (A) (A) (A) (A) (A)
                 (A) (A) (A) (A) (A) (A) (A) (A) (A) (A) (A) (A)
                 (A) (A) (A) (A) (A) (A) (A) (A) (A) (A) (A) (A)
                 (A) (A) (A) (A) (A) (A) (A) (A) (A) (A) (A) (A)
                 (A) (A) (A) (A) (A) (A) (A) (A) (A) (A) (A) (A)
                 (A) (A) (A) (A) (A) (A) (A) (A) (A) (A) (A) (A)
                 (A) (A) (A) (A) (A) (A) (A) (A) (A) (A) (A) (A)
                 (A) (A) (A) (A) (A) (A) (A) (A) (A) (A) (A) (A)
                 (A) (A) (A) (A) (A) (A) (A) (A) (A) (A) (A) (A)
                 (A) (A) (A) (A) (A) (A) (A) (A) (A) (A) (A) (A)
                 (A) (A) (A) (A) (A) (A) (A) (A) (A) (A) (A) (A)
                 (A) (A) (A) (A) (A) (A) (A) (A) (A) (A) (A) (A)
                 (A) (A) (A) (A) (A) (A) (A) (A) (A) (A) (A) (A)
                 (A) (A) (A) (A) (A) (A) (A) (A) (A) (A) (A) (A)
                 (A) (A) (A) (A) (A) (A) (A) (A) (A) (A) (A) (A)
                 (A) (A) (A) (A) (A) (A) (A) (A) (A) (A) (A) (A)
                 (A) (A) (A) (A) (A) (A) (A) (A) (A) (A) (A) (A)
                 (A) (A) (A) (A) (A) (A) (A) (A) (A) (A) (A) (A)
                 (A) (A) (A) (A) (A) (A) (A) (A) (A) (A) (A) (A)
                 (A) (A) (A) (A) (A) (A) (A) (A) (A) (A) (A) (A)
                 (A) (A) (A) (A) (A) (A) (A) (A) (A) (A) (A) (A)
                 (A) (A) (A) (A) (A) (A) (A) (A) (A) (A) (A) (A)
                 (A) (A) (A) (A) (A) (A) (A) (A) (A) (A) (A) (A)
                 (A) (A) (A) (A) (A) (A) (A) (A) (A) (A) (A) (A)
                 (A) (A) (A) (A) (A) (A) (A) (A) (A) (A) (A) (A)
                 (A) (A) (A) (A) (A) (A) (A) (A) (A) (A) (A) (A)
                 (A) (A) (A) (A) (A) (A) (A) (A) (A) (A) (A) (A)
                 (A) (A) (A) (A) (A) (A) (A) (A) (A) (A) (A) (A)
                 (A) (A) (A) (A) (A) (A) (A) (A) (A) (A) (A) (A)
                 (A) (A) (A) (A) (A) (A) (A) (A) (A) (A) (A) (A)
                 (A) (A) (A) (A) (A) (A) (A) (A) (A) (A) (A) (A)
                 (A) (A) (A) (A) (A) (A) (A) (A) (A) (A) (A) (A)
                 (A) (A) (A) (A) (A) (A) (A) (A) (A) (A) (A) (A)
                 (A) (A) (A) (A) (A) (A) (A) (A) (A) (A) (A) (A)
                 (A) (A) (A) (A) (A) (A) (A) (A) (A) (A) (A) (A)
                 (A) (A) (A) (A) (A) (A) (A) (A) (A) (A) (A) (A)
                 (A) (A) (A) (A) (A) (A) (A) (A) (A) (A) (A) (A)
                 (A) (A) (A) (A) (A) (A) (A) (A) (A) (A) (A) (A)
                 (A) (A) (A) (A) (A) (A) (A) (A) (A) (A) (A) (A)
                 (A) (A) (A) (A) (A) (A) (A) (A) (A) (A) (A) (A)
                 (A) (A) (A) (A) (A) (A) (A) (A) (A) (A) (A) (A)
                 (A) (A) (A) (A) (A) (A) (A) (A) (A) (A) (A) (A)
                 (A) (A) (A) (A) (A) (A) (A) (A) (A) (A) (A) (A)
                 (A) (A) (A) (A) (A) (A) (A) (A) (A) (A) (A) (A)
                 (A) (A) (A) (A) (A) (A) (A) (A) (A) (A) (A) (A)
                 (A) (A) (A) (A) (A) (A) (A) (A) (A) (A) (A) (A)
                 (A) (A) (A) (A) (A) (A) (A) (A) (A) (A) (A) (A)
                 (A) (A) (A) (A) (A) (A) (A) (A) (A) (A) (A) (A)
                 (A) (A) (A) (A) (A) (A) (A) (A) (A) (A) (A) (A)
                 (A) (A) (A) (A) (A) (A) (A) (A) (A) (A) (A) (A)
                 (A) (A) (A) (A) (A) (A) (A) (A) (A) (A) (A) (A)
                 (A) (A) (A) (A) (A) (A) (A) (A) (A) (A) (A) (A)
                 (A) (A) (A) (A) (A) (A) (A) (A) (A) (A) (A) (A)
                 (A) (A) (A) (A) (A) (A) (A) (A) (A) (A) (A) (A)
                 (A) (A) (A) (A) (A) (A) (A) (A) (A) (A) (A) (A)
                 (A) (A) (A) (A) (A) (A) (A) (A) (A) (A) (A) (A)
                 (A) (A) (A) (A) (A) (A) (A) (A) (A) (A) (A) (A)
                 (A) (A) (A) (A) (A) (A) (A) (A) (A) (A) (A) (A)
                 (A) (A) (A) (A) (A) (A) (A) (A) (A) (A) (A) (A)
                 (A) (A) (A) (A) (A) (A) (A) (A) (A) (A) (A) (A)
                 (A) (A) (A) (A) (A) (A) (A) (A) (A) (A) (A) (A)
                 (A) (A) (A) (A) (A) (A) (A) (A) (A) (A) (A) (A)
                 (A) (A) (A) (A) (A) (A) (A) (A) (A) (A) (A) (A)
                 (A) (A) (A) (A) (A) (A) (A) (A) (A) (A) (A) (A)
                 (A) (A) (A) (A) (A) (A) (A) (A) (A) (A) (A) (A)
                 (A) (A) (A) (A) (A) (A) (A) (A) (A) (A) (A) (A)
                 (A) (A) (A) (A) (A) (A) (A) (A) (A) (A) (A) (A)
                 (A) (A) (A) (A) (A) (A) (A) (A) (A) (A) (A) (A)
                 (A) (A) (A) (A) (A) (A) (A) (A) (A) (A) (A) (A)
                 (A) (A) (A) (A) (A) (A) (A) (A) (A) (A) (A) (A)
                 (A) (A) (A) (A) (A) (A) (A) (A) (A) (A) (A) (A)
                 (A) (A) (A) (A) (A) (A) (A) (A) (A) (A) (A) (A)
                 (A) (A) (A) (A) (A) (A) (A) (A) (A) (A) (A) (A)
                 (A) (A) (A) (A) (A) (A) (A) (A) (A) (A) (A) (A)
                 (A) (A) (A) (A) (A) (A) (A) (A) (A) (A) (A) (A)
                 (A) (A) (A) (A) (A) (A) (A) (A) (A) (A) (A) (A)
                 (A) (A) (A) (A) (A) (A) (A) (A) (A) (A) (A) (A)
                 (A) (A) (A) (A) (A) (A) (A) (A) (A) (A) (A) (A)
                 (A) (A) (A) (A) (A) (A) (A) (A) (A) (A) (A) (A)
                 (A) (A) (A) (A) (A) (A) (A) (A) (A) (A) (A) (A)
                 (A) (A) (A) (A) (A) (A) (A) (A) (A) (A) (A) (A)
                 (A) (A) (A) (A) (A) (A) (A) (A) (A) (A) (A) (A)
                 (A) (A) (A) (A) (A) (A) (A) (A) (A) (A) (A) (A)
                 (A) (A) (A) (A) (A) (A) (A) (A) (A) (A) (A) (A)
                 (A) (A) (A) (A) (A) (A) (A) (A) (A) (A) (A) (A)
                 (A) (A) (A) (A) (A) (A) (A) (A) (A) (A) (A) (A)
                 (A) (A) (A) (A) (A) (A) (A) (A) (A) (A) (A) (A)
                 (A) (A) (A) (A) (A) (A) (A) (A) (A) (A) (A) (A)
                 (A) (A) (A) (A) (A) (A) (A) (A) (A) (A) (A) (A)
                 (A) (A) (A) (A) (A) (A) (A) (A) (A) (A) (A) (A)
                 (A) (A) (A) (A) (A) (A) (A) (A) (A) (A) (A) (A)
                 (A) (A) (A) (A) (A) (A) (A) (A) (A) (A) (A) (A)
                 (A) (A) (A) (A) (A) (A) (A) (A) (A) (A) (A) (A)
                 (A) (A) (A) (A) (A) (A) (A) (A) (A) (A) (A) (A)
                 (A) (A) (A) (A) (A) (A) (A) (A) (A) (A) (A) (A)
                 (A) (A) (A) (A) (A) (A) (A) (A) (A) (A) (A) (A)
                 (A) (A) (A) (A) (A) (A) (A) (A) (A) (A) (A) (A)
                 (A) (A) (A) (A) (A) (A) (A) (A) (A) (A) (A) (A)
                 (A) (A) (A) (A) (A) (A) (A) (A) (A) (A) (A) (A)
                 (A) (A) (A) (A) (A) (A) (A) (A) (A) (A) (A) (A)
                 (A) (A) (A) (A) (A) (A) (A) (A) (A) (A) (A) (A)
                 (A) (A) (A) (A) (A) (A) (A) (A) (A) (A) (A) (A)
                 (A) (A) (A) (A) (A) (A) (A) (A) (A) (A) (A) (A)
                 (A) (A) (A) (A) (A) (A) (A) (A) (A) (A) (A) (A)
                 (A) (A) (A) (A) (A) (A) (A) (A) (A) (A) (A) (A)
                 (A) (A) (A) (A) (A) (A) (A) (A) (A) (A) (A) (A)
                 (A) (A) (A) (A) (A) (A) (A) (A) (A) (A) (A) (A)
                 (A) (A) (A) (A) (A) (A) (A) (A) (A) (A) (A) (A)
                 (A) (A) (A) (A) (A) (A) (A) (A) (A) (A) (A) (A)
                 (A) (A) (A) (A) (A) (A) (A) (A) (A) (A) (A) (A)
                 (A) (A) (A) (A) (A) (A) (A) (A) (A) (A) (A) (A)
                 (A) (A) (A) (A) (A) (A) (A) (A) (A) (A) (A) (A)
                 (A) (A) (A) (A) (A) (A) (A) (A) (A) (A) (A) (A)
                 (A) (A) (A) (A) (A) (A) (A) (A) (A) (A) (A) (A)
                 (A) (A) (A) (A) (A) (A) (A) (A) (A) (A) (A) (A)
                 (A) (A) (A) (A) (A) (A) (A) (A) (A) (A) (A) (A)
                 (A) (A) (A) (A) (A) (A) (A) (A) (A) (A) (A) (A)
                 (A) (A) (A) (A) (A) (A) (A) (A) (A) (A) (A) (A)
                 (A) (A) (A) (A) (A) (A) (A) (A) (A) (A) (A) (A)
                 (A) (A) (A) (A) (A) (A) (A) (A) (A) (A) (A) (A)
                 (A) (A) (A) (A) (A) (A) (A) (A) (A) (A) (A) (A)
                 (A) (A) (A) (A) (A) (A) (A) (A) (A) (A) (A) (A)
                 (A) (A) (A) (A) (A) (A) (A) (A) (A) (A) (A) (A)
                 (A) (A) (A) (A) (A) (A) (A) (A) (A) (A) (A) (A)
                 (A) (A) (A) (A) (A) (A) (A) (A) (A) (A) (A) (A)
                 (A) (A) (A) (A) (A) (A) (A) (A) (A) (A) (A) (A)
                 (A) (A) (A) (A) (A) (A) (A) (A) (A) (A) (A) (A)
                 (A) (A) (A) (A) (A) (A) (A) (A) (A) (A) (A) (A)
                 (A) (A) (A) (A) (A) (A) (A) (A) (A) (A) (A) (A)
                 (A) (A) (A) (A) (A) (A) (A) (A) (A) (A) (A) (A)
                 (A) (A) (A) (A) (A) (A) (A) (A) (A) (A) (A) (A)
                 (A) (A) (A) (A) (A) (A) (A) (A) (A) (A) (A) (A)
                 (A) (A) (A) (A) (A) (A) (A) (A) (A) (A) (A) (A)
                 (A) (A) (A) (A) (A) (A) (A) (A) (A) (A) (A) (A)
                 (A) (A) (A) (A) (A) (A) (A) (A) (A) (A) (A) (A)
                 (A) (A) (A) (A) (A) (A) (A) (A) (A) (A) (A) (A)
                 (A) (A) (A) (A) (A) (A) (A) (A) (A) (A) (A) (A)
                 (A) (A) (A) (A) (A) (A) (A) (A) (A) (A) (A) (A)
                 (A) (A) (A) (A) (A) (A) (A) (A) (A) (A) (A) (A)
                 (A) (A) (A) (A) (A) (A) (A) (A) (A) (A) (A) (A)
                 (A) (A) (A) (A) (A) (A) (A) (A) (A) (A) (A) (A)
                 (A) (A) (A) (A) (A) (A) (A) (A) (A) (A) (A) (A)
                 (A) (A) (A) (A) (A) (A) (A) (A) (A) (A) (A) (A)
                 (A) (A) (A) (A) (A) (A) (A) (A) (A) (A) (A) (A)
                 (A) (A) (A) (A) (A) (A) (A)
 The electronic state is 5-A.
 Alpha  occ. eigenvalues -- -256.32708 -89.02673 -30.14041 -25.97093 -25.95293
 Alpha  occ. eigenvalues --  -25.95182 -19.27757 -19.26179 -19.17527 -19.17150
 Alpha  occ. eigenvalues --  -14.45732 -14.39187 -14.35531 -14.35473 -14.35258
 Alpha  occ. eigenvalues --  -14.34906 -10.35921 -10.35073 -10.28664 -10.26691
 Alpha  occ. eigenvalues --  -10.23936 -10.23909 -10.23814 -10.23807 -10.23594
 Alpha  occ. eigenvalues --  -10.23591 -10.23575 -10.23442 -10.23338 -10.23322
 Alpha  occ. eigenvalues --  -10.23282 -10.22837 -10.22428 -10.22414 -10.22343
 Alpha  occ. eigenvalues --  -10.22203 -10.22017 -10.21623 -10.21607 -10.21589
 Alpha  occ. eigenvalues --  -10.21563 -10.21548 -10.21527 -10.21483 -10.21463
 Alpha  occ. eigenvalues --  -10.21404 -10.21396 -10.21284 -10.21171 -10.21085
 Alpha  occ. eigenvalues --  -10.20944 -10.20908 -10.20642 -10.19900 -10.19828
 Alpha  occ. eigenvalues --  -10.18187 -10.17933  -8.00333  -5.94121  -5.93630
 Alpha  occ. eigenvalues --   -5.93073  -3.56904  -2.35795  -2.31950  -2.31712
 Alpha  occ. eigenvalues --   -1.18360  -1.18023  -1.05992  -1.00290  -0.99115
 Alpha  occ. eigenvalues --   -0.98882  -0.98332  -0.97419  -0.96772  -0.91581
 Alpha  occ. eigenvalues --   -0.85066  -0.84491  -0.84324  -0.83782  -0.82525
 Alpha  occ. eigenvalues --   -0.82258  -0.81733  -0.81471  -0.80909  -0.79642
 Alpha  occ. eigenvalues --   -0.79099  -0.77774  -0.77126  -0.76890  -0.75943
 Alpha  occ. eigenvalues --   -0.74856  -0.73419  -0.72494  -0.72331  -0.71293
 Alpha  occ. eigenvalues --   -0.70678  -0.69960  -0.69792  -0.67426  -0.67111
 Alpha  occ. eigenvalues --   -0.66532  -0.65903  -0.65599  -0.64674  -0.63795
 Alpha  occ. eigenvalues --   -0.63638  -0.62464  -0.59549  -0.58820  -0.58704
 Alpha  occ. eigenvalues --   -0.57204  -0.56487  -0.55761  -0.55375  -0.54185
 Alpha  occ. eigenvalues --   -0.53336  -0.52642  -0.52497  -0.52247  -0.51775
 Alpha  occ. eigenvalues --   -0.51330  -0.50936  -0.50570  -0.50016  -0.49653
 Alpha  occ. eigenvalues --   -0.48984  -0.48727  -0.48415  -0.48200  -0.48001
 Alpha  occ. eigenvalues --   -0.47777  -0.47487  -0.47291  -0.47140  -0.46901
 Alpha  occ. eigenvalues --   -0.45715  -0.45311  -0.45023  -0.44877  -0.44603
 Alpha  occ. eigenvalues --   -0.44498  -0.44107  -0.43972  -0.43877  -0.43416
 Alpha  occ. eigenvalues --   -0.43335  -0.43117  -0.42984  -0.42709  -0.42530
 Alpha  occ. eigenvalues --   -0.42342  -0.42041  -0.41735  -0.41666  -0.41392
 Alpha  occ. eigenvalues --   -0.41129  -0.40526  -0.40349  -0.40049  -0.39903
 Alpha  occ. eigenvalues --   -0.39583  -0.39416  -0.39111  -0.39036  -0.38883
 Alpha  occ. eigenvalues --   -0.38688  -0.38311  -0.38249  -0.38049  -0.37473
 Alpha  occ. eigenvalues --   -0.37385  -0.37268  -0.36859  -0.36806  -0.36061
 Alpha  occ. eigenvalues --   -0.35736  -0.35679  -0.35274  -0.35094  -0.34817
 Alpha  occ. eigenvalues --   -0.34610  -0.34164  -0.33690  -0.33615  -0.33369
 Alpha  occ. eigenvalues --   -0.33111  -0.32846  -0.32522  -0.31990  -0.30901
 Alpha  occ. eigenvalues --   -0.30883  -0.30750  -0.28687  -0.28407  -0.28186
 Alpha  occ. eigenvalues --   -0.27167  -0.26862  -0.26046  -0.23995  -0.23236
 Alpha  occ. eigenvalues --   -0.22713  -0.22304  -0.21863  -0.20028  -0.19856
 Alpha  occ. eigenvalues --   -0.19075  -0.17590  -0.17187
 Alpha virt. eigenvalues --   -0.08049  -0.07253  -0.03294  -0.02137  -0.01610
 Alpha virt. eigenvalues --   -0.01202   0.00773   0.01154   0.01944   0.03324
 Alpha virt. eigenvalues --    0.03547   0.03737   0.04147   0.04374   0.05064
 Alpha virt. eigenvalues --    0.05541   0.05626   0.05757   0.06255   0.06368
 Alpha virt. eigenvalues --    0.06692   0.07024   0.07502   0.07616   0.07990
 Alpha virt. eigenvalues --    0.08077   0.08489   0.08534   0.08820   0.09048
 Alpha virt. eigenvalues --    0.09431   0.09603   0.09809   0.10133   0.10519
 Alpha virt. eigenvalues --    0.10876   0.11002   0.11344   0.11452   0.11714
 Alpha virt. eigenvalues --    0.12160   0.12287   0.12541   0.12705   0.12951
 Alpha virt. eigenvalues --    0.13140   0.13369   0.13553   0.13717   0.13817
 Alpha virt. eigenvalues --    0.14141   0.14436   0.14530   0.14679   0.14748
 Alpha virt. eigenvalues --    0.14939   0.15214   0.15317   0.15525   0.15687
 Alpha virt. eigenvalues --    0.15788   0.15905   0.16154   0.16417   0.16636
 Alpha virt. eigenvalues --    0.16885   0.17118   0.17369   0.17508   0.17639
 Alpha virt. eigenvalues --    0.17800   0.18100   0.18193   0.18697   0.18828
 Alpha virt. eigenvalues --    0.19163   0.19195   0.19408   0.19722   0.19815
 Alpha virt. eigenvalues --    0.20067   0.20414   0.20488   0.20727   0.20846
 Alpha virt. eigenvalues --    0.21020   0.21125   0.21440   0.21540   0.21853
 Alpha virt. eigenvalues --    0.22008   0.22085   0.22341   0.22526   0.22728
 Alpha virt. eigenvalues --    0.23065   0.23241   0.23397   0.23589   0.23801
 Alpha virt. eigenvalues --    0.24270   0.24369   0.24515   0.24652   0.24919
 Alpha virt. eigenvalues --    0.25100   0.25343   0.25415   0.25484   0.25742
 Alpha virt. eigenvalues --    0.25789   0.26063   0.26346   0.26435   0.26656
 Alpha virt. eigenvalues --    0.27000   0.27245   0.27537   0.27684   0.27781
 Alpha virt. eigenvalues --    0.27850   0.28162   0.28605   0.28725   0.28992
 Alpha virt. eigenvalues --    0.29356   0.29409   0.29633   0.29905   0.30023
 Alpha virt. eigenvalues --    0.30258   0.30682   0.30883   0.31019   0.31305
 Alpha virt. eigenvalues --    0.31541   0.31839   0.32032   0.32300   0.32657
 Alpha virt. eigenvalues --    0.32725   0.32969   0.33285   0.33495   0.33758
 Alpha virt. eigenvalues --    0.33854   0.33932   0.34335   0.34578   0.34726
 Alpha virt. eigenvalues --    0.35120   0.35390   0.35546   0.35803   0.36432
 Alpha virt. eigenvalues --    0.36473   0.36674   0.36964   0.37000   0.37303
 Alpha virt. eigenvalues --    0.37513   0.37702   0.38056   0.38303   0.38327
 Alpha virt. eigenvalues --    0.38495   0.38611   0.38810   0.38999   0.39405
 Alpha virt. eigenvalues --    0.39543   0.39690   0.39986   0.39991   0.40255
 Alpha virt. eigenvalues --    0.40425   0.40526   0.40791   0.41091   0.41199
 Alpha virt. eigenvalues --    0.41332   0.41417   0.41490   0.41666   0.41942
 Alpha virt. eigenvalues --    0.42030   0.42173   0.42219   0.42624   0.42818
 Alpha virt. eigenvalues --    0.42954   0.43400   0.43450   0.43575   0.43725
 Alpha virt. eigenvalues --    0.43916   0.44109   0.44295   0.44354   0.44445
 Alpha virt. eigenvalues --    0.44705   0.44755   0.45037   0.45096   0.45253
 Alpha virt. eigenvalues --    0.45362   0.45539   0.45769   0.45805   0.46080
 Alpha virt. eigenvalues --    0.46089   0.46388   0.46552   0.46600   0.46740
 Alpha virt. eigenvalues --    0.46945   0.47072   0.47297   0.47556   0.47563
 Alpha virt. eigenvalues --    0.47764   0.47885   0.47970   0.48116   0.48481
 Alpha virt. eigenvalues --    0.48558   0.48689   0.49046   0.49353   0.49669
 Alpha virt. eigenvalues --    0.49695   0.49923   0.50011   0.50325   0.50413
 Alpha virt. eigenvalues --    0.50661   0.50867   0.50999   0.51203   0.51362
 Alpha virt. eigenvalues --    0.51534   0.51582   0.51814   0.51914   0.52158
 Alpha virt. eigenvalues --    0.52210   0.52392   0.52702   0.52762   0.53008
 Alpha virt. eigenvalues --    0.53101   0.53198   0.53578   0.53610   0.54020
 Alpha virt. eigenvalues --    0.54205   0.54317   0.54494   0.54676   0.54759
 Alpha virt. eigenvalues --    0.55154   0.55345   0.55400   0.55590   0.55742
 Alpha virt. eigenvalues --    0.55937   0.56486   0.56575   0.56880   0.56919
 Alpha virt. eigenvalues --    0.57167   0.57255   0.57545   0.57928   0.58026
 Alpha virt. eigenvalues --    0.58236   0.58602   0.58875   0.59000   0.59430
 Alpha virt. eigenvalues --    0.59515   0.59989   0.60031   0.60171   0.60371
 Alpha virt. eigenvalues --    0.60453   0.60553   0.61124   0.61388   0.61916
 Alpha virt. eigenvalues --    0.61983   0.62156   0.62418   0.62620   0.62841
 Alpha virt. eigenvalues --    0.63008   0.63436   0.63557   0.63747   0.64122
 Alpha virt. eigenvalues --    0.64305   0.64427   0.64585   0.65138   0.65268
 Alpha virt. eigenvalues --    0.65589   0.65818   0.65905   0.66085   0.66334
 Alpha virt. eigenvalues --    0.66840   0.67270   0.67364   0.67728   0.67878
 Alpha virt. eigenvalues --    0.68231   0.68380   0.68638   0.68968   0.69041
 Alpha virt. eigenvalues --    0.69408   0.69859   0.70092   0.70198   0.70252
 Alpha virt. eigenvalues --    0.70695   0.70986   0.71557   0.71626   0.71867
 Alpha virt. eigenvalues --    0.72219   0.72313   0.72471   0.72692   0.73053
 Alpha virt. eigenvalues --    0.73248   0.73754   0.73979   0.74098   0.74461
 Alpha virt. eigenvalues --    0.74874   0.75024   0.75289   0.75674   0.75849
 Alpha virt. eigenvalues --    0.76179   0.76445   0.76675   0.77100   0.77272
 Alpha virt. eigenvalues --    0.77668   0.77940   0.78123   0.78342   0.78630
 Alpha virt. eigenvalues --    0.79058   0.79548   0.79639   0.79825   0.80083
 Alpha virt. eigenvalues --    0.80250   0.80656   0.81003   0.81275   0.81571
 Alpha virt. eigenvalues --    0.81709   0.82111   0.82549   0.82662   0.83021
 Alpha virt. eigenvalues --    0.83236   0.83590   0.83832   0.84126   0.84506
 Alpha virt. eigenvalues --    0.84767   0.85619   0.85852   0.86052   0.86259
 Alpha virt. eigenvalues --    0.86609   0.86934   0.86994   0.87169   0.87504
 Alpha virt. eigenvalues --    0.87673   0.87830   0.88094   0.88192   0.88566
 Alpha virt. eigenvalues --    0.88648   0.89193   0.89511   0.89776   0.90092
 Alpha virt. eigenvalues --    0.90369   0.90469   0.90792   0.90929   0.91225
 Alpha virt. eigenvalues --    0.91957   0.92150   0.92306   0.92494   0.92756
 Alpha virt. eigenvalues --    0.93089   0.93318   0.93460   0.94026   0.94279
 Alpha virt. eigenvalues --    0.94353   0.94781   0.94814   0.95071   0.95391
 Alpha virt. eigenvalues --    0.95539   0.95832   0.96062   0.96211   0.96277
 Alpha virt. eigenvalues --    0.96801   0.96908   0.97597   0.97733   0.97881
 Alpha virt. eigenvalues --    0.98114   0.98456   0.98720   0.98914   0.99106
 Alpha virt. eigenvalues --    0.99581   0.99819   0.99887   1.00049   1.00366
 Alpha virt. eigenvalues --    1.00590   1.01024   1.01173   1.01528   1.01953
 Alpha virt. eigenvalues --    1.02207   1.02375   1.02548   1.02961   1.03326
 Alpha virt. eigenvalues --    1.03406   1.03553   1.03967   1.04280   1.04723
 Alpha virt. eigenvalues --    1.04747   1.04971   1.05284   1.05720   1.05832
 Alpha virt. eigenvalues --    1.06051   1.06295   1.06646   1.06919   1.07166
 Alpha virt. eigenvalues --    1.07274   1.07662   1.07945   1.08150   1.08239
 Alpha virt. eigenvalues --    1.08724   1.09179   1.09326   1.09859   1.10159
 Alpha virt. eigenvalues --    1.10717   1.10999   1.11197   1.11576   1.11936
 Alpha virt. eigenvalues --    1.12190   1.12602   1.12810   1.12871   1.13207
 Alpha virt. eigenvalues --    1.13604   1.13907   1.14212   1.14556   1.14918
 Alpha virt. eigenvalues --    1.15459   1.15566   1.16213   1.16475   1.16805
 Alpha virt. eigenvalues --    1.16926   1.17017   1.17824   1.18037   1.18265
 Alpha virt. eigenvalues --    1.18677   1.18848   1.19032   1.19245   1.19557
 Alpha virt. eigenvalues --    1.20188   1.20593   1.21152   1.21525   1.21620
 Alpha virt. eigenvalues --    1.21834   1.22409   1.22775   1.23235   1.23427
 Alpha virt. eigenvalues --    1.23568   1.23818   1.24066   1.24481   1.24927
 Alpha virt. eigenvalues --    1.25011   1.26194   1.26710   1.26903   1.27218
 Alpha virt. eigenvalues --    1.27826   1.28073   1.28339   1.28903   1.29104
 Alpha virt. eigenvalues --    1.29414   1.29742   1.29956   1.30177   1.30751
 Alpha virt. eigenvalues --    1.31184   1.31407   1.31626   1.31762   1.32117
 Alpha virt. eigenvalues --    1.32151   1.32378   1.32937   1.33499   1.33913
 Alpha virt. eigenvalues --    1.33933   1.34369   1.34500   1.34927   1.35276
 Alpha virt. eigenvalues --    1.35608   1.35904   1.36057   1.36590   1.37130
 Alpha virt. eigenvalues --    1.37413   1.37861   1.38119   1.38556   1.39366
 Alpha virt. eigenvalues --    1.39569   1.39724   1.40078   1.40780   1.41023
 Alpha virt. eigenvalues --    1.41454   1.41588   1.42336   1.43018   1.43537
 Alpha virt. eigenvalues --    1.43726   1.44037   1.44784   1.45276   1.45408
 Alpha virt. eigenvalues --    1.45677   1.46632   1.46883   1.47178   1.47625
 Alpha virt. eigenvalues --    1.47928   1.48523   1.48665   1.49282   1.49302
 Alpha virt. eigenvalues --    1.49772   1.50059   1.50140   1.50419   1.50829
 Alpha virt. eigenvalues --    1.51033   1.51464   1.51722   1.51902   1.51983
 Alpha virt. eigenvalues --    1.52414   1.52710   1.52861   1.52947   1.53337
 Alpha virt. eigenvalues --    1.53621   1.53749   1.53945   1.54106   1.54619
 Alpha virt. eigenvalues --    1.54886   1.55272   1.55408   1.55606   1.56093
 Alpha virt. eigenvalues --    1.56178   1.56390   1.56623   1.56791   1.57190
 Alpha virt. eigenvalues --    1.57401   1.57912   1.58095   1.58394   1.58526
 Alpha virt. eigenvalues --    1.58732   1.58844   1.59398   1.59518   1.59973
 Alpha virt. eigenvalues --    1.60120   1.60393   1.60624   1.60698   1.61107
 Alpha virt. eigenvalues --    1.61261   1.61522   1.61727   1.61969   1.62377
 Alpha virt. eigenvalues --    1.62569   1.62650   1.62871   1.63180   1.63390
 Alpha virt. eigenvalues --    1.63499   1.64146   1.64335   1.64597   1.64857
 Alpha virt. eigenvalues --    1.65122   1.65471   1.65792   1.65977   1.66133
 Alpha virt. eigenvalues --    1.66507   1.66846   1.67426   1.67641   1.67886
 Alpha virt. eigenvalues --    1.68114   1.68189   1.68501   1.68739   1.69029
 Alpha virt. eigenvalues --    1.69086   1.69349   1.69659   1.69745   1.70179
 Alpha virt. eigenvalues --    1.70394   1.70702   1.71047   1.71487   1.71816
 Alpha virt. eigenvalues --    1.72081   1.72242   1.72477   1.73059   1.73326
 Alpha virt. eigenvalues --    1.73440   1.74021   1.74190   1.74250   1.74610
 Alpha virt. eigenvalues --    1.74877   1.75210   1.75435   1.75614   1.76020
 Alpha virt. eigenvalues --    1.76198   1.76413   1.76477   1.77229   1.77442
 Alpha virt. eigenvalues --    1.77793   1.78106   1.78177   1.78534   1.78762
 Alpha virt. eigenvalues --    1.79464   1.79664   1.80131   1.80373   1.80699
 Alpha virt. eigenvalues --    1.81157   1.81310   1.81626   1.81706   1.82068
 Alpha virt. eigenvalues --    1.82442   1.82899   1.83269   1.83428   1.84111
 Alpha virt. eigenvalues --    1.84332   1.84631   1.85221   1.85401   1.85689
 Alpha virt. eigenvalues --    1.85870   1.86555   1.86797   1.87230   1.87515
 Alpha virt. eigenvalues --    1.88116   1.88276   1.88764   1.89094   1.89402
 Alpha virt. eigenvalues --    1.89759   1.89776   1.90403   1.90585   1.91120
 Alpha virt. eigenvalues --    1.91357   1.91711   1.92195   1.92207   1.92458
 Alpha virt. eigenvalues --    1.92837   1.93321   1.93742   1.94031   1.94197
 Alpha virt. eigenvalues --    1.94571   1.94767   1.95447   1.95504   1.96038
 Alpha virt. eigenvalues --    1.96259   1.96607   1.96903   1.97352   1.97660
 Alpha virt. eigenvalues --    1.97740   1.98171   1.98564   1.98825   1.98847
 Alpha virt. eigenvalues --    1.99093   1.99607   1.99694   2.00022   2.00686
 Alpha virt. eigenvalues --    2.00861   2.01116   2.01417   2.01509   2.01963
 Alpha virt. eigenvalues --    2.02683   2.02981   2.03128   2.03384   2.03827
 Alpha virt. eigenvalues --    2.03982   2.04419   2.04826   2.05080   2.05543
 Alpha virt. eigenvalues --    2.06207   2.06547   2.06895   2.06959   2.07551
 Alpha virt. eigenvalues --    2.07764   2.08281   2.08720   2.09003   2.09354
 Alpha virt. eigenvalues --    2.09717   2.10043   2.10261   2.10371   2.10492
 Alpha virt. eigenvalues --    2.10689   2.11070   2.11140   2.11979   2.12316
 Alpha virt. eigenvalues --    2.12683   2.13015   2.13235   2.13604   2.14031
 Alpha virt. eigenvalues --    2.14162   2.14426   2.14684   2.15104   2.15410
 Alpha virt. eigenvalues --    2.15644   2.15848   2.16273   2.16337   2.16955
 Alpha virt. eigenvalues --    2.17183   2.17811   2.17913   2.18166   2.18517
 Alpha virt. eigenvalues --    2.18809   2.19311   2.19898   2.19961   2.20456
 Alpha virt. eigenvalues --    2.20626   2.21083   2.21473   2.21657   2.21889
 Alpha virt. eigenvalues --    2.22049   2.22911   2.23102   2.23492   2.23762
 Alpha virt. eigenvalues --    2.24045   2.24148   2.24664   2.25217   2.25722
 Alpha virt. eigenvalues --    2.26210   2.26426   2.26509   2.27109   2.27157
 Alpha virt. eigenvalues --    2.27686   2.27934   2.28428   2.28746   2.29117
 Alpha virt. eigenvalues --    2.29644   2.29773   2.30424   2.30858   2.30882
 Alpha virt. eigenvalues --    2.31278   2.31577   2.31913   2.32535   2.33009
 Alpha virt. eigenvalues --    2.33190   2.33597   2.34088   2.34280   2.34597
 Alpha virt. eigenvalues --    2.35126   2.35427   2.35905   2.36070   2.36556
 Alpha virt. eigenvalues --    2.36758   2.37054   2.37318   2.37846   2.38087
 Alpha virt. eigenvalues --    2.38208   2.38410   2.39048   2.39091   2.39566
 Alpha virt. eigenvalues --    2.39973   2.40005   2.40151   2.40396   2.40832
 Alpha virt. eigenvalues --    2.41118   2.41451   2.41490   2.41783   2.41965
 Alpha virt. eigenvalues --    2.42409   2.42716   2.43274   2.43545   2.43740
 Alpha virt. eigenvalues --    2.44262   2.44773   2.45398   2.45633   2.46056
 Alpha virt. eigenvalues --    2.46228   2.46498   2.47404   2.47597   2.47839
 Alpha virt. eigenvalues --    2.48031   2.48511   2.49188   2.49607   2.49880
 Alpha virt. eigenvalues --    2.50458   2.51065   2.51174   2.51700   2.52135
 Alpha virt. eigenvalues --    2.52258   2.52796   2.53137   2.53541   2.54090
 Alpha virt. eigenvalues --    2.54379   2.54468   2.54669   2.54931   2.55180
 Alpha virt. eigenvalues --    2.55345   2.55803   2.56149   2.56281   2.56703
 Alpha virt. eigenvalues --    2.56779   2.57023   2.57229   2.57574   2.57887
 Alpha virt. eigenvalues --    2.57998   2.58530   2.58561   2.58826   2.58967
 Alpha virt. eigenvalues --    2.59280   2.59847   2.60273   2.60350   2.60556
 Alpha virt. eigenvalues --    2.61082   2.61225   2.61770   2.62030   2.62130
 Alpha virt. eigenvalues --    2.62557   2.62732   2.63089   2.63478   2.63593
 Alpha virt. eigenvalues --    2.63965   2.64353   2.64638   2.65003   2.65205
 Alpha virt. eigenvalues --    2.65719   2.65884   2.66261   2.66371   2.66847
 Alpha virt. eigenvalues --    2.67320   2.67595   2.67845   2.68242   2.68481
 Alpha virt. eigenvalues --    2.69240   2.69317   2.69555   2.69750   2.70123
 Alpha virt. eigenvalues --    2.70338   2.70760   2.70957   2.71228   2.71742
 Alpha virt. eigenvalues --    2.72295   2.72426   2.72678   2.72745   2.73352
 Alpha virt. eigenvalues --    2.73578   2.74041   2.74357   2.74739   2.74989
 Alpha virt. eigenvalues --    2.75180   2.75513   2.75979   2.76282   2.76520
 Alpha virt. eigenvalues --    2.76863   2.77156   2.77393   2.77815   2.78058
 Alpha virt. eigenvalues --    2.78468   2.78920   2.79410   2.79707   2.80002
 Alpha virt. eigenvalues --    2.80335   2.80516   2.80754   2.81191   2.81630
 Alpha virt. eigenvalues --    2.81988   2.82250   2.82698   2.82876   2.82979
 Alpha virt. eigenvalues --    2.83165   2.83849   2.84236   2.84542   2.84755
 Alpha virt. eigenvalues --    2.85373   2.85737   2.86111   2.86279   2.86444
 Alpha virt. eigenvalues --    2.86795   2.86902   2.87380   2.87513   2.88057
 Alpha virt. eigenvalues --    2.88402   2.88520   2.89009   2.89127   2.89480
 Alpha virt. eigenvalues --    2.89847   2.89977   2.90565   2.91038   2.91325
 Alpha virt. eigenvalues --    2.91752   2.92658   2.93111   2.93458   2.93813
 Alpha virt. eigenvalues --    2.93951   2.94164   2.94371   2.94828   2.95120
 Alpha virt. eigenvalues --    2.95461   2.95947   2.95971   2.96507   2.96655
 Alpha virt. eigenvalues --    2.96741   2.97265   2.97385   2.97647   2.97897
 Alpha virt. eigenvalues --    2.98108   2.98426   2.98672   2.99097   2.99139
 Alpha virt. eigenvalues --    2.99544   3.00144   3.00330   3.00357   3.00765
 Alpha virt. eigenvalues --    3.00907   3.01314   3.01899   3.01995   3.02152
 Alpha virt. eigenvalues --    3.02610   3.02914   3.03035   3.03277   3.03843
 Alpha virt. eigenvalues --    3.04067   3.04786   3.04849   3.05001   3.05341
 Alpha virt. eigenvalues --    3.05511   3.05961   3.06064   3.06248   3.06922
 Alpha virt. eigenvalues --    3.07032   3.07355   3.07613   3.07913   3.08080
 Alpha virt. eigenvalues --    3.08355   3.08773   3.08859   3.09124   3.09311
 Alpha virt. eigenvalues --    3.09810   3.10100   3.10451   3.11084   3.11480
 Alpha virt. eigenvalues --    3.11618   3.11719   3.11962   3.12356   3.12669
 Alpha virt. eigenvalues --    3.12785   3.13326   3.13487   3.13676   3.13806
 Alpha virt. eigenvalues --    3.13942   3.14171   3.14315   3.14580   3.14871
 Alpha virt. eigenvalues --    3.15074   3.15230   3.15804   3.16079   3.16207
 Alpha virt. eigenvalues --    3.16331   3.16611   3.16969   3.17245   3.17401
 Alpha virt. eigenvalues --    3.17703   3.18188   3.18413   3.18678   3.18768
 Alpha virt. eigenvalues --    3.19124   3.19224   3.19654   3.20255   3.20573
 Alpha virt. eigenvalues --    3.20749   3.20886   3.21548   3.21858   3.22044
 Alpha virt. eigenvalues --    3.22279   3.22749   3.22895   3.23083   3.23347
 Alpha virt. eigenvalues --    3.23916   3.24127   3.24461   3.24757   3.24920
 Alpha virt. eigenvalues --    3.25351   3.25440   3.25620   3.26012   3.26209
 Alpha virt. eigenvalues --    3.26344   3.26387   3.26674   3.27268   3.27456
 Alpha virt. eigenvalues --    3.27685   3.27954   3.28105   3.28411   3.28570
 Alpha virt. eigenvalues --    3.28980   3.29369   3.29476   3.29770   3.29960
 Alpha virt. eigenvalues --    3.30021   3.30527   3.30655   3.30887   3.31164
 Alpha virt. eigenvalues --    3.31408   3.31614   3.31745   3.32057   3.32413
 Alpha virt. eigenvalues --    3.32565   3.32736   3.32910   3.33168   3.33392
 Alpha virt. eigenvalues --    3.33542   3.33854   3.34102   3.34352   3.34839
 Alpha virt. eigenvalues --    3.34910   3.35288   3.35789   3.35931   3.36121
 Alpha virt. eigenvalues --    3.36210   3.36559   3.36736   3.36874   3.37289
 Alpha virt. eigenvalues --    3.37320   3.37594   3.37816   3.38209   3.38378
 Alpha virt. eigenvalues --    3.38723   3.38975   3.39115   3.39401   3.39678
 Alpha virt. eigenvalues --    3.39995   3.40357   3.40709   3.40725   3.40907
 Alpha virt. eigenvalues --    3.41237   3.41782   3.41912   3.42024   3.42251
 Alpha virt. eigenvalues --    3.42654   3.42917   3.43084   3.43201   3.43465
 Alpha virt. eigenvalues --    3.43619   3.43955   3.44115   3.44401   3.44967
 Alpha virt. eigenvalues --    3.45208   3.45647   3.45800   3.45910   3.46410
 Alpha virt. eigenvalues --    3.46445   3.46562   3.46992   3.47557   3.47819
 Alpha virt. eigenvalues --    3.48047   3.48357   3.48883   3.48939   3.49533
 Alpha virt. eigenvalues --    3.49870   3.49968   3.50392   3.51015   3.51062
 Alpha virt. eigenvalues --    3.51387   3.51581   3.52007   3.52115   3.52242
 Alpha virt. eigenvalues --    3.52629   3.52707   3.53231   3.53671   3.54227
 Alpha virt. eigenvalues --    3.54519   3.54779   3.54806   3.55109   3.55360
 Alpha virt. eigenvalues --    3.55847   3.56039   3.56177   3.56500   3.56857
 Alpha virt. eigenvalues --    3.57231   3.57639   3.58074   3.58133   3.58302
 Alpha virt. eigenvalues --    3.59105   3.59377   3.59628   3.59711   3.59928
 Alpha virt. eigenvalues --    3.60267   3.60736   3.61188   3.61357   3.61504
 Alpha virt. eigenvalues --    3.62705   3.63148   3.63442   3.63770   3.63830
 Alpha virt. eigenvalues --    3.64139   3.64452   3.64712   3.64826   3.65404
 Alpha virt. eigenvalues --    3.65846   3.66502   3.66775   3.67001   3.67314
 Alpha virt. eigenvalues --    3.67684   3.68139   3.68695   3.69097   3.69642
 Alpha virt. eigenvalues --    3.69928   3.70378   3.70721   3.71190   3.71240
 Alpha virt. eigenvalues --    3.71334   3.71822   3.72133   3.72693   3.72766
 Alpha virt. eigenvalues --    3.73192   3.73511   3.73658   3.74302   3.74758
 Alpha virt. eigenvalues --    3.75087   3.75294   3.75707   3.75969   3.76117
 Alpha virt. eigenvalues --    3.76697   3.76790   3.77052   3.77409   3.77652
 Alpha virt. eigenvalues --    3.78025   3.78633   3.78853   3.79228   3.79507
 Alpha virt. eigenvalues --    3.79649   3.80440   3.81099   3.81662   3.82460
 Alpha virt. eigenvalues --    3.82590   3.82872   3.83316   3.83398   3.84106
 Alpha virt. eigenvalues --    3.84321   3.84572   3.84865   3.85339   3.85430
 Alpha virt. eigenvalues --    3.85971   3.86134   3.86563   3.87088   3.87506
 Alpha virt. eigenvalues --    3.87856   3.88463   3.88611   3.88671   3.89048
 Alpha virt. eigenvalues --    3.89545   3.89941   3.90369   3.90596   3.90844
 Alpha virt. eigenvalues --    3.91701   3.91908   3.92701   3.93251   3.93854
 Alpha virt. eigenvalues --    3.94287   3.94740   3.95765   3.96087   3.96331
 Alpha virt. eigenvalues --    3.96707   3.97038   3.97545   3.97841   3.98298
 Alpha virt. eigenvalues --    3.98986   3.99341   3.99620   4.00145   4.00638
 Alpha virt. eigenvalues --    4.00780   4.01844   4.02053   4.02569   4.03065
 Alpha virt. eigenvalues --    4.03398   4.03533   4.04268   4.04889   4.05745
 Alpha virt. eigenvalues --    4.06029   4.06526   4.07047   4.07467   4.07859
 Alpha virt. eigenvalues --    4.08368   4.08959   4.09418   4.09635   4.09794
 Alpha virt. eigenvalues --    4.10080   4.10409   4.10806   4.11578   4.12500
 Alpha virt. eigenvalues --    4.12879   4.12939   4.13788   4.14412   4.15203
 Alpha virt. eigenvalues --    4.16096   4.16411   4.17098   4.17222   4.17589
 Alpha virt. eigenvalues --    4.17930   4.18516   4.18685   4.19573   4.20002
 Alpha virt. eigenvalues --    4.21070   4.21270   4.22122   4.22540   4.23023
 Alpha virt. eigenvalues --    4.23660   4.23921   4.24598   4.24765   4.25807
 Alpha virt. eigenvalues --    4.26247   4.26513   4.26807   4.27539   4.27714
 Alpha virt. eigenvalues --    4.27971   4.28347   4.28957   4.29494   4.29709
 Alpha virt. eigenvalues --    4.30588   4.30702   4.31288   4.31589   4.31971
 Alpha virt. eigenvalues --    4.32530   4.32566   4.33487   4.33734   4.34291
 Alpha virt. eigenvalues --    4.35006   4.35665   4.36187   4.36917   4.37437
 Alpha virt. eigenvalues --    4.37941   4.38251   4.38920   4.39239   4.39608
 Alpha virt. eigenvalues --    4.40400   4.40748   4.41446   4.42654   4.42826
 Alpha virt. eigenvalues --    4.43227   4.43383   4.44692   4.45200   4.46098
 Alpha virt. eigenvalues --    4.46217   4.47103   4.47438   4.47872   4.48018
 Alpha virt. eigenvalues --    4.48413   4.49398   4.49902   4.50232   4.50443
 Alpha virt. eigenvalues --    4.51102   4.51548   4.51879   4.52864   4.53461
 Alpha virt. eigenvalues --    4.53526   4.53906   4.54343   4.54946   4.55177
 Alpha virt. eigenvalues --    4.56010   4.56543   4.57023   4.57636   4.58683
 Alpha virt. eigenvalues --    4.59057   4.59131   4.59779   4.61044   4.61368
 Alpha virt. eigenvalues --    4.62227   4.62435   4.63689   4.64455   4.64497
 Alpha virt. eigenvalues --    4.64976   4.66511   4.67265   4.67897   4.68171
 Alpha virt. eigenvalues --    4.69076   4.70174   4.71333   4.71586   4.71867
 Alpha virt. eigenvalues --    4.72048   4.73317   4.73484   4.73710   4.74343
 Alpha virt. eigenvalues --    4.74883   4.75227   4.75550   4.76023   4.76969
 Alpha virt. eigenvalues --    4.77364   4.77959   4.78567   4.79876   4.80261
 Alpha virt. eigenvalues --    4.80474   4.81073   4.81569   4.82029   4.83047
 Alpha virt. eigenvalues --    4.84741   4.85626   4.85821   4.86578   4.87403
 Alpha virt. eigenvalues --    4.87647   4.87979   4.88837   4.89474   4.89807
 Alpha virt. eigenvalues --    4.90676   4.91162   4.91278   4.92079   4.92713
 Alpha virt. eigenvalues --    4.93506   4.94009   4.95287   4.96797   4.97942
 Alpha virt. eigenvalues --    4.98021   4.98203   4.99269   4.99685   5.00372
 Alpha virt. eigenvalues --    5.01255   5.01721   5.02753   5.02930   5.03132
 Alpha virt. eigenvalues --    5.05247   5.06034   5.06447   5.06734   5.08000
 Alpha virt. eigenvalues --    5.09853   5.10101   5.10905   5.11395   5.11788
 Alpha virt. eigenvalues --    5.12519   5.13092   5.14523   5.15570   5.15718
 Alpha virt. eigenvalues --    5.16445   5.18541   5.19545   5.19926   5.20998
 Alpha virt. eigenvalues --    5.21129   5.21617   5.22222   5.22694   5.23094
 Alpha virt. eigenvalues --    5.23457   5.24072   5.24798   5.26888   5.28404
 Alpha virt. eigenvalues --    5.29498   5.30476   5.30971   5.31898   5.32464
 Alpha virt. eigenvalues --    5.33422   5.34087   5.35085   5.36066   5.38655
 Alpha virt. eigenvalues --    5.38923   5.39214   5.40486   5.40672   5.42354
 Alpha virt. eigenvalues --    5.42660   5.42955   5.43774   5.43939   5.45076
 Alpha virt. eigenvalues --    5.45898   5.48937   5.49417   5.51326   5.52295
 Alpha virt. eigenvalues --    5.52879   5.53315   5.54725   5.55220   5.55704
 Alpha virt. eigenvalues --    5.56032   5.56604   5.57653   5.61217   5.62532
 Alpha virt. eigenvalues --    5.63351   5.64571   5.66535   5.66587   5.67959
 Alpha virt. eigenvalues --    5.68490   5.68951   5.69075   5.71761   5.73848
 Alpha virt. eigenvalues --    5.74407   5.75347   5.76778   5.78814   5.79127
 Alpha virt. eigenvalues --    5.81047   5.85117   5.89169   5.91160   5.93963
 Alpha virt. eigenvalues --    5.96224   5.98277   5.99058   6.00954   6.01786
 Alpha virt. eigenvalues --    6.02661   6.03339   6.03888   6.04518   6.06034
 Alpha virt. eigenvalues --    6.06760   6.07636   6.08617   6.14903   6.15354
 Alpha virt. eigenvalues --    6.16863   6.17561   6.18576   6.19467   6.20360
 Alpha virt. eigenvalues --    6.27329   6.28171   6.30033   6.33662   6.36777
 Alpha virt. eigenvalues --    6.38737   6.39953   6.42470   6.42830   6.47365
 Alpha virt. eigenvalues --    6.47516   6.50479   6.51744   6.55140   6.64948
 Alpha virt. eigenvalues --    6.66906   6.69681   6.74903   6.82158   6.85672
 Alpha virt. eigenvalues --    6.86115   6.95024   6.95822   7.01517   7.06611
 Alpha virt. eigenvalues --    7.08936   7.10003   7.15320   7.22490   7.32405
 Alpha virt. eigenvalues --    9.30373   9.49808   9.63733  20.21933  22.41547
 Alpha virt. eigenvalues --   22.49232  22.50670  22.50929  22.55232  22.56631
 Alpha virt. eigenvalues --   22.57598  22.57616  22.60154  22.60231  22.65100
 Alpha virt. eigenvalues --   22.67637  22.70108  22.73544  22.76700  22.78965
 Alpha virt. eigenvalues --   22.79916  22.99180  23.00093  23.02945  23.03983
 Alpha virt. eigenvalues --   23.05423  23.07174  23.13936  23.14741  23.23238
 Alpha virt. eigenvalues --   23.26491  23.32286  23.41884  23.42608  23.46139
 Alpha virt. eigenvalues --   23.47534  23.48825  23.53666  23.56689  23.58793
 Alpha virt. eigenvalues --   23.66518  23.78672  23.87601  23.91664  24.01812
 Alpha virt. eigenvalues --   32.46136  32.83294  33.06170  33.11013  33.16419
 Alpha virt. eigenvalues --   33.20995  43.90034  43.91188  43.94677  43.98938
  Beta  occ. eigenvalues -- -256.32582 -89.02609 -30.05451 -25.89102 -25.88466
  Beta  occ. eigenvalues --  -25.88344 -19.27757 -19.26179 -19.17527 -19.17150
  Beta  occ. eigenvalues --  -14.45731 -14.38958 -14.35315 -14.35251 -14.35000
  Beta  occ. eigenvalues --  -14.34691 -10.35921 -10.35072 -10.28698 -10.26673
  Beta  occ. eigenvalues --  -10.23933 -10.23919 -10.23861 -10.23777 -10.23634
  Beta  occ. eigenvalues --  -10.23575 -10.23551 -10.23439 -10.23384 -10.23350
  Beta  occ. eigenvalues --  -10.23311 -10.22834 -10.22414 -10.22413 -10.22326
  Beta  occ. eigenvalues --  -10.22203 -10.21987 -10.21672 -10.21662 -10.21602
  Beta  occ. eigenvalues --  -10.21582 -10.21547 -10.21527 -10.21509 -10.21458
  Beta  occ. eigenvalues --  -10.21369 -10.21341 -10.21262 -10.21202 -10.21079
  Beta  occ. eigenvalues --  -10.20938 -10.20908 -10.20712 -10.19904 -10.19825
  Beta  occ. eigenvalues --  -10.18185 -10.17931  -8.00257  -5.94087  -5.93566
  Beta  occ. eigenvalues --   -5.92931  -3.36266  -2.11222  -2.10986  -2.10799
  Beta  occ. eigenvalues --   -1.18359  -1.18023  -1.05921  -1.00290  -0.98925
  Beta  occ. eigenvalues --   -0.98876  -0.98116  -0.97241  -0.96586  -0.91354
  Beta  occ. eigenvalues --   -0.85042  -0.84422  -0.84234  -0.83751  -0.82526
  Beta  occ. eigenvalues --   -0.82208  -0.81704  -0.81492  -0.80891  -0.79617
  Beta  occ. eigenvalues --   -0.79038  -0.77751  -0.77089  -0.76858  -0.75974
  Beta  occ. eigenvalues --   -0.74836  -0.73394  -0.72466  -0.72302  -0.71215
  Beta  occ. eigenvalues --   -0.70603  -0.69923  -0.69733  -0.67314  -0.67043
  Beta  occ. eigenvalues --   -0.66597  -0.65741  -0.65566  -0.64625  -0.63747
  Beta  occ. eigenvalues --   -0.63613  -0.62412  -0.59562  -0.58658  -0.58603
  Beta  occ. eigenvalues --   -0.57142  -0.56396  -0.55684  -0.55328  -0.54116
  Beta  occ. eigenvalues --   -0.53240  -0.52570  -0.52444  -0.52206  -0.51738
  Beta  occ. eigenvalues --   -0.51292  -0.50877  -0.50501  -0.49881  -0.49450
  Beta  occ. eigenvalues --   -0.48953  -0.48571  -0.48145  -0.48056  -0.47938
  Beta  occ. eigenvalues --   -0.47555  -0.47291  -0.47235  -0.47121  -0.46798
  Beta  occ. eigenvalues --   -0.45649  -0.45274  -0.44945  -0.44779  -0.44569
  Beta  occ. eigenvalues --   -0.44285  -0.43897  -0.43840  -0.43521  -0.43341
  Beta  occ. eigenvalues --   -0.43210  -0.43042  -0.42893  -0.42682  -0.42443
  Beta  occ. eigenvalues --   -0.42091  -0.41804  -0.41504  -0.41397  -0.41250
  Beta  occ. eigenvalues --   -0.40997  -0.40393  -0.40283  -0.39923  -0.39814
  Beta  occ. eigenvalues --   -0.39378  -0.39065  -0.38952  -0.38579  -0.38331
  Beta  occ. eigenvalues --   -0.38138  -0.37780  -0.37410  -0.37315  -0.37123
  Beta  occ. eigenvalues --   -0.36840  -0.36610  -0.36039  -0.35798  -0.35610
  Beta  occ. eigenvalues --   -0.35429  -0.34984  -0.34835  -0.34133  -0.33870
  Beta  occ. eigenvalues --   -0.33682  -0.33523  -0.33213  -0.32964  -0.32489
  Beta  occ. eigenvalues --   -0.32002  -0.30873  -0.30841  -0.29994  -0.29403
  Beta  occ. eigenvalues --   -0.28722  -0.28514  -0.27170  -0.26905  -0.24857
  Beta  occ. eigenvalues --   -0.24454  -0.23555  -0.22901  -0.22421  -0.22350
  Beta  occ. eigenvalues --   -0.20241  -0.19614  -0.19071  -0.14337
  Beta virt. eigenvalues --   -0.08307  -0.06768  -0.03311  -0.02304  -0.01891
  Beta virt. eigenvalues --   -0.01211  -0.00274   0.00108   0.00777   0.01590
  Beta virt. eigenvalues --    0.01976   0.03326   0.03578   0.03790   0.04311
  Beta virt. eigenvalues --    0.04433   0.05066   0.05574   0.05686   0.05725
  Beta virt. eigenvalues --    0.06232   0.06334   0.06657   0.07108   0.07394
  Beta virt. eigenvalues --    0.07659   0.07694   0.08084   0.08248   0.08478
  Beta virt. eigenvalues --    0.08644   0.08987   0.09030   0.09132   0.09511
  Beta virt. eigenvalues --    0.09609   0.09835   0.10260   0.10513   0.10936
  Beta virt. eigenvalues --    0.11021   0.11359   0.11532   0.11825   0.12188
  Beta virt. eigenvalues --    0.12305   0.12624   0.12781   0.12995   0.13207
  Beta virt. eigenvalues --    0.13367   0.13569   0.13774   0.13864   0.14268
  Beta virt. eigenvalues --    0.14464   0.14559   0.14749   0.14778   0.15009
  Beta virt. eigenvalues --    0.15302   0.15340   0.15547   0.15729   0.15834
  Beta virt. eigenvalues --    0.15889   0.16169   0.16472   0.16659   0.16887
  Beta virt. eigenvalues --    0.17235   0.17412   0.17528   0.17672   0.17821
  Beta virt. eigenvalues --    0.18126   0.18201   0.18736   0.18846   0.19186
  Beta virt. eigenvalues --    0.19208   0.19436   0.19723   0.19851   0.20128
  Beta virt. eigenvalues --    0.20436   0.20509   0.20793   0.20884   0.21068
  Beta virt. eigenvalues --    0.21161   0.21474   0.21573   0.21851   0.22042
  Beta virt. eigenvalues --    0.22162   0.22456   0.22641   0.22772   0.23157
  Beta virt. eigenvalues --    0.23318   0.23467   0.23634   0.23910   0.24309
  Beta virt. eigenvalues --    0.24450   0.24554   0.24708   0.24957   0.25215
  Beta virt. eigenvalues --    0.25414   0.25543   0.25573   0.25792   0.25904
  Beta virt. eigenvalues --    0.26238   0.26432   0.26512   0.26688   0.27146
  Beta virt. eigenvalues --    0.27362   0.27640   0.27784   0.27901   0.27990
  Beta virt. eigenvalues --    0.28218   0.28817   0.28917   0.29164   0.29568
  Beta virt. eigenvalues --    0.29691   0.29735   0.30048   0.30190   0.30322
  Beta virt. eigenvalues --    0.30755   0.31010   0.31153   0.31329   0.31623
  Beta virt. eigenvalues --    0.32030   0.32229   0.32405   0.32707   0.32856
  Beta virt. eigenvalues --    0.33120   0.33353   0.33578   0.33774   0.33939
  Beta virt. eigenvalues --    0.34122   0.34407   0.34677   0.34842   0.35236
  Beta virt. eigenvalues --    0.35488   0.35672   0.35893   0.36472   0.36553
  Beta virt. eigenvalues --    0.36870   0.37015   0.37045   0.37361   0.37646
  Beta virt. eigenvalues --    0.37763   0.38103   0.38340   0.38427   0.38584
  Beta virt. eigenvalues --    0.38668   0.38861   0.39071   0.39502   0.39577
  Beta virt. eigenvalues --    0.39728   0.40035   0.40058   0.40269   0.40462
  Beta virt. eigenvalues --    0.40685   0.40894   0.41167   0.41290   0.41408
  Beta virt. eigenvalues --    0.41538   0.41673   0.41746   0.42021   0.42179
  Beta virt. eigenvalues --    0.42274   0.42451   0.42675   0.42943   0.43107
  Beta virt. eigenvalues --    0.43436   0.43550   0.43630   0.43774   0.43959
  Beta virt. eigenvalues --    0.44181   0.44393   0.44474   0.44541   0.44765
  Beta virt. eigenvalues --    0.44854   0.45061   0.45280   0.45381   0.45454
  Beta virt. eigenvalues --    0.45589   0.45864   0.46118   0.46144   0.46222
  Beta virt. eigenvalues --    0.46462   0.46571   0.46647   0.46817   0.46974
  Beta virt. eigenvalues --    0.47129   0.47324   0.47573   0.47585   0.47779
  Beta virt. eigenvalues --    0.47945   0.48035   0.48167   0.48596   0.48624
  Beta virt. eigenvalues --    0.48743   0.49101   0.49387   0.49684   0.49728
  Beta virt. eigenvalues --    0.49963   0.50136   0.50348   0.50464   0.50669
  Beta virt. eigenvalues --    0.50940   0.51088   0.51269   0.51484   0.51588
  Beta virt. eigenvalues --    0.51672   0.51850   0.51993   0.52202   0.52260
  Beta virt. eigenvalues --    0.52464   0.52749   0.52805   0.53040   0.53238
  Beta virt. eigenvalues --    0.53245   0.53622   0.53690   0.54114   0.54348
  Beta virt. eigenvalues --    0.54364   0.54528   0.54738   0.54818   0.55226
  Beta virt. eigenvalues --    0.55452   0.55499   0.55647   0.55857   0.56019
  Beta virt. eigenvalues --    0.56542   0.56602   0.56925   0.57012   0.57215
  Beta virt. eigenvalues --    0.57281   0.57630   0.57987   0.58088   0.58299
  Beta virt. eigenvalues --    0.58658   0.58933   0.59056   0.59451   0.59594
  Beta virt. eigenvalues --    0.60077   0.60186   0.60239   0.60457   0.60523
  Beta virt. eigenvalues --    0.60600   0.61174   0.61438   0.61959   0.62094
  Beta virt. eigenvalues --    0.62241   0.62509   0.62675   0.62903   0.63067
  Beta virt. eigenvalues --    0.63497   0.63638   0.63911   0.64162   0.64392
  Beta virt. eigenvalues --    0.64492   0.64678   0.65230   0.65325   0.65634
  Beta virt. eigenvalues --    0.65866   0.66020   0.66148   0.66424   0.66933
  Beta virt. eigenvalues --    0.67356   0.67434   0.67816   0.67984   0.68354
[...]
  1750. RY*(   1) H  85                  0.00040     1.06877   
  1751. RY*(   2) H  85                  0.00006     2.11624   
  1752. RY*(   3) H  85                  0.00004     2.14893   
  1753. RY*(   4) H  85                  0.00003     1.66374   
  1754. RY*(   5) H  85                  0.00000     2.99791   
  1755. RY*(   1) H  86                  0.00037     0.98229   
  1756. RY*(   2) H  86                  0.00007     1.90802   
  1757. RY*(   3) H  86                  0.00005     1.97176   
  1758. RY*(   4) H  86                  0.00003     2.20223   
  1759. RY*(   5) H  86                  0.00000     3.04010   
  1760. RY*(   1) H  87                  0.00052     1.03580   
  1761. RY*(   2) H  87                  0.00008     1.66456   
  1762. RY*(   3) H  87                  0.00004     2.19592   
  1763. RY*(   4) H  87                  0.00002     2.09842   
  1764. RY*(   5) H  87                  0.00000     2.95726   
  1765. RY*(   1) H  88                  0.00029     1.13953   
  1766. RY*(   2) H  88                  0.00010     1.85834   
  1767. RY*(   3) H  88                  0.00003     2.12692   
  1768. RY*(   4) H  88                  0.00001     2.36289   
  1769. RY*(   5) H  88                  0.00002     2.57030   
  1770. RY*(   1) H  89                  0.00082     0.59656   
  1771. RY*(   2) H  89                  0.00010     2.37505   
  1772. RY*(   3) H  89                  0.00006     2.50231   
  1773. RY*(   4) H  89                  0.00003     2.43009   
  1774. RY*(   5) H  89                  0.00001     3.03424   
  1775. RY*(   1) H  90                  0.00044     1.62002   
  1776. RY*(   2) H  90                  0.00010     2.24567   
  1777. RY*(   3) H  90                  0.00005     2.37239   
  1778. RY*(   4) H  90                  0.00002     1.89260   
  1779. RY*(   5) H  90                  0.00000     3.04360   
  1780. RY*(   1) H  91                  0.00026     1.18375   
  1781. RY*(   2) H  91                  0.00005     1.61931   
  1782. RY*(   3) H  91                  0.00004     1.98860   
  1783. RY*(   4) H  91                  0.00004     2.08274   
  1784. RY*(   5) H  91                  0.00000     2.86790   
  1785. RY*(   1) H  92                  0.00030     1.14881   
  1786. RY*(   2) H  92                  0.00008     2.15199   
  1787. RY*(   3) H  92                  0.00006     1.44400   
  1788. RY*(   4) H  92                  0.00003     2.14805   
  1789. RY*(   5) H  92                  0.00000     2.92653   
  1790. RY*(   1) H  93                  0.00037     1.15993   
  1791. RY*(   2) H  93                  0.00007     1.97004   
  1792. RY*(   3) H  93                  0.00004     2.13114   
  1793. RY*(   4) H  93                  0.00002     1.83552   
  1794. RY*(   5) H  93                  0.00001     2.90423   
  1795. RY*(   1) H  94                  0.00034     1.12971   
  1796. RY*(   2) H  94                  0.00008     1.88282   
  1797. RY*(   3) H  94                  0.00003     2.21840   
  1798. RY*(   4) H  94                  0.00002     1.96724   
  1799. RY*(   5) H  94                  0.00000     2.90360   
  1800. RY*(   1) H  95                  0.00049     1.04170   
  1801. RY*(   2) H  95                  0.00008     1.68636   
  1802. RY*(   3) H  95                  0.00003     2.17097   
  1803. RY*(   4) H  95                  0.00002     2.09226   
  1804. RY*(   5) H  95                  0.00000     2.98622   
  1805. RY*(   1) H  96                  0.00029     1.21293   
  1806. RY*(   2) H  96                  0.00009     1.93021   
  1807. RY*(   3) H  96                  0.00002     1.88378   
  1808. RY*(   4) H  96                  0.00003     2.20029   
  1809. RY*(   5) H  96                  0.00000     2.94431   
  1810. RY*(   1) H  97                  0.00073     0.57951   
  1811. RY*(   2) H  97                  0.00007     2.33212   
  1812. RY*(   3) H  97                  0.00008     2.73181   
  1813. RY*(   4) H  97                  0.00007     2.46248   
  1814. RY*(   5) H  97                  0.00000     3.05174   
  1815. RY*(   1) H  98                  0.00052     1.25469   
  1816. RY*(   2) H  98                  0.00007     1.66664   
  1817. RY*(   3) H  98                  0.00007     2.53218   
  1818. RY*(   4) H  98                  0.00003     2.41744   
  1819. RY*(   5) H  98                  0.00001     3.15841   
  1820. RY*(   1) H  99                  0.00039     1.35778   
  1821. RY*(   2) H  99                  0.00009     2.16636   
  1822. RY*(   3) H  99                  0.00004     1.69783   
  1823. RY*(   4) H  99                  0.00003     2.33301   
  1824. RY*(   5) H  99                  0.00000     3.04861   
  1825. RY*(   1) H 100                  0.00045     1.34350   
  1826. RY*(   2) H 100                  0.00042     1.47214   
  1827. RY*(   3) H 100                  0.00022     1.99027   
  1828. RY*(   4) H 100                  0.00011     2.18178   
  1829. RY*(   5) H 100                  0.00001     3.25915   
  1830. RY*(   1) H 101                  0.00098     0.87043   
  1831. RY*(   2) H 101                  0.00027     2.10366   
  1832. RY*(   3) H 101                  0.00023     1.78516   
  1833. RY*(   4) H 101                  0.00010     2.10369   
  1834. RY*(   5) H 101                  0.00001     3.26227   
  1840. RY*(   1) H 103                  0.00035     1.82609   
  1841. RY*(   2) H 103                  0.00007     2.74540   
  1842. RY*(   3) H 103                  0.00007     2.47788   
  1843. RY*(   4) H 103                  0.00003     1.42838   
  1844. RY*(   5) H 103                  0.00001     2.94769   
  1859. BD*(   1) C   7 - C   8          0.00785     0.36208   
  1860. BD*(   1) C   7 - H  59          0.00349     0.42570   
  1861. BD*(   1) C   7 - H  60          0.00660     0.44155   
  1862. BD*(   1) C   7 - H  61          0.00470     0.45484   
  1863. BD*(   1) C   8 - S   9          0.04174     0.18393   
  1864. BD*(   1) C   8 - H  62          0.00616     0.41938   
  1865. BD*(   1) C   8 - H  63          0.00860     0.41266   
  1866. BD*(   1) S   9 - C  10          0.03692     0.18725   
  1867. BD*(   1) S   9 -Fe  53          0.04614     0.30628   
  1868. BD*(   1) C  10 - H  65          0.01528     0.38799   
  1869. BD*(   1) C  10 - H  66          0.02480     0.42211   
  1870. BD*(   1) C  11 - C  15          0.01204     0.57692   
  1871. BD*(   2) C  11 - C  15          0.22298     0.04076  1889(v),121(v),476(g)
                                                    1875(r),213(r)
  1872. BD*(   1) C  11 - C  42          0.01149     0.57446   
  1873. BD*(   1) C  11 - H  67          0.00684     0.44239   
  1874. BD*(   1) C  12 - C  18          0.01154     0.58928   
  1875. BD*(   2) C  12 - C  18          0.20366     0.04916  1889(v),1909(v),121(v)
                                                    502(g),213(r),662(g),1871(r)
  1876. BD*(   1) C  12 - C  25          0.01101     0.58761   
  1877. BD*(   1) C  12 - H  68          0.00722     0.45023   
  1878. BD*(   1) C  13 - C  28          0.01086     0.58603   
  1879. BD*(   1) C  13 - C  32          0.01138     0.57712   
  1880. BD*(   2) C  13 - C  32          0.20825     0.04768  1928(v),528(g),1883(r)
                                                    1023(g)
  1881. BD*(   1) C  13 - H  69          0.00698     0.45401   
  1882. BD*(   1) C  14 - C  35          0.01184     0.59572   
  1883. BD*(   2) C  14 - C  35          0.20645     0.05166  1928(v),1944(v),554(g)
                                                    1880(r),1101(g)
  1884. BD*(   1) C  14 - C  39          0.01132     0.59506   
  1885. BD*(   1) C  14 - H  70          0.00770     0.45219   
  1886. BD*(   1) C  15 - C  16          0.01613     0.58121   
  1887. BD*(   1) C  15 - N  49          0.01449     0.53234   
  1888. BD*(   1) C  16 - C  17          0.01182     0.57573   
  1889. BD*(   2) C  16 - C  17          0.14386     0.05974  1875(v),1871(v),1897(v)
                                                    1895(v),1896(v)
  1890. BD*(   1) C  16 - C  20          0.01249     0.41561   
  1891. BD*(   1) C  17 - C  18          0.01494     0.59007   
  1892. BD*(   1) C  17 - C  19          0.00897     0.39168   
  1893. BD*(   1) C  18 - N  49          0.01460     0.52417   
  1894. BD*(   1) C  19 - H  71          0.00334     0.41161   
  1895. BD*(   1) C  19 - H  72          0.00523     0.40483   
  1896. BD*(   1) C  19 - H  73          0.00370     0.40769   
  1897. BD*(   1) C  20 - C  21          0.00837     0.37213   
  1898. BD*(   1) C  20 - H  74          0.00799     0.39345   
  1899. BD*(   1) C  20 - H  75          0.00687     0.40472   
  1900. BD*(   1) C  21 - C  22          0.03674     0.34473   
  1901. BD*(   1) C  21 - H  76          0.00535     0.39442   
  1902. BD*(   1) C  21 - H  77          0.00581     0.39093   
  1903. BD*(   1) C  22 - O  23          0.03045     0.52495   
  1904. BD*(   1) C  22 - O  24          0.02568     0.45012   
  1905. BD*(   2) C  22 - O  24          0.08853     0.02290   
  1906. BD*(   1) O  23 - H 100          0.00832     0.36099   
  1907. BD*(   1) C  25 - C  26          0.01507     0.56727   
  1908. BD*(   1) C  25 - N  50          0.01397     0.52511   
  1909. BD*(   2) C  25 - N  50          0.31228     0.02192  1875(v),1911(v),842(g)
                                                    211(r),1491(g),502(v),207(r)
                                                    843(g)
  1910. BD*(   1) C  26 - C  27          0.01152     0.56157   
  1911. BD*(   2) C  26 - C  27          0.15746     0.06150  1909(v),1919(v),1916(v)
                                                    1917(v),1920(v)
  1912. BD*(   1) C  26 - C  29          0.00868     0.39838   
  1913. BD*(   1) C  27 - C  28          0.01523     0.55785   
  1914. BD*(   1) C  27 - C  30          0.01131     0.40820   
  1915. BD*(   1) C  28 - N  50          0.01392     0.52203   
  1916. BD*(   1) C  29 - H  78          0.00537     0.41112   
  1917. BD*(   1) C  29 - H  79          0.00481     0.40994   
  1918. BD*(   1) C  29 - H  80          0.00291     0.41840   
  1919. BD*(   1) C  30 - C  31          0.00502     0.36896   
  1920. BD*(   1) C  30 - H  81          0.00721     0.39914   
  1921. BD*(   1) C  30 - H  82          0.00543     0.40797   
  1922. BD*(   1) C  31 - H  83          0.00289     0.41570   
  1923. BD*(   1) C  31 - H  84          0.00267     0.41498   
  1924. BD*(   1) C  31 - H  85          0.00340     0.41864   
  1925. BD*(   1) C  32 - C  33          0.01505     0.57107   
  1926. BD*(   1) C  32 - N  51          0.01398     0.52993   
  1927. BD*(   1) C  33 - C  34          0.01163     0.57228   
  1928. BD*(   2) C  33 - C  34          0.13925     0.06423  1883(v),1880(v),1934(v)
                                                    1936(v),1937(v)
  1929. BD*(   1) C  33 - C  36          0.00875     0.39477   
  1930. BD*(   1) C  34 - C  35          0.01458     0.59499   
  1931. BD*(   1) C  34 - C  37          0.01167     0.40003   
  1932. BD*(   1) C  35 - N  51          0.01466     0.53078   
  1933. BD*(   1) C  36 - H  86          0.00323     0.41862   
  1934. BD*(   1) C  36 - H  87          0.00532     0.40883   
  1935. BD*(   1) C  36 - H  88          0.00302     0.41276   
  1936. BD*(   1) C  37 - C  38          0.00485     0.36914   
  1937. BD*(   1) C  37 - H  89          0.00685     0.40122   
  1938. BD*(   1) C  37 - H  90          0.00575     0.40899   
  1939. BD*(   1) C  38 - H  91          0.00331     0.41768   
  1940. BD*(   1) C  38 - H  92          0.00306     0.41208   
  1941. BD*(   1) C  38 - H  93          0.00367     0.41752   
  1942. BD*(   1) C  39 - C  40          0.01523     0.56666   
  1943. BD*(   1) C  39 - N  52          0.01501     0.50317   
  1944. BD*(   2) C  39 - N  52          0.32840     0.01215  1883(v),1946(v),211(r)
                                                    1206(g),1543(g),554(v)
                                                    1205(g),1207(g),207(r)
                                                    208(r),1862(r),1855(r)
  1945. BD*(   1) C  40 - C  41          0.01154     0.57355   
  1946. BD*(   2) C  40 - C  41          0.15724     0.06000  1944(v),1954(v),1952(v)
                                                    1951(v),1955(v)
  1947. BD*(   1) C  40 - C  43          0.00882     0.39420   
  1948. BD*(   1) C  41 - C  42          0.01556     0.56320   
  1949. BD*(   1) C  41 - C  44          0.01189     0.41204   
  1950. BD*(   1) C  42 - N  52          0.01442     0.50791   
  1951. BD*(   1) C  43 - H  94          0.00326     0.41268   
  1952. BD*(   1) C  43 - H  95          0.00544     0.40921   
  1953. BD*(   1) C  43 - H  96          0.00310     0.41428   
  1954. BD*(   1) C  44 - C  45          0.00715     0.36123   
  1955. BD*(   1) C  44 - H  97          0.00740     0.40444   
  1956. BD*(   1) C  44 - H 103          0.00647     0.42336   
  1957. BD*(   1) C  45 - C  46          0.02991     0.32612   
  1958. BD*(   1) C  45 - H  98          0.00613     0.38933   
  1959. BD*(   1) C  45 - H  99          0.00520     0.38384   
  1960. BD*(   1) C  46 - O  47          0.02884     0.51332   
  1961. BD*(   1) C  46 - O  48          0.02475     0.41152   
  1962. BD*(   2) C  46 - O  48          0.12636     0.02077  1961(g),1959(v),1388(g)
  1963. BD*(   1) O  47 - H 101          0.00799     0.37556   
       -------------------------------
              Total Lewis  176.57589  ( 97.0981%)
        Valence non-Lewis    4.92106  (  2.7061%)
        Rydberg non-Lewis    0.35619  (  0.1959%)
       -------------------------------
            Total unit  2  181.85313  (100.0000%)
           Charge unit  2    1.64687

 Molecular unit  3  (H)
   213. LP*(   1) H  64                  0.29503     0.05595  1866(r),1868(r),1869(r)
                                                    1645(g),1875(r),1646(g)
                                                    1647(g),1648(g),1863(r)
                                                    453(r),467(r),457(r),1649(g)
                                                    455(r),465(r),1867(r),422(r)
                                                    466(r),475(r),461(r),212(r)
                                                    456(r),1650(r),208(r)
                                                    1655(r),207(r),1864(r)
                                                    1871(r),425(r),472(r),473(r)
                                                    450(r),1861(r),468(r),462(r)
                                                    121(r),1568(r),458(r),469(r)
                                                    211(r),427(r),582(r),474(r)
                                                    1653(r),659(r),463(r)
                                                    1465(r),1652(r),633(r)
  1645. RY*(   1) H  64                  0.00040     1.64268   
  1646. RY*(   2) H  64                  0.00016     2.23452   
  1647. RY*(   3) H  64                  0.00012     2.33777   
  1648. RY*(   4) H  64                  0.00003     1.26926   
  1649. RY*(   5) H  64                  0.00001     3.13709   
       -------------------------------
              Total Lewis    0.00000  (  0.0000%)
        Valence non-Lewis    0.29503  ( 99.7589%)
        Rydberg non-Lewis    0.00071  (  0.2411%)
       -------------------------------
            Total unit  3    0.29575  (100.0000%)
           Charge unit  3    0.20425
 1\1\GINC-NODE488\SP\UPBE1PBE\def2TZVP\C41H50Fe1N6O4S1(5)\KLEICH\21-Sep
 -2022\0\\# PBE1PBE/def2TZVP empiricaldispersion=GD3BJ int=(grid=ultraf
 ine) geom=check pop=nbo\\451c_II_Q\\0,5\C,0,10.502,-8.068,15.869\C,0,1
 0.644,-9.486,16.397\N,0,11.619,-10.33,15.982\C,0,9.793,-10.187,17.233\
 C,0,11.389,-11.544,16.547\N,0,10.269,-11.46,17.324\C,0,9.895,-15.821,2
 1.142\C,0,8.597,-15.027,20.951\S,0,8.145,-14.71,19.221\C,0,8.329,-16.2
 9,18.364\C,0,11.705,-15.239,17.133\C,0,7.601,-13.454,15.352\C,0,6.884,
 -11.032,19.466\C,0,11.276,-12.321,20.96\C,0,10.634,-14.991,16.299\C,0,
 10.451,-15.547,15.05\C,0,9.297,-14.993,14.516\C,0,8.779,-14.157,15.475
 \C,0,8.679,-15.258,13.158\C,0,11.329,-16.591,14.424\C,0,10.903,-17.937
 ,14.962\C,0,11.76,-19.039,14.369\O,0,12.509,-18.781,13.431\O,0,11.265,
 -20.229,14.446\C,0,7.048,-12.619,16.3\C,0,5.816,-11.979,16.18\C,0,5.55
 8,-11.35,17.403\C,0,6.695,-11.546,18.199\C,0,4.912,-12.026,14.967\C,0,
 4.299,-10.621,17.829\C,0,3.091,-11.541,17.981\C,0,8.016,-11.19,20.251\
 C,0,8.243,-10.559,21.468\C,0,9.57,-10.805,21.808\C,0,10.044,-11.718,20
 .897\C,0,7.266,-9.649,22.19\C,0,10.391,-10.166,22.92\C,0,9.85,-10.474,
 24.312\C,0,11.754,-13.25,20.069\C,0,12.959,-13.93,20.212\C,0,13.04,-14
 .833,19.16\C,0,11.929,-14.616,18.347\C,0,13.966,-13.748,21.33\C,0,14.1
 27,-15.851,18.915\C,0,13.727,-17.251,19.352\C,0,14.825,-18.245,18.978\
 O,0,14.505,-19.418,18.767\O,0,16.095,-17.97,19.199\N,0,9.61,-14.148,16
 .551\N,0,7.581,-12.332,17.521\N,0,9.124,-11.898,19.917\N,0,11.12,-13.6
 76,18.928\Fe,0,9.397,-12.981,18.23\H,0,10.46839937,-7.38321688,16.6904
 8833\H,0,11.33864153,-7.83463157,15.24412391\H,0,9.59898282,-7.9877968
 8,15.30064498\H,0,8.9214689,-9.80030703,17.71859457\H,0,11.98631983,-1
 2.42056673,16.40650162\H,0,9.93600409,-16.20256592,22.14081235\H,0,9.9
 2062521,-16.63493896,20.44792023\H,0,10.7340315,-15.17949718,20.970534
 91\H,0,8.78164574,-14.06499607,21.38152804\H,0,7.81889627,-15.64813452
 ,21.34297768\H,0,8.16163485,-16.56876805,17.34459955\H,0,7.26503222,-1
 6.18494868,18.32114241\H,0,9.11663949,-15.73815759,17.89496483\H,0,12.
 41809298,-15.97079501,16.8153926\H,0,7.06380432,-13.56644186,14.433480
 74\H,0,6.082081,-10.45802045,19.88117875\H,0,11.91684591,-12.04392441,
 21.77083021\H,0,8.01519655,-14.45755894,12.90589072\H,0,8.13331632,-16
 .17791224,13.18784625\H,0,9.45211529,-15.3256462,12.42137477\H,0,12.32
 555659,-16.41399773,14.77105211\H,0,11.11994637,-16.59058764,13.374620
 94\H,0,9.90576196,-18.10397519,14.61194919\H,0,11.10614254,-17.9240994
 ,16.01246022\H,0,4.00909843,-12.54388128,15.21492686\H,0,4.67779859,-1
 1.02876108,14.65786535\H,0,5.41001715,-12.53858445,14.17067337\H,0,4.0
 6080585,-9.9526977,17.02804084\H,0,4.49931467,-10.23464658,18.80649939
 \H,0,2.96060595,-11.79086025,19.01321473\H,0,2.21532461,-11.04222675,1
 7.62139208\H,0,3.25006128,-12.43498544,17.41497038\H,0,7.47253986,-9.6
 6521916,23.23975151\H,0,7.37008572,-8.64989614,21.82141128\H,0,6.26665
 029,-9.99039139,22.01780223\H,0,10.29013206,-9.10857362,22.79125564\H,
 0,11.35824964,-10.62097146,22.87173917\H,0,10.66240104,-10.52973498,25
 .00611682\H,0,9.17663336,-9.69866705,24.61255978\H,0,9.33134476,-11.40
 972222,24.29409274\H,0,14.37868432,-14.69855006,21.596545\H,0,14.75007
 586,-13.09821715,21.00150755\H,0,13.48016448,-13.31874393,22.1812362\H
 ,0,14.35511297,-15.86763035,17.8697307\H,0,12.86341159,-17.51692048,18
 .77893686\H,0,13.67629946,-17.23670871,20.42070258\H,0,13.46058197,-18
 .81464202,13.55331092\H,0,15.18347647,-20.08644009,18.64676056\H,0,12.
 37438365,-10.10014482,15.3683534\H,0,15.00273251,-15.55772375,19.45535
 324\\Version=ES64L-G16RevA.03\State=5-A\HF=-3881.6318907\S2=6.224572\S
 2-1=0.\S2A=6.002096\RMSD=2.299e-09\Dipole=0.612829,2.8988218,-1.211414
 8\Quadrupole=-1.1955027,-8.4422629,9.6377656,-3.0146431,-10.6760425,-9
 .5152546\PG=C01 [X(C41H50Fe1N6O4S1)]\\@


 A MAN IS NEVER SO BRILLIANT AS WHEN HE TAKES THE WORDS RIGHT OUT
 OF YOUR MOUTH. -- ARNOT SHEPPARD, JR.
 Job cpu time:       7 days 19 hours 10 minutes 46.9 seconds.
 Elapsed time:       1 days 22 hours 58 minutes  2.4 seconds.
 File lengths (MBytes):  RWF=   3538 Int=      0 D2E=      0 Chk=    310 Scr=      1
 Normal termination of Gaussian 16 at Wed Sep 21 16:08:50 2022.
