 Entering Gaussian System, Link 0=g16
 Input=/net/work/kleich/bench/splitthejobs/7abb/7abb12/7abb12.com
 Output=/net/work/kleich/bench/splitthejobs/7abb/7abb12/7abb12.log
 Initial command:
 /afs/math/software/gaussian/g16.A03/g16/l1.exe "/scratch/kleich_gaussian.ZSq3lUf/Gau-27263.inp" -scrdir="/scratch/kleich_gaussian.ZSq3lUf/"
 Entering Link 1 = /afs/math/software/gaussian/g16.A03/g16/l1.exe PID=     27264.
  
 Copyright (c) 1988,1990,1992,1993,1995,1998,2003,2009,2016,
            Gaussian, Inc.  All Rights Reserved.
  
 This is part of the Gaussian(R) 16 program.  It is based on
 the Gaussian(R) 09 system (copyright 2009, Gaussian, Inc.),
 the Gaussian(R) 03 system (copyright 2003, Gaussian, Inc.),
 the Gaussian(R) 98 system (copyright 1998, Gaussian, Inc.),
 the Gaussian(R) 94 system (copyright 1995, Gaussian, Inc.),
 the Gaussian 92(TM) system (copyright 1992, Gaussian, Inc.),
 the Gaussian 90(TM) system (copyright 1990, Gaussian, Inc.),
 the Gaussian 88(TM) system (copyright 1988, Gaussian, Inc.),
 the Gaussian 86(TM) system (copyright 1986, Carnegie Mellon
 University), and the Gaussian 82(TM) system (copyright 1983,
 Carnegie Mellon University). Gaussian is a federally registered
 trademark of Gaussian, Inc.
  
 This software contains proprietary and confidential information,
 including trade secrets, belonging to Gaussian, Inc.
  
 This software is provided under written license and may be
 used, copied, transmitted, or stored only in accord with that
 written license.
  
 The following legend is applicable only to US Government
 contracts under FAR:
  
                    RESTRICTED RIGHTS LEGEND
  
 Use, reproduction and disclosure by the US Government is
 subject to restrictions as set forth in subparagraphs (a)
 and (c) of the Commercial Computer Software - Restricted
 Rights clause in FAR 52.227-19.
  
 Gaussian, Inc.
 340 Quinnipiac St., Bldg. 40, Wallingford CT 06492
  
  
 ---------------------------------------------------------------
 Warning -- This program may not be used in any manner that
 competes with the business of Gaussian, Inc. or will provide
 assistance to any competitor of Gaussian, Inc.  The licensee
 of this program is prohibited from giving any competitor of
 Gaussian, Inc. access to this program.  By using this program,
 the user acknowledges that Gaussian, Inc. is engaged in the
 business of creating and licensing software in the field of
 computational chemistry and represents and warrants to the
 licensee that it is not a competitor of Gaussian, Inc. and that
 it will not use this program in any manner prohibited above.
 ---------------------------------------------------------------
  

 Cite this work as:
 Gaussian 16, Revision A.03,
 M. J. Frisch, G. W. Trucks, H. B. Schlegel, G. E. Scuseria, 
 M. A. Robb, J. R. Cheeseman, G. Scalmani, V. Barone, 
 G. A. Petersson, H. Nakatsuji, X. Li, M. Caricato, A. V. Marenich, 
 J. Bloino, B. G. Janesko, R. Gomperts, B. Mennucci, H. P. Hratchian, 
 J. V. Ortiz, A. F. Izmaylov, J. L. Sonnenberg, D. Williams-Young, 
 F. Ding, F. Lipparini, F. Egidi, J. Goings, B. Peng, A. Petrone, 
 T. Henderson, D. Ranasinghe, V. G. Zakrzewski, J. Gao, N. Rega, 
 G. Zheng, W. Liang, M. Hada, M. Ehara, K. Toyota, R. Fukuda, 
 J. Hasegawa, M. Ishida, T. Nakajima, Y. Honda, O. Kitao, H. Nakai, 
 T. Vreven, K. Throssell, J. A. Montgomery, Jr., J. E. Peralta, 
 F. Ogliaro, M. J. Bearpark, J. J. Heyd, E. N. Brothers, K. N. Kudin, 
 V. N. Staroverov, T. A. Keith, R. Kobayashi, J. Normand, 
 K. Raghavachari, A. P. Rendell, J. C. Burant, S. S. Iyengar, 
 J. Tomasi, M. Cossi, J. M. Millam, M. Klene, C. Adamo, R. Cammi, 
 J. W. Ochterski, R. L. Martin, K. Morokuma, O. Farkas, 
 J. B. Foresman, and D. J. Fox, Gaussian, Inc., Wallingford CT, 2016.
 
 ******************************************
 Gaussian 16:  ES64L-G16RevA.03 25-Dec-2016
                11-Sep-2022 
 ******************************************
 %nprocs=12
 Will use up to   12 processors via shared memory.
 %mem=16GB
 %oldchk=7abb_II_S.chk
 %chk=7abb_III_D.chk
 Copying data from "7abb_II_S.chk" to current chk file "7abb_III_D.chk"
 IOpt=  2 FromEx=T IUOpen= 4 IOptOp= 5 NList=   0 IFRang= 0 IUIn= 4 IUOut= 2.
 ----------------------------------------------------------------------
 # PBE1PBE/def2TZVP empiricaldispersion=GD3BJ int=(grid=ultrafine) geom
 =check pop=nbo
 ----------------------------------------------------------------------
 1/29=2,38=1,172=1/1;
 2/12=2,40=1/2;
 3/5=44,7=101,11=2,14=-4,25=1,30=1,74=-13,75=-5,124=41/1,2,3;
 4//1;
 5/5=2,38=5/2;
 6/7=2,8=2,9=2,10=2,28=1,40=1/1,7;
 99/5=1,9=1/99;
 ----------
 7abb_III_D
 ----------
 Structure from the checkpoint file:  "7abb_III_D.chk"
 Charge =  1 Multiplicity = 2
 Z-Matrix found in chk file.
 C,0,19.013,33.007,0.
 S,0,17.62,31.94,-0.421
 H,0,19.81865645,32.82697525,-0.68074134
 H,0,19.33539499,32.7954738,0.99810728
 Fe,0,17.27331395,31.37270864,-2.48664501
 C,0,18.753,34.761,-3.605
 C,0,20.928,30.569,-2.703
 C,0,16.619,28.513,-1.706
 C,0,14.422,32.593,-3.008
 N,0,19.451,32.483,-3.087
 C,0,19.714,33.814,-3.411
 C,0,21.136,34.059,-3.537
 C,0,21.722,32.878,-3.27
 C,0,20.699,31.899,-2.995
 C,0,23.225,32.546,-3.277
 C,0,21.834,35.427,-3.866
 C,0,22.008,35.691,-5.356
 C,0,22.739,37.007,-5.561
 O,0,22.829,37.384,-6.752
 O,0,23.192,37.61,-4.553
 N,0,18.581,29.871,-2.336
 C,0,19.945,29.644,-2.353
 C,0,20.162,28.294,-1.927
 C,0,18.973,27.739,-1.629
 C,0,17.963,28.702,-1.902
 C,0,21.586,27.712,-1.824
 C,0,18.56,26.368,-1.159
 C,0,19.643,25.496,-0.611
 N,0,15.858,30.73,-2.443
 C,0,15.657,29.463,-1.945
 C,0,14.248,29.26,-1.738
 C,0,13.604,30.396,-2.089
 C,0,14.618,31.315,-2.552
 C,0,13.652,27.967,-1.178
 C,0,12.107,30.747,-2.11
 C,0,11.13,29.935,-1.26
 N,0,16.783,33.33,-3.227
 C,0,15.399,33.495,-3.284
 C,0,15.133,34.842,-3.68
 C,0,16.438,35.53,-3.875
 C,0,17.419,34.518,-3.549
 C,0,13.737,35.445,-3.881
 C,0,16.692,36.984,-4.309
 C,0,16.819,37.819,-3.058
 C,0,17.174,39.248,-3.421
 O,0,17.04,40.138,-2.554
 O,0,17.585,39.463,-4.579
 H,0,19.045,35.677,-3.797
 H,0,21.854,30.25,-2.744
 H,0,16.324,27.639,-1.373
 H,0,13.495,32.881,-3.147
 H,0,23.496,32.239,-2.387
 H,0,23.735,33.348,-3.515
 H,0,23.4,31.841,-3.935
 H,0,22.709,35.435,-3.447
 H,0,21.303,36.144,-3.486
 H,0,21.136,35.736,-5.78
 H,0,22.522,34.971,-5.754
 H,0,21.665,26.946,-2.414
 H,0,21.757,27.436,-0.91
 H,0,22.231,28.388,-2.083
 H,0,18.11075906,25.85713126,-1.98489086
 H,0,20.317,25.351,-1.294
 H,0,19.267,24.644,-0.341
 H,0,20.049,25.929,0.157
 H,0,13.04,27.586,-1.827
 H,0,13.174,28.16,-0.357
 H,0,14.365,27.335,-0.997
 H,0,12.01595685,31.76985339,-1.80936387
 H,0,10.686,30.522,-0.628
 H,0,11.615,29.248,-0.777
 H,0,10.468,29.52,-1.835
 H,0,13.617,36.201,-3.27
 H,0,13.057,34.764,-3.696
 H,0,13.646,35.755,-4.806
 H,0,15.948,37.303,-4.843
 H,0,17.513,37.036,-4.824
 H,0,17.515,37.448,-2.494
 H,0,15.976,37.809,-2.578
 H,0,23.69272672,37.51045236,-7.15148211
 H,0,18.52811134,39.49572655,-4.75526675
 H,0,11.77832945,30.67761529,-3.12590424
 H,0,17.81714643,26.48941115,-0.39852126
 H,0,18.71094992,34.03124546,-0.06772734
 H,0,16.81801705,31.50785892,0.52036998
 Recover connectivity data from disk.
 Stoichiometry    C35H40FeN4O4S(1+,2)
 Framework group  C1[X(C35H40FeN4O4S)]
 Deg. of freedom   249
 Full point group                 C1      NOp   1
 Largest Abelian subgroup         C1      NOp   1
 Largest concise Abelian subgroup C1      NOp   1
                         Standard orientation:                         
 ---------------------------------------------------------------------
 Center     Atomic      Atomic             Coordinates (Angstroms)
 Number     Number       Type             X           Y           Z
 ---------------------------------------------------------------------
      1          6           0       -0.046732   -0.771680    2.872277
      2         16           0       -1.374019    0.097309    2.012425
      3          1           0        0.289432   -1.591873    2.272962
      4          1           0       -0.409708   -1.139714    3.809134
      5         26           0       -1.393013    0.175637   -0.156078
      6          6           0        2.469015    0.105011   -0.134809
      7          6           0       -0.702768   -3.508412   -0.127255
      8          6           0       -4.387103   -0.315051   -0.256680
      9          6           0       -1.204393    3.271073   -0.679160
     10          7           0        0.560297   -1.411816   -0.163794
     11          6           0        1.927066   -1.144679   -0.084506
     12          6           0        2.700368   -2.363466    0.036107
     13          6           0        1.793213   -3.356639    0.047244
     14          6           0        0.473821   -2.787405   -0.078344
     15          6           0        2.051625   -4.871381    0.137036
     16          6           0        4.260308   -2.483431    0.174182
     17          6           0        4.996020   -2.558529   -1.157418
     18          6           0        6.485577   -2.727630   -0.910710
     19          8           0        7.202252   -2.678361   -1.936702
     20          8           0        6.886589   -2.901902    0.269841
     21          7           0       -2.285205   -1.608310   -0.252991
     22          6           0       -1.981957   -2.954429   -0.161782
     23          6           0       -3.220073   -3.670605   -0.089486
     24          6           0       -4.232574   -2.784444   -0.100024
     25          6           0       -3.671135   -1.484246   -0.227574
     26          6           0       -3.243681   -5.207673    0.028720
     27          6           0       -5.732514   -2.927017   -0.069017
     28          6           0       -6.267946   -4.256441    0.354683
     29          7           0       -2.490748    1.233963   -0.461067
     30          6           0       -3.829611    0.936224   -0.349303
     31          6           0       -4.584944    2.160107   -0.379665
     32          6           0       -3.713975    3.188509   -0.490274
     33          6           0       -2.395456    2.602370   -0.561507
     34          6           0       -6.109437    2.217437   -0.264343
     35          6           0       -3.945168    4.704736   -0.600992
     36          6           0       -5.269714    5.302264   -0.126744
     37          7           0        0.373989    1.374724   -0.399832
     38          6           0        0.030492    2.714569   -0.580823
     39          6           0        1.239206    3.475123   -0.631299
     40          6           0        2.381195    2.534373   -0.472415
     41          6           0        1.750275    1.242614   -0.310919
     42          6           0        1.320466    4.993381   -0.834072
     43          6           0        3.885682    2.856041   -0.466407
     44          6           0        4.300751    3.074676    0.968261
     45          6           0        5.799170    3.294304    1.047876
     46          8           0        6.280523    3.770718    2.098150
     47          8           0        6.480444    2.985312    0.049627
     48          1           0        3.441085    0.186790   -0.036949
     49          1           0       -0.633804   -4.486192   -0.137642
     50          1           0       -5.364731   -0.376313   -0.208931
     51          1           0       -1.248058    4.235840   -0.849197
     52          1           0        1.617417   -5.230010    0.938683
     53          1           0        3.016294   -5.035195    0.187300
     54          1           0        1.687021   -5.311970   -0.658928
     55          1           0        4.463806   -3.282984    0.684627
     56          1           0        4.587267   -1.712837    0.663807
     57          1           0        4.841886   -1.741358   -1.658077
     58          1           0        4.665500   -3.314794   -1.667143
     59          1           0       -3.717274   -5.582474   -0.730444
     60          1           0       -3.694149   -5.461825    0.849268
     61          1           0       -2.334717   -5.544860    0.041827
     62          1           0       -6.104464   -2.718677   -1.050417
     63          1           0       -5.948325   -4.941688   -0.253650
     64          1           0       -7.237200   -4.235182    0.338135
     65          1           0       -5.963499   -4.455558    1.254580
     66          1           0       -6.478346    2.627966   -1.062013
     67          1           0       -6.355683    2.741891    0.512886
     68          1           0       -6.460104    1.317888   -0.172694
     69          1           0       -3.163941    5.186527   -0.051028
     70          1           0       -5.099976    5.945229    0.579595
     71          1           0       -5.841275    4.595172    0.210628
     72          1           0       -5.708724    5.746624   -0.868977
     73          1           0        1.764054    5.402382   -0.062576
     74          1           0        0.416096    5.360116   -0.923545
     75          1           0        1.833441    5.186720   -1.646157
     76          1           0        4.052672    3.659589   -0.983009
     77          1           0        4.383479    2.113003   -0.843319
     78          1           0        4.061463    2.295686    1.493684
     79          1           0        3.842306    3.853824    1.320263
     80          1           0        7.747368   -3.430832   -2.178023
     81          1           0        6.906062    2.125910    0.006291
     82          1           0       -3.827262    4.970022   -1.630857
     83          1           0       -6.120962   -2.186493    0.598541
     84          1           0        0.767117   -0.098735    3.044599
     85          1           0       -2.326119    0.680880    2.697296
 ---------------------------------------------------------------------
 Rotational constants (GHZ):           0.0850304           0.0492264           0.0333862
 Standard basis: def2TZVP (5D, 7F)
 There are  1882 symmetry adapted cartesian basis functions of A   symmetry.
 There are  1655 symmetry adapted basis functions of A   symmetry.
  1655 basis functions,  2684 primitive gaussians,  1882 cartesian basis functions
   176 alpha electrons      175 beta electrons
       nuclear repulsion energy      6677.6833482244 Hartrees.
 NAtoms=   85 NActive=   85 NUniq=   85 SFac= 1.00D+00 NAtFMM=   60 NAOKFM=T Big=T
 Integral buffers will be    131072 words long.
 Raffenetti 2 integral format.
 Two-electron integral symmetry is turned on.
 Nuclear repulsion after empirical dispersion term =     6677.5623959797 Hartrees.
 One-electron integrals computed using PRISM.
   1 Symmetry operations used in ECPInt.
 ECPInt:  NShTT=  218791 NPrTT=  678027 LenC2=  156768 LenP2D=  317269.
 LDataN:  DoStor=T MaxTD1= 6 Len=  172
 NBasis=  1655 RedAO= T EigKep=  3.02D-06  NBF=  1655
 NBsUse=  1655 1.00D-06 EigRej= -1.00D+00 NBFU=  1655
 ExpMin= 4.20D-02 ExpMax= 3.01D+05 ExpMxC= 2.91D+03 IAcc=3 IRadAn=         5 AccDes= 0.00D+00
 Harris functional with IExCor= 1009 and IRadAn=       5 diagonalized for initial guess.
 HarFok:  IExCor= 1009 AccDes= 0.00D+00 IRadAn=         5 IDoV= 1 UseB2=F ITyADJ=14
 ICtDFT=  3500011 ScaDFX=  1.000000  1.000000  1.000000  1.000000
 FoFCou: FMM=F IPFlag=           0 FMFlag=      100000 FMFlg1=        2001
         NFxFlg=           0 DoJE=T BraDBF=F KetDBF=T FulRan=T
         wScrn=  0.000000 ICntrl=       500 IOpCl=  0 I1Cent=   200000004 NGrid=           0
         NMat0=    1 NMatS0=      1 NMatT0=    0 NMatD0=    1 NMtDS0=    0 NMtDT0=    0
 Petite list used in FoFCou.
 Initial guess <Sx>= 0.0000 <Sy>= 0.0000 <Sz>= 0.5000 <S**2>= 0.7500 S= 0.5000
 Requested convergence on RMS density matrix=1.00D-08 within 128 cycles.
 Requested convergence on MAX density matrix=1.00D-06.
 Requested convergence on             energy=1.00D-06.
 No special actions if energy rises.
 EnCoef did    24 forward-backward iterations
 EnCoef did   100 forward-backward iterations
 EnCoef did    10 forward-backward iterations
 Restarting incremental Fock formation.
 Restarting incremental Fock formation.
 Restarting incremental Fock formation.
 Restarting incremental Fock formation.
 SCF Done:  E(UPBE1PBE) =  -3537.30363934     A.U. after   90 cycles
            NFock= 90  Conv=0.35D-09     -V/T= 2.0014
 <Sx>= 0.0000 <Sy>= 0.0000 <Sz>= 0.5000 <S**2>= 0.8571 S= 0.5522
 <L.S>= 0.000000000000E+00
 Annihilation of the first spin contaminant:
 S**2 before annihilation     0.8571,   after     0.7545

 **********************************************************************

            Population analysis using the SCF density.

 **********************************************************************

 Orbital symmetries:
 Alpha Orbitals:
       Occupied  (A) (A) (A) (A) (A) (A) (A) (A) (A) (A) (A) (A)
                 (A) (A) (A) (A) (A) (A) (A) (A) (A) (A) (A) (A)
                 (A) (A) (A) (A) (A) (A) (A) (A) (A) (A) (A) (A)
                 (A) (A) (A) (A) (A) (A) (A) (A) (A) (A) (A) (A)
                 (A) (A) (A) (A) (A) (A) (A) (A) (A) (A) (A) (A)
                 (A) (A) (A) (A) (A) (A) (A) (A) (A) (A) (A) (A)
                 (A) (A) (A) (A) (A) (A) (A) (A) (A) (A) (A) (A)
                 (A) (A) (A) (A) (A) (A) (A) (A) (A) (A) (A) (A)
                 (A) (A) (A) (A) (A) (A) (A) (A) (A) (A) (A) (A)
                 (A) (A) (A) (A) (A) (A) (A) (A) (A) (A) (A) (A)
                 (A) (A) (A) (A) (A) (A) (A) (A) (A) (A) (A) (A)
                 (A) (A) (A) (A) (A) (A) (A) (A) (A) (A) (A) (A)
                 (A) (A) (A) (A) (A) (A) (A) (A) (A) (A) (A) (A)
                 (A) (A) (A) (A) (A) (A) (A) (A) (A) (A) (A) (A)
                 (A) (A) (A) (A) (A) (A) (A) (A)
       Virtual   (A) (A) (A) (A) (A) (A) (A) (A) (A) (A) (A) (A)
                 (A) (A) (A) (A) (A) (A) (A) (A) (A) (A) (A) (A)
                 (A) (A) (A) (A) (A) (A) (A) (A) (A) (A) (A) (A)
                 (A) (A) (A) (A) (A) (A) (A) (A) (A) (A) (A) (A)
                 (A) (A) (A) (A) (A) (A) (A) (A) (A) (A) (A) (A)
                 (A) (A) (A) (A) (A) (A) (A) (A) (A) (A) (A) (A)
                 (A) (A) (A) (A) (A) (A) (A) (A) (A) (A) (A) (A)
                 (A) (A) (A) (A) (A) (A) (A) (A) (A) (A) (A) (A)
                 (A) (A) (A) (A) (A) (A) (A) (A) (A) (A) (A) (A)
                 (A) (A) (A) (A) (A) (A) (A) (A) (A) (A) (A) (A)
                 (A) (A) (A) (A) (A) (A) (A) (A) (A) (A) (A) (A)
                 (A) (A) (A) (A) (A) (A) (A) (A) (A) (A) (A) (A)
                 (A) (A) (A) (A) (A) (A) (A) (A) (A) (A) (A) (A)
                 (A) (A) (A) (A) (A) (A) (A) (A) (A) (A) (A) (A)
                 (A) (A) (A) (A) (A) (A) (A) (A) (A) (A) (A) (A)
                 (A) (A) (A) (A) (A) (A) (A) (A) (A) (A) (A) (A)
                 (A) (A) (A) (A) (A) (A) (A) (A) (A) (A) (A) (A)
                 (A) (A) (A) (A) (A) (A) (A) (A) (A) (A) (A) (A)
                 (A) (A) (A) (A) (A) (A) (A) (A) (A) (A) (A) (A)
                 (A) (A) (A) (A) (A) (A) (A) (A) (A) (A) (A) (A)
                 (A) (A) (A) (A) (A) (A) (A) (A) (A) (A) (A) (A)
                 (A) (A) (A) (A) (A) (A) (A) (A) (A) (A) (A) (A)
                 (A) (A) (A) (A) (A) (A) (A) (A) (A) (A) (A) (A)
                 (A) (A) (A) (A) (A) (A) (A) (A) (A) (A) (A) (A)
                 (A) (A) (A) (A) (A) (A) (A) (A) (A) (A) (A) (A)
                 (A) (A) (A) (A) (A) (A) (A) (A) (A) (A) (A) (A)
                 (A) (A) (A) (A) (A) (A) (A) (A) (A) (A) (A) (A)
                 (A) (A) (A) (A) (A) (A) (A) (A) (A) (A) (A) (A)
                 (A) (A) (A) (A) (A) (A) (A) (A) (A) (A) (A) (A)
                 (A) (A) (A) (A) (A) (A) (A) (A) (A) (A) (A) (A)
                 (A) (A) (A) (A) (A) (A) (A) (A) (A) (A) (A) (A)
                 (A) (A) (A) (A) (A) (A) (A) (A) (A) (A) (A) (A)
                 (A) (A) (A) (A) (A) (A) (A) (A) (A) (A) (A) (A)
                 (A) (A) (A) (A) (A) (A) (A) (A) (A) (A) (A) (A)
                 (A) (A) (A) (A) (A) (A) (A) (A) (A) (A) (A) (A)
                 (A) (A) (A) (A) (A) (A) (A) (A) (A) (A) (A) (A)
                 (A) (A) (A) (A) (A) (A) (A) (A) (A) (A) (A) (A)
                 (A) (A) (A) (A) (A) (A) (A) (A) (A) (A) (A) (A)
                 (A) (A) (A) (A) (A) (A) (A) (A) (A) (A) (A) (A)
                 (A) (A) (A) (A) (A) (A) (A) (A) (A) (A) (A) (A)
                 (A) (A) (A) (A) (A) (A) (A) (A) (A) (A) (A) (A)
                 (A) (A) (A) (A) (A) (A) (A) (A) (A) (A) (A) (A)
                 (A) (A) (A) (A) (A) (A) (A) (A) (A) (A) (A) (A)
                 (A) (A) (A) (A) (A) (A) (A) (A) (A) (A) (A) (A)
                 (A) (A) (A) (A) (A) (A) (A) (A) (A) (A) (A) (A)
                 (A) (A) (A) (A) (A) (A) (A) (A) (A) (A) (A) (A)
                 (A) (A) (A) (A) (A) (A) (A) (A) (A) (A) (A) (A)
                 (A) (A) (A) (A) (A) (A) (A) (A) (A) (A) (A) (A)
                 (A) (A) (A) (A) (A) (A) (A) (A) (A) (A) (A) (A)
                 (A) (A) (A) (A) (A) (A) (A) (A) (A) (A) (A) (A)
                 (A) (A) (A) (A) (A) (A) (A) (A) (A) (A) (A) (A)
                 (A) (A) (A) (A) (A) (A) (A) (A) (A) (A) (A) (A)
                 (A) (A) (A) (A) (A) (A) (A) (A) (A) (A) (A) (A)
                 (A) (A) (A) (A) (A) (A) (A) (A) (A) (A) (A) (A)
                 (A) (A) (A) (A) (A) (A) (A) (A) (A) (A) (A) (A)
                 (A) (A) (A) (A) (A) (A) (A) (A) (A) (A) (A) (A)
                 (A) (A) (A) (A) (A) (A) (A) (A) (A) (A) (A) (A)
                 (A) (A) (A) (A) (A) (A) (A) (A) (A) (A) (A) (A)
                 (A) (A) (A) (A) (A) (A) (A) (A) (A) (A) (A) (A)
                 (A) (A) (A) (A) (A) (A) (A) (A) (A) (A) (A) (A)
                 (A) (A) (A) (A) (A) (A) (A) (A) (A) (A) (A) (A)
                 (A) (A) (A) (A) (A) (A) (A) (A) (A) (A) (A) (A)
                 (A) (A) (A) (A) (A) (A) (A) (A) (A) (A) (A) (A)
                 (A) (A) (A) (A) (A) (A) (A) (A) (A) (A) (A) (A)
                 (A) (A) (A) (A) (A) (A) (A) (A) (A) (A) (A) (A)
                 (A) (A) (A) (A) (A) (A) (A) (A) (A) (A) (A) (A)
                 (A) (A) (A) (A) (A) (A) (A) (A) (A) (A) (A) (A)
                 (A) (A) (A) (A) (A) (A) (A) (A) (A) (A) (A) (A)
                 (A) (A) (A) (A) (A) (A) (A) (A) (A) (A) (A) (A)
                 (A) (A) (A) (A) (A) (A) (A) (A) (A) (A) (A) (A)
                 (A) (A) (A) (A) (A) (A) (A) (A) (A) (A) (A) (A)
                 (A) (A) (A) (A) (A) (A) (A) (A) (A) (A) (A) (A)
                 (A) (A) (A) (A) (A) (A) (A) (A) (A) (A) (A) (A)
                 (A) (A) (A) (A) (A) (A) (A) (A) (A) (A) (A) (A)
                 (A) (A) (A) (A) (A) (A) (A) (A) (A) (A) (A) (A)
                 (A) (A) (A) (A) (A) (A) (A) (A) (A) (A) (A) (A)
                 (A) (A) (A) (A) (A) (A) (A) (A) (A) (A) (A) (A)
                 (A) (A) (A) (A) (A) (A) (A) (A) (A) (A) (A) (A)
                 (A) (A) (A) (A) (A) (A) (A) (A) (A) (A) (A) (A)
                 (A) (A) (A) (A) (A) (A) (A) (A) (A) (A) (A) (A)
                 (A) (A) (A) (A) (A) (A) (A) (A) (A) (A) (A) (A)
                 (A) (A) (A) (A) (A) (A) (A) (A) (A) (A) (A) (A)
                 (A) (A) (A) (A) (A) (A) (A) (A) (A) (A) (A) (A)
                 (A) (A) (A) (A) (A) (A) (A) (A) (A) (A) (A) (A)
                 (A) (A) (A) (A) (A) (A) (A) (A) (A) (A) (A) (A)
                 (A) (A) (A) (A) (A) (A) (A) (A) (A) (A) (A) (A)
                 (A) (A) (A) (A) (A) (A) (A) (A) (A) (A) (A) (A)
                 (A) (A) (A) (A) (A) (A) (A) (A) (A) (A) (A) (A)
                 (A) (A) (A) (A) (A) (A) (A) (A) (A) (A) (A) (A)
                 (A) (A) (A) (A) (A) (A) (A) (A) (A) (A) (A) (A)
                 (A) (A) (A) (A) (A) (A) (A) (A) (A) (A) (A) (A)
                 (A) (A) (A) (A) (A) (A) (A) (A) (A) (A) (A) (A)
                 (A) (A) (A) (A) (A) (A) (A) (A) (A) (A) (A) (A)
                 (A) (A) (A) (A) (A) (A) (A) (A) (A) (A) (A) (A)
                 (A) (A) (A) (A) (A) (A) (A) (A) (A) (A) (A) (A)
                 (A) (A) (A) (A) (A) (A) (A) (A) (A) (A) (A) (A)
                 (A) (A) (A) (A) (A) (A) (A) (A) (A) (A) (A) (A)
                 (A) (A) (A) (A) (A) (A) (A) (A) (A) (A) (A) (A)
                 (A) (A) (A) (A) (A) (A) (A) (A) (A) (A) (A) (A)
                 (A) (A) (A) (A) (A) (A) (A) (A) (A) (A) (A) (A)
                 (A) (A) (A) (A) (A) (A) (A) (A) (A) (A) (A) (A)
                 (A) (A) (A) (A) (A) (A) (A) (A) (A) (A) (A) (A)
                 (A) (A) (A) (A) (A) (A) (A) (A) (A) (A) (A) (A)
                 (A) (A) (A) (A) (A) (A) (A) (A) (A) (A) (A) (A)
                 (A) (A) (A) (A) (A) (A) (A) (A) (A) (A) (A) (A)
                 (A) (A) (A) (A) (A) (A) (A) (A) (A) (A) (A) (A)
                 (A) (A) (A) (A) (A) (A) (A) (A) (A) (A) (A) (A)
                 (A) (A) (A) (A) (A) (A) (A) (A) (A) (A) (A) (A)
                 (A) (A) (A) (A) (A) (A) (A) (A) (A) (A) (A) (A)
                 (A) (A) (A) (A) (A) (A) (A) (A) (A) (A) (A) (A)
                 (A) (A) (A) (A) (A) (A) (A) (A) (A) (A) (A) (A)
                 (A) (A) (A) (A) (A) (A) (A) (A) (A) (A) (A) (A)
                 (A) (A) (A) (A) (A) (A) (A) (A) (A) (A) (A) (A)
                 (A) (A) (A) (A) (A) (A) (A) (A) (A) (A) (A) (A)
                 (A) (A) (A) (A) (A) (A) (A) (A) (A) (A) (A) (A)
                 (A) (A) (A) (A) (A) (A) (A) (A) (A) (A) (A) (A)
                 (A) (A) (A) (A) (A) (A) (A) (A) (A) (A) (A) (A)
                 (A) (A) (A) (A) (A) (A) (A) (A) (A) (A) (A) (A)
                 (A) (A) (A) (A) (A) (A) (A) (A) (A) (A) (A) (A)
                 (A) (A) (A) (A) (A) (A) (A) (A) (A) (A) (A) (A)
                 (A) (A) (A) (A) (A) (A) (A) (A) (A) (A) (A) (A)
                 (A) (A) (A) (A) (A) (A) (A) (A) (A) (A) (A) (A)
                 (A) (A) (A) (A) (A) (A) (A) (A) (A) (A) (A) (A)
                 (A) (A) (A)
 Beta  Orbitals:
       Occupied  (A) (A) (A) (A) (A) (A) (A) (A) (A) (A) (A) (A)
                 (A) (A) (A) (A) (A) (A) (A) (A) (A) (A) (A) (A)
                 (A) (A) (A) (A) (A) (A) (A) (A) (A) (A) (A) (A)
                 (A) (A) (A) (A) (A) (A) (A) (A) (A) (A) (A) (A)
                 (A) (A) (A) (A) (A) (A) (A) (A) (A) (A) (A) (A)
                 (A) (A) (A) (A) (A) (A) (A) (A) (A) (A) (A) (A)
                 (A) (A) (A) (A) (A) (A) (A) (A) (A) (A) (A) (A)
                 (A) (A) (A) (A) (A) (A) (A) (A) (A) (A) (A) (A)
                 (A) (A) (A) (A) (A) (A) (A) (A) (A) (A) (A) (A)
                 (A) (A) (A) (A) (A) (A) (A) (A) (A) (A) (A) (A)
                 (A) (A) (A) (A) (A) (A) (A) (A) (A) (A) (A) (A)
                 (A) (A) (A) (A) (A) (A) (A) (A) (A) (A) (A) (A)
                 (A) (A) (A) (A) (A) (A) (A) (A) (A) (A) (A) (A)
                 (A) (A) (A) (A) (A) (A) (A) (A) (A) (A) (A) (A)
                 (A) (A) (A) (A) (A) (A) (A)
       Virtual   (A) (A) (A) (A) (A) (A) (A) (A) (A) (A) (A) (A)
                 (A) (A) (A) (A) (A) (A) (A) (A) (A) (A) (A) (A)
                 (A) (A) (A) (A) (A) (A) (A) (A) (A) (A) (A) (A)
                 (A) (A) (A) (A) (A) (A) (A) (A) (A) (A) (A) (A)
                 (A) (A) (A) (A) (A) (A) (A) (A) (A) (A) (A) (A)
                 (A) (A) (A) (A) (A) (A) (A) (A) (A) (A) (A) (A)
                 (A) (A) (A) (A) (A) (A) (A) (A) (A) (A) (A) (A)
                 (A) (A) (A) (A) (A) (A) (A) (A) (A) (A) (A) (A)
                 (A) (A) (A) (A) (A) (A) (A) (A) (A) (A) (A) (A)
                 (A) (A) (A) (A) (A) (A) (A) (A) (A) (A) (A) (A)
                 (A) (A) (A) (A) (A) (A) (A) (A) (A) (A) (A) (A)
                 (A) (A) (A) (A) (A) (A) (A) (A) (A) (A) (A) (A)
                 (A) (A) (A) (A) (A) (A) (A) (A) (A) (A) (A) (A)
                 (A) (A) (A) (A) (A) (A) (A) (A) (A) (A) (A) (A)
                 (A) (A) (A) (A) (A) (A) (A) (A) (A) (A) (A) (A)
                 (A) (A) (A) (A) (A) (A) (A) (A) (A) (A) (A) (A)
                 (A) (A) (A) (A) (A) (A) (A) (A) (A) (A) (A) (A)
                 (A) (A) (A) (A) (A) (A) (A) (A) (A) (A) (A) (A)
                 (A) (A) (A) (A) (A) (A) (A) (A) (A) (A) (A) (A)
                 (A) (A) (A) (A) (A) (A) (A) (A) (A) (A) (A) (A)
                 (A) (A) (A) (A) (A) (A) (A) (A) (A) (A) (A) (A)
                 (A) (A) (A) (A) (A) (A) (A) (A) (A) (A) (A) (A)
                 (A) (A) (A) (A) (A) (A) (A) (A) (A) (A) (A) (A)
                 (A) (A) (A) (A) (A) (A) (A) (A) (A) (A) (A) (A)
                 (A) (A) (A) (A) (A) (A) (A) (A) (A) (A) (A) (A)
                 (A) (A) (A) (A) (A) (A) (A) (A) (A) (A) (A) (A)
                 (A) (A) (A) (A) (A) (A) (A) (A) (A) (A) (A) (A)
                 (A) (A) (A) (A) (A) (A) (A) (A) (A) (A) (A) (A)
                 (A) (A) (A) (A) (A) (A) (A) (A) (A) (A) (A) (A)
                 (A) (A) (A) (A) (A) (A) (A) (A) (A) (A) (A) (A)
                 (A) (A) (A) (A) (A) (A) (A) (A) (A) (A) (A) (A)
                 (A) (A) (A) (A) (A) (A) (A) (A) (A) (A) (A) (A)
                 (A) (A) (A) (A) (A) (A) (A) (A) (A) (A) (A) (A)
                 (A) (A) (A) (A) (A) (A) (A) (A) (A) (A) (A) (A)
                 (A) (A) (A) (A) (A) (A) (A) (A) (A) (A) (A) (A)
                 (A) (A) (A) (A) (A) (A) (A) (A) (A) (A) (A) (A)
                 (A) (A) (A) (A) (A) (A) (A) (A) (A) (A) (A) (A)
                 (A) (A) (A) (A) (A) (A) (A) (A) (A) (A) (A) (A)
                 (A) (A) (A) (A) (A) (A) (A) (A) (A) (A) (A) (A)
                 (A) (A) (A) (A) (A) (A) (A) (A) (A) (A) (A) (A)
                 (A) (A) (A) (A) (A) (A) (A) (A) (A) (A) (A) (A)
                 (A) (A) (A) (A) (A) (A) (A) (A) (A) (A) (A) (A)
                 (A) (A) (A) (A) (A) (A) (A) (A) (A) (A) (A) (A)
                 (A) (A) (A) (A) (A) (A) (A) (A) (A) (A) (A) (A)
                 (A) (A) (A) (A) (A) (A) (A) (A) (A) (A) (A) (A)
                 (A) (A) (A) (A) (A) (A) (A) (A) (A) (A) (A) (A)
                 (A) (A) (A) (A) (A) (A) (A) (A) (A) (A) (A) (A)
                 (A) (A) (A) (A) (A) (A) (A) (A) (A) (A) (A) (A)
                 (A) (A) (A) (A) (A) (A) (A) (A) (A) (A) (A) (A)
                 (A) (A) (A) (A) (A) (A) (A) (A) (A) (A) (A) (A)
                 (A) (A) (A) (A) (A) (A) (A) (A) (A) (A) (A) (A)
                 (A) (A) (A) (A) (A) (A) (A) (A) (A) (A) (A) (A)
                 (A) (A) (A) (A) (A) (A) (A) (A) (A) (A) (A) (A)
                 (A) (A) (A) (A) (A) (A) (A) (A) (A) (A) (A) (A)
                 (A) (A) (A) (A) (A) (A) (A) (A) (A) (A) (A) (A)
                 (A) (A) (A) (A) (A) (A) (A) (A) (A) (A) (A) (A)
                 (A) (A) (A) (A) (A) (A) (A) (A) (A) (A) (A) (A)
                 (A) (A) (A) (A) (A) (A) (A) (A) (A) (A) (A) (A)
                 (A) (A) (A) (A) (A) (A) (A) (A) (A) (A) (A) (A)
                 (A) (A) (A) (A) (A) (A) (A) (A) (A) (A) (A) (A)
                 (A) (A) (A) (A) (A) (A) (A) (A) (A) (A) (A) (A)
                 (A) (A) (A) (A) (A) (A) (A) (A) (A) (A) (A) (A)
                 (A) (A) (A) (A) (A) (A) (A) (A) (A) (A) (A) (A)
                 (A) (A) (A) (A) (A) (A) (A) (A) (A) (A) (A) (A)
                 (A) (A) (A) (A) (A) (A) (A) (A) (A) (A) (A) (A)
                 (A) (A) (A) (A) (A) (A) (A) (A) (A) (A) (A) (A)
                 (A) (A) (A) (A) (A) (A) (A) (A) (A) (A) (A) (A)
                 (A) (A) (A) (A) (A) (A) (A) (A) (A) (A) (A) (A)
                 (A) (A) (A) (A) (A) (A) (A) (A) (A) (A) (A) (A)
                 (A) (A) (A) (A) (A) (A) (A) (A) (A) (A) (A) (A)
                 (A) (A) (A) (A) (A) (A) (A) (A) (A) (A) (A) (A)
                 (A) (A) (A) (A) (A) (A) (A) (A) (A) (A) (A) (A)
                 (A) (A) (A) (A) (A) (A) (A) (A) (A) (A) (A) (A)
                 (A) (A) (A) (A) (A) (A) (A) (A) (A) (A) (A) (A)
                 (A) (A) (A) (A) (A) (A) (A) (A) (A) (A) (A) (A)
                 (A) (A) (A) (A) (A) (A) (A) (A) (A) (A) (A) (A)
                 (A) (A) (A) (A) (A) (A) (A) (A) (A) (A) (A) (A)
                 (A) (A) (A) (A) (A) (A) (A) (A) (A) (A) (A) (A)
                 (A) (A) (A) (A) (A) (A) (A) (A) (A) (A) (A) (A)
                 (A) (A) (A) (A) (A) (A) (A) (A) (A) (A) (A) (A)
                 (A) (A) (A) (A) (A) (A) (A) (A) (A) (A) (A) (A)
                 (A) (A) (A) (A) (A) (A) (A) (A) (A) (A) (A) (A)
                 (A) (A) (A) (A) (A) (A) (A) (A) (A) (A) (A) (A)
                 (A) (A) (A) (A) (A) (A) (A) (A) (A) (A) (A) (A)
                 (A) (A) (A) (A) (A) (A) (A) (A) (A) (A) (A) (A)
                 (A) (A) (A) (A) (A) (A) (A) (A) (A) (A) (A) (A)
                 (A) (A) (A) (A) (A) (A) (A) (A) (A) (A) (A) (A)
                 (A) (A) (A) (A) (A) (A) (A) (A) (A) (A) (A) (A)
                 (A) (A) (A) (A) (A) (A) (A) (A) (A) (A) (A) (A)
                 (A) (A) (A) (A) (A) (A) (A) (A) (A) (A) (A) (A)
                 (A) (A) (A) (A) (A) (A) (A) (A) (A) (A) (A) (A)
                 (A) (A) (A) (A) (A) (A) (A) (A) (A) (A) (A) (A)
                 (A) (A) (A) (A) (A) (A) (A) (A) (A) (A) (A) (A)
                 (A) (A) (A) (A) (A) (A) (A) (A) (A) (A) (A) (A)
                 (A) (A) (A) (A) (A) (A) (A) (A) (A) (A) (A) (A)
                 (A) (A) (A) (A) (A) (A) (A) (A) (A) (A) (A) (A)
                 (A) (A) (A) (A) (A) (A) (A) (A) (A) (A) (A) (A)
                 (A) (A) (A) (A) (A) (A) (A) (A) (A) (A) (A) (A)
                 (A) (A) (A) (A) (A) (A) (A) (A) (A) (A) (A) (A)
                 (A) (A) (A) (A) (A) (A) (A) (A) (A) (A) (A) (A)
                 (A) (A) (A) (A) (A) (A) (A) (A) (A) (A) (A) (A)
                 (A) (A) (A) (A) (A) (A) (A) (A) (A) (A) (A) (A)
                 (A) (A) (A) (A) (A) (A) (A) (A) (A) (A) (A) (A)
                 (A) (A) (A) (A) (A) (A) (A) (A) (A) (A) (A) (A)
                 (A) (A) (A) (A) (A) (A) (A) (A) (A) (A) (A) (A)
                 (A) (A) (A) (A) (A) (A) (A) (A) (A) (A) (A) (A)
                 (A) (A) (A) (A) (A) (A) (A) (A) (A) (A) (A) (A)
                 (A) (A) (A) (A) (A) (A) (A) (A) (A) (A) (A) (A)
                 (A) (A) (A) (A) (A) (A) (A) (A) (A) (A) (A) (A)
                 (A) (A) (A) (A) (A) (A) (A) (A) (A) (A) (A) (A)
                 (A) (A) (A) (A) (A) (A) (A) (A) (A) (A) (A) (A)
                 (A) (A) (A) (A) (A) (A) (A) (A) (A) (A) (A) (A)
                 (A) (A) (A) (A) (A) (A) (A) (A) (A) (A) (A) (A)
                 (A) (A) (A) (A) (A) (A) (A) (A) (A) (A) (A) (A)
                 (A) (A) (A) (A) (A) (A) (A) (A) (A) (A) (A) (A)
                 (A) (A) (A) (A) (A) (A) (A) (A) (A) (A) (A) (A)
                 (A) (A) (A) (A) (A) (A) (A) (A) (A) (A) (A) (A)
                 (A) (A) (A) (A) (A) (A) (A) (A) (A) (A) (A) (A)
                 (A) (A) (A) (A) (A) (A) (A) (A) (A) (A) (A) (A)
                 (A) (A) (A) (A) (A) (A) (A) (A) (A) (A) (A) (A)
                 (A) (A) (A) (A) (A) (A) (A) (A) (A) (A) (A) (A)
                 (A) (A) (A) (A) (A) (A) (A) (A) (A) (A) (A) (A)
                 (A) (A) (A) (A) (A) (A) (A) (A) (A) (A) (A) (A)
                 (A) (A) (A) (A)
 The electronic state is 2-A.
 Alpha  occ. eigenvalues -- -256.51734 -89.17861 -30.30277 -26.13039 -26.12655
 Alpha  occ. eigenvalues --  -26.12056 -19.33867 -19.32644 -19.26440 -19.25202
 Alpha  occ. eigenvalues --  -14.53965 -14.50765 -14.49667 -14.48259 -10.43608
 Alpha  occ. eigenvalues --  -10.42318 -10.37702 -10.37627 -10.37519 -10.37030
 Alpha  occ. eigenvalues --  -10.36421 -10.36145 -10.35998 -10.35842 -10.35766
 Alpha  occ. eigenvalues --  -10.34443 -10.34354 -10.34005 -10.33940 -10.33338
 Alpha  occ. eigenvalues --  -10.33112 -10.33080 -10.33050 -10.32706 -10.32615
 Alpha  occ. eigenvalues --  -10.32452 -10.32380 -10.32008 -10.30851 -10.29606
 Alpha  occ. eigenvalues --  -10.29363 -10.29303 -10.28568 -10.28346 -10.27588
 Alpha  occ. eigenvalues --  -10.27560 -10.27340 -10.25837 -10.25040  -8.16005
 Alpha  occ. eigenvalues --   -6.09650  -6.09390  -6.08856  -3.67360  -2.44076
 Alpha  occ. eigenvalues --   -2.43438  -2.42016  -1.24548  -1.23988  -1.13055
 Alpha  occ. eigenvalues --   -1.10675  -1.09668  -1.09245  -1.07861  -1.06713
 Alpha  occ. eigenvalues --   -0.96787  -0.95452  -0.95024  -0.94276  -0.93930
 Alpha  occ. eigenvalues --   -0.93456  -0.93361  -0.92971  -0.90016  -0.89502
 Alpha  occ. eigenvalues --   -0.88948  -0.88600  -0.88415  -0.86099  -0.84896
 Alpha  occ. eigenvalues --   -0.83919  -0.83199  -0.81986  -0.81752  -0.80021
 Alpha  occ. eigenvalues --   -0.78839  -0.78090  -0.77695  -0.76583  -0.75579
 Alpha  occ. eigenvalues --   -0.75172  -0.74475  -0.72105  -0.71208  -0.68326
 Alpha  occ. eigenvalues --   -0.67674  -0.66983  -0.66533  -0.64816  -0.63879
 Alpha  occ. eigenvalues --   -0.63331  -0.62552  -0.61800  -0.61771  -0.61173
 Alpha  occ. eigenvalues --   -0.60781  -0.60457  -0.59702  -0.59610  -0.58942
 Alpha  occ. eigenvalues --   -0.58558  -0.58187  -0.57585  -0.57520  -0.57311
 Alpha  occ. eigenvalues --   -0.57155  -0.56699  -0.56545  -0.55680  -0.55553
 Alpha  occ. eigenvalues --   -0.55468  -0.55375  -0.55212  -0.54846  -0.54705
 Alpha  occ. eigenvalues --   -0.54591  -0.54313  -0.54071  -0.53603  -0.53385
 Alpha  occ. eigenvalues --   -0.52992  -0.52826  -0.52761  -0.52383  -0.51872
 Alpha  occ. eigenvalues --   -0.51525  -0.51215  -0.50783  -0.50298  -0.49890
 Alpha  occ. eigenvalues --   -0.49743  -0.49397  -0.48907  -0.48463  -0.48251
 Alpha  occ. eigenvalues --   -0.47951  -0.47762  -0.47462  -0.47326  -0.47043
 Alpha  occ. eigenvalues --   -0.46850  -0.46170  -0.45595  -0.45404  -0.44849
 Alpha  occ. eigenvalues --   -0.44807  -0.44476  -0.44206  -0.43903  -0.43387
 Alpha  occ. eigenvalues --   -0.41919  -0.41315  -0.40938  -0.40329  -0.39836
 Alpha  occ. eigenvalues --   -0.39768  -0.39388  -0.37823  -0.37010  -0.36283
 Alpha  occ. eigenvalues --   -0.35031  -0.34456  -0.34332  -0.32807  -0.31818
 Alpha  occ. eigenvalues --   -0.30958
 Alpha virt. eigenvalues --   -0.23374  -0.19021  -0.18776  -0.18155  -0.12097
 Alpha virt. eigenvalues --   -0.11357  -0.08983  -0.08679  -0.07789  -0.06618
 Alpha virt. eigenvalues --   -0.06302  -0.05808  -0.04282  -0.04202  -0.03770
 Alpha virt. eigenvalues --   -0.03655  -0.03623  -0.02938  -0.02416  -0.02291
 Alpha virt. eigenvalues --   -0.01824  -0.01298  -0.00854  -0.00578  -0.00353
 Alpha virt. eigenvalues --    0.00189   0.00547   0.01046   0.01274   0.01434
 Alpha virt. eigenvalues --    0.01701   0.01904   0.02142   0.02605   0.02784
 Alpha virt. eigenvalues --    0.02890   0.03263   0.03372   0.03626   0.03718
 Alpha virt. eigenvalues --    0.04052   0.04506   0.04698   0.04785   0.05067
 Alpha virt. eigenvalues --    0.05219   0.05299   0.05438   0.05582   0.06015
 Alpha virt. eigenvalues --    0.06179   0.06633   0.06796   0.06906   0.07081
 Alpha virt. eigenvalues --    0.07758   0.08041   0.08160   0.08298   0.08569
 Alpha virt. eigenvalues --    0.08762   0.09011   0.09308   0.09566   0.09683
 Alpha virt. eigenvalues --    0.09888   0.10263   0.10455   0.10506   0.10814
 Alpha virt. eigenvalues --    0.11074   0.11287   0.11510   0.11693   0.11975
 Alpha virt. eigenvalues --    0.12136   0.12351   0.12398   0.12618   0.12824
 Alpha virt. eigenvalues --    0.12979   0.13346   0.13474   0.13661   0.13756
 Alpha virt. eigenvalues --    0.14075   0.14202   0.14378   0.14508   0.14868
 Alpha virt. eigenvalues --    0.14927   0.15104   0.15580   0.15808   0.15889
 Alpha virt. eigenvalues --    0.16130   0.16368   0.16709   0.16941   0.17167
 Alpha virt. eigenvalues --    0.17379   0.17629   0.17859   0.18028   0.18149
 Alpha virt. eigenvalues --    0.18508   0.18711   0.18889   0.19065   0.19172
 Alpha virt. eigenvalues --    0.19391   0.19764   0.19917   0.20255   0.20625
 Alpha virt. eigenvalues --    0.20769   0.20907   0.21399   0.21658   0.22055
 Alpha virt. eigenvalues --    0.22487   0.22751   0.22905   0.23180   0.23524
 Alpha virt. eigenvalues --    0.23849   0.24279   0.24343   0.24665   0.24889
 Alpha virt. eigenvalues --    0.25173   0.25296   0.25884   0.25989   0.26272
 Alpha virt. eigenvalues --    0.26440   0.26739   0.26986   0.27267   0.27573
 Alpha virt. eigenvalues --    0.27715   0.28160   0.28612   0.28769   0.29159
 Alpha virt. eigenvalues --    0.29397   0.29617   0.29805   0.30000   0.30357
 Alpha virt. eigenvalues --    0.30529   0.30698   0.30797   0.31118   0.31554
 Alpha virt. eigenvalues --    0.31668   0.31861   0.32391   0.32560   0.32809
 Alpha virt. eigenvalues --    0.33094   0.33330   0.33693   0.33879   0.34054
 Alpha virt. eigenvalues --    0.34278   0.34360   0.34512   0.34629   0.34845
 Alpha virt. eigenvalues --    0.34934   0.35247   0.35514   0.36009   0.36275
 Alpha virt. eigenvalues --    0.36421   0.36566   0.36617   0.36844   0.37037
 Alpha virt. eigenvalues --    0.37422   0.37541   0.37819   0.38059   0.38502
 Alpha virt. eigenvalues --    0.38623   0.38894   0.39125   0.39272   0.39329
 Alpha virt. eigenvalues --    0.39464   0.39782   0.39984   0.40071   0.40149
 Alpha virt. eigenvalues --    0.40563   0.40904   0.41020   0.41379   0.41684
 Alpha virt. eigenvalues --    0.41772   0.41894   0.42231   0.42412   0.42630
 Alpha virt. eigenvalues --    0.42819   0.43120   0.43187   0.43463   0.43574
 Alpha virt. eigenvalues --    0.43810   0.43899   0.44256   0.44294   0.44611
 Alpha virt. eigenvalues --    0.44697   0.44926   0.45127   0.45235   0.45479
 Alpha virt. eigenvalues --    0.45812   0.45988   0.46146   0.46379   0.46652
 Alpha virt. eigenvalues --    0.46730   0.47175   0.47304   0.47633   0.47803
 Alpha virt. eigenvalues --    0.48004   0.48139   0.48299   0.48376   0.48938
 Alpha virt. eigenvalues --    0.49149   0.49352   0.49527   0.49820   0.50100
 Alpha virt. eigenvalues --    0.50343   0.50535   0.50726   0.51006   0.51276
 Alpha virt. eigenvalues --    0.51715   0.52152   0.52267   0.52479   0.52681
 Alpha virt. eigenvalues --    0.52858   0.53487   0.53785   0.53866   0.54263
 Alpha virt. eigenvalues --    0.54397   0.54734   0.54902   0.55160   0.55294
 Alpha virt. eigenvalues --    0.55686   0.56151   0.56328   0.56795   0.57097
 Alpha virt. eigenvalues --    0.57297   0.57549   0.57619   0.58026   0.58118
 Alpha virt. eigenvalues --    0.58270   0.58880   0.58952   0.59042   0.59445
 Alpha virt. eigenvalues --    0.59683   0.60118   0.60182   0.60692   0.60854
 Alpha virt. eigenvalues --    0.61203   0.61361   0.61799   0.62174   0.62323
 Alpha virt. eigenvalues --    0.62491   0.62934   0.63051   0.63300   0.63640
 Alpha virt. eigenvalues --    0.64316   0.64484   0.64698   0.64853   0.65041
 Alpha virt. eigenvalues --    0.65206   0.65612   0.66008   0.66211   0.66381
 Alpha virt. eigenvalues --    0.66611   0.67192   0.67537   0.67777   0.67967
 Alpha virt. eigenvalues --    0.68672   0.68827   0.68966   0.69469   0.69521
 Alpha virt. eigenvalues --    0.70021   0.70561   0.70647   0.70841   0.71520
 Alpha virt. eigenvalues --    0.71841   0.72098   0.72282   0.72331   0.72998
 Alpha virt. eigenvalues --    0.73524   0.73613   0.73742   0.74086   0.74378
 Alpha virt. eigenvalues --    0.74767   0.75080   0.75426   0.75536   0.75890
 Alpha virt. eigenvalues --    0.76366   0.76591   0.76894   0.77481   0.77805
 Alpha virt. eigenvalues --    0.78101   0.78323   0.78710   0.78929   0.79212
 Alpha virt. eigenvalues --    0.79690   0.80160   0.80392   0.80943   0.81698
 Alpha virt. eigenvalues --    0.81825   0.81899   0.82576   0.82591   0.82830
 Alpha virt. eigenvalues --    0.83274   0.84151   0.84484   0.84578   0.84885
 Alpha virt. eigenvalues --    0.85215   0.85403   0.85716   0.85925   0.86208
 Alpha virt. eigenvalues --    0.86351   0.86651   0.87233   0.87590   0.87719
 Alpha virt. eigenvalues --    0.87995   0.88091   0.88415   0.88861   0.89142
 Alpha virt. eigenvalues --    0.89240   0.89693   0.90444   0.90691   0.91349
 Alpha virt. eigenvalues --    0.91672   0.91968   0.92478   0.92600   0.92968
 Alpha virt. eigenvalues --    0.93168   0.93382   0.93816   0.94062   0.94382
 Alpha virt. eigenvalues --    0.94627   0.95008   0.95150   0.95669   0.95928
 Alpha virt. eigenvalues --    0.96198   0.96428   0.96734   0.97099   0.97159
 Alpha virt. eigenvalues --    0.97563   0.97795   0.98191   0.98293   0.98491
 Alpha virt. eigenvalues --    0.99110   0.99153   0.99698   1.00241   1.00507
 Alpha virt. eigenvalues --    1.00931   1.01245   1.01644   1.01882   1.02362
 Alpha virt. eigenvalues --    1.02594   1.02917   1.03040   1.03562   1.03691
 Alpha virt. eigenvalues --    1.04255   1.04657   1.05281   1.05834   1.06095
 Alpha virt. eigenvalues --    1.06464   1.06723   1.07405   1.08229   1.08401
 Alpha virt. eigenvalues --    1.08552   1.09308   1.09671   1.10183   1.11037
 Alpha virt. eigenvalues --    1.11282   1.11534   1.12180   1.12480   1.12785
 Alpha virt. eigenvalues --    1.13338   1.13350   1.14459   1.14856   1.15186
 Alpha virt. eigenvalues --    1.15360   1.15859   1.16148   1.16765   1.17190
 Alpha virt. eigenvalues --    1.17405   1.17811   1.18475   1.18713   1.19574
 Alpha virt. eigenvalues --    1.19822   1.20360   1.20437   1.20811   1.21729
 Alpha virt. eigenvalues --    1.22497   1.23009   1.23238   1.23604   1.23859
 Alpha virt. eigenvalues --    1.24169   1.24551   1.24633   1.25362   1.25657
 Alpha virt. eigenvalues --    1.26310   1.27401   1.27651   1.27708   1.28175
 Alpha virt. eigenvalues --    1.28619   1.28682   1.29139   1.29371   1.30051
 Alpha virt. eigenvalues --    1.30702   1.31068   1.31890   1.32538   1.32768
 Alpha virt. eigenvalues --    1.32985   1.33343   1.33703   1.34335   1.34800
 Alpha virt. eigenvalues --    1.35313   1.35881   1.36529   1.36632   1.37543
 Alpha virt. eigenvalues --    1.37610   1.37770   1.38127   1.38712   1.38938
 Alpha virt. eigenvalues --    1.39198   1.39756   1.40440   1.40844   1.41031
 Alpha virt. eigenvalues --    1.41591   1.41891   1.42153   1.42226   1.42523
 Alpha virt. eigenvalues --    1.42800   1.43241   1.43863   1.44275   1.44463
 Alpha virt. eigenvalues --    1.44593   1.44912   1.45146   1.45290   1.45789
 Alpha virt. eigenvalues --    1.46049   1.46413   1.46744   1.46933   1.47651
 Alpha virt. eigenvalues --    1.47782   1.47987   1.48493   1.48607   1.48618
 Alpha virt. eigenvalues --    1.49234   1.49551   1.49835   1.50544   1.50735
 Alpha virt. eigenvalues --    1.51142   1.51211   1.51502   1.51811   1.52139
 Alpha virt. eigenvalues --    1.52153   1.52594   1.53090   1.53406   1.53688
 Alpha virt. eigenvalues --    1.53886   1.54253   1.54396   1.54735   1.54963
 Alpha virt. eigenvalues --    1.55289   1.55525   1.55949   1.56040   1.56144
 Alpha virt. eigenvalues --    1.56325   1.56973   1.57194   1.57270   1.57440
 Alpha virt. eigenvalues --    1.57832   1.57957   1.58382   1.58715   1.58937
 Alpha virt. eigenvalues --    1.59042   1.59332   1.59433   1.59828   1.59967
 Alpha virt. eigenvalues --    1.60235   1.60624   1.60946   1.61160   1.61585
 Alpha virt. eigenvalues --    1.62236   1.62624   1.62738   1.62968   1.63096
 Alpha virt. eigenvalues --    1.63791   1.64028   1.64457   1.64707   1.65139
 Alpha virt. eigenvalues --    1.65745   1.66005   1.66317   1.66415   1.66957
 Alpha virt. eigenvalues --    1.67131   1.67536   1.68358   1.68908   1.69177
 Alpha virt. eigenvalues --    1.69892   1.70147   1.70623   1.70841   1.71005
 Alpha virt. eigenvalues --    1.71414   1.73081   1.73431   1.73661   1.73854
 Alpha virt. eigenvalues --    1.74108   1.74644   1.74935   1.75429   1.76017
 Alpha virt. eigenvalues --    1.76071   1.76602   1.76931   1.77222   1.77658
 Alpha virt. eigenvalues --    1.77984   1.78514   1.79020   1.79256   1.79719
 Alpha virt. eigenvalues --    1.80073   1.80285   1.81050   1.81380   1.81612
 Alpha virt. eigenvalues --    1.82034   1.82281   1.82828   1.83609   1.84184
 Alpha virt. eigenvalues --    1.84217   1.84512   1.84816   1.85168   1.85922
 Alpha virt. eigenvalues --    1.86536   1.87291   1.87485   1.87805   1.88074
 Alpha virt. eigenvalues --    1.88777   1.89002   1.89467   1.89908   1.90212
 Alpha virt. eigenvalues --    1.90635   1.91003   1.91219   1.91417   1.91596
 Alpha virt. eigenvalues --    1.92510   1.92613   1.93090   1.93286   1.93710
 Alpha virt. eigenvalues --    1.93957   1.94474   1.94851   1.94927   1.95142
 Alpha virt. eigenvalues --    1.95759   1.96032   1.96494   1.96914   1.97175
 Alpha virt. eigenvalues --    1.97658   1.98251   1.98935   1.99541   2.00310
 Alpha virt. eigenvalues --    2.00437   2.00846   2.00967   2.02204   2.02832
 Alpha virt. eigenvalues --    2.03348   2.03498   2.03745   2.04004   2.04305
 Alpha virt. eigenvalues --    2.04632   2.04705   2.05501   2.05739   2.06033
 Alpha virt. eigenvalues --    2.06332   2.06569   2.06868   2.07858   2.07907
 Alpha virt. eigenvalues --    2.08063   2.08327   2.08947   2.09037   2.09504
 Alpha virt. eigenvalues --    2.09887   2.10189   2.10646   2.11172   2.11590
 Alpha virt. eigenvalues --    2.12422   2.12834   2.13580   2.13822   2.14406
 Alpha virt. eigenvalues --    2.14619   2.15166   2.15371   2.15965   2.16407
 Alpha virt. eigenvalues --    2.16660   2.17073   2.17669   2.18059   2.18183
 Alpha virt. eigenvalues --    2.18718   2.19242   2.19664   2.19853   2.20089
 Alpha virt. eigenvalues --    2.20920   2.21090   2.21386   2.21493   2.21852
 Alpha virt. eigenvalues --    2.22370   2.23739   2.24003   2.24288   2.24671
 Alpha virt. eigenvalues --    2.25009   2.26382   2.27131   2.27682   2.27792
 Alpha virt. eigenvalues --    2.28170   2.28806   2.29230   2.29409   2.30132
 Alpha virt. eigenvalues --    2.30386   2.30745   2.31095   2.31338   2.32300
 Alpha virt. eigenvalues --    2.32597   2.32845   2.33322   2.33631   2.33988
 Alpha virt. eigenvalues --    2.34453   2.34599   2.35635   2.35704   2.35944
 Alpha virt. eigenvalues --    2.36891   2.37314   2.37599   2.37872   2.38387
 Alpha virt. eigenvalues --    2.38806   2.39366   2.39774   2.39877   2.40495
 Alpha virt. eigenvalues --    2.41377   2.42014   2.42219   2.42862   2.43388
 Alpha virt. eigenvalues --    2.43835   2.44720   2.45133   2.45289   2.45418
 Alpha virt. eigenvalues --    2.45894   2.46169   2.46376   2.46870   2.47078
 Alpha virt. eigenvalues --    2.47626   2.47980   2.48092   2.48586   2.49090
 Alpha virt. eigenvalues --    2.49660   2.49851   2.50115   2.50488   2.50745
 Alpha virt. eigenvalues --    2.51378   2.51563   2.51693   2.52128   2.52601
 Alpha virt. eigenvalues --    2.52988   2.53384   2.54092   2.54266   2.54515
 Alpha virt. eigenvalues --    2.55249   2.55726   2.56037   2.56908   2.57574
 Alpha virt. eigenvalues --    2.57935   2.58190   2.58299   2.58937   2.59097
 Alpha virt. eigenvalues --    2.59504   2.60000   2.60626   2.60944   2.61060
 Alpha virt. eigenvalues --    2.61799   2.62031   2.62386   2.62489   2.62980
 Alpha virt. eigenvalues --    2.63367   2.63700   2.64235   2.64545   2.65057
 Alpha virt. eigenvalues --    2.65420   2.65889   2.66178   2.66331   2.66642
 Alpha virt. eigenvalues --    2.66934   2.67653   2.67951   2.68287   2.68513
 Alpha virt. eigenvalues --    2.69341   2.69723   2.69940   2.70347   2.70523
 Alpha virt. eigenvalues --    2.70831   2.71230   2.71411   2.72065   2.72276
 Alpha virt. eigenvalues --    2.72428   2.72682   2.72965   2.73177   2.73733
 Alpha virt. eigenvalues --    2.74130   2.74407   2.74469   2.75436   2.75520
 Alpha virt. eigenvalues --    2.75606   2.76063   2.76801   2.76929   2.77315
 Alpha virt. eigenvalues --    2.77584   2.78182   2.78545   2.78618   2.78968
 Alpha virt. eigenvalues --    2.79940   2.80117   2.80617   2.80696   2.81122
 Alpha virt. eigenvalues --    2.81504   2.81982   2.82171   2.82430   2.82841
 Alpha virt. eigenvalues --    2.83139   2.83378   2.83869   2.84772   2.84882
 Alpha virt. eigenvalues --    2.85371   2.86021   2.86135   2.86343   2.86792
 Alpha virt. eigenvalues --    2.86931   2.87281   2.87546   2.87735   2.88496
 Alpha virt. eigenvalues --    2.88679   2.88771   2.89290   2.89509   2.89832
 Alpha virt. eigenvalues --    2.90231   2.90564   2.90888   2.91165   2.91359
 Alpha virt. eigenvalues --    2.91438   2.92061   2.92799   2.92916   2.93132
 Alpha virt. eigenvalues --    2.93370   2.93688   2.94085   2.94188   2.94416
 Alpha virt. eigenvalues --    2.94737   2.94968   2.95078   2.95730   2.95788
 Alpha virt. eigenvalues --    2.96178   2.96320   2.97142   2.97428   2.97716
 Alpha virt. eigenvalues --    2.98112   2.98203   2.98347   2.98650   2.98898
 Alpha virt. eigenvalues --    2.99405   3.00006   3.00254   3.00633   3.01042
 Alpha virt. eigenvalues --    3.01392   3.01642   3.01949   3.02054   3.02149
 Alpha virt. eigenvalues --    3.02780   3.03094   3.03595   3.03694   3.03937
 Alpha virt. eigenvalues --    3.04308   3.04586   3.04970   3.05369   3.05636
 Alpha virt. eigenvalues --    3.05750   3.06467   3.06792   3.06963   3.07279
 Alpha virt. eigenvalues --    3.07757   3.07900   3.08280   3.08791   3.09241
 Alpha virt. eigenvalues --    3.09628   3.09981   3.10450   3.11241   3.11270
 Alpha virt. eigenvalues --    3.11423   3.12009   3.12269   3.12291   3.12655
 Alpha virt. eigenvalues --    3.12898   3.13241   3.13651   3.14024   3.14395
 Alpha virt. eigenvalues --    3.15238   3.15269   3.15434   3.15818   3.16052
 Alpha virt. eigenvalues --    3.16427   3.17043   3.17276   3.17549   3.17712
 Alpha virt. eigenvalues --    3.18028   3.18373   3.18587   3.18664   3.19245
 Alpha virt. eigenvalues --    3.19669   3.19886   3.20336   3.20773   3.20955
 Alpha virt. eigenvalues --    3.21058   3.21392   3.21953   3.22239   3.22626
 Alpha virt. eigenvalues --    3.22804   3.23118   3.23588   3.24050   3.24120
 Alpha virt. eigenvalues --    3.24196   3.24582   3.24812   3.24971   3.25261
 Alpha virt. eigenvalues --    3.25746   3.25877   3.26317   3.26434   3.26793
 Alpha virt. eigenvalues --    3.27067   3.27276   3.27616   3.27852   3.28140
 Alpha virt. eigenvalues --    3.28234   3.28565   3.28776   3.28909   3.29315
 Alpha virt. eigenvalues --    3.29720   3.29890   3.30198   3.30412   3.30711
 Alpha virt. eigenvalues --    3.31448   3.31644   3.31894   3.32022   3.32353
 Alpha virt. eigenvalues --    3.32977   3.33343   3.33476   3.33822   3.34025
 Alpha virt. eigenvalues --    3.34267   3.34565   3.34832   3.35407   3.35801
 Alpha virt. eigenvalues --    3.36035   3.36358   3.36508   3.36684   3.37201
 Alpha virt. eigenvalues --    3.37424   3.37679   3.38014   3.38147   3.38572
 Alpha virt. eigenvalues --    3.39249   3.39340   3.39718   3.40472   3.40605
 Alpha virt. eigenvalues --    3.40691   3.41089   3.41493   3.41724   3.42617
 Alpha virt. eigenvalues --    3.42858   3.43178   3.43374   3.43786   3.43961
 Alpha virt. eigenvalues --    3.44781   3.44794   3.45080   3.45414   3.46123
 Alpha virt. eigenvalues --    3.46407   3.46751   3.47523   3.47814   3.48267
 Alpha virt. eigenvalues --    3.48331   3.49061   3.49582   3.49974   3.50195
 Alpha virt. eigenvalues --    3.50917   3.51002   3.51068   3.51732   3.52178
 Alpha virt. eigenvalues --    3.52372   3.52618   3.52879   3.53817   3.54107
 Alpha virt. eigenvalues --    3.54568   3.55047   3.55163   3.55721   3.56152
 Alpha virt. eigenvalues --    3.56480   3.56812   3.57180   3.57543   3.57755
 Alpha virt. eigenvalues --    3.58667   3.59377   3.59792   3.60011   3.60681
 Alpha virt. eigenvalues --    3.60993   3.61428   3.61771   3.62140   3.62655
 Alpha virt. eigenvalues --    3.63107   3.63716   3.64164   3.64698   3.64791
 Alpha virt. eigenvalues --    3.65292   3.65812   3.66221   3.66436   3.67192
 Alpha virt. eigenvalues --    3.67830   3.67977   3.68465   3.69145   3.69440
 Alpha virt. eigenvalues --    3.69904   3.70027   3.70467   3.71420   3.71930
 Alpha virt. eigenvalues --    3.72085   3.72480   3.72748   3.73253   3.73928
 Alpha virt. eigenvalues --    3.74209   3.74949   3.75139   3.75565   3.75830
 Alpha virt. eigenvalues --    3.76288   3.76919   3.77433   3.77903   3.78237
 Alpha virt. eigenvalues --    3.78833   3.79173   3.79477   3.79747   3.81786
 Alpha virt. eigenvalues --    3.82172   3.82736   3.83005   3.83888   3.84917
 Alpha virt. eigenvalues --    3.85294   3.85924   3.86190   3.86872   3.87093
 Alpha virt. eigenvalues --    3.88197   3.88779   3.88898   3.89361   3.89768
 Alpha virt. eigenvalues --    3.91023   3.91225   3.91538   3.91865   3.92070
 Alpha virt. eigenvalues --    3.92498   3.93084   3.93436   3.94029   3.95485
 Alpha virt. eigenvalues --    3.95803   3.96082   3.96531   3.96962   3.97906
 Alpha virt. eigenvalues --    3.97951   3.98893   3.99596   4.00119   4.01187
 Alpha virt. eigenvalues --    4.01261   4.01887   4.02536   4.02695   4.03324
 Alpha virt. eigenvalues --    4.04320   4.04583   4.05751   4.05996   4.06288
 Alpha virt. eigenvalues --    4.06875   4.07388   4.08694   4.09781   4.09989
 Alpha virt. eigenvalues --    4.10568   4.11431   4.12095   4.12723   4.13049
 Alpha virt. eigenvalues --    4.13842   4.14061   4.14690   4.15185   4.15597
 Alpha virt. eigenvalues --    4.16097   4.16837   4.17450   4.18098   4.18449
 Alpha virt. eigenvalues --    4.18733   4.20122   4.20620   4.21035   4.21867
 Alpha virt. eigenvalues --    4.22116   4.23393   4.23729   4.24439   4.25346
 Alpha virt. eigenvalues --    4.26231   4.26680   4.26738   4.27135   4.27550
 Alpha virt. eigenvalues --    4.28133   4.28946   4.29831   4.30115   4.30760
 Alpha virt. eigenvalues --    4.31536   4.31970   4.33040   4.33992   4.35136
 Alpha virt. eigenvalues --    4.35917   4.36423   4.37054   4.37576   4.38514
 Alpha virt. eigenvalues --    4.39871   4.40384   4.40832   4.41265   4.42573
 Alpha virt. eigenvalues --    4.43452   4.43805   4.44661   4.44927   4.45147
 Alpha virt. eigenvalues --    4.46661   4.47280   4.47618   4.48289   4.51073
 Alpha virt. eigenvalues --    4.51672   4.52663   4.53113   4.55565   4.55793
 Alpha virt. eigenvalues --    4.57083   4.57296   4.57786   4.58779   4.59282
 Alpha virt. eigenvalues --    4.59602   4.60536   4.61964   4.62549   4.63180
 Alpha virt. eigenvalues --    4.64522   4.64703   4.65725   4.66382   4.66901
 Alpha virt. eigenvalues --    4.67447   4.68165   4.68792   4.69109   4.69377
 Alpha virt. eigenvalues --    4.70526   4.71256   4.71824   4.71960   4.72577
 Alpha virt. eigenvalues --    4.73041   4.74023   4.74552   4.74634   4.75215
 Alpha virt. eigenvalues --    4.76542   4.77021   4.77326   4.77832   4.78848
 Alpha virt. eigenvalues --    4.79175   4.80275   4.80568   4.81017   4.81960
 Alpha virt. eigenvalues --    4.82377   4.82952   4.83744   4.84389   4.84912
 Alpha virt. eigenvalues --    4.85511   4.86746   4.86935   4.87682   4.88123
 Alpha virt. eigenvalues --    4.88892   4.89111   4.89277   4.90305   4.91473
 Alpha virt. eigenvalues --    4.92210   4.92607   4.93577   4.94340   4.94997
 Alpha virt. eigenvalues --    4.95601   4.96657   4.97854   4.98978   5.02025
 Alpha virt. eigenvalues --    5.02431   5.03916   5.04974   5.06980   5.07449
 Alpha virt. eigenvalues --    5.08610   5.09531   5.10393   5.10730   5.11367
 Alpha virt. eigenvalues --    5.11884   5.13219   5.14157   5.14536   5.15601
 Alpha virt. eigenvalues --    5.15798   5.16225   5.17457   5.17827   5.18748
 Alpha virt. eigenvalues --    5.21550   5.22069   5.22683   5.24794   5.25758
 Alpha virt. eigenvalues --    5.26671   5.27572   5.29279   5.30916   5.32718
 Alpha virt. eigenvalues --    5.33251   5.35327   5.35845   5.36131   5.39169
 Alpha virt. eigenvalues --    5.39915   5.41165   5.41570   5.43531   5.45128
 Alpha virt. eigenvalues --    5.47878   5.48239   5.48942   5.49414   5.50947
 Alpha virt. eigenvalues --    5.51391   5.52569   5.53113   5.54214   5.55547
 Alpha virt. eigenvalues --    5.56868   5.57949   5.61283   5.62189   5.63688
 Alpha virt. eigenvalues --    5.66733   5.67987   5.72747   5.73553   5.73912
 Alpha virt. eigenvalues --    5.75839   5.79792   5.80748   5.83025   5.87841
 Alpha virt. eigenvalues --    5.88562   5.89327   5.90847   5.93429   5.95923
 Alpha virt. eigenvalues --    5.97340   5.99790   6.01293   6.05479   6.07457
 Alpha virt. eigenvalues --    6.07859   6.10804   6.19231   6.21957   6.24641
 Alpha virt. eigenvalues --    6.26393   6.26739   6.26947   6.28776   6.33944
 Alpha virt. eigenvalues --    6.34207   6.38060   6.40131   6.43576   6.44567
 Alpha virt. eigenvalues --    6.47249   6.56038   6.60497   6.66720   6.70890
 Alpha virt. eigenvalues --    6.74783   6.78099   6.85453   6.88058   6.95460
 Alpha virt. eigenvalues --    7.00884   7.04237   7.08653   7.10934   7.11821
 Alpha virt. eigenvalues --    7.17862   7.20429   8.90788   9.13483   9.35355
 Alpha virt. eigenvalues --   19.53367  22.23481  22.56082  22.64149  22.70997
 Alpha virt. eigenvalues --   22.76933  22.78368  22.81523  22.84368  22.85145
 Alpha virt. eigenvalues --   22.85778  22.89592  22.92658  22.93655  22.96349
 Alpha virt. eigenvalues --   22.98891  22.99847  23.01001  23.05265  23.10970
 Alpha virt. eigenvalues --   23.12290  23.14042  23.16446  23.22471  23.25684
 Alpha virt. eigenvalues --   23.28244  23.34127  23.35579  23.41178  23.42758
 Alpha virt. eigenvalues --   23.47360  23.52303  23.57047  23.66547  23.69882
 Alpha virt. eigenvalues --   23.76063  32.73559  32.76901  32.78661  32.98228
 Alpha virt. eigenvalues --   43.86605  43.87700  43.89169  43.92215
  Beta  occ. eigenvalues -- -256.51692 -89.17871 -30.27849 -26.11113 -26.10435
  Beta  occ. eigenvalues --  -26.10084 -19.33867 -19.32644 -19.26440 -19.25202
  Beta  occ. eigenvalues --  -14.54159 -14.50823 -14.49769 -14.48351 -10.43608
  Beta  occ. eigenvalues --  -10.42318 -10.37709 -10.37583 -10.37477 -10.37008
  Beta  occ. eigenvalues --  -10.36398 -10.36125 -10.35983 -10.35816 -10.35744
  Beta  occ. eigenvalues --  -10.34449 -10.34355 -10.34003 -10.33919 -10.33376
  Beta  occ. eigenvalues --  -10.33172 -10.33114 -10.33055 -10.32704 -10.32614
  Beta  occ. eigenvalues --  -10.32505 -10.32357 -10.32007 -10.30851 -10.29606
  Beta  occ. eigenvalues --  -10.29364 -10.29303 -10.28568 -10.28344 -10.27588
  Beta  occ. eigenvalues --  -10.27560 -10.27340 -10.25838 -10.25040  -8.16016
  Beta  occ. eigenvalues --   -6.09658  -6.09452  -6.08816  -3.61415  -2.38994
  Beta  occ. eigenvalues --   -2.35802  -2.35512  -1.24548  -1.23988  -1.13186
  Beta  occ. eigenvalues --   -1.10675  -1.09668  -1.09275  -1.07938  -1.06792
  Beta  occ. eigenvalues --   -0.96806  -0.95459  -0.95051  -0.94309  -0.93946
  Beta  occ. eigenvalues --   -0.93470  -0.93374  -0.93017  -0.90024  -0.89538
  Beta  occ. eigenvalues --   -0.88954  -0.88646  -0.88470  -0.86103  -0.84888
  Beta  occ. eigenvalues --   -0.83935  -0.83209  -0.82000  -0.81754  -0.80035
  Beta  occ. eigenvalues --   -0.78846  -0.78086  -0.77694  -0.76541  -0.75577
  Beta  occ. eigenvalues --   -0.75170  -0.74474  -0.72036  -0.71197  -0.68271
  Beta  occ. eigenvalues --   -0.67659  -0.66969  -0.66400  -0.64791  -0.63862
  Beta  occ. eigenvalues --   -0.63331  -0.62509  -0.61800  -0.61751  -0.61159
  Beta  occ. eigenvalues --   -0.60758  -0.60438  -0.59778  -0.59608  -0.58936
  Beta  occ. eigenvalues --   -0.58557  -0.58165  -0.57561  -0.57463  -0.57286
  Beta  occ. eigenvalues --   -0.57081  -0.56711  -0.56533  -0.55656  -0.55564
  Beta  occ. eigenvalues --   -0.55464  -0.55320  -0.55217  -0.54846  -0.54707
  Beta  occ. eigenvalues --   -0.54530  -0.54299  -0.54008  -0.53560  -0.53386
  Beta  occ. eigenvalues --   -0.52847  -0.52819  -0.52590  -0.52353  -0.51511
  Beta  occ. eigenvalues --   -0.51367  -0.51045  -0.50668  -0.50267  -0.49776
  Beta  occ. eigenvalues --   -0.49737  -0.49374  -0.48796  -0.48278  -0.48067
  Beta  occ. eigenvalues --   -0.47857  -0.47355  -0.47213  -0.47036  -0.46803
  Beta  occ. eigenvalues --   -0.46268  -0.45528  -0.45304  -0.45144  -0.44836
  Beta  occ. eigenvalues --   -0.44299  -0.43853  -0.43390  -0.43228  -0.41910
  Beta  occ. eigenvalues --   -0.41437  -0.41222  -0.40926  -0.40258  -0.39700
  Beta  occ. eigenvalues --   -0.39499  -0.37817  -0.36428  -0.36158  -0.35047
  Beta  occ. eigenvalues --   -0.34563  -0.33956  -0.32852  -0.31914  -0.30809
  Beta virt. eigenvalues --   -0.20349  -0.19672  -0.17950  -0.17387  -0.16179
  Beta virt. eigenvalues --   -0.12194  -0.11213  -0.08980  -0.08679  -0.07564
  Beta virt. eigenvalues --   -0.06669  -0.06271  -0.05606  -0.04222  -0.04143
  Beta virt. eigenvalues --   -0.03714  -0.03634  -0.03527  -0.02895  -0.02349
  Beta virt. eigenvalues --   -0.02247  -0.01739  -0.01272  -0.00848  -0.00543
  Beta virt. eigenvalues --   -0.00321   0.00222   0.00585   0.01055   0.01288
  Beta virt. eigenvalues --    0.01430   0.01712   0.01895   0.02143   0.02612
  Beta virt. eigenvalues --    0.02768   0.02894   0.03272   0.03384   0.03649
  Beta virt. eigenvalues --    0.03713   0.04048   0.04592   0.04706   0.04785
  Beta virt. eigenvalues --    0.05073   0.05202   0.05300   0.05461   0.05593
  Beta virt. eigenvalues --    0.06016   0.06288   0.06634   0.06811   0.06987
  Beta virt. eigenvalues --    0.07124   0.07774   0.08068   0.08193   0.08321
  Beta virt. eigenvalues --    0.08573   0.08802   0.09025   0.09398   0.09584
  Beta virt. eigenvalues --    0.09707   0.09956   0.10284   0.10519   0.10604
  Beta virt. eigenvalues --    0.10946   0.11110   0.11296   0.11554   0.11702
  Beta virt. eigenvalues --    0.12032   0.12161   0.12370   0.12447   0.12665
  Beta virt. eigenvalues --    0.12896   0.12990   0.13393   0.13507   0.13746
  Beta virt. eigenvalues --    0.13776   0.14150   0.14218   0.14405   0.14513
  Beta virt. eigenvalues --    0.14896   0.14952   0.15184   0.15697   0.15819
  Beta virt. eigenvalues --    0.15910   0.16188   0.16388   0.16751   0.16973
  Beta virt. eigenvalues --    0.17183   0.17375   0.17644   0.17898   0.18041
  Beta virt. eigenvalues --    0.18167   0.18535   0.18801   0.18993   0.19085
  Beta virt. eigenvalues --    0.19207   0.19410   0.19781   0.19945   0.20311
  Beta virt. eigenvalues --    0.20636   0.20831   0.20919   0.21427   0.21669
  Beta virt. eigenvalues --    0.22058   0.22503   0.22766   0.22917   0.23228
  Beta virt. eigenvalues --    0.23534   0.23844   0.24308   0.24363   0.24675
  Beta virt. eigenvalues --    0.24919   0.25184   0.25305   0.25886   0.26010
  Beta virt. eigenvalues --    0.26272   0.26463   0.26755   0.27002   0.27261
  Beta virt. eigenvalues --    0.27594   0.27712   0.28248   0.28649   0.28776
  Beta virt. eigenvalues --    0.29192   0.29426   0.29637   0.29823   0.30019
  Beta virt. eigenvalues --    0.30380   0.30556   0.30703   0.30797   0.31144
  Beta virt. eigenvalues --    0.31546   0.31688   0.31861   0.32410   0.32575
  Beta virt. eigenvalues --    0.32816   0.33101   0.33342   0.33699   0.33886
  Beta virt. eigenvalues --    0.34071   0.34290   0.34373   0.34516   0.34666
  Beta virt. eigenvalues --    0.34857   0.34945   0.35284   0.35533   0.36023
  Beta virt. eigenvalues --    0.36281   0.36430   0.36572   0.36640   0.36855
  Beta virt. eigenvalues --    0.37055   0.37433   0.37588   0.37874   0.38077
  Beta virt. eigenvalues --    0.38521   0.38634   0.38908   0.39145   0.39277
  Beta virt. eigenvalues --    0.39333   0.39489   0.39801   0.39984   0.40083
  Beta virt. eigenvalues --    0.40166   0.40569   0.40941   0.41038   0.41395
  Beta virt. eigenvalues --    0.41711   0.41793   0.41938   0.42274   0.42449
  Beta virt. eigenvalues --    0.42651   0.42827   0.43164   0.43242   0.43472
  Beta virt. eigenvalues --    0.43587   0.43815   0.43914   0.44259   0.44336
  Beta virt. eigenvalues --    0.44634   0.44705   0.44936   0.45130   0.45238
  Beta virt. eigenvalues --    0.45480   0.45848   0.45996   0.46157   0.46408
  Beta virt. eigenvalues --    0.46702   0.46744   0.47237   0.47313   0.47671
  Beta virt. eigenvalues --    0.47816   0.48022   0.48160   0.48304   0.48414
  Beta virt. eigenvalues --    0.48960   0.49163   0.49361   0.49538   0.49814
  Beta virt. eigenvalues --    0.50127   0.50354   0.50550   0.50735   0.51037
  Beta virt. eigenvalues --    0.51290   0.51744   0.52171   0.52280   0.52512
  Beta virt. eigenvalues --    0.52723   0.52868   0.53538   0.53796   0.53855
  Beta virt. eigenvalues --    0.54256   0.54401   0.54759   0.54912   0.55195
  Beta virt. eigenvalues --    0.55330   0.55702   0.56154   0.56339   0.56827
  Beta virt. eigenvalues --    0.57144   0.57316   0.57572   0.57624   0.58072
  Beta virt. eigenvalues --    0.58123   0.58278   0.58897   0.58956   0.59109
  Beta virt. eigenvalues --    0.59454   0.59705   0.60111   0.60215   0.60705
  Beta virt. eigenvalues --    0.60863   0.61246   0.61385   0.61813   0.62193
  Beta virt. eigenvalues --    0.62384   0.62534   0.62957   0.63078   0.63304
  Beta virt. eigenvalues --    0.63668   0.64367   0.64504   0.64706   0.64870
  Beta virt. eigenvalues --    0.65075   0.65217   0.65628   0.66030   0.66244
  Beta virt. eigenvalues --    0.66421   0.66642   0.67199   0.67539   0.67794
  Beta virt. eigenvalues --    0.67995   0.68672   0.68842   0.69009   0.69496
  Beta virt. eigenvalues --    0.69571   0.70028   0.70583   0.70644   0.70851
  Beta virt. eigenvalues --    0.71524   0.71850   0.72101   0.72280   0.72340
  Beta virt. eigenvalues --    0.73036   0.73545   0.73640   0.73767   0.74096
  Beta virt. eigenvalues --    0.74415   0.74789   0.75079   0.75434   0.75612
  Beta virt. eigenvalues --    0.75906   0.76373   0.76704   0.76944   0.77488
  Beta virt. eigenvalues --    0.77875   0.78158   0.78408   0.78712   0.78940
  Beta virt. eigenvalues --    0.79213   0.79806   0.80150   0.80403   0.80951
  Beta virt. eigenvalues --    0.81754   0.81843   0.81889   0.82584   0.82642
  Beta virt. eigenvalues --    0.82843   0.83273   0.84170   0.84511   0.84603
  Beta virt. eigenvalues --    0.84932   0.85240   0.85591   0.85749   0.85954
  Beta virt. eigenvalues --    0.86240   0.86395   0.86746   0.87244   0.87635
  Beta virt. eigenvalues --    0.87748   0.88030   0.88132   0.88426   0.88863
  Beta virt. eigenvalues --    0.89178   0.89262   0.89723   0.90481   0.90739
  Beta virt. eigenvalues --    0.91360   0.91732   0.91986   0.92557   0.92617
  Beta virt. eigenvalues --    0.92990   0.93239   0.93399   0.93831   0.94212
  Beta virt. eigenvalues --    0.94405   0.94721   0.95044   0.95168   0.95724
  Beta virt. eigenvalues --    0.95957   0.96321   0.96451   0.96749   0.97105
  Beta virt. eigenvalues --    0.97186   0.97587   0.97827   0.98214   0.98396
  Beta virt. eigenvalues --    0.98520   0.99130   0.99378   0.99715   1.00323
  Beta virt. eigenvalues --    1.00568   1.00965   1.01300   1.01652   1.01914
  Beta virt. eigenvalues --    1.02368   1.02599   1.02931   1.03042   1.03568
  Beta virt. eigenvalues --    1.03735   1.04264   1.04701   1.05327   1.05893
  Beta virt. eigenvalues --    1.06101   1.06529   1.06757   1.07447   1.08237
  Beta virt. eigenvalues --    1.08430   1.08565   1.09321   1.09764   1.10207
  Beta virt. eigenvalues --    1.11083   1.11344   1.11576   1.12234   1.12513
  Beta virt. eigenvalues --    1.12817   1.13374   1.13401   1.14514   1.14917
  Beta virt. eigenvalues --    1.15259   1.15361   1.15976   1.16172   1.16806
  Beta virt. eigenvalues --    1.17199   1.17550   1.17881   1.18490   1.18782
  Beta virt. eigenvalues --    1.19640   1.19847   1.20392   1.20461   1.20832
  Beta virt. eigenvalues --    1.21762   1.22565   1.23026   1.23256   1.23667
  Beta virt. eigenvalues --    1.23966   1.24213   1.24643   1.24754   1.25388
  Beta virt. eigenvalues --    1.25758   1.26355   1.27422   1.27664   1.27741
  Beta virt. eigenvalues --    1.28187   1.28684   1.28723   1.29158   1.29398
  Beta virt. eigenvalues --    1.30092   1.30726   1.31100   1.31910   1.32629
  Beta virt. eigenvalues --    1.32791   1.32994   1.33407   1.33721   1.34362
  Beta virt. eigenvalues --    1.34819   1.35314   1.35915   1.36577   1.36691
  Beta virt. eigenvalues --    1.37557   1.37616   1.37768   1.38143   1.38784
  Beta virt. eigenvalues --    1.38942   1.39214   1.39743   1.40474   1.40846
  Beta virt. eigenvalues --    1.41068   1.41606   1.41905   1.42156   1.42221
  Beta virt. eigenvalues --    1.42527   1.42862   1.43268   1.43880   1.44289
  Beta virt. eigenvalues --    1.44468   1.44598   1.44919   1.45154   1.45325
  Beta virt. eigenvalues --    1.45794   1.46087   1.46419   1.46757   1.46933
  Beta virt. eigenvalues --    1.47692   1.47786   1.47994   1.48527   1.48623
  Beta virt. eigenvalues --    1.48630   1.49240   1.49578   1.49858   1.50556
  Beta virt. eigenvalues --    1.50734   1.51156   1.51242   1.51516   1.51829
  Beta virt. eigenvalues --    1.52155   1.52159   1.52588   1.53089   1.53409
  Beta virt. eigenvalues --    1.53718   1.53886   1.54261   1.54426   1.54744
  Beta virt. eigenvalues --    1.54967   1.55301   1.55529   1.55951   1.56046
  Beta virt. eigenvalues --    1.56153   1.56371   1.56982   1.57195   1.57304
  Beta virt. eigenvalues --    1.57444   1.57863   1.57996   1.58410   1.58740
  Beta virt. eigenvalues --    1.58947   1.59066   1.59325   1.59437   1.59846
  Beta virt. eigenvalues --    1.59966   1.60249   1.60629   1.60976   1.61168
  Beta virt. eigenvalues --    1.61596   1.62244   1.62638   1.62749   1.63016
  Beta virt. eigenvalues --    1.63107   1.63795   1.64046   1.64486   1.64710
  Beta virt. eigenvalues --    1.65166   1.65759   1.66020   1.66324   1.66514
  Beta virt. eigenvalues --    1.66984   1.67178   1.67536   1.68400   1.68928
  Beta virt. eigenvalues --    1.69211   1.69932   1.70156   1.70624   1.70898
  Beta virt. eigenvalues --    1.71018   1.71449   1.73091   1.73426   1.73667
  Beta virt. eigenvalues --    1.73887   1.74126   1.74660   1.74961   1.75435
  Beta virt. eigenvalues --    1.76015   1.76077   1.76619   1.76939   1.77226
  Beta virt. eigenvalues --    1.77650   1.78020   1.78538   1.79108   1.79274
  Beta virt. eigenvalues --    1.79735   1.80101   1.80307   1.81062   1.81371
  Beta virt. eigenvalues --    1.81629   1.82051   1.82293   1.82866   1.83618
  Beta virt. eigenvalues --    1.84193   1.84253   1.84549   1.84847   1.85216
  Beta virt. eigenvalues --    1.85973   1.86575   1.87300   1.87539   1.87826
  Beta virt. eigenvalues --    1.88117   1.88804   1.89044   1.89486   1.89928
  Beta virt. eigenvalues --    1.90220   1.90712   1.91020   1.91222   1.91420
  Beta virt. eigenvalues --    1.91632   1.92525   1.92623   1.93113   1.93303
  Beta virt. eigenvalues --    1.93736   1.93968   1.94486   1.94874   1.94956
  Beta virt. eigenvalues --    1.95174   1.95822   1.96033   1.96503   1.96934
  Beta virt. eigenvalues --    1.97198   1.97687   1.98291   1.98958   1.99577
  Beta virt. eigenvalues --    2.00314   2.00497   2.00851   2.01001   2.02282
  Beta virt. eigenvalues --    2.02848   2.03350   2.03513   2.03755   2.04028
  Beta virt. eigenvalues --    2.04303   2.04677   2.04735   2.05518   2.05752
  Beta virt. eigenvalues --    2.06045   2.06338   2.06580   2.06894   2.07861
  Beta virt. eigenvalues --    2.07926   2.08089   2.08344   2.08965   2.09048
  Beta virt. eigenvalues --    2.09514   2.09896   2.10195   2.10683   2.11252
  Beta virt. eigenvalues --    2.11600   2.12427   2.12844   2.13584   2.13855
  Beta virt. eigenvalues --    2.14418   2.14658   2.15179   2.15378   2.16047
  Beta virt. eigenvalues --    2.16438   2.16704   2.17096   2.17719   2.18090
  Beta virt. eigenvalues --    2.18214   2.18728   2.19270   2.19679   2.19872
  Beta virt. eigenvalues --    2.20146   2.20974   2.21115   2.21421   2.21500
  Beta virt. eigenvalues --    2.21870   2.22417   2.23784   2.24023   2.24334
  Beta virt. eigenvalues --    2.24705   2.25060   2.26401   2.27166   2.27728
  Beta virt. eigenvalues --    2.27814   2.28209   2.28808   2.29255   2.29457
  Beta virt. eigenvalues --    2.30289   2.30426   2.30780   2.31128   2.31365
  Beta virt. eigenvalues --    2.32319   2.32631   2.32846   2.33337   2.33644
  Beta virt. eigenvalues --    2.34028   2.34519   2.34613   2.35649   2.35723
  Beta virt. eigenvalues --    2.35964   2.36911   2.37309   2.37595   2.37896
  Beta virt. eigenvalues --    2.38393   2.38823   2.39501   2.39798   2.39896
  Beta virt. eigenvalues --    2.40505   2.41411   2.42011   2.42236   2.42891
  Beta virt. eigenvalues --    2.43467   2.43899   2.44737   2.45156   2.45398
  Beta virt. eigenvalues --    2.45462   2.45909   2.46205   2.46429   2.46900
  Beta virt. eigenvalues --    2.47091   2.47659   2.48046   2.48144   2.48600
  Beta virt. eigenvalues --    2.49149   2.49672   2.49866   2.50119   2.50518
  Beta virt. eigenvalues --    2.50761   2.51438   2.51591   2.51697   2.52159
  Beta virt. eigenvalues --    2.52633   2.53003   2.53451   2.54135   2.54380
  Beta virt. eigenvalues --    2.54578   2.55269   2.55780   2.56112   2.56967
  Beta virt. eigenvalues --    2.57575   2.57956   2.58211   2.58301   2.58972
  Beta virt. eigenvalues --    2.59096   2.59534   2.59994   2.60632   2.60949
  Beta virt. eigenvalues --    2.61117   2.61810   2.62033   2.62407   2.62557
  Beta virt. eigenvalues --    2.62996   2.63376   2.63826   2.64248   2.64544
  Beta virt. eigenvalues --    2.65090   2.65443   2.65905   2.66175   2.66346
  Beta virt. eigenvalues --    2.66674   2.66917   2.67678   2.67954   2.68322
  Beta virt. eigenvalues --    2.68572   2.69368   2.69725   2.69943   2.70363
  Beta virt. eigenvalues --    2.70518   2.70833   2.71236   2.71403   2.72061
  Beta virt. eigenvalues --    2.72288   2.72444   2.72676   2.73036   2.73205
  Beta virt. eigenvalues --    2.73743   2.74112   2.74394   2.74472   2.75447
  Beta virt. eigenvalues --    2.75542   2.75605   2.76058   2.76788   2.76925
  Beta virt. eigenvalues --    2.77336   2.77597   2.78184   2.78549   2.78623
  Beta virt. eigenvalues --    2.78974   2.79935   2.80151   2.80625   2.80693
  Beta virt. eigenvalues --    2.81186   2.81513   2.81987   2.82193   2.82449
  Beta virt. eigenvalues --    2.82872   2.83188   2.83389   2.83883   2.84790
  Beta virt. eigenvalues --    2.84899   2.85375   2.86046   2.86151   2.86356
  Beta virt. eigenvalues --    2.86848   2.86936   2.87311   2.87551   2.87741
  Beta virt. eigenvalues --    2.88511   2.88676   2.88827   2.89295   2.89542
  Beta virt. eigenvalues --    2.89832   2.90322   2.90566   2.90890   2.91204
  Beta virt. eigenvalues --    2.91367   2.91444   2.92082   2.92802   2.92922
  Beta virt. eigenvalues --    2.93155   2.93370   2.93692   2.94089   2.94206
  Beta virt. eigenvalues --    2.94411   2.94751   2.94988   2.95085   2.95736
  Beta virt. eigenvalues --    2.95833   2.96191   2.96341   2.97147   2.97449
  Beta virt. eigenvalues --    2.97732   2.98126   2.98225   2.98349   2.98677
  Beta virt. eigenvalues --    2.98905   2.99432   3.00022   3.00272   3.00662
  Beta virt. eigenvalues --    3.01046   3.01400   3.01642   3.01967   3.02079
  Beta virt. eigenvalues --    3.02157   3.02797   3.03114   3.03605   3.03710
  Beta virt. eigenvalues --    3.03972   3.04315   3.04594   3.04994   3.05384
  Beta virt. eigenvalues --    3.05644   3.05792   3.06496   3.06812   3.06970
  Beta virt. eigenvalues --    3.07290   3.07781   3.07943   3.08304   3.08792
  Beta virt. eigenvalues --    3.09252   3.09663   3.10012   3.10461   3.11253
  Beta virt. eigenvalues --    3.11320   3.11452   3.12068   3.12293   3.12340
  Beta virt. eigenvalues --    3.12673   3.12938   3.13361   3.13719   3.14064
  Beta virt. eigenvalues --    3.14415   3.15253   3.15301   3.15460   3.15883
  Beta virt. eigenvalues --    3.16079   3.16439   3.17074   3.17284   3.17558
  Beta virt. eigenvalues --    3.17723   3.18044   3.18409   3.18650   3.18715
  Beta virt. eigenvalues --    3.19254   3.19684   3.19919   3.20370   3.20808
  Beta virt. eigenvalues --    3.20968   3.21088   3.21406   3.21970   3.22270
  Beta virt. eigenvalues --    3.22656   3.22866   3.23140   3.23574   3.24053
  Beta virt. eigenvalues --    3.24163   3.24221   3.24627   3.24828   3.25030
  Beta virt. eigenvalues --    3.25289   3.25749   3.25873   3.26362   3.26481
  Beta virt. eigenvalues --    3.26808   3.27057   3.27294   3.27643   3.27866
  Beta virt. eigenvalues --    3.28193   3.28332   3.28578   3.28803   3.28921
  Beta virt. eigenvalues --    3.29346   3.29741   3.29897   3.30224   3.30453
  Beta virt. eigenvalues --    3.30741   3.31469   3.31667   3.31912   3.32039
  Beta virt. eigenvalues --    3.32373   3.33017   3.33368   3.33498   3.33852
[...]
  1411. RY*(   4) H  57                  0.00004     2.37590   
  1412. RY*(   5) H  57                  0.00001     3.19758   
  1413. RY*(   1) H  58                  0.00030     1.41210   
  1414. RY*(   2) H  58                  0.00007     1.40630   
  1415. RY*(   3) H  58                  0.00006     2.27169   
  1416. RY*(   4) H  58                  0.00004     2.35356   
  1417. RY*(   5) H  58                  0.00000     3.18049   
  1418. RY*(   1) H  59                  0.00033     1.23012   
  1419. RY*(   2) H  59                  0.00010     1.53196   
  1420. RY*(   3) H  59                  0.00004     2.21981   
  1421. RY*(   4) H  59                  0.00002     1.94651   
  1422. RY*(   5) H  59                  0.00000     3.13417   
  1423. RY*(   1) H  60                  0.00033     1.20308   
  1424. RY*(   2) H  60                  0.00010     1.56814   
  1425. RY*(   3) H  60                  0.00003     2.21686   
  1426. RY*(   4) H  60                  0.00004     1.99560   
  1427. RY*(   5) H  60                  0.00000     3.08929   
  1428. RY*(   1) H  61                  0.00021     1.55157   
  1429. RY*(   2) H  61                  0.00008     1.75339   
  1430. RY*(   3) H  61                  0.00004     2.13155   
  1431. RY*(   4) H  61                  0.00001     2.12280   
  1432. RY*(   5) H  61                  0.00001     2.75632   
  1433. RY*(   1) H  62                  0.00042     1.11613   
  1434. RY*(   2) H  62                  0.00013     1.66292   
  1435. RY*(   3) H  62                  0.00006     2.49960   
  1436. RY*(   4) H  62                  0.00003     2.08043   
  1437. RY*(   5) H  62                  0.00001     2.98824   
  1438. RY*(   1) H  63                  0.00031     1.38097   
  1439. RY*(   2) H  63                  0.00007     1.45203   
  1440. RY*(   3) H  63                  0.00004     1.83620   
  1441. RY*(   4) H  63                  0.00003     2.18941   
  1442. RY*(   5) H  63                  0.00001     3.16841   
  1443. RY*(   1) H  64                  0.00021     1.63472   
  1444. RY*(   2) H  64                  0.00006     1.53607   
  1445. RY*(   3) H  64                  0.00004     2.14940   
  1446. RY*(   4) H  64                  0.00002     1.71155   
  1447. RY*(   5) H  64                  0.00000     2.94990   
  1448. RY*(   1) H  65                  0.00032     1.40895   
  1449. RY*(   2) H  65                  0.00008     1.57541   
  1450. RY*(   3) H  65                  0.00003     1.67757   
  1451. RY*(   4) H  65                  0.00003     2.18217   
  1452. RY*(   5) H  65                  0.00000     3.13700   
  1453. RY*(   1) H  66                  0.00030     1.27891   
  1454. RY*(   2) H  66                  0.00010     1.48507   
  1455. RY*(   3) H  66                  0.00004     2.22240   
  1456. RY*(   4) H  66                  0.00001     1.99299   
  1457. RY*(   5) H  66                  0.00000     3.08036   
  1458. RY*(   1) H  67                  0.00031     1.23702   
  1459. RY*(   2) H  67                  0.00010     1.65730   
  1460. RY*(   3) H  67                  0.00004     1.85190   
  1461. RY*(   4) H  67                  0.00003     2.15322   
  1462. RY*(   5) H  67                  0.00001     3.16361   
  1463. RY*(   1) H  68                  0.00021     1.52412   
  1464. RY*(   2) H  68                  0.00008     1.71984   
  1465. RY*(   3) H  68                  0.00004     2.12403   
  1466. RY*(   4) H  68                  0.00001     3.08407   
  1467. RY*(   5) H  68                  0.00001     1.82878   
  1468. RY*(   1) H  69                  0.00027     1.21561   
  1469. RY*(   2) H  69                  0.00016     1.88203   
  1470. RY*(   3) H  69                  0.00005     1.76178   
  1471. RY*(   4) H  69                  0.00003     2.05090   
  1472. RY*(   5) H  69                  0.00000     2.82221   
  1473. RY*(   1) H  70                  0.00017     1.95926   
  1474. RY*(   2) H  70                  0.00006     1.99768   
  1475. RY*(   3) H  70                  0.00004     2.14564   
  1476. RY*(   4) H  70                  0.00002     0.56990   
  1477. RY*(   5) H  70                  0.00000     3.04187   
  1478. RY*(   1) H  71                  0.00036     1.17957   
  1479. RY*(   2) H  71                  0.00006     1.74602   
  1480. RY*(   3) H  71                  0.00005     2.12786   
  1481. RY*(   4) H  71                  0.00004     2.00091   
  1482. RY*(   5) H  71                  0.00000     3.04117   
  1483. RY*(   1) H  72                  0.00017     1.91061   
  1484. RY*(   2) H  72                  0.00006     2.06465   
  1485. RY*(   3) H  72                  0.00005     1.96715   
  1486. RY*(   4) H  72                  0.00003     0.69574   
  1487. RY*(   5) H  72                  0.00000     3.08177   
  1488. RY*(   1) H  73                  0.00032     1.32880   
  1489. RY*(   2) H  73                  0.00009     1.53680   
  1490. RY*(   3) H  73                  0.00003     2.19960   
  1491. RY*(   4) H  73                  0.00003     1.84076   
  1492. RY*(   5) H  73                  0.00000     3.04823   
  1493. RY*(   1) H  74                  0.00024     1.53527   
  1494. RY*(   2) H  74                  0.00008     1.71789   
  1495. RY*(   3) H  74                  0.00003     2.10638   
  1496. RY*(   4) H  74                  0.00001     2.19628   
  1497. RY*(   5) H  74                  0.00000     2.60842   
  1498. RY*(   1) H  75                  0.00031     1.55792   
  1499. RY*(   2) H  75                  0.00008     1.53545   
  1500. RY*(   3) H  75                  0.00003     2.14749   
  1501. RY*(   4) H  75                  0.00001     1.67138   
  1502. RY*(   5) H  75                  0.00000     3.03458   
  1503. RY*(   1) H  76                  0.00057     0.61100   
  1504. RY*(   2) H  76                  0.00012     2.19189   
  1505. RY*(   3) H  76                  0.00007     2.62854   
  1506. RY*(   4) H  76                  0.00005     2.53237   
  1507. RY*(   5) H  76                  0.00000     3.16834   
  1508. RY*(   1) H  77                  0.00088     0.53782   
  1509. RY*(   2) H  77                  0.00013     2.30187   
  1510. RY*(   3) H  77                  0.00008     2.67396   
  1511. RY*(   4) H  77                  0.00006     2.53486   
  1512. RY*(   5) H  77                  0.00001     3.21204   
  1513. RY*(   1) H  78                  0.00027     1.62445   
  1514. RY*(   2) H  78                  0.00008     1.57899   
  1515. RY*(   3) H  78                  0.00004     2.29280   
  1516. RY*(   4) H  78                  0.00001     2.88551   
  1517. RY*(   5) H  78                  0.00002     2.45373   
  1518. RY*(   1) H  79                  0.00029     1.42141   
  1519. RY*(   2) H  79                  0.00008     1.20907   
  1520. RY*(   3) H  79                  0.00006     2.51173   
  1521. RY*(   4) H  79                  0.00003     2.39312   
  1522. RY*(   5) H  79                  0.00001     3.17461   
  1523. RY*(   1) H  80                  0.00052     0.95311   
  1524. RY*(   2) H  80                  0.00033     1.75003   
  1525. RY*(   3) H  80                  0.00022     1.80611   
  1526. RY*(   4) H  80                  0.00012     2.10452   
  1527. RY*(   5) H  80                  0.00000     3.19967   
  1528. RY*(   1) H  81                  0.00047     1.48365   
  1529. RY*(   2) H  81                  0.00035     1.18474   
  1530. RY*(   3) H  81                  0.00022     1.94699   
  1531. RY*(   4) H  81                  0.00012     2.12699   
  1532. RY*(   5) H  81                  0.00000     3.20820   
  1533. RY*(   1) H  82                  0.00035     1.10151   
  1534. RY*(   2) H  82                  0.00013     2.04939   
  1535. RY*(   3) H  82                  0.00006     1.63367   
  1536. RY*(   4) H  82                  0.00004     2.12088   
  1537. RY*(   5) H  82                  0.00000     2.84532   
  1538. RY*(   1) H  83                  0.00035     1.17206   
  1539. RY*(   2) H  83                  0.00015     1.57292   
  1540. RY*(   3) H  83                  0.00006     2.54972   
  1541. RY*(   4) H  83                  0.00001     2.54923   
  1542. RY*(   5) H  83                  0.00002     2.55500   
  1543. RY*(   1) H  84                  0.00031     1.30116   
  1544. RY*(   2) H  84                  0.00006     1.96397   
  1545. RY*(   3) H  84                  0.00004     1.22507   
  1546. RY*(   4) H  84                  0.00002     2.42586   
  1547. RY*(   5) H  84                  0.00002     2.52495   
  1548. RY*(   1) H  85                  0.00071     0.78495   
  1549. RY*(   2) H  85                  0.00049     1.59651   
  1550. RY*(   3) H  85                  0.00012     1.61089   
  1551. RY*(   4) H  85                  0.00008     2.36251   
  1552. RY*(   5) H  85                  0.00005     1.79110   
  1553. BD*(   1) C   1 - S   2          0.01078     0.01475   
  1554. BD*(   1) C   1 - H   3          0.00411     0.28483   
  1555. BD*(   1) C   1 - H   4          0.00351     0.26920   
  1556. BD*(   1) C   1 - H  84          0.00670     0.27082   
  1557. BD*(   1) S   2 -Fe   5          0.01925     0.20305   
  1558. BD*(   1) S   2 - H  85          0.01537     0.08636   
  1559. BD*(   1)Fe   5 - N  21          0.03894     0.08358   
  1560. BD*(   1)Fe   5 - N  29          0.07897     0.04895   
  1561. BD*(   2)Fe   5 - N  29          0.08769    -0.05025   
  1562. BD*(   1) C   6 - C  11          0.01141     0.49513   
  1563. BD*(   2) C   6 - C  11          0.18457    -0.06144  1583(v),175(v),1580(v)
                                                    272(g),405(g)
  1564. BD*(   1) C   6 - C  41          0.01112     0.50010   
  1565. BD*(   1) C   6 - H  48          0.00605     0.48651   
  1566. BD*(   1) C   7 - C  14          0.01076     0.46681   
  1567. BD*(   1) C   7 - C  22          0.01017     0.44272   
  1568. BD*(   2) C   7 - C  22          0.19195    -0.07350  1580(v),1604(v),1571(r)
                                                    298(g)
  1569. BD*(   1) C   7 - H  49          0.00520     0.49436   
  1570. BD*(   1) C   8 - C  25          0.01048     0.47257   
  1571. BD*(   2) C   8 - C  25          0.20185    -0.07099  1604(v),323(g),1568(r)
                                                    1575(r),769(g)
  1572. BD*(   1) C   8 - C  30          0.01054     0.46429   
  1573. BD*(   1) C   8 - H  50          0.00651     0.49331   
  1574. BD*(   1) C   9 - C  33          0.01079     0.47084   
  1575. BD*(   2) C   9 - C  33          0.19376    -0.07661  1635(v),1621(v),1561(v)
                                                    349(g),1571(r),977(g)
  1576. BD*(   1) C   9 - C  38          0.01078     0.49530   
  1577. BD*(   1) C   9 - H  51          0.00648     0.49140   
  1578. BD*(   1) N  10 - C  11          0.01223     0.34921   
  1579. BD*(   1) N  10 - C  14          0.01185     0.36584   
  1580. BD*(   2) N  10 - C  14          0.29514    -0.10631  1568(v),1583(v),1563(v)
                                                    481(g),375(g),298(v),1561(r)
  1581. BD*(   1) C  11 - C  12          0.01786     0.38177   
  1582. BD*(   1) C  12 - C  13          0.00854     0.52271   
  1583. BD*(   2) C  12 - C  13          0.10233    -0.03012  1563(v),1580(v),1590(v)
  1584. BD*(   1) C  12 - C  16          0.01298     0.25625   
  1585. BD*(   1) C  13 - C  14          0.01792     0.38860   
  1586. BD*(   1) C  13 - C  15          0.01011     0.27731   
  1587. BD*(   1) C  15 - H  52          0.00381     0.45783   
  1588. BD*(   1) C  15 - H  53          0.00273     0.46632   
  1589. BD*(   1) C  15 - H  54          0.00368     0.45732   
  1590. BD*(   1) C  16 - C  17          0.00732     0.28142   
  1591. BD*(   1) C  16 - H  55          0.00477     0.49680   
  1592. BD*(   1) C  16 - H  56          0.00491     0.48556   
  1593. BD*(   1) C  17 - C  18          0.03975     0.26261   
  1594. BD*(   1) C  17 - H  57          0.00530     0.46260   
  1595. BD*(   1) C  17 - H  58          0.00523     0.46356   
  1596. BD*(   1) C  18 - O  19          0.03470     0.41144   
  1597. BD*(   1) C  18 - O  20          0.02043     0.45134   
  1598. BD*(   2) C  18 - O  20          0.09574    -0.08381   
  1599. BD*(   1) O  19 - H  80          0.00714     0.30229   
  1600. BD*(   1) N  21 - C  22          0.01371     0.35523   
  1601. BD*(   1) N  21 - C  25          0.01401     0.34257   
  1602. BD*(   1) C  22 - C  23          0.01393     0.39707   
  1603. BD*(   1) C  23 - C  24          0.01060     0.52903   
  1604. BD*(   2) C  23 - C  24          0.11513    -0.03069  1571(v),1568(v),1612(v)
                                                    1608(v),1609(v),1613(v)
  1605. BD*(   1) C  23 - C  26          0.00936     0.27318   
  1606. BD*(   1) C  24 - C  25          0.01574     0.41264   
  1607. BD*(   1) C  24 - C  27          0.01249     0.31200   
  1608. BD*(   1) C  26 - H  59          0.00383     0.47991   
  1609. BD*(   1) C  26 - H  60          0.00371     0.48055   
  1610. BD*(   1) C  26 - H  61          0.00302     0.48485   
  1611. BD*(   1) C  27 - C  28          0.00392     0.32275   
  1612. BD*(   1) C  27 - H  62          0.00834     0.31185   
  1613. BD*(   1) C  27 - H  83          0.00734     0.30778   
  1614. BD*(   1) C  28 - H  63          0.00433     0.48296   
  1615. BD*(   1) C  28 - H  64          0.00349     0.49355   
  1616. BD*(   1) C  28 - H  65          0.00435     0.48123   
  1617. BD*(   1) N  29 - C  30          0.02027     0.32366   
  1618. BD*(   1) N  29 - C  33          0.01914     0.32870   
  1619. BD*(   1) C  30 - C  31          0.01519     0.37967   
  1620. BD*(   1) C  31 - C  32          0.01004     0.50060   
  1621. BD*(   2) C  31 - C  32          0.12216    -0.04620  1575(v),1630(v),1625(v)
                                                    1626(v)
  1622. BD*(   1) C  31 - C  34          0.00914     0.27274   
  1623. BD*(   1) C  32 - C  33          0.01426     0.37104   
  1624. BD*(   1) C  32 - C  35          0.01156     0.27116   
  1625. BD*(   1) C  34 - H  66          0.00392     0.47039   
  1626. BD*(   1) C  34 - H  67          0.00372     0.47032   
  1627. BD*(   1) C  34 - H  68          0.00331     0.47653   
  1628. BD*(   1) C  35 - C  36          0.00332     0.28068   
  1629. BD*(   1) C  35 - H  69          0.00511     0.30705   
  1630. BD*(   1) C  35 - H  82          0.00626     0.30850   
  1631. BD*(   1) C  36 - H  70          0.00283     0.48370   
  1632. BD*(   1) C  36 - H  71          0.00375     0.48793   
  1633. BD*(   1) C  36 - H  72          0.00271     0.48312   
  1634. BD*(   1) N  37 - C  38          0.01462     0.34959   
  1635. BD*(   2) N  37 - C  38          0.33838    -0.11670  1575(v),1639(v),175(v)
                                                    1105(g),1561(r),352(v)
  1636. BD*(   1) N  37 - C  41          0.01366     0.36551   
  1637. BD*(   1) C  38 - C  39          0.01525     0.39850   
  1638. BD*(   1) C  39 - C  40          0.01101     0.34050   
  1639. BD*(   2) C  39 - C  40          0.13601    -0.06980  1635(v),175(v),1646(v)
                                                    1643(v),1645(v)
  1640. BD*(   1) C  39 - C  42          0.00769     0.28073   
  1641. BD*(   1) C  40 - C  41          0.01488     0.37438   
  1642. BD*(   1) C  40 - C  43          0.01027     0.27634   
  1643. BD*(   1) C  42 - H  73          0.00412     0.45939   
  1644. BD*(   1) C  42 - H  74          0.00291     0.45981   
  1645. BD*(   1) C  42 - H  75          0.00411     0.46000   
  1646. BD*(   1) C  43 - C  44          0.00799     0.29122   
  1647. BD*(   1) C  43 - H  76          0.00558     0.48530   
  1648. BD*(   1) C  43 - H  77          0.00598     0.47105   
  1649. BD*(   1) C  44 - C  45          0.04103     0.27610   
  1650. BD*(   1) C  44 - H  78          0.00530     0.46750   
  1651. BD*(   1) C  44 - H  79          0.00493     0.47860   
  1652. BD*(   1) C  45 - O  46          0.02039     0.48284   
  1653. BD*(   2) C  45 - O  46          0.08129    -0.06669   
  1654. BD*(   1) C  45 - O  47          0.03575     0.42889   
  1655. BD*(   1) O  47 - H  81          0.00698     0.30191   
       -------------------------------
              Total Lewis  170.75798  ( 97.5760%)
        Valence non-Lewis    3.94519  (  2.2544%)
        Rydberg non-Lewis    0.29683  (  0.1696%)
       -------------------------------
            Total unit  1  175.00000  (100.0000%)
           Charge unit  1    1.00000
 1\1\GINC-NODE466\SP\UPBE1PBE\def2TZVP\C35H40Fe1N4O4S1(1+,2)\KLEICH\13-
 Sep-2022\0\\# PBE1PBE/def2TZVP empiricaldispersion=GD3BJ int=(grid=ult
 rafine) geom=check pop=nbo\\7abb_III_D\\1,2\C,0,19.013,33.007,0.\S,0,1
 7.62,31.94,-0.421\H,0,19.81865645,32.82697525,-0.68074134\H,0,19.33539
 499,32.7954738,0.99810728\Fe,0,17.27331395,31.37270864,-2.48664501\C,0
 ,18.753,34.761,-3.605\C,0,20.928,30.569,-2.703\C,0,16.619,28.513,-1.70
 6\C,0,14.422,32.593,-3.008\N,0,19.451,32.483,-3.087\C,0,19.714,33.814,
 -3.411\C,0,21.136,34.059,-3.537\C,0,21.722,32.878,-3.27\C,0,20.699,31.
 899,-2.995\C,0,23.225,32.546,-3.277\C,0,21.834,35.427,-3.866\C,0,22.00
 8,35.691,-5.356\C,0,22.739,37.007,-5.561\O,0,22.829,37.384,-6.752\O,0,
 23.192,37.61,-4.553\N,0,18.581,29.871,-2.336\C,0,19.945,29.644,-2.353\
 C,0,20.162,28.294,-1.927\C,0,18.973,27.739,-1.629\C,0,17.963,28.702,-1
 .902\C,0,21.586,27.712,-1.824\C,0,18.56,26.368,-1.159\C,0,19.643,25.49
 6,-0.611\N,0,15.858,30.73,-2.443\C,0,15.657,29.463,-1.945\C,0,14.248,2
 9.26,-1.738\C,0,13.604,30.396,-2.089\C,0,14.618,31.315,-2.552\C,0,13.6
 52,27.967,-1.178\C,0,12.107,30.747,-2.11\C,0,11.13,29.935,-1.26\N,0,16
 .783,33.33,-3.227\C,0,15.399,33.495,-3.284\C,0,15.133,34.842,-3.68\C,0
 ,16.438,35.53,-3.875\C,0,17.419,34.518,-3.549\C,0,13.737,35.445,-3.881
 \C,0,16.692,36.984,-4.309\C,0,16.819,37.819,-3.058\C,0,17.174,39.248,-
 3.421\O,0,17.04,40.138,-2.554\O,0,17.585,39.463,-4.579\H,0,19.045,35.6
 77,-3.797\H,0,21.854,30.25,-2.744\H,0,16.324,27.639,-1.373\H,0,13.495,
 32.881,-3.147\H,0,23.496,32.239,-2.387\H,0,23.735,33.348,-3.515\H,0,23
 .4,31.841,-3.935\H,0,22.709,35.435,-3.447\H,0,21.303,36.144,-3.486\H,0
 ,21.136,35.736,-5.78\H,0,22.522,34.971,-5.754\H,0,21.665,26.946,-2.414
 \H,0,21.757,27.436,-0.91\H,0,22.231,28.388,-2.083\H,0,18.11075906,25.8
 5713126,-1.98489086\H,0,20.317,25.351,-1.294\H,0,19.267,24.644,-0.341\
 H,0,20.049,25.929,0.157\H,0,13.04,27.586,-1.827\H,0,13.174,28.16,-0.35
 7\H,0,14.365,27.335,-0.997\H,0,12.01595685,31.76985339,-1.80936387\H,0
 ,10.686,30.522,-0.628\H,0,11.615,29.248,-0.777\H,0,10.468,29.52,-1.835
 \H,0,13.617,36.201,-3.27\H,0,13.057,34.764,-3.696\H,0,13.646,35.755,-4
 .806\H,0,15.948,37.303,-4.843\H,0,17.513,37.036,-4.824\H,0,17.515,37.4
 48,-2.494\H,0,15.976,37.809,-2.578\H,0,23.69272672,37.51045236,-7.1514
 8211\H,0,18.52811134,39.49572655,-4.75526675\H,0,11.77832945,30.677615
 29,-3.12590424\H,0,17.81714643,26.48941115,-0.39852126\H,0,18.71094992
 ,34.03124546,-0.06772734\H,0,16.81801705,31.50785892,0.52036998\\Versi
 on=ES64L-G16RevA.03\State=2-A\HF=-3537.3036393\S2=0.857061\S2-1=0.\S2A
 =0.75451\RMSD=3.500e-10\Dipole=-0.1429398,-3.4046425,0.5836464\Quadrup
 ole=27.7440018,-17.7505233,-9.9934784,12.8218449,-18.9535022,-33.68527
 1\PG=C01 [X(C35H40Fe1N4O4S1)]\\@


 BE LIKE A POSTAGE STAMP.  STICK TO ONE THING UNTIL
 YOU GET THERE -- JOSH BILLINGS
 Job cpu time:       5 days  4 hours 52 minutes 30.5 seconds.
 Elapsed time:       1 days  7 hours 19 minutes 53.4 seconds.
 File lengths (MBytes):  RWF=   2517 Int=      0 D2E=      0 Chk=    221 Scr=      1
 Normal termination of Gaussian 16 at Tue Sep 13 03:46:14 2022.
