 Entering Gaussian System, Link 0=g16
 Input=/net/work/kleich/bench/splitthejobs/7abb/7abb12/7abb16/7abb16.com
 Output=/net/work/kleich/bench/splitthejobs/7abb/7abb12/7abb16/7abb16.log
 Initial command:
 /afs/math/software/gaussian/g16.A03/g16/l1.exe "/scratch/kleich_gaussian.5oetngm/Gau-10916.inp" -scrdir="/scratch/kleich_gaussian.5oetngm/"
 Entering Link 1 = /afs/math/software/gaussian/g16.A03/g16/l1.exe PID=     10917.
  
 Copyright (c) 1988,1990,1992,1993,1995,1998,2003,2009,2016,
            Gaussian, Inc.  All Rights Reserved.
  
 This is part of the Gaussian(R) 16 program.  It is based on
 the Gaussian(R) 09 system (copyright 2009, Gaussian, Inc.),
 the Gaussian(R) 03 system (copyright 2003, Gaussian, Inc.),
 the Gaussian(R) 98 system (copyright 1998, Gaussian, Inc.),
 the Gaussian(R) 94 system (copyright 1995, Gaussian, Inc.),
 the Gaussian 92(TM) system (copyright 1992, Gaussian, Inc.),
 the Gaussian 90(TM) system (copyright 1990, Gaussian, Inc.),
 the Gaussian 88(TM) system (copyright 1988, Gaussian, Inc.),
 the Gaussian 86(TM) system (copyright 1986, Carnegie Mellon
 University), and the Gaussian 82(TM) system (copyright 1983,
 Carnegie Mellon University). Gaussian is a federally registered
 trademark of Gaussian, Inc.
  
 This software contains proprietary and confidential information,
 including trade secrets, belonging to Gaussian, Inc.
  
 This software is provided under written license and may be
 used, copied, transmitted, or stored only in accord with that
 written license.
  
 The following legend is applicable only to US Government
 contracts under FAR:
  
                    RESTRICTED RIGHTS LEGEND
  
 Use, reproduction and disclosure by the US Government is
 subject to restrictions as set forth in subparagraphs (a)
 and (c) of the Commercial Computer Software - Restricted
 Rights clause in FAR 52.227-19.
  
 Gaussian, Inc.
 340 Quinnipiac St., Bldg. 40, Wallingford CT 06492
  
  
 ---------------------------------------------------------------
 Warning -- This program may not be used in any manner that
 competes with the business of Gaussian, Inc. or will provide
 assistance to any competitor of Gaussian, Inc.  The licensee
 of this program is prohibited from giving any competitor of
 Gaussian, Inc. access to this program.  By using this program,
 the user acknowledges that Gaussian, Inc. is engaged in the
 business of creating and licensing software in the field of
 computational chemistry and represents and warrants to the
 licensee that it is not a competitor of Gaussian, Inc. and that
 it will not use this program in any manner prohibited above.
 ---------------------------------------------------------------
  

 Cite this work as:
 Gaussian 16, Revision A.03,
 M. J. Frisch, G. W. Trucks, H. B. Schlegel, G. E. Scuseria, 
 M. A. Robb, J. R. Cheeseman, G. Scalmani, V. Barone, 
 G. A. Petersson, H. Nakatsuji, X. Li, M. Caricato, A. V. Marenich, 
 J. Bloino, B. G. Janesko, R. Gomperts, B. Mennucci, H. P. Hratchian, 
 J. V. Ortiz, A. F. Izmaylov, J. L. Sonnenberg, D. Williams-Young, 
 F. Ding, F. Lipparini, F. Egidi, J. Goings, B. Peng, A. Petrone, 
 T. Henderson, D. Ranasinghe, V. G. Zakrzewski, J. Gao, N. Rega, 
 G. Zheng, W. Liang, M. Hada, M. Ehara, K. Toyota, R. Fukuda, 
 J. Hasegawa, M. Ishida, T. Nakajima, Y. Honda, O. Kitao, H. Nakai, 
 T. Vreven, K. Throssell, J. A. Montgomery, Jr., J. E. Peralta, 
 F. Ogliaro, M. J. Bearpark, J. J. Heyd, E. N. Brothers, K. N. Kudin, 
 V. N. Staroverov, T. A. Keith, R. Kobayashi, J. Normand, 
 K. Raghavachari, A. P. Rendell, J. C. Burant, S. S. Iyengar, 
 J. Tomasi, M. Cossi, J. M. Millam, M. Klene, C. Adamo, R. Cammi, 
 J. W. Ochterski, R. L. Martin, K. Morokuma, O. Farkas, 
 J. B. Foresman, and D. J. Fox, Gaussian, Inc., Wallingford CT, 2016.
 
 ******************************************
 Gaussian 16:  ES64L-G16RevA.03 25-Dec-2016
                15-Sep-2022 
 ******************************************
 %nprocs=12
 Will use up to   12 processors via shared memory.
 %mem=16GB
 %oldchk=7abb_III_D.chk
 %chk=7abb_III_H.chk
 Copying data from "7abb_III_D.chk" to current chk file "7abb_III_H.chk"
 IOpt=  2 FromEx=T IUOpen= 4 IOptOp= 5 NList=   0 IFRang= 0 IUIn= 4 IUOut= 2.
 ----------------------------------------------------------------------
 # PBE1PBE/def2TZVP empiricaldispersion=GD3BJ int=(grid=ultrafine) geom
 =check pop=nbo
 ----------------------------------------------------------------------
 1/29=2,38=1,172=1/1;
 2/12=2,40=1/2;
 3/5=44,7=101,11=2,14=-4,25=1,30=1,74=-13,75=-5,124=41/1,2,3;
 4//1;
 5/5=2,38=5/2;
 6/7=2,8=2,9=2,10=2,28=1,40=1/1,7;
 99/5=1,9=1/99;
 ----------
 7abb_III_H
 ----------
 Structure from the checkpoint file:  "7abb_III_H.chk"
 Charge =  1 Multiplicity = 6
 Z-Matrix found in chk file.
 C,0,19.013,33.007,0.
 S,0,17.62,31.94,-0.421
 H,0,19.81865645,32.82697525,-0.68074134
 H,0,19.33539499,32.7954738,0.99810728
 Fe,0,17.27331395,31.37270864,-2.48664501
 C,0,18.753,34.761,-3.605
 C,0,20.928,30.569,-2.703
 C,0,16.619,28.513,-1.706
 C,0,14.422,32.593,-3.008
 N,0,19.451,32.483,-3.087
 C,0,19.714,33.814,-3.411
 C,0,21.136,34.059,-3.537
 C,0,21.722,32.878,-3.27
 C,0,20.699,31.899,-2.995
 C,0,23.225,32.546,-3.277
 C,0,21.834,35.427,-3.866
 C,0,22.008,35.691,-5.356
 C,0,22.739,37.007,-5.561
 O,0,22.829,37.384,-6.752
 O,0,23.192,37.61,-4.553
 N,0,18.581,29.871,-2.336
 C,0,19.945,29.644,-2.353
 C,0,20.162,28.294,-1.927
 C,0,18.973,27.739,-1.629
 C,0,17.963,28.702,-1.902
 C,0,21.586,27.712,-1.824
 C,0,18.56,26.368,-1.159
 C,0,19.643,25.496,-0.611
 N,0,15.858,30.73,-2.443
 C,0,15.657,29.463,-1.945
 C,0,14.248,29.26,-1.738
 C,0,13.604,30.396,-2.089
 C,0,14.618,31.315,-2.552
 C,0,13.652,27.967,-1.178
 C,0,12.107,30.747,-2.11
 C,0,11.13,29.935,-1.26
 N,0,16.783,33.33,-3.227
 C,0,15.399,33.495,-3.284
 C,0,15.133,34.842,-3.68
 C,0,16.438,35.53,-3.875
 C,0,17.419,34.518,-3.549
 C,0,13.737,35.445,-3.881
 C,0,16.692,36.984,-4.309
 C,0,16.819,37.819,-3.058
 C,0,17.174,39.248,-3.421
 O,0,17.04,40.138,-2.554
 O,0,17.585,39.463,-4.579
 H,0,19.045,35.677,-3.797
 H,0,21.854,30.25,-2.744
 H,0,16.324,27.639,-1.373
 H,0,13.495,32.881,-3.147
 H,0,23.496,32.239,-2.387
 H,0,23.735,33.348,-3.515
 H,0,23.4,31.841,-3.935
 H,0,22.709,35.435,-3.447
 H,0,21.303,36.144,-3.486
 H,0,21.136,35.736,-5.78
 H,0,22.522,34.971,-5.754
 H,0,21.665,26.946,-2.414
 H,0,21.757,27.436,-0.91
 H,0,22.231,28.388,-2.083
 H,0,18.11075906,25.85713126,-1.98489086
 H,0,20.317,25.351,-1.294
 H,0,19.267,24.644,-0.341
 H,0,20.049,25.929,0.157
 H,0,13.04,27.586,-1.827
 H,0,13.174,28.16,-0.357
 H,0,14.365,27.335,-0.997
 H,0,12.01595685,31.76985339,-1.80936387
 H,0,10.686,30.522,-0.628
 H,0,11.615,29.248,-0.777
 H,0,10.468,29.52,-1.835
 H,0,13.617,36.201,-3.27
 H,0,13.057,34.764,-3.696
 H,0,13.646,35.755,-4.806
 H,0,15.948,37.303,-4.843
 H,0,17.513,37.036,-4.824
 H,0,17.515,37.448,-2.494
 H,0,15.976,37.809,-2.578
 H,0,23.69272672,37.51045236,-7.15148211
 H,0,18.52811134,39.49572655,-4.75526675
 H,0,11.77832945,30.67761529,-3.12590424
 H,0,17.81714643,26.48941115,-0.39852126
 H,0,18.71094992,34.03124546,-0.06772734
 H,0,16.81801705,31.50785892,0.52036998
 Recover connectivity data from disk.
 Stoichiometry    C35H40FeN4O4S(1+,6)
 Framework group  C1[X(C35H40FeN4O4S)]
 Deg. of freedom   249
 Full point group                 C1      NOp   1
 Largest Abelian subgroup         C1      NOp   1
 Largest concise Abelian subgroup C1      NOp   1
                         Standard orientation:                         
 ---------------------------------------------------------------------
 Center     Atomic      Atomic             Coordinates (Angstroms)
 Number     Number       Type             X           Y           Z
 ---------------------------------------------------------------------
      1          6           0       -0.046732   -0.771680    2.872277
      2         16           0       -1.374019    0.097309    2.012425
      3          1           0        0.289432   -1.591873    2.272962
      4          1           0       -0.409708   -1.139714    3.809134
      5         26           0       -1.393013    0.175637   -0.156078
      6          6           0        2.469015    0.105011   -0.134809
      7          6           0       -0.702768   -3.508412   -0.127255
      8          6           0       -4.387103   -0.315051   -0.256680
      9          6           0       -1.204393    3.271073   -0.679160
     10          7           0        0.560297   -1.411816   -0.163794
     11          6           0        1.927066   -1.144679   -0.084506
     12          6           0        2.700368   -2.363466    0.036107
     13          6           0        1.793213   -3.356639    0.047244
     14          6           0        0.473821   -2.787405   -0.078344
     15          6           0        2.051625   -4.871381    0.137036
     16          6           0        4.260308   -2.483431    0.174182
     17          6           0        4.996020   -2.558529   -1.157418
     18          6           0        6.485577   -2.727630   -0.910710
     19          8           0        7.202252   -2.678361   -1.936702
     20          8           0        6.886589   -2.901902    0.269841
     21          7           0       -2.285205   -1.608310   -0.252991
     22          6           0       -1.981957   -2.954429   -0.161782
     23          6           0       -3.220073   -3.670605   -0.089486
     24          6           0       -4.232574   -2.784444   -0.100024
     25          6           0       -3.671135   -1.484246   -0.227574
     26          6           0       -3.243681   -5.207673    0.028720
     27          6           0       -5.732514   -2.927017   -0.069017
     28          6           0       -6.267946   -4.256441    0.354683
     29          7           0       -2.490748    1.233963   -0.461067
     30          6           0       -3.829611    0.936224   -0.349303
     31          6           0       -4.584944    2.160107   -0.379665
     32          6           0       -3.713975    3.188509   -0.490274
     33          6           0       -2.395456    2.602370   -0.561507
     34          6           0       -6.109437    2.217437   -0.264343
     35          6           0       -3.945168    4.704736   -0.600992
     36          6           0       -5.269714    5.302264   -0.126744
     37          7           0        0.373989    1.374724   -0.399832
     38          6           0        0.030492    2.714569   -0.580823
     39          6           0        1.239206    3.475123   -0.631299
     40          6           0        2.381195    2.534373   -0.472415
     41          6           0        1.750275    1.242614   -0.310919
     42          6           0        1.320466    4.993381   -0.834072
     43          6           0        3.885682    2.856041   -0.466407
     44          6           0        4.300751    3.074676    0.968261
     45          6           0        5.799170    3.294304    1.047876
     46          8           0        6.280523    3.770718    2.098150
     47          8           0        6.480444    2.985312    0.049627
     48          1           0        3.441085    0.186790   -0.036949
     49          1           0       -0.633804   -4.486192   -0.137642
     50          1           0       -5.364731   -0.376313   -0.208931
     51          1           0       -1.248058    4.235840   -0.849197
     52          1           0        1.617417   -5.230010    0.938683
     53          1           0        3.016294   -5.035195    0.187300
     54          1           0        1.687021   -5.311970   -0.658928
     55          1           0        4.463806   -3.282984    0.684627
     56          1           0        4.587267   -1.712837    0.663807
     57          1           0        4.841886   -1.741358   -1.658077
     58          1           0        4.665500   -3.314794   -1.667143
     59          1           0       -3.717274   -5.582474   -0.730444
     60          1           0       -3.694149   -5.461825    0.849268
     61          1           0       -2.334717   -5.544860    0.041827
     62          1           0       -6.104464   -2.718677   -1.050417
     63          1           0       -5.948325   -4.941688   -0.253650
     64          1           0       -7.237200   -4.235182    0.338135
     65          1           0       -5.963499   -4.455558    1.254580
     66          1           0       -6.478346    2.627966   -1.062013
     67          1           0       -6.355683    2.741891    0.512886
     68          1           0       -6.460104    1.317888   -0.172694
     69          1           0       -3.163941    5.186527   -0.051028
     70          1           0       -5.099976    5.945229    0.579595
     71          1           0       -5.841275    4.595172    0.210628
     72          1           0       -5.708724    5.746624   -0.868977
     73          1           0        1.764054    5.402382   -0.062576
     74          1           0        0.416096    5.360116   -0.923545
     75          1           0        1.833441    5.186720   -1.646157
     76          1           0        4.052672    3.659589   -0.983009
     77          1           0        4.383479    2.113003   -0.843319
     78          1           0        4.061463    2.295686    1.493684
     79          1           0        3.842306    3.853824    1.320263
     80          1           0        7.747368   -3.430832   -2.178023
     81          1           0        6.906062    2.125910    0.006291
     82          1           0       -3.827262    4.970022   -1.630857
     83          1           0       -6.120962   -2.186493    0.598541
     84          1           0        0.767117   -0.098735    3.044599
     85          1           0       -2.326119    0.680880    2.697296
 ---------------------------------------------------------------------
 Rotational constants (GHZ):           0.0850304           0.0492264           0.0333862
 Standard basis: def2TZVP (5D, 7F)
 There are  1882 symmetry adapted cartesian basis functions of A   symmetry.
 There are  1655 symmetry adapted basis functions of A   symmetry.
  1655 basis functions,  2684 primitive gaussians,  1882 cartesian basis functions
   178 alpha electrons      173 beta electrons
       nuclear repulsion energy      6677.6833482244 Hartrees.
 NAtoms=   85 NActive=   85 NUniq=   85 SFac= 1.00D+00 NAtFMM=   60 NAOKFM=T Big=T
 Integral buffers will be    131072 words long.
 Raffenetti 2 integral format.
 Two-electron integral symmetry is turned on.
 Nuclear repulsion after empirical dispersion term =     6677.5623959797 Hartrees.
 One-electron integrals computed using PRISM.
   1 Symmetry operations used in ECPInt.
 ECPInt:  NShTT=  218791 NPrTT=  678027 LenC2=  156768 LenP2D=  317269.
 LDataN:  DoStor=T MaxTD1= 6 Len=  172
 NBasis=  1655 RedAO= T EigKep=  3.02D-06  NBF=  1655
 NBsUse=  1655 1.00D-06 EigRej= -1.00D+00 NBFU=  1655
 ExpMin= 4.20D-02 ExpMax= 3.01D+05 ExpMxC= 2.91D+03 IAcc=3 IRadAn=         5 AccDes= 0.00D+00
 Harris functional with IExCor= 1009 and IRadAn=       5 diagonalized for initial guess.
 HarFok:  IExCor= 1009 AccDes= 0.00D+00 IRadAn=         5 IDoV= 1 UseB2=F ITyADJ=14
 ICtDFT=  3500011 ScaDFX=  1.000000  1.000000  1.000000  1.000000
 FoFCou: FMM=F IPFlag=           0 FMFlag=      100000 FMFlg1=        2001
         NFxFlg=           0 DoJE=T BraDBF=F KetDBF=T FulRan=T
         wScrn=  0.000000 ICntrl=       500 IOpCl=  0 I1Cent=   200000004 NGrid=           0
         NMat0=    1 NMatS0=      1 NMatT0=    0 NMatD0=    1 NMtDS0=    0 NMtDT0=    0
 Petite list used in FoFCou.
 Initial guess <Sx>= 0.0000 <Sy>= 0.0000 <Sz>= 2.5000 <S**2>= 8.7500 S= 2.5000
 Requested convergence on RMS density matrix=1.00D-08 within 128 cycles.
 Requested convergence on MAX density matrix=1.00D-06.
 Requested convergence on             energy=1.00D-06.
 No special actions if energy rises.
 EnCoef did   100 forward-backward iterations
 EnCoef did    10 forward-backward iterations
 EnCoef did   100 forward-backward iterations
 EnCoef did     3 forward-backward iterations
 Restarting incremental Fock formation.
 SCF Done:  E(UPBE1PBE) =  -3537.31757094     A.U. after   30 cycles
            NFock= 30  Conv=0.31D-08     -V/T= 2.0012
 <Sx>= 0.0000 <Sy>= 0.0000 <Sz>= 2.5000 <S**2>= 8.7749 S= 2.5042
 <L.S>= 0.000000000000E+00
 Annihilation of the first spin contaminant:
 S**2 before annihilation     8.7749,   after     8.7502

 **********************************************************************

            Population analysis using the SCF density.

 **********************************************************************

 Orbital symmetries:
 Alpha Orbitals:
       Occupied  (A) (A) (A) (A) (A) (A) (A) (A) (A) (A) (A) (A)
                 (A) (A) (A) (A) (A) (A) (A) (A) (A) (A) (A) (A)
                 (A) (A) (A) (A) (A) (A) (A) (A) (A) (A) (A) (A)
                 (A) (A) (A) (A) (A) (A) (A) (A) (A) (A) (A) (A)
                 (A) (A) (A) (A) (A) (A) (A) (A) (A) (A) (A) (A)
                 (A) (A) (A) (A) (A) (A) (A) (A) (A) (A) (A) (A)
                 (A) (A) (A) (A) (A) (A) (A) (A) (A) (A) (A) (A)
                 (A) (A) (A) (A) (A) (A) (A) (A) (A) (A) (A) (A)
                 (A) (A) (A) (A) (A) (A) (A) (A) (A) (A) (A) (A)
                 (A) (A) (A) (A) (A) (A) (A) (A) (A) (A) (A) (A)
                 (A) (A) (A) (A) (A) (A) (A) (A) (A) (A) (A) (A)
                 (A) (A) (A) (A) (A) (A) (A) (A) (A) (A) (A) (A)
                 (A) (A) (A) (A) (A) (A) (A) (A) (A) (A) (A) (A)
                 (A) (A) (A) (A) (A) (A) (A) (A) (A) (A) (A) (A)
                 (A) (A) (A) (A) (A) (A) (A) (A) (A) (A)
       Virtual   (A) (A) (A) (A) (A) (A) (A) (A) (A) (A) (A) (A)
                 (A) (A) (A) (A) (A) (A) (A) (A) (A) (A) (A) (A)
                 (A) (A) (A) (A) (A) (A) (A) (A) (A) (A) (A) (A)
                 (A) (A) (A) (A) (A) (A) (A) (A) (A) (A) (A) (A)
                 (A) (A) (A) (A) (A) (A) (A) (A) (A) (A) (A) (A)
                 (A) (A) (A) (A) (A) (A) (A) (A) (A) (A) (A) (A)
                 (A) (A) (A) (A) (A) (A) (A) (A) (A) (A) (A) (A)
                 (A) (A) (A) (A) (A) (A) (A) (A) (A) (A) (A) (A)
                 (A) (A) (A) (A) (A) (A) (A) (A) (A) (A) (A) (A)
                 (A) (A) (A) (A) (A) (A) (A) (A) (A) (A) (A) (A)
                 (A) (A) (A) (A) (A) (A) (A) (A) (A) (A) (A) (A)
                 (A) (A) (A) (A) (A) (A) (A) (A) (A) (A) (A) (A)
                 (A) (A) (A) (A) (A) (A) (A) (A) (A) (A) (A) (A)
                 (A) (A) (A) (A) (A) (A) (A) (A) (A) (A) (A) (A)
                 (A) (A) (A) (A) (A) (A) (A) (A) (A) (A) (A) (A)
                 (A) (A) (A) (A) (A) (A) (A) (A) (A) (A) (A) (A)
                 (A) (A) (A) (A) (A) (A) (A) (A) (A) (A) (A) (A)
                 (A) (A) (A) (A) (A) (A) (A) (A) (A) (A) (A) (A)
                 (A) (A) (A) (A) (A) (A) (A) (A) (A) (A) (A) (A)
                 (A) (A) (A) (A) (A) (A) (A) (A) (A) (A) (A) (A)
                 (A) (A) (A) (A) (A) (A) (A) (A) (A) (A) (A) (A)
                 (A) (A) (A) (A) (A) (A) (A) (A) (A) (A) (A) (A)
                 (A) (A) (A) (A) (A) (A) (A) (A) (A) (A) (A) (A)
                 (A) (A) (A) (A) (A) (A) (A) (A) (A) (A) (A) (A)
                 (A) (A) (A) (A) (A) (A) (A) (A) (A) (A) (A) (A)
                 (A) (A) (A) (A) (A) (A) (A) (A) (A) (A) (A) (A)
                 (A) (A) (A) (A) (A) (A) (A) (A) (A) (A) (A) (A)
                 (A) (A) (A) (A) (A) (A) (A) (A) (A) (A) (A) (A)
                 (A) (A) (A) (A) (A) (A) (A) (A) (A) (A) (A) (A)
                 (A) (A) (A) (A) (A) (A) (A) (A) (A) (A) (A) (A)
                 (A) (A) (A) (A) (A) (A) (A) (A) (A) (A) (A) (A)
                 (A) (A) (A) (A) (A) (A) (A) (A) (A) (A) (A) (A)
                 (A) (A) (A) (A) (A) (A) (A) (A) (A) (A) (A) (A)
                 (A) (A) (A) (A) (A) (A) (A) (A) (A) (A) (A) (A)
                 (A) (A) (A) (A) (A) (A) (A) (A) (A) (A) (A) (A)
                 (A) (A) (A) (A) (A) (A) (A) (A) (A) (A) (A) (A)
                 (A) (A) (A) (A) (A) (A) (A) (A) (A) (A) (A) (A)
                 (A) (A) (A) (A) (A) (A) (A) (A) (A) (A) (A) (A)
                 (A) (A) (A) (A) (A) (A) (A) (A) (A) (A) (A) (A)
                 (A) (A) (A) (A) (A) (A) (A) (A) (A) (A) (A) (A)
                 (A) (A) (A) (A) (A) (A) (A) (A) (A) (A) (A) (A)
                 (A) (A) (A) (A) (A) (A) (A) (A) (A) (A) (A) (A)
                 (A) (A) (A) (A) (A) (A) (A) (A) (A) (A) (A) (A)
                 (A) (A) (A) (A) (A) (A) (A) (A) (A) (A) (A) (A)
                 (A) (A) (A) (A) (A) (A) (A) (A) (A) (A) (A) (A)
                 (A) (A) (A) (A) (A) (A) (A) (A) (A) (A) (A) (A)
                 (A) (A) (A) (A) (A) (A) (A) (A) (A) (A) (A) (A)
                 (A) (A) (A) (A) (A) (A) (A) (A) (A) (A) (A) (A)
                 (A) (A) (A) (A) (A) (A) (A) (A) (A) (A) (A) (A)
                 (A) (A) (A) (A) (A) (A) (A) (A) (A) (A) (A) (A)
                 (A) (A) (A) (A) (A) (A) (A) (A) (A) (A) (A) (A)
                 (A) (A) (A) (A) (A) (A) (A) (A) (A) (A) (A) (A)
                 (A) (A) (A) (A) (A) (A) (A) (A) (A) (A) (A) (A)
                 (A) (A) (A) (A) (A) (A) (A) (A) (A) (A) (A) (A)
                 (A) (A) (A) (A) (A) (A) (A) (A) (A) (A) (A) (A)
                 (A) (A) (A) (A) (A) (A) (A) (A) (A) (A) (A) (A)
                 (A) (A) (A) (A) (A) (A) (A) (A) (A) (A) (A) (A)
                 (A) (A) (A) (A) (A) (A) (A) (A) (A) (A) (A) (A)
                 (A) (A) (A) (A) (A) (A) (A) (A) (A) (A) (A) (A)
                 (A) (A) (A) (A) (A) (A) (A) (A) (A) (A) (A) (A)
                 (A) (A) (A) (A) (A) (A) (A) (A) (A) (A) (A) (A)
                 (A) (A) (A) (A) (A) (A) (A) (A) (A) (A) (A) (A)
                 (A) (A) (A) (A) (A) (A) (A) (A) (A) (A) (A) (A)
                 (A) (A) (A) (A) (A) (A) (A) (A) (A) (A) (A) (A)
                 (A) (A) (A) (A) (A) (A) (A) (A) (A) (A) (A) (A)
                 (A) (A) (A) (A) (A) (A) (A) (A) (A) (A) (A) (A)
                 (A) (A) (A) (A) (A) (A) (A) (A) (A) (A) (A) (A)
                 (A) (A) (A) (A) (A) (A) (A) (A) (A) (A) (A) (A)
                 (A) (A) (A) (A) (A) (A) (A) (A) (A) (A) (A) (A)
                 (A) (A) (A) (A) (A) (A) (A) (A) (A) (A) (A) (A)
                 (A) (A) (A) (A) (A) (A) (A) (A) (A) (A) (A) (A)
                 (A) (A) (A) (A) (A) (A) (A) (A) (A) (A) (A) (A)
                 (A) (A) (A) (A) (A) (A) (A) (A) (A) (A) (A) (A)
                 (A) (A) (A) (A) (A) (A) (A) (A) (A) (A) (A) (A)
                 (A) (A) (A) (A) (A) (A) (A) (A) (A) (A) (A) (A)
                 (A) (A) (A) (A) (A) (A) (A) (A) (A) (A) (A) (A)
                 (A) (A) (A) (A) (A) (A) (A) (A) (A) (A) (A) (A)
                 (A) (A) (A) (A) (A) (A) (A) (A) (A) (A) (A) (A)
                 (A) (A) (A) (A) (A) (A) (A) (A) (A) (A) (A) (A)
                 (A) (A) (A) (A) (A) (A) (A) (A) (A) (A) (A) (A)
                 (A) (A) (A) (A) (A) (A) (A) (A) (A) (A) (A) (A)
                 (A) (A) (A) (A) (A) (A) (A) (A) (A) (A) (A) (A)
                 (A) (A) (A) (A) (A) (A) (A) (A) (A) (A) (A) (A)
                 (A) (A) (A) (A) (A) (A) (A) (A) (A) (A) (A) (A)
                 (A) (A) (A) (A) (A) (A) (A) (A) (A) (A) (A) (A)
                 (A) (A) (A) (A) (A) (A) (A) (A) (A) (A) (A) (A)
                 (A) (A) (A) (A) (A) (A) (A) (A) (A) (A) (A) (A)
                 (A) (A) (A) (A) (A) (A) (A) (A) (A) (A) (A) (A)
                 (A) (A) (A) (A) (A) (A) (A) (A) (A) (A) (A) (A)
                 (A) (A) (A) (A) (A) (A) (A) (A) (A) (A) (A) (A)
                 (A) (A) (A) (A) (A) (A) (A) (A) (A) (A) (A) (A)
                 (A) (A) (A) (A) (A) (A) (A) (A) (A) (A) (A) (A)
                 (A) (A) (A) (A) (A) (A) (A) (A) (A) (A) (A) (A)
                 (A) (A) (A) (A) (A) (A) (A) (A) (A) (A) (A) (A)
                 (A) (A) (A) (A) (A) (A) (A) (A) (A) (A) (A) (A)
                 (A) (A) (A) (A) (A) (A) (A) (A) (A) (A) (A) (A)
                 (A) (A) (A) (A) (A) (A) (A) (A) (A) (A) (A) (A)
                 (A) (A) (A) (A) (A) (A) (A) (A) (A) (A) (A) (A)
                 (A) (A) (A) (A) (A) (A) (A) (A) (A) (A) (A) (A)
                 (A) (A) (A) (A) (A) (A) (A) (A) (A) (A) (A) (A)
                 (A) (A) (A) (A) (A) (A) (A) (A) (A) (A) (A) (A)
                 (A) (A) (A) (A) (A) (A) (A) (A) (A) (A) (A) (A)
                 (A) (A) (A) (A) (A) (A) (A) (A) (A) (A) (A) (A)
                 (A) (A) (A) (A) (A) (A) (A) (A) (A) (A) (A) (A)
                 (A) (A) (A) (A) (A) (A) (A) (A) (A) (A) (A) (A)
                 (A) (A) (A) (A) (A) (A) (A) (A) (A) (A) (A) (A)
                 (A) (A) (A) (A) (A) (A) (A) (A) (A) (A) (A) (A)
                 (A) (A) (A) (A) (A) (A) (A) (A) (A) (A) (A) (A)
                 (A) (A) (A) (A) (A) (A) (A) (A) (A) (A) (A) (A)
                 (A) (A) (A) (A) (A) (A) (A) (A) (A) (A) (A) (A)
                 (A) (A) (A) (A) (A) (A) (A) (A) (A) (A) (A) (A)
                 (A) (A) (A) (A) (A) (A) (A) (A) (A) (A) (A) (A)
                 (A) (A) (A) (A) (A) (A) (A) (A) (A) (A) (A) (A)
                 (A) (A) (A) (A) (A) (A) (A) (A) (A) (A) (A) (A)
                 (A) (A) (A) (A) (A) (A) (A) (A) (A) (A) (A) (A)
                 (A) (A) (A) (A) (A) (A) (A) (A) (A) (A) (A) (A)
                 (A) (A) (A) (A) (A) (A) (A) (A) (A) (A) (A) (A)
                 (A) (A) (A) (A) (A) (A) (A) (A) (A) (A) (A) (A)
                 (A) (A) (A) (A) (A) (A) (A) (A) (A) (A) (A) (A)
                 (A) (A) (A) (A) (A) (A) (A) (A) (A) (A) (A) (A)
                 (A) (A) (A) (A) (A) (A) (A) (A) (A) (A) (A) (A)
                 (A) (A) (A) (A) (A) (A) (A) (A) (A) (A) (A) (A)
                 (A) (A) (A) (A) (A) (A) (A) (A) (A) (A) (A) (A)
                 (A)
 Beta  Orbitals:
       Occupied  (A) (A) (A) (A) (A) (A) (A) (A) (A) (A) (A) (A)
                 (A) (A) (A) (A) (A) (A) (A) (A) (A) (A) (A) (A)
                 (A) (A) (A) (A) (A) (A) (A) (A) (A) (A) (A) (A)
                 (A) (A) (A) (A) (A) (A) (A) (A) (A) (A) (A) (A)
                 (A) (A) (A) (A) (A) (A) (A) (A) (A) (A) (A) (A)
                 (A) (A) (A) (A) (A) (A) (A) (A) (A) (A) (A) (A)
                 (A) (A) (A) (A) (A) (A) (A) (A) (A) (A) (A) (A)
                 (A) (A) (A) (A) (A) (A) (A) (A) (A) (A) (A) (A)
                 (A) (A) (A) (A) (A) (A) (A) (A) (A) (A) (A) (A)
                 (A) (A) (A) (A) (A) (A) (A) (A) (A) (A) (A) (A)
                 (A) (A) (A) (A) (A) (A) (A) (A) (A) (A) (A) (A)
                 (A) (A) (A) (A) (A) (A) (A) (A) (A) (A) (A) (A)
                 (A) (A) (A) (A) (A) (A) (A) (A) (A) (A) (A) (A)
                 (A) (A) (A) (A) (A) (A) (A) (A) (A) (A) (A) (A)
                 (A) (A) (A) (A) (A)
       Virtual   (A) (A) (A) (A) (A) (A) (A) (A) (A) (A) (A) (A)
                 (A) (A) (A) (A) (A) (A) (A) (A) (A) (A) (A) (A)
                 (A) (A) (A) (A) (A) (A) (A) (A) (A) (A) (A) (A)
                 (A) (A) (A) (A) (A) (A) (A) (A) (A) (A) (A) (A)
                 (A) (A) (A) (A) (A) (A) (A) (A) (A) (A) (A) (A)
                 (A) (A) (A) (A) (A) (A) (A) (A) (A) (A) (A) (A)
                 (A) (A) (A) (A) (A) (A) (A) (A) (A) (A) (A) (A)
                 (A) (A) (A) (A) (A) (A) (A) (A) (A) (A) (A) (A)
                 (A) (A) (A) (A) (A) (A) (A) (A) (A) (A) (A) (A)
                 (A) (A) (A) (A) (A) (A) (A) (A) (A) (A) (A) (A)
                 (A) (A) (A) (A) (A) (A) (A) (A) (A) (A) (A) (A)
                 (A) (A) (A) (A) (A) (A) (A) (A) (A) (A) (A) (A)
                 (A) (A) (A) (A) (A) (A) (A) (A) (A) (A) (A) (A)
                 (A) (A) (A) (A) (A) (A) (A) (A) (A) (A) (A) (A)
                 (A) (A) (A) (A) (A) (A) (A) (A) (A) (A) (A) (A)
                 (A) (A) (A) (A) (A) (A) (A) (A) (A) (A) (A) (A)
                 (A) (A) (A) (A) (A) (A) (A) (A) (A) (A) (A) (A)
                 (A) (A) (A) (A) (A) (A) (A) (A) (A) (A) (A) (A)
                 (A) (A) (A) (A) (A) (A) (A) (A) (A) (A) (A) (A)
                 (A) (A) (A) (A) (A) (A) (A) (A) (A) (A) (A) (A)
                 (A) (A) (A) (A) (A) (A) (A) (A) (A) (A) (A) (A)
                 (A) (A) (A) (A) (A) (A) (A) (A) (A) (A) (A) (A)
                 (A) (A) (A) (A) (A) (A) (A) (A) (A) (A) (A) (A)
                 (A) (A) (A) (A) (A) (A) (A) (A) (A) (A) (A) (A)
                 (A) (A) (A) (A) (A) (A) (A) (A) (A) (A) (A) (A)
                 (A) (A) (A) (A) (A) (A) (A) (A) (A) (A) (A) (A)
                 (A) (A) (A) (A) (A) (A) (A) (A) (A) (A) (A) (A)
                 (A) (A) (A) (A) (A) (A) (A) (A) (A) (A) (A) (A)
                 (A) (A) (A) (A) (A) (A) (A) (A) (A) (A) (A) (A)
                 (A) (A) (A) (A) (A) (A) (A) (A) (A) (A) (A) (A)
                 (A) (A) (A) (A) (A) (A) (A) (A) (A) (A) (A) (A)
                 (A) (A) (A) (A) (A) (A) (A) (A) (A) (A) (A) (A)
                 (A) (A) (A) (A) (A) (A) (A) (A) (A) (A) (A) (A)
                 (A) (A) (A) (A) (A) (A) (A) (A) (A) (A) (A) (A)
                 (A) (A) (A) (A) (A) (A) (A) (A) (A) (A) (A) (A)
                 (A) (A) (A) (A) (A) (A) (A) (A) (A) (A) (A) (A)
                 (A) (A) (A) (A) (A) (A) (A) (A) (A) (A) (A) (A)
                 (A) (A) (A) (A) (A) (A) (A) (A) (A) (A) (A) (A)
                 (A) (A) (A) (A) (A) (A) (A) (A) (A) (A) (A) (A)
                 (A) (A) (A) (A) (A) (A) (A) (A) (A) (A) (A) (A)
                 (A) (A) (A) (A) (A) (A) (A) (A) (A) (A) (A) (A)
                 (A) (A) (A) (A) (A) (A) (A) (A) (A) (A) (A) (A)
                 (A) (A) (A) (A) (A) (A) (A) (A) (A) (A) (A) (A)
                 (A) (A) (A) (A) (A) (A) (A) (A) (A) (A) (A) (A)
                 (A) (A) (A) (A) (A) (A) (A) (A) (A) (A) (A) (A)
                 (A) (A) (A) (A) (A) (A) (A) (A) (A) (A) (A) (A)
                 (A) (A) (A) (A) (A) (A) (A) (A) (A) (A) (A) (A)
                 (A) (A) (A) (A) (A) (A) (A) (A) (A) (A) (A) (A)
                 (A) (A) (A) (A) (A) (A) (A) (A) (A) (A) (A) (A)
                 (A) (A) (A) (A) (A) (A) (A) (A) (A) (A) (A) (A)
                 (A) (A) (A) (A) (A) (A) (A) (A) (A) (A) (A) (A)
                 (A) (A) (A) (A) (A) (A) (A) (A) (A) (A) (A) (A)
                 (A) (A) (A) (A) (A) (A) (A) (A) (A) (A) (A) (A)
                 (A) (A) (A) (A) (A) (A) (A) (A) (A) (A) (A) (A)
                 (A) (A) (A) (A) (A) (A) (A) (A) (A) (A) (A) (A)
                 (A) (A) (A) (A) (A) (A) (A) (A) (A) (A) (A) (A)
                 (A) (A) (A) (A) (A) (A) (A) (A) (A) (A) (A) (A)
                 (A) (A) (A) (A) (A) (A) (A) (A) (A) (A) (A) (A)
                 (A) (A) (A) (A) (A) (A) (A) (A) (A) (A) (A) (A)
                 (A) (A) (A) (A) (A) (A) (A) (A) (A) (A) (A) (A)
                 (A) (A) (A) (A) (A) (A) (A) (A) (A) (A) (A) (A)
                 (A) (A) (A) (A) (A) (A) (A) (A) (A) (A) (A) (A)
                 (A) (A) (A) (A) (A) (A) (A) (A) (A) (A) (A) (A)
                 (A) (A) (A) (A) (A) (A) (A) (A) (A) (A) (A) (A)
                 (A) (A) (A) (A) (A) (A) (A) (A) (A) (A) (A) (A)
                 (A) (A) (A) (A) (A) (A) (A) (A) (A) (A) (A) (A)
                 (A) (A) (A) (A) (A) (A) (A) (A) (A) (A) (A) (A)
                 (A) (A) (A) (A) (A) (A) (A) (A) (A) (A) (A) (A)
                 (A) (A) (A) (A) (A) (A) (A) (A) (A) (A) (A) (A)
                 (A) (A) (A) (A) (A) (A) (A) (A) (A) (A) (A) (A)
                 (A) (A) (A) (A) (A) (A) (A) (A) (A) (A) (A) (A)
                 (A) (A) (A) (A) (A) (A) (A) (A) (A) (A) (A) (A)
                 (A) (A) (A) (A) (A) (A) (A) (A) (A) (A) (A) (A)
                 (A) (A) (A) (A) (A) (A) (A) (A) (A) (A) (A) (A)
                 (A) (A) (A) (A) (A) (A) (A) (A) (A) (A) (A) (A)
                 (A) (A) (A) (A) (A) (A) (A) (A) (A) (A) (A) (A)
                 (A) (A) (A) (A) (A) (A) (A) (A) (A) (A) (A) (A)
                 (A) (A) (A) (A) (A) (A) (A) (A) (A) (A) (A) (A)
                 (A) (A) (A) (A) (A) (A) (A) (A) (A) (A) (A) (A)
                 (A) (A) (A) (A) (A) (A) (A) (A) (A) (A) (A) (A)
                 (A) (A) (A) (A) (A) (A) (A) (A) (A) (A) (A) (A)
                 (A) (A) (A) (A) (A) (A) (A) (A) (A) (A) (A) (A)
                 (A) (A) (A) (A) (A) (A) (A) (A) (A) (A) (A) (A)
                 (A) (A) (A) (A) (A) (A) (A) (A) (A) (A) (A) (A)
                 (A) (A) (A) (A) (A) (A) (A) (A) (A) (A) (A) (A)
                 (A) (A) (A) (A) (A) (A) (A) (A) (A) (A) (A) (A)
                 (A) (A) (A) (A) (A) (A) (A) (A) (A) (A) (A) (A)
                 (A) (A) (A) (A) (A) (A) (A) (A) (A) (A) (A) (A)
                 (A) (A) (A) (A) (A) (A) (A) (A) (A) (A) (A) (A)
                 (A) (A) (A) (A) (A) (A) (A) (A) (A) (A) (A) (A)
                 (A) (A) (A) (A) (A) (A) (A) (A) (A) (A) (A) (A)
                 (A) (A) (A) (A) (A) (A) (A) (A) (A) (A) (A) (A)
                 (A) (A) (A) (A) (A) (A) (A) (A) (A) (A) (A) (A)
                 (A) (A) (A) (A) (A) (A) (A) (A) (A) (A) (A) (A)
                 (A) (A) (A) (A) (A) (A) (A) (A) (A) (A) (A) (A)
                 (A) (A) (A) (A) (A) (A) (A) (A) (A) (A) (A) (A)
                 (A) (A) (A) (A) (A) (A) (A) (A) (A) (A) (A) (A)
                 (A) (A) (A) (A) (A) (A) (A) (A) (A) (A) (A) (A)
                 (A) (A) (A) (A) (A) (A) (A) (A) (A) (A) (A) (A)
                 (A) (A) (A) (A) (A) (A) (A) (A) (A) (A) (A) (A)
                 (A) (A) (A) (A) (A) (A) (A) (A) (A) (A) (A) (A)
                 (A) (A) (A) (A) (A) (A) (A) (A) (A) (A) (A) (A)
                 (A) (A) (A) (A) (A) (A) (A) (A) (A) (A) (A) (A)
                 (A) (A) (A) (A) (A) (A) (A) (A) (A) (A) (A) (A)
                 (A) (A) (A) (A) (A) (A) (A) (A) (A) (A) (A) (A)
                 (A) (A) (A) (A) (A) (A) (A) (A) (A) (A) (A) (A)
                 (A) (A) (A) (A) (A) (A) (A) (A) (A) (A) (A) (A)
                 (A) (A) (A) (A) (A) (A) (A) (A) (A) (A) (A) (A)
                 (A) (A) (A) (A) (A) (A) (A) (A) (A) (A) (A) (A)
                 (A) (A) (A) (A) (A) (A) (A) (A) (A) (A) (A) (A)
                 (A) (A) (A) (A) (A) (A) (A) (A) (A) (A) (A) (A)
                 (A) (A) (A) (A) (A) (A) (A) (A) (A) (A) (A) (A)
                 (A) (A) (A) (A) (A) (A) (A) (A) (A) (A) (A) (A)
                 (A) (A) (A) (A) (A) (A) (A) (A) (A) (A) (A) (A)
                 (A) (A) (A) (A) (A) (A) (A) (A) (A) (A) (A) (A)
                 (A) (A) (A) (A) (A) (A) (A) (A) (A) (A) (A) (A)
                 (A) (A) (A) (A) (A) (A) (A) (A) (A) (A) (A) (A)
                 (A) (A) (A) (A) (A) (A) (A) (A) (A) (A) (A) (A)
                 (A) (A) (A) (A) (A) (A) (A) (A) (A) (A) (A) (A)
                 (A) (A) (A) (A) (A) (A) (A) (A) (A) (A) (A) (A)
                 (A) (A) (A) (A) (A) (A) (A) (A) (A) (A) (A) (A)
                 (A) (A) (A) (A) (A) (A) (A) (A) (A) (A) (A) (A)
                 (A) (A) (A) (A) (A) (A) (A) (A) (A) (A) (A) (A)
                 (A) (A) (A) (A) (A) (A)
 The electronic state is 6-A.
 Alpha  occ. eigenvalues -- -256.55283 -89.16663 -30.37765 -26.19676 -26.19507
 Alpha  occ. eigenvalues --  -26.19183 -19.33772 -19.32661 -19.26329 -19.25235
 Alpha  occ. eigenvalues --  -14.52934 -14.49534 -14.48716 -14.47213 -10.43493
 Alpha  occ. eigenvalues --  -10.42355 -10.38360 -10.37867 -10.37197 -10.36548
 Alpha  occ. eigenvalues --  -10.36285 -10.36062 -10.36054 -10.35446 -10.35367
 Alpha  occ. eigenvalues --  -10.35071 -10.34966 -10.34278 -10.34121 -10.33210
 Alpha  occ. eigenvalues --  -10.33132 -10.32902 -10.32598 -10.32486 -10.32457
 Alpha  occ. eigenvalues --  -10.32368 -10.32319 -10.31985 -10.30887 -10.29657
 Alpha  occ. eigenvalues --  -10.29175 -10.29149 -10.28681 -10.28634 -10.27660
 Alpha  occ. eigenvalues --  -10.27375 -10.27317 -10.26065 -10.25066  -8.15031
 Alpha  occ. eigenvalues --   -6.08618  -6.08405  -6.07885  -3.80382  -2.56961
 Alpha  occ. eigenvalues --   -2.56533  -2.56275  -1.24450  -1.24008  -1.13991
 Alpha  occ. eigenvalues --   -1.10565  -1.09697  -1.09187  -1.07691  -1.06522
 Alpha  occ. eigenvalues --   -0.96851  -0.95961  -0.95198  -0.94290  -0.93897
 Alpha  occ. eigenvalues --   -0.93424  -0.93351  -0.92851  -0.90049  -0.89423
 Alpha  occ. eigenvalues --   -0.89200  -0.88676  -0.88326  -0.86491  -0.85053
 Alpha  occ. eigenvalues --   -0.83867  -0.83221  -0.82008  -0.81728  -0.79867
 Alpha  occ. eigenvalues --   -0.78842  -0.78033  -0.77861  -0.77073  -0.75624
 Alpha  occ. eigenvalues --   -0.75184  -0.74353  -0.72337  -0.71555  -0.69104
 Alpha  occ. eigenvalues --   -0.68437  -0.67571  -0.66927  -0.65161  -0.63952
 Alpha  occ. eigenvalues --   -0.63566  -0.63516  -0.63045  -0.61888  -0.61437
 Alpha  occ. eigenvalues --   -0.61292  -0.61071  -0.60801  -0.59862  -0.59477
 Alpha  occ. eigenvalues --   -0.58818  -0.58683  -0.58358  -0.58062  -0.57899
 Alpha  occ. eigenvalues --   -0.57633  -0.57322  -0.57115  -0.56737  -0.56620
 Alpha  occ. eigenvalues --   -0.56170  -0.55903  -0.55619  -0.55408  -0.55224
 Alpha  occ. eigenvalues --   -0.55175  -0.54977  -0.54832  -0.54644  -0.54310
 Alpha  occ. eigenvalues --   -0.53915  -0.53834  -0.53457  -0.53162  -0.52893
 Alpha  occ. eigenvalues --   -0.52439  -0.51944  -0.51714  -0.51538  -0.51158
 Alpha  occ. eigenvalues --   -0.50956  -0.50198  -0.49931  -0.49684  -0.49567
 Alpha  occ. eigenvalues --   -0.49122  -0.48632  -0.48111  -0.47851  -0.47570
 Alpha  occ. eigenvalues --   -0.47351  -0.47004  -0.46687  -0.46223  -0.45970
 Alpha  occ. eigenvalues --   -0.45179  -0.44903  -0.44875  -0.44743  -0.43273
 Alpha  occ. eigenvalues --   -0.42566  -0.42377  -0.41956  -0.41565  -0.41110
 Alpha  occ. eigenvalues --   -0.40957  -0.40130  -0.39835  -0.38892  -0.36786
 Alpha  occ. eigenvalues --   -0.36192  -0.35226  -0.35008  -0.34317  -0.33999
 Alpha  occ. eigenvalues --   -0.32919  -0.31433  -0.30830
 Alpha virt. eigenvalues --   -0.19420  -0.18980  -0.12237  -0.11335  -0.08942
 Alpha virt. eigenvalues --   -0.08620  -0.08227  -0.07072  -0.06529  -0.06107
 Alpha virt. eigenvalues --   -0.04580  -0.04239  -0.03981  -0.03813  -0.03608
 Alpha virt. eigenvalues --   -0.03174  -0.02563  -0.02413  -0.01802  -0.01370
 Alpha virt. eigenvalues --   -0.00813  -0.00616  -0.00427   0.00046   0.00543
 Alpha virt. eigenvalues --    0.00999   0.01180   0.01392   0.01738   0.01774
 Alpha virt. eigenvalues --    0.02083   0.02582   0.02670   0.02818   0.03201
 Alpha virt. eigenvalues --    0.03301   0.03493   0.03645   0.04019   0.04274
 Alpha virt. eigenvalues --    0.04511   0.04767   0.04967   0.05200   0.05294
 Alpha virt. eigenvalues --    0.05403   0.05584   0.05935   0.06018   0.06447
 Alpha virt. eigenvalues --    0.06651   0.06796   0.07095   0.07679   0.07922
 Alpha virt. eigenvalues --    0.07942   0.08283   0.08456   0.08576   0.09022
 Alpha virt. eigenvalues --    0.09121   0.09516   0.09600   0.09730   0.10128
 Alpha virt. eigenvalues --    0.10217   0.10410   0.10657   0.10901   0.11308
 Alpha virt. eigenvalues --    0.11442   0.11628   0.11866   0.12040   0.12257
 Alpha virt. eigenvalues --    0.12322   0.12399   0.12648   0.12878   0.13255
 Alpha virt. eigenvalues --    0.13394   0.13563   0.13606   0.13839   0.14115
 Alpha virt. eigenvalues --    0.14390   0.14464   0.14777   0.14853   0.15051
 Alpha virt. eigenvalues --    0.15441   0.15658   0.15783   0.16039   0.16257
 Alpha virt. eigenvalues --    0.16640   0.16803   0.17111   0.17306   0.17511
 Alpha virt. eigenvalues --    0.17661   0.17934   0.18097   0.18348   0.18545
 Alpha virt. eigenvalues --    0.18831   0.18968   0.19172   0.19321   0.19707
 Alpha virt. eigenvalues --    0.19851   0.20156   0.20547   0.20720   0.20875
 Alpha virt. eigenvalues --    0.21222   0.21602   0.22007   0.22306   0.22676
 Alpha virt. eigenvalues --    0.22807   0.22937   0.23417   0.23751   0.24074
 Alpha virt. eigenvalues --    0.24183   0.24559   0.24742   0.25168   0.25335
 Alpha virt. eigenvalues --    0.25684   0.25883   0.26165   0.26413   0.26711
 Alpha virt. eigenvalues --    0.26856   0.27266   0.27549   0.27626   0.27944
 Alpha virt. eigenvalues --    0.28425   0.28727   0.28950   0.29331   0.29575
 Alpha virt. eigenvalues --    0.29728   0.29889   0.30284   0.30501   0.30642
 Alpha virt. eigenvalues --    0.30813   0.31061   0.31501   0.31669   0.31824
 Alpha virt. eigenvalues --    0.32344   0.32597   0.32773   0.32965   0.33188
 Alpha virt. eigenvalues --    0.33620   0.33877   0.33970   0.34219   0.34261
 Alpha virt. eigenvalues --    0.34461   0.34544   0.34808   0.34890   0.35115
 Alpha virt. eigenvalues --    0.35424   0.35965   0.36279   0.36357   0.36473
 Alpha virt. eigenvalues --    0.36519   0.36876   0.36987   0.37386   0.37518
 Alpha virt. eigenvalues --    0.37707   0.37980   0.38480   0.38606   0.38796
 Alpha virt. eigenvalues --    0.39083   0.39269   0.39335   0.39409   0.39772
 Alpha virt. eigenvalues --    0.39947   0.40022   0.40156   0.40520   0.40780
 Alpha virt. eigenvalues --    0.40988   0.41372   0.41627   0.41673   0.41724
 Alpha virt. eigenvalues --    0.42182   0.42284   0.42512   0.42723   0.42958
 Alpha virt. eigenvalues --    0.43088   0.43388   0.43563   0.43742   0.43849
 Alpha virt. eigenvalues --    0.44201   0.44269   0.44458   0.44728   0.44890
 Alpha virt. eigenvalues --    0.45056   0.45202   0.45406   0.45719   0.45889
 Alpha virt. eigenvalues --    0.46071   0.46302   0.46556   0.46594   0.47108
 Alpha virt. eigenvalues --    0.47249   0.47497   0.47731   0.47881   0.48050
 Alpha virt. eigenvalues --    0.48236   0.48313   0.48895   0.49093   0.49321
 Alpha virt. eigenvalues --    0.49442   0.49772   0.50005   0.50354   0.50442
 Alpha virt. eigenvalues --    0.50695   0.50894   0.51122   0.51558   0.51979
 Alpha virt. eigenvalues --    0.52258   0.52358   0.52499   0.52767   0.53311
 Alpha virt. eigenvalues --    0.53691   0.53833   0.54177   0.54299   0.54573
 Alpha virt. eigenvalues --    0.54891   0.55043   0.55145   0.55641   0.56096
 Alpha virt. eigenvalues --    0.56302   0.56577   0.56996   0.57150   0.57454
 Alpha virt. eigenvalues --    0.57550   0.57923   0.58081   0.58228   0.58797
 Alpha virt. eigenvalues --    0.58855   0.58952   0.59336   0.59624   0.60027
 Alpha virt. eigenvalues --    0.60107   0.60617   0.60780   0.61029   0.61245
 Alpha virt. eigenvalues --    0.61652   0.62026   0.62231   0.62432   0.62739
 Alpha virt. eigenvalues --    0.62929   0.63224   0.63551   0.64138   0.64366
 Alpha virt. eigenvalues --    0.64655   0.64755   0.64929   0.65127   0.65491
 Alpha virt. eigenvalues --    0.65897   0.66097   0.66238   0.66559   0.67144
 Alpha virt. eigenvalues --    0.67405   0.67621   0.67937   0.68561   0.68666
 Alpha virt. eigenvalues --    0.68867   0.69318   0.69425   0.70017   0.70431
 Alpha virt. eigenvalues --    0.70561   0.70821   0.71475   0.71768   0.72073
 Alpha virt. eigenvalues --    0.72239   0.72285   0.72880   0.73401   0.73495
 Alpha virt. eigenvalues --    0.73683   0.74028   0.74283   0.74721   0.75071
 Alpha virt. eigenvalues --    0.75277   0.75442   0.75801   0.76345   0.76458
 Alpha virt. eigenvalues --    0.76781   0.77379   0.77722   0.78041   0.78176
 Alpha virt. eigenvalues --    0.78622   0.78855   0.79150   0.79557   0.80036
 Alpha virt. eigenvalues --    0.80312   0.80815   0.81592   0.81689   0.81877
 Alpha virt. eigenvalues --    0.82467   0.82531   0.82749   0.83237   0.83994
 Alpha virt. eigenvalues --    0.84343   0.84492   0.84730   0.84995   0.85246
 Alpha virt. eigenvalues --    0.85524   0.85747   0.85946   0.86224   0.86453
 Alpha virt. eigenvalues --    0.87198   0.87432   0.87572   0.87793   0.88031
 Alpha virt. eigenvalues --    0.88242   0.88841   0.88985   0.89116   0.89613
 Alpha virt. eigenvalues --    0.90266   0.90549   0.91252   0.91420   0.91893
 Alpha virt. eigenvalues --    0.92301   0.92592   0.92931   0.93100   0.93357
 Alpha virt. eigenvalues --    0.93696   0.93849   0.94255   0.94272   0.94903
 Alpha virt. eigenvalues --    0.95062   0.95534   0.95773   0.96026   0.96363
 Alpha virt. eigenvalues --    0.96603   0.97015   0.97070   0.97406   0.97660
 Alpha virt. eigenvalues --    0.98063   0.98110   0.98394   0.98881   0.99018
 Alpha virt. eigenvalues --    0.99579   1.00179   1.00343   1.00841   1.01105
 Alpha virt. eigenvalues --    1.01521   1.01816   1.02271   1.02510   1.02820
 Alpha virt. eigenvalues --    1.03007   1.03484   1.03515   1.04177   1.04311
 Alpha virt. eigenvalues --    1.05143   1.05465   1.06005   1.06095   1.06551
 Alpha virt. eigenvalues --    1.07155   1.08091   1.08365   1.08493   1.09180
 Alpha virt. eigenvalues --    1.09325   1.10032   1.10745   1.10998   1.11338
 Alpha virt. eigenvalues --    1.11855   1.12269   1.12727   1.13155   1.13270
 Alpha virt. eigenvalues --    1.14232   1.14633   1.14989   1.15276   1.15696
 Alpha virt. eigenvalues --    1.15999   1.16637   1.17041   1.17098   1.17677
 Alpha virt. eigenvalues --    1.18376   1.18517   1.19401   1.19703   1.20172
 Alpha virt. eigenvalues --    1.20418   1.20664   1.21550   1.22162   1.22700
 Alpha virt. eigenvalues --    1.22921   1.23358   1.23760   1.24088   1.24186
 Alpha virt. eigenvalues --    1.24664   1.25278   1.25527   1.26176   1.27298
 Alpha virt. eigenvalues --    1.27504   1.27640   1.28078   1.28360   1.28655
 Alpha virt. eigenvalues --    1.29111   1.29218   1.29870   1.30564   1.31016
 Alpha virt. eigenvalues --    1.31672   1.32284   1.32715   1.32969   1.33213
 Alpha virt. eigenvalues --    1.33643   1.34154   1.34810   1.35198   1.35774
 Alpha virt. eigenvalues --    1.36237   1.36532   1.37458   1.37510   1.37772
 Alpha virt. eigenvalues --    1.38002   1.38496   1.38936   1.39183   1.39689
 Alpha virt. eigenvalues --    1.40381   1.40697   1.40965   1.41500   1.41832
 Alpha virt. eigenvalues --    1.42069   1.42140   1.42527   1.42621   1.43178
 Alpha virt. eigenvalues --    1.43783   1.44083   1.44336   1.44557   1.44905
 Alpha virt. eigenvalues --    1.45022   1.45171   1.45742   1.45925   1.46241
 Alpha virt. eigenvalues --    1.46639   1.46867   1.47543   1.47670   1.47905
 Alpha virt. eigenvalues --    1.48376   1.48444   1.48625   1.49090   1.49295
 Alpha virt. eigenvalues --    1.49777   1.50513   1.50586   1.50911   1.51108
 Alpha virt. eigenvalues --    1.51428   1.51742   1.52047   1.52111   1.52554
 Alpha virt. eigenvalues --    1.53085   1.53376   1.53577   1.53898   1.54174
 Alpha virt. eigenvalues --    1.54335   1.54684   1.54888   1.55196   1.55530
 Alpha virt. eigenvalues --    1.55865   1.55947   1.56190   1.56199   1.56903
 Alpha virt. eigenvalues --    1.57053   1.57179   1.57422   1.57682   1.57805
 Alpha virt. eigenvalues --    1.58287   1.58558   1.58902   1.58966   1.59254
 Alpha virt. eigenvalues --    1.59420   1.59748   1.59984   1.60155   1.60597
 Alpha virt. eigenvalues --    1.60930   1.61087   1.61605   1.62210   1.62666
 Alpha virt. eigenvalues --    1.62699   1.62853   1.62992   1.63749   1.63885
 Alpha virt. eigenvalues --    1.64265   1.64689   1.64973   1.65672   1.65922
 Alpha virt. eigenvalues --    1.66000   1.66299   1.66824   1.66995   1.67548
 Alpha virt. eigenvalues --    1.68337   1.68810   1.68957   1.69790   1.70149
 Alpha virt. eigenvalues --    1.70586   1.70660   1.71017   1.71237   1.72983
 Alpha virt. eigenvalues --    1.73298   1.73650   1.73679   1.74021   1.74593
 Alpha virt. eigenvalues --    1.74839   1.75368   1.75908   1.76017   1.76644
 Alpha virt. eigenvalues --    1.76843   1.77093   1.77535   1.77914   1.78462
 Alpha virt. eigenvalues --    1.78802   1.79165   1.79693   1.79996   1.80167
 Alpha virt. eigenvalues --    1.80932   1.81359   1.81582   1.82006   1.82239
 Alpha virt. eigenvalues --    1.82694   1.83476   1.84019   1.84167   1.84347
 Alpha virt. eigenvalues --    1.84758   1.85012   1.85758   1.86449   1.87252
 Alpha virt. eigenvalues --    1.87356   1.87630   1.88079   1.88768   1.88855
 Alpha virt. eigenvalues --    1.89433   1.89786   1.90259   1.90513   1.90805
 Alpha virt. eigenvalues --    1.91177   1.91424   1.91547   1.92451   1.92671
 Alpha virt. eigenvalues --    1.92940   1.93254   1.93651   1.93889   1.94436
 Alpha virt. eigenvalues --    1.94716   1.94793   1.95001   1.95548   1.96046
 Alpha virt. eigenvalues --    1.96403   1.96808   1.97104   1.97551   1.98176
 Alpha virt. eigenvalues --    1.98868   1.99467   2.00261   2.00391   2.00713
 Alpha virt. eigenvalues --    2.00876   2.01889   2.02760   2.03297   2.03443
 Alpha virt. eigenvalues --    2.03597   2.03975   2.04349   2.04604   2.04693
 Alpha virt. eigenvalues --    2.05289   2.05651   2.05905   2.06263   2.06507
 Alpha virt. eigenvalues --    2.06819   2.07830   2.07891   2.08018   2.08330
 Alpha virt. eigenvalues --    2.08847   2.09009   2.09405   2.09969   2.10140
 Alpha virt. eigenvalues --    2.10491   2.11067   2.11556   2.12428   2.12782
 Alpha virt. eigenvalues --    2.13559   2.13717   2.14242   2.14489   2.15150
 Alpha virt. eigenvalues --    2.15358   2.15700   2.16325   2.16494   2.17041
 Alpha virt. eigenvalues --    2.17556   2.17948   2.18174   2.18767   2.19102
 Alpha virt. eigenvalues --    2.19620   2.19804   2.19970   2.20794   2.21021
 Alpha virt. eigenvalues --    2.21230   2.21502   2.21797   2.22172   2.23604
 Alpha virt. eigenvalues --    2.23827   2.24166   2.24639   2.24839   2.26336
 Alpha virt. eigenvalues --    2.26983   2.27539   2.27727   2.27976   2.28791
 Alpha virt. eigenvalues --    2.28983   2.29338   2.29788   2.30192   2.30551
 Alpha virt. eigenvalues --    2.30986   2.31321   2.32238   2.32424   2.32774
 Alpha virt. eigenvalues --    2.33252   2.33597   2.33787   2.34225   2.34572
 Alpha virt. eigenvalues --    2.35508   2.35687   2.35918   2.36802   2.37262
 Alpha virt. eigenvalues --    2.37643   2.37703   2.38331   2.38627   2.39039
 Alpha virt. eigenvalues --    2.39632   2.39792   2.40291   2.41329   2.41809
 Alpha virt. eigenvalues --    2.42085   2.42727   2.43038   2.43696   2.44447
 Alpha virt. eigenvalues --    2.44918   2.45074   2.45166   2.45721   2.46131
 Alpha virt. eigenvalues --    2.46299   2.46793   2.47015   2.47289   2.47797
 Alpha virt. eigenvalues --    2.47957   2.48582   2.49011   2.49753   2.49839
 Alpha virt. eigenvalues --    2.50099   2.50374   2.50678   2.51041   2.51507
 Alpha virt. eigenvalues --    2.51699   2.51936   2.52289   2.52940   2.53247
 Alpha virt. eigenvalues --    2.53873   2.54001   2.54433   2.55167   2.55588
 Alpha virt. eigenvalues --    2.56001   2.56827   2.57552   2.57838   2.58093
 Alpha virt. eigenvalues --    2.58339   2.58873   2.59039   2.59494   2.59994
 Alpha virt. eigenvalues --    2.60548   2.60879   2.60993   2.61712   2.61913
 Alpha virt. eigenvalues --    2.62147   2.62434   2.62798   2.63346   2.63512
 Alpha virt. eigenvalues --    2.64223   2.64519   2.64927   2.65273   2.65763
 Alpha virt. eigenvalues --    2.66194   2.66318   2.66598   2.67014   2.67564
 Alpha virt. eigenvalues --    2.67869   2.68186   2.68496   2.69316   2.69569
 Alpha virt. eigenvalues --    2.69926   2.70092   2.70507   2.70751   2.71188
 Alpha virt. eigenvalues --    2.71453   2.71952   2.72085   2.72384   2.72685
 Alpha virt. eigenvalues --    2.72799   2.73086   2.73701   2.74023   2.74345
 Alpha virt. eigenvalues --    2.74526   2.75393   2.75467   2.75603   2.76021
 Alpha virt. eigenvalues --    2.76727   2.76940   2.77195   2.77479   2.78108
 Alpha virt. eigenvalues --    2.78497   2.78603   2.79018   2.79995   2.80080
 Alpha virt. eigenvalues --    2.80571   2.80606   2.80949   2.81446   2.81927
 Alpha virt. eigenvalues --    2.82081   2.82311   2.82625   2.82926   2.83331
 Alpha virt. eigenvalues --    2.83828   2.84600   2.84830   2.85308   2.85773
 Alpha virt. eigenvalues --    2.85979   2.86217   2.86600   2.86819   2.87082
 Alpha virt. eigenvalues --    2.87557   2.87705   2.88348   2.88690   2.88737
 Alpha virt. eigenvalues --    2.89329   2.89496   2.89703   2.89912   2.90567
 Alpha virt. eigenvalues --    2.90907   2.91009   2.91302   2.91391   2.91976
 Alpha virt. eigenvalues --    2.92738   2.92898   2.92944   2.93341   2.93630
 Alpha virt. eigenvalues --    2.94048   2.94141   2.94289   2.94667   2.94875
 Alpha virt. eigenvalues --    2.95013   2.95718   2.95781   2.96065   2.96310
 Alpha virt. eigenvalues --    2.97206   2.97322   2.97717   2.98078   2.98157
 Alpha virt. eigenvalues --    2.98338   2.98639   2.98847   2.99263   2.99992
 Alpha virt. eigenvalues --    3.00231   3.00562   3.01072   3.01447   3.01665
 Alpha virt. eigenvalues --    3.01888   3.01932   3.02115   3.02620   3.02935
 Alpha virt. eigenvalues --    3.03593   3.03691   3.03894   3.04312   3.04589
 Alpha virt. eigenvalues --    3.04822   3.05309   3.05525   3.05723   3.06417
 Alpha virt. eigenvalues --    3.06617   3.06839   3.07192   3.07581   3.07840
 Alpha virt. eigenvalues --    3.08237   3.08687   3.09218   3.09437   3.09872
 Alpha virt. eigenvalues --    3.10352   3.11130   3.11209   3.11358   3.11685
 Alpha virt. eigenvalues --    3.12149   3.12218   3.12575   3.12772   3.13034
 Alpha virt. eigenvalues --    3.13628   3.13910   3.14298   3.15130   3.15215
 Alpha virt. eigenvalues --    3.15366   3.15703   3.15861   3.16372   3.16933
 Alpha virt. eigenvalues --    3.17175   3.17496   3.17752   3.18008   3.18174
 Alpha virt. eigenvalues --    3.18272   3.18585   3.19168   3.19657   3.19903
 Alpha virt. eigenvalues --    3.20204   3.20598   3.20923   3.20936   3.21363
 Alpha virt. eigenvalues --    3.21906   3.22018   3.22494   3.22632   3.23075
 Alpha virt. eigenvalues --    3.23535   3.23859   3.23972   3.24230   3.24504
 Alpha virt. eigenvalues --    3.24858   3.24892   3.25184   3.25688   3.25826
 Alpha virt. eigenvalues --    3.26152   3.26395   3.26745   3.27138   3.27197
 Alpha virt. eigenvalues --    3.27413   3.27743   3.28109   3.28164   3.28522
 Alpha virt. eigenvalues --    3.28729   3.28896   3.29082   3.29607   3.29830
 Alpha virt. eigenvalues --    3.30017   3.30317   3.30597   3.31485   3.31577
 Alpha virt. eigenvalues --    3.31853   3.31976   3.32257   3.32832   3.33217
 Alpha virt. eigenvalues --    3.33438   3.33637   3.33917   3.34127   3.34509
 Alpha virt. eigenvalues --    3.34814   3.35103   3.35660   3.35907   3.36332
 Alpha virt. eigenvalues --    3.36528   3.36671   3.36986   3.37292   3.37613
 Alpha virt. eigenvalues --    3.37787   3.37973   3.38439   3.39128   3.39236
 Alpha virt. eigenvalues --    3.39369   3.39818   3.40315   3.40571   3.40923
 Alpha virt. eigenvalues --    3.41350   3.41646   3.42539   3.42818   3.43010
 Alpha virt. eigenvalues --    3.43194   3.43531   3.43864   3.44407   3.44550
 Alpha virt. eigenvalues --    3.44785   3.45475   3.45906   3.46078   3.46371
 Alpha virt. eigenvalues --    3.47032   3.47351   3.47912   3.48161   3.48596
 Alpha virt. eigenvalues --    3.49363   3.49597   3.49957   3.50417   3.50724
 Alpha virt. eigenvalues --    3.50947   3.51374   3.51897   3.52255   3.52459
 Alpha virt. eigenvalues --    3.52775   3.53375   3.54080   3.54523   3.54889
 Alpha virt. eigenvalues --    3.55029   3.55634   3.56009   3.56382   3.56467
 Alpha virt. eigenvalues --    3.56663   3.57331   3.57563   3.58338   3.58925
 Alpha virt. eigenvalues --    3.59362   3.59844   3.60436   3.60700   3.61075
 Alpha virt. eigenvalues --    3.61429   3.61799   3.62277   3.62834   3.63405
 Alpha virt. eigenvalues --    3.63882   3.64142   3.64618   3.64881   3.65474
 Alpha virt. eigenvalues --    3.65694   3.66291   3.67036   3.67604   3.67671
 Alpha virt. eigenvalues --    3.68197   3.68989   3.69241   3.69433   3.69669
 Alpha virt. eigenvalues --    3.70235   3.70884   3.71667   3.71942   3.72250
 Alpha virt. eigenvalues --    3.72348   3.72994   3.73802   3.74045   3.74454
 Alpha virt. eigenvalues --    3.74723   3.75259   3.75559   3.75691   3.76600
 Alpha virt. eigenvalues --    3.77103   3.77668   3.77871   3.78314   3.78955
 Alpha virt. eigenvalues --    3.79243   3.79518   3.81154   3.81605   3.82386
 Alpha virt. eigenvalues --    3.82752   3.83552   3.83850   3.85023   3.85422
 Alpha virt. eigenvalues --    3.85713   3.86772   3.86822   3.87037   3.87122
 Alpha virt. eigenvalues --    3.87831   3.88416   3.89148   3.89427   3.90661
 Alpha virt. eigenvalues --    3.91466   3.91493   3.91639   3.92140   3.92419
 Alpha virt. eigenvalues --    3.93358   3.93708   3.94470   3.95092   3.95710
 Alpha virt. eigenvalues --    3.96095   3.96422   3.96657   3.97597   3.97870
 Alpha virt. eigenvalues --    3.98732   3.99209   3.99765   4.00714   4.01027
 Alpha virt. eigenvalues --    4.01874   4.02112   4.02879   4.03598   4.04121
 Alpha virt. eigenvalues --    4.04810   4.05421   4.05556   4.06325   4.06720
 Alpha virt. eigenvalues --    4.08215   4.08894   4.09872   4.10159   4.10503
 Alpha virt. eigenvalues --    4.11167   4.12004   4.12622   4.12909   4.13492
 Alpha virt. eigenvalues --    4.13825   4.14429   4.14818   4.15087   4.15120
 Alpha virt. eigenvalues --    4.16503   4.17210   4.17566   4.18074   4.18435
 Alpha virt. eigenvalues --    4.19141   4.20328   4.21109   4.21281   4.21850
 Alpha virt. eigenvalues --    4.22777   4.23672   4.24552   4.25684   4.25961
 Alpha virt. eigenvalues --    4.26249   4.26744   4.27218   4.27828   4.27972
 Alpha virt. eigenvalues --    4.28717   4.29586   4.30637   4.31234   4.31576
 Alpha virt. eigenvalues --    4.32486   4.33570   4.34661   4.35367   4.35882
 Alpha virt. eigenvalues --    4.36951   4.37345   4.38149   4.39715   4.40088
 Alpha virt. eigenvalues --    4.41047   4.41267   4.42175   4.42509   4.43890
 Alpha virt. eigenvalues --    4.44503   4.44745   4.44779   4.46668   4.47331
 Alpha virt. eigenvalues --    4.47653   4.48298   4.50811   4.51414   4.52256
 Alpha virt. eigenvalues --    4.52884   4.55463   4.55575   4.57002   4.57101
 Alpha virt. eigenvalues --    4.57789   4.58598   4.59010   4.59584   4.60074
 Alpha virt. eigenvalues --    4.61736   4.62475   4.63131   4.64511   4.64647
 Alpha virt. eigenvalues --    4.65692   4.66141   4.66802   4.67157   4.68131
 Alpha virt. eigenvalues --    4.68757   4.68985   4.69428   4.70477   4.71133
 Alpha virt. eigenvalues --    4.71777   4.71959   4.72534   4.72844   4.73937
 Alpha virt. eigenvalues --    4.74510   4.74630   4.75156   4.76339   4.76823
 Alpha virt. eigenvalues --    4.77156   4.77607   4.78894   4.78964   4.80352
 Alpha virt. eigenvalues --    4.80413   4.80995   4.81714   4.82270   4.82968
 Alpha virt. eigenvalues --    4.83712   4.84041   4.84676   4.85234   4.86440
 Alpha virt. eigenvalues --    4.86709   4.87562   4.88015   4.88592   4.88955
 Alpha virt. eigenvalues --    4.89210   4.90130   4.91364   4.92102   4.92643
 Alpha virt. eigenvalues --    4.93288   4.93944   4.94841   4.95517   4.96546
 Alpha virt. eigenvalues --    4.97741   4.98837   5.01776   5.02331   5.03704
 Alpha virt. eigenvalues --    5.04932   5.06984   5.07475   5.08474   5.09573
 Alpha virt. eigenvalues --    5.10077   5.10684   5.11282   5.11812   5.13098
 Alpha virt. eigenvalues --    5.14030   5.14478   5.15208   5.15658   5.16028
 Alpha virt. eigenvalues --    5.17367   5.17613   5.18680   5.21403   5.21651
 Alpha virt. eigenvalues --    5.22793   5.24649   5.25941   5.26681   5.27547
 Alpha virt. eigenvalues --    5.29007   5.30602   5.32571   5.33069   5.35036
 Alpha virt. eigenvalues --    5.35597   5.36108   5.39068   5.39859   5.41205
 Alpha virt. eigenvalues --    5.41580   5.43352   5.45059   5.47702   5.48333
 Alpha virt. eigenvalues --    5.48844   5.49245   5.51005   5.51467   5.52551
 Alpha virt. eigenvalues --    5.53266   5.54204   5.55640   5.56848   5.57735
 Alpha virt. eigenvalues --    5.61358   5.62170   5.63267   5.66388   5.68239
 Alpha virt. eigenvalues --    5.72861   5.73530   5.74073   5.75887   5.79847
 Alpha virt. eigenvalues --    5.80849   5.83019   5.87513   5.88568   5.89312
 Alpha virt. eigenvalues --    5.90964   5.93188   5.95864   5.97309   5.99894
 Alpha virt. eigenvalues --    6.01268   6.05504   6.07428   6.07960   6.10781
 Alpha virt. eigenvalues --    6.18903   6.22062   6.24740   6.26011   6.26708
 Alpha virt. eigenvalues --    6.27037   6.28752   6.34034   6.34196   6.38162
 Alpha virt. eigenvalues --    6.40104   6.41783   6.43552   6.47357   6.56134
 Alpha virt. eigenvalues --    6.60480   6.66822   6.70864   6.74891   6.78073
 Alpha virt. eigenvalues --    6.85551   6.88037   6.95564   7.00861   7.04338
 Alpha virt. eigenvalues --    7.08631   7.10909   7.11925   7.17841   7.20529
 Alpha virt. eigenvalues --    8.91500   9.14193   9.36070  19.54145  22.23971
 Alpha virt. eigenvalues --   22.55773  22.64113  22.71019  22.76958  22.78442
 Alpha virt. eigenvalues --   22.81381  22.84281  22.85066  22.85680  22.89783
 Alpha virt. eigenvalues --   22.92709  22.93787  22.96328  22.98825  22.99808
 Alpha virt. eigenvalues --   23.01038  23.05357  23.11048  23.12266  23.14200
 Alpha virt. eigenvalues --   23.16543  23.22557  23.25603  23.28288  23.34069
 Alpha virt. eigenvalues --   23.35563  23.40828  23.42923  23.47506  23.52273
 Alpha virt. eigenvalues --   23.57002  23.66505  23.69816  23.76025  32.74597
 Alpha virt. eigenvalues --   32.77948  32.79551  32.99103  43.86712  43.87669
 Alpha virt. eigenvalues --   43.89265  43.92201
  Beta  occ. eigenvalues -- -256.55091 -89.16535 -30.28822 -26.12046 -26.11888
  Beta  occ. eigenvalues --  -26.11816 -19.33772 -19.32661 -19.26329 -19.25232
  Beta  occ. eigenvalues --  -14.52475 -14.49133 -14.48328 -14.46980 -10.43493
  Beta  occ. eigenvalues --  -10.42354 -10.38266 -10.37813 -10.37139 -10.36553
  Beta  occ. eigenvalues --  -10.36262 -10.36075 -10.36056 -10.35464 -10.35390
  Beta  occ. eigenvalues --  -10.34965 -10.34877 -10.34200 -10.34115 -10.33149
  Beta  occ. eigenvalues --  -10.33129 -10.32878 -10.32545 -10.32478 -10.32449
  Beta  occ. eigenvalues --  -10.32362 -10.32318 -10.31931 -10.30885 -10.29656
  Beta  occ. eigenvalues --  -10.29174 -10.29148 -10.28677 -10.28629 -10.27657
  Beta  occ. eigenvalues --  -10.27374 -10.27315 -10.26062 -10.25065  -8.14881
  Beta  occ. eigenvalues --   -6.08527  -6.08211  -6.07669  -3.59120  -2.34593
  Beta  occ. eigenvalues --   -2.33935  -2.32966  -1.24450  -1.24007  -1.12714
  Beta  occ. eigenvalues --   -1.10565  -1.09692  -1.08713  -1.07375  -1.06233
  Beta  occ. eigenvalues --   -0.96688  -0.95411  -0.94625  -0.94180  -0.93755
  Beta  occ. eigenvalues --   -0.93303  -0.93228  -0.92725  -0.89964  -0.89336
  Beta  occ. eigenvalues --   -0.89068  -0.88570  -0.88196  -0.86222  -0.84854
  Beta  occ. eigenvalues --   -0.83751  -0.83109  -0.81783  -0.81279  -0.79815
  Beta  occ. eigenvalues --   -0.78731  -0.77940  -0.77685  -0.76647  -0.75595
  Beta  occ. eigenvalues --   -0.75083  -0.74327  -0.71673  -0.71110  -0.68260
  Beta  occ. eigenvalues --   -0.67511  -0.66765  -0.66302  -0.64580  -0.63667
  Beta  occ. eigenvalues --   -0.63159  -0.62431  -0.61622  -0.61248  -0.61014
  Beta  occ. eigenvalues --   -0.60646  -0.60318  -0.59544  -0.59339  -0.58793
  Beta  occ. eigenvalues --   -0.58352  -0.58113  -0.57303  -0.57175  -0.57066
  Beta  occ. eigenvalues --   -0.57002  -0.56510  -0.56379  -0.55558  -0.55452
  Beta  occ. eigenvalues --   -0.55313  -0.55248  -0.55012  -0.54752  -0.54580
  Beta  occ. eigenvalues --   -0.54505  -0.54221  -0.53886  -0.53327  -0.53257
  Beta  occ. eigenvalues --   -0.52662  -0.52548  -0.52394  -0.51999  -0.51353
  Beta  occ. eigenvalues --   -0.51142  -0.50930  -0.50648  -0.50034  -0.49777
  Beta  occ. eigenvalues --   -0.49633  -0.49175  -0.48687  -0.48125  -0.47973
  Beta  occ. eigenvalues --   -0.47780  -0.47259  -0.46999  -0.46945  -0.46624
  Beta  occ. eigenvalues --   -0.46213  -0.45594  -0.45031  -0.44931  -0.44793
  Beta  occ. eigenvalues --   -0.44306  -0.43242  -0.42694  -0.41953  -0.41224
  Beta  occ. eigenvalues --   -0.41140  -0.40907  -0.40482  -0.39557  -0.39172
  Beta  occ. eigenvalues --   -0.38932  -0.36187  -0.35172  -0.34862  -0.34091
  Beta  occ. eigenvalues --   -0.32766  -0.31547  -0.30804
  Beta virt. eigenvalues --   -0.22719  -0.21439  -0.19603  -0.19014  -0.17774
  Beta virt. eigenvalues --   -0.17226  -0.14527  -0.11984  -0.10683  -0.08932
  Beta virt. eigenvalues --   -0.08609  -0.07231  -0.06273  -0.05868  -0.05150
  Beta virt. eigenvalues --   -0.04194  -0.04028  -0.03604  -0.03521  -0.03419
  Beta virt. eigenvalues --   -0.02820  -0.02350  -0.02164  -0.01595  -0.01235
  Beta virt. eigenvalues --   -0.00741  -0.00482  -0.00197   0.00286   0.00721
  Beta virt. eigenvalues --    0.01181   0.01335   0.01512   0.01853   0.01870
  Beta virt. eigenvalues --    0.02299   0.02799   0.02859   0.02952   0.03338
  Beta virt. eigenvalues --    0.03504   0.03672   0.03956   0.04123   0.04557
  Beta virt. eigenvalues --    0.04693   0.04876   0.05162   0.05271   0.05416
  Beta virt. eigenvalues --    0.05548   0.05662   0.06041   0.06375   0.06718
  Beta virt. eigenvalues --    0.06924   0.07055   0.07194   0.07847   0.07994
  Beta virt. eigenvalues --    0.08244   0.08430   0.08604   0.08907   0.09141
  Beta virt. eigenvalues --    0.09562   0.09663   0.09794   0.10014   0.10299
  Beta virt. eigenvalues --    0.10561   0.10629   0.10999   0.11129   0.11370
  Beta virt. eigenvalues --    0.11561   0.11755   0.12083   0.12222   0.12401
  Beta virt. eigenvalues --    0.12493   0.12710   0.12958   0.13032   0.13442
  Beta virt. eigenvalues --    0.13589   0.13778   0.13841   0.14193   0.14284
  Beta virt. eigenvalues --    0.14455   0.14579   0.14954   0.15017   0.15299
  Beta virt. eigenvalues --    0.15716   0.15886   0.15991   0.16200   0.16414
  Beta virt. eigenvalues --    0.16755   0.17059   0.17382   0.17421   0.17678
  Beta virt. eigenvalues --    0.17903   0.18068   0.18281   0.18535   0.18895
  Beta virt. eigenvalues --    0.19063   0.19141   0.19289   0.19461   0.19843
  Beta virt. eigenvalues --    0.20039   0.20393   0.20782   0.20885   0.21011
  Beta virt. eigenvalues --    0.21426   0.21724   0.22098   0.22555   0.22830
  Beta virt. eigenvalues --    0.22936   0.23328   0.23580   0.23917   0.24357
  Beta virt. eigenvalues --    0.24459   0.24686   0.24927   0.25299   0.25404
  Beta virt. eigenvalues --    0.25946   0.26071   0.26375   0.26576   0.26858
  Beta virt. eigenvalues --    0.27034   0.27379   0.27701   0.27788   0.28292
  Beta virt. eigenvalues --    0.28698   0.28852   0.29177   0.29478   0.29751
  Beta virt. eigenvalues --    0.29872   0.30054   0.30486   0.30656   0.30736
  Beta virt. eigenvalues --    0.30885   0.31223   0.31629   0.31777   0.31937
  Beta virt. eigenvalues --    0.32472   0.32688   0.32874   0.33101   0.33441
  Beta virt. eigenvalues --    0.33715   0.33993   0.34121   0.34321   0.34376
  Beta virt. eigenvalues --    0.34570   0.34744   0.34936   0.34991   0.35330
  Beta virt. eigenvalues --    0.35516   0.36101   0.36394   0.36457   0.36568
  Beta virt. eigenvalues --    0.36635   0.36962   0.37120   0.37475   0.37698
  Beta virt. eigenvalues --    0.37981   0.38087   0.38608   0.38694   0.38941
  Beta virt. eigenvalues --    0.39177   0.39323   0.39398   0.39572   0.39906
  Beta virt. eigenvalues --    0.40007   0.40121   0.40289   0.40587   0.40965
  Beta virt. eigenvalues --    0.41109   0.41474   0.41770   0.41801   0.41958
  Beta virt. eigenvalues --    0.42316   0.42467   0.42691   0.42809   0.43161
  Beta virt. eigenvalues --    0.43282   0.43506   0.43615   0.43873   0.43941
  Beta virt. eigenvalues --    0.44292   0.44426   0.44656   0.44797   0.44997
  Beta virt. eigenvalues --    0.45171   0.45306   0.45498   0.45905   0.45999
  Beta virt. eigenvalues --    0.46193   0.46449   0.46693   0.46782   0.47263
  Beta virt. eigenvalues --    0.47289   0.47722   0.47891   0.47972   0.48207
  Beta virt. eigenvalues --    0.48390   0.48472   0.49033   0.49192   0.49427
  Beta virt. eigenvalues --    0.49606   0.49897   0.50192   0.50440   0.50583
  Beta virt. eigenvalues --    0.50799   0.51095   0.51333   0.51809   0.52168
  Beta virt. eigenvalues --    0.52409   0.52546   0.52821   0.52938   0.53613
  Beta virt. eigenvalues --    0.53890   0.53944   0.54273   0.54474   0.54776
  Beta virt. eigenvalues --    0.55041   0.55221   0.55383   0.55757   0.56246
  Beta virt. eigenvalues --    0.56421   0.56878   0.57199   0.57387   0.57658
  Beta virt. eigenvalues --    0.57704   0.58155   0.58228   0.58345   0.58967
  Beta virt. eigenvalues --    0.59020   0.59134   0.59546   0.59783   0.60192
  Beta virt. eigenvalues --    0.60333   0.60781   0.60962   0.61329   0.61462
  Beta virt. eigenvalues --    0.61915   0.62333   0.62452   0.62592   0.63017
  Beta virt. eigenvalues --    0.63138   0.63403   0.63716   0.64405   0.64554
  Beta virt. eigenvalues --    0.64794   0.64927   0.65164   0.65264   0.65724
  Beta virt. eigenvalues --    0.66131   0.66297   0.66464   0.66714   0.67279
  Beta virt. eigenvalues --    0.67604   0.67861   0.68100   0.68781   0.68923
  Beta virt. eigenvalues --    0.69043   0.69531   0.69724   0.70123   0.70627
  Beta virt. eigenvalues --    0.70683   0.70945   0.71570   0.71939   0.72201
  Beta virt. eigenvalues --    0.72341   0.72384   0.73096   0.73632   0.73712
  Beta virt. eigenvalues --    0.73850   0.74182   0.74453   0.74835   0.75201
  Beta virt. eigenvalues --    0.75513   0.75629   0.75952   0.76457   0.76767
  Beta virt. eigenvalues --    0.76999   0.77619   0.77939   0.78222   0.78479
  Beta virt. eigenvalues --    0.78803   0.79002   0.79263   0.79807   0.80226
  Beta virt. eigenvalues --    0.80463   0.80946   0.81778   0.81849   0.81969
  Beta virt. eigenvalues --    0.82597   0.82698   0.82859   0.83343   0.84211
  Beta virt. eigenvalues --    0.84555   0.84635   0.84922   0.85265   0.85555
  Beta virt. eigenvalues --    0.85740   0.85932   0.86218   0.86441   0.86733
  Beta virt. eigenvalues --    0.87298   0.87640   0.87751   0.88035   0.88209
  Beta virt. eigenvalues --    0.88449   0.88942   0.89210   0.89315   0.89824
  Beta virt. eigenvalues --    0.90511   0.90823   0.91422   0.91739   0.92028
  Beta virt. eigenvalues --    0.92569   0.92705   0.93090   0.93311   0.93462
  Beta virt. eigenvalues --    0.93829   0.94202   0.94517   0.94679   0.95102
  Beta virt. eigenvalues --    0.95219   0.95776   0.96056   0.96295   0.96506
  Beta virt. eigenvalues --    0.96779   0.97182   0.97227   0.97588   0.97882
  Beta virt. eigenvalues --    0.98249   0.98421   0.98557   0.99192   0.99318
  Beta virt. eigenvalues --    0.99734   1.00333   1.00665   1.01020   1.01324
  Beta virt. eigenvalues --    1.01630   1.01998   1.02403   1.02652   1.02943
  Beta virt. eigenvalues --    1.03103   1.03616   1.03769   1.04293   1.04707
  Beta virt. eigenvalues --    1.05315   1.05916   1.06148   1.06644   1.06822
  Beta virt. eigenvalues --    1.07403   1.08264   1.08514   1.08636   1.09332
  Beta virt. eigenvalues --    1.09778   1.10212   1.11067   1.11424   1.11616
  Beta virt. eigenvalues --    1.12250   1.12557   1.12887   1.13397   1.13458
  Beta virt. eigenvalues --    1.14492   1.14890   1.15337   1.15423   1.16025
  Beta virt. eigenvalues --    1.16158   1.16888   1.17237   1.17552   1.17967
  Beta virt. eigenvalues --    1.18622   1.18859   1.19684   1.19962   1.20443
  Beta virt. eigenvalues --    1.20555   1.20936   1.21771   1.22587   1.23018
  Beta virt. eigenvalues --    1.23375   1.23780   1.24129   1.24255   1.24762
  Beta virt. eigenvalues --    1.24776   1.25464   1.25877   1.26417   1.27512
  Beta virt. eigenvalues --    1.27708   1.27786   1.28279   1.28723   1.28810
  Beta virt. eigenvalues --    1.29275   1.29453   1.30187   1.30744   1.31194
  Beta virt. eigenvalues --    1.31977   1.32708   1.32948   1.33127   1.33461
  Beta virt. eigenvalues --    1.33853   1.34430   1.34918   1.35394   1.35993
  Beta virt. eigenvalues --    1.36680   1.36724   1.37659   1.37749   1.37870
  Beta virt. eigenvalues --    1.38242   1.38852   1.39041   1.39323   1.39843
  Beta virt. eigenvalues --    1.40659   1.40967   1.41178   1.41698   1.41948
  Beta virt. eigenvalues --    1.42232   1.42320   1.42641   1.42886   1.43383
  Beta virt. eigenvalues --    1.43903   1.44285   1.44466   1.44669   1.44994
  Beta virt. eigenvalues --    1.45156   1.45395   1.45887   1.46161   1.46434
  Beta virt. eigenvalues --    1.46789   1.47026   1.47827   1.47851   1.48047
  Beta virt. eigenvalues --    1.48610   1.48700   1.48762   1.49356   1.49546
  Beta virt. eigenvalues --    1.49967   1.50647   1.50765   1.51233   1.51305
  Beta virt. eigenvalues --    1.51620   1.51878   1.52207   1.52214   1.52726
  Beta virt. eigenvalues --    1.53193   1.53499   1.53756   1.54048   1.54365
  Beta virt. eigenvalues --    1.54581   1.54751   1.55010   1.55381   1.55612
  Beta virt. eigenvalues --    1.56020   1.56090   1.56267   1.56454   1.57045
  Beta virt. eigenvalues --    1.57224   1.57385   1.57532   1.57949   1.58042
  Beta virt. eigenvalues --    1.58457   1.58740   1.59016   1.59200   1.59341
  Beta virt. eigenvalues --    1.59540   1.59967   1.60110   1.60301   1.60724
  Beta virt. eigenvalues --    1.61096   1.61260   1.61744   1.62359   1.62767
  Beta virt. eigenvalues --    1.62849   1.63137   1.63139   1.63921   1.64139
  Beta virt. eigenvalues --    1.64545   1.64805   1.65298   1.65941   1.66113
  Beta virt. eigenvalues --    1.66459   1.66604   1.67004   1.67204   1.67629
  Beta virt. eigenvalues --    1.68559   1.69057   1.69270   1.70070   1.70275
  Beta virt. eigenvalues --    1.70731   1.71123   1.71189   1.71590   1.73233
  Beta virt. eigenvalues --    1.73494   1.73780   1.73954   1.74262   1.74716
  Beta virt. eigenvalues --    1.75041   1.75609   1.76057   1.76186   1.76737
  Beta virt. eigenvalues --    1.76987   1.77231   1.77730   1.78121   1.78672
  Beta virt. eigenvalues --    1.79212   1.79347   1.79830   1.80228   1.80411
  Beta virt. eigenvalues --    1.81060   1.81453   1.81751   1.82113   1.82377
  Beta virt. eigenvalues --    1.82920   1.83691   1.84262   1.84386   1.84578
  Beta virt. eigenvalues --    1.84975   1.85314   1.86075   1.86632   1.87371
  Beta virt. eigenvalues --    1.87635   1.87930   1.88230   1.88925   1.89056
  Beta virt. eigenvalues --    1.89651   1.90002   1.90336   1.90747   1.90961
  Beta virt. eigenvalues --    1.91339   1.91535   1.91698   1.92535   1.92767
  Beta virt. eigenvalues --    1.93141   1.93371   1.93808   1.94067   1.94558
  Beta virt. eigenvalues --    1.94893   1.94969   1.95228   1.95774   1.96156
  Beta virt. eigenvalues --    1.96642   1.96990   1.97275   1.97733   1.98368
  Beta virt. eigenvalues --    1.99013   1.99752   2.00481   2.00654   2.00978
  Beta virt. eigenvalues --    2.01002   2.02311   2.02942   2.03396   2.03573
  Beta virt. eigenvalues --    2.03789   2.04124   2.04424   2.04777   2.04909
  Beta virt. eigenvalues --    2.05534   2.05781   2.06035   2.06388   2.06652
  Beta virt. eigenvalues --    2.06947   2.07947   2.08051   2.08150   2.08489
  Beta virt. eigenvalues --    2.08963   2.09117   2.09555   2.10063   2.10287
  Beta virt. eigenvalues --    2.10764   2.11531   2.11733   2.12587   2.12968
  Beta virt. eigenvalues --    2.13639   2.13957   2.14344   2.14685   2.15328
  Beta virt. eigenvalues --    2.15513   2.16151   2.16655   2.16826   2.17148
  Beta virt. eigenvalues --    2.17834   2.18123   2.18339   2.18852   2.19386
  Beta virt. eigenvalues --    2.19729   2.19978   2.20223   2.21013   2.21191
  Beta virt. eigenvalues --    2.21455   2.21584   2.21933   2.22449   2.23937
  Beta virt. eigenvalues --    2.24090   2.24495   2.24817   2.25080   2.26507
  Beta virt. eigenvalues --    2.27256   2.27813   2.27894   2.28240   2.28906
  Beta virt. eigenvalues --    2.29361   2.29493   2.30400   2.30447   2.30840
  Beta virt. eigenvalues --    2.31193   2.31458   2.32493   2.32717   2.32946
  Beta virt. eigenvalues --    2.33415   2.33781   2.34032   2.34544   2.34701
  Beta virt. eigenvalues --    2.35779   2.35906   2.36070   2.36997   2.37482
  Beta virt. eigenvalues --    2.37779   2.37914   2.38451   2.38948   2.39569
  Beta virt. eigenvalues --    2.39914   2.39986   2.40486   2.41522   2.42165
  Beta virt. eigenvalues --    2.42380   2.42968   2.43481   2.44014   2.44847
  Beta virt. eigenvalues --    2.45108   2.45447   2.45490   2.46056   2.46345
  Beta virt. eigenvalues --    2.46506   2.47030   2.47115   2.47758   2.48114
  Beta virt. eigenvalues --    2.48361   2.48716   2.49274   2.49859   2.49996
  Beta virt. eigenvalues --    2.50243   2.50630   2.50884   2.51496   2.51671
  Beta virt. eigenvalues --    2.51824   2.52142   2.52538   2.53074   2.53596
  Beta virt. eigenvalues --    2.54184   2.54343   2.54678   2.55392   2.55907
  Beta virt. eigenvalues --    2.56191   2.57069   2.57703   2.58080   2.58376
  Beta virt. eigenvalues --    2.58441   2.59130   2.59233   2.59674   2.60139
  Beta virt. eigenvalues --    2.60697   2.61047   2.61198   2.61836   2.62165
  Beta virt. eigenvalues --    2.62432   2.62666   2.63021   2.63397   2.63862
  Beta virt. eigenvalues --    2.64337   2.64694   2.65133   2.65598   2.65903
  Beta virt. eigenvalues --    2.66310   2.66457   2.66895   2.67118   2.67750
  Beta virt. eigenvalues --    2.68110   2.68378   2.68706   2.69486   2.69713
  Beta virt. eigenvalues --    2.70049   2.70372   2.70622   2.70850   2.71337
  Beta virt. eigenvalues --    2.71573   2.72065   2.72270   2.72475   2.72804
  Beta virt. eigenvalues --    2.73169   2.73267   2.73857   2.74182   2.74458
  Beta virt. eigenvalues --    2.74650   2.75522   2.75670   2.75769   2.76191
  Beta virt. eigenvalues --    2.76854   2.77038   2.77353   2.77623   2.78188
  Beta virt. eigenvalues --    2.78646   2.78691   2.79146   2.80097   2.80260
  Beta virt. eigenvalues --    2.80660   2.80751   2.81282   2.81608   2.82086
  Beta virt. eigenvalues --    2.82224   2.82488   2.82844   2.83203   2.83469
  Beta virt. eigenvalues --    2.83926   2.84786   2.84944   2.85427   2.86081
  Beta virt. eigenvalues --    2.86121   2.86391   2.86851   2.86932   2.87347
  Beta virt. eigenvalues --    2.87646   2.87800   2.88642   2.88773   2.88875
  Beta virt. eigenvalues --    2.89471   2.89620   2.89807   2.90387   2.90703
  Beta virt. eigenvalues --    2.90998   2.91234   2.91397   2.91548   2.92104
  Beta virt. eigenvalues --    2.92856   2.92974   2.93102   2.93455   2.93758
  Beta virt. eigenvalues --    2.94238   2.94292   2.94457   2.94784   2.95093
  Beta virt. eigenvalues --    2.95104   2.95837   2.95976   2.96227   2.96440
  Beta virt. eigenvalues --    2.97276   2.97492   2.97914   2.98188   2.98285
  Beta virt. eigenvalues --    2.98479   2.98802   2.98972   2.99494   3.00092
  Beta virt. eigenvalues --    3.00433   3.00747   3.01243   3.01568   3.01767
  Beta virt. eigenvalues --    3.02001   3.02159   3.02228   3.02779   3.03181
  Beta virt. eigenvalues --    3.03736   3.03842   3.04071   3.04409   3.04708
  Beta virt. eigenvalues --    3.05010   3.05412   3.05756   3.05872   3.06618
  Beta virt. eigenvalues --    3.06791   3.07041   3.07376   3.07836   3.08066
  Beta virt. eigenvalues --    3.08424   3.08844   3.09374   3.09690   3.10118
  Beta virt. eigenvalues --    3.10586   3.11366   3.11427   3.11514   3.12085
  Beta virt. eigenvalues --    3.12337   3.12407   3.12730   3.13011   3.13379
  Beta virt. eigenvalues --    3.13795   3.14145   3.14462   3.15281   3.15383
  Beta virt. eigenvalues --    3.15524   3.15919   3.16072   3.16483   3.17145
  Beta virt. eigenvalues --    3.17314   3.17575   3.17823   3.18119   3.18404
  Beta virt. eigenvalues --    3.18718   3.18750   3.19304   3.19769   3.20068
  Beta virt. eigenvalues --    3.20394   3.20885   3.21059   3.21141   3.21511
  Beta virt. eigenvalues --    3.22027   3.22260   3.22720   3.22890   3.23180
  Beta virt. eigenvalues --    3.23628   3.24103   3.24218   3.24409   3.24728
  Beta virt. eigenvalues --    3.24966   3.25109   3.25375   3.25835   3.25986
  Beta virt. eigenvalues --    3.26497   3.26582   3.26910   3.27273   3.27406
  Beta virt. eigenvalues --    3.27690   3.27868   3.28302   3.28417   3.28762
  Beta virt. eigenvalues --    3.28882   3.29095   3.29290   3.29896   3.29981
  Beta virt. eigenvalues --    3.30210   3.30530   3.30810   3.31600   3.31725
  Beta virt. eigenvalues --    3.31988   3.32121   3.32402   3.33118   3.33458
  Beta virt. eigenvalues --    3.33576   3.33844   3.34041   3.34350   3.34672
[...]
  1414. RY*(   2) H  58                  0.00007     1.40798   
  1415. RY*(   3) H  58                  0.00006     2.27598   
  1416. RY*(   4) H  58                  0.00004     2.35540   
  1417. RY*(   5) H  58                  0.00000     3.18112   
  1418. RY*(   1) H  59                  0.00032     1.26297   
  1419. RY*(   2) H  59                  0.00010     1.48124   
  1420. RY*(   3) H  59                  0.00004     2.23046   
  1421. RY*(   4) H  59                  0.00002     1.96596   
  1422. RY*(   5) H  59                  0.00000     3.13725   
  1423. RY*(   1) H  60                  0.00031     1.25533   
  1424. RY*(   2) H  60                  0.00010     1.51197   
  1425. RY*(   3) H  60                  0.00003     2.22326   
  1426. RY*(   4) H  60                  0.00004     2.00029   
  1427. RY*(   5) H  60                  0.00000     3.10128   
  1428. RY*(   1) H  61                  0.00020     1.60664   
  1429. RY*(   2) H  61                  0.00008     1.75572   
  1430. RY*(   3) H  61                  0.00004     2.13153   
  1431. RY*(   4) H  61                  0.00001     2.10491   
  1432. RY*(   5) H  61                  0.00000     2.72899   
  1433. RY*(   1) H  62                  0.00041     1.11741   
  1434. RY*(   2) H  62                  0.00014     1.68666   
  1435. RY*(   3) H  62                  0.00005     2.48699   
  1436. RY*(   4) H  62                  0.00003     2.08406   
  1437. RY*(   5) H  62                  0.00001     2.99158   
  1438. RY*(   1) H  63                  0.00031     1.35101   
  1439. RY*(   2) H  63                  0.00007     1.50210   
  1440. RY*(   3) H  63                  0.00004     1.81752   
  1441. RY*(   4) H  63                  0.00003     2.20195   
  1442. RY*(   5) H  63                  0.00001     3.15797   
  1443. RY*(   1) H  64                  0.00021     1.61806   
  1444. RY*(   2) H  64                  0.00006     1.55994   
  1445. RY*(   3) H  64                  0.00004     2.14659   
  1446. RY*(   4) H  64                  0.00002     1.76332   
  1447. RY*(   5) H  64                  0.00000     2.90258   
  1448. RY*(   1) H  65                  0.00032     1.41410   
  1449. RY*(   2) H  65                  0.00008     1.59354   
  1450. RY*(   3) H  65                  0.00004     1.69380   
  1451. RY*(   4) H  65                  0.00003     2.15740   
  1452. RY*(   5) H  65                  0.00000     3.12917   
  1453. RY*(   1) H  66                  0.00028     1.37407   
  1454. RY*(   2) H  66                  0.00010     1.41605   
  1455. RY*(   3) H  66                  0.00004     2.22796   
  1456. RY*(   4) H  66                  0.00002     1.97953   
  1457. RY*(   5) H  66                  0.00000     3.09541   
  1458. RY*(   1) H  67                  0.00030     1.28522   
  1459. RY*(   2) H  67                  0.00010     1.58143   
  1460. RY*(   3) H  67                  0.00004     1.84287   
  1461. RY*(   4) H  67                  0.00003     2.20659   
  1462. RY*(   5) H  67                  0.00000     3.15488   
  1463. RY*(   1) H  68                  0.00021     1.58629   
  1464. RY*(   2) H  68                  0.00008     1.73478   
  1465. RY*(   3) H  68                  0.00004     2.12216   
  1466. RY*(   4) H  68                  0.00001     3.09023   
  1467. RY*(   5) H  68                  0.00001     1.76080   
  1468. RY*(   1) H  69                  0.00026     1.21979   
  1469. RY*(   2) H  69                  0.00015     1.84913   
  1470. RY*(   3) H  69                  0.00006     1.78909   
  1471. RY*(   4) H  69                  0.00003     2.03988   
  1472. RY*(   5) H  69                  0.00000     2.83257   
  1473. RY*(   1) H  70                  0.00017     1.94934   
  1474. RY*(   2) H  70                  0.00006     1.98684   
  1475. RY*(   3) H  70                  0.00004     2.14046   
  1476. RY*(   4) H  70                  0.00002     0.61498   
  1477. RY*(   5) H  70                  0.00000     3.02178   
  1478. RY*(   1) H  71                  0.00035     1.14009   
  1479. RY*(   2) H  71                  0.00006     1.79547   
  1480. RY*(   3) H  71                  0.00005     2.12555   
  1481. RY*(   4) H  71                  0.00003     2.00741   
  1482. RY*(   5) H  71                  0.00000     3.03071   
  1483. RY*(   1) H  72                  0.00017     1.91527   
  1484. RY*(   2) H  72                  0.00006     1.98647   
  1485. RY*(   3) H  72                  0.00005     2.06860   
  1486. RY*(   4) H  72                  0.00003     0.67695   
  1487. RY*(   5) H  72                  0.00000     3.08211   
  1488. RY*(   1) H  73                  0.00036     1.15664   
  1489. RY*(   2) H  73                  0.00010     1.57207   
  1490. RY*(   3) H  73                  0.00003     2.19549   
  1491. RY*(   4) H  73                  0.00002     2.03865   
  1492. RY*(   5) H  73                  0.00000     3.03783   
  1493. RY*(   1) H  74                  0.00025     1.49386   
  1494. RY*(   2) H  74                  0.00008     1.72853   
  1495. RY*(   3) H  74                  0.00004     2.11310   
  1496. RY*(   4) H  74                  0.00001     2.15471   
  1497. RY*(   5) H  74                  0.00000     2.68143   
  1498. RY*(   1) H  75                  0.00035     1.28985   
  1499. RY*(   2) H  75                  0.00009     1.49643   
  1500. RY*(   3) H  75                  0.00003     2.19145   
  1501. RY*(   4) H  75                  0.00001     2.03944   
  1502. RY*(   5) H  75                  0.00000     2.96449   
  1503. RY*(   1) H  76                  0.00062     0.51175   
  1504. RY*(   2) H  76                  0.00012     2.18809   
  1505. RY*(   3) H  76                  0.00007     2.66755   
  1506. RY*(   4) H  76                  0.00005     2.51782   
  1507. RY*(   5) H  76                  0.00000     3.14483   
  1508. RY*(   1) H  77                  0.00082     0.47123   
  1509. RY*(   2) H  77                  0.00013     2.22852   
  1510. RY*(   3) H  77                  0.00008     2.68324   
  1511. RY*(   4) H  77                  0.00005     2.57422   
  1512. RY*(   5) H  77                  0.00001     3.20532   
  1513. RY*(   1) H  78                  0.00027     1.63401   
  1514. RY*(   2) H  78                  0.00008     1.64639   
  1515. RY*(   3) H  78                  0.00004     2.25447   
  1516. RY*(   4) H  78                  0.00002     2.08441   
  1517. RY*(   5) H  78                  0.00001     3.23436   
  1518. RY*(   1) H  79                  0.00028     1.47000   
  1519. RY*(   2) H  79                  0.00007     1.23553   
  1520. RY*(   3) H  79                  0.00006     2.45543   
  1521. RY*(   4) H  79                  0.00003     2.39953   
  1522. RY*(   5) H  79                  0.00001     3.18157   
  1523. RY*(   1) H  80                  0.00053     0.94740   
  1524. RY*(   2) H  80                  0.00033     1.75682   
  1525. RY*(   3) H  80                  0.00022     1.80733   
  1526. RY*(   4) H  80                  0.00012     2.10531   
  1527. RY*(   5) H  80                  0.00000     3.20046   
  1528. RY*(   1) H  81                  0.00047     1.49800   
  1529. RY*(   2) H  81                  0.00035     1.17668   
  1530. RY*(   3) H  81                  0.00022     1.94525   
  1531. RY*(   4) H  81                  0.00012     2.12959   
  1532. RY*(   5) H  81                  0.00000     3.21131   
  1533. RY*(   1) H  82                  0.00031     1.14420   
  1534. RY*(   2) H  82                  0.00013     1.97807   
  1535. RY*(   3) H  82                  0.00006     1.66480   
  1536. RY*(   4) H  82                  0.00003     2.12361   
  1537. RY*(   5) H  82                  0.00000     2.85666   
  1538. RY*(   1) H  83                  0.00035     1.14115   
  1539. RY*(   2) H  83                  0.00015     1.60000   
  1540. RY*(   3) H  83                  0.00006     2.54265   
  1541. RY*(   4) H  83                  0.00001     2.55596   
  1542. RY*(   5) H  83                  0.00001     2.55526   
  1543. RY*(   1) H  84                  0.00028     1.29890   
  1544. RY*(   2) H  84                  0.00007     1.89423   
  1545. RY*(   3) H  84                  0.00005     1.42230   
  1546. RY*(   4) H  84                  0.00003     2.03427   
  1547. RY*(   5) H  84                  0.00001     2.86091   
  1548. RY*(   1) H  85                  0.00050     0.68420   
  1549. RY*(   2) H  85                  0.00027     1.73376   
  1550. RY*(   3) H  85                  0.00015     1.87025   
  1551. RY*(   4) H  85                  0.00007     1.65261   
  1552. RY*(   5) H  85                  0.00003     2.63297   
  1553. BD*(   1) C   1 - S   2          0.00849     0.02003   
  1554. BD*(   1) C   1 - H   3          0.00387     0.28859   
  1555. BD*(   1) C   1 - H   4          0.00331     0.27330   
  1556. BD*(   1) C   1 - H  84          0.00624     0.27407   
  1557. BD*(   1) S   2 -Fe   5          0.02553     0.15055   
  1558. BD*(   1) S   2 - H  85          0.01382     0.09061   
  1559. BD*(   1)Fe   5 - N  21          0.03285     0.08190   
  1560. BD*(   1)Fe   5 - N  29          0.06049     0.08763   
  1561. BD*(   2)Fe   5 - N  29          0.04751    -0.10781   
  1562. BD*(   1)Fe   5 - N  37          0.03139     0.06305   
  1563. BD*(   1) C   6 - C  11          0.01140     0.49988   
  1564. BD*(   1) C   6 - C  41          0.01099     0.50390   
  1565. BD*(   1) C   6 - H  48          0.00619     0.48985   
  1566. BD*(   1) C   7 - C  14          0.01074     0.47192   
  1567. BD*(   1) C   7 - C  22          0.01005     0.44738   
  1568. BD*(   1) C   7 - H  49          0.00529     0.49852   
  1569. BD*(   1) C   8 - C  25          0.01045     0.47396   
  1570. BD*(   1) C   8 - C  30          0.01050     0.46292   
  1571. BD*(   2) C   8 - C  30          0.18839    -0.08070  1621(v),1561(v),174(v)
                                                    323(g),1574(r),898(g)
  1572. BD*(   1) C   8 - H  50          0.00664     0.49148   
  1573. BD*(   1) C   9 - C  33          0.01062     0.47015   
  1574. BD*(   2) C   9 - C  33          0.18074    -0.07529  1635(v),1621(v),1561(v)
                                                    349(g),1571(r)
  1575. BD*(   1) C   9 - C  38          0.01068     0.49671   
  1576. BD*(   1) C   9 - H  51          0.00652     0.49086   
  1577. BD*(   1) N  10 - C  11          0.01212     0.35597   
  1578. BD*(   2) N  10 - C  11          0.30074    -0.10333  166(v),1582(v),169(v),403(g)
                                                    1561(r),164(r),375(g),272(v)
  1579. BD*(   1) N  10 - C  14          0.01179     0.37252   
  1580. BD*(   1) C  11 - C  12          0.01778     0.38527   
  1581. BD*(   1) C  12 - C  13          0.00853     0.52547   
  1582. BD*(   2) C  12 - C  13          0.10436    -0.02805  1578(v),169(v),1589(v)
  1583. BD*(   1) C  12 - C  16          0.01301     0.25859   
  1584. BD*(   1) C  13 - C  14          0.01792     0.39193   
  1585. BD*(   1) C  13 - C  15          0.01015     0.27958   
  1586. BD*(   1) C  15 - H  52          0.00383     0.45982   
  1587. BD*(   1) C  15 - H  53          0.00273     0.46825   
  1588. BD*(   1) C  15 - H  54          0.00370     0.45921   
  1589. BD*(   1) C  16 - C  17          0.00734     0.28310   
  1590. BD*(   1) C  16 - H  55          0.00477     0.49860   
  1591. BD*(   1) C  16 - H  56          0.00491     0.48745   
  1592. BD*(   1) C  17 - C  18          0.03973     0.26388   
  1593. BD*(   1) C  17 - H  57          0.00531     0.46406   
  1594. BD*(   1) C  17 - H  58          0.00524     0.46493   
  1595. BD*(   1) C  18 - O  19          0.03472     0.41248   
  1596. BD*(   1) C  18 - O  20          0.02042     0.45246   
  1597. BD*(   2) C  18 - O  20          0.09569    -0.08270   
  1598. BD*(   1) O  19 - H  80          0.00715     0.30312   
  1599. BD*(   1) N  21 - C  22          0.01346     0.36150   
  1600. BD*(   2) N  21 - C  22          0.33572    -0.11548  167(v),1604(v),174(v),162(v)
                                                    689(g),164(v),662(g),1561(v)
                                                    298(v)
  1601. BD*(   1) N  21 - C  25          0.01385     0.34572   
  1602. BD*(   1) C  22 - C  23          0.01369     0.39902   
  1603. BD*(   1) C  23 - C  24          0.01061     0.52860   
  1604. BD*(   2) C  23 - C  24          0.11611    -0.03066  1600(v),174(v),1612(v)
                                                    1608(v),1609(v),1613(v)
  1605. BD*(   1) C  23 - C  26          0.00934     0.27385   
  1606. BD*(   1) C  24 - C  25          0.01588     0.41219   
  1607. BD*(   1) C  24 - C  27          0.01257     0.31129   
  1608. BD*(   1) C  26 - H  59          0.00376     0.47962   
  1609. BD*(   1) C  26 - H  60          0.00363     0.48046   
  1610. BD*(   1) C  26 - H  61          0.00304     0.48556   
  1611. BD*(   1) C  27 - C  28          0.00391     0.32252   
  1612. BD*(   1) C  27 - H  62          0.00838     0.31144   
  1613. BD*(   1) C  27 - H  83          0.00738     0.30745   
  1614. BD*(   1) C  28 - H  63          0.00433     0.48276   
  1615. BD*(   1) C  28 - H  64          0.00348     0.49347   
  1616. BD*(   1) C  28 - H  65          0.00436     0.48102   
  1617. BD*(   1) N  29 - C  30          0.01721     0.32713   
  1618. BD*(   1) N  29 - C  33          0.01657     0.33312   
  1619. BD*(   1) C  30 - C  31          0.01522     0.37637   
  1620. BD*(   1) C  31 - C  32          0.00999     0.49775   
  1621. BD*(   2) C  31 - C  32          0.12231    -0.04644  1574(v),1571(v),1630(v)
                                                    1626(v),1625(v)
  1622. BD*(   1) C  31 - C  34          0.00892     0.26977   
  1623. BD*(   1) C  32 - C  33          0.01430     0.36894   
  1624. BD*(   1) C  32 - C  35          0.01139     0.26869   
  1625. BD*(   1) C  34 - H  66          0.00372     0.46713   
  1626. BD*(   1) C  34 - H  67          0.00363     0.46719   
  1627. BD*(   1) C  34 - H  68          0.00328     0.47417   
  1628. BD*(   1) C  35 - C  36          0.00329     0.27796   
  1629. BD*(   1) C  35 - H  69          0.00492     0.30429   
  1630. BD*(   1) C  35 - H  82          0.00576     0.30561   
  1631. BD*(   1) C  36 - H  70          0.00284     0.48181   
  1632. BD*(   1) C  36 - H  71          0.00375     0.48540   
  1633. BD*(   1) C  36 - H  72          0.00272     0.48092   
  1634. BD*(   1) N  37 - C  38          0.01433     0.35756   
  1635. BD*(   2) N  37 - C  38          0.33408    -0.11012  1574(v),1639(v),175(v)
                                                    1104(g),1078(g),162(v)
                                                    164(v),349(v)
  1636. BD*(   1) N  37 - C  41          0.01344     0.37371   
  1637. BD*(   1) C  38 - C  39          0.01523     0.39910   
  1638. BD*(   1) C  39 - C  40          0.01103     0.34055   
  1639. BD*(   2) C  39 - C  40          0.13925    -0.06874  1635(v),175(v),1646(v)
                                                    1643(v),1645(v)
  1640. BD*(   1) C  39 - C  42          0.00771     0.28033   
  1641. BD*(   1) C  40 - C  41          0.01440     0.37773   
  1642. BD*(   1) C  40 - C  43          0.01025     0.27694   
  1643. BD*(   1) C  42 - H  73          0.00415     0.45921   
  1644. BD*(   1) C  42 - H  74          0.00289     0.45967   
  1645. BD*(   1) C  42 - H  75          0.00415     0.45963   
  1646. BD*(   1) C  43 - C  44          0.00781     0.29063   
  1647. BD*(   1) C  43 - H  76          0.00558     0.48453   
  1648. BD*(   1) C  43 - H  77          0.00592     0.47101   
  1649. BD*(   1) C  44 - C  45          0.04111     0.27562   
  1650. BD*(   1) C  44 - H  78          0.00529     0.46781   
  1651. BD*(   1) C  44 - H  79          0.00492     0.47834   
  1652. BD*(   1) C  45 - O  46          0.02033     0.48282   
  1653. BD*(   2) C  45 - O  46          0.08133    -0.06719   
  1654. BD*(   1) C  45 - O  47          0.03573     0.42867   
  1655. BD*(   1) O  47 - H  81          0.00697     0.30208   
       -------------------------------
              Total Lewis  168.31379  ( 97.2912%)
        Valence non-Lewis    4.40792  (  2.5479%)
        Rydberg non-Lewis    0.27830  (  0.1609%)
       -------------------------------
            Total unit  1  173.00000  (100.0000%)
           Charge unit  1    3.00000
 1\1\GINC-NODE627\SP\UPBE1PBE\def2TZVP\C35H40Fe1N4O4S1(1+,6)\KLEICH\15-
 Sep-2022\0\\# PBE1PBE/def2TZVP empiricaldispersion=GD3BJ int=(grid=ult
 rafine) geom=check pop=nbo\\7abb_III_H\\1,6\C,0,19.013,33.007,0.\S,0,1
 7.62,31.94,-0.421\H,0,19.81865645,32.82697525,-0.68074134\H,0,19.33539
 499,32.7954738,0.99810728\Fe,0,17.27331395,31.37270864,-2.48664501\C,0
 ,18.753,34.761,-3.605\C,0,20.928,30.569,-2.703\C,0,16.619,28.513,-1.70
 6\C,0,14.422,32.593,-3.008\N,0,19.451,32.483,-3.087\C,0,19.714,33.814,
 -3.411\C,0,21.136,34.059,-3.537\C,0,21.722,32.878,-3.27\C,0,20.699,31.
 899,-2.995\C,0,23.225,32.546,-3.277\C,0,21.834,35.427,-3.866\C,0,22.00
 8,35.691,-5.356\C,0,22.739,37.007,-5.561\O,0,22.829,37.384,-6.752\O,0,
 23.192,37.61,-4.553\N,0,18.581,29.871,-2.336\C,0,19.945,29.644,-2.353\
 C,0,20.162,28.294,-1.927\C,0,18.973,27.739,-1.629\C,0,17.963,28.702,-1
 .902\C,0,21.586,27.712,-1.824\C,0,18.56,26.368,-1.159\C,0,19.643,25.49
 6,-0.611\N,0,15.858,30.73,-2.443\C,0,15.657,29.463,-1.945\C,0,14.248,2
 9.26,-1.738\C,0,13.604,30.396,-2.089\C,0,14.618,31.315,-2.552\C,0,13.6
 52,27.967,-1.178\C,0,12.107,30.747,-2.11\C,0,11.13,29.935,-1.26\N,0,16
 .783,33.33,-3.227\C,0,15.399,33.495,-3.284\C,0,15.133,34.842,-3.68\C,0
 ,16.438,35.53,-3.875\C,0,17.419,34.518,-3.549\C,0,13.737,35.445,-3.881
 \C,0,16.692,36.984,-4.309\C,0,16.819,37.819,-3.058\C,0,17.174,39.248,-
 3.421\O,0,17.04,40.138,-2.554\O,0,17.585,39.463,-4.579\H,0,19.045,35.6
 77,-3.797\H,0,21.854,30.25,-2.744\H,0,16.324,27.639,-1.373\H,0,13.495,
 32.881,-3.147\H,0,23.496,32.239,-2.387\H,0,23.735,33.348,-3.515\H,0,23
 .4,31.841,-3.935\H,0,22.709,35.435,-3.447\H,0,21.303,36.144,-3.486\H,0
 ,21.136,35.736,-5.78\H,0,22.522,34.971,-5.754\H,0,21.665,26.946,-2.414
 \H,0,21.757,27.436,-0.91\H,0,22.231,28.388,-2.083\H,0,18.11075906,25.8
 5713126,-1.98489086\H,0,20.317,25.351,-1.294\H,0,19.267,24.644,-0.341\
 H,0,20.049,25.929,0.157\H,0,13.04,27.586,-1.827\H,0,13.174,28.16,-0.35
 7\H,0,14.365,27.335,-0.997\H,0,12.01595685,31.76985339,-1.80936387\H,0
 ,10.686,30.522,-0.628\H,0,11.615,29.248,-0.777\H,0,10.468,29.52,-1.835
 \H,0,13.617,36.201,-3.27\H,0,13.057,34.764,-3.696\H,0,13.646,35.755,-4
 .806\H,0,15.948,37.303,-4.843\H,0,17.513,37.036,-4.824\H,0,17.515,37.4
 48,-2.494\H,0,15.976,37.809,-2.578\H,0,23.69272672,37.51045236,-7.1514
 8211\H,0,18.52811134,39.49572655,-4.75526675\H,0,11.77832945,30.677615
 29,-3.12590424\H,0,17.81714643,26.48941115,-0.39852126\H,0,18.71094992
 ,34.03124546,-0.06772734\H,0,16.81801705,31.50785892,0.52036998\\Versi
 on=ES64L-G16RevA.03\State=6-A\HF=-3537.3175709\S2=8.774929\S2-1=0.\S2A
 =8.750182\RMSD=3.137e-09\Dipole=-0.4156919,-3.5263237,0.4762377\Quadru
 pole=28.1778076,-17.0637457,-11.1140619,13.3623018,-18.9117705,-33.719
 1221\PG=C01 [X(C35H40Fe1N4O4S1)]\\@


 WE ARE REACHING THE STAGE WHERE THE PROBLEMS WE MUST SOLVE ARE 
 GOING TO BECOME INSOLUBLE WITHOUT COMPUTERS.
 I DO NOT FEAR COMPUTERS.  I FEAR THE LACK OF THEM.

                                   -- ISSAC ASIMOV
 Job cpu time:       1 days 13 hours 57 minutes 26.4 seconds.
 Elapsed time:       0 days  9 hours 30 minutes 47.5 seconds.
 File lengths (MBytes):  RWF=   2517 Int=      0 D2E=      0 Chk=    213 Scr=      1
 Normal termination of Gaussian 16 at Thu Sep 15 20:13:45 2022.
