 Initial command:
 /afs/math/software/gaussian/g16.A03/g16/l1.exe "/scratch/kleich_gaussian.RjawBKb/Gau-30625.inp" -scrdir="/scratch/kleich_gaussian.RjawBKb/"
 Entering Link 1 = /afs/math/software/gaussian/g16.A03/g16/l1.exe PID=     18143.
  
 Copyright (c) 1988,1990,1992,1993,1995,1998,2003,2009,2016,
            Gaussian, Inc.  All Rights Reserved.
  
 This is part of the Gaussian(R) 16 program.  It is based on
 the Gaussian(R) 09 system (copyright 2009, Gaussian, Inc.),
 the Gaussian(R) 03 system (copyright 2003, Gaussian, Inc.),
 the Gaussian(R) 98 system (copyright 1998, Gaussian, Inc.),
 the Gaussian(R) 94 system (copyright 1995, Gaussian, Inc.),
 the Gaussian 92(TM) system (copyright 1992, Gaussian, Inc.),
 the Gaussian 90(TM) system (copyright 1990, Gaussian, Inc.),
 the Gaussian 88(TM) system (copyright 1988, Gaussian, Inc.),
 the Gaussian 86(TM) system (copyright 1986, Carnegie Mellon
 University), and the Gaussian 82(TM) system (copyright 1983,
 Carnegie Mellon University). Gaussian is a federally registered
 trademark of Gaussian, Inc.
  
 This software contains proprietary and confidential information,
 including trade secrets, belonging to Gaussian, Inc.
  
 This software is provided under written license and may be
 used, copied, transmitted, or stored only in accord with that
 written license.
  
 The following legend is applicable only to US Government
 contracts under FAR:
  
                    RESTRICTED RIGHTS LEGEND
  
 Use, reproduction and disclosure by the US Government is
 subject to restrictions as set forth in subparagraphs (a)
 and (c) of the Commercial Computer Software - Restricted
 Rights clause in FAR 52.227-19.
  
 Gaussian, Inc.
 340 Quinnipiac St., Bldg. 40, Wallingford CT 06492
  
  
 ---------------------------------------------------------------
 Warning -- This program may not be used in any manner that
 competes with the business of Gaussian, Inc. or will provide
 assistance to any competitor of Gaussian, Inc.  The licensee
 of this program is prohibited from giving any competitor of
 Gaussian, Inc. access to this program.  By using this program,
 the user acknowledges that Gaussian, Inc. is engaged in the
 business of creating and licensing software in the field of
 computational chemistry and represents and warrants to the
 licensee that it is not a competitor of Gaussian, Inc. and that
 it will not use this program in any manner prohibited above.
 ---------------------------------------------------------------
  

 Cite this work as:
 Gaussian 16, Revision A.03,
 M. J. Frisch, G. W. Trucks, H. B. Schlegel, G. E. Scuseria, 
 M. A. Robb, J. R. Cheeseman, G. Scalmani, V. Barone, 
 G. A. Petersson, H. Nakatsuji, X. Li, M. Caricato, A. V. Marenich, 
 J. Bloino, B. G. Janesko, R. Gomperts, B. Mennucci, H. P. Hratchian, 
 J. V. Ortiz, A. F. Izmaylov, J. L. Sonnenberg, D. Williams-Young, 
 F. Ding, F. Lipparini, F. Egidi, J. Goings, B. Peng, A. Petrone, 
 T. Henderson, D. Ranasinghe, V. G. Zakrzewski, J. Gao, N. Rega, 
 G. Zheng, W. Liang, M. Hada, M. Ehara, K. Toyota, R. Fukuda, 
 J. Hasegawa, M. Ishida, T. Nakajima, Y. Honda, O. Kitao, H. Nakai, 
 T. Vreven, K. Throssell, J. A. Montgomery, Jr., J. E. Peralta, 
 F. Ogliaro, M. J. Bearpark, J. J. Heyd, E. N. Brothers, K. N. Kudin, 
 V. N. Staroverov, T. A. Keith, R. Kobayashi, J. Normand, 
 K. Raghavachari, A. P. Rendell, J. C. Burant, S. S. Iyengar, 
 J. Tomasi, M. Cossi, J. M. Millam, M. Klene, C. Adamo, R. Cammi, 
 J. W. Ochterski, R. L. Martin, K. Morokuma, O. Farkas, 
 J. B. Foresman, and D. J. Fox, Gaussian, Inc., Wallingford CT, 2016.
 
 ******************************************
 Gaussian 16:  ES64L-G16RevA.03 25-Dec-2016
                12-Sep-2022 
 ******************************************
 %nprocs=12
 Will use up to   12 processors via shared memory.
 %mem=16GB
 %chk=7abb_II_Q.chk
 ----------------------------------------------------------------------
 # PBE1PBE/def2TZVP empiricaldispersion=GD3BJ int=(grid=ultrafine) geom
 =check guess=read scrf=(smd,solvent=Chloroform)
 ----------------------------------------------------------------------
 1/29=2,38=1,172=1/1;
 2/12=2,40=1/2;
 3/5=44,7=101,11=2,14=-4,25=1,30=1,70=32201,72=7,74=-13,75=-5,116=-2,124=41/1,2,3;
 4/5=1/1;
 5/5=2,38=6,53=7/2;
 6/7=2,8=2,9=2,10=2,28=1/1;
 99/5=1,9=1/99;
 --------------
 7abb_II_Q_solv
 --------------
 Structure from the checkpoint file:  "7abb_II_Q.chk"
 Charge =  0 Multiplicity = 5
 Z-Matrix found in chk file.
 C,0,19.013,33.007,0.
 S,0,17.62,31.94,-0.421
 H,0,19.81865645,32.82697525,-0.68074134
 H,0,19.33539499,32.7954738,0.99810728
 Fe,0,17.27331395,31.37270864,-2.48664501
 C,0,18.753,34.761,-3.605
 C,0,20.928,30.569,-2.703
 C,0,16.619,28.513,-1.706
 C,0,14.422,32.593,-3.008
 N,0,19.451,32.483,-3.087
 C,0,19.714,33.814,-3.411
 C,0,21.136,34.059,-3.537
 C,0,21.722,32.878,-3.27
 C,0,20.699,31.899,-2.995
 C,0,23.225,32.546,-3.277
 C,0,21.834,35.427,-3.866
 C,0,22.008,35.691,-5.356
 C,0,22.739,37.007,-5.561
 O,0,22.829,37.384,-6.752
 O,0,23.192,37.61,-4.553
 N,0,18.581,29.871,-2.336
 C,0,19.945,29.644,-2.353
 C,0,20.162,28.294,-1.927
 C,0,18.973,27.739,-1.629
 C,0,17.963,28.702,-1.902
 C,0,21.586,27.712,-1.824
 C,0,18.56,26.368,-1.159
 C,0,19.643,25.496,-0.611
 N,0,15.858,30.73,-2.443
 C,0,15.657,29.463,-1.945
 C,0,14.248,29.26,-1.738
 C,0,13.604,30.396,-2.089
 C,0,14.618,31.315,-2.552
 C,0,13.652,27.967,-1.178
 C,0,12.107,30.747,-2.11
 C,0,11.13,29.935,-1.26
 N,0,16.783,33.33,-3.227
 C,0,15.399,33.495,-3.284
 C,0,15.133,34.842,-3.68
 C,0,16.438,35.53,-3.875
 C,0,17.419,34.518,-3.549
 C,0,13.737,35.445,-3.881
 C,0,16.692,36.984,-4.309
 C,0,16.819,37.819,-3.058
 C,0,17.174,39.248,-3.421
 O,0,17.04,40.138,-2.554
 O,0,17.585,39.463,-4.579
 H,0,19.045,35.677,-3.797
 H,0,21.854,30.25,-2.744
 H,0,16.324,27.639,-1.373
 H,0,13.495,32.881,-3.147
 H,0,23.496,32.239,-2.387
 H,0,23.735,33.348,-3.515
 H,0,23.4,31.841,-3.935
 H,0,22.709,35.435,-3.447
 H,0,21.303,36.144,-3.486
 H,0,21.136,35.736,-5.78
 H,0,22.522,34.971,-5.754
 H,0,21.665,26.946,-2.414
 H,0,21.757,27.436,-0.91
 H,0,22.231,28.388,-2.083
 H,0,18.11075906,25.85713126,-1.98489086
 H,0,20.317,25.351,-1.294
 H,0,19.267,24.644,-0.341
 H,0,20.049,25.929,0.157
 H,0,13.04,27.586,-1.827
 H,0,13.174,28.16,-0.357
 H,0,14.365,27.335,-0.997
 H,0,12.01595685,31.76985339,-1.80936387
 H,0,10.686,30.522,-0.628
 H,0,11.615,29.248,-0.777
 H,0,10.468,29.52,-1.835
 H,0,13.617,36.201,-3.27
 H,0,13.057,34.764,-3.696
 H,0,13.646,35.755,-4.806
 H,0,15.948,37.303,-4.843
 H,0,17.513,37.036,-4.824
 H,0,17.515,37.448,-2.494
 H,0,15.976,37.809,-2.578
 H,0,23.69272672,37.51045236,-7.15148211
 H,0,18.52811134,39.49572655,-4.75526675
 H,0,11.77832945,30.67761529,-3.12590424
 H,0,17.81714643,26.48941115,-0.39852126
 H,0,18.71094992,34.03124546,-0.06772734
 H,0,16.81801705,31.50785892,0.52036998
 Recover connectivity data from disk.
 Stoichiometry    C35H40FeN4O4S(5)
 Framework group  C1[X(C35H40FeN4O4S)]
 Deg. of freedom   249
 Full point group                 C1      NOp   1
 Largest Abelian subgroup         C1      NOp   1
 Largest concise Abelian subgroup C1      NOp   1
                         Standard orientation:                         
 ---------------------------------------------------------------------
 Center     Atomic      Atomic             Coordinates (Angstroms)
 Number     Number       Type             X           Y           Z
 ---------------------------------------------------------------------
      1          6           0       -0.046732   -0.771680    2.872277
      2         16           0       -1.374019    0.097309    2.012425
      3          1           0        0.289432   -1.591873    2.272962
      4          1           0       -0.409708   -1.139714    3.809134
      5         26           0       -1.393013    0.175637   -0.156078
      6          6           0        2.469015    0.105011   -0.134809
      7          6           0       -0.702768   -3.508412   -0.127255
      8          6           0       -4.387103   -0.315051   -0.256680
      9          6           0       -1.204393    3.271073   -0.679160
     10          7           0        0.560297   -1.411816   -0.163794
     11          6           0        1.927066   -1.144679   -0.084506
     12          6           0        2.700368   -2.363466    0.036107
     13          6           0        1.793213   -3.356639    0.047244
     14          6           0        0.473821   -2.787405   -0.078344
     15          6           0        2.051625   -4.871381    0.137036
     16          6           0        4.260308   -2.483431    0.174182
     17          6           0        4.996020   -2.558529   -1.157418
     18          6           0        6.485577   -2.727630   -0.910710
     19          8           0        7.202252   -2.678361   -1.936702
     20          8           0        6.886589   -2.901902    0.269841
     21          7           0       -2.285205   -1.608310   -0.252991
     22          6           0       -1.981957   -2.954429   -0.161782
     23          6           0       -3.220073   -3.670605   -0.089486
     24          6           0       -4.232574   -2.784444   -0.100024
     25          6           0       -3.671135   -1.484246   -0.227574
     26          6           0       -3.243681   -5.207673    0.028720
     27          6           0       -5.732514   -2.927017   -0.069017
     28          6           0       -6.267946   -4.256441    0.354683
     29          7           0       -2.490748    1.233963   -0.461067
     30          6           0       -3.829611    0.936224   -0.349303
     31          6           0       -4.584944    2.160107   -0.379665
     32          6           0       -3.713975    3.188509   -0.490274
     33          6           0       -2.395456    2.602370   -0.561507
     34          6           0       -6.109437    2.217437   -0.264343
     35          6           0       -3.945168    4.704736   -0.600992
     36          6           0       -5.269714    5.302264   -0.126744
     37          7           0        0.373989    1.374724   -0.399832
     38          6           0        0.030492    2.714569   -0.580823
     39          6           0        1.239206    3.475123   -0.631299
     40          6           0        2.381195    2.534373   -0.472415
     41          6           0        1.750275    1.242614   -0.310919
     42          6           0        1.320466    4.993381   -0.834072
     43          6           0        3.885682    2.856041   -0.466407
     44          6           0        4.300751    3.074676    0.968261
     45          6           0        5.799170    3.294304    1.047876
     46          8           0        6.280523    3.770718    2.098150
     47          8           0        6.480444    2.985312    0.049627
     48          1           0        3.441085    0.186790   -0.036949
     49          1           0       -0.633804   -4.486192   -0.137642
     50          1           0       -5.364731   -0.376313   -0.208931
     51          1           0       -1.248058    4.235840   -0.849197
     52          1           0        1.617417   -5.230010    0.938683
     53          1           0        3.016294   -5.035195    0.187300
     54          1           0        1.687021   -5.311970   -0.658928
     55          1           0        4.463806   -3.282984    0.684627
     56          1           0        4.587267   -1.712837    0.663807
     57          1           0        4.841886   -1.741358   -1.658077
     58          1           0        4.665500   -3.314794   -1.667143
     59          1           0       -3.717274   -5.582474   -0.730444
     60          1           0       -3.694149   -5.461825    0.849268
     61          1           0       -2.334717   -5.544860    0.041827
     62          1           0       -6.104464   -2.718677   -1.050417
     63          1           0       -5.948325   -4.941688   -0.253650
     64          1           0       -7.237200   -4.235182    0.338135
     65          1           0       -5.963499   -4.455558    1.254580
     66          1           0       -6.478346    2.627966   -1.062013
     67          1           0       -6.355683    2.741891    0.512886
     68          1           0       -6.460104    1.317888   -0.172694
     69          1           0       -3.163941    5.186527   -0.051028
     70          1           0       -5.099976    5.945229    0.579595
     71          1           0       -5.841275    4.595172    0.210628
     72          1           0       -5.708724    5.746624   -0.868977
     73          1           0        1.764054    5.402382   -0.062576
     74          1           0        0.416096    5.360116   -0.923545
     75          1           0        1.833441    5.186720   -1.646157
     76          1           0        4.052672    3.659589   -0.983009
     77          1           0        4.383479    2.113003   -0.843319
     78          1           0        4.061463    2.295686    1.493684
     79          1           0        3.842306    3.853824    1.320263
     80          1           0        7.747368   -3.430832   -2.178023
     81          1           0        6.906062    2.125910    0.006291
     82          1           0       -3.827262    4.970022   -1.630857
     83          1           0       -6.120962   -2.186493    0.598541
     84          1           0        0.767117   -0.098735    3.044599
     85          1           0       -2.326119    0.680880    2.697296
 ---------------------------------------------------------------------
 Rotational constants (GHZ):           0.0850304           0.0492264           0.0333862
 Standard basis: def2TZVP (5D, 7F)
 There are  1882 symmetry adapted cartesian basis functions of A   symmetry.
 There are  1655 symmetry adapted basis functions of A   symmetry.
  1655 basis functions,  2684 primitive gaussians,  1882 cartesian basis functions
   178 alpha electrons      174 beta electrons
       nuclear repulsion energy      6677.6833482244 Hartrees.
 NAtoms=   85 NActive=   85 NUniq=   85 SFac= 1.00D+00 NAtFMM=   60 NAOKFM=T Big=T
 Integral buffers will be    131072 words long.
 Raffenetti 2 integral format.
 Two-electron integral symmetry is turned on.
 Nuclear repulsion after empirical dispersion term =     6677.5623959797 Hartrees.
 ------------------------------------------------------------------------------
 Polarizable Continuum Model (PCM)
 =================================
 Model                : PCM.
 Atomic radii         : SMD-Coulomb.
 Polarization charges : Total charges.
 Charge compensation  : None.
 Solution method      : On-the-fly selection.
 Cavity type          : VdW (van der Waals Surface) (Alpha=1.000).
 Cavity algorithm     : GePol (No added spheres)
                        Default sphere list used, NSphG=   85.
                        Lebedev-Laikov grids with approx.  5.0 points / Ang**2.
                        Smoothing algorithm: York/Karplus (Gamma=1.0000).
                        Polarization charges: spherical gaussians, with
                                              point-specific exponents (IZeta= 3).
                        Self-potential: point-specific (ISelfS= 7).
                        Self-field    : sphere-specific E.n sum rule (ISelfD= 2).
 Solvent              : Chloroform, Eps=   4.711300 Eps(inf)=   2.090627
 ------------------------------------------------------------------------------
 ------------------------------------------------------------------------------
 Atomic radii for non-electrostatic terms: SMD-CDS.
 ------------------------------------------------------------------------------
 Nuclear repulsion after PCM non-electrostatic terms =     6677.5456848045 Hartrees.
 One-electron integrals computed using PRISM.
   1 Symmetry operations used in ECPInt.
 ECPInt:  NShTT=  218791 NPrTT=  678027 LenC2=  156768 LenP2D=  317269.
 LDataN:  DoStor=T MaxTD1= 6 Len=  172
 NBasis=  1655 RedAO= T EigKep=  3.02D-06  NBF=  1655
 NBsUse=  1655 1.00D-06 EigRej= -1.00D+00 NBFU=  1655
 Initial guess from the checkpoint file:  "7abb_II_Q.chk"
 B after Tr=    -0.000000   -0.000000    0.000000
         Rot=    1.000000    0.000000    0.000000    0.000000 Ang=   0.00 deg.
 Initial guess <Sx>= 0.0000 <Sy>= 0.0000 <Sz>= 2.0000 <S**2>= 6.0737 S= 2.0147
 Requested convergence on RMS density matrix=1.00D-08 within 128 cycles.
 Requested convergence on MAX density matrix=1.00D-06.
 Requested convergence on             energy=1.00D-06.
 No special actions if energy rises.
 Inv3:  Mode=1 IEnd=   108540675.
 Iteration    1 A*A^-1 deviation from unit magnitude is 1.01D-14 for   6009.
 Iteration    1 A*A^-1 deviation from orthogonality  is 3.88D-15 for   6010   5898.
 Iteration    1 A^-1*A deviation from unit magnitude is 1.01D-14 for   6009.
 Iteration    1 A^-1*A deviation from orthogonality  is 2.62D-15 for   6010   5898.
 Restarting incremental Fock formation.
 Error on total polarization charges =  0.05764
 SCF Done:  E(UPBE1PBE) =  -3537.57130887     A.U. after   33 cycles
            NFock= 33  Conv=0.18D-08     -V/T= 2.0011
 <Sx>= 0.0000 <Sy>= 0.0000 <Sz>= 2.0000 <S**2>= 6.0816 S= 2.0163
 <L.S>= 0.000000000000E+00
 SMD-CDS (non-electrostatic) energy       (kcal/mol) =     -10.49
 (included in total energy above)
 Annihilation of the first spin contaminant:
 S**2 before annihilation     6.0816,   after     6.0008

 **********************************************************************

            Population analysis using the SCF density.

 **********************************************************************

 Orbital symmetries:
 Alpha Orbitals:
       Occupied  (A) (A) (A) (A) (A) (A) (A) (A) (A) (A) (A) (A)
                 (A) (A) (A) (A) (A) (A) (A) (A) (A) (A) (A) (A)
                 (A) (A) (A) (A) (A) (A) (A) (A) (A) (A) (A) (A)
                 (A) (A) (A) (A) (A) (A) (A) (A) (A) (A) (A) (A)
                 (A) (A) (A) (A) (A) (A) (A) (A) (A) (A) (A) (A)
                 (A) (A) (A) (A) (A) (A) (A) (A) (A) (A) (A) (A)
                 (A) (A) (A) (A) (A) (A) (A) (A) (A) (A) (A) (A)
                 (A) (A) (A) (A) (A) (A) (A) (A) (A) (A) (A) (A)
                 (A) (A) (A) (A) (A) (A) (A) (A) (A) (A) (A) (A)
                 (A) (A) (A) (A) (A) (A) (A) (A) (A) (A) (A) (A)
                 (A) (A) (A) (A) (A) (A) (A) (A) (A) (A) (A) (A)
                 (A) (A) (A) (A) (A) (A) (A) (A) (A) (A) (A) (A)
                 (A) (A) (A) (A) (A) (A) (A) (A) (A) (A) (A) (A)
                 (A) (A) (A) (A) (A) (A) (A) (A) (A) (A) (A) (A)
                 (A) (A) (A) (A) (A) (A) (A) (A) (A) (A)
       Virtual   (A) (A) (A) (A) (A) (A) (A) (A) (A) (A) (A) (A)
                 (A) (A) (A) (A) (A) (A) (A) (A) (A) (A) (A) (A)
                 (A) (A) (A) (A) (A) (A) (A) (A) (A) (A) (A) (A)
                 (A) (A) (A) (A) (A) (A) (A) (A) (A) (A) (A) (A)
                 (A) (A) (A) (A) (A) (A) (A) (A) (A) (A) (A) (A)
                 (A) (A) (A) (A) (A) (A) (A) (A) (A) (A) (A) (A)
                 (A) (A) (A) (A) (A) (A) (A) (A) (A) (A) (A) (A)
                 (A) (A) (A) (A) (A) (A) (A) (A) (A) (A) (A) (A)
                 (A) (A) (A) (A) (A) (A) (A) (A) (A) (A) (A) (A)
                 (A) (A) (A) (A) (A) (A) (A) (A) (A) (A) (A) (A)
                 (A) (A) (A) (A) (A) (A) (A) (A) (A) (A) (A) (A)
                 (A) (A) (A) (A) (A) (A) (A) (A) (A) (A) (A) (A)
                 (A) (A) (A) (A) (A) (A) (A) (A) (A) (A) (A) (A)
                 (A) (A) (A) (A) (A) (A) (A) (A) (A) (A) (A) (A)
                 (A) (A) (A) (A) (A) (A) (A) (A) (A) (A) (A) (A)
                 (A) (A) (A) (A) (A) (A) (A) (A) (A) (A) (A) (A)
                 (A) (A) (A) (A) (A) (A) (A) (A) (A) (A) (A) (A)
                 (A) (A) (A) (A) (A) (A) (A) (A) (A) (A) (A) (A)
                 (A) (A) (A) (A) (A) (A) (A) (A) (A) (A) (A) (A)
                 (A) (A) (A) (A) (A) (A) (A) (A) (A) (A) (A) (A)
                 (A) (A) (A) (A) (A) (A) (A) (A) (A) (A) (A) (A)
                 (A) (A) (A) (A) (A) (A) (A) (A) (A) (A) (A) (A)
                 (A) (A) (A) (A) (A) (A) (A) (A) (A) (A) (A) (A)
                 (A) (A) (A) (A) (A) (A) (A) (A) (A) (A) (A) (A)
                 (A) (A) (A) (A) (A) (A) (A) (A) (A) (A) (A) (A)
                 (A) (A) (A) (A) (A) (A) (A) (A) (A) (A) (A) (A)
                 (A) (A) (A) (A) (A) (A) (A) (A) (A) (A) (A) (A)
                 (A) (A) (A) (A) (A) (A) (A) (A) (A) (A) (A) (A)
                 (A) (A) (A) (A) (A) (A) (A) (A) (A) (A) (A) (A)
                 (A) (A) (A) (A) (A) (A) (A) (A) (A) (A) (A) (A)
                 (A) (A) (A) (A) (A) (A) (A) (A) (A) (A) (A) (A)
                 (A) (A) (A) (A) (A) (A) (A) (A) (A) (A) (A) (A)
                 (A) (A) (A) (A) (A) (A) (A) (A) (A) (A) (A) (A)
                 (A) (A) (A) (A) (A) (A) (A) (A) (A) (A) (A) (A)
                 (A) (A) (A) (A) (A) (A) (A) (A) (A) (A) (A) (A)
                 (A) (A) (A) (A) (A) (A) (A) (A) (A) (A) (A) (A)
                 (A) (A) (A) (A) (A) (A) (A) (A) (A) (A) (A) (A)
                 (A) (A) (A) (A) (A) (A) (A) (A) (A) (A) (A) (A)
                 (A) (A) (A) (A) (A) (A) (A) (A) (A) (A) (A) (A)
                 (A) (A) (A) (A) (A) (A) (A) (A) (A) (A) (A) (A)
                 (A) (A) (A) (A) (A) (A) (A) (A) (A) (A) (A) (A)
                 (A) (A) (A) (A) (A) (A) (A) (A) (A) (A) (A) (A)
                 (A) (A) (A) (A) (A) (A) (A) (A) (A) (A) (A) (A)
                 (A) (A) (A) (A) (A) (A) (A) (A) (A) (A) (A) (A)
                 (A) (A) (A) (A) (A) (A) (A) (A) (A) (A) (A) (A)
                 (A) (A) (A) (A) (A) (A) (A) (A) (A) (A) (A) (A)
                 (A) (A) (A) (A) (A) (A) (A) (A) (A) (A) (A) (A)
                 (A) (A) (A) (A) (A) (A) (A) (A) (A) (A) (A) (A)
                 (A) (A) (A) (A) (A) (A) (A) (A) (A) (A) (A) (A)
                 (A) (A) (A) (A) (A) (A) (A) (A) (A) (A) (A) (A)
                 (A) (A) (A) (A) (A) (A) (A) (A) (A) (A) (A) (A)
                 (A) (A) (A) (A) (A) (A) (A) (A) (A) (A) (A) (A)
                 (A) (A) (A) (A) (A) (A) (A) (A) (A) (A) (A) (A)
                 (A) (A) (A) (A) (A) (A) (A) (A) (A) (A) (A) (A)
                 (A) (A) (A) (A) (A) (A) (A) (A) (A) (A) (A) (A)
                 (A) (A) (A) (A) (A) (A) (A) (A) (A) (A) (A) (A)
                 (A) (A) (A) (A) (A) (A) (A) (A) (A) (A) (A) (A)
                 (A) (A) (A) (A) (A) (A) (A) (A) (A) (A) (A) (A)
                 (A) (A) (A) (A) (A) (A) (A) (A) (A) (A) (A) (A)
                 (A) (A) (A) (A) (A) (A) (A) (A) (A) (A) (A) (A)
                 (A) (A) (A) (A) (A) (A) (A) (A) (A) (A) (A) (A)
                 (A) (A) (A) (A) (A) (A) (A) (A) (A) (A) (A) (A)
                 (A) (A) (A) (A) (A) (A) (A) (A) (A) (A) (A) (A)
                 (A) (A) (A) (A) (A) (A) (A) (A) (A) (A) (A) (A)
                 (A) (A) (A) (A) (A) (A) (A) (A) (A) (A) (A) (A)
                 (A) (A) (A) (A) (A) (A) (A) (A) (A) (A) (A) (A)
                 (A) (A) (A) (A) (A) (A) (A) (A) (A) (A) (A) (A)
                 (A) (A) (A) (A) (A) (A) (A) (A) (A) (A) (A) (A)
                 (A) (A) (A) (A) (A) (A) (A) (A) (A) (A) (A) (A)
                 (A) (A) (A) (A) (A) (A) (A) (A) (A) (A) (A) (A)
                 (A) (A) (A) (A) (A) (A) (A) (A) (A) (A) (A) (A)
                 (A) (A) (A) (A) (A) (A) (A) (A) (A) (A) (A) (A)
                 (A) (A) (A) (A) (A) (A) (A) (A) (A) (A) (A) (A)
                 (A) (A) (A) (A) (A) (A) (A) (A) (A) (A) (A) (A)
                 (A) (A) (A) (A) (A) (A) (A) (A) (A) (A) (A) (A)
                 (A) (A) (A) (A) (A) (A) (A) (A) (A) (A) (A) (A)
                 (A) (A) (A) (A) (A) (A) (A) (A) (A) (A) (A) (A)
                 (A) (A) (A) (A) (A) (A) (A) (A) (A) (A) (A) (A)
                 (A) (A) (A) (A) (A) (A) (A) (A) (A) (A) (A) (A)
                 (A) (A) (A) (A) (A) (A) (A) (A) (A) (A) (A) (A)
                 (A) (A) (A) (A) (A) (A) (A) (A) (A) (A) (A) (A)
                 (A) (A) (A) (A) (A) (A) (A) (A) (A) (A) (A) (A)
                 (A) (A) (A) (A) (A) (A) (A) (A) (A) (A) (A) (A)
                 (A) (A) (A) (A) (A) (A) (A) (A) (A) (A) (A) (A)
                 (A) (A) (A) (A) (A) (A) (A) (A) (A) (A) (A) (A)
                 (A) (A) (A) (A) (A) (A) (A) (A) (A) (A) (A) (A)
                 (A) (A) (A) (A) (A) (A) (A) (A) (A) (A) (A) (A)
                 (A) (A) (A) (A) (A) (A) (A) (A) (A) (A) (A) (A)
                 (A) (A) (A) (A) (A) (A) (A) (A) (A) (A) (A) (A)
                 (A) (A) (A) (A) (A) (A) (A) (A) (A) (A) (A) (A)
                 (A) (A) (A) (A) (A) (A) (A) (A) (A) (A) (A) (A)
                 (A) (A) (A) (A) (A) (A) (A) (A) (A) (A) (A) (A)
                 (A) (A) (A) (A) (A) (A) (A) (A) (A) (A) (A) (A)
                 (A) (A) (A) (A) (A) (A) (A) (A) (A) (A) (A) (A)
                 (A) (A) (A) (A) (A) (A) (A) (A) (A) (A) (A) (A)
                 (A) (A) (A) (A) (A) (A) (A) (A) (A) (A) (A) (A)
                 (A) (A) (A) (A) (A) (A) (A) (A) (A) (A) (A) (A)
                 (A) (A) (A) (A) (A) (A) (A) (A) (A) (A) (A) (A)
                 (A) (A) (A) (A) (A) (A) (A) (A) (A) (A) (A) (A)
                 (A) (A) (A) (A) (A) (A) (A) (A) (A) (A) (A) (A)
                 (A) (A) (A) (A) (A) (A) (A) (A) (A) (A) (A) (A)
                 (A) (A) (A) (A) (A) (A) (A) (A) (A) (A) (A) (A)
                 (A) (A) (A) (A) (A) (A) (A) (A) (A) (A) (A) (A)
                 (A) (A) (A) (A) (A) (A) (A) (A) (A) (A) (A) (A)
                 (A) (A) (A) (A) (A) (A) (A) (A) (A) (A) (A) (A)
                 (A) (A) (A) (A) (A) (A) (A) (A) (A) (A) (A) (A)
                 (A) (A) (A) (A) (A) (A) (A) (A) (A) (A) (A) (A)
                 (A) (A) (A) (A) (A) (A) (A) (A) (A) (A) (A) (A)
                 (A) (A) (A) (A) (A) (A) (A) (A) (A) (A) (A) (A)
                 (A) (A) (A) (A) (A) (A) (A) (A) (A) (A) (A) (A)
                 (A) (A) (A) (A) (A) (A) (A) (A) (A) (A) (A) (A)
                 (A) (A) (A) (A) (A) (A) (A) (A) (A) (A) (A) (A)
                 (A) (A) (A) (A) (A) (A) (A) (A) (A) (A) (A) (A)
                 (A) (A) (A) (A) (A) (A) (A) (A) (A) (A) (A) (A)
                 (A) (A) (A) (A) (A) (A) (A) (A) (A) (A) (A) (A)
                 (A) (A) (A) (A) (A) (A) (A) (A) (A) (A) (A) (A)
                 (A) (A) (A) (A) (A) (A) (A) (A) (A) (A) (A) (A)
                 (A) (A) (A) (A) (A) (A) (A) (A) (A) (A) (A) (A)
                 (A) (A) (A) (A) (A) (A) (A) (A) (A) (A) (A) (A)
                 (A) (A) (A) (A) (A) (A) (A) (A) (A) (A) (A) (A)
                 (A) (A) (A) (A) (A) (A) (A) (A) (A) (A) (A) (A)
                 (A) (A) (A) (A) (A) (A) (A) (A) (A) (A) (A) (A)
                 (A) (A) (A) (A) (A) (A) (A) (A) (A) (A) (A) (A)
                 (A)
 Beta  Orbitals:
       Occupied  (A) (A) (A) (A) (A) (A) (A) (A) (A) (A) (A) (A)
                 (A) (A) (A) (A) (A) (A) (A) (A) (A) (A) (A) (A)
                 (A) (A) (A) (A) (A) (A) (A) (A) (A) (A) (A) (A)
                 (A) (A) (A) (A) (A) (A) (A) (A) (A) (A) (A) (A)
                 (A) (A) (A) (A) (A) (A) (A) (A) (A) (A) (A) (A)
                 (A) (A) (A) (A) (A) (A) (A) (A) (A) (A) (A) (A)
                 (A) (A) (A) (A) (A) (A) (A) (A) (A) (A) (A) (A)
                 (A) (A) (A) (A) (A) (A) (A) (A) (A) (A) (A) (A)
                 (A) (A) (A) (A) (A) (A) (A) (A) (A) (A) (A) (A)
                 (A) (A) (A) (A) (A) (A) (A) (A) (A) (A) (A) (A)
                 (A) (A) (A) (A) (A) (A) (A) (A) (A) (A) (A) (A)
                 (A) (A) (A) (A) (A) (A) (A) (A) (A) (A) (A) (A)
                 (A) (A) (A) (A) (A) (A) (A) (A) (A) (A) (A) (A)
                 (A) (A) (A) (A) (A) (A) (A) (A) (A) (A) (A) (A)
                 (A) (A) (A) (A) (A) (A)
       Virtual   (A) (A) (A) (A) (A) (A) (A) (A) (A) (A) (A) (A)
                 (A) (A) (A) (A) (A) (A) (A) (A) (A) (A) (A) (A)
                 (A) (A) (A) (A) (A) (A) (A) (A) (A) (A) (A) (A)
                 (A) (A) (A) (A) (A) (A) (A) (A) (A) (A) (A) (A)
                 (A) (A) (A) (A) (A) (A) (A) (A) (A) (A) (A) (A)
                 (A) (A) (A) (A) (A) (A) (A) (A) (A) (A) (A) (A)
                 (A) (A) (A) (A) (A) (A) (A) (A) (A) (A) (A) (A)
                 (A) (A) (A) (A) (A) (A) (A) (A) (A) (A) (A) (A)
                 (A) (A) (A) (A) (A) (A) (A) (A) (A) (A) (A) (A)
                 (A) (A) (A) (A) (A) (A) (A) (A) (A) (A) (A) (A)
                 (A) (A) (A) (A) (A) (A) (A) (A) (A) (A) (A) (A)
                 (A) (A) (A) (A) (A) (A) (A) (A) (A) (A) (A) (A)
                 (A) (A) (A) (A) (A) (A) (A) (A) (A) (A) (A) (A)
                 (A) (A) (A) (A) (A) (A) (A) (A) (A) (A) (A) (A)
                 (A) (A) (A) (A) (A) (A) (A) (A) (A) (A) (A) (A)
                 (A) (A) (A) (A) (A) (A) (A) (A) (A) (A) (A) (A)
                 (A) (A) (A) (A) (A) (A) (A) (A) (A) (A) (A) (A)
                 (A) (A) (A) (A) (A) (A) (A) (A) (A) (A) (A) (A)
                 (A) (A) (A) (A) (A) (A) (A) (A) (A) (A) (A) (A)
                 (A) (A) (A) (A) (A) (A) (A) (A) (A) (A) (A) (A)
                 (A) (A) (A) (A) (A) (A) (A) (A) (A) (A) (A) (A)
                 (A) (A) (A) (A) (A) (A) (A) (A) (A) (A) (A) (A)
                 (A) (A) (A) (A) (A) (A) (A) (A) (A) (A) (A) (A)
                 (A) (A) (A) (A) (A) (A) (A) (A) (A) (A) (A) (A)
                 (A) (A) (A) (A) (A) (A) (A) (A) (A) (A) (A) (A)
                 (A) (A) (A) (A) (A) (A) (A) (A) (A) (A) (A) (A)
                 (A) (A) (A) (A) (A) (A) (A) (A) (A) (A) (A) (A)
                 (A) (A) (A) (A) (A) (A) (A) (A) (A) (A) (A) (A)
                 (A) (A) (A) (A) (A) (A) (A) (A) (A) (A) (A) (A)
                 (A) (A) (A) (A) (A) (A) (A) (A) (A) (A) (A) (A)
                 (A) (A) (A) (A) (A) (A) (A) (A) (A) (A) (A) (A)
                 (A) (A) (A) (A) (A) (A) (A) (A) (A) (A) (A) (A)
                 (A) (A) (A) (A) (A) (A) (A) (A) (A) (A) (A) (A)
                 (A) (A) (A) (A) (A) (A) (A) (A) (A) (A) (A) (A)
                 (A) (A) (A) (A) (A) (A) (A) (A) (A) (A) (A) (A)
                 (A) (A) (A) (A) (A) (A) (A) (A) (A) (A) (A) (A)
                 (A) (A) (A) (A) (A) (A) (A) (A) (A) (A) (A) (A)
                 (A) (A) (A) (A) (A) (A) (A) (A) (A) (A) (A) (A)
                 (A) (A) (A) (A) (A) (A) (A) (A) (A) (A) (A) (A)
                 (A) (A) (A) (A) (A) (A) (A) (A) (A) (A) (A) (A)
                 (A) (A) (A) (A) (A) (A) (A) (A) (A) (A) (A) (A)
                 (A) (A) (A) (A) (A) (A) (A) (A) (A) (A) (A) (A)
                 (A) (A) (A) (A) (A) (A) (A) (A) (A) (A) (A) (A)
                 (A) (A) (A) (A) (A) (A) (A) (A) (A) (A) (A) (A)
                 (A) (A) (A) (A) (A) (A) (A) (A) (A) (A) (A) (A)
                 (A) (A) (A) (A) (A) (A) (A) (A) (A) (A) (A) (A)
                 (A) (A) (A) (A) (A) (A) (A) (A) (A) (A) (A) (A)
                 (A) (A) (A) (A) (A) (A) (A) (A) (A) (A) (A) (A)
                 (A) (A) (A) (A) (A) (A) (A) (A) (A) (A) (A) (A)
                 (A) (A) (A) (A) (A) (A) (A) (A) (A) (A) (A) (A)
                 (A) (A) (A) (A) (A) (A) (A) (A) (A) (A) (A) (A)
                 (A) (A) (A) (A) (A) (A) (A) (A) (A) (A) (A) (A)
                 (A) (A) (A) (A) (A) (A) (A) (A) (A) (A) (A) (A)
                 (A) (A) (A) (A) (A) (A) (A) (A) (A) (A) (A) (A)
                 (A) (A) (A) (A) (A) (A) (A) (A) (A) (A) (A) (A)
                 (A) (A) (A) (A) (A) (A) (A) (A) (A) (A) (A) (A)
                 (A) (A) (A) (A) (A) (A) (A) (A) (A) (A) (A) (A)
                 (A) (A) (A) (A) (A) (A) (A) (A) (A) (A) (A) (A)
                 (A) (A) (A) (A) (A) (A) (A) (A) (A) (A) (A) (A)
                 (A) (A) (A) (A) (A) (A) (A) (A) (A) (A) (A) (A)
                 (A) (A) (A) (A) (A) (A) (A) (A) (A) (A) (A) (A)
                 (A) (A) (A) (A) (A) (A) (A) (A) (A) (A) (A) (A)
                 (A) (A) (A) (A) (A) (A) (A) (A) (A) (A) (A) (A)
                 (A) (A) (A) (A) (A) (A) (A) (A) (A) (A) (A) (A)
                 (A) (A) (A) (A) (A) (A) (A) (A) (A) (A) (A) (A)
                 (A) (A) (A) (A) (A) (A) (A) (A) (A) (A) (A) (A)
                 (A) (A) (A) (A) (A) (A) (A) (A) (A) (A) (A) (A)
                 (A) (A) (A) (A) (A) (A) (A) (A) (A) (A) (A) (A)
                 (A) (A) (A) (A) (A) (A) (A) (A) (A) (A) (A) (A)
                 (A) (A) (A) (A) (A) (A) (A) (A) (A) (A) (A) (A)
                 (A) (A) (A) (A) (A) (A) (A) (A) (A) (A) (A) (A)
                 (A) (A) (A) (A) (A) (A) (A) (A) (A) (A) (A) (A)
                 (A) (A) (A) (A) (A) (A) (A) (A) (A) (A) (A) (A)
                 (A) (A) (A) (A) (A) (A) (A) (A) (A) (A) (A) (A)
                 (A) (A) (A) (A) (A) (A) (A) (A) (A) (A) (A) (A)
                 (A) (A) (A) (A) (A) (A) (A) (A) (A) (A) (A) (A)
                 (A) (A) (A) (A) (A) (A) (A) (A) (A) (A) (A) (A)
                 (A) (A) (A) (A) (A) (A) (A) (A) (A) (A) (A) (A)
                 (A) (A) (A) (A) (A) (A) (A) (A) (A) (A) (A) (A)
                 (A) (A) (A) (A) (A) (A) (A) (A) (A) (A) (A) (A)
                 (A) (A) (A) (A) (A) (A) (A) (A) (A) (A) (A) (A)
                 (A) (A) (A) (A) (A) (A) (A) (A) (A) (A) (A) (A)
                 (A) (A) (A) (A) (A) (A) (A) (A) (A) (A) (A) (A)
                 (A) (A) (A) (A) (A) (A) (A) (A) (A) (A) (A) (A)
                 (A) (A) (A) (A) (A) (A) (A) (A) (A) (A) (A) (A)
                 (A) (A) (A) (A) (A) (A) (A) (A) (A) (A) (A) (A)
                 (A) (A) (A) (A) (A) (A) (A) (A) (A) (A) (A) (A)
                 (A) (A) (A) (A) (A) (A) (A) (A) (A) (A) (A) (A)
                 (A) (A) (A) (A) (A) (A) (A) (A) (A) (A) (A) (A)
                 (A) (A) (A) (A) (A) (A) (A) (A) (A) (A) (A) (A)
                 (A) (A) (A) (A) (A) (A) (A) (A) (A) (A) (A) (A)
                 (A) (A) (A) (A) (A) (A) (A) (A) (A) (A) (A) (A)
                 (A) (A) (A) (A) (A) (A) (A) (A) (A) (A) (A) (A)
                 (A) (A) (A) (A) (A) (A) (A) (A) (A) (A) (A) (A)
                 (A) (A) (A) (A) (A) (A) (A) (A) (A) (A) (A) (A)
                 (A) (A) (A) (A) (A) (A) (A) (A) (A) (A) (A) (A)
                 (A) (A) (A) (A) (A) (A) (A) (A) (A) (A) (A) (A)
                 (A) (A) (A) (A) (A) (A) (A) (A) (A) (A) (A) (A)
                 (A) (A) (A) (A) (A) (A) (A) (A) (A) (A) (A) (A)
                 (A) (A) (A) (A) (A) (A) (A) (A) (A) (A) (A) (A)
                 (A) (A) (A) (A) (A) (A) (A) (A) (A) (A) (A) (A)
                 (A) (A) (A) (A) (A) (A) (A) (A) (A) (A) (A) (A)
                 (A) (A) (A) (A) (A) (A) (A) (A) (A) (A) (A) (A)
                 (A) (A) (A) (A) (A) (A) (A) (A) (A) (A) (A) (A)
                 (A) (A) (A) (A) (A) (A) (A) (A) (A) (A) (A) (A)
                 (A) (A) (A) (A) (A) (A) (A) (A) (A) (A) (A) (A)
                 (A) (A) (A) (A) (A) (A) (A) (A) (A) (A) (A) (A)
                 (A) (A) (A) (A) (A) (A) (A) (A) (A) (A) (A) (A)
                 (A) (A) (A) (A) (A) (A) (A) (A) (A) (A) (A) (A)
                 (A) (A) (A) (A) (A) (A) (A) (A) (A) (A) (A) (A)
                 (A) (A) (A) (A) (A) (A) (A) (A) (A) (A) (A) (A)
                 (A) (A) (A) (A) (A) (A) (A) (A) (A) (A) (A) (A)
                 (A) (A) (A) (A) (A) (A) (A) (A) (A) (A) (A) (A)
                 (A) (A) (A) (A) (A) (A) (A) (A) (A) (A) (A) (A)
                 (A) (A) (A) (A) (A) (A) (A) (A) (A) (A) (A) (A)
                 (A) (A) (A) (A) (A) (A) (A) (A) (A) (A) (A) (A)
                 (A) (A) (A) (A) (A) (A) (A) (A) (A) (A) (A) (A)
                 (A) (A) (A) (A) (A) (A) (A) (A) (A) (A) (A) (A)
                 (A) (A) (A) (A) (A) (A) (A) (A) (A) (A) (A) (A)
                 (A) (A) (A) (A) (A) (A) (A) (A) (A) (A) (A) (A)
                 (A) (A) (A) (A) (A) (A) (A) (A) (A) (A) (A) (A)
                 (A) (A) (A) (A) (A) (A) (A) (A) (A) (A) (A) (A)
                 (A) (A) (A) (A) (A) (A) (A) (A) (A) (A) (A) (A)
                 (A) (A) (A) (A) (A)
 The electronic state is 5-A.
 Alpha  occ. eigenvalues -- -256.34057 -89.02478 -30.15284 -25.98515 -25.96655
 Alpha  occ. eigenvalues --  -25.96240 -19.25885 -19.24854 -19.18977 -19.18376
 Alpha  occ. eigenvalues --  -14.38517 -14.36495 -14.35824 -14.35096 -10.35891
 Alpha  occ. eigenvalues --  -10.35165 -10.25273 -10.24786 -10.24575 -10.24222
 Alpha  occ. eigenvalues --  -10.24087 -10.24012 -10.23801 -10.23746 -10.23725
 Alpha  occ. eigenvalues --  -10.22802 -10.22462 -10.22198 -10.22104 -10.21780
 Alpha  occ. eigenvalues --  -10.21632 -10.21545 -10.21299 -10.21142 -10.21080
 Alpha  occ. eigenvalues --  -10.20853 -10.20813 -10.20641 -10.20139 -10.20053
 Alpha  occ. eigenvalues --  -10.19538 -10.19522 -10.19474 -10.17395 -10.17345
 Alpha  occ. eigenvalues --  -10.17323 -10.17003 -10.16031 -10.15698  -8.00765
 Alpha  occ. eigenvalues --   -5.94374  -5.94088  -5.93616  -3.57976  -2.37058
 Alpha  occ. eigenvalues --   -2.33486  -2.32412  -1.16623  -1.16340  -1.03234
 Alpha  occ. eigenvalues --   -1.02890  -0.99877  -0.96895  -0.95773  -0.94606
 Alpha  occ. eigenvalues --   -0.84839  -0.83826  -0.83546  -0.83428  -0.82904
 Alpha  occ. eigenvalues --   -0.82000  -0.81477  -0.81342  -0.79472  -0.78901
 Alpha  occ. eigenvalues --   -0.78322  -0.78027  -0.76601  -0.74990  -0.73986
 Alpha  occ. eigenvalues --   -0.73395  -0.72879  -0.70631  -0.70363  -0.68792
 Alpha  occ. eigenvalues --   -0.68286  -0.67199  -0.66721  -0.66431  -0.65666
 Alpha  occ. eigenvalues --   -0.64994  -0.64456  -0.59887  -0.59468  -0.56818
 Alpha  occ. eigenvalues --   -0.56053  -0.55583  -0.54817  -0.53755  -0.53606
 Alpha  occ. eigenvalues --   -0.53258  -0.52191  -0.51870  -0.51608  -0.50760
 Alpha  occ. eigenvalues --   -0.50412  -0.49590  -0.49173  -0.48518  -0.48377
 Alpha  occ. eigenvalues --   -0.48167  -0.48047  -0.47743  -0.47169  -0.46622
 Alpha  occ. eigenvalues --   -0.46354  -0.46179  -0.46012  -0.45229  -0.44808
 Alpha  occ. eigenvalues --   -0.44591  -0.44417  -0.44350  -0.44283  -0.44018
 Alpha  occ. eigenvalues --   -0.43869  -0.43491  -0.43353  -0.43051  -0.43028
 Alpha  occ. eigenvalues --   -0.41940  -0.41667  -0.41366  -0.41259  -0.40722
 Alpha  occ. eigenvalues --   -0.40565  -0.40266  -0.40051  -0.39772  -0.39578
 Alpha  occ. eigenvalues --   -0.39429  -0.39251  -0.38823  -0.38094  -0.37860
 Alpha  occ. eigenvalues --   -0.37717  -0.37404  -0.37070  -0.36659  -0.36590
 Alpha  occ. eigenvalues --   -0.36136  -0.35488  -0.35326  -0.35042  -0.34594
 Alpha  occ. eigenvalues --   -0.34560  -0.34135  -0.33775  -0.33635  -0.33387
 Alpha  occ. eigenvalues --   -0.33138  -0.32926  -0.32423  -0.29100  -0.28941
 Alpha  occ. eigenvalues --   -0.28488  -0.28296  -0.28185  -0.27788  -0.26075
 Alpha  occ. eigenvalues --   -0.24843  -0.23508  -0.22937  -0.21912  -0.21372
 Alpha  occ. eigenvalues --   -0.19364  -0.19219  -0.17733
 Alpha virt. eigenvalues --   -0.07552  -0.07198  -0.01027  -0.00870  -0.00711
 Alpha virt. eigenvalues --    0.01666   0.02728   0.03554   0.05009   0.05248
 Alpha virt. eigenvalues --    0.05387   0.05660   0.06403   0.06544   0.06924
 Alpha virt. eigenvalues --    0.06939   0.07617   0.07956   0.08410   0.08695
 Alpha virt. eigenvalues --    0.09104   0.09183   0.10401   0.10603   0.10720
 Alpha virt. eigenvalues --    0.11052   0.11122   0.11402   0.11563   0.11897
 Alpha virt. eigenvalues --    0.12216   0.12523   0.12893   0.12937   0.13385
 Alpha virt. eigenvalues --    0.13501   0.13659   0.13923   0.14216   0.14475
 Alpha virt. eigenvalues --    0.14532   0.14914   0.15062   0.15236   0.15376
 Alpha virt. eigenvalues --    0.15558   0.15914   0.16023   0.16119   0.16154
 Alpha virt. eigenvalues --    0.16376   0.16892   0.17029   0.17261   0.17732
 Alpha virt. eigenvalues --    0.17846   0.18304   0.18440   0.18719   0.18982
 Alpha virt. eigenvalues --    0.19262   0.19587   0.19632   0.19844   0.20060
 Alpha virt. eigenvalues --    0.20263   0.20524   0.20943   0.21096   0.21149
 Alpha virt. eigenvalues --    0.21306   0.21597   0.21769   0.21885   0.22123
 Alpha virt. eigenvalues --    0.22291   0.22587   0.22730   0.23277   0.23495
 Alpha virt. eigenvalues --    0.23563   0.23645   0.23885   0.23938   0.24418
 Alpha virt. eigenvalues --    0.24507   0.24561   0.24810   0.24887   0.25129
 Alpha virt. eigenvalues --    0.25418   0.25713   0.25846   0.26035   0.26246
 Alpha virt. eigenvalues --    0.26501   0.26660   0.26989   0.27166   0.27436
 Alpha virt. eigenvalues --    0.27749   0.27966   0.27991   0.28189   0.28502
 Alpha virt. eigenvalues --    0.28809   0.29222   0.29283   0.29532   0.29654
 Alpha virt. eigenvalues --    0.30135   0.30291   0.30648   0.30928   0.31454
 Alpha virt. eigenvalues --    0.31511   0.31633   0.31904   0.32239   0.32672
 Alpha virt. eigenvalues --    0.33465   0.33510   0.33687   0.33984   0.34189
 Alpha virt. eigenvalues --    0.34473   0.34772   0.34953   0.35095   0.35583
 Alpha virt. eigenvalues --    0.36019   0.36264   0.36349   0.36812   0.36845
 Alpha virt. eigenvalues --    0.37298   0.37364   0.37680   0.37887   0.38640
 Alpha virt. eigenvalues --    0.38758   0.38903   0.39008   0.39283   0.39576
 Alpha virt. eigenvalues --    0.40088   0.40299   0.40536   0.40651   0.40720
 Alpha virt. eigenvalues --    0.40887   0.40954   0.41379   0.41839   0.42145
 Alpha virt. eigenvalues --    0.42165   0.42566   0.42793   0.43092   0.43193
 Alpha virt. eigenvalues --    0.43373   0.43584   0.43830   0.43896   0.44149
 Alpha virt. eigenvalues --    0.44391   0.44779   0.44880   0.44963   0.45302
 Alpha virt. eigenvalues --    0.45553   0.45757   0.45857   0.46213   0.46414
 Alpha virt. eigenvalues --    0.46464   0.46604   0.46945   0.47029   0.47330
 Alpha virt. eigenvalues --    0.47532   0.47879   0.48110   0.48407   0.48630
 Alpha virt. eigenvalues --    0.48710   0.49035   0.49102   0.49201   0.49391
 Alpha virt. eigenvalues --    0.49754   0.49874   0.49997   0.50312   0.50713
 Alpha virt. eigenvalues --    0.50932   0.51186   0.51259   0.51569   0.51667
 Alpha virt. eigenvalues --    0.51864   0.52322   0.52590   0.52813   0.52984
 Alpha virt. eigenvalues --    0.52995   0.53244   0.53590   0.53709   0.53909
 Alpha virt. eigenvalues --    0.54270   0.54388   0.54563   0.54668   0.54863
 Alpha virt. eigenvalues --    0.55188   0.55571   0.55796   0.56010   0.56254
 Alpha virt. eigenvalues --    0.56310   0.56379   0.56617   0.56942   0.57008
 Alpha virt. eigenvalues --    0.57154   0.57484   0.57744   0.58148   0.58169
 Alpha virt. eigenvalues --    0.58314   0.58523   0.58673   0.59161   0.59222
 Alpha virt. eigenvalues --    0.59564   0.59903   0.60073   0.60464   0.60548
 Alpha virt. eigenvalues --    0.60719   0.61132   0.61363   0.61827   0.62324
 Alpha virt. eigenvalues --    0.62502   0.62869   0.63011   0.63292   0.63386
 Alpha virt. eigenvalues --    0.63680   0.64133   0.64309   0.64703   0.64705
 Alpha virt. eigenvalues --    0.65283   0.65592   0.65727   0.65823   0.66085
 Alpha virt. eigenvalues --    0.66443   0.67077   0.67349   0.67563   0.67680
 Alpha virt. eigenvalues --    0.68125   0.68455   0.68759   0.68805   0.69049
 Alpha virt. eigenvalues --    0.69287   0.69670   0.69917   0.70158   0.70586
 Alpha virt. eigenvalues --    0.70876   0.71167   0.71430   0.71636   0.71996
 Alpha virt. eigenvalues --    0.72448   0.72709   0.72745   0.73098   0.73365
 Alpha virt. eigenvalues --    0.73711   0.74028   0.74227   0.74783   0.74961
 Alpha virt. eigenvalues --    0.75233   0.75372   0.75528   0.75652   0.76145
 Alpha virt. eigenvalues --    0.76503   0.76578   0.77087   0.77168   0.77502
 Alpha virt. eigenvalues --    0.77690   0.78117   0.78327   0.78556   0.79203
 Alpha virt. eigenvalues --    0.79355   0.79703   0.80083   0.80283   0.80851
 Alpha virt. eigenvalues --    0.81020   0.81127   0.81483   0.81724   0.82258
 Alpha virt. eigenvalues --    0.82414   0.82762   0.83118   0.83468   0.83693
 Alpha virt. eigenvalues --    0.84129   0.84494   0.84580   0.85060   0.85365
 Alpha virt. eigenvalues --    0.85473   0.85919   0.86063   0.86715   0.87057
 Alpha virt. eigenvalues --    0.87334   0.87966   0.88186   0.88565   0.88721
 Alpha virt. eigenvalues --    0.89341   0.89586   0.89912   0.90272   0.90771
 Alpha virt. eigenvalues --    0.90860   0.91146   0.91574   0.92011   0.92308
 Alpha virt. eigenvalues --    0.92507   0.93034   0.93142   0.93558   0.93835
 Alpha virt. eigenvalues --    0.94432   0.94696   0.95067   0.95554   0.95839
 Alpha virt. eigenvalues --    0.96307   0.96604   0.96741   0.96838   0.97094
 Alpha virt. eigenvalues --    0.97239   0.97848   0.98143   0.98314   0.98661
 Alpha virt. eigenvalues --    0.98837   0.99269   0.99766   1.00028   1.00219
 Alpha virt. eigenvalues --    1.00769   1.01337   1.01614   1.02261   1.02486
 Alpha virt. eigenvalues --    1.02788   1.02936   1.03108   1.03617   1.03826
 Alpha virt. eigenvalues --    1.04055   1.04386   1.04634   1.05097   1.05255
 Alpha virt. eigenvalues --    1.05794   1.05873   1.06046   1.06387   1.06620
 Alpha virt. eigenvalues --    1.06920   1.07279   1.07437   1.08053   1.08192
 Alpha virt. eigenvalues --    1.08405   1.08770   1.09017   1.09170   1.09793
 Alpha virt. eigenvalues --    1.10181   1.10676   1.11065   1.11299   1.11526
 Alpha virt. eigenvalues --    1.12104   1.12486   1.12538   1.12884   1.13156
 Alpha virt. eigenvalues --    1.13480   1.13604   1.13957   1.14539   1.15095
 Alpha virt. eigenvalues --    1.15929   1.16221   1.16539   1.17087   1.17517
 Alpha virt. eigenvalues --    1.18140   1.18582   1.18734   1.19178   1.19945
 Alpha virt. eigenvalues --    1.20505   1.20810   1.21995   1.22252   1.22328
 Alpha virt. eigenvalues --    1.22839   1.23110   1.23599   1.23867   1.24059
 Alpha virt. eigenvalues --    1.24891   1.25593   1.25981   1.26196   1.26650
 Alpha virt. eigenvalues --    1.26967   1.27512   1.27950   1.28428   1.28872
 Alpha virt. eigenvalues --    1.29362   1.29668   1.30022   1.30807   1.31113
 Alpha virt. eigenvalues --    1.31164   1.31874   1.32611   1.32787   1.33594
 Alpha virt. eigenvalues --    1.33819   1.33999   1.34318   1.34647   1.34784
 Alpha virt. eigenvalues --    1.35366   1.36048   1.36502   1.36817   1.37151
 Alpha virt. eigenvalues --    1.37643   1.38213   1.38912   1.39067   1.39438
 Alpha virt. eigenvalues --    1.39781   1.40048   1.40465   1.41203   1.41383
 Alpha virt. eigenvalues --    1.41910   1.42802   1.43208   1.43479   1.44068
 Alpha virt. eigenvalues --    1.44879   1.44991   1.45635   1.46151   1.46581
 Alpha virt. eigenvalues --    1.47184   1.47472   1.47869   1.48166   1.48676
 Alpha virt. eigenvalues --    1.48918   1.49404   1.49773   1.49999   1.50424
 Alpha virt. eigenvalues --    1.51146   1.51213   1.52106   1.52406   1.52537
 Alpha virt. eigenvalues --    1.52797   1.53013   1.53194   1.53563   1.54002
 Alpha virt. eigenvalues --    1.54180   1.54440   1.54711   1.55038   1.55402
 Alpha virt. eigenvalues --    1.55526   1.55995   1.56364   1.56809   1.56950
 Alpha virt. eigenvalues --    1.57306   1.57570   1.58183   1.58529   1.58680
 Alpha virt. eigenvalues --    1.59309   1.59536   1.59786   1.59947   1.60263
 Alpha virt. eigenvalues --    1.60399   1.61016   1.61461   1.61741   1.62052
 Alpha virt. eigenvalues --    1.62279   1.62545   1.62908   1.63021   1.63374
 Alpha virt. eigenvalues --    1.63515   1.63919   1.64266   1.64447   1.64985
 Alpha virt. eigenvalues --    1.65108   1.65400   1.65670   1.65950   1.66272
 Alpha virt. eigenvalues --    1.66337   1.66499   1.66944   1.67074   1.67463
 Alpha virt. eigenvalues --    1.67645   1.67805   1.68287   1.68451   1.68656
 Alpha virt. eigenvalues --    1.68775   1.69135   1.69393   1.69689   1.69964
 Alpha virt. eigenvalues --    1.70006   1.70461   1.70650   1.71349   1.71677
 Alpha virt. eigenvalues --    1.71801   1.72193   1.72272   1.72798   1.73312
 Alpha virt. eigenvalues --    1.73419   1.73996   1.74105   1.74708   1.74966
 Alpha virt. eigenvalues --    1.75267   1.75542   1.75981   1.76877   1.77171
 Alpha virt. eigenvalues --    1.77457   1.77553   1.77812   1.78000   1.78205
 Alpha virt. eigenvalues --    1.79181   1.79996   1.80356   1.80784   1.81103
 Alpha virt. eigenvalues --    1.81355   1.81982   1.82460   1.82789   1.83102
 Alpha virt. eigenvalues --    1.83543   1.84156   1.84361   1.84640   1.84922
 Alpha virt. eigenvalues --    1.85445   1.85557   1.86411   1.87036   1.87309
 Alpha virt. eigenvalues --    1.87669   1.88203   1.88663   1.89132   1.89375
 Alpha virt. eigenvalues --    1.89725   1.90141   1.90459   1.90703   1.90986
 Alpha virt. eigenvalues --    1.91603   1.92021   1.92104   1.92751   1.92939
 Alpha virt. eigenvalues --    1.93216   1.94230   1.94451   1.94940   1.95756
 Alpha virt. eigenvalues --    1.95928   1.96126   1.96453   1.97124   1.97586
 Alpha virt. eigenvalues --    1.98143   1.98221   1.98653   1.99412   1.99754
 Alpha virt. eigenvalues --    2.00367   2.00499   2.00983   2.01526   2.01797
 Alpha virt. eigenvalues --    2.01857   2.02183   2.02342   2.02563   2.02730
 Alpha virt. eigenvalues --    2.03230   2.03882   2.04342   2.04739   2.05061
 Alpha virt. eigenvalues --    2.05288   2.05615   2.05753   2.06592   2.06670
 Alpha virt. eigenvalues --    2.07433   2.07644   2.07983   2.08607   2.08980
 Alpha virt. eigenvalues --    2.09689   2.10418   2.10690   2.11591   2.11814
 Alpha virt. eigenvalues --    2.12156   2.12818   2.13499   2.13810   2.13910
 Alpha virt. eigenvalues --    2.14326   2.14625   2.14842   2.15461   2.16050
 Alpha virt. eigenvalues --    2.16311   2.16385   2.16748   2.16964   2.16984
 Alpha virt. eigenvalues --    2.17267   2.17798   2.18048   2.18742   2.19087
 Alpha virt. eigenvalues --    2.19340   2.19965   2.20199   2.20834   2.21262
 Alpha virt. eigenvalues --    2.22125   2.22297   2.22849   2.23174   2.23590
 Alpha virt. eigenvalues --    2.24068   2.24625   2.24975   2.25427   2.25898
 Alpha virt. eigenvalues --    2.26489   2.26922   2.27316   2.27564   2.27677
 Alpha virt. eigenvalues --    2.28436   2.28610   2.28742   2.29475   2.30171
 Alpha virt. eigenvalues --    2.30431   2.30711   2.30799   2.31073   2.31578
 Alpha virt. eigenvalues --    2.31932   2.32374   2.32750   2.33703   2.33925
 Alpha virt. eigenvalues --    2.34828   2.35284   2.35574   2.36196   2.37129
 Alpha virt. eigenvalues --    2.37349   2.37442   2.38095   2.38580   2.38985
 Alpha virt. eigenvalues --    2.39287   2.39712   2.40611   2.41268   2.41494
 Alpha virt. eigenvalues --    2.41811   2.42214   2.42746   2.43214   2.43388
 Alpha virt. eigenvalues --    2.44230   2.44412   2.44744   2.45132   2.45727
 Alpha virt. eigenvalues --    2.45795   2.46867   2.46999   2.47542   2.47876
 Alpha virt. eigenvalues --    2.48123   2.48584   2.48973   2.49892   2.49962
 Alpha virt. eigenvalues --    2.50587   2.50784   2.51420   2.52073   2.53140
 Alpha virt. eigenvalues --    2.53280   2.53625   2.53936   2.54405   2.55103
 Alpha virt. eigenvalues --    2.55470   2.55842   2.56169   2.56425   2.56962
 Alpha virt. eigenvalues --    2.57252   2.57416   2.57685   2.58182   2.58596
 Alpha virt. eigenvalues --    2.58904   2.59570   2.60170   2.60439   2.60754
 Alpha virt. eigenvalues --    2.60836   2.61437   2.61810   2.62076   2.62349
 Alpha virt. eigenvalues --    2.62758   2.63289   2.63740   2.63801   2.64630
 Alpha virt. eigenvalues --    2.64884   2.65275   2.65883   2.66404   2.67134
 Alpha virt. eigenvalues --    2.67172   2.67855   2.68335   2.68959   2.69238
 Alpha virt. eigenvalues --    2.69538   2.69760   2.70301   2.70516   2.70615
 Alpha virt. eigenvalues --    2.71247   2.71829   2.71958   2.72153   2.72629
 Alpha virt. eigenvalues --    2.72840   2.73095   2.73457   2.73962   2.74484
 Alpha virt. eigenvalues --    2.74748   2.74966   2.75762   2.76293   2.76464
 Alpha virt. eigenvalues --    2.76807   2.77212   2.77841   2.77984   2.78501
 Alpha virt. eigenvalues --    2.78627   2.78764   2.79083   2.79972   2.80243
 Alpha virt. eigenvalues --    2.80402   2.80837   2.81057   2.81255   2.81621
 Alpha virt. eigenvalues --    2.81887   2.82619   2.82864   2.82939   2.83484
 Alpha virt. eigenvalues --    2.83901   2.84048   2.84520   2.84966   2.85170
 Alpha virt. eigenvalues --    2.85387   2.85719   2.86053   2.86814   2.86992
 Alpha virt. eigenvalues --    2.87444   2.87837   2.88120   2.88384   2.88791
 Alpha virt. eigenvalues --    2.89226   2.89499   2.89603   2.89832   2.90610
 Alpha virt. eigenvalues --    2.91005   2.91657   2.91675   2.92201   2.92479
 Alpha virt. eigenvalues --    2.93092   2.93297   2.93447   2.93690   2.94198
 Alpha virt. eigenvalues --    2.94582   2.94838   2.95464   2.95873   2.96576
 Alpha virt. eigenvalues --    2.96838   2.97012   2.97101   2.97409   2.97702
 Alpha virt. eigenvalues --    2.98256   2.98388   2.98757   2.98818   2.99577
 Alpha virt. eigenvalues --    2.99763   3.00293   3.00542   3.00684   3.01383
 Alpha virt. eigenvalues --    3.01558   3.01579   3.02080   3.02360   3.02825
 Alpha virt. eigenvalues --    3.02983   3.03781   3.03924   3.04068   3.04407
 Alpha virt. eigenvalues --    3.04492   3.04866   3.04971   3.05460   3.05745
 Alpha virt. eigenvalues --    3.06020   3.06080   3.06404   3.06812   3.06985
 Alpha virt. eigenvalues --    3.07257   3.07632   3.08317   3.08865   3.08978
 Alpha virt. eigenvalues --    3.09467   3.09538   3.09699   3.10286   3.10397
 Alpha virt. eigenvalues --    3.10964   3.11223   3.11839   3.12169   3.12231
 Alpha virt. eigenvalues --    3.12660   3.12862   3.13224   3.13651   3.14086
 Alpha virt. eigenvalues --    3.14498   3.14682   3.14856   3.15099   3.15442
 Alpha virt. eigenvalues --    3.15679   3.15873   3.16426   3.16913   3.17377
 Alpha virt. eigenvalues --    3.17699   3.17952   3.18210   3.18683   3.18897
 Alpha virt. eigenvalues --    3.19174   3.19778   3.20331   3.20756   3.20975
 Alpha virt. eigenvalues --    3.21416   3.21506   3.21890   3.22437   3.22956
 Alpha virt. eigenvalues --    3.23059   3.23222   3.23392   3.23601   3.23759
 Alpha virt. eigenvalues --    3.24472   3.24613   3.24959   3.25001   3.25792
 Alpha virt. eigenvalues --    3.26469   3.26762   3.26952   3.27416   3.27793
 Alpha virt. eigenvalues --    3.28065   3.28439   3.28448   3.28967   3.29435
 Alpha virt. eigenvalues --    3.29609   3.29732   3.29987   3.30580   3.30793
 Alpha virt. eigenvalues --    3.31183   3.31276   3.31706   3.32040   3.32302
 Alpha virt. eigenvalues --    3.32615   3.32744   3.33286   3.33599   3.33750
 Alpha virt. eigenvalues --    3.34440   3.34737   3.34842   3.34901   3.35259
 Alpha virt. eigenvalues --    3.35492   3.35787   3.36186   3.36667   3.36830
 Alpha virt. eigenvalues --    3.36961   3.37439   3.37667   3.37916   3.38235
 Alpha virt. eigenvalues --    3.38385   3.38625   3.38959   3.39316   3.39434
 Alpha virt. eigenvalues --    3.39650   3.39998   3.40124   3.40300   3.40727
 Alpha virt. eigenvalues --    3.41101   3.41465   3.41522   3.41980   3.42260
 Alpha virt. eigenvalues --    3.42321   3.42539   3.43074   3.43846   3.44075
 Alpha virt. eigenvalues --    3.44319   3.44450   3.44794   3.44955   3.45166
 Alpha virt. eigenvalues --    3.45372   3.45868   3.46310   3.46726   3.46887
 Alpha virt. eigenvalues --    3.46979   3.47648   3.47814   3.48124   3.48196
 Alpha virt. eigenvalues --    3.48563   3.48850   3.49494   3.49690   3.49852
 Alpha virt. eigenvalues --    3.50442   3.50578   3.51208   3.51644   3.51924
 Alpha virt. eigenvalues --    3.52221   3.52398   3.53115   3.53372   3.53754
 Alpha virt. eigenvalues --    3.54259   3.54401   3.54696   3.55476   3.55808
 Alpha virt. eigenvalues --    3.55881   3.56906   3.57000   3.57586   3.58097
 Alpha virt. eigenvalues --    3.58436   3.58712   3.58910   3.59468   3.59956
 Alpha virt. eigenvalues --    3.60394   3.60914   3.61235   3.61703   3.61773
 Alpha virt. eigenvalues --    3.62205   3.62473   3.62879   3.63351   3.63858
 Alpha virt. eigenvalues --    3.64082   3.64816   3.65143   3.65936   3.66055
 Alpha virt. eigenvalues --    3.66637   3.67151   3.67568   3.67802   3.68040
 Alpha virt. eigenvalues --    3.68338   3.68722   3.68975   3.69867   3.70220
 Alpha virt. eigenvalues --    3.70345   3.70784   3.71187   3.71774   3.72222
 Alpha virt. eigenvalues --    3.72686   3.73401   3.73639   3.73902   3.74455
 Alpha virt. eigenvalues --    3.75012   3.75563   3.75855   3.76093   3.76141
 Alpha virt. eigenvalues --    3.76548   3.77521   3.77841   3.78569   3.78738
 Alpha virt. eigenvalues --    3.79018   3.79514   3.79758   3.80606   3.80781
 Alpha virt. eigenvalues --    3.81703   3.82382   3.82696   3.82998   3.83428
 Alpha virt. eigenvalues --    3.83568   3.83833   3.84234   3.84823   3.85732
 Alpha virt. eigenvalues --    3.86109   3.86449   3.86727   3.87424   3.87799
 Alpha virt. eigenvalues --    3.88257   3.88798   3.88998   3.89557   3.90114
 Alpha virt. eigenvalues --    3.90277   3.91001   3.92549   3.93224   3.93616
 Alpha virt. eigenvalues --    3.93850   3.94645   3.95321   3.95792   3.96383
 Alpha virt. eigenvalues --    3.96716   3.97156   3.97586   3.98269   3.99427
 Alpha virt. eigenvalues --    3.99624   4.00535   4.00940   4.01155   4.01619
 Alpha virt. eigenvalues --    4.01934   4.02259   4.02902   4.03190   4.03743
 Alpha virt. eigenvalues --    4.04209   4.05158   4.05604   4.06214   4.07255
 Alpha virt. eigenvalues --    4.07396   4.07665   4.08439   4.09234   4.09709
 Alpha virt. eigenvalues --    4.10442   4.11084   4.12292   4.12595   4.12961
 Alpha virt. eigenvalues --    4.13568   4.13803   4.14664   4.15454   4.15659
 Alpha virt. eigenvalues --    4.16707   4.16975   4.17454   4.18301   4.18570
 Alpha virt. eigenvalues --    4.19756   4.20663   4.20886   4.21661   4.22346
 Alpha virt. eigenvalues --    4.23003   4.23501   4.23612   4.24862   4.25273
 Alpha virt. eigenvalues --    4.25675   4.26133   4.26722   4.27493   4.27769
 Alpha virt. eigenvalues --    4.28323   4.28747   4.29509   4.30126   4.30432
 Alpha virt. eigenvalues --    4.31666   4.32770   4.32998   4.33223   4.34037
 Alpha virt. eigenvalues --    4.34598   4.35529   4.35862   4.36523   4.37326
 Alpha virt. eigenvalues --    4.38093   4.38335   4.38886   4.39099   4.39702
 Alpha virt. eigenvalues --    4.40971   4.41345   4.41671   4.42394   4.43157
 Alpha virt. eigenvalues --    4.44321   4.45315   4.46385   4.47007   4.47892
 Alpha virt. eigenvalues --    4.48094   4.48797   4.49492   4.50527   4.51216
 Alpha virt. eigenvalues --    4.51930   4.53449   4.53595   4.54505   4.54643
 Alpha virt. eigenvalues --    4.54886   4.55498   4.56168   4.56822   4.57330
 Alpha virt. eigenvalues --    4.58308   4.58855   4.62038   4.63068   4.64038
 Alpha virt. eigenvalues --    4.64323   4.66597   4.67216   4.67903   4.68093
 Alpha virt. eigenvalues --    4.68807   4.69738   4.70291   4.70688   4.71587
 Alpha virt. eigenvalues --    4.72855   4.73363   4.74147   4.75410   4.75883
 Alpha virt. eigenvalues --    4.76301   4.77055   4.77447   4.78400   4.78820
 Alpha virt. eigenvalues --    4.79369   4.79778   4.80069   4.81316   4.81849
 Alpha virt. eigenvalues --    4.82499   4.83019   4.83317   4.84039   4.84908
 Alpha virt. eigenvalues --    4.85181   4.85515   4.86211   4.87258   4.88249
 Alpha virt. eigenvalues --    4.88323   4.88715   4.89506   4.90040   4.91181
 Alpha virt. eigenvalues --    4.91736   4.92830   4.93337   4.93752   4.94158
 Alpha virt. eigenvalues --    4.94862   4.95626   4.95965   4.97049   4.97675
 Alpha virt. eigenvalues --    4.98149   4.98836   4.99864   4.99910   5.00316
 Alpha virt. eigenvalues --    5.00946   5.01906   5.02332   5.03121   5.03469
 Alpha virt. eigenvalues --    5.05410   5.06426   5.06882   5.07147   5.07727
 Alpha virt. eigenvalues --    5.09259   5.10405   5.13402   5.13741   5.15411
 Alpha virt. eigenvalues --    5.16516   5.17324   5.18067   5.18915   5.19798
 Alpha virt. eigenvalues --    5.20315   5.21035   5.22009   5.23086   5.23473
 Alpha virt. eigenvalues --    5.23942   5.24166   5.24418   5.26125   5.27621
 Alpha virt. eigenvalues --    5.27979   5.29353   5.29411   5.30454   5.34336
 Alpha virt. eigenvalues --    5.35065   5.35435   5.37628   5.38096   5.38909
 Alpha virt. eigenvalues --    5.41262   5.42844   5.43368   5.44919   5.45570
 Alpha virt. eigenvalues --    5.47075   5.48310   5.48775   5.51095   5.52000
 Alpha virt. eigenvalues --    5.53079   5.55535   5.56657   5.58448   5.59387
 Alpha virt. eigenvalues --    5.60289   5.60950   5.61066   5.61330   5.61832
 Alpha virt. eigenvalues --    5.63802   5.64060   5.64952   5.66500   5.70228
 Alpha virt. eigenvalues --    5.73790   5.74605   5.76092   5.79177   5.79695
 Alpha virt. eigenvalues --    5.80832   5.81168   5.86022   5.88317   5.88494
 Alpha virt. eigenvalues --    5.92177   5.94974   5.96465   6.00620   6.02015
 Alpha virt. eigenvalues --    6.02996   6.06324   6.07521   6.08470   6.08760
 Alpha virt. eigenvalues --    6.10144   6.15428   6.17784   6.18011   6.20429
 Alpha virt. eigenvalues --    6.31665   6.32218   6.33655   6.34163   6.34670
 Alpha virt. eigenvalues --    6.35803   6.38884   6.41691   6.41869   6.45686
 Alpha virt. eigenvalues --    6.47342   6.50246   6.54697   6.57803   6.63899
 Alpha virt. eigenvalues --    6.68110   6.74373   6.78070   6.81968   6.84544
 Alpha virt. eigenvalues --    6.93128   6.95211   7.02935   7.08017   7.11782
 Alpha virt. eigenvalues --    7.15884   7.17871   7.19448   7.25280   7.28134
 Alpha virt. eigenvalues --    9.05674   9.28482   9.50361  19.68349  22.37038
 Alpha virt. eigenvalues --   22.66861  22.74554  22.82456  22.88554  22.88911
 Alpha virt. eigenvalues --   22.92475  22.94464  22.94995  22.95942  23.00029
 Alpha virt. eigenvalues --   23.03225  23.04302  23.05957  23.09356  23.10872
 Alpha virt. eigenvalues --   23.11795  23.16729  23.22633  23.23869  23.25779
 Alpha virt. eigenvalues --   23.28008  23.34431  23.37717  23.40276  23.46004
 Alpha virt. eigenvalues --   23.47370  23.52261  23.53561  23.56858  23.60460
 Alpha virt. eigenvalues --   23.68126  23.78240  23.81858  23.88098  32.87180
 Alpha virt. eigenvalues --   32.90710  32.92589  33.13209  43.94027  43.94481
 Alpha virt. eigenvalues --   43.97140  43.99956
  Beta  occ. eigenvalues -- -256.33895 -89.02397 -30.07528 -25.91030 -25.90475
  Beta  occ. eigenvalues --  -25.90310 -19.25885 -19.24854 -19.18977 -19.18377
  Beta  occ. eigenvalues --  -14.38395 -14.36265 -14.35579 -14.34937 -10.35891
  Beta  occ. eigenvalues --  -10.35166 -10.25208 -10.24760 -10.24562 -10.24191
  Beta  occ. eigenvalues --  -10.24045 -10.24022 -10.23794 -10.23783 -10.23762
  Beta  occ. eigenvalues --  -10.22750 -10.22515 -10.22175 -10.22090 -10.21764
  Beta  occ. eigenvalues --  -10.21631 -10.21545 -10.21295 -10.21132 -10.21071
  Beta  occ. eigenvalues --  -10.20832 -10.20802 -10.20640 -10.20146 -10.20054
  Beta  occ. eigenvalues --  -10.19537 -10.19517 -10.19478 -10.17395 -10.17345
  Beta  occ. eigenvalues --  -10.17318 -10.17001 -10.16029 -10.15697  -8.00662
  Beta  occ. eigenvalues --   -5.94316  -5.93990  -5.93468  -3.39237  -2.15202
  Beta  occ. eigenvalues --   -2.14164  -2.13415  -1.16623  -1.16341  -1.03234
  Beta  occ. eigenvalues --   -1.02892  -0.99263  -0.96648  -0.95620  -0.94419
  Beta  occ. eigenvalues --   -0.84804  -0.83811  -0.83500  -0.83267  -0.82819
  Beta  occ. eigenvalues --   -0.81963  -0.81342  -0.81062  -0.79428  -0.78835
  Beta  occ. eigenvalues --   -0.78245  -0.77971  -0.76545  -0.74911  -0.73878
  Beta  occ. eigenvalues --   -0.73318  -0.72870  -0.70573  -0.70301  -0.68734
  Beta  occ. eigenvalues --   -0.67997  -0.67171  -0.66653  -0.66362  -0.65600
  Beta  occ. eigenvalues --   -0.64871  -0.64404  -0.59522  -0.59358  -0.56681
  Beta  occ. eigenvalues --   -0.55865  -0.55470  -0.54043  -0.53578  -0.53379
  Beta  occ. eigenvalues --   -0.53200  -0.52092  -0.51700  -0.51554  -0.50669
  Beta  occ. eigenvalues --   -0.49889  -0.49574  -0.49077  -0.48270  -0.48161
  Beta  occ. eigenvalues --   -0.47960  -0.47873  -0.47543  -0.46900  -0.46550
  Beta  occ. eigenvalues --   -0.46064  -0.45852  -0.45360  -0.45067  -0.44668
  Beta  occ. eigenvalues --   -0.44554  -0.44332  -0.44206  -0.44070  -0.43771
  Beta  occ. eigenvalues --   -0.43626  -0.43241  -0.42956  -0.42873  -0.42735
  Beta  occ. eigenvalues --   -0.41526  -0.41205  -0.41139  -0.40991  -0.40525
  Beta  occ. eigenvalues --   -0.40247  -0.39802  -0.39534  -0.39271  -0.39179
  Beta  occ. eigenvalues --   -0.38607  -0.38036  -0.37923  -0.37471  -0.37392
  Beta  occ. eigenvalues --   -0.37094  -0.36908  -0.36541  -0.36160  -0.35655
  Beta  occ. eigenvalues --   -0.35208  -0.34963  -0.34582  -0.34294  -0.33994
  Beta  occ. eigenvalues --   -0.33969  -0.33703  -0.33364  -0.33031  -0.32230
  Beta  occ. eigenvalues --   -0.30094  -0.29272  -0.28949  -0.28423  -0.27880
  Beta  occ. eigenvalues --   -0.27544  -0.26966  -0.26508  -0.23900  -0.22895
  Beta  occ. eigenvalues --   -0.21656  -0.19969  -0.19400  -0.16659
  Beta virt. eigenvalues --   -0.07810  -0.07089  -0.02077  -0.01127  -0.01043
  Beta virt. eigenvalues --   -0.00837  -0.00712   0.00222   0.01977   0.02456
  Beta virt. eigenvalues --    0.03000   0.03870   0.05020   0.05664   0.05878
  Beta virt. eigenvalues --    0.06259   0.06579   0.06770   0.07182   0.07789
  Beta virt. eigenvalues --    0.07936   0.08166   0.08728   0.08839   0.09188
  Beta virt. eigenvalues --    0.09258   0.10612   0.10662   0.10886   0.11086
  Beta virt. eigenvalues --    0.11336   0.11501   0.11594   0.11920   0.12237
  Beta virt. eigenvalues --    0.12639   0.12962   0.13186   0.13444   0.13566
  Beta virt. eigenvalues --    0.13844   0.14045   0.14354   0.14535   0.14667
  Beta virt. eigenvalues --    0.14960   0.15155   0.15332   0.15508   0.15622
  Beta virt. eigenvalues --    0.15986   0.16109   0.16184   0.16267   0.16407
  Beta virt. eigenvalues --    0.16984   0.17379   0.17440   0.17830   0.17907
  Beta virt. eigenvalues --    0.18409   0.18500   0.18843   0.19274   0.19466
  Beta virt. eigenvalues --    0.19708   0.19761   0.19918   0.20144   0.20439
  Beta virt. eigenvalues --    0.20682   0.21100   0.21148   0.21401   0.21610
  Beta virt. eigenvalues --    0.21737   0.21914   0.21993   0.22204   0.22511
  Beta virt. eigenvalues --    0.22631   0.22836   0.23370   0.23624   0.23752
  Beta virt. eigenvalues --    0.23901   0.23963   0.24028   0.24535   0.24641
  Beta virt. eigenvalues --    0.24850   0.24965   0.25081   0.25451   0.25550
  Beta virt. eigenvalues --    0.25792   0.25975   0.26353   0.26580   0.26687
  Beta virt. eigenvalues --    0.26948   0.27346   0.27394   0.27674   0.27835
  Beta virt. eigenvalues --    0.28050   0.28112   0.28294   0.28748   0.28881
  Beta virt. eigenvalues --    0.29369   0.29480   0.29727   0.29868   0.30360
  Beta virt. eigenvalues --    0.30414   0.30815   0.31124   0.31588   0.31811
  Beta virt. eigenvalues --    0.31959   0.32167   0.32559   0.32781   0.33562
  Beta virt. eigenvalues --    0.33660   0.33933   0.34182   0.34234   0.34697
  Beta virt. eigenvalues --    0.34962   0.35167   0.35248   0.35758   0.36063
  Beta virt. eigenvalues --    0.36336   0.36537   0.36935   0.36991   0.37396
  Beta virt. eigenvalues --    0.37541   0.37797   0.38000   0.38726   0.38870
  Beta virt. eigenvalues --    0.38945   0.39084   0.39467   0.39676   0.40151
  Beta virt. eigenvalues --    0.40456   0.40611   0.40864   0.40890   0.41027
  Beta virt. eigenvalues --    0.41092   0.41529   0.41955   0.42217   0.42237
  Beta virt. eigenvalues --    0.42596   0.42888   0.43160   0.43258   0.43467
  Beta virt. eigenvalues --    0.43629   0.43914   0.43954   0.44219   0.44478
  Beta virt. eigenvalues --    0.44845   0.45073   0.45123   0.45454   0.45741
  Beta virt. eigenvalues --    0.45837   0.45916   0.46294   0.46445   0.46499
  Beta virt. eigenvalues --    0.46706   0.47037   0.47190   0.47497   0.47670
  Beta virt. eigenvalues --    0.47987   0.48159   0.48456   0.48763   0.48770
  Beta virt. eigenvalues --    0.49066   0.49265   0.49296   0.49444   0.49785
  Beta virt. eigenvalues --    0.49935   0.50039   0.50443   0.50799   0.51042
  Beta virt. eigenvalues --    0.51317   0.51328   0.51703   0.51811   0.51897
  Beta virt. eigenvalues --    0.52389   0.52760   0.52915   0.53059   0.53116
  Beta virt. eigenvalues --    0.53322   0.53648   0.53884   0.53981   0.54380
  Beta virt. eigenvalues --    0.54483   0.54622   0.54767   0.54954   0.55338
  Beta virt. eigenvalues --    0.55659   0.55850   0.56080   0.56293   0.56432
  Beta virt. eigenvalues --    0.56539   0.56699   0.56990   0.57136   0.57283
  Beta virt. eigenvalues --    0.57529   0.57865   0.58245   0.58307   0.58476
  Beta virt. eigenvalues --    0.58602   0.58863   0.59219   0.59333   0.59702
  Beta virt. eigenvalues --    0.60018   0.60151   0.60483   0.60599   0.60918
  Beta virt. eigenvalues --    0.61242   0.61493   0.61924   0.62447   0.62646
  Beta virt. eigenvalues --    0.62923   0.63250   0.63420   0.63554   0.63756
  Beta virt. eigenvalues --    0.64199   0.64536   0.64791   0.64968   0.65442
  Beta virt. eigenvalues --    0.65773   0.65850   0.65910   0.66285   0.66513
  Beta virt. eigenvalues --    0.67189   0.67443   0.67721   0.67754   0.68206
  Beta virt. eigenvalues --    0.68619   0.68862   0.69005   0.69278   0.69365
  Beta virt. eigenvalues --    0.69773   0.70141   0.70289   0.70852   0.71024
  Beta virt. eigenvalues --    0.71259   0.71539   0.71822   0.72135   0.72554
  Beta virt. eigenvalues --    0.72821   0.72889   0.73174   0.73634   0.73856
  Beta virt. eigenvalues --    0.74245   0.74357   0.74918   0.75107   0.75329
  Beta virt. eigenvalues --    0.75481   0.75681   0.75822   0.76290   0.76567
  Beta virt. eigenvalues --    0.76790   0.77195   0.77290   0.77613   0.77840
  Beta virt. eigenvalues --    0.78396   0.78510   0.78803   0.79303   0.79479
  Beta virt. eigenvalues --    0.79828   0.80228   0.80370   0.81037   0.81097
  Beta virt. eigenvalues --    0.81246   0.81574   0.81866   0.82350   0.82460
  Beta virt. eigenvalues --    0.82851   0.83301   0.83546   0.83804   0.84251
  Beta virt. eigenvalues --    0.84604   0.84689   0.85166   0.85484   0.85614
  Beta virt. eigenvalues --    0.86075   0.86174   0.86856   0.87220   0.87559
  Beta virt. eigenvalues --    0.88034   0.88443   0.88692   0.88856   0.89429
  Beta virt. eigenvalues --    0.89718   0.90015   0.90573   0.90876   0.91056
  Beta virt. eigenvalues --    0.91233   0.91731   0.92081   0.92381   0.92539
  Beta virt. eigenvalues --    0.93116   0.93251   0.93654   0.93983   0.94515
  Beta virt. eigenvalues --    0.94766   0.95158   0.95642   0.96070   0.96418
  Beta virt. eigenvalues --    0.96769   0.96893   0.96915   0.97238   0.97640
  Beta virt. eigenvalues --    0.97997   0.98226   0.98521   0.98825   0.98976
  Beta virt. eigenvalues --    0.99413   0.99930   1.00175   1.00389   1.00883
  Beta virt. eigenvalues --    1.01490   1.01768   1.02368   1.02525   1.02922
  Beta virt. eigenvalues --    1.03152   1.03255   1.03712   1.03972   1.04157
  Beta virt. eigenvalues --    1.04443   1.04851   1.05222   1.05415   1.06033
  Beta virt. eigenvalues --    1.06129   1.06267   1.06554   1.06873   1.07033
  Beta virt. eigenvalues --    1.07426   1.07579   1.08166   1.08320   1.08542
  Beta virt. eigenvalues --    1.09035   1.09204   1.09459   1.10086   1.10444
  Beta virt. eigenvalues --    1.10957   1.11318   1.11412   1.11845   1.12169
  Beta virt. eigenvalues --    1.12547   1.12754   1.12953   1.13274   1.13613
  Beta virt. eigenvalues --    1.13700   1.14134   1.14628   1.15275   1.16033
  Beta virt. eigenvalues --    1.16367   1.16706   1.17371   1.17870   1.18485
  Beta virt. eigenvalues --    1.18632   1.18928   1.19272   1.20067   1.20762
  Beta virt. eigenvalues --    1.20961   1.22223   1.22428   1.22747   1.22952
  Beta virt. eigenvalues --    1.23328   1.23729   1.24058   1.24199   1.25076
  Beta virt. eigenvalues --    1.25785   1.26049   1.26492   1.26878   1.27162
  Beta virt. eigenvalues --    1.27718   1.28103   1.28706   1.29166   1.29587
  Beta virt. eigenvalues --    1.29945   1.30171   1.31025   1.31254   1.31320
  Beta virt. eigenvalues --    1.32053   1.32720   1.32837   1.33721   1.33989
  Beta virt. eigenvalues --    1.34193   1.34526   1.34787   1.35336   1.35656
  Beta virt. eigenvalues --    1.36435   1.36604   1.36997   1.37579   1.37930
  Beta virt. eigenvalues --    1.38572   1.39014   1.39256   1.39612   1.39988
  Beta virt. eigenvalues --    1.40164   1.40749   1.41472   1.41527   1.42045
  Beta virt. eigenvalues --    1.42933   1.43414   1.43577   1.44305   1.45183
  Beta virt. eigenvalues --    1.45385   1.45788   1.46234   1.46677   1.47319
  Beta virt. eigenvalues --    1.47785   1.48062   1.48372   1.48808   1.49002
  Beta virt. eigenvalues --    1.49458   1.50010   1.50328   1.50511   1.51203
  Beta virt. eigenvalues --    1.51337   1.52264   1.52481   1.52773   1.52882
  Beta virt. eigenvalues --    1.53124   1.53238   1.53672   1.54132   1.54295
  Beta virt. eigenvalues --    1.54504   1.54868   1.55150   1.55508   1.55596
  Beta virt. eigenvalues --    1.56157   1.56503   1.56954   1.57071   1.57413
  Beta virt. eigenvalues --    1.57656   1.58258   1.58666   1.58792   1.59498
  Beta virt. eigenvalues --    1.59606   1.59879   1.60053   1.60471   1.60531
  Beta virt. eigenvalues --    1.61144   1.61543   1.61954   1.62071   1.62496
  Beta virt. eigenvalues --    1.62670   1.63008   1.63212   1.63476   1.63621
  Beta virt. eigenvalues --    1.64021   1.64297   1.64596   1.65090   1.65201
  Beta virt. eigenvalues --    1.65515   1.65764   1.66009   1.66347   1.66440
  Beta virt. eigenvalues --    1.66581   1.67042   1.67170   1.67522   1.67684
  Beta virt. eigenvalues --    1.67915   1.68350   1.68607   1.68783   1.68881
  Beta virt. eigenvalues --    1.69337   1.69524   1.69782   1.70012   1.70213
  Beta virt. eigenvalues --    1.70552   1.70864   1.71457   1.71807   1.71946
  Beta virt. eigenvalues --    1.72275   1.72481   1.72897   1.73441   1.73555
  Beta virt. eigenvalues --    1.74144   1.74214   1.74790   1.75027   1.75406
  Beta virt. eigenvalues --    1.75749   1.76145   1.76985   1.77346   1.77604
  Beta virt. eigenvalues --    1.77729   1.78155   1.78357   1.78442   1.79362
  Beta virt. eigenvalues --    1.80103   1.80446   1.80964   1.81226   1.81827
  Beta virt. eigenvalues --    1.82122   1.82651   1.82893   1.83273   1.83748
  Beta virt. eigenvalues --    1.84228   1.84457   1.84735   1.85036   1.85746
  Beta virt. eigenvalues --    1.85785   1.86530   1.87207   1.87600   1.87882
  Beta virt. eigenvalues --    1.88289   1.88749   1.89219   1.89519   1.89776
  Beta virt. eigenvalues --    1.90314   1.90548   1.90974   1.91137   1.91699
  Beta virt. eigenvalues --    1.92139   1.92192   1.92813   1.93046   1.93353
  Beta virt. eigenvalues --    1.94389   1.94541   1.95077   1.95869   1.96057
  Beta virt. eigenvalues --    1.96251   1.96727   1.97229   1.97837   1.98235
  Beta virt. eigenvalues --    1.98415   1.98772   1.99634   1.99949   2.00525
  Beta virt. eigenvalues --    2.00634   2.01082   2.01700   2.01866   2.01977
  Beta virt. eigenvalues --    2.02288   2.02492   2.02643   2.02859   2.03267
  Beta virt. eigenvalues --    2.03996   2.04512   2.04803   2.05209   2.05367
  Beta virt. eigenvalues --    2.05795   2.05874   2.06731   2.06821   2.07548
  Beta virt. eigenvalues --    2.07759   2.08149   2.08765   2.09163   2.09885
  Beta virt. eigenvalues --    2.10556   2.10829   2.11682   2.12062   2.12278
  Beta virt. eigenvalues --    2.12877   2.13680   2.13886   2.14000   2.14409
  Beta virt. eigenvalues --    2.14748   2.15007   2.15554   2.16117   2.16399
  Beta virt. eigenvalues --    2.16454   2.16879   2.17026   2.17154   2.17328
  Beta virt. eigenvalues --    2.17875   2.18151   2.18803   2.19240   2.19452
  Beta virt. eigenvalues --    2.20066   2.20324   2.20893   2.21366   2.22324
  Beta virt. eigenvalues --    2.22420   2.22902   2.23233   2.23810   2.24172
  Beta virt. eigenvalues --    2.24724   2.25031   2.25584   2.26092   2.26546
  Beta virt. eigenvalues --    2.27029   2.27415   2.27598   2.27749   2.28648
  Beta virt. eigenvalues --    2.28875   2.29077   2.29615   2.30233   2.30565
  Beta virt. eigenvalues --    2.30827   2.30892   2.31129   2.31835   2.32066
  Beta virt. eigenvalues --    2.32614   2.32894   2.33930   2.34052   2.35004
  Beta virt. eigenvalues --    2.35519   2.35781   2.36429   2.37170   2.37427
  Beta virt. eigenvalues --    2.37570   2.38159   2.38690   2.39105   2.39521
  Beta virt. eigenvalues --    2.39801   2.40747   2.41325   2.41671   2.42132
  Beta virt. eigenvalues --    2.42620   2.42850   2.43407   2.43487   2.44405
  Beta virt. eigenvalues --    2.44628   2.44905   2.45193   2.45965   2.46151
  Beta virt. eigenvalues --    2.47050   2.47173   2.47626   2.47963   2.48176
  Beta virt. eigenvalues --    2.48730   2.49070   2.50041   2.50131   2.50822
  Beta virt. eigenvalues --    2.51077   2.51579   2.52214   2.53291   2.53358
  Beta virt. eigenvalues --    2.53859   2.54058   2.54648   2.55288   2.55553
  Beta virt. eigenvalues --    2.55922   2.56273   2.56623   2.57061   2.57446
  Beta virt. eigenvalues --    2.57603   2.57930   2.58292   2.58732   2.59277
  Beta virt. eigenvalues --    2.60134   2.60247   2.60633   2.60859   2.60936
  Beta virt. eigenvalues --    2.61534   2.61878   2.62311   2.62517   2.63213
  Beta virt. eigenvalues --    2.63386   2.63857   2.64064   2.64793   2.65175
  Beta virt. eigenvalues --    2.65356   2.66555   2.66753   2.67275   2.67419
  Beta virt. eigenvalues --    2.67955   2.68472   2.69076   2.69371   2.69663
  Beta virt. eigenvalues --    2.69843   2.70425   2.70644   2.70816   2.71330
  Beta virt. eigenvalues --    2.71850   2.72147   2.72271   2.72862   2.72902
  Beta virt. eigenvalues --    2.73192   2.73576   2.74177   2.74616   2.74875
  Beta virt. eigenvalues --    2.75221   2.76021   2.76334   2.76673   2.76936
  Beta virt. eigenvalues --    2.77257   2.77901   2.78193   2.78666   2.78754
  Beta virt. eigenvalues --    2.78958   2.79350   2.80023   2.80412   2.80544
  Beta virt. eigenvalues --    2.80954   2.81156   2.81344   2.81665   2.81959
  Beta virt. eigenvalues --    2.82758   2.82945   2.83007   2.83569   2.84166
  Beta virt. eigenvalues --    2.84178   2.84659   2.85041   2.85308   2.85455
  Beta virt. eigenvalues --    2.85922   2.86129   2.86976   2.87065   2.87547
  Beta virt. eigenvalues --    2.87907   2.88259   2.88457   2.88875   2.89285
  Beta virt. eigenvalues --    2.89573   2.89707   2.89880   2.90707   2.91085
  Beta virt. eigenvalues --    2.91724   2.91760   2.92360   2.92567   2.93213
  Beta virt. eigenvalues --    2.93376   2.93588   2.93851   2.94420   2.94639
  Beta virt. eigenvalues --    2.94935   2.95539   2.96001   2.96627   2.96884
  Beta virt. eigenvalues --    2.97107   2.97175   2.97522   2.97811   2.98350
  Beta virt. eigenvalues --    2.98429   2.98824   2.98917   2.99620   2.99906
  Beta virt. eigenvalues --    3.00351   3.00633   3.00832   3.01442   3.01617
  Beta virt. eigenvalues --    3.02019   3.02133   3.02512   3.02881   3.03160
  Beta virt. eigenvalues --    3.03817   3.03983   3.04145   3.04508   3.04568
  Beta virt. eigenvalues --    3.04906   3.05038   3.05505   3.05837   3.06095
  Beta virt. eigenvalues --    3.06215   3.06442   3.06854   3.07102   3.07331
  Beta virt. eigenvalues --    3.07732   3.08467   3.08904   3.09086   3.09516
  Beta virt. eigenvalues --    3.09657   3.09795   3.10347   3.10544   3.11043
  Beta virt. eigenvalues --    3.11275   3.11934   3.12263   3.12293   3.12814
  Beta virt. eigenvalues --    3.12961   3.13301   3.13749   3.14156   3.14578
  Beta virt. eigenvalues --    3.14811   3.14928   3.15199   3.15538   3.15728
  Beta virt. eigenvalues --    3.15934   3.16510   3.17045   3.17414   3.17852
  Beta virt. eigenvalues --    3.18091   3.18347   3.18826   3.19037   3.19285
  Beta virt. eigenvalues --    3.19863   3.20485   3.20895   3.21147   3.21502
  Beta virt. eigenvalues --    3.21543   3.22097   3.22509   3.23037   3.23186
  Beta virt. eigenvalues --    3.23302   3.23442   3.23820   3.23840   3.24590
  Beta virt. eigenvalues --    3.24932   3.25044   3.25161   3.25979   3.26607
  Beta virt. eigenvalues --    3.26915   3.27035   3.27545   3.27880   3.28106
[...]
    20 O(17)  Bbb    -0.0008     0.056     0.020     0.019  0.2812  0.8122 -0.5111
              Bcc     0.0017    -0.121    -0.043    -0.040  0.9524 -0.3017  0.0445
 
              Baa    -0.1366    -5.268    -1.880    -1.757  0.8229 -0.5640 -0.0683
    21 N(14)  Bbb    -0.0834    -3.217    -1.148    -1.073 -0.0038 -0.1256  0.9921
              Bcc     0.2200     8.485     3.028     2.830  0.5682  0.8161  0.1055
 
              Baa    -0.0378    -5.078    -1.812    -1.694 -0.0037  0.0576  0.9983
    22 C(13)  Bbb    -0.0190    -2.554    -0.911    -0.852  0.9975 -0.0709  0.0078
              Bcc     0.0569     7.632     2.723     2.546  0.0713  0.9958 -0.0572
 
              Baa    -0.0103    -1.385    -0.494    -0.462  0.8424 -0.5290  0.1023
    23 C(13)  Bbb    -0.0052    -0.697    -0.249    -0.232 -0.0737  0.0749  0.9945
              Bcc     0.0155     2.081     0.743     0.694  0.5338  0.8453 -0.0241
 
              Baa    -0.0104    -1.402    -0.500    -0.468  0.7355 -0.6758 -0.0479
    24 C(13)  Bbb    -0.0079    -1.054    -0.376    -0.352  0.0635 -0.0017  0.9980
              Bcc     0.0183     2.457     0.877     0.819  0.6745  0.7371 -0.0416
 
              Baa    -0.0407    -5.463    -1.949    -1.822 -0.0267 -0.0009  0.9996
    25 C(13)  Bbb    -0.0181    -2.432    -0.868    -0.811 -0.5077  0.8615 -0.0128
              Bcc     0.0588     7.894     2.817     2.633  0.8611  0.5078  0.0235
 
              Baa    -0.0041    -0.545    -0.195    -0.182  0.8906 -0.2769 -0.3607
    26 C(13)  Bbb    -0.0039    -0.525    -0.187    -0.175  0.3574 -0.0638  0.9317
              Bcc     0.0080     1.071     0.382     0.357  0.2810  0.9588 -0.0421
 
              Baa    -0.0045    -0.598    -0.213    -0.199  0.0908 -0.0665  0.9936
    27 C(13)  Bbb    -0.0037    -0.499    -0.178    -0.167 -0.5194  0.8482  0.1042
              Bcc     0.0082     1.097     0.392     0.366  0.8497  0.5256 -0.0425
 
              Baa    -0.0022    -0.298    -0.106    -0.099  0.1306 -0.0165  0.9913
    28 C(13)  Bbb    -0.0022    -0.294    -0.105    -0.098 -0.6585  0.7460  0.0992
              Bcc     0.0044     0.592     0.211     0.198  0.7411  0.6658 -0.0866
 
              Baa    -0.1852    -7.141    -2.548    -2.382  0.6500  0.7465 -0.1424
    29 N(14)  Bbb    -0.0795    -3.066    -1.094    -1.023  0.0660  0.1312  0.9892
              Bcc     0.2647    10.207     3.642     3.405  0.7571 -0.6523  0.0360
 
              Baa    -0.0627    -8.420    -3.004    -2.808  0.0418  0.2086  0.9771
    30 C(13)  Bbb    -0.0436    -5.845    -2.086    -1.950  0.1295  0.9686 -0.2123
              Bcc     0.1063    14.264     5.090     4.758  0.9907 -0.1354 -0.0134
 
              Baa    -0.0273    -3.668    -1.309    -1.223  0.0479 -0.0902  0.9948
    31 C(13)  Bbb    -0.0076    -1.020    -0.364    -0.340  0.6751  0.7369  0.0343
              Bcc     0.0349     4.688     1.673     1.564  0.7362 -0.6699 -0.0962
 
              Baa    -0.0178    -2.393    -0.854    -0.798  0.7106  0.6605  0.2424
    32 C(13)  Bbb    -0.0057    -0.759    -0.271    -0.253 -0.0057 -0.3391  0.9407
              Bcc     0.0235     3.151     1.124     1.051  0.7035 -0.6699 -0.2372
 
              Baa    -0.0861   -11.552    -4.122    -3.853  0.0440  0.0094  0.9990
    33 C(13)  Bbb    -0.0277    -3.722    -1.328    -1.241  0.9778  0.2046 -0.0450
              Bcc     0.1138    15.273     5.450     5.095 -0.2048  0.9788 -0.0002
 
              Baa    -0.0064    -0.857    -0.306    -0.286  0.1303  0.2300  0.9644
    34 C(13)  Bbb    -0.0056    -0.747    -0.267    -0.249  0.3313  0.9067 -0.2610
              Bcc     0.0120     1.604     0.572     0.535  0.9345 -0.3535 -0.0420
 
              Baa    -0.0056    -0.747    -0.266    -0.249  0.8619  0.3721 -0.3446
    35 C(13)  Bbb    -0.0047    -0.634    -0.226    -0.211  0.2823  0.2126  0.9355
              Bcc     0.0103     1.380     0.492     0.460 -0.4213  0.9035 -0.0782
 
              Baa    -0.0031    -0.411    -0.147    -0.137  0.4738  0.3285  0.8171
    36 C(13)  Bbb    -0.0027    -0.365    -0.130    -0.122  0.5940  0.5658 -0.5719
              Bcc     0.0058     0.776     0.277     0.259 -0.6501  0.7563  0.0729
 
              Baa    -0.1313    -5.062    -1.806    -1.689 -0.6803  0.7261 -0.1000
    37 N(14)  Bbb    -0.0505    -1.949    -0.695    -0.650  0.0332  0.1668  0.9854
              Bcc     0.1818     7.011     2.502     2.339  0.7322  0.6670 -0.1376
 
              Baa    -0.0660    -8.861    -3.162    -2.956 -0.0511  0.1565  0.9864
    38 C(13)  Bbb     0.0002     0.024     0.009     0.008  0.9053 -0.4098  0.1119
              Bcc     0.0659     8.837     3.153     2.948  0.4217  0.8987 -0.1207
 
              Baa    -0.0245    -3.283    -1.171    -1.095  0.7813 -0.6128  0.1183
    39 C(13)  Bbb     0.0007     0.098     0.035     0.033  0.6194  0.7847 -0.0258
              Bcc     0.0237     3.185     1.136     1.062 -0.0770  0.0934  0.9926
 
              Baa    -0.0538    -7.226    -2.578    -2.410 -0.0115  0.1279  0.9917
    40 C(13)  Bbb     0.0158     2.120     0.757     0.707 -0.6249  0.7734 -0.1070
              Bcc     0.0380     5.105     1.822     1.703  0.7807  0.6209 -0.0710
 
              Baa    -0.0225    -3.025    -1.079    -1.009 -0.1974  0.9714 -0.1319
    41 C(13)  Bbb    -0.0182    -2.438    -0.870    -0.813  0.0104  0.1366  0.9906
              Bcc     0.0407     5.463     1.949     1.822  0.9803  0.1942 -0.0371
 
              Baa    -0.0040    -0.542    -0.193    -0.181  0.8951 -0.4301  0.1177
    42 C(13)  Bbb    -0.0028    -0.378    -0.135    -0.126 -0.0502  0.1651  0.9850
              Bcc     0.0069     0.920     0.328     0.307  0.4431  0.8876 -0.1262
 
              Baa    -0.0046    -0.615    -0.220    -0.205 -0.0082  0.0890  0.9960
    43 C(13)  Bbb    -0.0032    -0.434    -0.155    -0.145 -0.4145  0.9061 -0.0844
              Bcc     0.0078     1.049     0.374     0.350  0.9100  0.4136 -0.0295
 
              Baa    -0.0035    -0.468    -0.167    -0.156  0.1098 -0.0386  0.9932
    44 C(13)  Bbb    -0.0009    -0.116    -0.042    -0.039 -0.4618  0.8829  0.0854
              Bcc     0.0044     0.585     0.209     0.195  0.8802  0.4680 -0.0791
 
              Baa    -0.0010    -0.129    -0.046    -0.043 -0.4516  0.7394  0.4993
    45 C(13)  Bbb    -0.0009    -0.121    -0.043    -0.040  0.0761 -0.5256  0.8473
              Bcc     0.0019     0.250     0.089     0.083  0.8890  0.4206  0.1811
 
              Baa    -0.0004     0.032     0.011     0.011 -0.5242  0.1372  0.8405
    46 O(17)  Bbb    -0.0002     0.017     0.006     0.006 -0.3352  0.8740 -0.3517
              Bcc     0.0007    -0.049    -0.017    -0.016  0.7829  0.4661  0.4122
 
              Baa    -0.0010     0.070     0.025     0.023 -0.2899  0.7978  0.5287
    47 O(17)  Bbb    -0.0008     0.057     0.020     0.019  0.1467 -0.5089  0.8483
              Bcc     0.0018    -0.127    -0.045    -0.042  0.9457  0.3235  0.0305
 
              Baa    -0.0051    -2.739    -0.977    -0.914 -0.0262 -0.1792  0.9835
    48 H(1)   Bbb    -0.0050    -2.692    -0.961    -0.898  0.0040  0.9838  0.1794
              Bcc     0.0102     5.432     1.938     1.812  0.9996 -0.0087  0.0250
 
              Baa    -0.0061    -3.229    -1.152    -1.077  0.9825  0.1793  0.0513
    49 H(1)   Bbb    -0.0055    -2.926    -1.044    -0.976 -0.0497 -0.0134  0.9987
              Bcc     0.0115     6.154     2.196     2.053 -0.1797  0.9837  0.0042
 
              Baa    -0.0093    -4.955    -1.768    -1.653 -0.0398  0.2024  0.9785
    50 H(1)   Bbb    -0.0087    -4.656    -1.662    -1.553 -0.1233  0.9708 -0.2059
              Bcc     0.0180     9.612     3.430     3.206  0.9916  0.1288  0.0137
 
              Baa    -0.0085    -4.558    -1.627    -1.520  0.9893 -0.0600 -0.1331
    51 H(1)   Bbb    -0.0084    -4.496    -1.604    -1.500  0.1410  0.1564  0.9776
              Bcc     0.0170     9.054     3.231     3.020  0.0378  0.9859 -0.1632
 
              Baa    -0.0024    -1.295    -0.462    -0.432  0.5721  0.4558  0.6819
    52 H(1)   Bbb    -0.0023    -1.238    -0.442    -0.413 -0.6658 -0.2274  0.7106
              Bcc     0.0047     2.533     0.904     0.845 -0.4790  0.8605 -0.1734
 
              Baa    -0.0019    -1.000    -0.357    -0.334 -0.1215 -0.0467  0.9915
    53 H(1)   Bbb    -0.0018    -0.982    -0.350    -0.328  0.7442  0.6567  0.1221
              Bcc     0.0037     1.982     0.707     0.661 -0.6568  0.7527 -0.0450
 
              Baa    -0.0024    -1.280    -0.457    -0.427 -0.5401 -0.3809  0.7505
    54 H(1)   Bbb    -0.0023    -1.217    -0.434    -0.406  0.6870  0.3156  0.6546
              Bcc     0.0047     2.496     0.891     0.833 -0.4862  0.8691  0.0912
 
              Baa    -0.0018    -0.978    -0.349    -0.326  0.1743  0.4944  0.8516
    55 H(1)   Bbb    -0.0017    -0.925    -0.330    -0.309  0.4875  0.7081 -0.5108
              Bcc     0.0036     1.903     0.679     0.635  0.8555 -0.5042  0.1176
 
              Baa    -0.0024    -1.258    -0.449    -0.420  0.3204  0.8255 -0.4646
    56 H(1)   Bbb    -0.0023    -1.208    -0.431    -0.403  0.0349  0.4798  0.8767
              Bcc     0.0046     2.466     0.880     0.823  0.9466 -0.2971  0.1249
 
              Baa    -0.0020    -1.059    -0.378    -0.353  0.1581  0.8783 -0.4513
    57 H(1)   Bbb    -0.0019    -1.024    -0.365    -0.341  0.3265  0.3848  0.8633
              Bcc     0.0039     2.082     0.743     0.695  0.9319 -0.2838 -0.2260
 
              Baa    -0.0016    -0.870    -0.310    -0.290  0.4437  0.4477  0.7763
    58 H(1)   Bbb    -0.0016    -0.827    -0.295    -0.276  0.2837  0.7516 -0.5955
              Bcc     0.0032     1.697     0.606     0.566  0.8501 -0.4845 -0.2065
 
              Baa    -0.0027    -1.417    -0.506    -0.473  0.8363 -0.2668 -0.4791
    59 H(1)   Bbb    -0.0025    -1.315    -0.469    -0.439  0.4135 -0.2670  0.8705
              Bcc     0.0051     2.732     0.975     0.911  0.3601  0.9260  0.1130
 
              Baa    -0.0027    -1.450    -0.517    -0.484  0.8740 -0.2639  0.4081
    60 H(1)   Bbb    -0.0025    -1.347    -0.481    -0.449 -0.3267  0.3026  0.8954
              Bcc     0.0052     2.797     0.998     0.933  0.3598  0.9158 -0.1783
 
              Baa    -0.0032    -1.728    -0.617    -0.577 -0.0614  0.0402  0.9973
    61 H(1)   Bbb    -0.0029    -1.548    -0.553    -0.517  0.9889 -0.1328  0.0663
              Bcc     0.0061     3.277     1.169     1.093  0.1351  0.9903 -0.0316
 
              Baa    -0.0035    -1.850    -0.660    -0.617 -0.3015  0.1937  0.9336
    62 H(1)   Bbb    -0.0032    -1.731    -0.618    -0.577 -0.4377  0.8417 -0.3161
              Bcc     0.0067     3.581     1.278     1.195  0.8470  0.5039  0.1690
 
              Baa    -0.0019    -1.032    -0.368    -0.344  0.0857 -0.1044  0.9908
    63 H(1)   Bbb    -0.0019    -1.004    -0.358    -0.335  0.7365 -0.6631 -0.1336
              Bcc     0.0038     2.035     0.726     0.679  0.6710  0.7412  0.0201
 
              Baa    -0.0015    -0.826    -0.295    -0.276 -0.0503  0.1771  0.9829
    64 H(1)   Bbb    -0.0015    -0.797    -0.284    -0.266 -0.5935  0.7863 -0.1721
              Bcc     0.0030     1.623     0.579     0.541  0.8033  0.5920 -0.0656
 
              Baa    -0.0021    -1.098    -0.392    -0.366 -0.5894  0.7154  0.3753
    65 H(1)   Bbb    -0.0020    -1.093    -0.390    -0.364  0.4147 -0.1308  0.9005
              Bcc     0.0041     2.191     0.782     0.731  0.6933  0.6864 -0.2196
 
              Baa    -0.0034    -1.828    -0.652    -0.610  0.4137  0.9073  0.0750
    66 H(1)   Bbb    -0.0032    -1.686    -0.601    -0.562 -0.1880  0.0045  0.9822
              Bcc     0.0066     3.513     1.254     1.172  0.8908 -0.4204  0.1725
 
              Baa    -0.0035    -1.884    -0.672    -0.628  0.3346  0.8106 -0.4806
    67 H(1)   Bbb    -0.0031    -1.671    -0.596    -0.557  0.3257  0.3791  0.8662
              Bcc     0.0067     3.554     1.268     1.186  0.8843 -0.4464 -0.1371
 
              Baa    -0.0046    -2.439    -0.870    -0.814  0.0391  0.1557  0.9870
    68 H(1)   Bbb    -0.0040    -2.118    -0.756    -0.706  0.1871  0.9692 -0.1603
              Bcc     0.0085     4.557     1.626     1.520  0.9816 -0.1910 -0.0088
 
              Baa    -0.0042    -2.258    -0.806    -0.753 -0.2913 -0.1288  0.9479
    69 H(1)   Bbb    -0.0037    -1.954    -0.697    -0.652  0.9068  0.2783  0.3165
              Bcc     0.0079     4.212     1.503     1.405 -0.3046  0.9518  0.0358
 
              Baa    -0.0019    -1.031    -0.368    -0.344  0.6177  0.4899 -0.6152
    70 H(1)   Bbb    -0.0018    -0.948    -0.338    -0.316  0.5778  0.2480  0.7776
              Bcc     0.0037     1.979     0.706     0.660 -0.5335  0.8357  0.1299
 
              Baa    -0.0026    -1.386    -0.495    -0.462  0.2998  0.2073  0.9312
    71 H(1)   Bbb    -0.0022    -1.198    -0.428    -0.400  0.6306  0.6894 -0.3565
              Bcc     0.0048     2.585     0.922     0.862  0.7159 -0.6941 -0.0760
 
              Baa    -0.0018    -0.966    -0.345    -0.322  0.7872  0.6160 -0.0275
    72 H(1)   Bbb    -0.0017    -0.900    -0.321    -0.300 -0.0471  0.1046  0.9934
              Bcc     0.0035     1.865     0.666     0.622 -0.6149  0.7807 -0.1113
 
              Baa    -0.0028    -1.520    -0.542    -0.507  0.8267 -0.4832 -0.2882
    73 H(1)   Bbb    -0.0026    -1.398    -0.499    -0.466  0.2275 -0.1813  0.9567
              Bcc     0.0055     2.919     1.041     0.974  0.5146  0.8565  0.0400
 
              Baa    -0.0036    -1.903    -0.679    -0.635 -0.0426  0.1608  0.9861
    74 H(1)   Bbb    -0.0033    -1.737    -0.620    -0.579  0.9491 -0.3018  0.0903
              Bcc     0.0068     3.640     1.299     1.214  0.3122  0.9397 -0.1397
 
              Baa    -0.0028    -1.493    -0.533    -0.498  0.8006 -0.3630  0.4767
    75 H(1)   Bbb    -0.0026    -1.392    -0.497    -0.464 -0.2880  0.4644  0.8375
              Bcc     0.0054     2.885     1.030     0.962  0.5254  0.8078 -0.2673
 
              Baa    -0.0021    -1.139    -0.406    -0.380 -0.1840  0.5137  0.8380
    76 H(1)   Bbb    -0.0017    -0.930    -0.332    -0.310 -0.4934  0.6891 -0.5308
              Bcc     0.0039     2.068     0.738     0.690  0.8501  0.5111 -0.1267
 
              Baa    -0.0025    -1.349    -0.481    -0.450  0.2877 -0.5175  0.8059
    77 H(1)   Bbb    -0.0023    -1.250    -0.446    -0.417 -0.2122  0.7861  0.5805
              Bcc     0.0049     2.599     0.927     0.867  0.9339  0.3380 -0.1163
 
              Baa    -0.0029    -1.543    -0.551    -0.515 -0.0086 -0.5428  0.8398
    78 H(1)   Bbb    -0.0023    -1.238    -0.442    -0.413 -0.4404  0.7561  0.4841
              Bcc     0.0052     2.781     0.992     0.928  0.8977  0.3657  0.2456
 
              Baa    -0.0023    -1.215    -0.433    -0.405 -0.4905  0.5019  0.7124
    79 H(1)   Bbb    -0.0018    -0.941    -0.336    -0.314  0.2909 -0.6763  0.6767
              Bcc     0.0040     2.156     0.769     0.719  0.8215  0.5392  0.1857
 
              Baa    -0.0006    -0.309    -0.110    -0.103  0.4032  0.8703  0.2828
    80 H(1)   Bbb    -0.0006    -0.307    -0.110    -0.102  0.0772 -0.3403  0.9371
              Bcc     0.0012     0.616     0.220     0.206  0.9118 -0.3561 -0.2044
 
              Baa    -0.0009    -0.499    -0.178    -0.166 -0.2044  0.7947  0.5716
    81 H(1)   Bbb    -0.0009    -0.489    -0.174    -0.163  0.1239 -0.5582  0.8204
              Bcc     0.0019     0.988     0.352     0.330  0.9710  0.2385  0.0156
 
              Baa    -0.0037    -1.997    -0.713    -0.666  0.7157  0.5039  0.4836
    82 H(1)   Bbb    -0.0033    -1.773    -0.633    -0.591 -0.5650  0.0107  0.8251
              Bcc     0.0071     3.770     1.345     1.258 -0.4106  0.8637 -0.2923
 
              Baa    -0.0039    -2.102    -0.750    -0.701  0.1958 -0.0790  0.9775
    83 H(1)   Bbb    -0.0038    -2.001    -0.714    -0.668 -0.4165  0.8957  0.1558
              Bcc     0.0077     4.103     1.464     1.369  0.8878  0.4376 -0.1424
 
              Baa    -0.0110    -5.854    -2.089    -1.953 -0.5360  0.6982  0.4746
    84 H(1)   Bbb    -0.0088    -4.670    -1.666    -1.558  0.5757  0.7134 -0.3995
              Bcc     0.0197    10.524     3.755     3.510  0.6175 -0.0591  0.7843
 
              Baa    -0.0196   -10.434    -3.723    -3.480  0.3344  0.9398 -0.0706
    85 H(1)   Bbb    -0.0170    -9.081    -3.240    -3.029  0.8809 -0.2850  0.3778
              Bcc     0.0366    19.515     6.963     6.510 -0.3349  0.1885  0.9232
 

 ---------------------------------------------------------------------------------

 1\1\GINC-NODE468\SP\UPBE1PBE\def2TZVP\C35H40Fe1N4O4S1(5)\KLEICH\13-Sep
 -2022\0\\# PBE1PBE/def2TZVP empiricaldispersion=GD3BJ int=(grid=ultraf
 ine) geom=check guess=read scrf=(smd,solvent=Chloroform)\\7abb_II_Q_so
 lv\\0,5\C,0,19.013,33.007,0.\S,0,17.62,31.94,-0.421\H,0,19.81865645,32
 .82697525,-0.68074134\H,0,19.33539499,32.7954738,0.99810728\Fe,0,17.27
 331395,31.37270864,-2.48664501\C,0,18.753,34.761,-3.605\C,0,20.928,30.
 569,-2.703\C,0,16.619,28.513,-1.706\C,0,14.422,32.593,-3.008\N,0,19.45
 1,32.483,-3.087\C,0,19.714,33.814,-3.411\C,0,21.136,34.059,-3.537\C,0,
 21.722,32.878,-3.27\C,0,20.699,31.899,-2.995\C,0,23.225,32.546,-3.277\
 C,0,21.834,35.427,-3.866\C,0,22.008,35.691,-5.356\C,0,22.739,37.007,-5
 .561\O,0,22.829,37.384,-6.752\O,0,23.192,37.61,-4.553\N,0,18.581,29.87
 1,-2.336\C,0,19.945,29.644,-2.353\C,0,20.162,28.294,-1.927\C,0,18.973,
 27.739,-1.629\C,0,17.963,28.702,-1.902\C,0,21.586,27.712,-1.824\C,0,18
 .56,26.368,-1.159\C,0,19.643,25.496,-0.611\N,0,15.858,30.73,-2.443\C,0
 ,15.657,29.463,-1.945\C,0,14.248,29.26,-1.738\C,0,13.604,30.396,-2.089
 \C,0,14.618,31.315,-2.552\C,0,13.652,27.967,-1.178\C,0,12.107,30.747,-
 2.11\C,0,11.13,29.935,-1.26\N,0,16.783,33.33,-3.227\C,0,15.399,33.495,
 -3.284\C,0,15.133,34.842,-3.68\C,0,16.438,35.53,-3.875\C,0,17.419,34.5
 18,-3.549\C,0,13.737,35.445,-3.881\C,0,16.692,36.984,-4.309\C,0,16.819
 ,37.819,-3.058\C,0,17.174,39.248,-3.421\O,0,17.04,40.138,-2.554\O,0,17
 .585,39.463,-4.579\H,0,19.045,35.677,-3.797\H,0,21.854,30.25,-2.744\H,
 0,16.324,27.639,-1.373\H,0,13.495,32.881,-3.147\H,0,23.496,32.239,-2.3
 87\H,0,23.735,33.348,-3.515\H,0,23.4,31.841,-3.935\H,0,22.709,35.435,-
 3.447\H,0,21.303,36.144,-3.486\H,0,21.136,35.736,-5.78\H,0,22.522,34.9
 71,-5.754\H,0,21.665,26.946,-2.414\H,0,21.757,27.436,-0.91\H,0,22.231,
 28.388,-2.083\H,0,18.11075906,25.85713126,-1.98489086\H,0,20.317,25.35
 1,-1.294\H,0,19.267,24.644,-0.341\H,0,20.049,25.929,0.157\H,0,13.04,27
 .586,-1.827\H,0,13.174,28.16,-0.357\H,0,14.365,27.335,-0.997\H,0,12.01
 595685,31.76985339,-1.80936387\H,0,10.686,30.522,-0.628\H,0,11.615,29.
 248,-0.777\H,0,10.468,29.52,-1.835\H,0,13.617,36.201,-3.27\H,0,13.057,
 34.764,-3.696\H,0,13.646,35.755,-4.806\H,0,15.948,37.303,-4.843\H,0,17
 .513,37.036,-4.824\H,0,17.515,37.448,-2.494\H,0,15.976,37.809,-2.578\H
 ,0,23.69272672,37.51045236,-7.15148211\H,0,18.52811134,39.49572655,-4.
 75526675\H,0,11.77832945,30.67761529,-3.12590424\H,0,17.81714643,26.48
 941115,-0.39852126\H,0,18.71094992,34.03124546,-0.06772734\H,0,16.8180
 1705,31.50785892,0.52036998\\Version=ES64L-G16RevA.03\State=5-A\HF=-35
 37.5713089\S2=6.081554\S2-1=0.\S2A=6.000771\RMSD=1.785e-09\Dipole=0.59
 99348,-2.4595506,-0.288064\Quadrupole=22.752459,-32.0788083,9.3263492,
 10.8975274,-18.2801247,-27.9236078\PG=C01 [X(C35H40Fe1N4O4S1)]\\@


 "WOULD YOU TELL ME PLEASE, WHICH WAY I OUGHT TO WALK FROM HERE?"
 "THAT DEPENDS A GREAT DEAL ON WHERE YOU WANT TO GO," SAID THE CAT.
 "I DON'T MUCH CARE WHERE -- ", SAID ALICE.
 "THEN IT DOESN'T MATTER WHICH WAY YOU WALK," SAID THE CAT.

                                      -- LEWIS CARROLL
 Job cpu time:       1 days 21 hours 53 minutes 12.0 seconds.
 Elapsed time:       0 days 11 hours 30 minutes 50.3 seconds.
 File lengths (MBytes):  RWF=   3148 Int=      0 D2E=      0 Chk=    221 Scr=      1
 Normal termination of Gaussian 16 at Tue Sep 13 01:02:06 2022.
