 Entering Gaussian System, Link 0=g16
 Input=/net/homes/chemie/zhartovska/work/BioModel/Konrad/1cxc/1cxc05/Teil1/def2TZVP/nbo/1cxc05.com
 Output=/net/homes/chemie/zhartovska/work/BioModel/Konrad/1cxc/1cxc05/Teil1/def2TZVP/nbo/1cxc05.log
 Initial command:
 /afs/math/software/gaussian/g16.A03/g16/l1.exe "/scratch/zhartovska_gaussian.x6Hb518/Gau-32287.inp" -scrdir="/scratch/zhartovska_gaussian.x6Hb518/"
 Entering Link 1 = /afs/math/software/gaussian/g16.A03/g16/l1.exe PID=     32288.
  
 Copyright (c) 1988,1990,1992,1993,1995,1998,2003,2009,2016,
            Gaussian, Inc.  All Rights Reserved.
  
 This is part of the Gaussian(R) 16 program.  It is based on
 the Gaussian(R) 09 system (copyright 2009, Gaussian, Inc.),
 the Gaussian(R) 03 system (copyright 2003, Gaussian, Inc.),
 the Gaussian(R) 98 system (copyright 1998, Gaussian, Inc.),
 the Gaussian(R) 94 system (copyright 1995, Gaussian, Inc.),
 the Gaussian 92(TM) system (copyright 1992, Gaussian, Inc.),
 the Gaussian 90(TM) system (copyright 1990, Gaussian, Inc.),
 the Gaussian 88(TM) system (copyright 1988, Gaussian, Inc.),
 the Gaussian 86(TM) system (copyright 1986, Carnegie Mellon
 University), and the Gaussian 82(TM) system (copyright 1983,
 Carnegie Mellon University). Gaussian is a federally registered
 trademark of Gaussian, Inc.
  
 This software contains proprietary and confidential information,
 including trade secrets, belonging to Gaussian, Inc.
  
 This software is provided under written license and may be
 used, copied, transmitted, or stored only in accord with that
 written license.
  
 The following legend is applicable only to US Government
 contracts under FAR:
  
                    RESTRICTED RIGHTS LEGEND
  
 Use, reproduction and disclosure by the US Government is
 subject to restrictions as set forth in subparagraphs (a)
 and (c) of the Commercial Computer Software - Restricted
 Rights clause in FAR 52.227-19.
  
 Gaussian, Inc.
 340 Quinnipiac St., Bldg. 40, Wallingford CT 06492
  
  
 ---------------------------------------------------------------
 Warning -- This program may not be used in any manner that
 competes with the business of Gaussian, Inc. or will provide
 assistance to any competitor of Gaussian, Inc.  The licensee
 of this program is prohibited from giving any competitor of
 Gaussian, Inc. access to this program.  By using this program,
 the user acknowledges that Gaussian, Inc. is engaged in the
 business of creating and licensing software in the field of
 computational chemistry and represents and warrants to the
 licensee that it is not a competitor of Gaussian, Inc. and that
 it will not use this program in any manner prohibited above.
 ---------------------------------------------------------------
  

 Cite this work as:
 Gaussian 16, Revision A.03,
 M. J. Frisch, G. W. Trucks, H. B. Schlegel, G. E. Scuseria, 
 M. A. Robb, J. R. Cheeseman, G. Scalmani, V. Barone, 
 G. A. Petersson, H. Nakatsuji, X. Li, M. Caricato, A. V. Marenich, 
 J. Bloino, B. G. Janesko, R. Gomperts, B. Mennucci, H. P. Hratchian, 
 J. V. Ortiz, A. F. Izmaylov, J. L. Sonnenberg, D. Williams-Young, 
 F. Ding, F. Lipparini, F. Egidi, J. Goings, B. Peng, A. Petrone, 
 T. Henderson, D. Ranasinghe, V. G. Zakrzewski, J. Gao, N. Rega, 
 G. Zheng, W. Liang, M. Hada, M. Ehara, K. Toyota, R. Fukuda, 
 J. Hasegawa, M. Ishida, T. Nakajima, Y. Honda, O. Kitao, H. Nakai, 
 T. Vreven, K. Throssell, J. A. Montgomery, Jr., J. E. Peralta, 
 F. Ogliaro, M. J. Bearpark, J. J. Heyd, E. N. Brothers, K. N. Kudin, 
 V. N. Staroverov, T. A. Keith, R. Kobayashi, J. Normand, 
 K. Raghavachari, A. P. Rendell, J. C. Burant, S. S. Iyengar, 
 J. Tomasi, M. Cossi, J. M. Millam, M. Klene, C. Adamo, R. Cammi, 
 J. W. Ochterski, R. L. Martin, K. Morokuma, O. Farkas, 
 J. B. Foresman, and D. J. Fox, Gaussian, Inc., Wallingford CT, 2016.
 
 ******************************************
 Gaussian 16:  ES64L-G16RevA.03 25-Dec-2016
                14-Nov-2022 
 ******************************************
 %nprocs=12
 Will use up to   12 processors via shared memory.
 %mem=16GB
 %oldchk=1cxc_II_Qn.chk
 %chk=1cxc_II_Q.chk
 Copying data from "1cxc_II_Qn.chk" to current chk file "1cxc_II_Q.chk"
 IOpt=  2 FromEx=T IUOpen= 4 IOptOp= 5 NList=   0 IFRang= 0 IUIn= 4 IUOut= 2.
 ----------------------------------------------------------------------
 # PBE1PBE/def2TZVP empiricaldispersion=GD3BJ scf=maxcycle=999 geom=che
 ck pop=nbo guess=read
 ----------------------------------------------------------------------
 1/29=2,38=1,172=1/1;
 2/12=2,40=1/2;
 3/5=44,7=101,11=2,14=-4,25=1,30=1,74=-13,116=-2,124=41/1,2,3;
 4/5=1/1;
 5/5=2,7=999,38=6/2;
 6/7=2,8=2,9=2,10=2,28=1,40=1/1,7;
 99/5=1,9=1/99;
 ---------
 1cxc_II_Q
 ---------
 Structure from the checkpoint file:  "1cxc_II_Q.chk"
 Charge =  0 Multiplicity = 5
 Z-Matrix found in chk file.
 C,0,78.752998,25.169001,20.826
 C,0,79.831001,25.295,19.747
 N,0,79.633003,26.038,18.579
 C,0,81.039001,24.628,19.697001
 C,0,80.745003,25.796,17.85
 N,0,81.569,24.989,18.445
 C,0,87.301003,25.139999,16.516001
 C,0,86.764999,24.030001,17.419001
 S,0,85.233002,23.263,16.796
 C,0,85.511002,21.620001,17.33
 Fe,0,83.263,24.167999,17.721001
 C,0,82.996002,25.962999,14.866
 C,0,81.308998,21.716,16.389999
 C,0,83.694,22.281,20.549999
 C,0,84.963997,26.739,19.207001
 N,0,82.372002,23.871,15.983
 C,0,82.376999,24.725,14.891
 C,0,81.637001,24.15,13.781
 C,0,81.183998,22.943001,14.193
 C,0,81.616997,22.796,15.572
 C,0,80.466003,21.92,13.324
 C,0,81.334999,24.801001,12.439
 C,0,79.931,25.385,12.44
 C,0,79.619003,26.367001,11.322
 O,0,78.959999,27.35,11.59
 O,0,80.199997,26.236,10.25
 N,0,82.657997,22.391001,18.323
 C,0,81.778999,21.535999,17.674
 C,0,81.483002,20.371,18.490999
 C,0,82.213997,20.472,19.645
 C,0,82.927002,21.74,19.533001
 C,0,80.526001,19.236,18.107
 C,0,82.306999,19.500999,20.683001
 C,0,82.9152898,18.11683185,20.39031754
 N,0,84.172997,24.438999,19.468
 C,0,84.263,23.537001,20.524
 C,0,84.920998,24.139999,21.666
 C,0,85.278,25.389999,21.291
 C,0,84.799004,25.573999,19.934999
 C,0,84.983002,23.559,23.070999
 C,0,85.932999,26.341,22.066999
 C,0,87.223999,26.094999,22.693001
 N,0,83.831001,25.954,17.169001
 C,0,84.523003,26.914,17.905001
 C,0,84.813004,28.082001,17.101999
 C,0,84.324997,27.841,15.865
 C,0,83.692001,26.537001,15.919
 C,0,85.566002,29.334,17.547001
 C,0,84.656998,28.629,14.607
 C,0,85.712997,27.910999,13.768
 C,0,86.494003,28.816999,12.805
 O,0,87.511002,28.375999,12.29
 O,0,85.924004,29.778,12.316
 H,0,86.43022184,21.57302177,17.87564443
 H,0,84.70511162,21.30901652,17.9614502
 H,0,85.56766673,20.97328741,16.47944098
 H,0,88.24425242,24.84304872,16.10734336
 H,0,86.60798121,25.31851601,15.7205436
 H,0,87.42611681,26.03571797,17.08778248
 H,0,87.51439658,23.27176807,17.51057656
 H,0,86.57236195,24.44057225,18.38813578
 H,0,79.12190644,25.56925979,21.74719458
 H,0,77.88163149,25.71201109,20.52473527
 H,0,78.50176896,24.13763976,20.96045431
 H,0,78.8513545,26.61378281,18.3392089
 H,0,80.92646676,26.22368306,16.8861234
 H,0,81.47066703,23.9869344,20.43700056
 H,0,81.95421749,19.73332004,21.66609415
 H,0,83.85878024,18.02952899,20.88741311
 H,0,82.25356177,17.35428537,20.7446322
 H,0,83.05617101,18.00495467,19.33554933
 H,0,80.98605398,18.29389506,18.32075109
 H,0,79.62077427,19.3268281,18.67021828
 H,0,80.30341413,19.29531498,17.06209004
 H,0,83.85757957,21.68066302,21.42048003
 H,0,85.87046113,23.90254227,23.56017689
 H,0,84.12460964,23.87533449,23.62597201
 H,0,84.99753538,22.4905747,23.01481931
 H,0,87.94397837,26.78756088,22.30974163
 H,0,87.13664338,26.22080101,23.75198299
 H,0,87.54031088,25.09581473,22.4774144
 H,0,85.46791514,27.29400028,22.20978369
 H,0,85.46455636,27.55789718,19.68002081
 H,0,80.65692379,20.96616905,15.9931958
 H,0,81.06813756,21.03969104,13.23803423
 H,0,79.52741006,21.66781123,13.77159817
 H,0,80.29777381,22.33341767,12.35153675
 H,0,82.043032,25.58246942,12.25762642
 H,0,81.41219975,24.06689388,11.66438604
 H,0,79.23398844,24.57568552,12.37608641
 H,0,79.77924741,25.88484069,13.3738257
 H,0,81.15956392,26.2325026,10.22138026
 H,0,82.93195666,26.52437317,13.95734317
 H,0,86.50193577,29.38944365,17.03139071
 H,0,84.98176819,30.20117925,17.31990848
 H,0,85.74185198,29.28852686,18.60147195
 H,0,85.02679343,29.59378163,14.88511463
 H,0,83.7680099,28.74897633,14.02372833
 H,0,86.41026659,27.44356199,14.43148908
 H,0,85.22748885,27.14886917,13.19499044
 H,0,86.43468283,30.50249908,11.94734268
 Recover connectivity data from disk.
 Stoichiometry    C41H48FeN6O4S(5)
 Framework group  C1[X(C41H48FeN6O4S)]
 Deg. of freedom   297
 Full point group                 C1      NOp   1
 Largest Abelian subgroup         C1      NOp   1
 Largest concise Abelian subgroup C1      NOp   1
                         Standard orientation:                         
 ---------------------------------------------------------------------
 Center     Atomic      Atomic             Coordinates (Angstroms)
 Number     Number       Type             X           Y           Z
 ---------------------------------------------------------------------
      1          6           0        2.696950   -1.802421    4.862558
      2          6           0        1.755409   -1.282022    3.774029
      3          7           0        0.364424   -1.370551    3.887166
      4          6           0        2.109695   -0.798069    2.530276
      5          6           0       -0.085529   -0.928021    2.692068
      6          7           0        0.875895   -0.600703    1.884125
      7          6           0       -0.614060    3.099490   -2.664315
      8          6           0        0.712625    2.342734   -2.619238
      9         16           0        0.519372    0.555136   -2.318269
     10          6           0        1.842575   -0.033833   -3.300173
     11         26           0        0.755783   -0.067386   -0.057266
     12          6           0       -2.624426   -0.135793    0.060431
     13          6           0        0.820637   -3.390412   -0.802439
     14          6           0        4.168467    0.059620   -0.352581
     15          6           0        0.750698    3.189102    0.994823
     16          7           0       -0.606837   -1.466726   -0.353662
     17          6           0       -1.982683   -1.315000   -0.277306
     18          6           0       -2.658953   -2.562205   -0.589497
     19          6           0       -1.696791   -3.474485   -0.861144
     20          6           0       -0.427221   -2.792289   -0.678007
     21          6           0       -1.933142   -4.891036   -1.365853
     22          6           0       -4.154488   -2.838469   -0.534509
     23          6           0       -4.515216   -3.532218    0.769660
     24          6           0       -5.992850   -3.547930    1.127351
     25          8           0       -6.303814   -3.368755    2.286486
     26          8           0       -6.814597   -3.544247    0.217068
     27          7           0        2.170944   -1.366176   -0.500680
     28          6           0        2.027952   -2.731208   -0.703436
     29          6           0        3.319770   -3.370873   -0.888791
     30          6           0        4.280354   -2.395356   -0.845012
     31          6           0        3.552636   -1.157257   -0.587559
     32          6           0        3.545480   -4.872386   -1.103371
     33          6           0        5.675172   -2.561132   -1.081529
     34          6           0        6.172237   -3.022260   -2.464239
     35          7           0        2.140401    1.333608    0.214006
     36          6           0        3.514454    1.212135    0.029454
     37          6           0        4.200065    2.425612    0.427126
     38          6           0        3.243115    3.304280    0.804968
     39          6           0        1.971984    2.617356    0.684988
     40          6           0        5.703040    2.586150    0.602399
     41          6           0        3.435187    4.601558    1.269489
     42          6           0        4.149461    5.614921    0.506610
     43          7           0       -0.622963    1.225613    0.437044
     44          6           0       -0.468171    2.542545    0.865871
     45          6           0       -1.749869    3.184099    1.062841
     46          6           0       -2.698313    2.278760    0.735407
     47          6           0       -1.998005    1.059743    0.378225
     48          6           0       -1.992886    4.623551    1.511678
     49          6           0       -4.167940    2.579401    0.483323
     50          6           0       -4.465699    2.664210   -1.012915
     51          6           0       -5.727189    3.462400   -1.373069
     52          8           0       -5.894836    3.787021   -2.539477
     53          8           0       -6.668257    3.448155   -0.597356
     54          1           0        2.369471    0.795750   -3.723343
     55          1           0        2.510189   -0.607626   -2.691936
     56          1           0        1.457190   -0.649772   -4.085665
     57          1           0       -0.769186    3.489064   -3.648727
     58          1           0       -1.413275    2.433427   -2.414286
     59          1           0       -0.588741    3.905905   -1.961496
     60          1           0        1.216519    2.479847   -3.553150
     61          1           0        1.316691    2.757532   -1.839528
     62          1           0        3.288347   -0.994038    5.238945
     63          1           0        2.121616   -2.224785    5.659740
     64          1           0        3.339166   -2.552276    4.450034
     65          1           0       -0.171961   -1.687256    4.669463
     66          1           0       -1.122694   -0.855360    2.439265
     67          1           0        3.092232   -0.615913    2.147732
     68          1           0        6.377580   -2.365267   -0.298484
     69          1           0        6.679769   -2.214288   -2.948484
     70          1           0        6.844983   -3.845727   -2.345012
     71          1           0        5.337323   -3.327160   -3.059936
     72          1           0        4.237634   -5.017855   -1.906280
     73          1           0        3.941370   -5.305034   -0.208392
     74          1           0        2.614930   -5.341971   -1.345167
     75          1           0        5.230083    0.109981   -0.476414
     76          1           0        5.976872    3.604023    0.418415
     77          1           0        5.976209    2.318352    1.601680
     78          1           0        6.212904    1.948961   -0.089648
     79          1           0        3.490907    6.430803    0.293203
     80          1           0        4.982879    5.968980    1.076659
     81          1           0        4.499615    5.189842   -0.410777
     82          1           0        3.041023    4.865719    2.228527
     83          1           0        0.747155    4.195751    1.357513
     84          1           0        0.846967   -4.443607   -0.989487
     85          1           0       -1.522890   -4.992525   -2.348856
     86          1           0       -1.458276   -5.588123   -0.707468
     87          1           0       -2.984393   -5.088170   -1.396003
     88          1           0       -4.687822   -1.913345   -0.602343
     89          1           0       -4.428737   -3.466018   -1.356621
     90          1           0       -4.175970   -4.545401    0.712444
     91          1           0       -3.986135   -3.046064    1.562521
     92          1           0       -6.798182   -2.846027   -0.441583
     93          1           0       -3.694218   -0.147930    0.077705
     94          1           0       -2.423229    5.180597    0.705821
     95          1           0       -2.662383    4.628693    2.346331
     96          1           0       -1.063303    5.069843    1.797335
     97          1           0       -4.418987    3.511919    0.944069
     98          1           0       -4.763743    1.802953    0.915811
     99          1           0       -3.628123    3.120211   -1.498127
    100          1           0       -4.576369    1.669616   -1.391642
    101          1           0       -7.339523    4.132833   -0.644439
 ---------------------------------------------------------------------
 Rotational constants (GHZ):           0.0637788           0.0447909           0.0339875
 Standard basis: def2TZVP (5D, 7F)
 There are  2218 symmetry adapted cartesian basis functions of A   symmetry.
 There are  1951 symmetry adapted basis functions of A   symmetry.
  1951 basis functions,  3156 primitive gaussians,  2218 cartesian basis functions
   207 alpha electrons      203 beta electrons
       nuclear repulsion energy      8961.5051956933 Hartrees.
 NAtoms=  101 NActive=  101 NUniq=  101 SFac= 1.00D+00 NAtFMM=   60 NAOKFM=T Big=T
 Integral buffers will be    131072 words long.
 Raffenetti 2 integral format.
 Two-electron integral symmetry is turned on.
 Nuclear repulsion after empirical dispersion term =     8961.3547778686 Hartrees.
 One-electron integrals computed using PRISM.
   1 Symmetry operations used in ECPInt.
 ECPInt:  NShTT=  305371 NPrTT=  941867 LenC2=  223623 LenP2D=  446174.
 LDataN:  DoStor=T MaxTD1= 6 Len=  172
 NBasis=  1951 RedAO= T EigKep=  2.87D-06  NBF=  1951
 NBsUse=  1951 1.00D-06 EigRej= -1.00D+00 NBFU=  1951
 Initial guess from the checkpoint file:  "1cxc_II_Q.chk"
 B after Tr=    -0.000000    0.000000   -0.000000
         Rot=    1.000000    0.000000   -0.000000    0.000000 Ang=   0.00 deg.
 Initial guess <Sx>= 0.0000 <Sy>= 0.0000 <Sz>= 2.0000 <S**2>= 6.1497 S= 2.0298
 Requested convergence on RMS density matrix=1.00D-08 within 999 cycles.
 Requested convergence on MAX density matrix=1.00D-06.
 Requested convergence on             energy=1.00D-06.
 No special actions if energy rises.
 SCF Done:  E(UPBE1PBE) =  -3880.56407437     A.U. after    1 cycles
            NFock=  1  Conv=0.56D-09     -V/T= 2.0029
 <Sx>= 0.0000 <Sy>= 0.0000 <Sz>= 2.0000 <S**2>= 6.1497 S= 2.0298
 <L.S>= 0.000000000000E+00
 Annihilation of the first spin contaminant:
 S**2 before annihilation     6.1497,   after     6.0043
 Hyperfine terms turned off by default for NAtoms > 100.

 **********************************************************************

            Population analysis using the SCF density.

 **********************************************************************

 Orbital symmetries:
 Alpha Orbitals:
       Occupied  (A) (A) (A) (A) (A) (A) (A) (A) (A) (A) (A) (A)
                 (A) (A) (A) (A) (A) (A) (A) (A) (A) (A) (A) (A)
                 (A) (A) (A) (A) (A) (A) (A) (A) (A) (A) (A) (A)
                 (A) (A) (A) (A) (A) (A) (A) (A) (A) (A) (A) (A)
                 (A) (A) (A) (A) (A) (A) (A) (A) (A) (A) (A) (A)
                 (A) (A) (A) (A) (A) (A) (A) (A) (A) (A) (A) (A)
                 (A) (A) (A) (A) (A) (A) (A) (A) (A) (A) (A) (A)
                 (A) (A) (A) (A) (A) (A) (A) (A) (A) (A) (A) (A)
                 (A) (A) (A) (A) (A) (A) (A) (A) (A) (A) (A) (A)
                 (A) (A) (A) (A) (A) (A) (A) (A) (A) (A) (A) (A)
                 (A) (A) (A) (A) (A) (A) (A) (A) (A) (A) (A) (A)
                 (A) (A) (A) (A) (A) (A) (A) (A) (A) (A) (A) (A)
                 (A) (A) (A) (A) (A) (A) (A) (A) (A) (A) (A) (A)
                 (A) (A) (A) (A) (A) (A) (A) (A) (A) (A) (A) (A)
                 (A) (A) (A) (A) (A) (A) (A) (A) (A) (A) (A) (A)
                 (A) (A) (A) (A) (A) (A) (A) (A) (A) (A) (A) (A)
                 (A) (A) (A) (A) (A) (A) (A) (A) (A) (A) (A) (A)
                 (A) (A) (A)
       Virtual   (A) (A) (A) (A) (A) (A) (A) (A) (A) (A) (A) (A)
                 (A) (A) (A) (A) (A) (A) (A) (A) (A) (A) (A) (A)
                 (A) (A) (A) (A) (A) (A) (A) (A) (A) (A) (A) (A)
                 (A) (A) (A) (A) (A) (A) (A) (A) (A) (A) (A) (A)
                 (A) (A) (A) (A) (A) (A) (A) (A) (A) (A) (A) (A)
                 (A) (A) (A) (A) (A) (A) (A) (A) (A) (A) (A) (A)
                 (A) (A) (A) (A) (A) (A) (A) (A) (A) (A) (A) (A)
                 (A) (A) (A) (A) (A) (A) (A) (A) (A) (A) (A) (A)
                 (A) (A) (A) (A) (A) (A) (A) (A) (A) (A) (A) (A)
                 (A) (A) (A) (A) (A) (A) (A) (A) (A) (A) (A) (A)
                 (A) (A) (A) (A) (A) (A) (A) (A) (A) (A) (A) (A)
                 (A) (A) (A) (A) (A) (A) (A) (A) (A) (A) (A) (A)
                 (A) (A) (A) (A) (A) (A) (A) (A) (A) (A) (A) (A)
                 (A) (A) (A) (A) (A) (A) (A) (A) (A) (A) (A) (A)
                 (A) (A) (A) (A) (A) (A) (A) (A) (A) (A) (A) (A)
                 (A) (A) (A) (A) (A) (A) (A) (A) (A) (A) (A) (A)
                 (A) (A) (A) (A) (A) (A) (A) (A) (A) (A) (A) (A)
                 (A) (A) (A) (A) (A) (A) (A) (A) (A) (A) (A) (A)
                 (A) (A) (A) (A) (A) (A) (A) (A) (A) (A) (A) (A)
                 (A) (A) (A) (A) (A) (A) (A) (A) (A) (A) (A) (A)
                 (A) (A) (A) (A) (A) (A) (A) (A) (A) (A) (A) (A)
                 (A) (A) (A) (A) (A) (A) (A) (A) (A) (A) (A) (A)
                 (A) (A) (A) (A) (A) (A) (A) (A) (A) (A) (A) (A)
                 (A) (A) (A) (A) (A) (A) (A) (A) (A) (A) (A) (A)
                 (A) (A) (A) (A) (A) (A) (A) (A) (A) (A) (A) (A)
                 (A) (A) (A) (A) (A) (A) (A) (A) (A) (A) (A) (A)
                 (A) (A) (A) (A) (A) (A) (A) (A) (A) (A) (A) (A)
                 (A) (A) (A) (A) (A) (A) (A) (A) (A) (A) (A) (A)
                 (A) (A) (A) (A) (A) (A) (A) (A) (A) (A) (A) (A)
                 (A) (A) (A) (A) (A) (A) (A) (A) (A) (A) (A) (A)
                 (A) (A) (A) (A) (A) (A) (A) (A) (A) (A) (A) (A)
                 (A) (A) (A) (A) (A) (A) (A) (A) (A) (A) (A) (A)
                 (A) (A) (A) (A) (A) (A) (A) (A) (A) (A) (A) (A)
                 (A) (A) (A) (A) (A) (A) (A) (A) (A) (A) (A) (A)
                 (A) (A) (A) (A) (A) (A) (A) (A) (A) (A) (A) (A)
                 (A) (A) (A) (A) (A) (A) (A) (A) (A) (A) (A) (A)
                 (A) (A) (A) (A) (A) (A) (A) (A) (A) (A) (A) (A)
                 (A) (A) (A) (A) (A) (A) (A) (A) (A) (A) (A) (A)
                 (A) (A) (A) (A) (A) (A) (A) (A) (A) (A) (A) (A)
                 (A) (A) (A) (A) (A) (A) (A) (A) (A) (A) (A) (A)
                 (A) (A) (A) (A) (A) (A) (A) (A) (A) (A) (A) (A)
                 (A) (A) (A) (A) (A) (A) (A) (A) (A) (A) (A) (A)
                 (A) (A) (A) (A) (A) (A) (A) (A) (A) (A) (A) (A)
                 (A) (A) (A) (A) (A) (A) (A) (A) (A) (A) (A) (A)
                 (A) (A) (A) (A) (A) (A) (A) (A) (A) (A) (A) (A)
                 (A) (A) (A) (A) (A) (A) (A) (A) (A) (A) (A) (A)
                 (A) (A) (A) (A) (A) (A) (A) (A) (A) (A) (A) (A)
                 (A) (A) (A) (A) (A) (A) (A) (A) (A) (A) (A) (A)
                 (A) (A) (A) (A) (A) (A) (A) (A) (A) (A) (A) (A)
                 (A) (A) (A) (A) (A) (A) (A) (A) (A) (A) (A) (A)
                 (A) (A) (A) (A) (A) (A) (A) (A) (A) (A) (A) (A)
                 (A) (A) (A) (A) (A) (A) (A) (A) (A) (A) (A) (A)
                 (A) (A) (A) (A) (A) (A) (A) (A) (A) (A) (A) (A)
                 (A) (A) (A) (A) (A) (A) (A) (A) (A) (A) (A) (A)
                 (A) (A) (A) (A) (A) (A) (A) (A) (A) (A) (A) (A)
                 (A) (A) (A) (A) (A) (A) (A) (A) (A) (A) (A) (A)
                 (A) (A) (A) (A) (A) (A) (A) (A) (A) (A) (A) (A)
                 (A) (A) (A) (A) (A) (A) (A) (A) (A) (A) (A) (A)
                 (A) (A) (A) (A) (A) (A) (A) (A) (A) (A) (A) (A)
                 (A) (A) (A) (A) (A) (A) (A) (A) (A) (A) (A) (A)
                 (A) (A) (A) (A) (A) (A) (A) (A) (A) (A) (A) (A)
                 (A) (A) (A) (A) (A) (A) (A) (A) (A) (A) (A) (A)
                 (A) (A) (A) (A) (A) (A) (A) (A) (A) (A) (A) (A)
                 (A) (A) (A) (A) (A) (A) (A) (A) (A) (A) (A) (A)
                 (A) (A) (A) (A) (A) (A) (A) (A) (A) (A) (A) (A)
                 (A) (A) (A) (A) (A) (A) (A) (A) (A) (A) (A) (A)
                 (A) (A) (A) (A) (A) (A) (A) (A) (A) (A) (A) (A)
                 (A) (A) (A) (A) (A) (A) (A) (A) (A) (A) (A) (A)
                 (A) (A) (A) (A) (A) (A) (A) (A) (A) (A) (A) (A)
                 (A) (A) (A) (A) (A) (A) (A) (A) (A) (A) (A) (A)
                 (A) (A) (A) (A) (A) (A) (A) (A) (A) (A) (A) (A)
                 (A) (A) (A) (A) (A) (A) (A) (A) (A) (A) (A) (A)
                 (A) (A) (A) (A) (A) (A) (A) (A) (A) (A) (A) (A)
                 (A) (A) (A) (A) (A) (A) (A) (A) (A) (A) (A) (A)
                 (A) (A) (A) (A) (A) (A) (A) (A) (A) (A) (A) (A)
                 (A) (A) (A) (A) (A) (A) (A) (A) (A) (A) (A) (A)
                 (A) (A) (A) (A) (A) (A) (A) (A) (A) (A) (A) (A)
                 (A) (A) (A) (A) (A) (A) (A) (A) (A) (A) (A) (A)
                 (A) (A) (A) (A) (A) (A) (A) (A) (A) (A) (A) (A)
                 (A) (A) (A) (A) (A) (A) (A) (A) (A) (A) (A) (A)
                 (A) (A) (A) (A) (A) (A) (A) (A) (A) (A) (A) (A)
                 (A) (A) (A) (A) (A) (A) (A) (A) (A) (A) (A) (A)
                 (A) (A) (A) (A) (A) (A) (A) (A) (A) (A) (A) (A)
                 (A) (A) (A) (A) (A) (A) (A) (A) (A) (A) (A) (A)
                 (A) (A) (A) (A) (A) (A) (A) (A) (A) (A) (A) (A)
                 (A) (A) (A) (A) (A) (A) (A) (A) (A) (A) (A) (A)
                 (A) (A) (A) (A) (A) (A) (A) (A) (A) (A) (A) (A)
                 (A) (A) (A) (A) (A) (A) (A) (A) (A) (A) (A) (A)
                 (A) (A) (A) (A) (A) (A) (A) (A) (A) (A) (A) (A)
                 (A) (A) (A) (A) (A) (A) (A) (A) (A) (A) (A) (A)
                 (A) (A) (A) (A) (A) (A) (A) (A) (A) (A) (A) (A)
                 (A) (A) (A) (A) (A) (A) (A) (A) (A) (A) (A) (A)
                 (A) (A) (A) (A) (A) (A) (A) (A) (A) (A) (A) (A)
                 (A) (A) (A) (A) (A) (A) (A) (A) (A) (A) (A) (A)
                 (A) (A) (A) (A) (A) (A) (A) (A) (A) (A) (A) (A)
                 (A) (A) (A) (A) (A) (A) (A) (A) (A) (A) (A) (A)
                 (A) (A) (A) (A) (A) (A) (A) (A) (A) (A) (A) (A)
                 (A) (A) (A) (A) (A) (A) (A) (A) (A) (A) (A) (A)
                 (A) (A) (A) (A) (A) (A) (A) (A) (A) (A) (A) (A)
                 (A) (A) (A) (A) (A) (A) (A) (A) (A) (A) (A) (A)
                 (A) (A) (A) (A) (A) (A) (A) (A) (A) (A) (A) (A)
                 (A) (A) (A) (A) (A) (A) (A) (A) (A) (A) (A) (A)
                 (A) (A) (A) (A) (A) (A) (A) (A) (A) (A) (A) (A)
                 (A) (A) (A) (A) (A) (A) (A) (A) (A) (A) (A) (A)
                 (A) (A) (A) (A) (A) (A) (A) (A) (A) (A) (A) (A)
                 (A) (A) (A) (A) (A) (A) (A) (A) (A) (A) (A) (A)
                 (A) (A) (A) (A) (A) (A) (A) (A) (A) (A) (A) (A)
                 (A) (A) (A) (A) (A) (A) (A) (A) (A) (A) (A) (A)
                 (A) (A) (A) (A) (A) (A) (A) (A) (A) (A) (A) (A)
                 (A) (A) (A) (A) (A) (A) (A) (A) (A) (A) (A) (A)
                 (A) (A) (A) (A) (A) (A) (A) (A) (A) (A) (A) (A)
                 (A) (A) (A) (A) (A) (A) (A) (A) (A) (A) (A) (A)
                 (A) (A) (A) (A) (A) (A) (A) (A) (A) (A) (A) (A)
                 (A) (A) (A) (A) (A) (A) (A) (A) (A) (A) (A) (A)
                 (A) (A) (A) (A) (A) (A) (A) (A) (A) (A) (A) (A)
                 (A) (A) (A) (A) (A) (A) (A) (A) (A) (A) (A) (A)
                 (A) (A) (A) (A) (A) (A) (A) (A) (A) (A) (A) (A)
                 (A) (A) (A) (A) (A) (A) (A) (A) (A) (A) (A) (A)
                 (A) (A) (A) (A) (A) (A) (A) (A) (A) (A) (A) (A)
                 (A) (A) (A) (A) (A) (A) (A) (A) (A) (A) (A) (A)
                 (A) (A) (A) (A) (A) (A) (A) (A) (A) (A) (A) (A)
                 (A) (A) (A) (A) (A) (A) (A) (A) (A) (A) (A) (A)
                 (A) (A) (A) (A) (A) (A) (A) (A) (A) (A) (A) (A)
                 (A) (A) (A) (A) (A) (A) (A) (A) (A) (A) (A) (A)
                 (A) (A) (A) (A) (A) (A) (A) (A) (A) (A) (A) (A)
                 (A) (A) (A) (A) (A) (A) (A) (A) (A) (A) (A) (A)
                 (A) (A) (A) (A) (A) (A) (A) (A) (A) (A) (A) (A)
                 (A) (A) (A) (A) (A) (A) (A) (A) (A) (A) (A) (A)
                 (A) (A) (A) (A) (A) (A) (A) (A) (A) (A) (A) (A)
                 (A) (A) (A) (A) (A) (A) (A) (A) (A) (A) (A) (A)
                 (A) (A) (A) (A) (A) (A) (A) (A) (A) (A) (A) (A)
                 (A) (A) (A) (A) (A) (A) (A) (A) (A) (A) (A) (A)
                 (A) (A) (A) (A) (A) (A) (A) (A) (A) (A) (A) (A)
                 (A) (A) (A) (A) (A) (A) (A) (A) (A) (A) (A) (A)
                 (A) (A) (A) (A) (A) (A) (A) (A) (A) (A) (A) (A)
                 (A) (A) (A) (A) (A) (A) (A) (A) (A) (A) (A) (A)
                 (A) (A) (A) (A) (A) (A) (A) (A) (A) (A) (A) (A)
                 (A) (A) (A) (A) (A) (A) (A) (A) (A) (A) (A) (A)
                 (A) (A) (A) (A) (A) (A) (A) (A) (A) (A) (A) (A)
                 (A) (A) (A) (A) (A) (A) (A) (A) (A) (A) (A) (A)
                 (A) (A) (A) (A) (A) (A) (A) (A) (A) (A) (A) (A)
                 (A) (A) (A) (A) (A) (A) (A) (A) (A) (A) (A) (A)
                 (A) (A) (A) (A) (A) (A) (A) (A) (A) (A) (A) (A)
                 (A) (A) (A) (A) (A) (A) (A) (A) (A) (A) (A) (A)
                 (A) (A) (A) (A) (A) (A) (A) (A) (A) (A) (A) (A)
                 (A) (A) (A) (A)
 Beta  Orbitals:
       Occupied  (A) (A) (A) (A) (A) (A) (A) (A) (A) (A) (A) (A)
                 (A) (A) (A) (A) (A) (A) (A) (A) (A) (A) (A) (A)
                 (A) (A) (A) (A) (A) (A) (A) (A) (A) (A) (A) (A)
                 (A) (A) (A) (A) (A) (A) (A) (A) (A) (A) (A) (A)
                 (A) (A) (A) (A) (A) (A) (A) (A) (A) (A) (A) (A)
                 (A) (A) (A) (A) (A) (A) (A) (A) (A) (A) (A) (A)
                 (A) (A) (A) (A) (A) (A) (A) (A) (A) (A) (A) (A)
                 (A) (A) (A) (A) (A) (A) (A) (A) (A) (A) (A) (A)
                 (A) (A) (A) (A) (A) (A) (A) (A) (A) (A) (A) (A)
                 (A) (A) (A) (A) (A) (A) (A) (A) (A) (A) (A) (A)
                 (A) (A) (A) (A) (A) (A) (A) (A) (A) (A) (A) (A)
                 (A) (A) (A) (A) (A) (A) (A) (A) (A) (A) (A) (A)
                 (A) (A) (A) (A) (A) (A) (A) (A) (A) (A) (A) (A)
                 (A) (A) (A) (A) (A) (A) (A) (A) (A) (A) (A) (A)
                 (A) (A) (A) (A) (A) (A) (A) (A) (A) (A) (A) (A)
                 (A) (A) (A) (A) (A) (A) (A) (A) (A) (A) (A) (A)
                 (A) (A) (A) (A) (A) (A) (A) (A) (A) (A) (A)
       Virtual   (A) (A) (A) (A) (A) (A) (A) (A) (A) (A) (A) (A)
                 (A) (A) (A) (A) (A) (A) (A) (A) (A) (A) (A) (A)
                 (A) (A) (A) (A) (A) (A) (A) (A) (A) (A) (A) (A)
                 (A) (A) (A) (A) (A) (A) (A) (A) (A) (A) (A) (A)
                 (A) (A) (A) (A) (A) (A) (A) (A) (A) (A) (A) (A)
                 (A) (A) (A) (A) (A) (A) (A) (A) (A) (A) (A) (A)
                 (A) (A) (A) (A) (A) (A) (A) (A) (A) (A) (A) (A)
                 (A) (A) (A) (A) (A) (A) (A) (A) (A) (A) (A) (A)
                 (A) (A) (A) (A) (A) (A) (A) (A) (A) (A) (A) (A)
                 (A) (A) (A) (A) (A) (A) (A) (A) (A) (A) (A) (A)
                 (A) (A) (A) (A) (A) (A) (A) (A) (A) (A) (A) (A)
                 (A) (A) (A) (A) (A) (A) (A) (A) (A) (A) (A) (A)
                 (A) (A) (A) (A) (A) (A) (A) (A) (A) (A) (A) (A)
                 (A) (A) (A) (A) (A) (A) (A) (A) (A) (A) (A) (A)
                 (A) (A) (A) (A) (A) (A) (A) (A) (A) (A) (A) (A)
                 (A) (A) (A) (A) (A) (A) (A) (A) (A) (A) (A) (A)
                 (A) (A) (A) (A) (A) (A) (A) (A) (A) (A) (A) (A)
                 (A) (A) (A) (A) (A) (A) (A) (A) (A) (A) (A) (A)
                 (A) (A) (A) (A) (A) (A) (A) (A) (A) (A) (A) (A)
                 (A) (A) (A) (A) (A) (A) (A) (A) (A) (A) (A) (A)
                 (A) (A) (A) (A) (A) (A) (A) (A) (A) (A) (A) (A)
                 (A) (A) (A) (A) (A) (A) (A) (A) (A) (A) (A) (A)
                 (A) (A) (A) (A) (A) (A) (A) (A) (A) (A) (A) (A)
                 (A) (A) (A) (A) (A) (A) (A) (A) (A) (A) (A) (A)
                 (A) (A) (A) (A) (A) (A) (A) (A) (A) (A) (A) (A)
                 (A) (A) (A) (A) (A) (A) (A) (A) (A) (A) (A) (A)
                 (A) (A) (A) (A) (A) (A) (A) (A) (A) (A) (A) (A)
                 (A) (A) (A) (A) (A) (A) (A) (A) (A) (A) (A) (A)
                 (A) (A) (A) (A) (A) (A) (A) (A) (A) (A) (A) (A)
                 (A) (A) (A) (A) (A) (A) (A) (A) (A) (A) (A) (A)
                 (A) (A) (A) (A) (A) (A) (A) (A) (A) (A) (A) (A)
                 (A) (A) (A) (A) (A) (A) (A) (A) (A) (A) (A) (A)
                 (A) (A) (A) (A) (A) (A) (A) (A) (A) (A) (A) (A)
                 (A) (A) (A) (A) (A) (A) (A) (A) (A) (A) (A) (A)
                 (A) (A) (A) (A) (A) (A) (A) (A) (A) (A) (A) (A)
                 (A) (A) (A) (A) (A) (A) (A) (A) (A) (A) (A) (A)
                 (A) (A) (A) (A) (A) (A) (A) (A) (A) (A) (A) (A)
                 (A) (A) (A) (A) (A) (A) (A) (A) (A) (A) (A) (A)
                 (A) (A) (A) (A) (A) (A) (A) (A) (A) (A) (A) (A)
                 (A) (A) (A) (A) (A) (A) (A) (A) (A) (A) (A) (A)
                 (A) (A) (A) (A) (A) (A) (A) (A) (A) (A) (A) (A)
                 (A) (A) (A) (A) (A) (A) (A) (A) (A) (A) (A) (A)
                 (A) (A) (A) (A) (A) (A) (A) (A) (A) (A) (A) (A)
                 (A) (A) (A) (A) (A) (A) (A) (A) (A) (A) (A) (A)
                 (A) (A) (A) (A) (A) (A) (A) (A) (A) (A) (A) (A)
                 (A) (A) (A) (A) (A) (A) (A) (A) (A) (A) (A) (A)
                 (A) (A) (A) (A) (A) (A) (A) (A) (A) (A) (A) (A)
                 (A) (A) (A) (A) (A) (A) (A) (A) (A) (A) (A) (A)
                 (A) (A) (A) (A) (A) (A) (A) (A) (A) (A) (A) (A)
                 (A) (A) (A) (A) (A) (A) (A) (A) (A) (A) (A) (A)
                 (A) (A) (A) (A) (A) (A) (A) (A) (A) (A) (A) (A)
                 (A) (A) (A) (A) (A) (A) (A) (A) (A) (A) (A) (A)
                 (A) (A) (A) (A) (A) (A) (A) (A) (A) (A) (A) (A)
                 (A) (A) (A) (A) (A) (A) (A) (A) (A) (A) (A) (A)
                 (A) (A) (A) (A) (A) (A) (A) (A) (A) (A) (A) (A)
                 (A) (A) (A) (A) (A) (A) (A) (A) (A) (A) (A) (A)
                 (A) (A) (A) (A) (A) (A) (A) (A) (A) (A) (A) (A)
                 (A) (A) (A) (A) (A) (A) (A) (A) (A) (A) (A) (A)
                 (A) (A) (A) (A) (A) (A) (A) (A) (A) (A) (A) (A)
                 (A) (A) (A) (A) (A) (A) (A) (A) (A) (A) (A) (A)
                 (A) (A) (A) (A) (A) (A) (A) (A) (A) (A) (A) (A)
                 (A) (A) (A) (A) (A) (A) (A) (A) (A) (A) (A) (A)
                 (A) (A) (A) (A) (A) (A) (A) (A) (A) (A) (A) (A)
                 (A) (A) (A) (A) (A) (A) (A) (A) (A) (A) (A) (A)
                 (A) (A) (A) (A) (A) (A) (A) (A) (A) (A) (A) (A)
                 (A) (A) (A) (A) (A) (A) (A) (A) (A) (A) (A) (A)
                 (A) (A) (A) (A) (A) (A) (A) (A) (A) (A) (A) (A)
                 (A) (A) (A) (A) (A) (A) (A) (A) (A) (A) (A) (A)
                 (A) (A) (A) (A) (A) (A) (A) (A) (A) (A) (A) (A)
                 (A) (A) (A) (A) (A) (A) (A) (A) (A) (A) (A) (A)
                 (A) (A) (A) (A) (A) (A) (A) (A) (A) (A) (A) (A)
                 (A) (A) (A) (A) (A) (A) (A) (A) (A) (A) (A) (A)
                 (A) (A) (A) (A) (A) (A) (A) (A) (A) (A) (A) (A)
                 (A) (A) (A) (A) (A) (A) (A) (A) (A) (A) (A) (A)
                 (A) (A) (A) (A) (A) (A) (A) (A) (A) (A) (A) (A)
                 (A) (A) (A) (A) (A) (A) (A) (A) (A) (A) (A) (A)
                 (A) (A) (A) (A) (A) (A) (A) (A) (A) (A) (A) (A)
                 (A) (A) (A) (A) (A) (A) (A) (A) (A) (A) (A) (A)
                 (A) (A) (A) (A) (A) (A) (A) (A) (A) (A) (A) (A)
                 (A) (A) (A) (A) (A) (A) (A) (A) (A) (A) (A) (A)
                 (A) (A) (A) (A) (A) (A) (A) (A) (A) (A) (A) (A)
                 (A) (A) (A) (A) (A) (A) (A) (A) (A) (A) (A) (A)
                 (A) (A) (A) (A) (A) (A) (A) (A) (A) (A) (A) (A)
                 (A) (A) (A) (A) (A) (A) (A) (A) (A) (A) (A) (A)
                 (A) (A) (A) (A) (A) (A) (A) (A) (A) (A) (A) (A)
                 (A) (A) (A) (A) (A) (A) (A) (A) (A) (A) (A) (A)
                 (A) (A) (A) (A) (A) (A) (A) (A) (A) (A) (A) (A)
                 (A) (A) (A) (A) (A) (A) (A) (A) (A) (A) (A) (A)
                 (A) (A) (A) (A) (A) (A) (A) (A) (A) (A) (A) (A)
                 (A) (A) (A) (A) (A) (A) (A) (A) (A) (A) (A) (A)
                 (A) (A) (A) (A) (A) (A) (A) (A) (A) (A) (A) (A)
                 (A) (A) (A) (A) (A) (A) (A) (A) (A) (A) (A) (A)
                 (A) (A) (A) (A) (A) (A) (A) (A) (A) (A) (A) (A)
                 (A) (A) (A) (A) (A) (A) (A) (A) (A) (A) (A) (A)
                 (A) (A) (A) (A) (A) (A) (A) (A) (A) (A) (A) (A)
                 (A) (A) (A) (A) (A) (A) (A) (A) (A) (A) (A) (A)
                 (A) (A) (A) (A) (A) (A) (A) (A) (A) (A) (A) (A)
                 (A) (A) (A) (A) (A) (A) (A) (A) (A) (A) (A) (A)
                 (A) (A) (A) (A) (A) (A) (A) (A) (A) (A) (A) (A)
                 (A) (A) (A) (A) (A) (A) (A) (A) (A) (A) (A) (A)
                 (A) (A) (A) (A) (A) (A) (A) (A) (A) (A) (A) (A)
                 (A) (A) (A) (A) (A) (A) (A) (A) (A) (A) (A) (A)
                 (A) (A) (A) (A) (A) (A) (A) (A) (A) (A) (A) (A)
                 (A) (A) (A) (A) (A) (A) (A) (A) (A) (A) (A) (A)
                 (A) (A) (A) (A) (A) (A) (A) (A) (A) (A) (A) (A)
                 (A) (A) (A) (A) (A) (A) (A) (A) (A) (A) (A) (A)
                 (A) (A) (A) (A) (A) (A) (A) (A) (A) (A) (A) (A)
                 (A) (A) (A) (A) (A) (A) (A) (A) (A) (A) (A) (A)
                 (A) (A) (A) (A) (A) (A) (A) (A) (A) (A) (A) (A)
                 (A) (A) (A) (A) (A) (A) (A) (A) (A) (A) (A) (A)
                 (A) (A) (A) (A) (A) (A) (A) (A) (A) (A) (A) (A)
                 (A) (A) (A) (A) (A) (A) (A) (A) (A) (A) (A) (A)
                 (A) (A) (A) (A) (A) (A) (A) (A) (A) (A) (A) (A)
                 (A) (A) (A) (A) (A) (A) (A) (A) (A) (A) (A) (A)
                 (A) (A) (A) (A) (A) (A) (A) (A) (A) (A) (A) (A)
                 (A) (A) (A) (A) (A) (A) (A) (A) (A) (A) (A) (A)
                 (A) (A) (A) (A) (A) (A) (A) (A) (A) (A) (A) (A)
                 (A) (A) (A) (A) (A) (A) (A) (A) (A) (A) (A) (A)
                 (A) (A) (A) (A) (A) (A) (A) (A) (A) (A) (A) (A)
                 (A) (A) (A) (A) (A) (A) (A) (A) (A) (A) (A) (A)
                 (A) (A) (A) (A) (A) (A) (A) (A) (A) (A) (A) (A)
                 (A) (A) (A) (A) (A) (A) (A) (A) (A) (A) (A) (A)
                 (A) (A) (A) (A) (A) (A) (A) (A) (A) (A) (A) (A)
                 (A) (A) (A) (A) (A) (A) (A) (A) (A) (A) (A) (A)
                 (A) (A) (A) (A) (A) (A) (A) (A) (A) (A) (A) (A)
                 (A) (A) (A) (A) (A) (A) (A) (A) (A) (A) (A) (A)
                 (A) (A) (A) (A) (A) (A) (A) (A) (A) (A) (A) (A)
                 (A) (A) (A) (A) (A) (A) (A) (A) (A) (A) (A) (A)
                 (A) (A) (A) (A) (A) (A) (A) (A) (A) (A) (A) (A)
                 (A) (A) (A) (A) (A) (A) (A) (A) (A) (A) (A) (A)
                 (A) (A) (A) (A) (A) (A) (A) (A) (A) (A) (A) (A)
                 (A) (A) (A) (A) (A) (A) (A) (A) (A) (A) (A) (A)
                 (A) (A) (A) (A) (A) (A) (A) (A) (A) (A) (A) (A)
                 (A) (A) (A) (A) (A) (A) (A) (A) (A) (A) (A) (A)
                 (A) (A) (A) (A) (A) (A) (A) (A) (A) (A) (A) (A)
                 (A) (A) (A) (A) (A) (A) (A) (A) (A) (A) (A) (A)
                 (A) (A) (A) (A) (A) (A) (A) (A) (A) (A) (A) (A)
                 (A) (A) (A) (A) (A) (A) (A) (A) (A) (A) (A) (A)
                 (A) (A) (A) (A) (A) (A) (A) (A) (A) (A) (A) (A)
                 (A) (A) (A) (A) (A) (A) (A) (A) (A) (A) (A) (A)
                 (A) (A) (A) (A) (A) (A) (A) (A) (A) (A) (A) (A)
                 (A) (A) (A) (A) (A) (A) (A) (A) (A) (A) (A) (A)
                 (A) (A) (A) (A) (A) (A) (A) (A) (A) (A) (A) (A)
                 (A) (A) (A) (A) (A) (A) (A) (A) (A) (A) (A) (A)
                 (A) (A) (A) (A) (A) (A) (A) (A) (A) (A) (A) (A)
                 (A) (A) (A) (A) (A) (A) (A) (A)
 The electronic state is 5-A.
 Alpha  occ. eigenvalues -- -256.31419 -88.99956 -30.10763 -25.93527 -25.93305
 Alpha  occ. eigenvalues --  -25.91934 -19.26624 -19.25539 -19.17525 -19.16859
 Alpha  occ. eigenvalues --  -14.44472 -14.37729 -14.37371 -14.37314 -14.36684
 Alpha  occ. eigenvalues --  -14.36672 -10.34449 -10.34325 -10.27351 -10.26491
 Alpha  occ. eigenvalues --  -10.24462 -10.24347 -10.24329 -10.24317 -10.24290
 Alpha  occ. eigenvalues --  -10.24249 -10.24163 -10.23837 -10.23621 -10.23548
 Alpha  occ. eigenvalues --  -10.23289 -10.22891 -10.22632 -10.22583 -10.22501
 Alpha  occ. eigenvalues --  -10.22456 -10.22298 -10.22217 -10.22062 -10.21860
 Alpha  occ. eigenvalues --  -10.21849 -10.21831 -10.21706 -10.21589 -10.21578
 Alpha  occ. eigenvalues --  -10.21559 -10.21335 -10.21196 -10.21191 -10.21169
 Alpha  occ. eigenvalues --  -10.21125 -10.21110 -10.21055 -10.21015 -10.20626
 Alpha  occ. eigenvalues --  -10.20441 -10.19292  -7.97991  -5.91634  -5.91334
 Alpha  occ. eigenvalues --   -5.90824  -3.49532  -2.27817  -2.26198  -2.22319
 Alpha  occ. eigenvalues --   -1.18956  -1.17967  -1.04832  -1.04127  -1.03071
 Alpha  occ. eigenvalues --   -0.97336  -0.96381  -0.96153  -0.95209  -0.90559
 Alpha  occ. eigenvalues --   -0.84368  -0.83940  -0.83787  -0.83058  -0.82869
 Alpha  occ. eigenvalues --   -0.82611  -0.80822  -0.80335  -0.80048  -0.79219
 Alpha  occ. eigenvalues --   -0.78622  -0.77545  -0.76743  -0.75952  -0.75010
 Alpha  occ. eigenvalues --   -0.73970  -0.72796  -0.72284  -0.71797  -0.71738
 Alpha  occ. eigenvalues --   -0.70183  -0.69985  -0.69067  -0.66964  -0.66222
 Alpha  occ. eigenvalues --   -0.65647  -0.65469  -0.65188  -0.64409  -0.63634
 Alpha  occ. eigenvalues --   -0.63303  -0.61386  -0.59658  -0.58962  -0.57208
 Alpha  occ. eigenvalues --   -0.55907  -0.55703  -0.55270  -0.54444  -0.54288
 Alpha  occ. eigenvalues --   -0.53395  -0.52504  -0.52094  -0.51839  -0.51463
 Alpha  occ. eigenvalues --   -0.51243  -0.50744  -0.49522  -0.48727  -0.48658
 Alpha  occ. eigenvalues --   -0.48399  -0.48132  -0.48044  -0.47526  -0.47042
 Alpha  occ. eigenvalues --   -0.46936  -0.46200  -0.46028  -0.45493  -0.45284
 Alpha  occ. eigenvalues --   -0.44959  -0.44643  -0.44514  -0.44357  -0.44146
 Alpha  occ. eigenvalues --   -0.44004  -0.43729  -0.43691  -0.43352  -0.43209
 Alpha  occ. eigenvalues --   -0.43089  -0.42857  -0.42730  -0.42615  -0.42469
 Alpha  occ. eigenvalues --   -0.42085  -0.41877  -0.41627  -0.40966  -0.40834
 Alpha  occ. eigenvalues --   -0.40340  -0.40331  -0.40141  -0.39910  -0.39664
 Alpha  occ. eigenvalues --   -0.39426  -0.39402  -0.39024  -0.38844  -0.38685
 Alpha  occ. eigenvalues --   -0.38327  -0.38140  -0.37852  -0.37608  -0.37552
 Alpha  occ. eigenvalues --   -0.37127  -0.36982  -0.36796  -0.36648  -0.36500
 Alpha  occ. eigenvalues --   -0.36066  -0.35813  -0.35335  -0.35089  -0.34731
 Alpha  occ. eigenvalues --   -0.34275  -0.33554  -0.32961  -0.32799  -0.32469
 Alpha  occ. eigenvalues --   -0.32244  -0.32174  -0.31274  -0.30468  -0.29401
 Alpha  occ. eigenvalues --   -0.28074  -0.27885  -0.27608  -0.27335  -0.26510
 Alpha  occ. eigenvalues --   -0.25353  -0.24822  -0.24582  -0.24251  -0.23283
 Alpha  occ. eigenvalues --   -0.22912  -0.21677  -0.20179  -0.19100  -0.18724
 Alpha  occ. eigenvalues --   -0.17328  -0.15099
 Alpha virt. eigenvalues --   -0.06817  -0.06429  -0.00946  -0.00072   0.00417
 Alpha virt. eigenvalues --    0.01420   0.01970   0.02562   0.02739   0.02914
 Alpha virt. eigenvalues --    0.03822   0.03987   0.04428   0.04639   0.04886
 Alpha virt. eigenvalues --    0.05152   0.05646   0.05864   0.06207   0.06558
 Alpha virt. eigenvalues --    0.06721   0.07118   0.07135   0.07438   0.07745
 Alpha virt. eigenvalues --    0.08083   0.08163   0.08463   0.08895   0.09150
 Alpha virt. eigenvalues --    0.09487   0.09921   0.09964   0.10405   0.10495
 Alpha virt. eigenvalues --    0.10915   0.11223   0.11424   0.11622   0.11916
 Alpha virt. eigenvalues --    0.12138   0.12278   0.12425   0.12683   0.12874
 Alpha virt. eigenvalues --    0.13129   0.13183   0.13265   0.13416   0.13571
 Alpha virt. eigenvalues --    0.13839   0.13957   0.14058   0.14229   0.14351
 Alpha virt. eigenvalues --    0.14519   0.14801   0.14976   0.15396   0.15524
 Alpha virt. eigenvalues --    0.15645   0.15762   0.16005   0.16276   0.16444
 Alpha virt. eigenvalues --    0.16571   0.16664   0.16934   0.17230   0.17318
 Alpha virt. eigenvalues --    0.17603   0.17884   0.18288   0.18414   0.18680
 Alpha virt. eigenvalues --    0.18971   0.19157   0.19267   0.19660   0.19889
 Alpha virt. eigenvalues --    0.19935   0.20213   0.20441   0.20649   0.20863
 Alpha virt. eigenvalues --    0.20954   0.21318   0.21461   0.21894   0.22099
 Alpha virt. eigenvalues --    0.22224   0.22478   0.22615   0.22723   0.22829
 Alpha virt. eigenvalues --    0.22921   0.23240   0.23469   0.23539   0.23884
 Alpha virt. eigenvalues --    0.24117   0.24383   0.24567   0.24779   0.24966
 Alpha virt. eigenvalues --    0.25191   0.25316   0.25450   0.25604   0.25902
 Alpha virt. eigenvalues --    0.26041   0.26322   0.26591   0.26887   0.27198
 Alpha virt. eigenvalues --    0.27242   0.27276   0.27608   0.27957   0.28029
 Alpha virt. eigenvalues --    0.28166   0.28581   0.28880   0.29141   0.29269
 Alpha virt. eigenvalues --    0.29577   0.29698   0.29926   0.30118   0.30234
 Alpha virt. eigenvalues --    0.30368   0.30535   0.31064   0.31279   0.31607
 Alpha virt. eigenvalues --    0.31837   0.32070   0.32257   0.32423   0.32628
 Alpha virt. eigenvalues --    0.32927   0.33020   0.33104   0.33190   0.33458
 Alpha virt. eigenvalues --    0.33658   0.33958   0.34279   0.34586   0.34716
 Alpha virt. eigenvalues --    0.34751   0.34888   0.35164   0.35561   0.35935
 Alpha virt. eigenvalues --    0.36203   0.36395   0.36712   0.36822   0.37003
 Alpha virt. eigenvalues --    0.37277   0.37433   0.37723   0.37858   0.38037
 Alpha virt. eigenvalues --    0.38181   0.38551   0.38730   0.38824   0.38951
 Alpha virt. eigenvalues --    0.39505   0.39738   0.39909   0.39937   0.40219
 Alpha virt. eigenvalues --    0.40262   0.40474   0.40639   0.40826   0.41138
 Alpha virt. eigenvalues --    0.41259   0.41567   0.41744   0.41968   0.42185
 Alpha virt. eigenvalues --    0.42255   0.42313   0.42578   0.42842   0.42909
 Alpha virt. eigenvalues --    0.43112   0.43346   0.43527   0.43819   0.44035
 Alpha virt. eigenvalues --    0.44054   0.44251   0.44293   0.44682   0.44758
 Alpha virt. eigenvalues --    0.44873   0.45160   0.45438   0.45458   0.45634
 Alpha virt. eigenvalues --    0.45746   0.46048   0.46238   0.46398   0.46560
 Alpha virt. eigenvalues --    0.46670   0.46800   0.46863   0.47014   0.47208
 Alpha virt. eigenvalues --    0.47366   0.47413   0.47592   0.47781   0.47814
 Alpha virt. eigenvalues --    0.47875   0.48034   0.48262   0.48471   0.48799
 Alpha virt. eigenvalues --    0.48809   0.48934   0.49091   0.49272   0.49366
 Alpha virt. eigenvalues --    0.49551   0.49687   0.49998   0.50176   0.50359
 Alpha virt. eigenvalues --    0.50589   0.50735   0.50779   0.51172   0.51370
 Alpha virt. eigenvalues --    0.51478   0.51710   0.51742   0.51971   0.52126
 Alpha virt. eigenvalues --    0.52199   0.52304   0.52535   0.52759   0.53046
 Alpha virt. eigenvalues --    0.53230   0.53569   0.53677   0.53771   0.54022
 Alpha virt. eigenvalues --    0.54152   0.54420   0.54565   0.54721   0.54867
 Alpha virt. eigenvalues --    0.55222   0.55495   0.55734   0.55898   0.56068
 Alpha virt. eigenvalues --    0.56259   0.56460   0.56691   0.56911   0.57107
 Alpha virt. eigenvalues --    0.57416   0.57618   0.57676   0.57892   0.58106
 Alpha virt. eigenvalues --    0.58634   0.58745   0.58764   0.59139   0.59375
 Alpha virt. eigenvalues --    0.59553   0.59674   0.59892   0.60193   0.60469
 Alpha virt. eigenvalues --    0.60574   0.60753   0.61042   0.61275   0.61551
 Alpha virt. eigenvalues --    0.61641   0.61757   0.62214   0.62535   0.62852
 Alpha virt. eigenvalues --    0.63026   0.63303   0.63498   0.63811   0.63964
 Alpha virt. eigenvalues --    0.64306   0.64423   0.64618   0.64791   0.65134
 Alpha virt. eigenvalues --    0.65689   0.65950   0.66120   0.66240   0.66430
 Alpha virt. eigenvalues --    0.66797   0.66935   0.67040   0.67361   0.67550
 Alpha virt. eigenvalues --    0.68092   0.68185   0.68416   0.68676   0.69034
 Alpha virt. eigenvalues --    0.69321   0.69558   0.69764   0.69926   0.70297
 Alpha virt. eigenvalues --    0.70469   0.70677   0.71070   0.71440   0.71647
 Alpha virt. eigenvalues --    0.71796   0.71949   0.72132   0.72718   0.73348
 Alpha virt. eigenvalues --    0.73844   0.73972   0.74238   0.74441   0.74750
 Alpha virt. eigenvalues --    0.74769   0.75365   0.75574   0.76019   0.76032
 Alpha virt. eigenvalues --    0.76443   0.76568   0.77005   0.77208   0.77677
 Alpha virt. eigenvalues --    0.78073   0.78209   0.78374   0.78626   0.79000
 Alpha virt. eigenvalues --    0.79251   0.79356   0.79528   0.79938   0.80418
 Alpha virt. eigenvalues --    0.80900   0.81117   0.81422   0.81975   0.82257
 Alpha virt. eigenvalues --    0.82387   0.82548   0.82994   0.83378   0.83665
 Alpha virt. eigenvalues --    0.83818   0.84005   0.84229   0.84578   0.84691
 Alpha virt. eigenvalues --    0.84979   0.85163   0.85929   0.86265   0.86472
 Alpha virt. eigenvalues --    0.86829   0.87054   0.87086   0.87443   0.87688
 Alpha virt. eigenvalues --    0.87832   0.87947   0.88554   0.89160   0.89268
 Alpha virt. eigenvalues --    0.89633   0.89769   0.90026   0.90329   0.90725
 Alpha virt. eigenvalues --    0.90997   0.91003   0.91520   0.91729   0.91898
 Alpha virt. eigenvalues --    0.92031   0.92447   0.92567   0.92688   0.93574
 Alpha virt. eigenvalues --    0.93638   0.94007   0.94126   0.94450   0.94593
 Alpha virt. eigenvalues --    0.95045   0.95152   0.95372   0.95829   0.95912
 Alpha virt. eigenvalues --    0.96053   0.96369   0.96798   0.97147   0.97196
 Alpha virt. eigenvalues --    0.97369   0.97480   0.97667   0.98052   0.98356
 Alpha virt. eigenvalues --    0.98837   0.99173   0.99515   0.99546   1.00098
 Alpha virt. eigenvalues --    1.00257   1.00527   1.00638   1.00752   1.00996
 Alpha virt. eigenvalues --    1.01314   1.01807   1.02037   1.02209   1.02613
 Alpha virt. eigenvalues --    1.02838   1.03186   1.03377   1.03506   1.03755
 Alpha virt. eigenvalues --    1.04111   1.04332   1.04619   1.04789   1.04991
 Alpha virt. eigenvalues --    1.05447   1.05877   1.06107   1.06287   1.06560
 Alpha virt. eigenvalues --    1.06749   1.06877   1.07184   1.07604   1.07810
 Alpha virt. eigenvalues --    1.08120   1.08432   1.08827   1.09247   1.09316
 Alpha virt. eigenvalues --    1.09627   1.09814   1.10324   1.10400   1.10683
 Alpha virt. eigenvalues --    1.11112   1.11422   1.11971   1.12412   1.12552
 Alpha virt. eigenvalues --    1.12913   1.13127   1.13484   1.13810   1.13864
 Alpha virt. eigenvalues --    1.14204   1.14648   1.15085   1.15227   1.15416
 Alpha virt. eigenvalues --    1.16099   1.16204   1.16405   1.16618   1.17096
 Alpha virt. eigenvalues --    1.17572   1.17904   1.18597   1.18838   1.19274
 Alpha virt. eigenvalues --    1.19527   1.20104   1.20316   1.20564   1.20891
 Alpha virt. eigenvalues --    1.21268   1.21468   1.21843   1.22326   1.22695
 Alpha virt. eigenvalues --    1.23070   1.23220   1.23617   1.24122   1.24378
 Alpha virt. eigenvalues --    1.24905   1.25590   1.25736   1.25819   1.26244
 Alpha virt. eigenvalues --    1.26553   1.26949   1.27548   1.27699   1.28024
 Alpha virt. eigenvalues --    1.28594   1.28909   1.29213   1.29598   1.29944
 Alpha virt. eigenvalues --    1.30008   1.30368   1.30874   1.31074   1.31407
 Alpha virt. eigenvalues --    1.31572   1.31861   1.32062   1.32463   1.33018
 Alpha virt. eigenvalues --    1.33642   1.33766   1.34050   1.34272   1.34785
 Alpha virt. eigenvalues --    1.35132   1.35383   1.35864   1.36011   1.36202
 Alpha virt. eigenvalues --    1.36851   1.37225   1.37357   1.37631   1.38054
 Alpha virt. eigenvalues --    1.38769   1.39059   1.39191   1.39461   1.40231
 Alpha virt. eigenvalues --    1.40830   1.41162   1.41906   1.42106   1.42366
 Alpha virt. eigenvalues --    1.43339   1.43550   1.43876   1.44387   1.44441
 Alpha virt. eigenvalues --    1.45064   1.45557   1.45928   1.46280   1.46631
 Alpha virt. eigenvalues --    1.47498   1.47631   1.47674   1.48327   1.48835
 Alpha virt. eigenvalues --    1.49077   1.49288   1.49460   1.49681   1.49726
 Alpha virt. eigenvalues --    1.50132   1.50371   1.50641   1.51287   1.51483
 Alpha virt. eigenvalues --    1.51860   1.52032   1.52338   1.52413   1.52824
 Alpha virt. eigenvalues --    1.53198   1.53543   1.53604   1.53862   1.54202
 Alpha virt. eigenvalues --    1.54248   1.54473   1.54704   1.54980   1.55118
 Alpha virt. eigenvalues --    1.55435   1.55629   1.55758   1.56165   1.56426
 Alpha virt. eigenvalues --    1.56510   1.56696   1.56740   1.57175   1.57290
 Alpha virt. eigenvalues --    1.57548   1.57869   1.58147   1.58420   1.58562
 Alpha virt. eigenvalues --    1.58650   1.58826   1.59009   1.59255   1.59844
 Alpha virt. eigenvalues --    1.59932   1.60136   1.60426   1.60535   1.60701
 Alpha virt. eigenvalues --    1.61057   1.61296   1.61610   1.61850   1.62123
 Alpha virt. eigenvalues --    1.62420   1.62640   1.62842   1.63103   1.63329
 Alpha virt. eigenvalues --    1.63383   1.63717   1.64019   1.64214   1.64319
 Alpha virt. eigenvalues --    1.64585   1.65012   1.65387   1.65478   1.66026
 Alpha virt. eigenvalues --    1.66398   1.66657   1.66833   1.67267   1.67504
 Alpha virt. eigenvalues --    1.67699   1.68044   1.68494   1.68687   1.69037
 Alpha virt. eigenvalues --    1.69079   1.69613   1.69762   1.70130   1.70541
 Alpha virt. eigenvalues --    1.70616   1.71122   1.71254   1.71493   1.71828
 Alpha virt. eigenvalues --    1.72107   1.72166   1.72541   1.72663   1.73049
 Alpha virt. eigenvalues --    1.73171   1.73515   1.73735   1.74280   1.74511
 Alpha virt. eigenvalues --    1.74694   1.74987   1.75359   1.75534   1.75795
 Alpha virt. eigenvalues --    1.76248   1.76397   1.76989   1.77156   1.77613
 Alpha virt. eigenvalues --    1.78132   1.78369   1.78588   1.78946   1.79559
 Alpha virt. eigenvalues --    1.79733   1.80001   1.80212   1.80782   1.81109
 Alpha virt. eigenvalues --    1.81543   1.81797   1.82231   1.82554   1.82666
 Alpha virt. eigenvalues --    1.83071   1.83755   1.83837   1.84689   1.84860
 Alpha virt. eigenvalues --    1.85229   1.85259   1.85577   1.86205   1.86721
 Alpha virt. eigenvalues --    1.87067   1.87361   1.87595   1.88031   1.88258
 Alpha virt. eigenvalues --    1.88454   1.89082   1.89290   1.89649   1.90499
 Alpha virt. eigenvalues --    1.90665   1.90789   1.90957   1.91316   1.91719
 Alpha virt. eigenvalues --    1.92031   1.92094   1.92626   1.92799   1.93395
 Alpha virt. eigenvalues --    1.94029   1.94466   1.94623   1.94791   1.95192
 Alpha virt. eigenvalues --    1.95436   1.95526   1.95734   1.96295   1.96596
 Alpha virt. eigenvalues --    1.97114   1.97650   1.97878   1.98348   1.98523
 Alpha virt. eigenvalues --    1.98845   1.99145   1.99380   1.99873   2.00036
 Alpha virt. eigenvalues --    2.00382   2.00601   2.01025   2.01393   2.01836
 Alpha virt. eigenvalues --    2.01948   2.02305   2.02783   2.02937   2.03178
 Alpha virt. eigenvalues --    2.03306   2.03803   2.03978   2.04476   2.04756
 Alpha virt. eigenvalues --    2.05583   2.06068   2.06567   2.06776   2.07425
 Alpha virt. eigenvalues --    2.07621   2.07798   2.08046   2.08727   2.08883
 Alpha virt. eigenvalues --    2.09609   2.09875   2.10084   2.10168   2.10348
 Alpha virt. eigenvalues --    2.10892   2.11328   2.11871   2.12293   2.12429
 Alpha virt. eigenvalues --    2.13003   2.13141   2.13468   2.13694   2.13733
 Alpha virt. eigenvalues --    2.14194   2.14483   2.15055   2.15425   2.15817
 Alpha virt. eigenvalues --    2.16196   2.16503   2.16926   2.17124   2.17441
 Alpha virt. eigenvalues --    2.17483   2.17980   2.18225   2.18445   2.18799
 Alpha virt. eigenvalues --    2.19431   2.19489   2.19901   2.20068   2.20281
 Alpha virt. eigenvalues --    2.20701   2.20801   2.21127   2.21547   2.22092
 Alpha virt. eigenvalues --    2.22174   2.22465   2.22564   2.23046   2.23368
 Alpha virt. eigenvalues --    2.23882   2.24309   2.24513   2.24950   2.25054
 Alpha virt. eigenvalues --    2.25241   2.25833   2.26004   2.26351   2.26572
 Alpha virt. eigenvalues --    2.26893   2.27051   2.27609   2.27848   2.28258
 Alpha virt. eigenvalues --    2.28702   2.29150   2.29358   2.29703   2.30088
 Alpha virt. eigenvalues --    2.30592   2.30757   2.31330   2.31972   2.32087
 Alpha virt. eigenvalues --    2.32415   2.32562   2.33092   2.33673   2.33873
 Alpha virt. eigenvalues --    2.34234   2.34420   2.35131   2.35220   2.35731
 Alpha virt. eigenvalues --    2.35921   2.36274   2.36689   2.36964   2.37467
 Alpha virt. eigenvalues --    2.37778   2.38144   2.38277   2.38767   2.39034
 Alpha virt. eigenvalues --    2.39324   2.39628   2.39789   2.40173   2.40519
 Alpha virt. eigenvalues --    2.41072   2.41426   2.41919   2.42199   2.42367
 Alpha virt. eigenvalues --    2.42622   2.42692   2.43328   2.43750   2.44234
 Alpha virt. eigenvalues --    2.44616   2.44766   2.44968   2.45562   2.45715
 Alpha virt. eigenvalues --    2.46091   2.46188   2.46467   2.47075   2.47382
 Alpha virt. eigenvalues --    2.47906   2.48149   2.48226   2.48552   2.49221
 Alpha virt. eigenvalues --    2.49712   2.49790   2.50321   2.51049   2.51301
 Alpha virt. eigenvalues --    2.51402   2.51859   2.52520   2.52705   2.53122
 Alpha virt. eigenvalues --    2.53378   2.53518   2.53833   2.54466   2.55113
 Alpha virt. eigenvalues --    2.55308   2.55849   2.56324   2.56598   2.56735
 Alpha virt. eigenvalues --    2.57162   2.57402   2.57840   2.58046   2.58161
 Alpha virt. eigenvalues --    2.58436   2.58974   2.59181   2.59664   2.59745
 Alpha virt. eigenvalues --    2.60012   2.60480   2.60664   2.60906   2.61198
 Alpha virt. eigenvalues --    2.61376   2.61593   2.61928   2.62261   2.62419
 Alpha virt. eigenvalues --    2.62991   2.63011   2.63386   2.63577   2.63789
 Alpha virt. eigenvalues --    2.64137   2.64408   2.64858   2.65038   2.65086
 Alpha virt. eigenvalues --    2.65209   2.65939   2.65998   2.66381   2.66667
 Alpha virt. eigenvalues --    2.66788   2.67278   2.67645   2.67818   2.68264
 Alpha virt. eigenvalues --    2.68752   2.68817   2.69548   2.69703   2.70191
 Alpha virt. eigenvalues --    2.70487   2.70601   2.71455   2.71926   2.72103
 Alpha virt. eigenvalues --    2.72436   2.72599   2.72675   2.72981   2.73278
 Alpha virt. eigenvalues --    2.73424   2.73711   2.74194   2.74653   2.75011
 Alpha virt. eigenvalues --    2.75598   2.75779   2.76026   2.76495   2.76650
 Alpha virt. eigenvalues --    2.77226   2.77303   2.77463   2.77785   2.78197
 Alpha virt. eigenvalues --    2.78695   2.78791   2.79156   2.79485   2.79558
 Alpha virt. eigenvalues --    2.79877   2.80092   2.80794   2.81275   2.81594
 Alpha virt. eigenvalues --    2.81924   2.82502   2.82585   2.82902   2.82955
 Alpha virt. eigenvalues --    2.83347   2.83595   2.83957   2.84257   2.84681
 Alpha virt. eigenvalues --    2.84900   2.85165   2.85469   2.85970   2.86354
 Alpha virt. eigenvalues --    2.86592   2.86844   2.86988   2.87077   2.87367
 Alpha virt. eigenvalues --    2.88143   2.88410   2.88565   2.88842   2.89389
 Alpha virt. eigenvalues --    2.89709   2.89971   2.90364   2.90605   2.91147
 Alpha virt. eigenvalues --    2.91304   2.91776   2.91965   2.92311   2.92523
 Alpha virt. eigenvalues --    2.93406   2.93736   2.94023   2.94353   2.94566
 Alpha virt. eigenvalues --    2.94774   2.95290   2.95341   2.95782   2.96129
 Alpha virt. eigenvalues --    2.96345   2.96628   2.96884   2.97154   2.97489
 Alpha virt. eigenvalues --    2.97645   2.98049   2.98312   2.98560   2.98727
 Alpha virt. eigenvalues --    2.99117   2.99520   2.99669   3.00071   3.00464
 Alpha virt. eigenvalues --    3.00729   3.01399   3.01771   3.01832   3.02464
 Alpha virt. eigenvalues --    3.02629   3.02701   3.03125   3.03460   3.03775
 Alpha virt. eigenvalues --    3.03822   3.04498   3.04672   3.04833   3.05160
 Alpha virt. eigenvalues --    3.05696   3.05759   3.06107   3.06463   3.06727
 Alpha virt. eigenvalues --    3.06742   3.07233   3.07594   3.08006   3.08205
 Alpha virt. eigenvalues --    3.08784   3.08901   3.09204   3.09582   3.09745
 Alpha virt. eigenvalues --    3.09871   3.10101   3.10526   3.10678   3.10816
 Alpha virt. eigenvalues --    3.11139   3.11311   3.11565   3.12009   3.12278
 Alpha virt. eigenvalues --    3.12781   3.12890   3.13098   3.13423   3.13687
 Alpha virt. eigenvalues --    3.14025   3.14247   3.14364   3.14499   3.14903
 Alpha virt. eigenvalues --    3.15142   3.15345   3.15731   3.15906   3.15999
 Alpha virt. eigenvalues --    3.16342   3.16412   3.16921   3.17146   3.17296
 Alpha virt. eigenvalues --    3.17426   3.17644   3.18007   3.18189   3.18422
 Alpha virt. eigenvalues --    3.18566   3.19039   3.19342   3.19575   3.20190
 Alpha virt. eigenvalues --    3.20599   3.20870   3.20981   3.21376   3.21511
 Alpha virt. eigenvalues --    3.21618   3.22016   3.22322   3.22755   3.22958
 Alpha virt. eigenvalues --    3.23136   3.23326   3.23885   3.24025   3.24602
 Alpha virt. eigenvalues --    3.24668   3.24982   3.25340   3.25502   3.25703
 Alpha virt. eigenvalues --    3.25958   3.26337   3.26492   3.26558   3.26656
 Alpha virt. eigenvalues --    3.27275   3.27574   3.27917   3.28159   3.28223
 Alpha virt. eigenvalues --    3.28384   3.28626   3.29024   3.29480   3.29651
 Alpha virt. eigenvalues --    3.29915   3.30135   3.30399   3.30846   3.31092
 Alpha virt. eigenvalues --    3.31315   3.31664   3.31923   3.32153   3.32257
 Alpha virt. eigenvalues --    3.32481   3.32632   3.32944   3.33168   3.33352
 Alpha virt. eigenvalues --    3.33856   3.34127   3.34378   3.34749   3.34834
 Alpha virt. eigenvalues --    3.35165   3.35439   3.35650   3.35955   3.36211
 Alpha virt. eigenvalues --    3.36335   3.36378   3.36628   3.36856   3.37222
 Alpha virt. eigenvalues --    3.37338   3.37408   3.37801   3.38142   3.38288
 Alpha virt. eigenvalues --    3.38526   3.38904   3.38983   3.39228   3.39597
 Alpha virt. eigenvalues --    3.39956   3.40084   3.40115   3.40357   3.40716
 Alpha virt. eigenvalues --    3.40945   3.40998   3.41270   3.41768   3.41997
 Alpha virt. eigenvalues --    3.42091   3.42666   3.42788   3.43120   3.43126
 Alpha virt. eigenvalues --    3.43787   3.43873   3.43994   3.44241   3.44813
 Alpha virt. eigenvalues --    3.45176   3.45253   3.45525   3.45749   3.46102
 Alpha virt. eigenvalues --    3.46639   3.46831   3.47018   3.47315   3.47421
 Alpha virt. eigenvalues --    3.47899   3.48008   3.48288   3.48582   3.48920
 Alpha virt. eigenvalues --    3.49198   3.49286   3.49818   3.50053   3.50531
 Alpha virt. eigenvalues --    3.50921   3.51092   3.51336   3.51604   3.52441
 Alpha virt. eigenvalues --    3.52683   3.52965   3.53126   3.53830   3.54029
 Alpha virt. eigenvalues --    3.54231   3.54421   3.54575   3.55073   3.55260
 Alpha virt. eigenvalues --    3.55612   3.55872   3.56388   3.56877   3.57097
 Alpha virt. eigenvalues --    3.57450   3.57556   3.57813   3.58388   3.58669
 Alpha virt. eigenvalues --    3.59237   3.59472   3.59834   3.59984   3.60125
 Alpha virt. eigenvalues --    3.60701   3.60972   3.61038   3.61413   3.61732
 Alpha virt. eigenvalues --    3.62316   3.62885   3.63250   3.63450   3.63941
 Alpha virt. eigenvalues --    3.64169   3.64383   3.64735   3.64972   3.65450
 Alpha virt. eigenvalues --    3.65527   3.65909   3.66202   3.66731   3.67000
 Alpha virt. eigenvalues --    3.67225   3.67626   3.68073   3.68523   3.68982
 Alpha virt. eigenvalues --    3.69028   3.69457   3.70153   3.70246   3.70684
 Alpha virt. eigenvalues --    3.70868   3.71244   3.71855   3.72181   3.72241
 Alpha virt. eigenvalues --    3.72543   3.72650   3.72855   3.73170   3.73574
 Alpha virt. eigenvalues --    3.74068   3.74316   3.74743   3.75281   3.75464
 Alpha virt. eigenvalues --    3.76107   3.76156   3.76608   3.77066   3.77331
 Alpha virt. eigenvalues --    3.77706   3.78278   3.78765   3.78988   3.79818
 Alpha virt. eigenvalues --    3.80375   3.80460   3.81157   3.81377   3.82353
 Alpha virt. eigenvalues --    3.82462   3.82885   3.83114   3.83300   3.83844
 Alpha virt. eigenvalues --    3.85035   3.85245   3.85797   3.86073   3.86956
 Alpha virt. eigenvalues --    3.86993   3.87203   3.87635   3.88571   3.88935
 Alpha virt. eigenvalues --    3.89260   3.89415   3.89645   3.90135   3.90670
 Alpha virt. eigenvalues --    3.90923   3.91521   3.91637   3.92004   3.92602
 Alpha virt. eigenvalues --    3.93070   3.93418   3.94359   3.94544   3.95262
 Alpha virt. eigenvalues --    3.95722   3.96398   3.96544   3.96829   3.97728
 Alpha virt. eigenvalues --    3.98003   3.98269   3.98565   3.99601   3.99768
 Alpha virt. eigenvalues --    4.00530   4.00709   4.01143   4.01273   4.01814
 Alpha virt. eigenvalues --    4.02325   4.02615   4.03565   4.03919   4.03935
 Alpha virt. eigenvalues --    4.04711   4.05212   4.06081   4.06202   4.06965
 Alpha virt. eigenvalues --    4.07259   4.07702   4.07957   4.08415   4.09102
 Alpha virt. eigenvalues --    4.09825   4.10171   4.10579   4.11310   4.11626
 Alpha virt. eigenvalues --    4.12024   4.13094   4.13785   4.14290   4.14923
 Alpha virt. eigenvalues --    4.15141   4.15590   4.15908   4.16503   4.17128
 Alpha virt. eigenvalues --    4.17251   4.18087   4.18441   4.19346   4.19750
 Alpha virt. eigenvalues --    4.20192   4.20892   4.21111   4.21593   4.21938
 Alpha virt. eigenvalues --    4.22513   4.23002   4.23371   4.23703   4.24485
 Alpha virt. eigenvalues --    4.24925   4.25987   4.26806   4.26987   4.27510
 Alpha virt. eigenvalues --    4.27990   4.28366   4.28691   4.29677   4.30005
 Alpha virt. eigenvalues --    4.30785   4.31179   4.31429   4.31986   4.32427
 Alpha virt. eigenvalues --    4.32778   4.32866   4.33498   4.33535   4.33973
 Alpha virt. eigenvalues --    4.34568   4.35418   4.35676   4.36336   4.36477
 Alpha virt. eigenvalues --    4.37099   4.37335   4.37812   4.38348   4.38651
 Alpha virt. eigenvalues --    4.39129   4.39423   4.39824   4.40095   4.40708
 Alpha virt. eigenvalues --    4.41489   4.41612   4.42130   4.42914   4.43463
 Alpha virt. eigenvalues --    4.43679   4.43962   4.44766   4.45710   4.46152
 Alpha virt. eigenvalues --    4.46435   4.46964   4.47472   4.48024   4.48430
 Alpha virt. eigenvalues --    4.48711   4.49442   4.50027   4.50531   4.51275
 Alpha virt. eigenvalues --    4.51680   4.52292   4.52750   4.53824   4.54448
 Alpha virt. eigenvalues --    4.55293   4.55624   4.56053   4.56727   4.57862
 Alpha virt. eigenvalues --    4.58385   4.59290   4.59541   4.60259   4.60442
 Alpha virt. eigenvalues --    4.61134   4.61550   4.61835   4.62918   4.63033
 Alpha virt. eigenvalues --    4.64343   4.65264   4.66322   4.66451   4.66953
 Alpha virt. eigenvalues --    4.67265   4.68416   4.69068   4.69387   4.70028
 Alpha virt. eigenvalues --    4.70341   4.70501   4.70757   4.71253   4.71432
 Alpha virt. eigenvalues --    4.72182   4.72704   4.73286   4.73974   4.74281
 Alpha virt. eigenvalues --    4.75201   4.75721   4.75915   4.77144   4.77552
 Alpha virt. eigenvalues --    4.77970   4.78109   4.79980   4.80308   4.81277
 Alpha virt. eigenvalues --    4.82532   4.82757   4.83018   4.83584   4.84311
 Alpha virt. eigenvalues --    4.85115   4.85471   4.86096   4.86918   4.87933
 Alpha virt. eigenvalues --    4.89496   4.90351   4.90862   4.91907   4.92453
 Alpha virt. eigenvalues --    4.92841   4.93141   4.94218   4.94858   4.94970
 Alpha virt. eigenvalues --    4.96059   4.96558   4.97203   4.97421   4.97760
 Alpha virt. eigenvalues --    4.98254   4.98422   4.99327   5.01261   5.01422
 Alpha virt. eigenvalues --    5.02567   5.02810   5.04161   5.04958   5.06188
 Alpha virt. eigenvalues --    5.07577   5.08069   5.08918   5.10126   5.10559
 Alpha virt. eigenvalues --    5.12773   5.13980   5.14371   5.15099   5.17999
 Alpha virt. eigenvalues --    5.18725   5.19755   5.20155   5.20440   5.20888
 Alpha virt. eigenvalues --    5.21155   5.21299   5.21572   5.21848   5.22879
 Alpha virt. eigenvalues --    5.23949   5.24124   5.25593   5.26356   5.27524
 Alpha virt. eigenvalues --    5.28152   5.29775   5.30001   5.30489   5.30887
 Alpha virt. eigenvalues --    5.32091   5.33367   5.33916   5.35176   5.36678
 Alpha virt. eigenvalues --    5.37858   5.38199   5.38470   5.39454   5.40690
 Alpha virt. eigenvalues --    5.41688   5.42655   5.44996   5.45977   5.46484
 Alpha virt. eigenvalues --    5.47088   5.48348   5.48906   5.49542   5.51134
 Alpha virt. eigenvalues --    5.52375   5.53054   5.56478   5.57254   5.58631
 Alpha virt. eigenvalues --    5.59299   5.60411   5.61270   5.61813   5.62370
 Alpha virt. eigenvalues --    5.62832   5.63900   5.64852   5.65566   5.66544
 Alpha virt. eigenvalues --    5.68376   5.69611   5.71202   5.72832   5.73739
 Alpha virt. eigenvalues --    5.76831   5.77011   5.80298   5.82182   5.86612
 Alpha virt. eigenvalues --    5.87020   5.87441   5.88940   5.94194   5.94593
 Alpha virt. eigenvalues --    5.95854   5.98400   5.99590   5.99776   6.01135
 Alpha virt. eigenvalues --    6.01892   6.05011   6.05569   6.06328   6.11438
 Alpha virt. eigenvalues --    6.12536   6.13480   6.14858   6.16243   6.17943
 Alpha virt. eigenvalues --    6.19925   6.21983   6.24594   6.25259   6.29800
 Alpha virt. eigenvalues --    6.31112   6.33131   6.34901   6.36623   6.38623
 Alpha virt. eigenvalues --    6.40336   6.41274   6.48305   6.49205   6.50585
 Alpha virt. eigenvalues --    6.50943   6.53263   6.53618   6.67860   6.68002
 Alpha virt. eigenvalues --    6.76663   6.80279   6.84072   6.87176   6.98108
 Alpha virt. eigenvalues --    6.99241   7.04855   7.08912   7.16093   7.17421
 Alpha virt. eigenvalues --    7.18547   7.22847   7.28939   7.36273   9.32653
 Alpha virt. eigenvalues --    9.56158   9.65619  20.29949  22.46127  22.47080
 Alpha virt. eigenvalues --   22.50376  22.51363  22.53146  22.56500  22.58202
 Alpha virt. eigenvalues --   22.58677  22.60307  22.61628  22.63816  22.66540
 Alpha virt. eigenvalues --   22.67103  22.74070  22.74493  22.75546  22.79084
 Alpha virt. eigenvalues --   22.92590  22.94870  22.95117  22.98213  22.99414
 Alpha virt. eigenvalues --   23.05908  23.07420  23.09213  23.17696  23.21502
 Alpha virt. eigenvalues --   23.23812  23.24595  23.27304  23.36768  23.43653
 Alpha virt. eigenvalues --   23.52305  23.56938  23.60200  23.70341  23.73002
 Alpha virt. eigenvalues --   23.75024  23.75920  23.80448  23.87849  32.43357
 Alpha virt. eigenvalues --   32.87766  32.97483  33.05310  33.09110  33.20415
 Alpha virt. eigenvalues --   43.94462  43.95708  43.98087  44.01186
  Beta  occ. eigenvalues -- -256.31347 -88.99889 -30.06160 -25.89936 -25.89320
  Beta  occ. eigenvalues --  -25.87908 -19.26624 -19.25539 -19.17525 -19.16858
  Beta  occ. eigenvalues --  -14.44467 -14.37504 -14.37352 -14.37326 -14.36661
  Beta  occ. eigenvalues --  -14.36599 -10.34448 -10.34325 -10.27360 -10.26482
  Beta  occ. eigenvalues --  -10.24426 -10.24335 -10.24325 -10.24314 -10.24278
  Beta  occ. eigenvalues --  -10.24194 -10.24168 -10.23935 -10.23621 -10.23550
  Beta  occ. eigenvalues --  -10.22888 -10.22629 -10.22586 -10.22503 -10.22455
  Beta  occ. eigenvalues --  -10.22203 -10.22101 -10.22074 -10.21858 -10.21841
  Beta  occ. eigenvalues --  -10.21718 -10.21680 -10.21601 -10.21577 -10.21515
  Beta  occ. eigenvalues --  -10.21334 -10.21272 -10.21183 -10.21180 -10.21153
  Beta  occ. eigenvalues --  -10.21070 -10.21063 -10.21031 -10.20865 -10.20542
  Beta  occ. eigenvalues --  -10.20504 -10.19291  -7.97915  -5.91583  -5.91258
  Beta  occ. eigenvalues --   -5.90684  -3.38474  -2.16268  -2.13911  -2.10530
  Beta  occ. eigenvalues --   -1.18956  -1.17967  -1.04735  -1.04126  -1.03070
  Beta  occ. eigenvalues --   -0.97269  -0.96284  -0.96089  -0.95097  -0.90355
  Beta  occ. eigenvalues --   -0.84338  -0.83796  -0.83058  -0.82768  -0.82478
  Beta  occ. eigenvalues --   -0.81670  -0.80757  -0.80250  -0.80025  -0.79140
  Beta  occ. eigenvalues --   -0.78591  -0.76859  -0.75957  -0.75875  -0.74969
  Beta  occ. eigenvalues --   -0.73878  -0.72788  -0.72236  -0.71757  -0.71651
  Beta  occ. eigenvalues --   -0.70185  -0.69981  -0.69040  -0.66931  -0.66122
  Beta  occ. eigenvalues --   -0.65545  -0.65162  -0.64852  -0.64242  -0.62494
  Beta  occ. eigenvalues --   -0.62057  -0.61343  -0.59500  -0.58808  -0.57171
  Beta  occ. eigenvalues --   -0.55836  -0.55546  -0.55171  -0.54234  -0.53725
  Beta  occ. eigenvalues --   -0.53052  -0.52331  -0.52037  -0.51725  -0.51348
  Beta  occ. eigenvalues --   -0.51139  -0.50577  -0.49202  -0.48701  -0.48484
  Beta  occ. eigenvalues --   -0.48285  -0.48042  -0.47975  -0.47375  -0.46991
  Beta  occ. eigenvalues --   -0.46884  -0.46054  -0.45807  -0.45169  -0.44872
  Beta  occ. eigenvalues --   -0.44763  -0.44566  -0.44175  -0.44031  -0.43917
  Beta  occ. eigenvalues --   -0.43791  -0.43589  -0.43523  -0.43101  -0.42925
  Beta  occ. eigenvalues --   -0.42752  -0.42622  -0.42521  -0.42147  -0.42080
  Beta  occ. eigenvalues --   -0.41758  -0.41735  -0.41504  -0.40917  -0.40693
  Beta  occ. eigenvalues --   -0.40256  -0.40104  -0.40024  -0.39856  -0.39420
  Beta  occ. eigenvalues --   -0.39276  -0.39262  -0.38956  -0.38685  -0.38501
  Beta  occ. eigenvalues --   -0.38254  -0.37921  -0.37623  -0.37350  -0.37167
  Beta  occ. eigenvalues --   -0.36822  -0.36683  -0.36569  -0.36323  -0.36155
  Beta  occ. eigenvalues --   -0.35760  -0.35197  -0.34955  -0.34575  -0.34228
  Beta  occ. eigenvalues --   -0.33024  -0.32805  -0.32510  -0.32344  -0.32279
  Beta  occ. eigenvalues --   -0.31984  -0.31908  -0.30867  -0.29939  -0.28074
  Beta  occ. eigenvalues --   -0.27798  -0.27633  -0.27278  -0.25257  -0.24811
  Beta  occ. eigenvalues --   -0.24171  -0.23941  -0.23118  -0.22665  -0.19531
  Beta  occ. eigenvalues --   -0.18850  -0.18427  -0.15064
  Beta virt. eigenvalues --   -0.07714  -0.06595  -0.04424  -0.03495  -0.00750
  Beta virt. eigenvalues --    0.00086   0.00428   0.00800   0.01978   0.02509
  Beta virt. eigenvalues --    0.02729   0.02938   0.03959   0.04296   0.04436
  Beta virt. eigenvalues --    0.04685   0.05006   0.05348   0.05755   0.05999
  Beta virt. eigenvalues --    0.06344   0.06617   0.06751   0.06899   0.07140
  Beta virt. eigenvalues --    0.07440   0.07622   0.07848   0.08010   0.08254
  Beta virt. eigenvalues --    0.08544   0.08621   0.09180   0.09396   0.09590
  Beta virt. eigenvalues --    0.10027   0.10228   0.10567   0.10658   0.10996
  Beta virt. eigenvalues --    0.11308   0.11699   0.11803   0.12081   0.12341
  Beta virt. eigenvalues --    0.12408   0.12562   0.12855   0.12987   0.13260
  Beta virt. eigenvalues --    0.13295   0.13426   0.13652   0.13664   0.13932
  Beta virt. eigenvalues --    0.14101   0.14232   0.14343   0.14457   0.14671
  Beta virt. eigenvalues --    0.14871   0.15293   0.15439   0.15596   0.15816
  Beta virt. eigenvalues --    0.15919   0.16044   0.16405   0.16637   0.16811
  Beta virt. eigenvalues --    0.16883   0.17028   0.17306   0.17480   0.17636
  Beta virt. eigenvalues --    0.17929   0.18390   0.18619   0.18783   0.19104
  Beta virt. eigenvalues --    0.19235   0.19408   0.19802   0.20017   0.20053
  Beta virt. eigenvalues --    0.20276   0.20628   0.20805   0.20905   0.21040
  Beta virt. eigenvalues --    0.21423   0.21605   0.21968   0.22179   0.22330
  Beta virt. eigenvalues --    0.22614   0.22731   0.22940   0.22997   0.23052
  Beta virt. eigenvalues --    0.23431   0.23609   0.23728   0.24058   0.24389
  Beta virt. eigenvalues --    0.24549   0.24733   0.24903   0.25119   0.25346
  Beta virt. eigenvalues --    0.25419   0.25617   0.25698   0.26119   0.26196
  Beta virt. eigenvalues --    0.26433   0.26743   0.27056   0.27342   0.27399
  Beta virt. eigenvalues --    0.27684   0.27920   0.28099   0.28176   0.28402
  Beta virt. eigenvalues --    0.28761   0.29218   0.29233   0.29369   0.29711
  Beta virt. eigenvalues --    0.29872   0.30101   0.30203   0.30436   0.30714
  Beta virt. eigenvalues --    0.30871   0.31283   0.31470   0.31765   0.32272
  Beta virt. eigenvalues --    0.32471   0.32681   0.32801   0.33024   0.33093
  Beta virt. eigenvalues --    0.33182   0.33564   0.33672   0.33833   0.34034
  Beta virt. eigenvalues --    0.34174   0.34631   0.34718   0.34936   0.35060
  Beta virt. eigenvalues --    0.35358   0.35393   0.35952   0.36261   0.36335
  Beta virt. eigenvalues --    0.36537   0.36850   0.36969   0.37146   0.37504
  Beta virt. eigenvalues --    0.37650   0.37859   0.37990   0.38254   0.38380
  Beta virt. eigenvalues --    0.38722   0.38870   0.38924   0.39042   0.39657
  Beta virt. eigenvalues --    0.39829   0.40041   0.40118   0.40366   0.40402
  Beta virt. eigenvalues --    0.40572   0.40804   0.40952   0.41321   0.41533
  Beta virt. eigenvalues --    0.41858   0.41947   0.42167   0.42338   0.42393
  Beta virt. eigenvalues --    0.42604   0.42767   0.43022   0.43180   0.43328
  Beta virt. eigenvalues --    0.43490   0.43720   0.44014   0.44176   0.44341
  Beta virt. eigenvalues --    0.44466   0.44475   0.44800   0.44952   0.45129
  Beta virt. eigenvalues --    0.45476   0.45662   0.45719   0.45811   0.45965
  Beta virt. eigenvalues --    0.46170   0.46411   0.46497   0.46680   0.46779
  Beta virt. eigenvalues --    0.46953   0.47145   0.47215   0.47413   0.47513
  Beta virt. eigenvalues --    0.47596   0.47706   0.47915   0.47996   0.48018
  Beta virt. eigenvalues --    0.48143   0.48517   0.48643   0.48944   0.49033
  Beta virt. eigenvalues --    0.49092   0.49238   0.49523   0.49606   0.49740
  Beta virt. eigenvalues --    0.49869   0.50092   0.50294   0.50459   0.50738
  Beta virt. eigenvalues --    0.50895   0.51078   0.51269   0.51490   0.51666
  Beta virt. eigenvalues --    0.51781   0.51883   0.52107   0.52286   0.52362
  Beta virt. eigenvalues --    0.52521   0.52645   0.52916   0.53211   0.53528
  Beta virt. eigenvalues --    0.53704   0.53834   0.54038   0.54186   0.54309
  Beta virt. eigenvalues --    0.54555   0.54645   0.54995   0.55079   0.55350
  Beta virt. eigenvalues --    0.55719   0.55807   0.56099   0.56172   0.56410
  Beta virt. eigenvalues --    0.56612   0.56851   0.57072   0.57264   0.57593
  Beta virt. eigenvalues --    0.57712   0.57775   0.58019   0.58244   0.58719
  Beta virt. eigenvalues --    0.58849   0.58918   0.59272   0.59461   0.59715
  Beta virt. eigenvalues --    0.59918   0.60092   0.60350   0.60615   0.60744
  Beta virt. eigenvalues --    0.60858   0.61134   0.61421   0.61644   0.61871
  Beta virt. eigenvalues --    0.61905   0.62402   0.62712   0.62987   0.63148
  Beta virt. eigenvalues --    0.63513   0.63693   0.63982   0.64171   0.64513
  Beta virt. eigenvalues --    0.64699   0.64719   0.65027   0.65312   0.65825
  Beta virt. eigenvalues --    0.66078   0.66206   0.66399   0.66539   0.67062
  Beta virt. eigenvalues --    0.67160   0.67247   0.67530   0.67883   0.68301
  Beta virt. eigenvalues --    0.68376   0.68515   0.68899   0.69274   0.69476
  Beta virt. eigenvalues --    0.69688   0.69899   0.70199   0.70494   0.70607
  Beta virt. eigenvalues --    0.70799   0.71180   0.71578   0.71816   0.71934
  Beta virt. eigenvalues --    0.72084   0.72263   0.72839   0.73432   0.74028
  Beta virt. eigenvalues --    0.74119   0.74323   0.74617   0.74846   0.74939
  Beta virt. eigenvalues --    0.75499   0.75826   0.76187   0.76310   0.76599
  Beta virt. eigenvalues --    0.76720   0.77150   0.77260   0.77802   0.78166
  Beta virt. eigenvalues --    0.78451   0.78487   0.78779   0.79161   0.79445
  Beta virt. eigenvalues --    0.79545   0.79677   0.80071   0.80663   0.81101
  Beta virt. eigenvalues --    0.81285   0.81605   0.82176   0.82379   0.82583
  Beta virt. eigenvalues --    0.82699   0.83215   0.83492   0.83852   0.83932
  Beta virt. eigenvalues --    0.84313   0.84326   0.84731   0.84895   0.85117
  Beta virt. eigenvalues --    0.85329   0.86077   0.86374   0.86599   0.86945
  Beta virt. eigenvalues --    0.87176   0.87375   0.87597   0.87887   0.88056
  Beta virt. eigenvalues --    0.88193   0.88680   0.89307   0.89472   0.89734
[...]
  1725. RY*(   3) H  80                  0.00005     2.23823   
  1726. RY*(   4) H  80                  0.00001     2.82722   
  1727. RY*(   5) H  80                  0.00002     2.52219   
  1728. RY*(   1) H  81                  0.00035     1.32766   
  1729. RY*(   2) H  81                  0.00006     1.40494   
  1730. RY*(   3) H  81                  0.00005     2.22658   
  1731. RY*(   4) H  81                  0.00003     2.38780   
  1732. RY*(   5) H  81                  0.00000     3.08092   
  1733. RY*(   1) H  82                  0.00077     0.68302   
  1734. RY*(   2) H  82                  0.00012     2.26958   
  1735. RY*(   3) H  82                  0.00005     2.73193   
  1736. RY*(   4) H  82                  0.00001     2.39321   
  1737. RY*(   5) H  82                  0.00001     2.99987   
  1738. RY*(   1) H  83                  0.00081     0.70745   
  1739. RY*(   2) H  83                  0.00013     2.11895   
  1740. RY*(   3) H  83                  0.00013     2.27052   
  1741. RY*(   4) H  83                  0.00006     3.04651   
  1742. RY*(   5) H  83                  0.00000     3.24794   
  1743. RY*(   1) H  84                  0.00093     0.64431   
  1744. RY*(   2) H  84                  0.00012     2.18823   
  1745. RY*(   3) H  84                  0.00013     2.26372   
  1746. RY*(   4) H  84                  0.00006     3.04229   
  1747. RY*(   5) H  84                  0.00001     3.21010   
  1748. RY*(   1) H  85                  0.00042     1.02695   
  1749. RY*(   2) H  85                  0.00009     1.75001   
  1750. RY*(   3) H  85                  0.00003     2.13521   
  1751. RY*(   4) H  85                  0.00003     2.11969   
  1752. RY*(   5) H  85                  0.00000     2.91730   
  1753. RY*(   1) H  86                  0.00040     1.01022   
  1754. RY*(   2) H  86                  0.00009     1.79675   
  1755. RY*(   3) H  86                  0.00003     2.18158   
  1756. RY*(   4) H  86                  0.00002     2.50223   
  1757. RY*(   5) H  86                  0.00001     2.48037   
  1758. RY*(   1) H  87                  0.00032     1.19741   
  1759. RY*(   2) H  87                  0.00007     1.87835   
  1760. RY*(   3) H  87                  0.00004     2.07969   
  1761. RY*(   4) H  87                  0.00002     1.85257   
  1762. RY*(   5) H  87                  0.00000     3.06286   
  1763. RY*(   1) H  88                  0.00084     0.55059   
  1764. RY*(   2) H  88                  0.00009     2.29356   
  1765. RY*(   3) H  88                  0.00008     2.74187   
  1766. RY*(   4) H  88                  0.00006     2.44389   
  1767. RY*(   5) H  88                  0.00001     3.14670   
  1768. RY*(   1) H  89                  0.00044     1.67801   
  1769. RY*(   2) H  89                  0.00008     2.37295   
  1770. RY*(   3) H  89                  0.00007     2.41090   
  1771. RY*(   4) H  89                  0.00004     2.02440   
  1772. RY*(   5) H  89                  0.00000     2.75464   
  1773. RY*(   1) H  90                  0.00030     1.32442   
  1774. RY*(   2) H  90                  0.00007     2.26925   
  1775. RY*(   3) H  90                  0.00005     1.66814   
  1776. RY*(   4) H  90                  0.00003     2.41343   
  1777. RY*(   5) H  90                  0.00000     2.98219   
  1778. RY*(   1) H  91                  0.00037     1.37369   
  1779. RY*(   2) H  91                  0.00006     1.45759   
  1780. RY*(   3) H  91                  0.00005     2.60444   
  1781. RY*(   4) H  91                  0.00004     2.38358   
  1782. RY*(   5) H  91                  0.00001     3.02022   
  1783. RY*(   1) H  92                  0.00044     1.75274   
  1784. RY*(   2) H  92                  0.00028     1.88150   
  1785. RY*(   3) H  92                  0.00015     2.10738   
  1786. RY*(   4) H  92                  0.00010     1.47570   
  1787. RY*(   5) H  92                  0.00000     3.27641   
  1788. RY*(   1) H  93                  0.00070     0.72087   
  1789. RY*(   2) H  93                  0.00015     2.25549   
  1790. RY*(   3) H  93                  0.00011     2.19575   
  1791. RY*(   4) H  93                  0.00006     3.06975   
  1792. RY*(   5) H  93                  0.00000     3.26865   
  1793. RY*(   1) H  94                  0.00044     1.00166   
  1794. RY*(   2) H  94                  0.00009     1.81331   
  1795. RY*(   3) H  94                  0.00003     2.14520   
  1796. RY*(   4) H  94                  0.00002     2.05213   
  1797. RY*(   5) H  94                  0.00000     2.94771   
  1798. RY*(   1) H  95                  0.00038     1.05906   
  1799. RY*(   2) H  95                  0.00008     1.77627   
  1800. RY*(   3) H  95                  0.00003     2.13853   
  1801. RY*(   4) H  95                  0.00002     2.00575   
  1802. RY*(   5) H  95                  0.00000     2.96348   
  1803. RY*(   1) H  96                  0.00023     1.39933   
  1804. RY*(   2) H  96                  0.00009     1.90966   
  1805. RY*(   3) H  96                  0.00004     2.12026   
  1806. RY*(   4) H  96                  0.00001     2.28024   
  1807. RY*(   5) H  96                  0.00000     2.47453   
  1808. RY*(   1) H  97                  0.00035     1.67113   
  1809. RY*(   2) H  97                  0.00008     2.55806   
  1810. RY*(   3) H  97                  0.00007     2.29426   
  1811. RY*(   4) H  97                  0.00004     1.69079   
  1812. RY*(   5) H  97                  0.00001     3.04332   
  1813. RY*(   1) H  98                  0.00036     1.65986   
  1814. RY*(   2) H  98                  0.00009     2.56999   
  1815. RY*(   3) H  98                  0.00005     2.10484   
  1816. RY*(   4) H  98                  0.00004     2.16576   
  1817. RY*(   5) H  98                  0.00000     2.87685   
  1818. RY*(   1) H  99                  0.00037     1.40715   
  1819. RY*(   2) H  99                  0.00008     1.84072   
  1820. RY*(   3) H  99                  0.00005     2.46343   
  1821. RY*(   4) H  99                  0.00004     2.29077   
  1822. RY*(   5) H  99                  0.00001     3.10715   
  1823. RY*(   1) H 100                  0.00030     1.50749   
  1824. RY*(   2) H 100                  0.00009     1.91936   
  1825. RY*(   3) H 100                  0.00004     1.94208   
  1826. RY*(   4) H 100                  0.00004     2.43117   
  1827. RY*(   5) H 100                  0.00001     3.10416   
  1828. RY*(   1) H 101                  0.00092     0.85408   
  1829. RY*(   2) H 101                  0.00033     2.14031   
  1830. RY*(   3) H 101                  0.00023     1.82529   
  1831. RY*(   4) H 101                  0.00010     2.12665   
  1832. RY*(   5) H 101                  0.00000     3.17384   
  1847. BD*(   1) C   7 - C   8          0.00471     0.36267   
  1848. BD*(   1) C   7 - H  57          0.00263     0.42085   
  1849. BD*(   1) C   7 - H  58          0.00361     0.43086   
  1850. BD*(   1) C   7 - H  59          0.00287     0.42414   
  1851. BD*(   1) C   8 - S   9          0.01651     0.18623   
  1852. BD*(   1) C   8 - H  60          0.00644     0.40081   
  1853. BD*(   1) C   8 - H  61          0.01024     0.42959   
  1854. BD*(   1) S   9 - C  10          0.00903     0.23131   
  1855. BD*(   1) S   9 -Fe  11          0.04455     0.30691   
  1856. BD*(   1) C  10 - H  54          0.00474     0.39842   
  1857. BD*(   1) C  10 - H  55          0.00819     0.43158   
  1858. BD*(   1) C  10 - H  56          0.00690     0.40229   
  1859. BD*(   1) C  12 - C  17          0.01056     0.57787   
  1860. BD*(   2) C  12 - C  17          0.23368     0.04578  1932(v),1879(v),28(v),501(g)
                                                    1864(r),1873(r),635(g)
                                                    633(g)
  1861. BD*(   1) C  12 - C  47          0.01082     0.57422   
  1862. BD*(   1) C  12 - H  93          0.00706     0.44878   
  1863. BD*(   1) C  13 - C  20          0.01054     0.57410   
  1864. BD*(   2) C  13 - C  20          0.21291     0.04970  1879(v),1897(v),1868(r)
                                                    28(v),1860(r),527(g),713(g)
  1865. BD*(   1) C  13 - C  28          0.01030     0.58634   
  1866. BD*(   1) C  13 - H  84          0.00690     0.45218   
  1867. BD*(   1) C  14 - C  31          0.01052     0.58207   
  1868. BD*(   2) C  14 - C  31          0.20269     0.04988  1914(v),1901(v),1864(r)
                                                    1897(v),553(g),999(g)
  1869. BD*(   1) C  14 - C  36          0.01048     0.58833   
  1870. BD*(   1) C  14 - H  75          0.00694     0.45700   
  1871. BD*(   1) C  15 - C  39          0.01038     0.58318   
  1872. BD*(   1) C  15 - C  44          0.01046     0.57680   
  1873. BD*(   2) C  15 - C  44          0.18952     0.05133  1935(v),205(v),1932(v)
                                                    579(g),1860(r),1337(g)
  1874. BD*(   1) C  15 - H  83          0.00683     0.45464   
  1875. BD*(   1) N  16 - C  17          0.01409     0.48404   
  1876. BD*(   1) N  16 - C  20          0.01361     0.49741   
  1877. BD*(   1) C  17 - C  18          0.01690     0.48873   
  1878. BD*(   1) C  18 - C  19          0.00981     0.61110   
  1879. BD*(   2) C  18 - C  19          0.13803     0.06813  1864(v),1860(v),1886(v)
                                                    1883(v),1884(v),1888(v)
  1880. BD*(   1) C  18 - C  22          0.01233     0.38573   
  1881. BD*(   1) C  19 - C  20          0.01685     0.48779   
  1882. BD*(   1) C  19 - C  21          0.00884     0.38344   
  1883. BD*(   1) C  21 - H  85          0.00475     0.40902   
  1884. BD*(   1) C  21 - H  86          0.00433     0.40647   
  1885. BD*(   1) C  21 - H  87          0.00259     0.40973   
  1886. BD*(   1) C  22 - C  23          0.00862     0.35867   
  1887. BD*(   1) C  22 - H  88          0.00769     0.39336   
  1888. BD*(   1) C  22 - H  89          0.00759     0.40222   
  1889. BD*(   1) C  23 - C  24          0.04313     0.35087   
  1890. BD*(   1) C  23 - H  90          0.00617     0.38862   
  1891. BD*(   1) C  23 - H  91          0.00550     0.40425   
  1892. BD*(   1) C  24 - O  25          0.02947     0.58780   
  1893. BD*(   2) C  24 - O  25          0.08188     0.05532   
  1894. BD*(   1) C  24 - O  26          0.03622     0.54708   
  1895. BD*(   1) O  26 - H  92          0.00794     0.36945   
  1896. BD*(   1) N  27 - C  28          0.01450     0.47460   
  1897. BD*(   2) N  27 - C  28          0.32413     0.00603  1864(v),1901(v),1868(v)
                                                    195(r),918(g),892(g),527(v)
                                                    28(r)
  1898. BD*(   1) N  27 - C  31          0.01443     0.45756   
  1899. BD*(   1) C  28 - C  29          0.01626     0.49012   
  1900. BD*(   1) C  29 - C  30          0.01208     0.58656   
  1901. BD*(   2) C  29 - C  30          0.12724     0.07713  1868(v),1897(v),203(v)
                                                    1908(v),1906(v),1900(g)
                                                    1909(v),1905(v)
  1902. BD*(   1) C  29 - C  32          0.00874     0.37851   
  1903. BD*(   1) C  30 - C  31          0.01669     0.48353   
  1904. BD*(   1) C  30 - C  33          0.00945     0.53180   
  1905. BD*(   1) C  32 - H  72          0.00357     0.41460   
  1906. BD*(   1) C  32 - H  73          0.00446     0.41145   
  1907. BD*(   1) C  32 - H  74          0.00287     0.41749   
  1908. BD*(   1) C  33 - C  34          0.00551     0.37490   
  1909. BD*(   1) C  33 - H  68          0.00887     0.45038   
  1910. BD*(   1) C  34 - H  69          0.00125     0.41119   
  1911. BD*(   1) C  34 - H  70          0.00185     0.40820   
  1912. BD*(   1) C  34 - H  71          0.00276     0.41159   
  1913. BD*(   1) N  35 - C  36          0.01442     0.47869   
  1914. BD*(   2) N  35 - C  36          0.34823     0.00392  1868(v),1918(v),205(v)
                                                    195(r),1127(g),1101(g)
                                                    553(v),1126(g),1855(r)
                                                    191(r),1843(r)
  1915. BD*(   1) N  35 - C  39          0.01351     0.49816   
  1916. BD*(   1) C  36 - C  37          0.01667     0.49899   
  1917. BD*(   1) C  37 - C  38          0.01307     0.61600   
  1918. BD*(   2) C  37 - C  38          0.14744     0.08419  1914(v),206(v),205(v)
                                                    1923(v),1917(g),1925(v)
                                                    1926(v),1154(g)
  1919. BD*(   1) C  37 - C  40          0.00861     0.39122   
  1920. BD*(   1) C  38 - C  39          0.01818     0.49985   
  1921. BD*(   1) C  38 - C  41          0.01086     0.58578   
  1922. BD*(   1) C  40 - H  76          0.00323     0.41670   
  1923. BD*(   1) C  40 - H  77          0.00460     0.41172   
  1924. BD*(   1) C  40 - H  78          0.00294     0.41464   
  1925. BD*(   1) C  41 - C  42          0.00527     0.47258   
  1926. BD*(   1) C  41 - H  82          0.01068     0.44696   
  1927. BD*(   1) C  42 - H  79          0.00211     0.41161   
  1928. BD*(   1) C  42 - H  80          0.00255     0.40743   
  1929. BD*(   1) C  42 - H  81          0.00407     0.41140   
  1930. BD*(   1) N  43 - C  44          0.01491     0.47112   
  1931. BD*(   1) N  43 - C  47          0.01459     0.48096   
  1932. BD*(   2) N  43 - C  47          0.33258     0.00486  1860(v),1935(v),1873(v)
                                                    1412(g),191(r),1308(g),28(r)
                                                    501(v),195(r),1843(r)
                                                    1415(g)
  1933. BD*(   1) C  44 - C  45          0.01644     0.49682   
  1934. BD*(   1) C  45 - C  46          0.00996     0.61824   
  1935. BD*(   2) C  45 - C  46          0.11686     0.07244  1873(v),1932(v),1942(v)
                                                    1939(v),1940(v)
  1936. BD*(   1) C  45 - C  48          0.00924     0.38103   
  1937. BD*(   1) C  46 - C  47          0.01708     0.49200   
  1938. BD*(   1) C  46 - C  49          0.01186     0.39443   
  1939. BD*(   1) C  48 - H  94          0.00454     0.40764   
  1940. BD*(   1) C  48 - H  95          0.00381     0.40972   
  1941. BD*(   1) C  48 - H  96          0.00263     0.41714   
  1942. BD*(   1) C  49 - C  50          0.00845     0.35939   
  1943. BD*(   1) C  49 - H  97          0.00610     0.41193   
  1944. BD*(   1) C  49 - H  98          0.00737     0.41079   
  1945. BD*(   1) C  50 - C  51          0.03684     0.33232   
  1946. BD*(   1) C  50 - H  99          0.00493     0.40557   
  1947. BD*(   1) C  50 - H 100          0.00517     0.39379   
  1948. BD*(   1) C  51 - O  52          0.01555     0.59417   
  1949. BD*(   2) C  51 - O  52          0.11502     0.02989  1948(g),1947(v),1522(g)
  1950. BD*(   1) C  51 - O  53          0.03497     0.55003   
  1951. BD*(   1) O  53 - H 101          0.00828     0.37268   
       -------------------------------
              Total Lewis  175.73447  ( 97.0034%)
        Valence non-Lewis    5.08072  (  2.8045%)
        Rydberg non-Lewis    0.34796  (  0.1921%)
       -------------------------------
            Total unit  2  181.16314  (100.0000%)
           Charge unit  2    1.83686
 1\1\GINC-NODE400\SP\UPBE1PBE\def2TZVP\C41H48Fe1N6O4S1(5)\ZHARTOVSKA\14
 -Nov-2022\0\\# PBE1PBE/def2TZVP empiricaldispersion=GD3BJ scf=maxcycle
 =999 geom=check pop=nbo guess=read\\1cxc_II_Q\\0,5\C,0,78.752998,25.16
 9001,20.826\C,0,79.831001,25.295,19.747\N,0,79.633003,26.038,18.579\C,
 0,81.039001,24.628,19.697001\C,0,80.745003,25.796,17.85\N,0,81.569,24.
 989,18.445\C,0,87.301003,25.139999,16.516001\C,0,86.764999,24.030001,1
 7.419001\S,0,85.233002,23.263,16.796\C,0,85.511002,21.620001,17.33\Fe,
 0,83.263,24.167999,17.721001\C,0,82.996002,25.962999,14.866\C,0,81.308
 998,21.716,16.389999\C,0,83.694,22.281,20.549999\C,0,84.963997,26.739,
 19.207001\N,0,82.372002,23.871,15.983\C,0,82.376999,24.725,14.891\C,0,
 81.637001,24.15,13.781\C,0,81.183998,22.943001,14.193\C,0,81.616997,22
 .796,15.572\C,0,80.466003,21.92,13.324\C,0,81.334999,24.801001,12.439\
 C,0,79.931,25.385,12.44\C,0,79.619003,26.367001,11.322\O,0,78.959999,2
 7.35,11.59\O,0,80.199997,26.236,10.25\N,0,82.657997,22.391001,18.323\C
 ,0,81.778999,21.535999,17.674\C,0,81.483002,20.371,18.490999\C,0,82.21
 3997,20.472,19.645\C,0,82.927002,21.74,19.533001\C,0,80.526001,19.236,
 18.107\C,0,82.306999,19.500999,20.683001\C,0,82.9152898,18.11683185,20
 .39031754\N,0,84.172997,24.438999,19.468\C,0,84.263,23.537001,20.524\C
 ,0,84.920998,24.139999,21.666\C,0,85.278,25.389999,21.291\C,0,84.79900
 4,25.573999,19.934999\C,0,84.983002,23.559,23.070999\C,0,85.932999,26.
 341,22.066999\C,0,87.223999,26.094999,22.693001\N,0,83.831001,25.954,1
 7.169001\C,0,84.523003,26.914,17.905001\C,0,84.813004,28.082001,17.101
 999\C,0,84.324997,27.841,15.865\C,0,83.692001,26.537001,15.919\C,0,85.
 566002,29.334,17.547001\C,0,84.656998,28.629,14.607\C,0,85.712997,27.9
 10999,13.768\C,0,86.494003,28.816999,12.805\O,0,87.511002,28.375999,12
 .29\O,0,85.924004,29.778,12.316\H,0,86.43022184,21.57302177,17.8756444
 3\H,0,84.70511162,21.30901652,17.9614502\H,0,85.56766673,20.97328741,1
 6.47944098\H,0,88.24425242,24.84304872,16.10734336\H,0,86.60798121,25.
 31851601,15.7205436\H,0,87.42611681,26.03571797,17.08778248\H,0,87.514
 39658,23.27176807,17.51057656\H,0,86.57236195,24.44057225,18.38813578\
 H,0,79.12190644,25.56925979,21.74719458\H,0,77.88163149,25.71201109,20
 .52473527\H,0,78.50176896,24.13763976,20.96045431\H,0,78.8513545,26.61
 378281,18.3392089\H,0,80.92646676,26.22368306,16.8861234\H,0,81.470667
 03,23.9869344,20.43700056\H,0,81.95421749,19.73332004,21.66609415\H,0,
 83.85878024,18.02952899,20.88741311\H,0,82.25356177,17.35428537,20.744
 6322\H,0,83.05617101,18.00495467,19.33554933\H,0,80.98605398,18.293895
 06,18.32075109\H,0,79.62077427,19.3268281,18.67021828\H,0,80.30341413,
 19.29531498,17.06209004\H,0,83.85757957,21.68066302,21.42048003\H,0,85
 .87046113,23.90254227,23.56017689\H,0,84.12460964,23.87533449,23.62597
 201\H,0,84.99753538,22.4905747,23.01481931\H,0,87.94397837,26.78756088
 ,22.30974163\H,0,87.13664338,26.22080101,23.75198299\H,0,87.54031088,2
 5.09581473,22.4774144\H,0,85.46791514,27.29400028,22.20978369\H,0,85.4
 6455636,27.55789718,19.68002081\H,0,80.65692379,20.96616905,15.9931958
 \H,0,81.06813756,21.03969104,13.23803423\H,0,79.52741006,21.66781123,1
 3.77159817\H,0,80.29777381,22.33341767,12.35153675\H,0,82.043032,25.58
 246942,12.25762642\H,0,81.41219975,24.06689388,11.66438604\H,0,79.2339
 8844,24.57568552,12.37608641\H,0,79.77924741,25.88484069,13.3738257\H,
 0,81.15956392,26.2325026,10.22138026\H,0,82.93195666,26.52437317,13.95
 734317\H,0,86.50193577,29.38944365,17.03139071\H,0,84.98176819,30.2011
 7925,17.31990848\H,0,85.74185198,29.28852686,18.60147195\H,0,85.026793
 43,29.59378163,14.88511463\H,0,83.7680099,28.74897633,14.02372833\H,0,
 86.41026659,27.44356199,14.43148908\H,0,85.22748885,27.14886917,13.194
 99044\H,0,86.43468283,30.50249908,11.94734268\\Version=ES64L-G16RevA.0
 3\State=5-A\HF=-3880.5640744\S2=6.14974\S2-1=0.\S2A=6.004333\RMSD=5.60
 3e-10\Dipole=-0.5149631,-0.0558894,1.4915225\Quadrupole=-11.6999978,13
 .7978263,-2.0978285,10.6835663,-6.744401,4.9592166\PG=C01 [X(C41H48Fe1
 N6O4S1)]\\@


 VIRTUE IS LEARNED AT YOUR MOTHER'S KNEE,
 VICES ARE PICKED UP AT SOME OTHER JOINT.
 Job cpu time:       0 days  5 hours 28 minutes 54.0 seconds.
 Elapsed time:       0 days  1 hours 22 minutes 36.4 seconds.
 File lengths (MBytes):  RWF=   3466 Int=      0 D2E=      0 Chk=    292 Scr=      1
 Normal termination of Gaussian 16 at Mon Nov 14 10:27:26 2022.
