 Entering Gaussian System, Link 0=g16
 Input=/net/homes/chemie/zhartovska/work/BioModel/Konrad/1b5a/1b5a12/1b5a16/1b5a16.com
 Output=/net/homes/chemie/zhartovska/work/BioModel/Konrad/1b5a/1b5a12/1b5a16/1b5a16.log
 Initial command:
 /afs/math/software/gaussian/g16.A03/g16/l1.exe "/scratch/zhartovska_gaussian.0oZCWBw/Gau-1052.inp" -scrdir="/scratch/zhartovska_gaussian.0oZCWBw/"
 Entering Link 1 = /afs/math/software/gaussian/g16.A03/g16/l1.exe PID=      1056.
  
 Copyright (c) 1988,1990,1992,1993,1995,1998,2003,2009,2016,
            Gaussian, Inc.  All Rights Reserved.
  
 This is part of the Gaussian(R) 16 program.  It is based on
 the Gaussian(R) 09 system (copyright 2009, Gaussian, Inc.),
 the Gaussian(R) 03 system (copyright 2003, Gaussian, Inc.),
 the Gaussian(R) 98 system (copyright 1998, Gaussian, Inc.),
 the Gaussian(R) 94 system (copyright 1995, Gaussian, Inc.),
 the Gaussian 92(TM) system (copyright 1992, Gaussian, Inc.),
 the Gaussian 90(TM) system (copyright 1990, Gaussian, Inc.),
 the Gaussian 88(TM) system (copyright 1988, Gaussian, Inc.),
 the Gaussian 86(TM) system (copyright 1986, Carnegie Mellon
 University), and the Gaussian 82(TM) system (copyright 1983,
 Carnegie Mellon University). Gaussian is a federally registered
 trademark of Gaussian, Inc.
  
 This software contains proprietary and confidential information,
 including trade secrets, belonging to Gaussian, Inc.
  
 This software is provided under written license and may be
 used, copied, transmitted, or stored only in accord with that
 written license.
  
 The following legend is applicable only to US Government
 contracts under FAR:
  
                    RESTRICTED RIGHTS LEGEND
  
 Use, reproduction and disclosure by the US Government is
 subject to restrictions as set forth in subparagraphs (a)
 and (c) of the Commercial Computer Software - Restricted
 Rights clause in FAR 52.227-19.
  
 Gaussian, Inc.
 340 Quinnipiac St., Bldg. 40, Wallingford CT 06492
  
  
 ---------------------------------------------------------------
 Warning -- This program may not be used in any manner that
 competes with the business of Gaussian, Inc. or will provide
 assistance to any competitor of Gaussian, Inc.  The licensee
 of this program is prohibited from giving any competitor of
 Gaussian, Inc. access to this program.  By using this program,
 the user acknowledges that Gaussian, Inc. is engaged in the
 business of creating and licensing software in the field of
 computational chemistry and represents and warrants to the
 licensee that it is not a competitor of Gaussian, Inc. and that
 it will not use this program in any manner prohibited above.
 ---------------------------------------------------------------
  

 Cite this work as:
 Gaussian 16, Revision A.03,
 M. J. Frisch, G. W. Trucks, H. B. Schlegel, G. E. Scuseria, 
 M. A. Robb, J. R. Cheeseman, G. Scalmani, V. Barone, 
 G. A. Petersson, H. Nakatsuji, X. Li, M. Caricato, A. V. Marenich, 
 J. Bloino, B. G. Janesko, R. Gomperts, B. Mennucci, H. P. Hratchian, 
 J. V. Ortiz, A. F. Izmaylov, J. L. Sonnenberg, D. Williams-Young, 
 F. Ding, F. Lipparini, F. Egidi, J. Goings, B. Peng, A. Petrone, 
 T. Henderson, D. Ranasinghe, V. G. Zakrzewski, J. Gao, N. Rega, 
 G. Zheng, W. Liang, M. Hada, M. Ehara, K. Toyota, R. Fukuda, 
 J. Hasegawa, M. Ishida, T. Nakajima, Y. Honda, O. Kitao, H. Nakai, 
 T. Vreven, K. Throssell, J. A. Montgomery, Jr., J. E. Peralta, 
 F. Ogliaro, M. J. Bearpark, J. J. Heyd, E. N. Brothers, K. N. Kudin, 
 V. N. Staroverov, T. A. Keith, R. Kobayashi, J. Normand, 
 K. Raghavachari, A. P. Rendell, J. C. Burant, S. S. Iyengar, 
 J. Tomasi, M. Cossi, J. M. Millam, M. Klene, C. Adamo, R. Cammi, 
 J. W. Ochterski, R. L. Martin, K. Morokuma, O. Farkas, 
 J. B. Foresman, and D. J. Fox, Gaussian, Inc., Wallingford CT, 2016.
 
 ******************************************
 Gaussian 16:  ES64L-G16RevA.03 25-Dec-2016
                 7-Feb-2023 
 ******************************************
 %nprocs=12
 Will use up to   12 processors via shared memory.
 %mem=16GB
 %oldchk=1b5a_III_D.chk
 %chk=1b5a_III_H.chk
 Copying data from "1b5a_III_D.chk" to current chk file "1b5a_III_H.chk"
 IOpt=  2 FromEx=T IUOpen= 4 IOptOp= 5 NList=   0 IFRang= 0 IUIn= 4 IUOut= 2.
 ----------------------------------------------------------------------
 # PBE1PBE/def2TZVP scf=maxcycle=999 empiricaldispersion=GD3BJ int=(gri
 d=ultrafine) geom=check pop=nbo
 ----------------------------------------------------------------------
 1/29=2,38=1,172=1/1;
 2/12=2,40=1/2;
 3/5=44,7=101,11=2,14=-4,25=1,30=1,74=-13,75=-5,124=41/1,2,3;
 4//1;
 5/5=2,7=999,38=5/2;
 6/7=2,8=2,9=2,10=2,28=1,40=1/1,7;
 99/5=1,9=1/99;
 ----------
 1b5a_III_H
 ----------
 Structure from the checkpoint file:  "1b5a_III_H.chk"
 Charge =  1 Multiplicity = 6
 Z-Matrix found in chk file.
 C,0,-3.6,-0.788,-11.238
 C,0,-2.729,0.206,-10.509
 N,0,-3.246,1.24,-9.749
 C,0,-1.371,0.311,-10.43
 C,0,-2.236,1.932,-9.241
 N,0,-1.075,1.355,-9.665
 H,0,-3.36962098,-0.76530082,-12.28265796
 H,0,-4.62922121,-0.53324069,-11.09412019
 H,0,-4.217,1.434,-9.607
 H,0,-0.652,-0.35,-10.914
 H,0,-2.319,2.808,-8.598
 C,0,6.076,3.225,-9.411
 C,0,4.581,3.425,-9.474
 N,0,3.98,4.657,-9.283
 C,0,3.572,2.537,-9.707
 C,0,2.669,4.506,-9.399
 N,0,2.418,3.191,-9.661
 H,0,6.56926546,4.12080861,-9.72582713
 H,0,6.35543547,2.41838514,-10.05612656
 H,0,4.455,5.516,-9.092
 H,0,3.694,1.471,-9.899
 H,0,1.922,5.293,-9.302
 C,0,1.35,1.126,-6.935
 C,0,2.119,-0.205,-11.461
 C,0,-0.301,3.664,-12.955
 C,0,-1.068,4.994,-8.43
 C,0,1.758,0.438,-7.992
 C,0,2.529,-0.801,-7.965
 C,0,2.735,-1.172,-9.24
 C,0,2.11,-0.184,-10.07
 C,0,3.53,-2.391,-9.683
 C,0,3.544,-1.268,-6.862
 C,0,3.822,-2.76,-6.564
 C,0,5.185,-2.999,-5.927
 O,0,5.501,-4.168,-5.594
 O,0,5.963,-2.025,-5.765
 C,0,1.528,0.752,-12.258
 C,0,1.536,0.692,-13.71
 C,0,0.861,1.772,-14.135
 C,0,0.405,2.506,-12.954
 C,0,2.188,-0.348,-14.606
 C,0,0.613,2.151,-15.575
 C,0,0.703,1.513,-16.613001
 C,0,-0.725,4.359,-11.874
 C,0,-1.477,5.591,-11.926
 C,0,-1.717,5.961,-10.613
 C,0,-1.078,4.98,-9.79
 C,0,-1.969,6.344,-13.118
 C,0,-2.48,7.179,-10.206
 C,0,-3.342,7.66,-10.693
 C,0,-0.481,4.056,-7.612
 C,0,-0.484,4.089,-6.136
 C,0,0.189,3.015,-5.757
 C,0,0.62,2.29,-6.928
 C,0,-1.137,5.136,-5.286
 C,0,0.354,2.302,-4.319
 C,0,-0.747,1.23,-4.127
 C,0,-1.646,1.556,-2.934
 O,0,-1.541,1.067,-1.811
 O,0,-2.716,2.2,-3.378
 N,0,1.545,0.789,-9.295
 N,0,0.85,1.854,-11.834
 N,0,-0.496,4.004,-10.575
 N,0,0.207,2.936,-8.038
 Fe,0,0.541,2.391,-9.941
 H,0,2.525,-1.099,-11.912
 H,0,-0.617,4.074,-13.926
 H,0,-1.559,5.82,-7.911
 H,0,0.049,3.168,-15.538
 H,0,-2.026,7.442,-9.076
 H,0,1.603,0.738,-5.92
 H,0,3.022,-3.268,-9.778
 H,0,4.562,-2.502,-9.218
 H,0,3.981,-2.194,-10.883
 H,0,3.342,-0.743,-5.904
 H,0,4.585,-1.14,-7.227
 H,0,3.785,-3.344,-7.508
 H,0,3.045,-3.16,-5.878
 H,0,1.245,-1.304,-14.797
 H,0,2.823,-0.996,-13.957
 H,0,2.448,-0.115,-15.46
 H,0,0.594,1.972,-17.607
 H,0,0.828,0.422,-16.573999
 H,0,-2.637,6.134,-13.53
 H,0,-0.857,6.175,-13.872
 H,0,-1.604,7.47,-12.887
 H,0,-3.89,8.469,-10.19
 H,0,-3.667,7.384,-11.707
 H,0,-2.473,4.593,-5.406
 H,0,-1.171,5.848,-5.538
 H,0,-1.137,4.644,-4.195
 H,0,0.322,2.993,-3.448
 H,0,1.345,1.801,-4.295
 H,0,-0.285,0.225,-4.001
 H,0,-1.386,1.157,-5.03
 H,0,-3.41862492,-1.77012244,-10.85402267
 H,0,6.36292696,2.99405001,-8.4063931
 H,0,-0.67165607,0.90441773,-1.437626
 H,0,6.91309869,-2.16065905,-5.78756341
 Recover connectivity data from disk.
 Stoichiometry    C42H44FeN8O4(1+,6)
 Framework group  C1[X(C42H44FeN8O4)]
 Deg. of freedom   291
 Full point group                 C1      NOp   1
 Largest Abelian subgroup         C1      NOp   1
 Largest concise Abelian subgroup C1      NOp   1
                         Standard orientation:                         
 ---------------------------------------------------------------------
 Center     Atomic      Atomic             Coordinates (Angstroms)
 Number     Number       Type             X           Y           Z
 ---------------------------------------------------------------------
      1          6           0        1.822459   -0.204196   -5.160051
      2          6           0        1.443312    0.269498   -3.778031
      3          7           0        1.622745    1.575295   -3.357622
      4          6           0        0.890149   -0.401502   -2.726746
      5          6           0        1.195310    1.675088   -2.106875
      6          7           0        0.742509    0.448659   -1.717684
      7          1           0        2.525157   -1.007285   -5.081534
      8          1           0        2.263669    0.603743   -5.705459
      9          1           0        2.010057    2.318583   -3.903656
     10          1           0        0.617061   -1.456716   -2.717567
     11          1           0        1.204513    2.578232   -1.496990
     12          6           0       -1.359905   -2.535927    4.714293
     13          6           0       -0.603859   -1.624691    3.777790
     14          7           0        0.140067   -0.544517    4.219724
     15          6           0       -0.485706   -1.642705    2.418882
     16          6           0        0.677941    0.052612    3.166584
     17          7           0        0.288196   -0.629105    2.051133
     18          1           0       -0.854456   -2.577898    5.656450
     19          1           0       -1.410605   -3.518052    4.292677
     20          1           0        0.254065   -0.263689    5.172681
     21          1           0       -0.948483   -2.367714    1.749327
     22          1           0        1.318658    0.933440    3.186871
     23          6           0       -2.405893    0.735873    0.123793
     24          6           0       -0.016447   -3.323287   -0.689450
     25          6           0        4.106264   -0.995989    0.113382
     26          6           0        1.716236    3.060879    0.927265
     27          6           0       -2.137435   -0.529901   -0.163961
     28          6           0       -3.117312   -1.568038   -0.467938
     29          6           0       -2.437829   -2.703497   -0.701899
     30          6           0       -1.045652   -2.398374   -0.545654
     31          6           0       -3.064250   -4.052640   -1.020718
     32          6           0       -4.599460   -1.658239    0.041989
     33          6           0       -5.715795   -2.363684   -0.763180
     34          6           0       -6.869633   -2.843749    0.107943
     35          8           0       -7.858649   -3.387439   -0.443014
     36          8           0       -6.796173   -2.697599    1.354317
     37          6           0        1.321012   -3.031400   -0.527142
     38          6           0        2.375999   -4.015005   -0.704604
     39          6           0        3.532583   -3.370862   -0.480903
     40          6           0        3.214530   -1.973773   -0.183521
     41          6           0        2.240927   -5.489719   -1.045917
     42          6           0        4.911631   -3.982340   -0.536275
     43          6           0        5.320496   -5.029398   -1.014908
     44          6           0        3.829922    0.298084    0.396885
     45          6           0        4.817221    1.305557    0.707160
     46          6           0        4.122439    2.484760    0.919828
     47          6           0        2.733518    2.170553    0.777756
     48          6           0        6.304387    1.181331    0.760475
     49          6           0        4.762420    3.791613    1.257321
     50          6           0        5.727804    4.204173    0.926562
     51          6           0        0.374573    2.794447    0.777300
     52          6           0       -0.714566    3.777468    0.941985
     53          6           0       -1.832685    3.107377    0.716520
     54          6           0       -1.507326    1.735563    0.408472
     55          6           0       -0.540910    5.226161    1.282942
     56          6           0       -3.351383    3.598882    0.481113
     57          6           0       -3.611216    3.819734   -1.029503
     58          6           0       -3.972645    5.274625   -1.330147
     59          8           0       -5.113556    5.705784   -1.484092
     60          8           0       -2.870216    5.914998   -1.692564
     61          7           0       -0.889982   -1.085706   -0.200333
     62          7           0        1.853214   -1.819593   -0.207534
     63          7           0        2.576913    0.840156    0.441536
     64          7           0       -0.169585    1.566680    0.452184
     65         26           0        0.838423   -0.138846    0.128005
     66          1           0       -0.309675   -4.294157   -1.062144
     67          1           0        5.177062   -1.246659    0.076607
     68          1           0        1.957221    4.090901    1.198743
     69          1           0        5.643716   -3.130823   -0.231767
     70          1           0        3.868538    4.402019    1.874220
     71          1           0       -3.472744    1.062189    0.135051
     72          1           0       -3.246367   -4.260828   -2.000365
     73          1           0       -3.888304   -4.392661   -0.314396
     74          1           0       -2.242975   -4.996520   -0.678947
     75          1           0       -4.962131   -0.655746    0.354509
     76          1           0       -4.679302   -2.427191    0.839252
     77          1           0       -5.297903   -3.249986   -1.286053
     78          1           0       -6.125789   -1.670720   -1.528707
     79          1           0        2.265324   -5.551736   -2.400622
     80          1           0        1.158365   -5.749867   -0.977269
     81          1           0        2.898576   -6.080535   -0.782023
     82          1           0        6.350528   -5.388855   -0.872010
     83          1           0        4.670084   -5.617532   -1.677093
     84          1           0        6.773674    1.188750    0.097314
     85          1           0        6.332422   -0.030064    1.364923
     86          1           0        6.572472    1.683790    1.823549
     87          1           0        5.994939    5.247807    1.143958
     88          1           0        6.475707    3.589534    0.404204
     89          1           0       -0.194960    5.640086   -0.059864
     90          1           0        0.034334    5.434738    1.727007
     91          1           0       -1.616944    5.694819    1.048731
     92          1           0       -3.630646    4.530018    1.021616
     93          1           0       -4.031919    2.800099    0.845086
     94          1           0       -4.418121    3.138938   -1.382727
     95          1           0       -2.713539    3.557725   -1.624975
     96          1           0        0.947337   -0.544855   -5.672898
     97          1           0       -2.350524   -2.157697    4.857526
     98          1           0       -5.830098    5.373030   -0.938710
     99          1           0       -7.234151   -3.321882    1.937451
 ---------------------------------------------------------------------
 Rotational constants (GHZ):           0.0570398           0.0454017           0.0332829
 Standard basis: def2TZVP (5D, 7F)
 There are  2260 symmetry adapted cartesian basis functions of A   symmetry.
 There are  1983 symmetry adapted basis functions of A   symmetry.
  1983 basis functions,  3208 primitive gaussians,  2260 cartesian basis functions
   207 alpha electrons      202 beta electrons
       nuclear repulsion energy      8920.6608990396 Hartrees.
 NAtoms=   99 NActive=   99 NUniq=   99 SFac= 1.00D+00 NAtFMM=   60 NAOKFM=T Big=T
 Integral buffers will be    131072 words long.
 Raffenetti 2 integral format.
 Two-electron integral symmetry is turned on.
 Nuclear repulsion after empirical dispersion term =     8920.5142996548 Hartrees.
 One-electron integrals computed using PRISM.
   1 Symmetry operations used in ECPInt.
 ECPInt:  NShTT=  308505 NPrTT=  954269 LenC2=  224523 LenP2D=  447900.
 LDataN:  DoStor=T MaxTD1= 6 Len=  172
 NBasis=  1983 RedAO= T EigKep=  2.96D-06  NBF=  1983
 NBsUse=  1983 1.00D-06 EigRej= -1.00D+00 NBFU=  1983
 ExpMin= 4.20D-02 ExpMax= 3.01D+05 ExpMxC= 2.91D+03 IAcc=3 IRadAn=         5 AccDes= 0.00D+00
 Harris functional with IExCor= 1009 and IRadAn=       5 diagonalized for initial guess.
 HarFok:  IExCor= 1009 AccDes= 0.00D+00 IRadAn=         5 IDoV= 1 UseB2=F ITyADJ=14
 ICtDFT=  3500011 ScaDFX=  1.000000  1.000000  1.000000  1.000000
 FoFCou: FMM=F IPFlag=           0 FMFlag=      100000 FMFlg1=        2001
         NFxFlg=           0 DoJE=T BraDBF=F KetDBF=T FulRan=T
         wScrn=  0.000000 ICntrl=       500 IOpCl=  0 I1Cent=   200000004 NGrid=           0
         NMat0=    1 NMatS0=      1 NMatT0=    0 NMatD0=    1 NMtDS0=    0 NMtDT0=    0
 Petite list used in FoFCou.
 Initial guess <Sx>= 0.0000 <Sy>= 0.0000 <Sz>= 2.5000 <S**2>= 8.7500 S= 2.5000
 Requested convergence on RMS density matrix=1.00D-08 within 999 cycles.
 Requested convergence on MAX density matrix=1.00D-06.
 Requested convergence on             energy=1.00D-06.
 No special actions if energy rises.
 EnCoef did   100 forward-backward iterations
 EnCoef did   100 forward-backward iterations
 EnCoef did    14 forward-backward iterations
 EnCoef did     5 forward-backward iterations
 EnCoef did    12 forward-backward iterations
 EnCoef did     4 forward-backward iterations
 Restarting incremental Fock formation.
 SCF Done:  E(UPBE1PBE) =  -3626.89612586     A.U. after   30 cycles
            NFock= 30  Conv=0.74D-08     -V/T= 2.0028
 <Sx>= 0.0000 <Sy>= 0.0000 <Sz>= 2.5000 <S**2>= 8.7590 S= 2.5015
 <L.S>= 0.000000000000E+00
 Annihilation of the first spin contaminant:
 S**2 before annihilation     8.7590,   after     8.7500

 **********************************************************************

            Population analysis using the SCF density.

 **********************************************************************

 Orbital symmetries:
 Alpha Orbitals:
       Occupied  (A) (A) (A) (A) (A) (A) (A) (A) (A) (A) (A) (A)
                 (A) (A) (A) (A) (A) (A) (A) (A) (A) (A) (A) (A)
                 (A) (A) (A) (A) (A) (A) (A) (A) (A) (A) (A) (A)
                 (A) (A) (A) (A) (A) (A) (A) (A) (A) (A) (A) (A)
                 (A) (A) (A) (A) (A) (A) (A) (A) (A) (A) (A) (A)
                 (A) (A) (A) (A) (A) (A) (A) (A) (A) (A) (A) (A)
                 (A) (A) (A) (A) (A) (A) (A) (A) (A) (A) (A) (A)
                 (A) (A) (A) (A) (A) (A) (A) (A) (A) (A) (A) (A)
                 (A) (A) (A) (A) (A) (A) (A) (A) (A) (A) (A) (A)
                 (A) (A) (A) (A) (A) (A) (A) (A) (A) (A) (A) (A)
                 (A) (A) (A) (A) (A) (A) (A) (A) (A) (A) (A) (A)
                 (A) (A) (A) (A) (A) (A) (A) (A) (A) (A) (A) (A)
                 (A) (A) (A) (A) (A) (A) (A) (A) (A) (A) (A) (A)
                 (A) (A) (A) (A) (A) (A) (A) (A) (A) (A) (A) (A)
                 (A) (A) (A) (A) (A) (A) (A) (A) (A) (A) (A) (A)
                 (A) (A) (A) (A) (A) (A) (A) (A) (A) (A) (A) (A)
                 (A) (A) (A) (A) (A) (A) (A) (A) (A) (A) (A) (A)
                 (A) (A) (A)
       Virtual   (A) (A) (A) (A) (A) (A) (A) (A) (A) (A) (A) (A)
                 (A) (A) (A) (A) (A) (A) (A) (A) (A) (A) (A) (A)
                 (A) (A) (A) (A) (A) (A) (A) (A) (A) (A) (A) (A)
                 (A) (A) (A) (A) (A) (A) (A) (A) (A) (A) (A) (A)
                 (A) (A) (A) (A) (A) (A) (A) (A) (A) (A) (A) (A)
                 (A) (A) (A) (A) (A) (A) (A) (A) (A) (A) (A) (A)
                 (A) (A) (A) (A) (A) (A) (A) (A) (A) (A) (A) (A)
                 (A) (A) (A) (A) (A) (A) (A) (A) (A) (A) (A) (A)
                 (A) (A) (A) (A) (A) (A) (A) (A) (A) (A) (A) (A)
                 (A) (A) (A) (A) (A) (A) (A) (A) (A) (A) (A) (A)
                 (A) (A) (A) (A) (A) (A) (A) (A) (A) (A) (A) (A)
                 (A) (A) (A) (A) (A) (A) (A) (A) (A) (A) (A) (A)
                 (A) (A) (A) (A) (A) (A) (A) (A) (A) (A) (A) (A)
                 (A) (A) (A) (A) (A) (A) (A) (A) (A) (A) (A) (A)
                 (A) (A) (A) (A) (A) (A) (A) (A) (A) (A) (A) (A)
                 (A) (A) (A) (A) (A) (A) (A) (A) (A) (A) (A) (A)
                 (A) (A) (A) (A) (A) (A) (A) (A) (A) (A) (A) (A)
                 (A) (A) (A) (A) (A) (A) (A) (A) (A) (A) (A) (A)
                 (A) (A) (A) (A) (A) (A) (A) (A) (A) (A) (A) (A)
                 (A) (A) (A) (A) (A) (A) (A) (A) (A) (A) (A) (A)
                 (A) (A) (A) (A) (A) (A) (A) (A) (A) (A) (A) (A)
                 (A) (A) (A) (A) (A) (A) (A) (A) (A) (A) (A) (A)
                 (A) (A) (A) (A) (A) (A) (A) (A) (A) (A) (A) (A)
                 (A) (A) (A) (A) (A) (A) (A) (A) (A) (A) (A) (A)
                 (A) (A) (A) (A) (A) (A) (A) (A) (A) (A) (A) (A)
                 (A) (A) (A) (A) (A) (A) (A) (A) (A) (A) (A) (A)
                 (A) (A) (A) (A) (A) (A) (A) (A) (A) (A) (A) (A)
                 (A) (A) (A) (A) (A) (A) (A) (A) (A) (A) (A) (A)
                 (A) (A) (A) (A) (A) (A) (A) (A) (A) (A) (A) (A)
                 (A) (A) (A) (A) (A) (A) (A) (A) (A) (A) (A) (A)
                 (A) (A) (A) (A) (A) (A) (A) (A) (A) (A) (A) (A)
                 (A) (A) (A) (A) (A) (A) (A) (A) (A) (A) (A) (A)
                 (A) (A) (A) (A) (A) (A) (A) (A) (A) (A) (A) (A)
                 (A) (A) (A) (A) (A) (A) (A) (A) (A) (A) (A) (A)
                 (A) (A) (A) (A) (A) (A) (A) (A) (A) (A) (A) (A)
                 (A) (A) (A) (A) (A) (A) (A) (A) (A) (A) (A) (A)
                 (A) (A) (A) (A) (A) (A) (A) (A) (A) (A) (A) (A)
                 (A) (A) (A) (A) (A) (A) (A) (A) (A) (A) (A) (A)
                 (A) (A) (A) (A) (A) (A) (A) (A) (A) (A) (A) (A)
                 (A) (A) (A) (A) (A) (A) (A) (A) (A) (A) (A) (A)
                 (A) (A) (A) (A) (A) (A) (A) (A) (A) (A) (A) (A)
                 (A) (A) (A) (A) (A) (A) (A) (A) (A) (A) (A) (A)
                 (A) (A) (A) (A) (A) (A) (A) (A) (A) (A) (A) (A)
                 (A) (A) (A) (A) (A) (A) (A) (A) (A) (A) (A) (A)
                 (A) (A) (A) (A) (A) (A) (A) (A) (A) (A) (A) (A)
                 (A) (A) (A) (A) (A) (A) (A) (A) (A) (A) (A) (A)
                 (A) (A) (A) (A) (A) (A) (A) (A) (A) (A) (A) (A)
                 (A) (A) (A) (A) (A) (A) (A) (A) (A) (A) (A) (A)
                 (A) (A) (A) (A) (A) (A) (A) (A) (A) (A) (A) (A)
                 (A) (A) (A) (A) (A) (A) (A) (A) (A) (A) (A) (A)
                 (A) (A) (A) (A) (A) (A) (A) (A) (A) (A) (A) (A)
                 (A) (A) (A) (A) (A) (A) (A) (A) (A) (A) (A) (A)
                 (A) (A) (A) (A) (A) (A) (A) (A) (A) (A) (A) (A)
                 (A) (A) (A) (A) (A) (A) (A) (A) (A) (A) (A) (A)
                 (A) (A) (A) (A) (A) (A) (A) (A) (A) (A) (A) (A)
                 (A) (A) (A) (A) (A) (A) (A) (A) (A) (A) (A) (A)
                 (A) (A) (A) (A) (A) (A) (A) (A) (A) (A) (A) (A)
                 (A) (A) (A) (A) (A) (A) (A) (A) (A) (A) (A) (A)
                 (A) (A) (A) (A) (A) (A) (A) (A) (A) (A) (A) (A)
                 (A) (A) (A) (A) (A) (A) (A) (A) (A) (A) (A) (A)
                 (A) (A) (A) (A) (A) (A) (A) (A) (A) (A) (A) (A)
                 (A) (A) (A) (A) (A) (A) (A) (A) (A) (A) (A) (A)
                 (A) (A) (A) (A) (A) (A) (A) (A) (A) (A) (A) (A)
                 (A) (A) (A) (A) (A) (A) (A) (A) (A) (A) (A) (A)
                 (A) (A) (A) (A) (A) (A) (A) (A) (A) (A) (A) (A)
                 (A) (A) (A) (A) (A) (A) (A) (A) (A) (A) (A) (A)
                 (A) (A) (A) (A) (A) (A) (A) (A) (A) (A) (A) (A)
                 (A) (A) (A) (A) (A) (A) (A) (A) (A) (A) (A) (A)
                 (A) (A) (A) (A) (A) (A) (A) (A) (A) (A) (A) (A)
                 (A) (A) (A) (A) (A) (A) (A) (A) (A) (A) (A) (A)
                 (A) (A) (A) (A) (A) (A) (A) (A) (A) (A) (A) (A)
                 (A) (A) (A) (A) (A) (A) (A) (A) (A) (A) (A) (A)
                 (A) (A) (A) (A) (A) (A) (A) (A) (A) (A) (A) (A)
                 (A) (A) (A) (A) (A) (A) (A) (A) (A) (A) (A) (A)
                 (A) (A) (A) (A) (A) (A) (A) (A) (A) (A) (A) (A)
                 (A) (A) (A) (A) (A) (A) (A) (A) (A) (A) (A) (A)
                 (A) (A) (A) (A) (A) (A) (A) (A) (A) (A) (A) (A)
                 (A) (A) (A) (A) (A) (A) (A) (A) (A) (A) (A) (A)
                 (A) (A) (A) (A) (A) (A) (A) (A) (A) (A) (A) (A)
                 (A) (A) (A) (A) (A) (A) (A) (A) (A) (A) (A) (A)
                 (A) (A) (A) (A) (A) (A) (A) (A) (A) (A) (A) (A)
                 (A) (A) (A) (A) (A) (A) (A) (A) (A) (A) (A) (A)
                 (A) (A) (A) (A) (A) (A) (A) (A) (A) (A) (A) (A)
                 (A) (A) (A) (A) (A) (A) (A) (A) (A) (A) (A) (A)
                 (A) (A) (A) (A) (A) (A) (A) (A) (A) (A) (A) (A)
                 (A) (A) (A) (A) (A) (A) (A) (A) (A) (A) (A) (A)
                 (A) (A) (A) (A) (A) (A) (A) (A) (A) (A) (A) (A)
                 (A) (A) (A) (A) (A) (A) (A) (A) (A) (A) (A) (A)
                 (A) (A) (A) (A) (A) (A) (A) (A) (A) (A) (A) (A)
                 (A) (A) (A) (A) (A) (A) (A) (A) (A) (A) (A) (A)
                 (A) (A) (A) (A) (A) (A) (A) (A) (A) (A) (A) (A)
                 (A) (A) (A) (A) (A) (A) (A) (A) (A) (A) (A) (A)
                 (A) (A) (A) (A) (A) (A) (A) (A) (A) (A) (A) (A)
                 (A) (A) (A) (A) (A) (A) (A) (A) (A) (A) (A) (A)
                 (A) (A) (A) (A) (A) (A) (A) (A) (A) (A) (A) (A)
                 (A) (A) (A) (A) (A) (A) (A) (A) (A) (A) (A) (A)
                 (A) (A) (A) (A) (A) (A) (A) (A) (A) (A) (A) (A)
                 (A) (A) (A) (A) (A) (A) (A) (A) (A) (A) (A) (A)
                 (A) (A) (A) (A) (A) (A) (A) (A) (A) (A) (A) (A)
                 (A) (A) (A) (A) (A) (A) (A) (A) (A) (A) (A) (A)
                 (A) (A) (A) (A) (A) (A) (A) (A) (A) (A) (A) (A)
                 (A) (A) (A) (A) (A) (A) (A) (A) (A) (A) (A) (A)
                 (A) (A) (A) (A) (A) (A) (A) (A) (A) (A) (A) (A)
                 (A) (A) (A) (A) (A) (A) (A) (A) (A) (A) (A) (A)
                 (A) (A) (A) (A) (A) (A) (A) (A) (A) (A) (A) (A)
                 (A) (A) (A) (A) (A) (A) (A) (A) (A) (A) (A) (A)
                 (A) (A) (A) (A) (A) (A) (A) (A) (A) (A) (A) (A)
                 (A) (A) (A) (A) (A) (A) (A) (A) (A) (A) (A) (A)
                 (A) (A) (A) (A) (A) (A) (A) (A) (A) (A) (A) (A)
                 (A) (A) (A) (A) (A) (A) (A) (A) (A) (A) (A) (A)
                 (A) (A) (A) (A) (A) (A) (A) (A) (A) (A) (A) (A)
                 (A) (A) (A) (A) (A) (A) (A) (A) (A) (A) (A) (A)
                 (A) (A) (A) (A) (A) (A) (A) (A) (A) (A) (A) (A)
                 (A) (A) (A) (A) (A) (A) (A) (A) (A) (A) (A) (A)
                 (A) (A) (A) (A) (A) (A) (A) (A) (A) (A) (A) (A)
                 (A) (A) (A) (A) (A) (A) (A) (A) (A) (A) (A) (A)
                 (A) (A) (A) (A) (A) (A) (A) (A) (A) (A) (A) (A)
                 (A) (A) (A) (A) (A) (A) (A) (A) (A) (A) (A) (A)
                 (A) (A) (A) (A) (A) (A) (A) (A) (A) (A) (A) (A)
                 (A) (A) (A) (A) (A) (A) (A) (A) (A) (A) (A) (A)
                 (A) (A) (A) (A) (A) (A) (A) (A) (A) (A) (A) (A)
                 (A) (A) (A) (A) (A) (A) (A) (A) (A) (A) (A) (A)
                 (A) (A) (A) (A) (A) (A) (A) (A) (A) (A) (A) (A)
                 (A) (A) (A) (A) (A) (A) (A) (A) (A) (A) (A) (A)
                 (A) (A) (A) (A) (A) (A) (A) (A) (A) (A) (A) (A)
                 (A) (A) (A) (A) (A) (A) (A) (A) (A) (A) (A) (A)
                 (A) (A) (A) (A) (A) (A) (A) (A) (A) (A) (A) (A)
                 (A) (A) (A) (A) (A) (A) (A) (A) (A) (A) (A) (A)
                 (A) (A) (A) (A) (A) (A) (A) (A) (A) (A) (A) (A)
                 (A) (A) (A) (A) (A) (A) (A) (A) (A) (A) (A) (A)
                 (A) (A) (A) (A) (A) (A) (A) (A) (A) (A) (A) (A)
                 (A) (A) (A) (A) (A) (A) (A) (A) (A) (A) (A) (A)
                 (A) (A) (A) (A) (A) (A) (A) (A) (A) (A) (A) (A)
                 (A) (A) (A) (A) (A) (A) (A) (A) (A) (A) (A) (A)
                 (A) (A) (A) (A) (A) (A) (A) (A) (A) (A) (A) (A)
                 (A) (A) (A) (A) (A) (A) (A) (A) (A) (A) (A) (A)
                 (A) (A) (A) (A) (A) (A) (A) (A) (A) (A) (A) (A)
                 (A) (A) (A) (A) (A) (A) (A) (A) (A) (A) (A) (A)
                 (A) (A) (A) (A) (A) (A) (A) (A) (A) (A) (A) (A)
                 (A) (A) (A) (A) (A) (A) (A) (A) (A) (A) (A) (A)
                 (A) (A) (A) (A) (A) (A) (A) (A) (A) (A) (A) (A)
                 (A) (A) (A) (A) (A) (A) (A) (A) (A) (A) (A) (A)
                 (A) (A) (A) (A) (A) (A) (A) (A) (A) (A) (A) (A)
                 (A) (A) (A) (A) (A) (A) (A) (A) (A) (A) (A) (A)
                 (A) (A) (A) (A) (A) (A) (A) (A) (A) (A) (A) (A)
                 (A) (A) (A) (A) (A) (A) (A) (A) (A) (A) (A) (A)
                 (A) (A) (A) (A) (A) (A) (A) (A) (A) (A) (A) (A)
                 (A) (A) (A) (A) (A) (A) (A) (A) (A) (A) (A) (A)
 Beta  Orbitals:
       Occupied  (A) (A) (A) (A) (A) (A) (A) (A) (A) (A) (A) (A)
                 (A) (A) (A) (A) (A) (A) (A) (A) (A) (A) (A) (A)
                 (A) (A) (A) (A) (A) (A) (A) (A) (A) (A) (A) (A)
                 (A) (A) (A) (A) (A) (A) (A) (A) (A) (A) (A) (A)
                 (A) (A) (A) (A) (A) (A) (A) (A) (A) (A) (A) (A)
                 (A) (A) (A) (A) (A) (A) (A) (A) (A) (A) (A) (A)
                 (A) (A) (A) (A) (A) (A) (A) (A) (A) (A) (A) (A)
                 (A) (A) (A) (A) (A) (A) (A) (A) (A) (A) (A) (A)
                 (A) (A) (A) (A) (A) (A) (A) (A) (A) (A) (A) (A)
                 (A) (A) (A) (A) (A) (A) (A) (A) (A) (A) (A) (A)
                 (A) (A) (A) (A) (A) (A) (A) (A) (A) (A) (A) (A)
                 (A) (A) (A) (A) (A) (A) (A) (A) (A) (A) (A) (A)
                 (A) (A) (A) (A) (A) (A) (A) (A) (A) (A) (A) (A)
                 (A) (A) (A) (A) (A) (A) (A) (A) (A) (A) (A) (A)
                 (A) (A) (A) (A) (A) (A) (A) (A) (A) (A) (A) (A)
                 (A) (A) (A) (A) (A) (A) (A) (A) (A) (A) (A) (A)
                 (A) (A) (A) (A) (A) (A) (A) (A) (A) (A)
       Virtual   (A) (A) (A) (A) (A) (A) (A) (A) (A) (A) (A) (A)
                 (A) (A) (A) (A) (A) (A) (A) (A) (A) (A) (A) (A)
                 (A) (A) (A) (A) (A) (A) (A) (A) (A) (A) (A) (A)
                 (A) (A) (A) (A) (A) (A) (A) (A) (A) (A) (A) (A)
                 (A) (A) (A) (A) (A) (A) (A) (A) (A) (A) (A) (A)
                 (A) (A) (A) (A) (A) (A) (A) (A) (A) (A) (A) (A)
                 (A) (A) (A) (A) (A) (A) (A) (A) (A) (A) (A) (A)
                 (A) (A) (A) (A) (A) (A) (A) (A) (A) (A) (A) (A)
                 (A) (A) (A) (A) (A) (A) (A) (A) (A) (A) (A) (A)
                 (A) (A) (A) (A) (A) (A) (A) (A) (A) (A) (A) (A)
                 (A) (A) (A) (A) (A) (A) (A) (A) (A) (A) (A) (A)
                 (A) (A) (A) (A) (A) (A) (A) (A) (A) (A) (A) (A)
                 (A) (A) (A) (A) (A) (A) (A) (A) (A) (A) (A) (A)
                 (A) (A) (A) (A) (A) (A) (A) (A) (A) (A) (A) (A)
                 (A) (A) (A) (A) (A) (A) (A) (A) (A) (A) (A) (A)
                 (A) (A) (A) (A) (A) (A) (A) (A) (A) (A) (A) (A)
                 (A) (A) (A) (A) (A) (A) (A) (A) (A) (A) (A) (A)
                 (A) (A) (A) (A) (A) (A) (A) (A) (A) (A) (A) (A)
                 (A) (A) (A) (A) (A) (A) (A) (A) (A) (A) (A) (A)
                 (A) (A) (A) (A) (A) (A) (A) (A) (A) (A) (A) (A)
                 (A) (A) (A) (A) (A) (A) (A) (A) (A) (A) (A) (A)
                 (A) (A) (A) (A) (A) (A) (A) (A) (A) (A) (A) (A)
                 (A) (A) (A) (A) (A) (A) (A) (A) (A) (A) (A) (A)
                 (A) (A) (A) (A) (A) (A) (A) (A) (A) (A) (A) (A)
                 (A) (A) (A) (A) (A) (A) (A) (A) (A) (A) (A) (A)
                 (A) (A) (A) (A) (A) (A) (A) (A) (A) (A) (A) (A)
                 (A) (A) (A) (A) (A) (A) (A) (A) (A) (A) (A) (A)
                 (A) (A) (A) (A) (A) (A) (A) (A) (A) (A) (A) (A)
                 (A) (A) (A) (A) (A) (A) (A) (A) (A) (A) (A) (A)
                 (A) (A) (A) (A) (A) (A) (A) (A) (A) (A) (A) (A)
                 (A) (A) (A) (A) (A) (A) (A) (A) (A) (A) (A) (A)
                 (A) (A) (A) (A) (A) (A) (A) (A) (A) (A) (A) (A)
                 (A) (A) (A) (A) (A) (A) (A) (A) (A) (A) (A) (A)
                 (A) (A) (A) (A) (A) (A) (A) (A) (A) (A) (A) (A)
                 (A) (A) (A) (A) (A) (A) (A) (A) (A) (A) (A) (A)
                 (A) (A) (A) (A) (A) (A) (A) (A) (A) (A) (A) (A)
                 (A) (A) (A) (A) (A) (A) (A) (A) (A) (A) (A) (A)
                 (A) (A) (A) (A) (A) (A) (A) (A) (A) (A) (A) (A)
                 (A) (A) (A) (A) (A) (A) (A) (A) (A) (A) (A) (A)
                 (A) (A) (A) (A) (A) (A) (A) (A) (A) (A) (A) (A)
                 (A) (A) (A) (A) (A) (A) (A) (A) (A) (A) (A) (A)
                 (A) (A) (A) (A) (A) (A) (A) (A) (A) (A) (A) (A)
                 (A) (A) (A) (A) (A) (A) (A) (A) (A) (A) (A) (A)
                 (A) (A) (A) (A) (A) (A) (A) (A) (A) (A) (A) (A)
                 (A) (A) (A) (A) (A) (A) (A) (A) (A) (A) (A) (A)
                 (A) (A) (A) (A) (A) (A) (A) (A) (A) (A) (A) (A)
                 (A) (A) (A) (A) (A) (A) (A) (A) (A) (A) (A) (A)
                 (A) (A) (A) (A) (A) (A) (A) (A) (A) (A) (A) (A)
                 (A) (A) (A) (A) (A) (A) (A) (A) (A) (A) (A) (A)
                 (A) (A) (A) (A) (A) (A) (A) (A) (A) (A) (A) (A)
                 (A) (A) (A) (A) (A) (A) (A) (A) (A) (A) (A) (A)
                 (A) (A) (A) (A) (A) (A) (A) (A) (A) (A) (A) (A)
                 (A) (A) (A) (A) (A) (A) (A) (A) (A) (A) (A) (A)
                 (A) (A) (A) (A) (A) (A) (A) (A) (A) (A) (A) (A)
                 (A) (A) (A) (A) (A) (A) (A) (A) (A) (A) (A) (A)
                 (A) (A) (A) (A) (A) (A) (A) (A) (A) (A) (A) (A)
                 (A) (A) (A) (A) (A) (A) (A) (A) (A) (A) (A) (A)
                 (A) (A) (A) (A) (A) (A) (A) (A) (A) (A) (A) (A)
                 (A) (A) (A) (A) (A) (A) (A) (A) (A) (A) (A) (A)
                 (A) (A) (A) (A) (A) (A) (A) (A) (A) (A) (A) (A)
                 (A) (A) (A) (A) (A) (A) (A) (A) (A) (A) (A) (A)
                 (A) (A) (A) (A) (A) (A) (A) (A) (A) (A) (A) (A)
                 (A) (A) (A) (A) (A) (A) (A) (A) (A) (A) (A) (A)
                 (A) (A) (A) (A) (A) (A) (A) (A) (A) (A) (A) (A)
                 (A) (A) (A) (A) (A) (A) (A) (A) (A) (A) (A) (A)
                 (A) (A) (A) (A) (A) (A) (A) (A) (A) (A) (A) (A)
                 (A) (A) (A) (A) (A) (A) (A) (A) (A) (A) (A) (A)
                 (A) (A) (A) (A) (A) (A) (A) (A) (A) (A) (A) (A)
                 (A) (A) (A) (A) (A) (A) (A) (A) (A) (A) (A) (A)
                 (A) (A) (A) (A) (A) (A) (A) (A) (A) (A) (A) (A)
                 (A) (A) (A) (A) (A) (A) (A) (A) (A) (A) (A) (A)
                 (A) (A) (A) (A) (A) (A) (A) (A) (A) (A) (A) (A)
                 (A) (A) (A) (A) (A) (A) (A) (A) (A) (A) (A) (A)
                 (A) (A) (A) (A) (A) (A) (A) (A) (A) (A) (A) (A)
                 (A) (A) (A) (A) (A) (A) (A) (A) (A) (A) (A) (A)
                 (A) (A) (A) (A) (A) (A) (A) (A) (A) (A) (A) (A)
                 (A) (A) (A) (A) (A) (A) (A) (A) (A) (A) (A) (A)
                 (A) (A) (A) (A) (A) (A) (A) (A) (A) (A) (A) (A)
                 (A) (A) (A) (A) (A) (A) (A) (A) (A) (A) (A) (A)
                 (A) (A) (A) (A) (A) (A) (A) (A) (A) (A) (A) (A)
                 (A) (A) (A) (A) (A) (A) (A) (A) (A) (A) (A) (A)
                 (A) (A) (A) (A) (A) (A) (A) (A) (A) (A) (A) (A)
                 (A) (A) (A) (A) (A) (A) (A) (A) (A) (A) (A) (A)
                 (A) (A) (A) (A) (A) (A) (A) (A) (A) (A) (A) (A)
                 (A) (A) (A) (A) (A) (A) (A) (A) (A) (A) (A) (A)
                 (A) (A) (A) (A) (A) (A) (A) (A) (A) (A) (A) (A)
                 (A) (A) (A) (A) (A) (A) (A) (A) (A) (A) (A) (A)
                 (A) (A) (A) (A) (A) (A) (A) (A) (A) (A) (A) (A)
                 (A) (A) (A) (A) (A) (A) (A) (A) (A) (A) (A) (A)
                 (A) (A) (A) (A) (A) (A) (A) (A) (A) (A) (A) (A)
                 (A) (A) (A) (A) (A) (A) (A) (A) (A) (A) (A) (A)
                 (A) (A) (A) (A) (A) (A) (A) (A) (A) (A) (A) (A)
                 (A) (A) (A) (A) (A) (A) (A) (A) (A) (A) (A) (A)
                 (A) (A) (A) (A) (A) (A) (A) (A) (A) (A) (A) (A)
                 (A) (A) (A) (A) (A) (A) (A) (A) (A) (A) (A) (A)
                 (A) (A) (A) (A) (A) (A) (A) (A) (A) (A) (A) (A)
                 (A) (A) (A) (A) (A) (A) (A) (A) (A) (A) (A) (A)
                 (A) (A) (A) (A) (A) (A) (A) (A) (A) (A) (A) (A)
                 (A) (A) (A) (A) (A) (A) (A) (A) (A) (A) (A) (A)
                 (A) (A) (A) (A) (A) (A) (A) (A) (A) (A) (A) (A)
                 (A) (A) (A) (A) (A) (A) (A) (A) (A) (A) (A) (A)
                 (A) (A) (A) (A) (A) (A) (A) (A) (A) (A) (A) (A)
                 (A) (A) (A) (A) (A) (A) (A) (A) (A) (A) (A) (A)
                 (A) (A) (A) (A) (A) (A) (A) (A) (A) (A) (A) (A)
                 (A) (A) (A) (A) (A) (A) (A) (A) (A) (A) (A) (A)
                 (A) (A) (A) (A) (A) (A) (A) (A) (A) (A) (A) (A)
                 (A) (A) (A) (A) (A) (A) (A) (A) (A) (A) (A) (A)
                 (A) (A) (A) (A) (A) (A) (A) (A) (A) (A) (A) (A)
                 (A) (A) (A) (A) (A) (A) (A) (A) (A) (A) (A) (A)
                 (A) (A) (A) (A) (A) (A) (A) (A) (A) (A) (A) (A)
                 (A) (A) (A) (A) (A) (A) (A) (A) (A) (A) (A) (A)
                 (A) (A) (A) (A) (A) (A) (A) (A) (A) (A) (A) (A)
                 (A) (A) (A) (A) (A) (A) (A) (A) (A) (A) (A) (A)
                 (A) (A) (A) (A) (A) (A) (A) (A) (A) (A) (A) (A)
                 (A) (A) (A) (A) (A) (A) (A) (A) (A) (A) (A) (A)
                 (A) (A) (A) (A) (A) (A) (A) (A) (A) (A) (A) (A)
                 (A) (A) (A) (A) (A) (A) (A) (A) (A) (A) (A) (A)
                 (A) (A) (A) (A) (A) (A) (A) (A) (A) (A) (A) (A)
                 (A) (A) (A) (A) (A) (A) (A) (A) (A) (A) (A) (A)
                 (A) (A) (A) (A) (A) (A) (A) (A) (A) (A) (A) (A)
                 (A) (A) (A) (A) (A) (A) (A) (A) (A) (A) (A) (A)
                 (A) (A) (A) (A) (A) (A) (A) (A) (A) (A) (A) (A)
                 (A) (A) (A) (A) (A) (A) (A) (A) (A) (A) (A) (A)
                 (A) (A) (A) (A) (A) (A) (A) (A) (A) (A) (A) (A)
                 (A) (A) (A) (A) (A) (A) (A) (A) (A) (A) (A) (A)
                 (A) (A) (A) (A) (A) (A) (A) (A) (A) (A) (A) (A)
                 (A) (A) (A) (A) (A) (A) (A) (A) (A) (A) (A) (A)
                 (A) (A) (A) (A) (A) (A) (A) (A) (A) (A) (A) (A)
                 (A) (A) (A) (A) (A) (A) (A) (A) (A) (A) (A) (A)
                 (A) (A) (A) (A) (A) (A) (A) (A) (A) (A) (A) (A)
                 (A) (A) (A) (A) (A) (A) (A) (A) (A) (A) (A) (A)
                 (A) (A) (A) (A) (A) (A) (A) (A) (A) (A) (A) (A)
                 (A) (A) (A) (A) (A) (A) (A) (A) (A) (A) (A) (A)
                 (A) (A) (A) (A) (A) (A) (A) (A) (A) (A) (A) (A)
                 (A) (A) (A) (A) (A) (A) (A) (A) (A) (A) (A) (A)
                 (A) (A) (A) (A) (A) (A) (A) (A) (A) (A) (A) (A)
                 (A) (A) (A) (A) (A) (A) (A) (A) (A) (A) (A) (A)
                 (A) (A) (A) (A) (A) (A) (A) (A) (A) (A) (A) (A)
                 (A) (A) (A) (A) (A) (A) (A) (A) (A) (A) (A) (A)
                 (A) (A) (A) (A) (A) (A) (A) (A) (A) (A) (A) (A)
                 (A) (A) (A) (A) (A) (A) (A) (A) (A) (A) (A) (A)
                 (A) (A) (A) (A) (A) (A) (A) (A) (A) (A) (A) (A)
                 (A) (A) (A) (A) (A) (A) (A) (A) (A) (A) (A) (A)
                 (A) (A) (A) (A) (A) (A) (A) (A) (A) (A) (A) (A)
                 (A) (A) (A) (A) (A) (A) (A) (A) (A) (A) (A) (A)
                 (A) (A) (A) (A) (A) (A) (A) (A) (A) (A) (A) (A)
                 (A) (A) (A) (A) (A) (A) (A) (A) (A) (A) (A) (A)
                 (A) (A) (A) (A) (A) (A) (A) (A) (A) (A) (A) (A)
                 (A) (A) (A) (A) (A)
 The electronic state is 6-A.
 Alpha  occ. eigenvalues -- -256.53298 -30.36223 -26.17884 -26.17845 -26.17771
 Alpha  occ. eigenvalues --  -19.36112 -19.34031 -19.24430 -19.24390 -14.55450
 Alpha  occ. eigenvalues --  -14.55261 -14.49383 -14.49342 -14.47613 -14.47317
 Alpha  occ. eigenvalues --  -14.47026 -14.46857 -10.43520 -10.42595 -10.39063
 Alpha  occ. eigenvalues --  -10.38999 -10.36060 -10.35869 -10.35295 -10.35128
 Alpha  occ. eigenvalues --  -10.35101 -10.35048 -10.34910 -10.34815 -10.34701
 Alpha  occ. eigenvalues --  -10.34539 -10.33730 -10.33584 -10.33370 -10.32736
 Alpha  occ. eigenvalues --  -10.32481 -10.32343 -10.32334 -10.32238 -10.32188
 Alpha  occ. eigenvalues --  -10.32130 -10.32074 -10.32003 -10.31875 -10.31834
 Alpha  occ. eigenvalues --  -10.31818 -10.31752 -10.31737 -10.31647 -10.31583
 Alpha  occ. eigenvalues --  -10.31491 -10.31369 -10.31254 -10.31080 -10.31044
 Alpha  occ. eigenvalues --  -10.30446 -10.29418 -10.28416 -10.26697  -3.79012
 Alpha  occ. eigenvalues --   -2.55219  -2.55107  -2.54956  -1.26229  -1.24260
 Alpha  occ. eigenvalues --   -1.16885  -1.16603  -1.09371  -1.08850  -1.08295
 Alpha  occ. eigenvalues --   -1.08159  -1.07123  -1.06650  -1.02467  -1.01959
 Alpha  occ. eigenvalues --   -0.94817  -0.94363  -0.92884  -0.92636  -0.92264
 Alpha  occ. eigenvalues --   -0.91662  -0.91427  -0.90542  -0.90438  -0.89026
 Alpha  occ. eigenvalues --   -0.88148  -0.87852  -0.87279  -0.86225  -0.84107
 Alpha  occ. eigenvalues --   -0.82335  -0.81892  -0.81704  -0.81635  -0.81131
 Alpha  occ. eigenvalues --   -0.79539  -0.78573  -0.77825  -0.76431  -0.76363
 Alpha  occ. eigenvalues --   -0.76032  -0.75884  -0.74329  -0.72885  -0.72210
 Alpha  occ. eigenvalues --   -0.71982  -0.70417  -0.69809  -0.69254  -0.68471
 Alpha  occ. eigenvalues --   -0.66949  -0.66492  -0.66370  -0.65215  -0.64383
 Alpha  occ. eigenvalues --   -0.63949  -0.62842  -0.62542  -0.62162  -0.61798
 Alpha  occ. eigenvalues --   -0.61543  -0.60103  -0.59981  -0.59572  -0.59411
 Alpha  occ. eigenvalues --   -0.59049  -0.58443  -0.58393  -0.57868  -0.57620
 Alpha  occ. eigenvalues --   -0.57513  -0.57185  -0.57049  -0.56672  -0.56337
 Alpha  occ. eigenvalues --   -0.56253  -0.55799  -0.55526  -0.55437  -0.55190
 Alpha  occ. eigenvalues --   -0.54715  -0.54679  -0.54441  -0.54309  -0.53918
 Alpha  occ. eigenvalues --   -0.53807  -0.53654  -0.53134  -0.52960  -0.52604
 Alpha  occ. eigenvalues --   -0.52427  -0.52204  -0.52031  -0.51959  -0.51906
 Alpha  occ. eigenvalues --   -0.51695  -0.51471  -0.51191  -0.51135  -0.50876
 Alpha  occ. eigenvalues --   -0.50536  -0.50447  -0.50027  -0.49635  -0.49449
 Alpha  occ. eigenvalues --   -0.48996  -0.48618  -0.47838  -0.47699  -0.47340
 Alpha  occ. eigenvalues --   -0.46456  -0.46172  -0.45945  -0.45497  -0.45151
 Alpha  occ. eigenvalues --   -0.44914  -0.44778  -0.44531  -0.43996  -0.43794
 Alpha  occ. eigenvalues --   -0.43516  -0.43261  -0.42901  -0.42393  -0.42095
 Alpha  occ. eigenvalues --   -0.41993  -0.41527  -0.41408  -0.40762  -0.39599
 Alpha  occ. eigenvalues --   -0.38912  -0.38444  -0.38320  -0.38255  -0.37732
 Alpha  occ. eigenvalues --   -0.34730  -0.34470  -0.34076  -0.33878  -0.33397
 Alpha  occ. eigenvalues --   -0.33274  -0.33060  -0.32693  -0.32501  -0.32206
 Alpha  occ. eigenvalues --   -0.29889  -0.29055
 Alpha virt. eigenvalues --   -0.17638  -0.17358  -0.11410  -0.09121  -0.08760
 Alpha virt. eigenvalues --   -0.08744  -0.07451  -0.07219  -0.06783  -0.06479
 Alpha virt. eigenvalues --   -0.06207  -0.05788  -0.05485  -0.05285  -0.04960
 Alpha virt. eigenvalues --   -0.04671  -0.04522  -0.04316  -0.03877  -0.03489
 Alpha virt. eigenvalues --   -0.03241  -0.02867  -0.02647  -0.02211  -0.01793
 Alpha virt. eigenvalues --   -0.01344  -0.00930  -0.00691  -0.00657  -0.00277
 Alpha virt. eigenvalues --   -0.00046   0.00117   0.00407   0.00728   0.00956
 Alpha virt. eigenvalues --    0.01171   0.01345   0.01622   0.02070   0.02460
 Alpha virt. eigenvalues --    0.02736   0.02914   0.03043   0.03351   0.03529
 Alpha virt. eigenvalues --    0.03608   0.04009   0.04291   0.04560   0.04832
 Alpha virt. eigenvalues --    0.05103   0.05211   0.05301   0.05672   0.05746
 Alpha virt. eigenvalues --    0.05876   0.06080   0.06170   0.06495   0.06568
 Alpha virt. eigenvalues --    0.06997   0.07112   0.07346   0.07703   0.07959
 Alpha virt. eigenvalues --    0.08043   0.08139   0.08364   0.08407   0.08850
 Alpha virt. eigenvalues --    0.09159   0.09436   0.09443   0.09613   0.09715
 Alpha virt. eigenvalues --    0.09966   0.10217   0.10335   0.10496   0.11021
 Alpha virt. eigenvalues --    0.11146   0.11498   0.11938   0.11973   0.12107
 Alpha virt. eigenvalues --    0.12299   0.12436   0.12608   0.12769   0.13229
 Alpha virt. eigenvalues --    0.13280   0.13567   0.13692   0.14069   0.14099
 Alpha virt. eigenvalues --    0.14289   0.14592   0.14745   0.14827   0.14971
 Alpha virt. eigenvalues --    0.15140   0.15408   0.15611   0.15968   0.15983
 Alpha virt. eigenvalues --    0.16257   0.16281   0.16533   0.16742   0.16923
 Alpha virt. eigenvalues --    0.17074   0.17592   0.17698   0.17874   0.18098
 Alpha virt. eigenvalues --    0.18238   0.18490   0.18787   0.18834   0.19030
 Alpha virt. eigenvalues --    0.19269   0.19532   0.19773   0.19886   0.20088
 Alpha virt. eigenvalues --    0.20275   0.20433   0.20471   0.21095   0.21373
 Alpha virt. eigenvalues --    0.21454   0.21589   0.21969   0.22139   0.22346
 Alpha virt. eigenvalues --    0.22544   0.22820   0.23055   0.23210   0.23544
 Alpha virt. eigenvalues --    0.23603   0.23811   0.23969   0.24263   0.24379
 Alpha virt. eigenvalues --    0.24688   0.24849   0.25029   0.25385   0.25549
 Alpha virt. eigenvalues --    0.25753   0.26085   0.26119   0.26383   0.26552
 Alpha virt. eigenvalues --    0.26972   0.27070   0.27123   0.27432   0.27745
 Alpha virt. eigenvalues --    0.27930   0.28081   0.28316   0.28410   0.28613
 Alpha virt. eigenvalues --    0.28999   0.29268   0.29382   0.29460   0.29541
 Alpha virt. eigenvalues --    0.29753   0.29898   0.30032   0.30170   0.30435
 Alpha virt. eigenvalues --    0.30747   0.30918   0.31061   0.31289   0.31423
 Alpha virt. eigenvalues --    0.31632   0.31821   0.31949   0.32076   0.32333
 Alpha virt. eigenvalues --    0.32449   0.32692   0.32908   0.33098   0.33166
 Alpha virt. eigenvalues --    0.33388   0.33715   0.33737   0.33921   0.34235
 Alpha virt. eigenvalues --    0.34327   0.34513   0.34571   0.34766   0.35022
 Alpha virt. eigenvalues --    0.35144   0.35351   0.35765   0.35835   0.35907
 Alpha virt. eigenvalues --    0.36243   0.36675   0.36717   0.36864   0.37092
 Alpha virt. eigenvalues --    0.37489   0.37521   0.37603   0.37741   0.37951
 Alpha virt. eigenvalues --    0.38083   0.38287   0.38330   0.38387   0.38529
 Alpha virt. eigenvalues --    0.38813   0.39132   0.39150   0.39201   0.39494
 Alpha virt. eigenvalues --    0.39662   0.39843   0.39973   0.40090   0.40278
 Alpha virt. eigenvalues --    0.40491   0.40731   0.40886   0.41254   0.41314
 Alpha virt. eigenvalues --    0.41579   0.41602   0.41738   0.41991   0.42078
 Alpha virt. eigenvalues --    0.42466   0.42567   0.42699   0.42919   0.43060
 Alpha virt. eigenvalues --    0.43345   0.43603   0.43791   0.43840   0.44084
 Alpha virt. eigenvalues --    0.44269   0.44313   0.44519   0.44688   0.44867
 Alpha virt. eigenvalues --    0.45005   0.45476   0.45676   0.45831   0.46074
 Alpha virt. eigenvalues --    0.46400   0.46744   0.46861   0.47073   0.47228
 Alpha virt. eigenvalues --    0.47451   0.47547   0.47811   0.48069   0.48272
 Alpha virt. eigenvalues --    0.48671   0.48822   0.49065   0.49128   0.49183
 Alpha virt. eigenvalues --    0.49490   0.49722   0.49864   0.50141   0.50345
 Alpha virt. eigenvalues --    0.50629   0.50760   0.51036   0.51168   0.51659
 Alpha virt. eigenvalues --    0.51965   0.52036   0.52265   0.52407   0.52634
 Alpha virt. eigenvalues --    0.52912   0.53145   0.53270   0.53571   0.53868
 Alpha virt. eigenvalues --    0.53940   0.54340   0.54508   0.54903   0.55129
 Alpha virt. eigenvalues --    0.55557   0.55768   0.56079   0.56367   0.56471
 Alpha virt. eigenvalues --    0.56693   0.56945   0.57209   0.57495   0.57709
 Alpha virt. eigenvalues --    0.57952   0.58167   0.58785   0.59044   0.59217
 Alpha virt. eigenvalues --    0.59329   0.59834   0.60052   0.60150   0.60319
 Alpha virt. eigenvalues --    0.60604   0.60905   0.61144   0.61402   0.61483
 Alpha virt. eigenvalues --    0.61499   0.62059   0.62190   0.62245   0.62457
 Alpha virt. eigenvalues --    0.62769   0.62991   0.63181   0.63624   0.64015
 Alpha virt. eigenvalues --    0.64093   0.64137   0.64700   0.65025   0.65150
 Alpha virt. eigenvalues --    0.65391   0.65687   0.66111   0.66383   0.66724
 Alpha virt. eigenvalues --    0.66959   0.67110   0.67269   0.67442   0.67745
 Alpha virt. eigenvalues --    0.67944   0.68420   0.68520   0.68932   0.69010
 Alpha virt. eigenvalues --    0.69361   0.69544   0.69926   0.69970   0.70257
 Alpha virt. eigenvalues --    0.70917   0.71031   0.71112   0.71283   0.71809
 Alpha virt. eigenvalues --    0.72071   0.72107   0.72156   0.72732   0.73264
 Alpha virt. eigenvalues --    0.73339   0.74017   0.74145   0.74284   0.74632
 Alpha virt. eigenvalues --    0.75182   0.75382   0.75563   0.75778   0.76133
 Alpha virt. eigenvalues --    0.76517   0.76907   0.77146   0.77450   0.77707
 Alpha virt. eigenvalues --    0.77852   0.78179   0.78666   0.78692   0.78929
 Alpha virt. eigenvalues --    0.79391   0.79697   0.79877   0.80194   0.80610
 Alpha virt. eigenvalues --    0.80895   0.81183   0.81323   0.81770   0.81853
 Alpha virt. eigenvalues --    0.82406   0.82489   0.82658   0.82871   0.83217
 Alpha virt. eigenvalues --    0.83554   0.83793   0.83932   0.84013   0.84521
 Alpha virt. eigenvalues --    0.84658   0.85121   0.85303   0.85387   0.85948
 Alpha virt. eigenvalues --    0.86205   0.86293   0.86549   0.87153   0.87297
 Alpha virt. eigenvalues --    0.87625   0.87769   0.88032   0.88079   0.88397
 Alpha virt. eigenvalues --    0.88866   0.88992   0.89223   0.89780   0.89912
 Alpha virt. eigenvalues --    0.89934   0.90183   0.90422   0.90773   0.91043
 Alpha virt. eigenvalues --    0.91570   0.91664   0.92239   0.92393   0.92589
 Alpha virt. eigenvalues --    0.92770   0.92965   0.93249   0.93806   0.93814
 Alpha virt. eigenvalues --    0.94141   0.94366   0.94828   0.95176   0.95428
 Alpha virt. eigenvalues --    0.95675   0.96197   0.96309   0.96499   0.96869
 Alpha virt. eigenvalues --    0.96879   0.97113   0.97807   0.97911   0.98046
 Alpha virt. eigenvalues --    0.98530   0.98981   0.99176   0.99748   0.99909
 Alpha virt. eigenvalues --    1.00062   1.00397   1.00689   1.01095   1.01256
 Alpha virt. eigenvalues --    1.01982   1.02190   1.02336   1.02562   1.03126
 Alpha virt. eigenvalues --    1.03359   1.03675   1.03691   1.03980   1.04148
 Alpha virt. eigenvalues --    1.04488   1.05005   1.05291   1.05507   1.05661
 Alpha virt. eigenvalues --    1.06151   1.06354   1.06643   1.06925   1.07434
 Alpha virt. eigenvalues --    1.07807   1.08009   1.08405   1.08874   1.09210
 Alpha virt. eigenvalues --    1.09316   1.09765   1.09941   1.10355   1.10860
 Alpha virt. eigenvalues --    1.10906   1.11318   1.12042   1.12253   1.12495
 Alpha virt. eigenvalues --    1.13047   1.13468   1.13672   1.13972   1.14218
 Alpha virt. eigenvalues --    1.14671   1.14946   1.15235   1.15838   1.16059
 Alpha virt. eigenvalues --    1.16492   1.16527   1.16801   1.17428   1.17581
 Alpha virt. eigenvalues --    1.18062   1.18327   1.18406   1.19055   1.19253
 Alpha virt. eigenvalues --    1.19511   1.19696   1.20411   1.20500   1.20555
 Alpha virt. eigenvalues --    1.21137   1.21532   1.21723   1.21945   1.22172
 Alpha virt. eigenvalues --    1.22661   1.22865   1.23328   1.23566   1.23775
 Alpha virt. eigenvalues --    1.24274   1.24664   1.25082   1.25180   1.25841
 Alpha virt. eigenvalues --    1.26228   1.26743   1.27007   1.27466   1.28072
 Alpha virt. eigenvalues --    1.28319   1.28662   1.29186   1.29616   1.30013
 Alpha virt. eigenvalues --    1.30392   1.30664   1.31459   1.31754   1.31948
 Alpha virt. eigenvalues --    1.32035   1.32646   1.33096   1.33514   1.33906
 Alpha virt. eigenvalues --    1.34305   1.34729   1.35018   1.35173   1.35357
 Alpha virt. eigenvalues --    1.35749   1.36028   1.36511   1.36889   1.37154
 Alpha virt. eigenvalues --    1.37314   1.37969   1.38252   1.38340   1.38692
 Alpha virt. eigenvalues --    1.38838   1.39504   1.39634   1.39800   1.40140
 Alpha virt. eigenvalues --    1.40420   1.40951   1.41123   1.41253   1.41641
 Alpha virt. eigenvalues --    1.41890   1.42225   1.42577   1.42984   1.43254
 Alpha virt. eigenvalues --    1.43391   1.43479   1.43677   1.43855   1.44160
 Alpha virt. eigenvalues --    1.44622   1.44854   1.45218   1.45301   1.45628
 Alpha virt. eigenvalues --    1.45847   1.46012   1.46197   1.46264   1.46855
 Alpha virt. eigenvalues --    1.47116   1.47190   1.47585   1.47838   1.48094
 Alpha virt. eigenvalues --    1.48561   1.48698   1.48951   1.49122   1.49274
 Alpha virt. eigenvalues --    1.49517   1.49721   1.50090   1.50185   1.50617
 Alpha virt. eigenvalues --    1.50798   1.51233   1.51499   1.51580   1.51959
 Alpha virt. eigenvalues --    1.52417   1.52600   1.52880   1.53127   1.53456
 Alpha virt. eigenvalues --    1.53706   1.53806   1.54163   1.54417   1.54568
 Alpha virt. eigenvalues --    1.54817   1.55021   1.55755   1.55837   1.56004
 Alpha virt. eigenvalues --    1.56255   1.56387   1.56550   1.57287   1.57414
 Alpha virt. eigenvalues --    1.57542   1.57668   1.57927   1.58508   1.58657
 Alpha virt. eigenvalues --    1.59240   1.59482   1.59530   1.59748   1.59992
 Alpha virt. eigenvalues --    1.60360   1.60466   1.60864   1.60921   1.61278
 Alpha virt. eigenvalues --    1.61535   1.61817   1.62154   1.62916   1.63005
 Alpha virt. eigenvalues --    1.63119   1.63425   1.63812   1.63856   1.63957
 Alpha virt. eigenvalues --    1.64323   1.64447   1.64905   1.65196   1.65529
 Alpha virt. eigenvalues --    1.65695   1.66058   1.66222   1.66683   1.66880
 Alpha virt. eigenvalues --    1.67604   1.67788   1.68114   1.68176   1.68640
 Alpha virt. eigenvalues --    1.68749   1.69552   1.69674   1.69798   1.70113
 Alpha virt. eigenvalues --    1.70486   1.70847   1.70965   1.71246   1.71734
 Alpha virt. eigenvalues --    1.72077   1.72237   1.72754   1.73578   1.73761
 Alpha virt. eigenvalues --    1.73805   1.74190   1.74416   1.74807   1.75106
 Alpha virt. eigenvalues --    1.75298   1.75577   1.76110   1.76318   1.76423
 Alpha virt. eigenvalues --    1.76914   1.77045   1.77285   1.77809   1.78236
 Alpha virt. eigenvalues --    1.78647   1.78782   1.79096   1.79473   1.79702
 Alpha virt. eigenvalues --    1.79770   1.80742   1.80851   1.81026   1.81421
 Alpha virt. eigenvalues --    1.81519   1.81771   1.82178   1.82586   1.82922
 Alpha virt. eigenvalues --    1.83389   1.83820   1.84328   1.84416   1.84761
 Alpha virt. eigenvalues --    1.85199   1.85604   1.85802   1.86205   1.86390
 Alpha virt. eigenvalues --    1.86731   1.87035   1.87650   1.87759   1.88042
 Alpha virt. eigenvalues --    1.88516   1.88602   1.89141   1.89421   1.89903
 Alpha virt. eigenvalues --    1.90148   1.90247   1.90757   1.91043   1.91574
 Alpha virt. eigenvalues --    1.91620   1.91854   1.92122   1.92588   1.93007
 Alpha virt. eigenvalues --    1.93459   1.93871   1.94191   1.94508   1.95013
 Alpha virt. eigenvalues --    1.95273   1.95347   1.96005   1.96383   1.96591
 Alpha virt. eigenvalues --    1.97132   1.97576   1.97777   1.98348   1.98602
 Alpha virt. eigenvalues --    1.98822   1.99001   1.99837   2.00315   2.00528
 Alpha virt. eigenvalues --    2.00749   2.00977   2.01118   2.01309   2.01992
 Alpha virt. eigenvalues --    2.02188   2.02395   2.02617   2.03161   2.03468
 Alpha virt. eigenvalues --    2.03636   2.03847   2.04778   2.05252   2.05548
 Alpha virt. eigenvalues --    2.06095   2.06463   2.06563   2.06630   2.06963
 Alpha virt. eigenvalues --    2.07077   2.07428   2.07621   2.07972   2.08240
 Alpha virt. eigenvalues --    2.08258   2.09251   2.09543   2.09801   2.10195
 Alpha virt. eigenvalues --    2.10651   2.10986   2.11381   2.11706   2.11800
 Alpha virt. eigenvalues --    2.11916   2.12547   2.12756   2.13398   2.13920
 Alpha virt. eigenvalues --    2.14198   2.14709   2.14822   2.14942   2.15332
 Alpha virt. eigenvalues --    2.15758   2.16279   2.16768   2.16949   2.17326
 Alpha virt. eigenvalues --    2.17527   2.17884   2.18419   2.18896   2.19378
 Alpha virt. eigenvalues --    2.19650   2.20097   2.20276   2.20908   2.21076
 Alpha virt. eigenvalues --    2.21750   2.21852   2.22854   2.23221   2.23454
 Alpha virt. eigenvalues --    2.23584   2.24138   2.24390   2.24807   2.25326
 Alpha virt. eigenvalues --    2.25923   2.26317   2.26852   2.27038   2.27145
 Alpha virt. eigenvalues --    2.27526   2.28044   2.28207   2.28549   2.29260
 Alpha virt. eigenvalues --    2.29624   2.29912   2.30204   2.30419   2.30779
 Alpha virt. eigenvalues --    2.30964   2.31537   2.31694   2.32054   2.32376
 Alpha virt. eigenvalues --    2.32902   2.33223   2.33630   2.34082   2.34307
 Alpha virt. eigenvalues --    2.34652   2.34826   2.35257   2.35410   2.36121
 Alpha virt. eigenvalues --    2.36208   2.36584   2.37253   2.37646   2.37988
 Alpha virt. eigenvalues --    2.38440   2.38832   2.39133   2.39675   2.39968
 Alpha virt. eigenvalues --    2.40572   2.40662   2.41320   2.41635   2.41748
 Alpha virt. eigenvalues --    2.42349   2.42645   2.42782   2.43350   2.43564
 Alpha virt. eigenvalues --    2.43923   2.44315   2.44503   2.45033   2.45294
 Alpha virt. eigenvalues --    2.45651   2.46122   2.46747   2.47030   2.47064
 Alpha virt. eigenvalues --    2.47366   2.47956   2.48194   2.48245   2.48416
 Alpha virt. eigenvalues --    2.48701   2.48840   2.49590   2.49682   2.49968
 Alpha virt. eigenvalues --    2.50198   2.50314   2.50879   2.50982   2.51411
 Alpha virt. eigenvalues --    2.51926   2.52282   2.52450   2.52506   2.53341
 Alpha virt. eigenvalues --    2.53516   2.53824   2.54146   2.54333   2.54893
 Alpha virt. eigenvalues --    2.55346   2.55695   2.55928   2.56180   2.56597
 Alpha virt. eigenvalues --    2.56770   2.56990   2.57530   2.57729   2.58080
 Alpha virt. eigenvalues --    2.58400   2.58913   2.59230   2.59513   2.59825
 Alpha virt. eigenvalues --    2.60095   2.60227   2.60586   2.61124   2.61309
 Alpha virt. eigenvalues --    2.61507   2.61779   2.62062   2.62337   2.62408
 Alpha virt. eigenvalues --    2.62948   2.63260   2.63443   2.63936   2.64321
 Alpha virt. eigenvalues --    2.64381   2.64566   2.64931   2.65296   2.65662
 Alpha virt. eigenvalues --    2.66028   2.66087   2.66275   2.66494   2.66957
 Alpha virt. eigenvalues --    2.67474   2.67635   2.67988   2.68299   2.68713
 Alpha virt. eigenvalues --    2.69013   2.69661   2.69927   2.70352   2.70386
 Alpha virt. eigenvalues --    2.70877   2.70912   2.71246   2.71427   2.71887
 Alpha virt. eigenvalues --    2.72336   2.72822   2.73019   2.73745   2.74025
 Alpha virt. eigenvalues --    2.74717   2.74823   2.75235   2.75264   2.75546
 Alpha virt. eigenvalues --    2.76243   2.76473   2.76681   2.76764   2.77082
 Alpha virt. eigenvalues --    2.77324   2.77745   2.78102   2.78274   2.78544
 Alpha virt. eigenvalues --    2.78905   2.79292   2.79736   2.80058   2.80177
 Alpha virt. eigenvalues --    2.80873   2.81134   2.81254   2.81780   2.82048
 Alpha virt. eigenvalues --    2.82418   2.82670   2.82783   2.82882   2.83231
 Alpha virt. eigenvalues --    2.83467   2.83572   2.83749   2.84183   2.84575
 Alpha virt. eigenvalues --    2.85284   2.85404   2.85431   2.85849   2.86076
 Alpha virt. eigenvalues --    2.86499   2.86609   2.86824   2.87163   2.87287
 Alpha virt. eigenvalues --    2.87702   2.88090   2.88484   2.88725   2.89156
 Alpha virt. eigenvalues --    2.89342   2.89750   2.89889   2.89939   2.90160
 Alpha virt. eigenvalues --    2.90672   2.90864   2.91073   2.91195   2.91461
 Alpha virt. eigenvalues --    2.92234   2.92509   2.92747   2.93036   2.93227
 Alpha virt. eigenvalues --    2.93356   2.93792   2.94003   2.94264   2.94510
 Alpha virt. eigenvalues --    2.95034   2.95284   2.95453   2.95761   2.96191
 Alpha virt. eigenvalues --    2.96386   2.96613   2.96794   2.96983   2.97158
 Alpha virt. eigenvalues --    2.97423   2.98064   2.98226   2.98460   2.98576
 Alpha virt. eigenvalues --    2.98937   2.99368   2.99561   2.99661   2.99758
 Alpha virt. eigenvalues --    3.00072   3.00706   3.00932   3.01127   3.01439
 Alpha virt. eigenvalues --    3.01605   3.01636   3.01813   3.02077   3.02288
 Alpha virt. eigenvalues --    3.02581   3.02987   3.03386   3.03554   3.03735
 Alpha virt. eigenvalues --    3.04123   3.04201   3.04572   3.04759   3.04948
 Alpha virt. eigenvalues --    3.05254   3.05464   3.05661   3.05982   3.06210
 Alpha virt. eigenvalues --    3.06722   3.07043   3.07181   3.07353   3.07376
 Alpha virt. eigenvalues --    3.07792   3.08122   3.08569   3.09035   3.09151
 Alpha virt. eigenvalues --    3.09379   3.09875   3.10156   3.10201   3.10388
 Alpha virt. eigenvalues --    3.10439   3.10822   3.11089   3.11138   3.11886
 Alpha virt. eigenvalues --    3.11989   3.12065   3.12421   3.12887   3.13108
 Alpha virt. eigenvalues --    3.13164   3.13470   3.13891   3.14008   3.14382
 Alpha virt. eigenvalues --    3.14568   3.14789   3.15054   3.15160   3.15507
 Alpha virt. eigenvalues --    3.15834   3.16216   3.16522   3.16726   3.17032
 Alpha virt. eigenvalues --    3.17217   3.17469   3.17838   3.17957   3.18350
 Alpha virt. eigenvalues --    3.18660   3.18774   3.18987   3.19233   3.19436
 Alpha virt. eigenvalues --    3.19784   3.20004   3.20267   3.20883   3.20904
 Alpha virt. eigenvalues --    3.21234   3.21400   3.21450   3.21838   3.22075
 Alpha virt. eigenvalues --    3.22352   3.22456   3.22875   3.22942   3.23064
 Alpha virt. eigenvalues --    3.23169   3.23404   3.23894   3.24334   3.24482
 Alpha virt. eigenvalues --    3.24705   3.24940   3.25122   3.25305   3.25650
 Alpha virt. eigenvalues --    3.26173   3.26318   3.26726   3.26729   3.26915
 Alpha virt. eigenvalues --    3.27366   3.27545   3.27678   3.27845   3.28169
 Alpha virt. eigenvalues --    3.28468   3.28879   3.29396   3.29536   3.29734
 Alpha virt. eigenvalues --    3.29987   3.30459   3.30562   3.30816   3.31007
 Alpha virt. eigenvalues --    3.31455   3.31531   3.31612   3.32056   3.32372
 Alpha virt. eigenvalues --    3.32516   3.32599   3.33059   3.33364   3.33914
 Alpha virt. eigenvalues --    3.34050   3.34307   3.34486   3.34956   3.35212
 Alpha virt. eigenvalues --    3.35610   3.35753   3.36085   3.36208   3.36510
 Alpha virt. eigenvalues --    3.36917   3.37062   3.37483   3.37568   3.37787
 Alpha virt. eigenvalues --    3.38281   3.38519   3.38705   3.39037   3.39393
 Alpha virt. eigenvalues --    3.39681   3.40000   3.40157   3.40645   3.41208
 Alpha virt. eigenvalues --    3.41406   3.41530   3.41988   3.42438   3.42678
 Alpha virt. eigenvalues --    3.43093   3.43289   3.43579   3.44112   3.44245
 Alpha virt. eigenvalues --    3.44461   3.44593   3.44740   3.45360   3.45582
 Alpha virt. eigenvalues --    3.45949   3.46296   3.46375   3.46577   3.47064
 Alpha virt. eigenvalues --    3.47576   3.48048   3.48103   3.48214   3.48899
 Alpha virt. eigenvalues --    3.49079   3.49348   3.49790   3.49905   3.50283
 Alpha virt. eigenvalues --    3.50329   3.50690   3.51081   3.51342   3.51825
 Alpha virt. eigenvalues --    3.52051   3.52423   3.52626   3.53086   3.53490
 Alpha virt. eigenvalues --    3.53928   3.54134   3.54295   3.54681   3.55448
 Alpha virt. eigenvalues --    3.55843   3.56202   3.56510   3.57136   3.57449
 Alpha virt. eigenvalues --    3.57936   3.58252   3.58459   3.58896   3.59085
 Alpha virt. eigenvalues --    3.59531   3.59837   3.60202   3.60818   3.61009
 Alpha virt. eigenvalues --    3.61158   3.61438   3.61983   3.62323   3.62510
 Alpha virt. eigenvalues --    3.63494   3.63602   3.64069   3.64130   3.64677
 Alpha virt. eigenvalues --    3.64978   3.65263   3.65581   3.65670   3.66042
 Alpha virt. eigenvalues --    3.66356   3.66509   3.66836   3.67628   3.67661
 Alpha virt. eigenvalues --    3.68068   3.68542   3.68840   3.69522   3.69751
 Alpha virt. eigenvalues --    3.69951   3.70770   3.70981   3.71360   3.71804
 Alpha virt. eigenvalues --    3.71962   3.72801   3.72875   3.73375   3.73499
 Alpha virt. eigenvalues --    3.74319   3.74722   3.75097   3.75302   3.75881
 Alpha virt. eigenvalues --    3.76456   3.76577   3.76979   3.78010   3.78435
 Alpha virt. eigenvalues --    3.78703   3.78973   3.79143   3.80072   3.80453
 Alpha virt. eigenvalues --    3.80837   3.81324   3.81484   3.81803   3.82352
 Alpha virt. eigenvalues --    3.82537   3.82930   3.83514   3.83716   3.83913
 Alpha virt. eigenvalues --    3.84298   3.84774   3.84945   3.85721   3.85924
 Alpha virt. eigenvalues --    3.86231   3.86518   3.87192   3.87567   3.87866
 Alpha virt. eigenvalues --    3.88613   3.88803   3.89406   3.90150   3.90213
 Alpha virt. eigenvalues --    3.90391   3.91028   3.91227   3.91648   3.92368
 Alpha virt. eigenvalues --    3.92644   3.92682   3.93258   3.93714   3.93956
 Alpha virt. eigenvalues --    3.94699   3.95368   3.95976   3.96256   3.96485
 Alpha virt. eigenvalues --    3.97146   3.97754   3.98287   3.98540   3.99988
 Alpha virt. eigenvalues --    4.00255   4.00819   4.01732   4.02315   4.03024
 Alpha virt. eigenvalues --    4.03410   4.03941   4.04502   4.05309   4.05622
 Alpha virt. eigenvalues --    4.05699   4.06623   4.07150   4.07703   4.08133
 Alpha virt. eigenvalues --    4.08229   4.08690   4.09653   4.10043   4.10328
 Alpha virt. eigenvalues --    4.10635   4.11015   4.11464   4.11936   4.12714
 Alpha virt. eigenvalues --    4.12848   4.13173   4.13703   4.14023   4.14415
 Alpha virt. eigenvalues --    4.15134   4.15533   4.15954   4.16100   4.16849
 Alpha virt. eigenvalues --    4.17183   4.17923   4.18442   4.18553   4.18903
 Alpha virt. eigenvalues --    4.19765   4.20103   4.20223   4.20982   4.21475
 Alpha virt. eigenvalues --    4.21818   4.21897   4.22241   4.23350   4.23917
 Alpha virt. eigenvalues --    4.24137   4.24293   4.24810   4.25829   4.26527
 Alpha virt. eigenvalues --    4.26949   4.27551   4.27957   4.28154   4.28709
 Alpha virt. eigenvalues --    4.29014   4.29859   4.30256   4.30573   4.31057
 Alpha virt. eigenvalues --    4.31811   4.32630   4.33328   4.33538   4.34165
 Alpha virt. eigenvalues --    4.34649   4.35018   4.35765   4.36250   4.36588
 Alpha virt. eigenvalues --    4.37061   4.37616   4.38169   4.38744   4.39658
 Alpha virt. eigenvalues --    4.40208   4.41347   4.41869   4.42849   4.43306
 Alpha virt. eigenvalues --    4.43811   4.44831   4.45279   4.45964   4.46814
 Alpha virt. eigenvalues --    4.47144   4.47641   4.48557   4.50390   4.51237
 Alpha virt. eigenvalues --    4.52196   4.52992   4.53525   4.54003   4.55145
 Alpha virt. eigenvalues --    4.55925   4.56301   4.56754   4.57999   4.58289
 Alpha virt. eigenvalues --    4.58916   4.59549   4.59945   4.61174   4.61366
 Alpha virt. eigenvalues --    4.61567   4.62012   4.62401   4.63517   4.63628
 Alpha virt. eigenvalues --    4.64449   4.64934   4.65794   4.65992   4.66827
 Alpha virt. eigenvalues --    4.67138   4.67649   4.68152   4.68686   4.69726
 Alpha virt. eigenvalues --    4.70253   4.70717   4.70815   4.71781   4.71991
 Alpha virt. eigenvalues --    4.72133   4.72442   4.72838   4.73822   4.74154
 Alpha virt. eigenvalues --    4.74564   4.75193   4.75847   4.76439   4.76687
 Alpha virt. eigenvalues --    4.77728   4.77862   4.78473   4.78694   4.80115
 Alpha virt. eigenvalues --    4.81338   4.82484   4.82555   4.83548   4.83819
 Alpha virt. eigenvalues --    4.84688   4.85434   4.85639   4.86746   4.87040
 Alpha virt. eigenvalues --    4.88033   4.88472   4.89855   4.90114   4.90987
 Alpha virt. eigenvalues --    4.91352   4.91623   4.92375   4.93113   4.93419
 Alpha virt. eigenvalues --    4.93756   4.94372   4.94519   4.95132   4.96578
 Alpha virt. eigenvalues --    4.96779   4.97842   4.98733   4.99838   5.00690
 Alpha virt. eigenvalues --    5.01059   5.01942   5.02291   5.03807   5.04889
 Alpha virt. eigenvalues --    5.05380   5.05578   5.06089   5.07923   5.08171
 Alpha virt. eigenvalues --    5.08418   5.09609   5.10774   5.11106   5.11426
 Alpha virt. eigenvalues --    5.11813   5.12049   5.13046   5.13333   5.14462
 Alpha virt. eigenvalues --    5.15035   5.15631   5.15985   5.16903   5.17957
 Alpha virt. eigenvalues --    5.18035   5.18369   5.18923   5.19642   5.19958
 Alpha virt. eigenvalues --    5.21339   5.21714   5.22496   5.23524   5.23870
 Alpha virt. eigenvalues --    5.25337   5.26280   5.26838   5.27311   5.28406
 Alpha virt. eigenvalues --    5.28726   5.28888   5.29886   5.30176   5.30305
 Alpha virt. eigenvalues --    5.31375   5.31401   5.33426   5.33821   5.34861
 Alpha virt. eigenvalues --    5.35370   5.36263   5.36389   5.38014   5.39199
 Alpha virt. eigenvalues --    5.40377   5.42247   5.42537   5.42860   5.43046
 Alpha virt. eigenvalues --    5.43547   5.44729   5.45698   5.46270   5.47982
 Alpha virt. eigenvalues --    5.49832   5.50554   5.50845   5.51639   5.51840
 Alpha virt. eigenvalues --    5.52344   5.53033   5.53474   5.54237   5.56239
 Alpha virt. eigenvalues --    5.56493   5.56927   5.58588   5.59575   5.60819
 Alpha virt. eigenvalues --    5.61930   5.63102   5.65430   5.66618   5.68175
 Alpha virt. eigenvalues --    5.68831   5.69728   5.69787   5.71591   5.72948
 Alpha virt. eigenvalues --    5.75578   5.78438   5.81480   5.85789   5.86109
 Alpha virt. eigenvalues --    5.86819   5.86942   5.88333   5.90489   5.92429
 Alpha virt. eigenvalues --    5.93213   5.94524   5.95206   5.96415   5.97225
 Alpha virt. eigenvalues --    5.98821   5.99181   6.01554   6.04044   6.04574
 Alpha virt. eigenvalues --    6.05900   6.06463   6.06699   6.07373   6.08212
 Alpha virt. eigenvalues --    6.08486   6.10237   6.15133   6.19953   6.20921
 Alpha virt. eigenvalues --    6.24844   6.26536   6.28440   6.30001   6.32732
 Alpha virt. eigenvalues --    6.34438   6.35192   6.39684   6.40558   6.44161
 Alpha virt. eigenvalues --    6.45522   6.57535   6.58982   6.64955   6.68014
 Alpha virt. eigenvalues --    6.75674   6.76238   6.81178   6.84943   6.86253
 Alpha virt. eigenvalues --    6.94037   7.00582   7.04118   7.06411   7.06927
 Alpha virt. eigenvalues --    7.16845   7.25994  22.23504  22.27904  22.36378
 Alpha virt. eigenvalues --   22.40272  22.40586  22.42399  22.44436  22.45635
 Alpha virt. eigenvalues --   22.46380  22.48829  22.53654  22.57648  22.71905
 Alpha virt. eigenvalues --   22.76621  22.85488  22.87127  22.90335  22.91571
 Alpha virt. eigenvalues --   22.94286  22.96928  22.97681  23.01310  23.02926
 Alpha virt. eigenvalues --   23.04852  23.12008  23.17011  23.19011  23.19543
 Alpha virt. eigenvalues --   23.22874  23.24473  23.25492  23.34314  23.37633
 Alpha virt. eigenvalues --   23.41222  23.41602  23.44682  23.47316  23.51605
 Alpha virt. eigenvalues --   23.63400  23.70512  23.72953  23.82478  32.37167
 Alpha virt. eigenvalues --   32.39198  32.66964  32.81091  32.99178  33.02569
 Alpha virt. eigenvalues --   33.07147  33.22774  43.84171  43.86749  43.88046
 Alpha virt. eigenvalues --   43.88365
  Beta  occ. eigenvalues -- -256.53151 -30.26391 -26.09599 -26.09564 -26.09539
  Beta  occ. eigenvalues --  -19.36112 -19.34031 -19.24430 -19.24390 -14.55432
  Beta  occ. eigenvalues --  -14.55249 -14.49047 -14.49046 -14.47336 -14.47034
  Beta  occ. eigenvalues --  -14.46694 -14.46521 -10.43521 -10.42595 -10.39023
  Beta  occ. eigenvalues --  -10.38985 -10.36044 -10.35855 -10.35274 -10.35100
  Beta  occ. eigenvalues --  -10.35077 -10.35035 -10.34899 -10.34796 -10.34681
  Beta  occ. eigenvalues --  -10.34513 -10.33721 -10.33582 -10.33370 -10.32735
  Beta  occ. eigenvalues --  -10.32458 -10.32331 -10.32315 -10.32221 -10.32159
  Beta  occ. eigenvalues --  -10.32107 -10.32074 -10.32001 -10.31880 -10.31817
  Beta  occ. eigenvalues --  -10.31816 -10.31719 -10.31712 -10.31639 -10.31583
  Beta  occ. eigenvalues --  -10.31489 -10.31366 -10.31270 -10.31078 -10.31043
  Beta  occ. eigenvalues --  -10.30448 -10.29418 -10.28407 -10.26691  -3.55671
  Beta  occ. eigenvalues --   -2.30149  -2.30014  -2.29957  -1.26229  -1.24260
  Beta  occ. eigenvalues --   -1.16690  -1.16460  -1.09019  -1.08849  -1.07954
  Beta  occ. eigenvalues --   -1.07821  -1.06769  -1.06644  -1.02097  -1.01671
  Beta  occ. eigenvalues --   -0.94755  -0.94299  -0.92762  -0.92515  -0.92131
  Beta  occ. eigenvalues --   -0.91571  -0.91336  -0.90470  -0.90391  -0.88920
  Beta  occ. eigenvalues --   -0.88072  -0.87770  -0.87193  -0.86168  -0.83999
  Beta  occ. eigenvalues --   -0.82237  -0.81770  -0.81620  -0.81528  -0.81029
  Beta  occ. eigenvalues --   -0.79443  -0.78557  -0.77735  -0.76359  -0.76005
  Beta  occ. eigenvalues --   -0.75918  -0.75629  -0.74261  -0.72798  -0.72069
  Beta  occ. eigenvalues --   -0.71888  -0.70172  -0.69727  -0.69080  -0.68098
  Beta  occ. eigenvalues --   -0.66691  -0.66327  -0.66224  -0.64779  -0.64194
  Beta  occ. eigenvalues --   -0.63409  -0.62578  -0.62364  -0.61956  -0.61506
  Beta  occ. eigenvalues --   -0.60560  -0.59654  -0.59480  -0.59109  -0.58639
  Beta  occ. eigenvalues --   -0.58365  -0.57996  -0.57693  -0.57600  -0.57197
  Beta  occ. eigenvalues --   -0.57085  -0.56634  -0.56328  -0.56081  -0.55725
  Beta  occ. eigenvalues --   -0.55276  -0.54737  -0.54580  -0.54537  -0.54366
  Beta  occ. eigenvalues --   -0.53987  -0.53815  -0.53612  -0.53213  -0.52903
  Beta  occ. eigenvalues --   -0.52897  -0.52650  -0.52569  -0.52176  -0.52038
  Beta  occ. eigenvalues --   -0.51988  -0.51551  -0.51502  -0.51183  -0.51082
  Beta  occ. eigenvalues --   -0.50539  -0.50464  -0.50039  -0.49664  -0.49271
  Beta  occ. eigenvalues --   -0.49018  -0.48514  -0.48149  -0.47748  -0.47382
  Beta  occ. eigenvalues --   -0.46718  -0.46319  -0.46074  -0.45786  -0.45632
  Beta  occ. eigenvalues --   -0.45186  -0.44942  -0.44772  -0.44554  -0.44058
  Beta  occ. eigenvalues --   -0.43919  -0.43603  -0.43322  -0.42846  -0.42804
  Beta  occ. eigenvalues --   -0.42399  -0.42054  -0.41870  -0.41581  -0.40950
  Beta  occ. eigenvalues --   -0.39957  -0.39535  -0.38885  -0.38452  -0.38295
  Beta  occ. eigenvalues --   -0.38215  -0.37728  -0.34742  -0.34559  -0.34105
  Beta  occ. eigenvalues --   -0.33554  -0.33383  -0.33120  -0.32732  -0.32351
  Beta  occ. eigenvalues --   -0.29741  -0.28974
  Beta virt. eigenvalues --   -0.19373  -0.19011  -0.17356  -0.15497  -0.15275
  Beta virt. eigenvalues --   -0.11317  -0.10932  -0.09336  -0.08791  -0.08299
  Beta virt. eigenvalues --   -0.07660  -0.07255  -0.07193  -0.06663  -0.06384
  Beta virt. eigenvalues --   -0.06096  -0.05703  -0.05376  -0.05187  -0.04639
  Beta virt. eigenvalues --   -0.04453  -0.04297  -0.04210  -0.03764  -0.03450
  Beta virt. eigenvalues --   -0.03149  -0.02834  -0.02557  -0.02125  -0.01749
  Beta virt. eigenvalues --   -0.01308  -0.00888  -0.00638  -0.00588  -0.00237
  Beta virt. eigenvalues --   -0.00005   0.00172   0.00482   0.00768   0.01029
  Beta virt. eigenvalues --    0.01233   0.01411   0.01942   0.02133   0.02491
  Beta virt. eigenvalues --    0.02778   0.02941   0.03113   0.03375   0.03596
  Beta virt. eigenvalues --    0.03651   0.04070   0.04414   0.04612   0.04930
  Beta virt. eigenvalues --    0.05139   0.05346   0.05356   0.05733   0.05779
  Beta virt. eigenvalues --    0.05931   0.06154   0.06237   0.06550   0.06625
  Beta virt. eigenvalues --    0.07048   0.07182   0.07402   0.07744   0.07985
  Beta virt. eigenvalues --    0.08090   0.08168   0.08427   0.08509   0.08939
  Beta virt. eigenvalues --    0.09198   0.09486   0.09529   0.09680   0.09767
  Beta virt. eigenvalues --    0.10032   0.10281   0.10387   0.10528   0.11076
  Beta virt. eigenvalues --    0.11220   0.11655   0.11983   0.12018   0.12185
  Beta virt. eigenvalues --    0.12359   0.12484   0.12715   0.12905   0.13278
  Beta virt. eigenvalues --    0.13323   0.13659   0.13898   0.14143   0.14186
  Beta virt. eigenvalues --    0.14390   0.14669   0.14895   0.15005   0.15183
  Beta virt. eigenvalues --    0.15211   0.15503   0.15775   0.16078   0.16223
  Beta virt. eigenvalues --    0.16381   0.16570   0.16629   0.16983   0.17024
  Beta virt. eigenvalues --    0.17164   0.17668   0.17790   0.17989   0.18139
  Beta virt. eigenvalues --    0.18339   0.18603   0.18870   0.18974   0.19094
  Beta virt. eigenvalues --    0.19403   0.19625   0.19837   0.20072   0.20272
  Beta virt. eigenvalues --    0.20383   0.20547   0.20599   0.21284   0.21447
  Beta virt. eigenvalues --    0.21565   0.21782   0.22264   0.22305   0.22484
  Beta virt. eigenvalues --    0.22598   0.22942   0.23222   0.23270   0.23636
  Beta virt. eigenvalues --    0.23886   0.24031   0.24230   0.24462   0.24540
  Beta virt. eigenvalues --    0.24834   0.24996   0.25222   0.25527   0.25800
  Beta virt. eigenvalues --    0.26071   0.26211   0.26458   0.26651   0.26754
  Beta virt. eigenvalues --    0.27069   0.27192   0.27239   0.27627   0.27877
  Beta virt. eigenvalues --    0.28010   0.28307   0.28460   0.28518   0.28730
  Beta virt. eigenvalues --    0.29148   0.29346   0.29453   0.29517   0.29669
  Beta virt. eigenvalues --    0.29889   0.29972   0.30102   0.30322   0.30502
  Beta virt. eigenvalues --    0.30824   0.31056   0.31157   0.31457   0.31580
  Beta virt. eigenvalues --    0.31684   0.31891   0.32084   0.32343   0.32464
  Beta virt. eigenvalues --    0.32547   0.32922   0.33060   0.33235   0.33313
  Beta virt. eigenvalues --    0.33572   0.33762   0.33805   0.34101   0.34379
  Beta virt. eigenvalues --    0.34391   0.34622   0.34665   0.34925   0.35140
  Beta virt. eigenvalues --    0.35224   0.35497   0.35880   0.36007   0.36124
  Beta virt. eigenvalues --    0.36337   0.36773   0.36857   0.37035   0.37165
  Beta virt. eigenvalues --    0.37578   0.37645   0.37675   0.37831   0.38041
  Beta virt. eigenvalues --    0.38155   0.38358   0.38496   0.38526   0.38622
  Beta virt. eigenvalues --    0.38889   0.39219   0.39309   0.39345   0.39562
  Beta virt. eigenvalues --    0.39796   0.39881   0.40109   0.40243   0.40408
  Beta virt. eigenvalues --    0.40639   0.40801   0.40936   0.41297   0.41364
  Beta virt. eigenvalues --    0.41645   0.41730   0.41856   0.42133   0.42203
  Beta virt. eigenvalues --    0.42650   0.42687   0.42849   0.43030   0.43253
  Beta virt. eigenvalues --    0.43431   0.43753   0.43852   0.43942   0.44217
  Beta virt. eigenvalues --    0.44386   0.44436   0.44701   0.44867   0.44974
  Beta virt. eigenvalues --    0.45124   0.45547   0.45813   0.45907   0.46161
  Beta virt. eigenvalues --    0.46490   0.46858   0.46958   0.47150   0.47450
  Beta virt. eigenvalues --    0.47530   0.47673   0.47888   0.48173   0.48347
  Beta virt. eigenvalues --    0.48713   0.48974   0.49149   0.49236   0.49305
  Beta virt. eigenvalues --    0.49569   0.49824   0.49971   0.50246   0.50489
  Beta virt. eigenvalues --    0.50755   0.50853   0.51142   0.51305   0.51733
  Beta virt. eigenvalues --    0.52055   0.52132   0.52402   0.52515   0.52744
  Beta virt. eigenvalues --    0.52960   0.53240   0.53520   0.53630   0.53986
  Beta virt. eigenvalues --    0.54034   0.54407   0.54603   0.55045   0.55244
  Beta virt. eigenvalues --    0.55647   0.56042   0.56175   0.56519   0.56562
  Beta virt. eigenvalues --    0.56879   0.57039   0.57374   0.57716   0.57993
  Beta virt. eigenvalues --    0.58129   0.58343   0.58910   0.59141   0.59363
  Beta virt. eigenvalues --    0.59434   0.59986   0.60149   0.60265   0.60408
  Beta virt. eigenvalues --    0.60705   0.61084   0.61258   0.61497   0.61595
  Beta virt. eigenvalues --    0.61640   0.62155   0.62304   0.62319   0.62598
  Beta virt. eigenvalues --    0.62892   0.63253   0.63287   0.63746   0.64079
  Beta virt. eigenvalues --    0.64194   0.64350   0.64805   0.65167   0.65290
  Beta virt. eigenvalues --    0.65663   0.65832   0.66214   0.66559   0.66777
  Beta virt. eigenvalues --    0.67050   0.67225   0.67363   0.67513   0.67888
  Beta virt. eigenvalues --    0.68114   0.68572   0.68651   0.69003   0.69172
  Beta virt. eigenvalues --    0.69473   0.69678   0.70038   0.70168   0.70393
[...]
  1769. RY*(   5) H  82                  0.00000     3.02805   
  1770. RY*(   1) H  83                  0.00054     0.95773   
  1771. RY*(   2) H  83                  0.00017     1.73888   
  1772. RY*(   3) H  83                  0.00008     2.05089   
  1773. RY*(   4) H  83                  0.00002     2.70602   
  1774. RY*(   5) H  83                  0.00001     2.68285   
  1775. RY*(   1) H  84                  0.00083     1.40217   
  1776. RY*(   2) H  84                  0.00014     1.41785   
  1777. RY*(   3) H  84                  0.00008     1.44837   
  1778. RY*(   4) H  84                  0.00002     1.61874   
  1779. RY*(   5) H  84                  0.00002     2.28099   
  1780. RY*(   1) H  85                  0.00045     0.75793   
  1781. RY*(   2) H  85                  0.00010     2.03106   
  1782. RY*(   3) H  85                  0.00005     2.09481   
  1783. RY*(   4) H  85                  0.00001     2.35888   
  1784. RY*(   5) H  85                  0.00002     1.97849   
  1785. RY*(   1) H  86                  0.00045     0.89360   
  1786. RY*(   2) H  86                  0.00016     2.01671   
  1787. RY*(   3) H  86                  0.00008     1.72286   
  1788. RY*(   4) H  86                  0.00002     2.43713   
  1789. RY*(   5) H  86                  0.00000     2.28579   
  1790. RY*(   1) H  87                  0.00049     0.93284   
  1791. RY*(   2) H  87                  0.00014     1.68292   
  1792. RY*(   3) H  87                  0.00008     2.05094   
  1793. RY*(   4) H  87                  0.00003     2.38598   
  1794. RY*(   5) H  87                  0.00000     3.07388   
  1795. RY*(   1) H  88                  0.00070     1.00545   
  1796. RY*(   2) H  88                  0.00014     1.82116   
  1797. RY*(   3) H  88                  0.00009     2.10071   
  1798. RY*(   4) H  88                  0.00002     2.48929   
  1799. RY*(   5) H  88                  0.00001     2.98592   
  1800. RY*(   1) H  89                  0.00053     0.63343   
  1801. RY*(   2) H  89                  0.00007     1.92991   
  1802. RY*(   3) H  89                  0.00005     2.22741   
  1803. RY*(   4) H  89                  0.00001     2.49247   
  1804. RY*(   5) H  89                  0.00002     2.06928   
  1805. RY*(   1) H  90                  0.00110     1.28754   
  1806. RY*(   2) H  90                  0.00017     1.83882   
  1807. RY*(   3) H  90                  0.00010     1.31786   
  1808. RY*(   4) H  90                  0.00002     2.21771   
  1809. RY*(   5) H  90                  0.00001     1.89488   
  1810. RY*(   1) H  91                  0.00055     0.87299   
  1811. RY*(   2) H  91                  0.00015     1.89913   
  1812. RY*(   3) H  91                  0.00009     1.85462   
  1813. RY*(   4) H  91                  0.00004     2.09471   
  1814. RY*(   5) H  91                  0.00001     2.75927   
  1815. RY*(   1) H  92                  0.00034     0.93967   
  1816. RY*(   2) H  92                  0.00008     1.93767   
  1817. RY*(   3) H  92                  0.00005     2.61081   
  1818. RY*(   4) H  92                  0.00006     2.09481   
  1819. RY*(   5) H  92                  0.00001     2.72118   
  1820. RY*(   1) H  93                  0.00029     0.96922   
  1821. RY*(   2) H  93                  0.00008     1.93926   
  1822. RY*(   3) H  93                  0.00007     2.44985   
  1823. RY*(   4) H  93                  0.00003     2.48122   
  1824. RY*(   5) H  93                  0.00001     2.65428   
  1825. RY*(   1) H  94                  0.00037     0.84282   
  1826. RY*(   2) H  94                  0.00009     2.27303   
  1827. RY*(   3) H  94                  0.00006     2.00920   
  1828. RY*(   4) H  94                  0.00005     2.13109   
  1829. RY*(   5) H  94                  0.00001     2.77700   
  1830. RY*(   1) H  95                  0.00030     1.23127   
  1831. RY*(   2) H  95                  0.00008     1.94005   
  1832. RY*(   3) H  95                  0.00005     2.22888   
  1833. RY*(   4) H  95                  0.00002     2.82522   
  1834. RY*(   5) H  95                  0.00002     2.13860   
  1835. RY*(   1) H  96                  0.00027     0.86047   
  1836. RY*(   2) H  96                  0.00008     1.82842   
  1837. RY*(   3) H  96                  0.00003     2.02928   
  1838. RY*(   4) H  96                  0.00002     1.78475   
  1839. RY*(   5) H  96                  0.00000     2.86153   
  1840. RY*(   1) H  97                  0.00037     0.84382   
  1841. RY*(   2) H  97                  0.00008     1.75275   
  1842. RY*(   3) H  97                  0.00003     1.94071   
  1843. RY*(   4) H  97                  0.00002     1.97985   
  1844. RY*(   5) H  97                  0.00000     2.85753   
  1845. RY*(   1) H  98                  0.00035     0.92754   
  1846. RY*(   2) H  98                  0.00031     1.88331   
  1847. RY*(   3) H  98                  0.00018     2.00559   
  1848. RY*(   4) H  98                  0.00010     1.86438   
  1849. RY*(   5) H  98                  0.00001     3.24009   
  1850. RY*(   1) H  99                  0.00072     0.89256   
  1851. RY*(   2) H  99                  0.00032     1.49514   
  1852. RY*(   3) H  99                  0.00025     1.52885   
  1853. RY*(   4) H  99                  0.00011     1.14076   
  1854. RY*(   5) H  99                  0.00000     3.39621   
  1855. BD*(   1) C   1 - C   2          0.00644     0.28309   
  1856. BD*(   1) C   1 - H   7          0.00367     0.31425   
  1857. BD*(   1) C   1 - H   8          0.00141     0.30887   
  1858. BD*(   1) C   1 - H  96          0.00385     0.31425   
  1859. BD*(   1) C   2 - N   3          0.01312     0.31958   
  1860. BD*(   2) C   2 - N   3          0.37408    -0.14442  1865(v),191(v),1858(v)
                                                    1856(v),233(g),259(g),206(v)
                                                    236(g)
  1861. BD*(   1) C   2 - C   4          0.01072     0.47141   
  1862. BD*(   1) N   3 - C   5          0.00854     0.38851   
  1863. BD*(   1) N   3 - H   9          0.00701     0.29188   
  1864. BD*(   1) C   4 - N   6          0.01032     0.43815   
  1865. BD*(   2) C   4 - N   6          0.31714    -0.10460  1860(v),204(v),191(v),203(v)
                                                    1958(r),285(g),337(g)
                                                    1909(r),284(g),1864(g)
                                                    1941(r),205(v)
  1866. BD*(   1) C   4 - H  10          0.00775     0.29648   
  1867. BD*(   1) C   5 - N   6          0.01238     0.36084   
  1868. BD*(   1) C   5 - H  11          0.00844     0.26824   
  1869. BD*(   1) N   6 -Fe  65          0.03369     0.24056   
  1870. BD*(   1) C  12 - C  13          0.00642     0.28244   
  1871. BD*(   1) C  12 - H  18          0.00253     0.30848   
  1872. BD*(   1) C  12 - H  19          0.00215     0.31456   
  1873. BD*(   1) C  12 - H  97          0.00519     0.31076   
  1874. BD*(   1) C  13 - N  14          0.01348     0.31948   
  1875. BD*(   2) C  13 - N  14          0.37390    -0.14354  1880(v),192(v),1873(v)
                                                    439(g),414(g),1871(v)
                                                    1872(v),417(g),387(v)
  1876. BD*(   1) C  13 - C  15          0.01078     0.47530   
  1877. BD*(   1) N  14 - C  16          0.00837     0.38961   
  1878. BD*(   1) N  14 - H  20          0.00717     0.29305   
  1879. BD*(   1) C  15 - N  17          0.00836     0.44197   
  1880. BD*(   2) C  15 - N  17          0.30547    -0.09745  1875(v),203(v),192(v)
                                                    1958(r),204(v),466(g),205(v)
                                                    1909(r),520(g),492(v),518(g)
  1881. BD*(   1) C  15 - H  21          0.00881     0.30624   
  1882. BD*(   1) C  16 - N  17          0.01063     0.36784   
  1883. BD*(   1) C  16 - H  22          0.00678     0.25902   
  1884. BD*(   1) N  17 -Fe  65          0.03596     0.21873   
  1885. BD*(   1) C  23 - C  27          0.01034     0.56845   
  1886. BD*(   2) C  23 - C  27          0.17951    -0.03278  1904(v),197(v),1909(v)
                                                    568(g),675(g)
  1887. BD*(   1) C  23 - C  54          0.01125     0.49357   
  1888. BD*(   1) C  23 - H  71          0.00889     0.28786   
  1889. BD*(   1) C  24 - C  30          0.01083     0.46375   
  1890. BD*(   1) C  24 - C  37          0.01013     0.47969   
  1891. BD*(   2) C  24 - C  37          0.19534    -0.05405  1909(v),1926(v),594(g)
                                                    934(g)
  1892. BD*(   1) C  24 - H  66          0.00735     0.34140   
  1893. BD*(   1) C  25 - C  40          0.01034     0.50220   
  1894. BD*(   2) C  25 - C  40          0.18514    -0.04163  1926(v),1941(v),620(g)
                                                    1013(g)
  1895. BD*(   1) C  25 - C  44          0.01107     0.50662   
  1896. BD*(   1) C  25 - H  67          0.00948     0.31253   
  1897. BD*(   1) C  26 - C  47          0.01066     0.50644   
  1898. BD*(   2) C  26 - C  47          0.20219    -0.05061  1943(v),1958(v),1941(v)
                                                    645(g),1194(g),1192(g)
  1899. BD*(   1) C  26 - C  51          0.01014     0.48334   
  1900. BD*(   1) C  26 - H  68          0.00774     0.32384   
  1901. BD*(   1) C  27 - C  28          0.01659     0.37971   
  1902. BD*(   1) C  27 - N  61          0.01661     0.40577   
  1903. BD*(   1) C  28 - C  29          0.01051     0.51301   
  1904. BD*(   2) C  28 - C  29          0.11559    -0.02849  1886(v),1909(v),1915(v)
                                                    1905(g),1910(v),1911(v)
                                                    1913(v)
  1905. BD*(   1) C  28 - C  32          0.01263     0.25208   
  1906. BD*(   1) C  29 - C  30          0.01874     0.39799   
  1907. BD*(   1) C  29 - C  31          0.00940     0.28328   
  1908. BD*(   1) C  30 - N  61          0.01501     0.40097   
  1909. BD*(   2) C  30 - N  61          0.31674    -0.09612  1891(v),1904(v),1886(v)
                                                    203(v),204(v),750(g),1880(r)
                                                    594(v),1865(r),1555(g)
                                                    1881(r),1884(v),1869(v)
  1910. BD*(   1) C  31 - H  72          0.00398     0.42910   
  1911. BD*(   1) C  31 - H  73          0.00485     0.24563   
  1912. BD*(   1) C  31 - H  74          0.00669     0.11215   
  1913. BD*(   1) C  32 - C  33          0.00863     0.25930   
  1914. BD*(   1) C  32 - H  75          0.00572     0.27466   
  1915. BD*(   1) C  32 - H  76          0.00916     0.25600   
  1916. BD*(   1) C  33 - C  34          0.03420     0.25972   
  1917. BD*(   1) C  33 - H  77          0.00623     0.27492   
  1918. BD*(   1) C  33 - H  78          0.00797     0.27185   
  1919. BD*(   1) C  34 - O  35          0.02245     0.44923   
  1920. BD*(   2) C  34 - O  35          0.10693    -0.04642  1919(g),1917(v),1922(v)
                                                    1918(v)
  1921. BD*(   1) C  34 - O  36          0.03735     0.40540   
  1922. BD*(   1) O  36 - H  99          0.00679     0.31438   
  1923. BD*(   1) C  37 - C  38          0.01715     0.38799   
  1924. BD*(   1) C  37 - N  62          0.01420     0.40610   
  1925. BD*(   1) C  38 - C  39          0.01084     0.53737   
  1926. BD*(   2) C  38 - C  39          0.12485    -0.02128  1894(v),1891(v),1935(v)
                                                    1931(v),984(g)
  1927. BD*(   1) C  38 - C  41          0.00836     0.29567   
  1928. BD*(   1) C  39 - C  40          0.01544     0.37678   
  1929. BD*(   1) C  39 - C  42          0.01846     0.34788   
  1930. BD*(   1) C  40 - N  62          0.01492     0.39516   
  1931. BD*(   1) C  41 - H  79          0.01009     0.06914   
  1932. BD*(   1) C  41 - H  80          0.00421     0.28095   
  1933. BD*(   1) C  41 - H  81          0.00224     0.65583   
  1934. BD*(   1) C  42 - C  43          0.00512     0.77741   
  1935. BD*(   2) C  42 - C  43          0.02538     0.01460   
  1936. BD*(   1) C  42 - H  69          0.01609     0.25324   
  1937. BD*(   1) C  43 - H  82          0.00753     0.33522   
  1938. BD*(   1) C  43 - H  83          0.00937     0.33006   
  1939. BD*(   1) C  44 - C  45          0.02037     0.39613   
  1940. BD*(   1) C  44 - N  63          0.01527     0.40508   
  1941. BD*(   2) C  44 - N  63          0.32486    -0.09029  1894(v),1943(v),204(v)
                                                    1898(v),1114(g),203(v)
                                                    620(v),1608(g),1865(r)
                                                    1609(g)
  1942. BD*(   1) C  45 - C  46          0.01548     0.47229   
  1943. BD*(   2) C  45 - C  46          0.13232    -0.03455  1898(v),1941(v),1952(v)
                                                    1948(v),1950(v)
  1944. BD*(   1) C  45 - C  48          0.00794     0.32717   
  1945. BD*(   1) C  46 - C  47          0.01482     0.41443   
  1946. BD*(   1) C  46 - C  49          0.02328     0.37643   
  1947. BD*(   1) C  47 - N  63          0.01496     0.38428   
  1948. BD*(   1) C  48 - H  84          0.00382     1.00754   
  1949. BD*(   1) C  48 - H  85          0.00909     0.06836   
  1950. BD*(   1) C  48 - H  86          0.00445     0.17505   
  1951. BD*(   1) C  49 - C  50          0.00953     1.09808   
  1952. BD*(   2) C  49 - C  50          0.01705     0.08535   
  1953. BD*(   1) C  49 - H  70          0.02825     0.17842   
  1954. BD*(   1) C  50 - H  87          0.01251     0.33907   
  1955. BD*(   1) C  50 - H  88          0.01513     0.33828   
  1956. BD*(   1) C  51 - C  52          0.02107     0.36272   
  1957. BD*(   1) C  51 - N  64          0.01548     0.37953   
  1958. BD*(   2) C  51 - N  64          0.32483    -0.10081  203(v),1898(v),197(v)
                                                    1960(v),204(v),1880(r)
                                                    1865(r),1296(g),645(v)
                                                    1633(g),1884(v),1869(v)
  1959. BD*(   1) C  52 - C  53          0.00944     0.56758   
  1960. BD*(   2) C  52 - C  53          0.11823    -0.01691  1958(v),197(v),1965(v)
                                                    1968(v)
  1961. BD*(   1) C  52 - C  55          0.00933     0.32364   
  1962. BD*(   1) C  53 - C  54          0.01563     0.39918   
  1963. BD*(   1) C  53 - C  56          0.01454     0.21119   
  1964. BD*(   1) C  54 - N  64          0.01511     0.42893   
  1965. BD*(   1) C  55 - H  89          0.00966     0.02377   
  1966. BD*(   1) C  55 - H  90          0.00253     1.26166   
  1967. BD*(   1) C  55 - H  91          0.00424     0.19802   
  1968. BD*(   1) C  56 - C  57          0.00616     0.24260   
  1969. BD*(   1) C  56 - H  92          0.00534     0.27255   
  1970. BD*(   1) C  56 - H  93          0.00553     0.27244   
  1971. BD*(   1) C  57 - C  58          0.03233     0.24648   
  1972. BD*(   1) C  57 - H  94          0.00831     0.26231   
  1973. BD*(   1) C  57 - H  95          0.00484     0.28198   
  1974. BD*(   1) C  58 - O  59          0.02868     0.44133   
  1975. BD*(   1) C  58 - O  60          0.03894     0.28773   
  1976. BD*(   2) C  58 - O  60          0.10412    -0.01419  1975(g),1977(v),1973(v)
                                                    1968(v),1478(g)
  1977. BD*(   1) O  59 - H  98          0.00759     0.28080   
  1978. BD*(   1) N  61 -Fe  65          0.02806     0.33911   
  1979. BD*(   1) N  62 -Fe  65          0.02596     0.67977   
  1980. BD*(   1) N  63 -Fe  65          0.02555     4.13931   
  1981. BD*(   1) N  64 -Fe  65          0.02796     4.17120   
       -------------------------------
              Total Lewis  196.10543  ( 97.0819%)
        Valence non-Lewis    5.50067  (  2.7231%)
        Rydberg non-Lewis    0.39390  (  0.1950%)
       -------------------------------
            Total unit  1  202.00000  (100.0000%)
           Charge unit  1    3.00000
 1\1\GINC-NODE615\SP\UPBE1PBE\def2TZVP\C42H44Fe1N8O4(1+,6)\ZHARTOVSKA\0
 8-Feb-2023\0\\# PBE1PBE/def2TZVP scf=maxcycle=999 empiricaldispersion=
 GD3BJ int=(grid=ultrafine) geom=check pop=nbo\\1b5a_III_H\\1,6\C,0,-3.
 6,-0.788,-11.238\C,0,-2.729,0.206,-10.509\N,0,-3.246,1.24,-9.749\C,0,-
 1.371,0.311,-10.43\C,0,-2.236,1.932,-9.241\N,0,-1.075,1.355,-9.665\H,0
 ,-3.36962098,-0.76530082,-12.28265796\H,0,-4.62922121,-0.53324069,-11.
 09412019\H,0,-4.217,1.434,-9.607\H,0,-0.652,-0.35,-10.914\H,0,-2.319,2
 .808,-8.598\C,0,6.076,3.225,-9.411\C,0,4.581,3.425,-9.474\N,0,3.98,4.6
 57,-9.283\C,0,3.572,2.537,-9.707\C,0,2.669,4.506,-9.399\N,0,2.418,3.19
 1,-9.661\H,0,6.56926546,4.12080861,-9.72582713\H,0,6.35543547,2.418385
 14,-10.05612656\H,0,4.455,5.516,-9.092\H,0,3.694,1.471,-9.899\H,0,1.92
 2,5.293,-9.302\C,0,1.35,1.126,-6.935\C,0,2.119,-0.205,-11.461\C,0,-0.3
 01,3.664,-12.955\C,0,-1.068,4.994,-8.43\C,0,1.758,0.438,-7.992\C,0,2.5
 29,-0.801,-7.965\C,0,2.735,-1.172,-9.24\C,0,2.11,-0.184,-10.07\C,0,3.5
 3,-2.391,-9.683\C,0,3.544,-1.268,-6.862\C,0,3.822,-2.76,-6.564\C,0,5.1
 85,-2.999,-5.927\O,0,5.501,-4.168,-5.594\O,0,5.963,-2.025,-5.765\C,0,1
 .528,0.752,-12.258\C,0,1.536,0.692,-13.71\C,0,0.861,1.772,-14.135\C,0,
 0.405,2.506,-12.954\C,0,2.188,-0.348,-14.606\C,0,0.613,2.151,-15.575\C
 ,0,0.703,1.513,-16.613001\C,0,-0.725,4.359,-11.874\C,0,-1.477,5.591,-1
 1.926\C,0,-1.717,5.961,-10.613\C,0,-1.078,4.98,-9.79\C,0,-1.969,6.344,
 -13.118\C,0,-2.48,7.179,-10.206\C,0,-3.342,7.66,-10.693\C,0,-0.481,4.0
 56,-7.612\C,0,-0.484,4.089,-6.136\C,0,0.189,3.015,-5.757\C,0,0.62,2.29
 ,-6.928\C,0,-1.137,5.136,-5.286\C,0,0.354,2.302,-4.319\C,0,-0.747,1.23
 ,-4.127\C,0,-1.646,1.556,-2.934\O,0,-1.541,1.067,-1.811\O,0,-2.716,2.2
 ,-3.378\N,0,1.545,0.789,-9.295\N,0,0.85,1.854,-11.834\N,0,-0.496,4.004
 ,-10.575\N,0,0.207,2.936,-8.038\Fe,0,0.541,2.391,-9.941\H,0,2.525,-1.0
 99,-11.912\H,0,-0.617,4.074,-13.926\H,0,-1.559,5.82,-7.911\H,0,0.049,3
 .168,-15.538\H,0,-2.026,7.442,-9.076\H,0,1.603,0.738,-5.92\H,0,3.022,-
 3.268,-9.778\H,0,4.562,-2.502,-9.218\H,0,3.981,-2.194,-10.883\H,0,3.34
 2,-0.743,-5.904\H,0,4.585,-1.14,-7.227\H,0,3.785,-3.344,-7.508\H,0,3.0
 45,-3.16,-5.878\H,0,1.245,-1.304,-14.797\H,0,2.823,-0.996,-13.957\H,0,
 2.448,-0.115,-15.46\H,0,0.594,1.972,-17.607\H,0,0.828,0.422,-16.573999
 \H,0,-2.637,6.134,-13.53\H,0,-0.857,6.175,-13.872\H,0,-1.604,7.47,-12.
 887\H,0,-3.89,8.469,-10.19\H,0,-3.667,7.384,-11.707\H,0,-2.473,4.593,-
 5.406\H,0,-1.171,5.848,-5.538\H,0,-1.137,4.644,-4.195\H,0,0.322,2.993,
 -3.448\H,0,1.345,1.801,-4.295\H,0,-0.285,0.225,-4.001\H,0,-1.386,1.157
 ,-5.03\H,0,-3.41862492,-1.77012244,-10.85402267\H,0,6.36292696,2.99405
 001,-8.4063931\H,0,-0.67165607,0.90441773,-1.437626\H,0,6.91309869,-2.
 16065905,-5.78756341\\Version=ES64L-G16RevA.03\State=6-A\HF=-3626.8961
 259\S2=8.759035\S2-1=0.\S2A=8.750025\RMSD=7.382e-09\Dipole=0.9611473,1
 .4635523,-0.9461795\Quadrupole=10.2144448,-16.8348675,6.6204227,8.7868
 119,21.2104709,6.0284658\PG=C01 [X(C42H44Fe1N8O4)]\\@


 The earth never tires,
 The earth is rude, silent, incomprehensible at first,
 Nature is rude and incomprehensible at first,
 Be not discouraged, keep on,
 There are divine things well envelop'd,
 I swear to you there are divine things more beautiful than words can tell.
                                 -- Walt Whitman
 Job cpu time:       3 days  0 hours 24 minutes 13.5 seconds.
 Elapsed time:       0 days 18 hours  9 minutes 42.3 seconds.
 File lengths (MBytes):  RWF=   3611 Int=      0 D2E=      0 Chk=    302 Scr=      1
 Normal termination of Gaussian 16 at Wed Feb  8 13:38:55 2023.
