 Entering Gaussian System, Link 0=g16
 Input=/net/homes/chemie/zhartovska/work/BioModel/Konrad/351c/351c12/351c12.com
 Output=/net/homes/chemie/zhartovska/work/BioModel/Konrad/351c/351c12/351c12.log
 Initial command:
 /afs/math/software/gaussian/g16.A03/g16/l1.exe "/scratch/zhartovska_gaussian.m6DyUdU/Gau-27522.inp" -scrdir="/scratch/zhartovska_gaussian.m6DyUdU/"
 Entering Link 1 = /afs/math/software/gaussian/g16.A03/g16/l1.exe PID=     27523.
  
 Copyright (c) 1988,1990,1992,1993,1995,1998,2003,2009,2016,
            Gaussian, Inc.  All Rights Reserved.
  
 This is part of the Gaussian(R) 16 program.  It is based on
 the Gaussian(R) 09 system (copyright 2009, Gaussian, Inc.),
 the Gaussian(R) 03 system (copyright 2003, Gaussian, Inc.),
 the Gaussian(R) 98 system (copyright 1998, Gaussian, Inc.),
 the Gaussian(R) 94 system (copyright 1995, Gaussian, Inc.),
 the Gaussian 92(TM) system (copyright 1992, Gaussian, Inc.),
 the Gaussian 90(TM) system (copyright 1990, Gaussian, Inc.),
 the Gaussian 88(TM) system (copyright 1988, Gaussian, Inc.),
 the Gaussian 86(TM) system (copyright 1986, Carnegie Mellon
 University), and the Gaussian 82(TM) system (copyright 1983,
 Carnegie Mellon University). Gaussian is a federally registered
 trademark of Gaussian, Inc.
  
 This software contains proprietary and confidential information,
 including trade secrets, belonging to Gaussian, Inc.
  
 This software is provided under written license and may be
 used, copied, transmitted, or stored only in accord with that
 written license.
  
 The following legend is applicable only to US Government
 contracts under FAR:
  
                    RESTRICTED RIGHTS LEGEND
  
 Use, reproduction and disclosure by the US Government is
 subject to restrictions as set forth in subparagraphs (a)
 and (c) of the Commercial Computer Software - Restricted
 Rights clause in FAR 52.227-19.
  
 Gaussian, Inc.
 340 Quinnipiac St., Bldg. 40, Wallingford CT 06492
  
  
 ---------------------------------------------------------------
 Warning -- This program may not be used in any manner that
 competes with the business of Gaussian, Inc. or will provide
 assistance to any competitor of Gaussian, Inc.  The licensee
 of this program is prohibited from giving any competitor of
 Gaussian, Inc. access to this program.  By using this program,
 the user acknowledges that Gaussian, Inc. is engaged in the
 business of creating and licensing software in the field of
 computational chemistry and represents and warrants to the
 licensee that it is not a competitor of Gaussian, Inc. and that
 it will not use this program in any manner prohibited above.
 ---------------------------------------------------------------
  

 Cite this work as:
 Gaussian 16, Revision A.03,
 M. J. Frisch, G. W. Trucks, H. B. Schlegel, G. E. Scuseria, 
 M. A. Robb, J. R. Cheeseman, G. Scalmani, V. Barone, 
 G. A. Petersson, H. Nakatsuji, X. Li, M. Caricato, A. V. Marenich, 
 J. Bloino, B. G. Janesko, R. Gomperts, B. Mennucci, H. P. Hratchian, 
 J. V. Ortiz, A. F. Izmaylov, J. L. Sonnenberg, D. Williams-Young, 
 F. Ding, F. Lipparini, F. Egidi, J. Goings, B. Peng, A. Petrone, 
 T. Henderson, D. Ranasinghe, V. G. Zakrzewski, J. Gao, N. Rega, 
 G. Zheng, W. Liang, M. Hada, M. Ehara, K. Toyota, R. Fukuda, 
 J. Hasegawa, M. Ishida, T. Nakajima, Y. Honda, O. Kitao, H. Nakai, 
 T. Vreven, K. Throssell, J. A. Montgomery, Jr., J. E. Peralta, 
 F. Ogliaro, M. J. Bearpark, J. J. Heyd, E. N. Brothers, K. N. Kudin, 
 V. N. Staroverov, T. A. Keith, R. Kobayashi, J. Normand, 
 K. Raghavachari, A. P. Rendell, J. C. Burant, S. S. Iyengar, 
 J. Tomasi, M. Cossi, J. M. Millam, M. Klene, C. Adamo, R. Cammi, 
 J. W. Ochterski, R. L. Martin, K. Morokuma, O. Farkas, 
 J. B. Foresman, and D. J. Fox, Gaussian, Inc., Wallingford CT, 2016.
 
 ******************************************
 Gaussian 16:  ES64L-G16RevA.03 25-Dec-2016
                 7-Feb-2023 
 ******************************************
 %nprocs=12
 Will use up to   12 processors via shared memory.
 %mem=16GB
 %oldchk=351c_II_S.chk
 %chk=351c_III_D.chk
 Copying data from "351c_II_S.chk" to current chk file "351c_III_D.chk"
 IOpt=  2 FromEx=T IUOpen= 4 IOptOp= 5 NList=   0 IFRang= 0 IUIn= 4 IUOut= 2.
 ----------------------------------------------------------------------
 # PBE1PBE/def2TZVP empiricaldispersion=GD3BJ scf=maxcycle=999 geom=che
 ck pop=nbo
 ----------------------------------------------------------------------
 1/29=2,38=1,172=1/1;
 2/12=2,40=1/2;
 3/5=44,7=101,11=2,14=-4,25=1,30=1,74=-13,124=41/1,2,3;
 4//1;
 5/5=2,7=999,38=5/2;
 6/7=2,8=2,9=2,10=2,28=1,40=1/1,7;
 99/5=1,9=1/99;
 ----------
 351c_III_D
 ----------
 Structure from the checkpoint file:  "351c_III_D.chk"
 Charge =  1 Multiplicity = 2
 Z-Matrix found in chk file.
 C,0,10.506,-8.059,15.816
 C,0,10.646,-9.475,16.347
 N,0,11.609,-10.329,15.917
 C,0,9.806,-10.17,17.202999
 C,0,11.386,-11.535,16.502001
 N,0,10.281,-11.443,17.297001
 C,0,9.901,-15.818,21.115999
 C,0,8.608,-15.006,20.93
 S,0,8.151,-14.706,19.209
 C,0,8.392,-16.289,18.379999
 C,0,11.705,-15.247,17.135
 C,0,7.609,-13.457,15.336
 C,0,6.886,-11.003,19.43
 C,0,11.262,-12.316,20.955
 C,0,10.647,-14.993,16.285
 C,0,10.462,-15.551,15.035
 C,0,9.322,-14.979,14.496
 C,0,8.792,-14.154,15.459
 C,0,8.722,-15.221,13.128
 C,0,11.327,-16.6,14.394
 C,0,10.913,-17.951,14.931
 C,0,11.757,-19.049,14.31
 O,0,12.606,-18.742001,13.48
 O,0,11.154,-20.173,14.12
 C,0,7.06,-12.605,16.271999
 C,0,5.813,-11.987,16.164
 C,0,5.554,-11.363,17.382
 C,0,6.7,-11.518,18.162001
 C,0,4.877,-12.076,14.978
 C,0,4.282,-10.647,17.806999
 C,0,3.058,-11.55,17.913
 C,0,8.014,-11.167,20.215
 C,0,8.233,-10.548,21.438999
 C,0,9.538,-10.804,21.785999
 C,0,10.029,-11.717,20.882999
 C,0,7.296,-9.624,22.177999
 C,0,10.314,-10.142,22.9
 C,0,9.856,-10.481,24.302999
 C,0,11.751,-13.246,20.066
 C,0,12.957,-13.92,20.209999
 C,0,13.035,-14.83,19.16
 C,0,11.925,-14.622,18.348
 C,0,13.973,-13.709,21.320999
 C,0,14.131,-15.841,18.905001
 C,0,13.737,-17.233999,19.374001
 C,0,14.831,-18.243999,19.018999
 O,0,14.501,-19.413,18.804001
 O,0,16.113001,-17.959,19.183001
 N,0,9.628,-14.14,16.524
 N,0,7.596,-12.302,17.486
 N,0,9.124,-11.881,19.898001
 N,0,11.12,-13.672,18.924999
 Fe,0,9.405,-12.974,18.219
 H,0,10.67399188,-15.17778236,21.48681556
 H,0,9.72766535,-16.60955442,21.81478129
 H,0,10.20082861,-16.23153754,20.17579184
 H,0,7.8069836,-15.53246791,21.40550422
 H,0,8.72936864,-14.06104649,21.41706521
 H,0,9.30548383,-16.73268771,18.71702794
 H,0,7.57385875,-16.93957557,18.60868288
 H,0,8.43967129,-16.13411822,17.32234164
 H,0,13.59624653,-17.22336679,20.43464958
 H,0,12.82249519,-17.52162495,18.89876184
 H,0,15.01448836,-15.53537176,19.42551969
 H,0,14.33817516,-15.87260544,17.85572527
 H,0,16.78450501,-18.55363723,18.84081841
 H,0,11.66446034,-20.97466485,13.98448726
 H,0,11.04245449,-17.96381213,15.9930628
 H,0,9.88282622,-18.12301905,14.69851036
 H,0,12.3536577,-16.4161576,14.6329057
 H,0,11.19410514,-16.57770676,13.33251897
 H,0,9.38262966,-15.8350694,12.55233758
 H,0,7.77853924,-15.71438786,13.23453737
 H,0,8.58058445,-14.28465555,12.62984268
 H,0,12.41297039,-15.98884884,16.82948695
 H,0,14.86125385,-13.27289381,20.9139161
 H,0,13.56148116,-13.05500914,22.06116668
 H,0,14.2113675,-14.65058659,21.76988163
 H,0,11.89595662,-12.0365548,21.77041976
 H,0,7.75946122,-8.6670133,22.29749861
 H,0,6.38967718,-9.51417747,21.61995065
 H,0,7.0745692,-10.03573327,23.14046672
 H,0,6.08570235,-10.42500433,19.84272835
 H,0,5.34296267,-12.64039425,14.19746306
 H,0,3.96988101,-12.55953047,15.2750411
 H,0,4.65642184,-11.09099662,14.62301603
 H,0,7.06308278,-13.58980275,14.42537504
 H,0,11.34305378,-7.82816596,15.19073477
 H,0,9.60319061,-7.97897834,15.24728941
 H,0,10.47312219,-7.37224917,16.63587337
 H,0,8.94264968,-9.77820921,17.69900928
 H,0,12.3504467,-10.10986987,15.28277703
 H,0,11.98023491,-12.41373768,16.36198328
 H,0,3.1810822,-12.60564889,18.03692009
 H,0,2.0759628,-11.12804095,17.86346724
 H,0,4.24852269,-9.59780029,18.01426513
 H,0,10.57743644,-10.66659345,25.07110351
 H,0,8.81094115,-10.53494366,24.5262524
 H,0,11.13183644,-9.47852988,22.71065649
 Recover connectivity data from disk.
 Stoichiometry    C41H46FeN6O4S(1+,2)
 Framework group  C1[X(C41H46FeN6O4S)]
 Deg. of freedom   291
 Full point group                 C1      NOp   1
 Largest Abelian subgroup         C1      NOp   1
 Largest concise Abelian subgroup C1      NOp   1
                         Standard orientation:                         
 ---------------------------------------------------------------------
 Center     Atomic      Atomic             Coordinates (Angstroms)
 Number     Number       Type             X           Y           Z
 ---------------------------------------------------------------------
      1          6           0        3.355220   -0.883368    5.019160
      2          6           0        2.335161   -0.535055    3.949218
      3          7           0        1.000325   -0.498289    4.190973
      4          6           0        2.531811   -0.337203    2.591447
      5          6           0        0.370357   -0.268666    3.009108
      6          7           0        1.306606   -0.164826    2.022108
      7          6           0       -0.793115    2.323822   -2.801540
      8          6           0        0.546469    1.589718   -2.981526
      9         16           0        0.598976   -0.064391   -2.259129
     10          6           0       -0.962090   -0.830809   -2.735455
     11          6           0       -2.472595   -0.020912    0.531683
     12          6           0        0.862364   -3.462374    0.029589
     13          6           0        4.221980   -0.087699   -0.764280
     14          6           0        1.010622    3.327315    0.341990
     15          6           0       -1.869601   -1.260294    0.449765
     16          6           0       -2.508043   -2.479553    0.567609
     17          6           0       -1.533808   -3.460682    0.493067
     18          6           0       -0.340683   -2.824911    0.245798
     19          6           0       -1.715440   -4.957978    0.615956
     20          6           0       -3.987309   -2.695827    0.724154
     21          6           0       -4.625826   -2.624295   -0.644109
     22          6           0       -6.124542   -2.840663   -0.541078
     23          8           0       -6.614281   -3.059233    0.561797
     24          8           0       -6.667193   -3.453518   -1.537584
     25          6           0        2.080293   -2.856022   -0.199285
     26          6           0        3.265483   -3.523949   -0.512008
     27          6           0        4.210682   -2.555865   -0.842753
     28          6           0        3.612086   -1.317416   -0.611085
     29          6           0        3.447881   -5.024800   -0.581209
     30          6           0        5.623900   -2.775317   -1.358427
     31          6           0        5.696660   -3.436339   -2.730498
     32          6           0        3.628597    1.144453   -0.551669
     33          6           0        4.286277    2.367009   -0.597596
     34          6           0        3.403427    3.311056   -0.130347
     35          6           0        2.182405    2.694756    0.008720
     36          6           0        5.739150    2.613031   -0.923939
     37          6           0        3.732675    4.737420    0.241809
     38          6           0        4.113903    5.639931   -0.912847
     39          6           0       -0.218464    2.719703    0.462390
     40          6           0       -1.412316    3.389717    0.697436
     41          6           0       -2.422829    2.433764    0.656202
     42          6           0       -1.813822    1.193622    0.495370
     43          6           0       -1.569387    4.884039    0.928578
     44          6           0       -3.910654    2.668551    0.796244
     45          6           0       -4.610684    2.688060   -0.554764
     46          6           0       -6.122585    2.837569   -0.368314
     47          8           0       -6.868833    2.340931   -1.215753
     48          8           0       -6.628734    3.681253    0.516931
     49          7           0       -0.551814   -1.487584    0.263036
     50          7           0        2.306338   -1.514656   -0.249746
     51          7           0        2.341695    1.370514   -0.184024
     52          7           0       -0.462163    1.375212    0.342083
     53         26           0        0.907417   -0.032164    0.076737
     54          1           0       -0.672038    3.119069   -2.095974
     55          1           0       -1.108556    2.725982   -3.741575
     56          1           0       -1.530643    1.637102   -2.441863
     57          1           0        0.748730    1.507578   -4.029020
     58          1           0        1.318001    2.179376   -2.532148
     59          1           0       -1.756316   -0.122866   -2.621776
     60          1           0       -0.908045   -1.145249   -3.756781
     61          1           0       -1.148276   -1.679118   -2.110470
     62          1           0       -4.242544    3.510405   -1.131930
     63          1           0       -4.406872    1.773745   -1.071861
     64          1           0       -4.070507    3.607033    1.284710
     65          1           0       -4.331395    1.887981    1.395067
     66          1           0       -7.569888    3.671279    0.705952
     67          1           0       -7.615568   -3.398666   -1.676059
     68          1           0       -4.436381   -1.662283   -1.072530
     69          1           0       -4.202053   -3.380239   -1.271696
     70          1           0       -4.398339   -1.934867    1.354148
     71          1           0       -4.167353   -3.657991    1.156271
     72          1           0       -2.725622   -5.172955    0.895628
     73          1           0       -1.499090   -5.421816   -0.323697
     74          1           0       -1.050035   -5.337870    1.362828
     75          1           0       -3.537700    0.001153    0.631510
     76          1           0       -1.874488    5.058495    1.939211
     77          1           0       -0.634766    5.372950    0.748717
     78          1           0       -2.309460    5.272439    0.260493
     79          1           0        1.056583    4.380834    0.523331
     80          1           0        6.219973    3.073047   -0.086029
     81          1           0        6.218179    1.681654   -1.142952
     82          1           0        5.809321    3.258812   -1.774200
     83          1           0        5.245734   -0.087617   -1.075452
     84          1           0        2.538260   -5.508350   -0.291952
     85          1           0        3.699606   -5.307734   -1.581950
     86          1           0        4.234729   -5.319391    0.081352
     87          1           0        0.850376   -4.532253    0.040335
     88          1           0        2.868092   -0.944786    5.969862
     89          1           0        3.806759   -1.825539    4.788234
     90          1           0        4.109465   -0.125175    5.053183
     91          1           0        3.473549   -0.322578    2.083690
     92          1           0        0.559044   -0.618699    5.080227
     93          1           0       -0.687687   -0.183201    2.874427
     94          1           0        4.854242   -3.396271   -3.389001
     95          1           0        6.590138   -3.940284   -3.034860
     96          1           0        6.494145   -2.489943   -0.805131
     97          1           0        3.742384    6.642540   -0.953478
     98          1           0        4.754795    5.275037   -1.688094
     99          1           0        3.698838    5.086459    1.252713
 ---------------------------------------------------------------------
 Rotational constants (GHZ):           0.0680583           0.0444275           0.0341813
 Standard basis: def2TZVP (5D, 7F)
 There are  2206 symmetry adapted cartesian basis functions of A   symmetry.
 There are  1939 symmetry adapted basis functions of A   symmetry.
  1939 basis functions,  3140 primitive gaussians,  2206 cartesian basis functions
   204 alpha electrons      203 beta electrons
       nuclear repulsion energy      8932.7382599591 Hartrees.
 NAtoms=   99 NActive=   99 NUniq=   99 SFac= 1.00D+00 NAtFMM=   60 NAOKFM=T Big=T
 Integral buffers will be    131072 words long.
 Raffenetti 2 integral format.
 Two-electron integral symmetry is turned on.
 Nuclear repulsion after empirical dispersion term =     8932.5881883859 Hartrees.
 One-electron integrals computed using PRISM.
   1 Symmetry operations used in ECPInt.
 ECPInt:  NShTT=  299151 NPrTT=  925475 LenC2=  220712 LenP2D=  442162.
 LDataN:  DoStor=T MaxTD1= 6 Len=  172
 NBasis=  1939 RedAO= T EigKep=  2.43D-06  NBF=  1939
 NBsUse=  1939 1.00D-06 EigRej= -1.00D+00 NBFU=  1939
 ExpMin= 4.20D-02 ExpMax= 3.01D+05 ExpMxC= 2.91D+03 IAcc=3 IRadAn=         5 AccDes= 0.00D+00
 Harris functional with IExCor= 1009 and IRadAn=       5 diagonalized for initial guess.
 HarFok:  IExCor= 1009 AccDes= 0.00D+00 IRadAn=         5 IDoV= 1 UseB2=F ITyADJ=14
 ICtDFT=  3500011 ScaDFX=  1.000000  1.000000  1.000000  1.000000
 FoFCou: FMM=F IPFlag=           0 FMFlag=      100000 FMFlg1=        2001
         NFxFlg=           0 DoJE=T BraDBF=F KetDBF=T FulRan=T
         wScrn=  0.000000 ICntrl=       500 IOpCl=  0 I1Cent=   200000004 NGrid=           0
         NMat0=    1 NMatS0=      1 NMatT0=    0 NMatD0=    1 NMtDS0=    0 NMtDT0=    0
 Petite list used in FoFCou.
 Initial guess <Sx>= 0.0000 <Sy>= 0.0000 <Sz>= 0.5000 <S**2>= 0.7500 S= 0.5000
 Requested convergence on RMS density matrix=1.00D-08 within 999 cycles.
 Requested convergence on MAX density matrix=1.00D-06.
 Requested convergence on             energy=1.00D-06.
 No special actions if energy rises.
 EnCoef did    18 forward-backward iterations
 EnCoef did   100 forward-backward iterations
 EnCoef did    11 forward-backward iterations
 Restarting incremental Fock formation.
 Restarting incremental Fock formation.
 Restarting incremental Fock formation.
 Restarting incremental Fock formation.
 SCF Done:  E(UPBE1PBE) =  -3879.17567103     A.U. after   87 cycles
            NFock= 87  Conv=0.17D-08     -V/T= 2.0031
 <Sx>= 0.0000 <Sy>= 0.0000 <Sz>= 0.5000 <S**2>= 0.8287 S= 0.5386
 <L.S>= 0.000000000000E+00
 Annihilation of the first spin contaminant:
 S**2 before annihilation     0.8287,   after     0.7515

 **********************************************************************

            Population analysis using the SCF density.

 **********************************************************************

 Orbital symmetries:
 Alpha Orbitals:
       Occupied  (A) (A) (A) (A) (A) (A) (A) (A) (A) (A) (A) (A)
                 (A) (A) (A) (A) (A) (A) (A) (A) (A) (A) (A) (A)
                 (A) (A) (A) (A) (A) (A) (A) (A) (A) (A) (A) (A)
                 (A) (A) (A) (A) (A) (A) (A) (A) (A) (A) (A) (A)
                 (A) (A) (A) (A) (A) (A) (A) (A) (A) (A) (A) (A)
                 (A) (A) (A) (A) (A) (A) (A) (A) (A) (A) (A) (A)
                 (A) (A) (A) (A) (A) (A) (A) (A) (A) (A) (A) (A)
                 (A) (A) (A) (A) (A) (A) (A) (A) (A) (A) (A) (A)
                 (A) (A) (A) (A) (A) (A) (A) (A) (A) (A) (A) (A)
                 (A) (A) (A) (A) (A) (A) (A) (A) (A) (A) (A) (A)
                 (A) (A) (A) (A) (A) (A) (A) (A) (A) (A) (A) (A)
                 (A) (A) (A) (A) (A) (A) (A) (A) (A) (A) (A) (A)
                 (A) (A) (A) (A) (A) (A) (A) (A) (A) (A) (A) (A)
                 (A) (A) (A) (A) (A) (A) (A) (A) (A) (A) (A) (A)
                 (A) (A) (A) (A) (A) (A) (A) (A) (A) (A) (A) (A)
                 (A) (A) (A) (A) (A) (A) (A) (A) (A) (A) (A) (A)
                 (A) (A) (A) (A) (A) (A) (A) (A) (A) (A) (A) (A)
       Virtual   (A) (A) (A) (A) (A) (A) (A) (A) (A) (A) (A) (A)
                 (A) (A) (A) (A) (A) (A) (A) (A) (A) (A) (A) (A)
                 (A) (A) (A) (A) (A) (A) (A) (A) (A) (A) (A) (A)
                 (A) (A) (A) (A) (A) (A) (A) (A) (A) (A) (A) (A)
                 (A) (A) (A) (A) (A) (A) (A) (A) (A) (A) (A) (A)
                 (A) (A) (A) (A) (A) (A) (A) (A) (A) (A) (A) (A)
                 (A) (A) (A) (A) (A) (A) (A) (A) (A) (A) (A) (A)
                 (A) (A) (A) (A) (A) (A) (A) (A) (A) (A) (A) (A)
                 (A) (A) (A) (A) (A) (A) (A) (A) (A) (A) (A) (A)
                 (A) (A) (A) (A) (A) (A) (A) (A) (A) (A) (A) (A)
                 (A) (A) (A) (A) (A) (A) (A) (A) (A) (A) (A) (A)
                 (A) (A) (A) (A) (A) (A) (A) (A) (A) (A) (A) (A)
                 (A) (A) (A) (A) (A) (A) (A) (A) (A) (A) (A) (A)
                 (A) (A) (A) (A) (A) (A) (A) (A) (A) (A) (A) (A)
                 (A) (A) (A) (A) (A) (A) (A) (A) (A) (A) (A) (A)
                 (A) (A) (A) (A) (A) (A) (A) (A) (A) (A) (A) (A)
                 (A) (A) (A) (A) (A) (A) (A) (A) (A) (A) (A) (A)
                 (A) (A) (A) (A) (A) (A) (A) (A) (A) (A) (A) (A)
                 (A) (A) (A) (A) (A) (A) (A) (A) (A) (A) (A) (A)
                 (A) (A) (A) (A) (A) (A) (A) (A) (A) (A) (A) (A)
                 (A) (A) (A) (A) (A) (A) (A) (A) (A) (A) (A) (A)
                 (A) (A) (A) (A) (A) (A) (A) (A) (A) (A) (A) (A)
                 (A) (A) (A) (A) (A) (A) (A) (A) (A) (A) (A) (A)
                 (A) (A) (A) (A) (A) (A) (A) (A) (A) (A) (A) (A)
                 (A) (A) (A) (A) (A) (A) (A) (A) (A) (A) (A) (A)
                 (A) (A) (A) (A) (A) (A) (A) (A) (A) (A) (A) (A)
                 (A) (A) (A) (A) (A) (A) (A) (A) (A) (A) (A) (A)
                 (A) (A) (A) (A) (A) (A) (A) (A) (A) (A) (A) (A)
                 (A) (A) (A) (A) (A) (A) (A) (A) (A) (A) (A) (A)
                 (A) (A) (A) (A) (A) (A) (A) (A) (A) (A) (A) (A)
                 (A) (A) (A) (A) (A) (A) (A) (A) (A) (A) (A) (A)
                 (A) (A) (A) (A) (A) (A) (A) (A) (A) (A) (A) (A)
                 (A) (A) (A) (A) (A) (A) (A) (A) (A) (A) (A) (A)
                 (A) (A) (A) (A) (A) (A) (A) (A) (A) (A) (A) (A)
                 (A) (A) (A) (A) (A) (A) (A) (A) (A) (A) (A) (A)
                 (A) (A) (A) (A) (A) (A) (A) (A) (A) (A) (A) (A)
                 (A) (A) (A) (A) (A) (A) (A) (A) (A) (A) (A) (A)
                 (A) (A) (A) (A) (A) (A) (A) (A) (A) (A) (A) (A)
                 (A) (A) (A) (A) (A) (A) (A) (A) (A) (A) (A) (A)
                 (A) (A) (A) (A) (A) (A) (A) (A) (A) (A) (A) (A)
                 (A) (A) (A) (A) (A) (A) (A) (A) (A) (A) (A) (A)
                 (A) (A) (A) (A) (A) (A) (A) (A) (A) (A) (A) (A)
                 (A) (A) (A) (A) (A) (A) (A) (A) (A) (A) (A) (A)
                 (A) (A) (A) (A) (A) (A) (A) (A) (A) (A) (A) (A)
                 (A) (A) (A) (A) (A) (A) (A) (A) (A) (A) (A) (A)
                 (A) (A) (A) (A) (A) (A) (A) (A) (A) (A) (A) (A)
                 (A) (A) (A) (A) (A) (A) (A) (A) (A) (A) (A) (A)
                 (A) (A) (A) (A) (A) (A) (A) (A) (A) (A) (A) (A)
                 (A) (A) (A) (A) (A) (A) (A) (A) (A) (A) (A) (A)
                 (A) (A) (A) (A) (A) (A) (A) (A) (A) (A) (A) (A)
                 (A) (A) (A) (A) (A) (A) (A) (A) (A) (A) (A) (A)
                 (A) (A) (A) (A) (A) (A) (A) (A) (A) (A) (A) (A)
                 (A) (A) (A) (A) (A) (A) (A) (A) (A) (A) (A) (A)
                 (A) (A) (A) (A) (A) (A) (A) (A) (A) (A) (A) (A)
                 (A) (A) (A) (A) (A) (A) (A) (A) (A) (A) (A) (A)
                 (A) (A) (A) (A) (A) (A) (A) (A) (A) (A) (A) (A)
                 (A) (A) (A) (A) (A) (A) (A) (A) (A) (A) (A) (A)
                 (A) (A) (A) (A) (A) (A) (A) (A) (A) (A) (A) (A)
                 (A) (A) (A) (A) (A) (A) (A) (A) (A) (A) (A) (A)
                 (A) (A) (A) (A) (A) (A) (A) (A) (A) (A) (A) (A)
                 (A) (A) (A) (A) (A) (A) (A) (A) (A) (A) (A) (A)
                 (A) (A) (A) (A) (A) (A) (A) (A) (A) (A) (A) (A)
                 (A) (A) (A) (A) (A) (A) (A) (A) (A) (A) (A) (A)
                 (A) (A) (A) (A) (A) (A) (A) (A) (A) (A) (A) (A)
                 (A) (A) (A) (A) (A) (A) (A) (A) (A) (A) (A) (A)
                 (A) (A) (A) (A) (A) (A) (A) (A) (A) (A) (A) (A)
                 (A) (A) (A) (A) (A) (A) (A) (A) (A) (A) (A) (A)
                 (A) (A) (A) (A) (A) (A) (A) (A) (A) (A) (A) (A)
                 (A) (A) (A) (A) (A) (A) (A) (A) (A) (A) (A) (A)
                 (A) (A) (A) (A) (A) (A) (A) (A) (A) (A) (A) (A)
                 (A) (A) (A) (A) (A) (A) (A) (A) (A) (A) (A) (A)
                 (A) (A) (A) (A) (A) (A) (A) (A) (A) (A) (A) (A)
                 (A) (A) (A) (A) (A) (A) (A) (A) (A) (A) (A) (A)
                 (A) (A) (A) (A) (A) (A) (A) (A) (A) (A) (A) (A)
                 (A) (A) (A) (A) (A) (A) (A) (A) (A) (A) (A) (A)
                 (A) (A) (A) (A) (A) (A) (A) (A) (A) (A) (A) (A)
                 (A) (A) (A) (A) (A) (A) (A) (A) (A) (A) (A) (A)
                 (A) (A) (A) (A) (A) (A) (A) (A) (A) (A) (A) (A)
                 (A) (A) (A) (A) (A) (A) (A) (A) (A) (A) (A) (A)
                 (A) (A) (A) (A) (A) (A) (A) (A) (A) (A) (A) (A)
                 (A) (A) (A) (A) (A) (A) (A) (A) (A) (A) (A) (A)
                 (A) (A) (A) (A) (A) (A) (A) (A) (A) (A) (A) (A)
                 (A) (A) (A) (A) (A) (A) (A) (A) (A) (A) (A) (A)
                 (A) (A) (A) (A) (A) (A) (A) (A) (A) (A) (A) (A)
                 (A) (A) (A) (A) (A) (A) (A) (A) (A) (A) (A) (A)
                 (A) (A) (A) (A) (A) (A) (A) (A) (A) (A) (A) (A)
                 (A) (A) (A) (A) (A) (A) (A) (A) (A) (A) (A) (A)
                 (A) (A) (A) (A) (A) (A) (A) (A) (A) (A) (A) (A)
                 (A) (A) (A) (A) (A) (A) (A) (A) (A) (A) (A) (A)
                 (A) (A) (A) (A) (A) (A) (A) (A) (A) (A) (A) (A)
                 (A) (A) (A) (A) (A) (A) (A) (A) (A) (A) (A) (A)
                 (A) (A) (A) (A) (A) (A) (A) (A) (A) (A) (A) (A)
                 (A) (A) (A) (A) (A) (A) (A) (A) (A) (A) (A) (A)
                 (A) (A) (A) (A) (A) (A) (A) (A) (A) (A) (A) (A)
                 (A) (A) (A) (A) (A) (A) (A) (A) (A) (A) (A) (A)
                 (A) (A) (A) (A) (A) (A) (A) (A) (A) (A) (A) (A)
                 (A) (A) (A) (A) (A) (A) (A) (A) (A) (A) (A) (A)
                 (A) (A) (A) (A) (A) (A) (A) (A) (A) (A) (A) (A)
                 (A) (A) (A) (A) (A) (A) (A) (A) (A) (A) (A) (A)
                 (A) (A) (A) (A) (A) (A) (A) (A) (A) (A) (A) (A)
                 (A) (A) (A) (A) (A) (A) (A) (A) (A) (A) (A) (A)
                 (A) (A) (A) (A) (A) (A) (A) (A) (A) (A) (A) (A)
                 (A) (A) (A) (A) (A) (A) (A) (A) (A) (A) (A) (A)
                 (A) (A) (A) (A) (A) (A) (A) (A) (A) (A) (A) (A)
                 (A) (A) (A) (A) (A) (A) (A) (A) (A) (A) (A) (A)
                 (A) (A) (A) (A) (A) (A) (A) (A) (A) (A) (A) (A)
                 (A) (A) (A) (A) (A) (A) (A) (A) (A) (A) (A) (A)
                 (A) (A) (A) (A) (A) (A) (A) (A) (A) (A) (A) (A)
                 (A) (A) (A) (A) (A) (A) (A) (A) (A) (A) (A) (A)
                 (A) (A) (A) (A) (A) (A) (A) (A) (A) (A) (A) (A)
                 (A) (A) (A) (A) (A) (A) (A) (A) (A) (A) (A) (A)
                 (A) (A) (A) (A) (A) (A) (A) (A) (A) (A) (A) (A)
                 (A) (A) (A) (A) (A) (A) (A) (A) (A) (A) (A) (A)
                 (A) (A) (A) (A) (A) (A) (A) (A) (A) (A) (A) (A)
                 (A) (A) (A) (A) (A) (A) (A) (A) (A) (A) (A) (A)
                 (A) (A) (A) (A) (A) (A) (A) (A) (A) (A) (A) (A)
                 (A) (A) (A) (A) (A) (A) (A) (A) (A) (A) (A) (A)
                 (A) (A) (A) (A) (A) (A) (A) (A) (A) (A) (A) (A)
                 (A) (A) (A) (A) (A) (A) (A) (A) (A) (A) (A) (A)
                 (A) (A) (A) (A) (A) (A) (A) (A) (A) (A) (A) (A)
                 (A) (A) (A) (A) (A) (A) (A) (A) (A) (A) (A) (A)
                 (A) (A) (A) (A) (A) (A) (A) (A) (A) (A) (A) (A)
                 (A) (A) (A) (A) (A) (A) (A) (A) (A) (A) (A) (A)
                 (A) (A) (A) (A) (A) (A) (A) (A) (A) (A) (A) (A)
                 (A) (A) (A) (A) (A) (A) (A) (A) (A) (A) (A) (A)
                 (A) (A) (A) (A) (A) (A) (A) (A) (A) (A) (A) (A)
                 (A) (A) (A) (A) (A) (A) (A) (A) (A) (A) (A) (A)
                 (A) (A) (A) (A) (A) (A) (A) (A) (A) (A) (A) (A)
                 (A) (A) (A) (A) (A) (A) (A) (A) (A) (A) (A) (A)
                 (A) (A) (A) (A) (A) (A) (A) (A) (A) (A) (A) (A)
                 (A) (A) (A) (A) (A) (A) (A) (A) (A) (A) (A) (A)
                 (A) (A) (A) (A) (A) (A) (A) (A) (A) (A) (A) (A)
                 (A) (A) (A) (A) (A) (A) (A) (A) (A) (A) (A) (A)
                 (A) (A) (A) (A) (A) (A) (A) (A) (A) (A) (A) (A)
                 (A) (A) (A) (A) (A) (A) (A) (A) (A) (A) (A) (A)
                 (A) (A) (A) (A) (A) (A) (A) (A) (A) (A) (A) (A)
                 (A) (A) (A) (A) (A) (A) (A) (A) (A) (A) (A) (A)
                 (A) (A) (A) (A) (A) (A) (A) (A) (A) (A) (A) (A)
                 (A) (A) (A) (A) (A) (A) (A) (A) (A) (A) (A) (A)
                 (A) (A) (A) (A) (A) (A) (A) (A) (A) (A) (A) (A)
                 (A) (A) (A) (A) (A) (A) (A) (A) (A) (A) (A) (A)
                 (A) (A) (A) (A) (A) (A) (A) (A) (A) (A) (A) (A)
                 (A) (A) (A) (A) (A) (A) (A) (A) (A) (A) (A) (A)
                 (A) (A) (A) (A) (A) (A) (A) (A) (A) (A) (A) (A)
                 (A) (A) (A) (A) (A) (A) (A)
 Beta  Orbitals:
       Occupied  (A) (A) (A) (A) (A) (A) (A) (A) (A) (A) (A) (A)
                 (A) (A) (A) (A) (A) (A) (A) (A) (A) (A) (A) (A)
                 (A) (A) (A) (A) (A) (A) (A) (A) (A) (A) (A) (A)
                 (A) (A) (A) (A) (A) (A) (A) (A) (A) (A) (A) (A)
                 (A) (A) (A) (A) (A) (A) (A) (A) (A) (A) (A) (A)
                 (A) (A) (A) (A) (A) (A) (A) (A) (A) (A) (A) (A)
                 (A) (A) (A) (A) (A) (A) (A) (A) (A) (A) (A) (A)
                 (A) (A) (A) (A) (A) (A) (A) (A) (A) (A) (A) (A)
                 (A) (A) (A) (A) (A) (A) (A) (A) (A) (A) (A) (A)
                 (A) (A) (A) (A) (A) (A) (A) (A) (A) (A) (A) (A)
                 (A) (A) (A) (A) (A) (A) (A) (A) (A) (A) (A) (A)
                 (A) (A) (A) (A) (A) (A) (A) (A) (A) (A) (A) (A)
                 (A) (A) (A) (A) (A) (A) (A) (A) (A) (A) (A) (A)
                 (A) (A) (A) (A) (A) (A) (A) (A) (A) (A) (A) (A)
                 (A) (A) (A) (A) (A) (A) (A) (A) (A) (A) (A) (A)
                 (A) (A) (A) (A) (A) (A) (A) (A) (A) (A) (A) (A)
                 (A) (A) (A) (A) (A) (A) (A) (A) (A) (A) (A)
       Virtual   (A) (A) (A) (A) (A) (A) (A) (A) (A) (A) (A) (A)
                 (A) (A) (A) (A) (A) (A) (A) (A) (A) (A) (A) (A)
                 (A) (A) (A) (A) (A) (A) (A) (A) (A) (A) (A) (A)
                 (A) (A) (A) (A) (A) (A) (A) (A) (A) (A) (A) (A)
                 (A) (A) (A) (A) (A) (A) (A) (A) (A) (A) (A) (A)
                 (A) (A) (A) (A) (A) (A) (A) (A) (A) (A) (A) (A)
                 (A) (A) (A) (A) (A) (A) (A) (A) (A) (A) (A) (A)
                 (A) (A) (A) (A) (A) (A) (A) (A) (A) (A) (A) (A)
                 (A) (A) (A) (A) (A) (A) (A) (A) (A) (A) (A) (A)
                 (A) (A) (A) (A) (A) (A) (A) (A) (A) (A) (A) (A)
                 (A) (A) (A) (A) (A) (A) (A) (A) (A) (A) (A) (A)
                 (A) (A) (A) (A) (A) (A) (A) (A) (A) (A) (A) (A)
                 (A) (A) (A) (A) (A) (A) (A) (A) (A) (A) (A) (A)
                 (A) (A) (A) (A) (A) (A) (A) (A) (A) (A) (A) (A)
                 (A) (A) (A) (A) (A) (A) (A) (A) (A) (A) (A) (A)
                 (A) (A) (A) (A) (A) (A) (A) (A) (A) (A) (A) (A)
                 (A) (A) (A) (A) (A) (A) (A) (A) (A) (A) (A) (A)
                 (A) (A) (A) (A) (A) (A) (A) (A) (A) (A) (A) (A)
                 (A) (A) (A) (A) (A) (A) (A) (A) (A) (A) (A) (A)
                 (A) (A) (A) (A) (A) (A) (A) (A) (A) (A) (A) (A)
                 (A) (A) (A) (A) (A) (A) (A) (A) (A) (A) (A) (A)
                 (A) (A) (A) (A) (A) (A) (A) (A) (A) (A) (A) (A)
                 (A) (A) (A) (A) (A) (A) (A) (A) (A) (A) (A) (A)
                 (A) (A) (A) (A) (A) (A) (A) (A) (A) (A) (A) (A)
                 (A) (A) (A) (A) (A) (A) (A) (A) (A) (A) (A) (A)
                 (A) (A) (A) (A) (A) (A) (A) (A) (A) (A) (A) (A)
                 (A) (A) (A) (A) (A) (A) (A) (A) (A) (A) (A) (A)
                 (A) (A) (A) (A) (A) (A) (A) (A) (A) (A) (A) (A)
                 (A) (A) (A) (A) (A) (A) (A) (A) (A) (A) (A) (A)
                 (A) (A) (A) (A) (A) (A) (A) (A) (A) (A) (A) (A)
                 (A) (A) (A) (A) (A) (A) (A) (A) (A) (A) (A) (A)
                 (A) (A) (A) (A) (A) (A) (A) (A) (A) (A) (A) (A)
                 (A) (A) (A) (A) (A) (A) (A) (A) (A) (A) (A) (A)
                 (A) (A) (A) (A) (A) (A) (A) (A) (A) (A) (A) (A)
                 (A) (A) (A) (A) (A) (A) (A) (A) (A) (A) (A) (A)
                 (A) (A) (A) (A) (A) (A) (A) (A) (A) (A) (A) (A)
                 (A) (A) (A) (A) (A) (A) (A) (A) (A) (A) (A) (A)
                 (A) (A) (A) (A) (A) (A) (A) (A) (A) (A) (A) (A)
                 (A) (A) (A) (A) (A) (A) (A) (A) (A) (A) (A) (A)
                 (A) (A) (A) (A) (A) (A) (A) (A) (A) (A) (A) (A)
                 (A) (A) (A) (A) (A) (A) (A) (A) (A) (A) (A) (A)
                 (A) (A) (A) (A) (A) (A) (A) (A) (A) (A) (A) (A)
                 (A) (A) (A) (A) (A) (A) (A) (A) (A) (A) (A) (A)
                 (A) (A) (A) (A) (A) (A) (A) (A) (A) (A) (A) (A)
                 (A) (A) (A) (A) (A) (A) (A) (A) (A) (A) (A) (A)
                 (A) (A) (A) (A) (A) (A) (A) (A) (A) (A) (A) (A)
                 (A) (A) (A) (A) (A) (A) (A) (A) (A) (A) (A) (A)
                 (A) (A) (A) (A) (A) (A) (A) (A) (A) (A) (A) (A)
                 (A) (A) (A) (A) (A) (A) (A) (A) (A) (A) (A) (A)
                 (A) (A) (A) (A) (A) (A) (A) (A) (A) (A) (A) (A)
                 (A) (A) (A) (A) (A) (A) (A) (A) (A) (A) (A) (A)
                 (A) (A) (A) (A) (A) (A) (A) (A) (A) (A) (A) (A)
                 (A) (A) (A) (A) (A) (A) (A) (A) (A) (A) (A) (A)
                 (A) (A) (A) (A) (A) (A) (A) (A) (A) (A) (A) (A)
                 (A) (A) (A) (A) (A) (A) (A) (A) (A) (A) (A) (A)
                 (A) (A) (A) (A) (A) (A) (A) (A) (A) (A) (A) (A)
                 (A) (A) (A) (A) (A) (A) (A) (A) (A) (A) (A) (A)
                 (A) (A) (A) (A) (A) (A) (A) (A) (A) (A) (A) (A)
                 (A) (A) (A) (A) (A) (A) (A) (A) (A) (A) (A) (A)
                 (A) (A) (A) (A) (A) (A) (A) (A) (A) (A) (A) (A)
                 (A) (A) (A) (A) (A) (A) (A) (A) (A) (A) (A) (A)
                 (A) (A) (A) (A) (A) (A) (A) (A) (A) (A) (A) (A)
                 (A) (A) (A) (A) (A) (A) (A) (A) (A) (A) (A) (A)
                 (A) (A) (A) (A) (A) (A) (A) (A) (A) (A) (A) (A)
                 (A) (A) (A) (A) (A) (A) (A) (A) (A) (A) (A) (A)
                 (A) (A) (A) (A) (A) (A) (A) (A) (A) (A) (A) (A)
                 (A) (A) (A) (A) (A) (A) (A) (A) (A) (A) (A) (A)
                 (A) (A) (A) (A) (A) (A) (A) (A) (A) (A) (A) (A)
                 (A) (A) (A) (A) (A) (A) (A) (A) (A) (A) (A) (A)
                 (A) (A) (A) (A) (A) (A) (A) (A) (A) (A) (A) (A)
                 (A) (A) (A) (A) (A) (A) (A) (A) (A) (A) (A) (A)
                 (A) (A) (A) (A) (A) (A) (A) (A) (A) (A) (A) (A)
                 (A) (A) (A) (A) (A) (A) (A) (A) (A) (A) (A) (A)
                 (A) (A) (A) (A) (A) (A) (A) (A) (A) (A) (A) (A)
                 (A) (A) (A) (A) (A) (A) (A) (A) (A) (A) (A) (A)
                 (A) (A) (A) (A) (A) (A) (A) (A) (A) (A) (A) (A)
                 (A) (A) (A) (A) (A) (A) (A) (A) (A) (A) (A) (A)
                 (A) (A) (A) (A) (A) (A) (A) (A) (A) (A) (A) (A)
                 (A) (A) (A) (A) (A) (A) (A) (A) (A) (A) (A) (A)
                 (A) (A) (A) (A) (A) (A) (A) (A) (A) (A) (A) (A)
                 (A) (A) (A) (A) (A) (A) (A) (A) (A) (A) (A) (A)
                 (A) (A) (A) (A) (A) (A) (A) (A) (A) (A) (A) (A)
                 (A) (A) (A) (A) (A) (A) (A) (A) (A) (A) (A) (A)
                 (A) (A) (A) (A) (A) (A) (A) (A) (A) (A) (A) (A)
                 (A) (A) (A) (A) (A) (A) (A) (A) (A) (A) (A) (A)
                 (A) (A) (A) (A) (A) (A) (A) (A) (A) (A) (A) (A)
                 (A) (A) (A) (A) (A) (A) (A) (A) (A) (A) (A) (A)
                 (A) (A) (A) (A) (A) (A) (A) (A) (A) (A) (A) (A)
                 (A) (A) (A) (A) (A) (A) (A) (A) (A) (A) (A) (A)
                 (A) (A) (A) (A) (A) (A) (A) (A) (A) (A) (A) (A)
                 (A) (A) (A) (A) (A) (A) (A) (A) (A) (A) (A) (A)
                 (A) (A) (A) (A) (A) (A) (A) (A) (A) (A) (A) (A)
                 (A) (A) (A) (A) (A) (A) (A) (A) (A) (A) (A) (A)
                 (A) (A) (A) (A) (A) (A) (A) (A) (A) (A) (A) (A)
                 (A) (A) (A) (A) (A) (A) (A) (A) (A) (A) (A) (A)
                 (A) (A) (A) (A) (A) (A) (A) (A) (A) (A) (A) (A)
                 (A) (A) (A) (A) (A) (A) (A) (A) (A) (A) (A) (A)
                 (A) (A) (A) (A) (A) (A) (A) (A) (A) (A) (A) (A)
                 (A) (A) (A) (A) (A) (A) (A) (A) (A) (A) (A) (A)
                 (A) (A) (A) (A) (A) (A) (A) (A) (A) (A) (A) (A)
                 (A) (A) (A) (A) (A) (A) (A) (A) (A) (A) (A) (A)
                 (A) (A) (A) (A) (A) (A) (A) (A) (A) (A) (A) (A)
                 (A) (A) (A) (A) (A) (A) (A) (A) (A) (A) (A) (A)
                 (A) (A) (A) (A) (A) (A) (A) (A) (A) (A) (A) (A)
                 (A) (A) (A) (A) (A) (A) (A) (A) (A) (A) (A) (A)
                 (A) (A) (A) (A) (A) (A) (A) (A) (A) (A) (A) (A)
                 (A) (A) (A) (A) (A) (A) (A) (A) (A) (A) (A) (A)
                 (A) (A) (A) (A) (A) (A) (A) (A) (A) (A) (A) (A)
                 (A) (A) (A) (A) (A) (A) (A) (A) (A) (A) (A) (A)
                 (A) (A) (A) (A) (A) (A) (A) (A) (A) (A) (A) (A)
                 (A) (A) (A) (A) (A) (A) (A) (A) (A) (A) (A) (A)
                 (A) (A) (A) (A) (A) (A) (A) (A) (A) (A) (A) (A)
                 (A) (A) (A) (A) (A) (A) (A) (A) (A) (A) (A) (A)
                 (A) (A) (A) (A) (A) (A) (A) (A) (A) (A) (A) (A)
                 (A) (A) (A) (A) (A) (A) (A) (A) (A) (A) (A) (A)
                 (A) (A) (A) (A) (A) (A) (A) (A) (A) (A) (A) (A)
                 (A) (A) (A) (A) (A) (A) (A) (A) (A) (A) (A) (A)
                 (A) (A) (A) (A) (A) (A) (A) (A) (A) (A) (A) (A)
                 (A) (A) (A) (A) (A) (A) (A) (A) (A) (A) (A) (A)
                 (A) (A) (A) (A) (A) (A) (A) (A) (A) (A) (A) (A)
                 (A) (A) (A) (A) (A) (A) (A) (A) (A) (A) (A) (A)
                 (A) (A) (A) (A) (A) (A) (A) (A) (A) (A) (A) (A)
                 (A) (A) (A) (A) (A) (A) (A) (A) (A) (A) (A) (A)
                 (A) (A) (A) (A) (A) (A) (A) (A) (A) (A) (A) (A)
                 (A) (A) (A) (A) (A) (A) (A) (A) (A) (A) (A) (A)
                 (A) (A) (A) (A) (A) (A) (A) (A) (A) (A) (A) (A)
                 (A) (A) (A) (A) (A) (A) (A) (A) (A) (A) (A) (A)
                 (A) (A) (A) (A) (A) (A) (A) (A) (A) (A) (A) (A)
                 (A) (A) (A) (A) (A) (A) (A) (A) (A) (A) (A) (A)
                 (A) (A) (A) (A) (A) (A) (A) (A) (A) (A) (A) (A)
                 (A) (A) (A) (A) (A) (A) (A) (A) (A) (A) (A) (A)
                 (A) (A) (A) (A) (A) (A) (A) (A) (A) (A) (A) (A)
                 (A) (A) (A) (A) (A) (A) (A) (A) (A) (A) (A) (A)
                 (A) (A) (A) (A) (A) (A) (A) (A) (A) (A) (A) (A)
                 (A) (A) (A) (A) (A) (A) (A) (A) (A) (A) (A) (A)
                 (A) (A) (A) (A) (A) (A) (A) (A) (A) (A) (A) (A)
                 (A) (A) (A) (A) (A) (A) (A) (A) (A) (A) (A) (A)
                 (A) (A) (A) (A) (A) (A) (A) (A) (A) (A) (A) (A)
                 (A) (A) (A) (A) (A) (A) (A) (A) (A) (A) (A) (A)
                 (A) (A) (A) (A) (A) (A) (A) (A) (A) (A) (A) (A)
                 (A) (A) (A) (A) (A) (A) (A) (A) (A) (A) (A) (A)
                 (A) (A) (A) (A) (A) (A) (A) (A) (A) (A) (A) (A)
                 (A) (A) (A) (A) (A) (A) (A) (A) (A) (A) (A) (A)
                 (A) (A) (A) (A) (A) (A) (A) (A) (A) (A) (A) (A)
                 (A) (A) (A) (A) (A) (A) (A) (A)
 The electronic state is 2-A.
 Alpha  occ. eigenvalues -- -256.50251 -89.14307 -30.28863 -26.12018 -26.11530
 Alpha  occ. eigenvalues --  -26.09992 -19.32664 -19.31478 -19.25267 -19.24920
 Alpha  occ. eigenvalues --  -14.56253 -14.52031 -14.48302 -14.47890 -14.47685
 Alpha  occ. eigenvalues --  -14.47568 -10.43007 -10.41927 -10.39999 -10.37065
 Alpha  occ. eigenvalues --  -10.35013 -10.34692 -10.34691 -10.34650 -10.34610
 Alpha  occ. eigenvalues --  -10.34595 -10.34508 -10.34449 -10.34445 -10.34403
 Alpha  occ. eigenvalues --  -10.34067 -10.34061 -10.33656 -10.33090 -10.32700
 Alpha  occ. eigenvalues --  -10.32371 -10.32337 -10.32290 -10.32268 -10.32174
 Alpha  occ. eigenvalues --  -10.32153 -10.32079 -10.32038 -10.31953 -10.31938
 Alpha  occ. eigenvalues --  -10.31888 -10.31501 -10.31462 -10.31345 -10.31107
 Alpha  occ. eigenvalues --  -10.31091 -10.30276 -10.30235 -10.29829 -10.29759
 Alpha  occ. eigenvalues --  -10.29493 -10.29208  -8.12088  -6.05716  -6.05430
 Alpha  occ. eigenvalues --   -6.04951  -3.64493  -2.41853  -2.40684  -2.37470
 Alpha  occ. eigenvalues --   -1.21923  -1.21091  -1.16737  -1.10087  -1.10032
 Alpha  occ. eigenvalues --   -1.09905  -1.09497  -1.08546  -1.07965  -1.02600
 Alpha  occ. eigenvalues --   -0.94978  -0.94635  -0.93262  -0.92969  -0.92345
 Alpha  occ. eigenvalues --   -0.91939  -0.91616  -0.90770  -0.90708  -0.88869
 Alpha  occ. eigenvalues --   -0.88048  -0.86543  -0.86456  -0.86090  -0.84086
 Alpha  occ. eigenvalues --   -0.83003  -0.82289  -0.81910  -0.80989  -0.80085
 Alpha  occ. eigenvalues --   -0.79400  -0.78670  -0.78039  -0.77402  -0.76611
 Alpha  occ. eigenvalues --   -0.76403  -0.76191  -0.72937  -0.72874  -0.71669
 Alpha  occ. eigenvalues --   -0.71349  -0.70614  -0.70393  -0.69731  -0.69223
 Alpha  occ. eigenvalues --   -0.67061  -0.66694  -0.65631  -0.65122  -0.63309
 Alpha  occ. eigenvalues --   -0.62540  -0.62463  -0.62406  -0.60329  -0.60098
 Alpha  occ. eigenvalues --   -0.59300  -0.59008  -0.58883  -0.58551  -0.58437
 Alpha  occ. eigenvalues --   -0.58261  -0.58025  -0.57964  -0.57655  -0.56219
 Alpha  occ. eigenvalues --   -0.56147  -0.55826  -0.55535  -0.55491  -0.54991
 Alpha  occ. eigenvalues --   -0.54805  -0.54592  -0.54163  -0.53991  -0.53773
 Alpha  occ. eigenvalues --   -0.53513  -0.53262  -0.53105  -0.53005  -0.52752
 Alpha  occ. eigenvalues --   -0.52515  -0.52057  -0.51842  -0.51611  -0.51406
 Alpha  occ. eigenvalues --   -0.51270  -0.51189  -0.50880  -0.50778  -0.50633
 Alpha  occ. eigenvalues --   -0.50314  -0.50165  -0.49777  -0.49712  -0.49332
 Alpha  occ. eigenvalues --   -0.49044  -0.48792  -0.48316  -0.48034  -0.47899
 Alpha  occ. eigenvalues --   -0.47648  -0.47603  -0.47355  -0.47190  -0.47087
 Alpha  occ. eigenvalues --   -0.46862  -0.46534  -0.46414  -0.46161  -0.46040
 Alpha  occ. eigenvalues --   -0.45758  -0.45658  -0.45141  -0.44803  -0.43994
 Alpha  occ. eigenvalues --   -0.43750  -0.43592  -0.43421  -0.42519  -0.41420
 Alpha  occ. eigenvalues --   -0.41047  -0.40364  -0.39976  -0.39435  -0.39282
 Alpha  occ. eigenvalues --   -0.38953  -0.38906  -0.36437  -0.35309  -0.35009
 Alpha  occ. eigenvalues --   -0.34846  -0.34539  -0.34142  -0.33055  -0.32898
 Alpha  occ. eigenvalues --   -0.31923  -0.31212  -0.30214  -0.29697
 Alpha virt. eigenvalues --   -0.18271  -0.18112  -0.16187  -0.14268  -0.13307
 Alpha virt. eigenvalues --   -0.12584  -0.10836  -0.09691  -0.08802  -0.07649
 Alpha virt. eigenvalues --   -0.06758  -0.06281  -0.06142  -0.05033  -0.04584
 Alpha virt. eigenvalues --   -0.04258  -0.03943  -0.03641  -0.02899  -0.02702
 Alpha virt. eigenvalues --   -0.02433  -0.02024  -0.01912  -0.01772  -0.01654
 Alpha virt. eigenvalues --   -0.01427  -0.01166  -0.00869  -0.00548  -0.00238
 Alpha virt. eigenvalues --   -0.00072   0.00127   0.00464   0.00661   0.00991
 Alpha virt. eigenvalues --    0.01163   0.01571   0.01942   0.02159   0.02467
 Alpha virt. eigenvalues --    0.02645   0.02944   0.03328   0.03464   0.03772
 Alpha virt. eigenvalues --    0.03892   0.04286   0.04371   0.04648   0.04684
 Alpha virt. eigenvalues --    0.05006   0.05243   0.05389   0.05545   0.05735
 Alpha virt. eigenvalues --    0.05875   0.06048   0.06273   0.06435   0.06477
 Alpha virt. eigenvalues --    0.06715   0.07196   0.07304   0.07436   0.07636
 Alpha virt. eigenvalues --    0.07712   0.07808   0.08415   0.08687   0.08831
 Alpha virt. eigenvalues --    0.08954   0.09200   0.09480   0.09542   0.09746
 Alpha virt. eigenvalues --    0.09837   0.09959   0.10080   0.10612   0.10833
 Alpha virt. eigenvalues --    0.11038   0.11159   0.11408   0.11535   0.11965
 Alpha virt. eigenvalues --    0.12055   0.12246   0.12253   0.12809   0.12918
 Alpha virt. eigenvalues --    0.13098   0.13202   0.13325   0.13522   0.13707
 Alpha virt. eigenvalues --    0.13917   0.14081   0.14182   0.14360   0.14835
 Alpha virt. eigenvalues --    0.14967   0.15170   0.15341   0.15640   0.15795
 Alpha virt. eigenvalues --    0.15828   0.15945   0.16103   0.16392   0.16593
 Alpha virt. eigenvalues --    0.17021   0.17200   0.17430   0.17881   0.18059
 Alpha virt. eigenvalues --    0.18168   0.18363   0.18726   0.18851   0.19049
 Alpha virt. eigenvalues --    0.19206   0.19503   0.19713   0.19842   0.20039
 Alpha virt. eigenvalues --    0.20093   0.20539   0.20727   0.20890   0.21074
 Alpha virt. eigenvalues --    0.21481   0.21731   0.22005   0.22145   0.22464
 Alpha virt. eigenvalues --    0.22631   0.22752   0.22920   0.23042   0.23231
 Alpha virt. eigenvalues --    0.23513   0.23645   0.23918   0.24037   0.24181
 Alpha virt. eigenvalues --    0.24660   0.24836   0.25032   0.25068   0.25279
 Alpha virt. eigenvalues --    0.25432   0.25611   0.26058   0.26394   0.26636
 Alpha virt. eigenvalues --    0.26777   0.27077   0.27199   0.27389   0.27669
 Alpha virt. eigenvalues --    0.27838   0.28138   0.28361   0.28607   0.28756
 Alpha virt. eigenvalues --    0.28887   0.29016   0.29239   0.29532   0.29842
 Alpha virt. eigenvalues --    0.30014   0.30206   0.30671   0.30697   0.30730
 Alpha virt. eigenvalues --    0.31079   0.31372   0.31587   0.31646   0.31674
 Alpha virt. eigenvalues --    0.31795   0.31988   0.32271   0.32433   0.32733
 Alpha virt. eigenvalues --    0.33063   0.33215   0.33320   0.33698   0.33897
 Alpha virt. eigenvalues --    0.34098   0.34137   0.34430   0.34605   0.34708
 Alpha virt. eigenvalues --    0.34957   0.35152   0.35286   0.35435   0.35704
 Alpha virt. eigenvalues --    0.35797   0.36051   0.36171   0.36439   0.36567
 Alpha virt. eigenvalues --    0.36584   0.36771   0.36932   0.37167   0.37331
 Alpha virt. eigenvalues --    0.37428   0.37469   0.37773   0.38048   0.38107
 Alpha virt. eigenvalues --    0.38417   0.38486   0.38587   0.38741   0.38912
 Alpha virt. eigenvalues --    0.39195   0.39263   0.39552   0.39700   0.39900
 Alpha virt. eigenvalues --    0.39985   0.40292   0.40374   0.40654   0.40781
 Alpha virt. eigenvalues --    0.41083   0.41209   0.41291   0.41401   0.41613
 Alpha virt. eigenvalues --    0.41864   0.42013   0.42105   0.42365   0.42525
 Alpha virt. eigenvalues --    0.42671   0.42815   0.42919   0.43099   0.43230
 Alpha virt. eigenvalues --    0.43393   0.43471   0.43575   0.43769   0.43872
 Alpha virt. eigenvalues --    0.44203   0.44391   0.44628   0.44803   0.44974
 Alpha virt. eigenvalues --    0.45177   0.45250   0.45350   0.45510   0.45746
 Alpha virt. eigenvalues --    0.46179   0.46211   0.46624   0.46739   0.46793
 Alpha virt. eigenvalues --    0.46815   0.47050   0.47252   0.47396   0.47545
 Alpha virt. eigenvalues --    0.47957   0.48178   0.48358   0.48525   0.48849
 Alpha virt. eigenvalues --    0.49138   0.49346   0.49710   0.49887   0.50140
 Alpha virt. eigenvalues --    0.50263   0.50581   0.50799   0.51034   0.51466
 Alpha virt. eigenvalues --    0.51572   0.51777   0.51894   0.52126   0.52787
 Alpha virt. eigenvalues --    0.53023   0.53143   0.53390   0.53778   0.54007
 Alpha virt. eigenvalues --    0.54136   0.54246   0.54411   0.54918   0.55024
 Alpha virt. eigenvalues --    0.55279   0.55506   0.55733   0.55960   0.56031
 Alpha virt. eigenvalues --    0.56430   0.56507   0.56935   0.57070   0.57601
 Alpha virt. eigenvalues --    0.57859   0.58304   0.58400   0.58685   0.58847
 Alpha virt. eigenvalues --    0.59139   0.59466   0.59767   0.59989   0.60387
 Alpha virt. eigenvalues --    0.60564   0.61019   0.61175   0.61251   0.61528
 Alpha virt. eigenvalues --    0.61817   0.62072   0.62151   0.62625   0.62845
 Alpha virt. eigenvalues --    0.62970   0.63225   0.63749   0.63821   0.64172
 Alpha virt. eigenvalues --    0.64493   0.64590   0.64791   0.65394   0.65837
 Alpha virt. eigenvalues --    0.66111   0.66350   0.66691   0.66986   0.67288
 Alpha virt. eigenvalues --    0.67565   0.67721   0.67989   0.68227   0.68438
 Alpha virt. eigenvalues --    0.68574   0.68688   0.68880   0.69495   0.69704
 Alpha virt. eigenvalues --    0.70230   0.70514   0.70634   0.71310   0.71369
 Alpha virt. eigenvalues --    0.71580   0.71820   0.72006   0.72655   0.72761
 Alpha virt. eigenvalues --    0.73296   0.73371   0.73922   0.74285   0.74565
 Alpha virt. eigenvalues --    0.74822   0.75412   0.75545   0.75655   0.76049
 Alpha virt. eigenvalues --    0.76286   0.76501   0.76773   0.77096   0.77541
 Alpha virt. eigenvalues --    0.77667   0.77971   0.78462   0.78545   0.78667
 Alpha virt. eigenvalues --    0.79247   0.79642   0.79721   0.80192   0.80390
 Alpha virt. eigenvalues --    0.80677   0.81218   0.81259   0.81437   0.81645
 Alpha virt. eigenvalues --    0.82199   0.82435   0.82885   0.83043   0.83189
 Alpha virt. eigenvalues --    0.83363   0.83646   0.83805   0.84355   0.84695
 Alpha virt. eigenvalues --    0.85045   0.85116   0.85294   0.85455   0.85750
 Alpha virt. eigenvalues --    0.85819   0.86060   0.86594   0.86805   0.86991
 Alpha virt. eigenvalues --    0.87051   0.87232   0.87900   0.88023   0.88121
 Alpha virt. eigenvalues --    0.88301   0.88498   0.88914   0.89375   0.89509
 Alpha virt. eigenvalues --    0.89750   0.89850   0.90324   0.90607   0.90972
 Alpha virt. eigenvalues --    0.91167   0.91257   0.91544   0.91750   0.92312
 Alpha virt. eigenvalues --    0.92502   0.92603   0.92798   0.93133   0.93711
 Alpha virt. eigenvalues --    0.93744   0.93932   0.94190   0.94635   0.94814
 Alpha virt. eigenvalues --    0.95112   0.95398   0.95590   0.96006   0.96238
 Alpha virt. eigenvalues --    0.96737   0.96789   0.97024   0.97241   0.97467
 Alpha virt. eigenvalues --    0.97718   0.97807   0.98112   0.98460   0.98866
 Alpha virt. eigenvalues --    0.98972   0.99474   0.99622   0.99940   1.00389
 Alpha virt. eigenvalues --    1.00507   1.00607   1.01094   1.01391   1.01935
 Alpha virt. eigenvalues --    1.02076   1.02738   1.02807   1.03060   1.03428
 Alpha virt. eigenvalues --    1.04076   1.04353   1.04619   1.04847   1.05134
 Alpha virt. eigenvalues --    1.05410   1.05513   1.05980   1.06185   1.06874
 Alpha virt. eigenvalues --    1.07014   1.07060   1.07517   1.07680   1.08078
 Alpha virt. eigenvalues --    1.08224   1.08474   1.09029   1.09364   1.09467
 Alpha virt. eigenvalues --    1.09764   1.10527   1.10962   1.11211   1.11342
 Alpha virt. eigenvalues --    1.11914   1.12241   1.12685   1.12889   1.13375
 Alpha virt. eigenvalues --    1.13948   1.14038   1.14820   1.14976   1.15311
 Alpha virt. eigenvalues --    1.15791   1.16121   1.16452   1.16718   1.17328
 Alpha virt. eigenvalues --    1.17403   1.17956   1.18148   1.18470   1.18780
 Alpha virt. eigenvalues --    1.19221   1.19514   1.19993   1.20669   1.20798
 Alpha virt. eigenvalues --    1.20994   1.21262   1.21530   1.21755   1.21835
 Alpha virt. eigenvalues --    1.21937   1.22301   1.22410   1.22939   1.23096
 Alpha virt. eigenvalues --    1.23803   1.24096   1.24200   1.24666   1.25041
 Alpha virt. eigenvalues --    1.25279   1.25899   1.26060   1.26953   1.27251
 Alpha virt. eigenvalues --    1.27368   1.27680   1.28100   1.28540   1.29087
 Alpha virt. eigenvalues --    1.29438   1.30105   1.30315   1.30827   1.30941
 Alpha virt. eigenvalues --    1.31456   1.32134   1.32692   1.33461   1.33577
 Alpha virt. eigenvalues --    1.34247   1.34291   1.34964   1.35227   1.36195
 Alpha virt. eigenvalues --    1.36516   1.36869   1.37166   1.37236   1.37610
 Alpha virt. eigenvalues --    1.38114   1.38505   1.38909   1.39236   1.39474
 Alpha virt. eigenvalues --    1.39719   1.40028   1.40268   1.40673   1.40773
 Alpha virt. eigenvalues --    1.40879   1.41476   1.41726   1.42039   1.42575
 Alpha virt. eigenvalues --    1.42771   1.43020   1.43113   1.43627   1.43984
 Alpha virt. eigenvalues --    1.44109   1.44277   1.44339   1.44680   1.44919
 Alpha virt. eigenvalues --    1.45146   1.45510   1.45520   1.45879   1.46124
 Alpha virt. eigenvalues --    1.46271   1.46826   1.46861   1.47328   1.47431
 Alpha virt. eigenvalues --    1.47672   1.47842   1.48156   1.48228   1.48371
 Alpha virt. eigenvalues --    1.48803   1.49014   1.49356   1.49592   1.49802
 Alpha virt. eigenvalues --    1.50006   1.50293   1.50526   1.50663   1.51070
 Alpha virt. eigenvalues --    1.51191   1.51698   1.51863   1.52209   1.52525
 Alpha virt. eigenvalues --    1.52626   1.52889   1.53241   1.53401   1.53609
 Alpha virt. eigenvalues --    1.53788   1.54137   1.54389   1.54931   1.54965
 Alpha virt. eigenvalues --    1.55247   1.55340   1.55859   1.56035   1.56440
 Alpha virt. eigenvalues --    1.56712   1.56908   1.57084   1.57240   1.57404
 Alpha virt. eigenvalues --    1.57791   1.57976   1.58110   1.58511   1.58604
 Alpha virt. eigenvalues --    1.59108   1.59636   1.59722   1.60057   1.60186
 Alpha virt. eigenvalues --    1.60353   1.60759   1.61081   1.61221   1.61958
 Alpha virt. eigenvalues --    1.62011   1.62440   1.63076   1.63329   1.63515
 Alpha virt. eigenvalues --    1.63685   1.64011   1.64404   1.64697   1.64979
 Alpha virt. eigenvalues --    1.65185   1.65394   1.65585   1.66211   1.66499
 Alpha virt. eigenvalues --    1.66734   1.66920   1.67256   1.67678   1.67824
 Alpha virt. eigenvalues --    1.68181   1.68378   1.68791   1.69403   1.69590
 Alpha virt. eigenvalues --    1.70029   1.70261   1.70370   1.70857   1.71280
 Alpha virt. eigenvalues --    1.71734   1.71908   1.72419   1.72985   1.73117
 Alpha virt. eigenvalues --    1.73293   1.73725   1.74222   1.74342   1.74852
 Alpha virt. eigenvalues --    1.75200   1.75377   1.75995   1.76196   1.76320
 Alpha virt. eigenvalues --    1.76593   1.77137   1.77467   1.77509   1.78319
 Alpha virt. eigenvalues --    1.78453   1.78695   1.79314   1.79839   1.80102
 Alpha virt. eigenvalues --    1.80520   1.80620   1.81045   1.81190   1.81535
 Alpha virt. eigenvalues --    1.82045   1.82419   1.82919   1.83179   1.83519
 Alpha virt. eigenvalues --    1.83948   1.84044   1.84734   1.84938   1.85369
 Alpha virt. eigenvalues --    1.85581   1.85681   1.86209   1.86663   1.87146
 Alpha virt. eigenvalues --    1.87385   1.87604   1.87746   1.88125   1.88305
 Alpha virt. eigenvalues --    1.88549   1.88982   1.89184   1.89487   1.89708
 Alpha virt. eigenvalues --    1.90245   1.90387   1.90686   1.91057   1.91183
 Alpha virt. eigenvalues --    1.91647   1.91969   1.92078   1.92319   1.92558
 Alpha virt. eigenvalues --    1.93480   1.93689   1.94094   1.94333   1.94883
 Alpha virt. eigenvalues --    1.95072   1.95275   1.95771   1.95938   1.96311
 Alpha virt. eigenvalues --    1.96467   1.97046   1.97356   1.97797   1.98181
 Alpha virt. eigenvalues --    1.98536   1.98826   1.99131   1.99277   2.00415
 Alpha virt. eigenvalues --    2.00491   2.00795   2.01066   2.01214   2.01667
 Alpha virt. eigenvalues --    2.02139   2.02404   2.02693   2.03104   2.03473
 Alpha virt. eigenvalues --    2.03949   2.04037   2.04126   2.04580   2.04776
 Alpha virt. eigenvalues --    2.05091   2.05378   2.05728   2.06241   2.06439
 Alpha virt. eigenvalues --    2.06867   2.07087   2.07357   2.07478   2.07601
 Alpha virt. eigenvalues --    2.08616   2.09226   2.09359   2.09900   2.10096
 Alpha virt. eigenvalues --    2.10308   2.10538   2.11018   2.11102   2.11393
 Alpha virt. eigenvalues --    2.11700   2.12167   2.12462   2.12875   2.13131
 Alpha virt. eigenvalues --    2.13470   2.13744   2.14419   2.14810   2.15136
 Alpha virt. eigenvalues --    2.15281   2.15459   2.16080   2.16676   2.17314
 Alpha virt. eigenvalues --    2.17545   2.18081   2.18412   2.18774   2.18970
 Alpha virt. eigenvalues --    2.19279   2.19720   2.20204   2.20589   2.21144
 Alpha virt. eigenvalues --    2.21281   2.21752   2.22074   2.22417   2.22587
 Alpha virt. eigenvalues --    2.22915   2.23133   2.23366   2.24014   2.24431
 Alpha virt. eigenvalues --    2.25040   2.25209   2.25549   2.25774   2.26037
 Alpha virt. eigenvalues --    2.26335   2.26582   2.26943   2.27304   2.27647
 Alpha virt. eigenvalues --    2.27870   2.28347   2.28860   2.29103   2.29579
 Alpha virt. eigenvalues --    2.29621   2.30308   2.30419   2.30823   2.31036
 Alpha virt. eigenvalues --    2.31275   2.31431   2.32206   2.32681   2.32834
 Alpha virt. eigenvalues --    2.33225   2.33840   2.34083   2.34569   2.34958
 Alpha virt. eigenvalues --    2.35521   2.35767   2.36012   2.36515   2.36644
 Alpha virt. eigenvalues --    2.36966   2.37242   2.37396   2.38028   2.38455
 Alpha virt. eigenvalues --    2.39039   2.39210   2.39264   2.39441   2.40307
 Alpha virt. eigenvalues --    2.40549   2.40944   2.41671   2.42245   2.42441
 Alpha virt. eigenvalues --    2.42763   2.43258   2.43626   2.43932   2.44663
 Alpha virt. eigenvalues --    2.44772   2.45004   2.45552   2.46020   2.46215
 Alpha virt. eigenvalues --    2.46503   2.46779   2.47139   2.47297   2.47902
 Alpha virt. eigenvalues --    2.48239   2.48635   2.48789   2.49086   2.49326
 Alpha virt. eigenvalues --    2.49491   2.49717   2.50143   2.50422   2.50647
 Alpha virt. eigenvalues --    2.50696   2.51143   2.51363   2.51728   2.51771
 Alpha virt. eigenvalues --    2.52165   2.52466   2.53263   2.53412   2.53581
 Alpha virt. eigenvalues --    2.53876   2.54300   2.54591   2.54712   2.54964
 Alpha virt. eigenvalues --    2.55474   2.55733   2.55925   2.56078   2.56443
 Alpha virt. eigenvalues --    2.56550   2.57018   2.57287   2.57807   2.57975
 Alpha virt. eigenvalues --    2.58055   2.58226   2.58739   2.58809   2.59275
 Alpha virt. eigenvalues --    2.59606   2.59725   2.60140   2.60722   2.61004
 Alpha virt. eigenvalues --    2.61286   2.61447   2.61608   2.61965   2.62122
 Alpha virt. eigenvalues --    2.62621   2.63030   2.63080   2.63390   2.63443
 Alpha virt. eigenvalues --    2.63961   2.64124   2.64296   2.64580   2.64680
 Alpha virt. eigenvalues --    2.65539   2.66024   2.66278   2.66994   2.67357
 Alpha virt. eigenvalues --    2.67663   2.68014   2.68247   2.68380   2.68648
 Alpha virt. eigenvalues --    2.69063   2.69230   2.69533   2.69957   2.70364
 Alpha virt. eigenvalues --    2.70462   2.70966   2.71185   2.71557   2.71654
 Alpha virt. eigenvalues --    2.71892   2.72404   2.72588   2.72761   2.73104
 Alpha virt. eigenvalues --    2.73667   2.73963   2.74377   2.74568   2.74714
 Alpha virt. eigenvalues --    2.75030   2.75592   2.75693   2.76399   2.76538
 Alpha virt. eigenvalues --    2.77067   2.77483   2.77845   2.78173   2.78312
 Alpha virt. eigenvalues --    2.78670   2.79286   2.79579   2.79905   2.80131
 Alpha virt. eigenvalues --    2.80569   2.80909   2.81437   2.81851   2.82052
 Alpha virt. eigenvalues --    2.82376   2.83143   2.83513   2.83751   2.84062
 Alpha virt. eigenvalues --    2.84427   2.84545   2.85216   2.85319   2.85729
 Alpha virt. eigenvalues --    2.85829   2.86134   2.86502   2.86576   2.87315
 Alpha virt. eigenvalues --    2.87333   2.87817   2.88031   2.88276   2.88372
 Alpha virt. eigenvalues --    2.88924   2.89271   2.89627   2.89911   2.90159
 Alpha virt. eigenvalues --    2.90278   2.90412   2.90879   2.91292   2.91460
 Alpha virt. eigenvalues --    2.91724   2.92180   2.92603   2.92999   2.93049
 Alpha virt. eigenvalues --    2.93222   2.93553   2.94016   2.94357   2.94843
 Alpha virt. eigenvalues --    2.94977   2.95137   2.95410   2.95819   2.96109
 Alpha virt. eigenvalues --    2.96355   2.96610   2.96961   2.97404   2.97703
 Alpha virt. eigenvalues --    2.97878   2.98264   2.98528   2.98697   2.98762
 Alpha virt. eigenvalues --    2.98967   2.99291   2.99613   3.00077   3.00465
 Alpha virt. eigenvalues --    3.00855   3.01045   3.01263   3.01474   3.01637
 Alpha virt. eigenvalues --    3.02001   3.02218   3.02366   3.02654   3.02905
 Alpha virt. eigenvalues --    3.03036   3.03178   3.03804   3.03983   3.04504
 Alpha virt. eigenvalues --    3.04830   3.05039   3.05311   3.05595   3.06144
 Alpha virt. eigenvalues --    3.06255   3.06458   3.06686   3.07006   3.07421
 Alpha virt. eigenvalues --    3.07574   3.07775   3.07926   3.08116   3.08339
 Alpha virt. eigenvalues --    3.08576   3.08780   3.08909   3.09484   3.09754
 Alpha virt. eigenvalues --    3.10036   3.10178   3.10393   3.10641   3.10826
 Alpha virt. eigenvalues --    3.11280   3.11437   3.12016   3.12150   3.12295
 Alpha virt. eigenvalues --    3.12478   3.13004   3.13210   3.13236   3.13387
 Alpha virt. eigenvalues --    3.14002   3.14097   3.14450   3.14523   3.14834
 Alpha virt. eigenvalues --    3.14890   3.15108   3.15285   3.15571   3.15911
 Alpha virt. eigenvalues --    3.16290   3.16571   3.16883   3.17198   3.17609
 Alpha virt. eigenvalues --    3.17713   3.17792   3.18269   3.18404   3.18467
 Alpha virt. eigenvalues --    3.18602   3.18915   3.19356   3.19633   3.19709
 Alpha virt. eigenvalues --    3.19848   3.20343   3.20564   3.20690   3.21141
 Alpha virt. eigenvalues --    3.21375   3.21497   3.21630   3.22085   3.22261
 Alpha virt. eigenvalues --    3.22594   3.22822   3.22976   3.23353   3.23512
 Alpha virt. eigenvalues --    3.23875   3.24077   3.24370   3.24782   3.25086
 Alpha virt. eigenvalues --    3.25357   3.25571   3.25810   3.25934   3.26121
 Alpha virt. eigenvalues --    3.26713   3.26753   3.27356   3.27413   3.27556
 Alpha virt. eigenvalues --    3.27998   3.28192   3.28416   3.28506   3.28606
 Alpha virt. eigenvalues --    3.28868   3.29081   3.29194   3.29372   3.29425
 Alpha virt. eigenvalues --    3.29979   3.30057   3.30418   3.30569   3.30985
 Alpha virt. eigenvalues --    3.31079   3.31580   3.32144   3.32152   3.32307
 Alpha virt. eigenvalues --    3.32591   3.33001   3.33035   3.33258   3.33418
 Alpha virt. eigenvalues --    3.34393   3.34546   3.34761   3.35170   3.35334
 Alpha virt. eigenvalues --    3.35469   3.35884   3.36006   3.36205   3.36629
 Alpha virt. eigenvalues --    3.36881   3.37170   3.37739   3.37960   3.38268
 Alpha virt. eigenvalues --    3.38511   3.38586   3.39025   3.39259   3.39414
 Alpha virt. eigenvalues --    3.40172   3.40310   3.40704   3.41024   3.41212
 Alpha virt. eigenvalues --    3.41393   3.41908   3.42102   3.42442   3.42678
 Alpha virt. eigenvalues --    3.42976   3.43062   3.43804   3.43943   3.44178
 Alpha virt. eigenvalues --    3.44539   3.44692   3.44863   3.45320   3.45990
 Alpha virt. eigenvalues --    3.46128   3.46687   3.46776   3.47126   3.47639
 Alpha virt. eigenvalues --    3.47959   3.48132   3.48544   3.48626   3.49286
 Alpha virt. eigenvalues --    3.49495   3.49877   3.50252   3.50379   3.50665
 Alpha virt. eigenvalues --    3.51106   3.51730   3.51994   3.52211   3.52393
 Alpha virt. eigenvalues --    3.52738   3.53317   3.53444   3.53985   3.54273
 Alpha virt. eigenvalues --    3.55131   3.55223   3.55685   3.55938   3.56061
 Alpha virt. eigenvalues --    3.56587   3.56813   3.57309   3.57726   3.58094
 Alpha virt. eigenvalues --    3.58498   3.58950   3.59065   3.59664   3.59746
 Alpha virt. eigenvalues --    3.60308   3.60639   3.61014   3.61103   3.61737
 Alpha virt. eigenvalues --    3.62401   3.62728   3.63136   3.63787   3.64099
 Alpha virt. eigenvalues --    3.64387   3.64801   3.65172   3.65271   3.65344
 Alpha virt. eigenvalues --    3.65722   3.65975   3.66609   3.66751   3.66820
 Alpha virt. eigenvalues --    3.67219   3.67630   3.67779   3.68197   3.68356
 Alpha virt. eigenvalues --    3.69106   3.69637   3.70118   3.70332   3.70700
 Alpha virt. eigenvalues --    3.71081   3.72257   3.72786   3.73355   3.73484
 Alpha virt. eigenvalues --    3.74308   3.74453   3.74935   3.75429   3.75795
 Alpha virt. eigenvalues --    3.76651   3.76956   3.77526   3.78112   3.78376
 Alpha virt. eigenvalues --    3.78515   3.78979   3.79280   3.79861   3.80431
 Alpha virt. eigenvalues --    3.80573   3.80816   3.81157   3.81598   3.82028
 Alpha virt. eigenvalues --    3.82110   3.82408   3.82602   3.83458   3.84025
 Alpha virt. eigenvalues --    3.84397   3.84964   3.85487   3.85643   3.85940
 Alpha virt. eigenvalues --    3.86066   3.86712   3.87237   3.87817   3.88256
 Alpha virt. eigenvalues --    3.88991   3.89319   3.89882   3.90239   3.90887
 Alpha virt. eigenvalues --    3.91092   3.91554   3.91905   3.92305   3.93178
 Alpha virt. eigenvalues --    3.93680   3.93962   3.94392   3.94686   3.95424
 Alpha virt. eigenvalues --    3.96549   3.96826   3.97192   3.98013   3.98042
 Alpha virt. eigenvalues --    3.99001   3.99429   3.99614   3.99866   4.00231
 Alpha virt. eigenvalues --    4.00467   4.01869   4.01916   4.02348   4.03168
 Alpha virt. eigenvalues --    4.03528   4.03804   4.04504   4.04989   4.05477
 Alpha virt. eigenvalues --    4.06269   4.06928   4.07035   4.08304   4.08522
 Alpha virt. eigenvalues --    4.09104   4.09627   4.10031   4.10402   4.10899
 Alpha virt. eigenvalues --    4.11771   4.12119   4.12707   4.13088   4.13804
 Alpha virt. eigenvalues --    4.14421   4.15114   4.15393   4.15854   4.16037
 Alpha virt. eigenvalues --    4.16882   4.17438   4.18097   4.18254   4.18447
 Alpha virt. eigenvalues --    4.18804   4.19244   4.19965   4.20181   4.21161
 Alpha virt. eigenvalues --    4.21714   4.21785   4.22093   4.22480   4.22972
 Alpha virt. eigenvalues --    4.23628   4.25025   4.25612   4.26027   4.26337
 Alpha virt. eigenvalues --    4.26832   4.27195   4.27727   4.28124   4.29193
 Alpha virt. eigenvalues --    4.30129   4.30646   4.31119   4.31477   4.32015
 Alpha virt. eigenvalues --    4.32337   4.32647   4.32846   4.33086   4.33659
 Alpha virt. eigenvalues --    4.33756   4.34184   4.35002   4.35420   4.35587
 Alpha virt. eigenvalues --    4.35825   4.36327   4.37249   4.37863   4.38689
 Alpha virt. eigenvalues --    4.39066   4.39722   4.40586   4.41619   4.41800
 Alpha virt. eigenvalues --    4.42098   4.42819   4.43715   4.44085   4.44250
 Alpha virt. eigenvalues --    4.45442   4.46788   4.47597   4.47786   4.48191
 Alpha virt. eigenvalues --    4.48322   4.49335   4.50044   4.50301   4.51404
 Alpha virt. eigenvalues --    4.51632   4.52120   4.52365   4.52938   4.53559
 Alpha virt. eigenvalues --    4.54088   4.54963   4.55309   4.56494   4.57099
 Alpha virt. eigenvalues --    4.57305   4.58912   4.59271   4.59844   4.60186
 Alpha virt. eigenvalues --    4.60407   4.61684   4.61936   4.62605   4.63227
 Alpha virt. eigenvalues --    4.63762   4.63865   4.64438   4.64718   4.65276
 Alpha virt. eigenvalues --    4.65912   4.66868   4.66937   4.67603   4.68133
 Alpha virt. eigenvalues --    4.69638   4.70057   4.70554   4.70845   4.71794
 Alpha virt. eigenvalues --    4.72542   4.73322   4.74240   4.74954   4.75762
 Alpha virt. eigenvalues --    4.76345   4.76517   4.76822   4.78119   4.78350
 Alpha virt. eigenvalues --    4.79671   4.80691   4.81477   4.82134   4.82351
 Alpha virt. eigenvalues --    4.82712   4.84354   4.85105   4.85923   4.86531
 Alpha virt. eigenvalues --    4.87463   4.88174   4.88341   4.88582   4.89406
 Alpha virt. eigenvalues --    4.90770   4.91275   4.91856   4.92144   4.93766
 Alpha virt. eigenvalues --    4.93983   4.94791   4.95280   4.95662   4.97535
 Alpha virt. eigenvalues --    4.98216   4.99513   4.99676   5.00084   5.01388
 Alpha virt. eigenvalues --    5.01618   5.02336   5.03359   5.04194   5.06304
 Alpha virt. eigenvalues --    5.07764   5.08155   5.09769   5.10716   5.11176
 Alpha virt. eigenvalues --    5.12131   5.12347   5.12703   5.13335   5.14001
 Alpha virt. eigenvalues --    5.14220   5.15211   5.16891   5.17023   5.17898
 Alpha virt. eigenvalues --    5.18408   5.19875   5.20863   5.21147   5.21217
 Alpha virt. eigenvalues --    5.21902   5.22930   5.24135   5.24762   5.27078
 Alpha virt. eigenvalues --    5.27536   5.28542   5.28907   5.30893   5.31345
 Alpha virt. eigenvalues --    5.31928   5.32818   5.33057   5.34626   5.36864
 Alpha virt. eigenvalues --    5.37879   5.38493   5.39893   5.40784   5.41697
 Alpha virt. eigenvalues --    5.41960   5.43459   5.43540   5.44789   5.45389
 Alpha virt. eigenvalues --    5.49474   5.50065   5.50687   5.51460   5.52147
 Alpha virt. eigenvalues --    5.52635   5.53940   5.55244   5.55977   5.56381
 Alpha virt. eigenvalues --    5.56807   5.57881   5.58485   5.60396   5.63302
 Alpha virt. eigenvalues --    5.63737   5.65599   5.66476   5.67086   5.69445
 Alpha virt. eigenvalues --    5.72314   5.73285   5.77663   5.79863   5.82965
 Alpha virt. eigenvalues --    5.85612   5.86579   5.87999   5.89678   5.90429
 Alpha virt. eigenvalues --    5.91639   5.93146   5.93925   5.95154   5.96033
 Alpha virt. eigenvalues --    5.96286   6.02163   6.02884   6.03872   6.05443
 Alpha virt. eigenvalues --    6.05758   6.07116   6.09389   6.15144   6.17379
 Alpha virt. eigenvalues --    6.17869   6.21390   6.26052   6.26420   6.28147
 Alpha virt. eigenvalues --    6.30373   6.32330   6.33328   6.38905   6.39153
 Alpha virt. eigenvalues --    6.39831   6.43208   6.43805   6.47444   6.57659
 Alpha virt. eigenvalues --    6.58228   6.64255   6.66408   6.74566   6.79824
 Alpha virt. eigenvalues --    6.81759   6.87057   6.88849   6.89838   6.99503
 Alpha virt. eigenvalues --    7.01095   7.04691   7.07595   7.23581   7.24906
 Alpha virt. eigenvalues --    9.18146   9.38800   9.49883  20.04512  22.13004
 Alpha virt. eigenvalues --   22.13701  22.33574  22.36543  22.41441  22.42209
 Alpha virt. eigenvalues --   22.47180  22.48758  22.51203  22.52333  22.55069
 Alpha virt. eigenvalues --   22.56314  22.58172  22.60436  22.67599  22.68043
 Alpha virt. eigenvalues --   22.71042  22.86708  22.88387  22.90247  22.93337
 Alpha virt. eigenvalues --   22.93365  22.96508  23.02530  23.03030  23.11982
 Alpha virt. eigenvalues --   23.15281  23.23345  23.29919  23.31143  23.32924
 Alpha virt. eigenvalues --   23.35468  23.39720  23.43125  23.46333  23.48752
 Alpha virt. eigenvalues --   23.55949  23.66032  23.75583  23.79327  23.90234
 Alpha virt. eigenvalues --   32.35105  32.69988  32.91739  32.97710  33.03947
 Alpha virt. eigenvalues --   33.08047  43.84344  43.85840  43.87891  43.91440
  Beta  occ. eigenvalues -- -256.50216 -89.14339 -30.26602 -26.09639 -26.09459
  Beta  occ. eigenvalues --  -26.08748 -19.32664 -19.31478 -19.25267 -19.24920
  Beta  occ. eigenvalues --  -14.56247 -14.52113 -14.48350 -14.47941 -14.47746
  Beta  occ. eigenvalues --  -14.47632 -10.43007 -10.41927 -10.39969 -10.37067
  Beta  occ. eigenvalues --  -10.35010 -10.34690 -10.34685 -10.34649 -10.34602
  Beta  occ. eigenvalues --  -10.34569 -10.34509 -10.34450 -10.34436 -10.34401
  Beta  occ. eigenvalues --  -10.34070 -10.34059 -10.33660 -10.33113 -10.32703
  Beta  occ. eigenvalues --  -10.32377 -10.32338 -10.32294 -10.32247 -10.32160
  Beta  occ. eigenvalues --  -10.32152 -10.32078 -10.32039 -10.31957 -10.31920
  Beta  occ. eigenvalues --  -10.31886 -10.31509 -10.31448 -10.31346 -10.31114
  Beta  occ. eigenvalues --  -10.31091 -10.30277 -10.30236 -10.29829 -10.29760
  Beta  occ. eigenvalues --  -10.29494 -10.29209  -8.12120  -6.05738  -6.05477
  Beta  occ. eigenvalues --   -6.05019  -3.58939  -2.34260  -2.34184  -2.33640
  Beta  occ. eigenvalues --   -1.21923  -1.21091  -1.16738  -1.10113  -1.10031
  Beta  occ. eigenvalues --   -1.09905  -1.09534  -1.08562  -1.07992  -1.02651
  Beta  occ. eigenvalues --   -0.94982  -0.94702  -0.93262  -0.92981  -0.92333
  Beta  occ. eigenvalues --   -0.91946  -0.91617  -0.90769  -0.90704  -0.88857
  Beta  occ. eigenvalues --   -0.88054  -0.86560  -0.86468  -0.86091  -0.84083
  Beta  occ. eigenvalues --   -0.83009  -0.82284  -0.81916  -0.81002  -0.80103
  Beta  occ. eigenvalues --   -0.79410  -0.78700  -0.78056  -0.77410  -0.76611
  Beta  occ. eigenvalues --   -0.76426  -0.76198  -0.72938  -0.72876  -0.71679
  Beta  occ. eigenvalues --   -0.71358  -0.70628  -0.70433  -0.69727  -0.69224
  Beta  occ. eigenvalues --   -0.67064  -0.66692  -0.65640  -0.65127  -0.63314
  Beta  occ. eigenvalues --   -0.62551  -0.62473  -0.62418  -0.60338  -0.60090
  Beta  occ. eigenvalues --   -0.59306  -0.59014  -0.58888  -0.58520  -0.58380
  Beta  occ. eigenvalues --   -0.58183  -0.58022  -0.57975  -0.57651  -0.56227
  Beta  occ. eigenvalues --   -0.56125  -0.55819  -0.55533  -0.55487  -0.54973
  Beta  occ. eigenvalues --   -0.54779  -0.54541  -0.54148  -0.53994  -0.53743
  Beta  occ. eigenvalues --   -0.53536  -0.53266  -0.53084  -0.52987  -0.52747
  Beta  occ. eigenvalues --   -0.52455  -0.52067  -0.51826  -0.51608  -0.51402
  Beta  occ. eigenvalues --   -0.51248  -0.51155  -0.50880  -0.50753  -0.50600
  Beta  occ. eigenvalues --   -0.50203  -0.50050  -0.49772  -0.49680  -0.49295
  Beta  occ. eigenvalues --   -0.48958  -0.48762  -0.48349  -0.48015  -0.47883
  Beta  occ. eigenvalues --   -0.47621  -0.47560  -0.47204  -0.47175  -0.46993
  Beta  occ. eigenvalues --   -0.46655  -0.46440  -0.46310  -0.46105  -0.45812
  Beta  occ. eigenvalues --   -0.45653  -0.45034  -0.44795  -0.43969  -0.43785
  Beta  occ. eigenvalues --   -0.43653  -0.43573  -0.43069  -0.41672  -0.41090
  Beta  occ. eigenvalues --   -0.40047  -0.39703  -0.39251  -0.38978  -0.38541
  Beta  occ. eigenvalues --   -0.37033  -0.36001  -0.35338  -0.35019  -0.34628
  Beta  occ. eigenvalues --   -0.34545  -0.34335  -0.33202  -0.32693  -0.31864
  Beta  occ. eigenvalues --   -0.31198  -0.30175  -0.29722
  Beta virt. eigenvalues --   -0.19423  -0.18248  -0.16141  -0.14095  -0.13497
  Beta virt. eigenvalues --   -0.12520  -0.10902  -0.10518  -0.09219  -0.08796
  Beta virt. eigenvalues --   -0.07647  -0.06737  -0.06282  -0.05957  -0.04822
  Beta virt. eigenvalues --   -0.04583  -0.04230  -0.03900  -0.03626  -0.02894
  Beta virt. eigenvalues --   -0.02581  -0.02363  -0.02005  -0.01913  -0.01742
  Beta virt. eigenvalues --   -0.01648  -0.01397  -0.01135  -0.00852  -0.00542
  Beta virt. eigenvalues --   -0.00219  -0.00062   0.00137   0.00482   0.00664
  Beta virt. eigenvalues --    0.01015   0.01177   0.01592   0.01954   0.02168
  Beta virt. eigenvalues --    0.02463   0.02670   0.02964   0.03332   0.03558
  Beta virt. eigenvalues --    0.03796   0.03901   0.04300   0.04372   0.04660
  Beta virt. eigenvalues --    0.04703   0.05011   0.05274   0.05398   0.05561
  Beta virt. eigenvalues --    0.05743   0.05881   0.06057   0.06282   0.06446
  Beta virt. eigenvalues --    0.06481   0.06737   0.07201   0.07318   0.07443
  Beta virt. eigenvalues --    0.07649   0.07734   0.07813   0.08417   0.08697
  Beta virt. eigenvalues --    0.08835   0.08960   0.09210   0.09497   0.09549
  Beta virt. eigenvalues --    0.09756   0.09851   0.09998   0.10104   0.10656
  Beta virt. eigenvalues --    0.10838   0.11050   0.11174   0.11417   0.11546
  Beta virt. eigenvalues --    0.11977   0.12063   0.12247   0.12263   0.12809
  Beta virt. eigenvalues --    0.12933   0.13104   0.13210   0.13362   0.13532
  Beta virt. eigenvalues --    0.13716   0.13951   0.14085   0.14187   0.14378
  Beta virt. eigenvalues --    0.14855   0.14971   0.15187   0.15373   0.15664
  Beta virt. eigenvalues --    0.15822   0.15842   0.16034   0.16118   0.16404
  Beta virt. eigenvalues --    0.16599   0.17031   0.17206   0.17441   0.17887
  Beta virt. eigenvalues --    0.18082   0.18198   0.18384   0.18734   0.18848
  Beta virt. eigenvalues --    0.19058   0.19231   0.19563   0.19725   0.19857
  Beta virt. eigenvalues --    0.20063   0.20116   0.20551   0.20737   0.20907
  Beta virt. eigenvalues --    0.21099   0.21501   0.21779   0.22031   0.22153
  Beta virt. eigenvalues --    0.22474   0.22654   0.22761   0.22927   0.23051
  Beta virt. eigenvalues --    0.23227   0.23531   0.23654   0.23938   0.24056
  Beta virt. eigenvalues --    0.24201   0.24697   0.24856   0.25048   0.25131
  Beta virt. eigenvalues --    0.25298   0.25459   0.25647   0.26090   0.26407
  Beta virt. eigenvalues --    0.26641   0.26860   0.27088   0.27216   0.27401
  Beta virt. eigenvalues --    0.27684   0.27850   0.28171   0.28386   0.28641
  Beta virt. eigenvalues --    0.28776   0.28897   0.29026   0.29254   0.29589
  Beta virt. eigenvalues --    0.29862   0.30048   0.30255   0.30678   0.30733
  Beta virt. eigenvalues --    0.30784   0.31108   0.31391   0.31634   0.31672
  Beta virt. eigenvalues --    0.31692   0.31821   0.32001   0.32296   0.32476
  Beta virt. eigenvalues --    0.32751   0.33099   0.33237   0.33334   0.33738
  Beta virt. eigenvalues --    0.33925   0.34144   0.34161   0.34463   0.34611
  Beta virt. eigenvalues --    0.34733   0.34975   0.35173   0.35298   0.35479
  Beta virt. eigenvalues --    0.35726   0.35816   0.36067   0.36178   0.36444
  Beta virt. eigenvalues --    0.36575   0.36597   0.36783   0.36943   0.37175
  Beta virt. eigenvalues --    0.37343   0.37430   0.37487   0.37780   0.38050
  Beta virt. eigenvalues --    0.38165   0.38434   0.38503   0.38598   0.38744
  Beta virt. eigenvalues --    0.38914   0.39205   0.39276   0.39560   0.39712
  Beta virt. eigenvalues --    0.39906   0.39992   0.40304   0.40381   0.40679
  Beta virt. eigenvalues --    0.40779   0.41097   0.41218   0.41298   0.41433
  Beta virt. eigenvalues --    0.41632   0.41879   0.42033   0.42124   0.42377
  Beta virt. eigenvalues --    0.42527   0.42689   0.42823   0.42924   0.43113
  Beta virt. eigenvalues --    0.43239   0.43411   0.43487   0.43593   0.43780
  Beta virt. eigenvalues --    0.43889   0.44217   0.44400   0.44642   0.44843
  Beta virt. eigenvalues --    0.45023   0.45192   0.45273   0.45362   0.45520
  Beta virt. eigenvalues --    0.45755   0.46197   0.46233   0.46631   0.46744
  Beta virt. eigenvalues --    0.46797   0.46829   0.47056   0.47252   0.47405
  Beta virt. eigenvalues --    0.47556   0.47988   0.48213   0.48379   0.48537
  Beta virt. eigenvalues --    0.48855   0.49159   0.49359   0.49730   0.49887
  Beta virt. eigenvalues --    0.50144   0.50265   0.50598   0.50818   0.51053
  Beta virt. eigenvalues --    0.51488   0.51583   0.51792   0.51908   0.52139
  Beta virt. eigenvalues --    0.52801   0.53077   0.53165   0.53405   0.53794
  Beta virt. eigenvalues --    0.54014   0.54168   0.54274   0.54432   0.54930
  Beta virt. eigenvalues --    0.55081   0.55310   0.55520   0.55745   0.55961
  Beta virt. eigenvalues --    0.56087   0.56465   0.56530   0.56958   0.57096
  Beta virt. eigenvalues --    0.57610   0.57877   0.58312   0.58462   0.58745
  Beta virt. eigenvalues --    0.58859   0.59157   0.59568   0.59774   0.60050
  Beta virt. eigenvalues --    0.60400   0.60594   0.61069   0.61189   0.61318
  Beta virt. eigenvalues --    0.61543   0.61826   0.62104   0.62159   0.62668
  Beta virt. eigenvalues --    0.62860   0.62998   0.63254   0.63778   0.63852
  Beta virt. eigenvalues --    0.64188   0.64498   0.64601   0.64841   0.65444
  Beta virt. eigenvalues --    0.65885   0.66155   0.66368   0.66715   0.66992
  Beta virt. eigenvalues --    0.67311   0.67600   0.67728   0.68034   0.68248
  Beta virt. eigenvalues --    0.68455   0.68619   0.68691   0.68984   0.69523
  Beta virt. eigenvalues --    0.69718   0.70249   0.70518   0.70670   0.71310
  Beta virt. eigenvalues --    0.71371   0.71594   0.71839   0.72075   0.72678
  Beta virt. eigenvalues --    0.72768   0.73312   0.73379   0.73949   0.74305
  Beta virt. eigenvalues --    0.74574   0.74832   0.75426   0.75589   0.75695
  Beta virt. eigenvalues --    0.76066   0.76288   0.76563   0.76792   0.77110
  Beta virt. eigenvalues --    0.77570   0.77704   0.77980   0.78475   0.78575
  Beta virt. eigenvalues --    0.78677   0.79257   0.79655   0.79740   0.80207
  Beta virt. eigenvalues --    0.80399   0.80693   0.81254   0.81282   0.81471
[...]
  1720. RY*(   3) H  80                  0.00005     2.19323   
  1721. RY*(   4) H  80                  0.00003     2.34130   
  1722. RY*(   5) H  80                  0.00001     2.98239   
  1723. RY*(   1) H  81                  0.00018     1.62569   
  1724. RY*(   2) H  81                  0.00005     2.02079   
  1725. RY*(   3) H  81                  0.00005     2.15319   
  1726. RY*(   4) H  81                  0.00002     1.58919   
  1727. RY*(   5) H  81                  0.00000     3.01474   
  1728. RY*(   1) H  82                  0.00037     0.93398   
  1729. RY*(   2) H  82                  0.00009     1.59277   
  1730. RY*(   3) H  82                  0.00005     2.17371   
  1731. RY*(   4) H  82                  0.00003     2.38569   
  1732. RY*(   5) H  82                  0.00001     3.02977   
  1733. RY*(   1) H  83                  0.00084     0.58606   
  1734. RY*(   2) H  83                  0.00013     2.05312   
  1735. RY*(   3) H  83                  0.00012     2.16762   
  1736. RY*(   4) H  83                  0.00005     3.01238   
  1737. RY*(   5) H  83                  0.00000     3.13639   
  1738. RY*(   1) H  84                  0.00018     1.59458   
  1739. RY*(   2) H  84                  0.00005     2.00420   
  1740. RY*(   3) H  84                  0.00005     2.13330   
  1741. RY*(   4) H  84                  0.00002     1.64706   
  1742. RY*(   5) H  84                  0.00000     3.02314   
  1743. RY*(   1) H  85                  0.00032     1.00148   
  1744. RY*(   2) H  85                  0.00010     1.54518   
  1745. RY*(   3) H  85                  0.00005     2.17734   
  1746. RY*(   4) H  85                  0.00003     2.34183   
  1747. RY*(   5) H  85                  0.00001     3.00640   
  1748. RY*(   1) H  86                  0.00031     0.92152   
  1749. RY*(   2) H  86                  0.00010     1.60199   
  1750. RY*(   3) H  86                  0.00005     2.16739   
  1751. RY*(   4) H  86                  0.00003     2.37286   
  1752. RY*(   5) H  86                  0.00000     2.99174   
  1753. RY*(   1) H  87                  0.00095     0.58740   
  1754. RY*(   2) H  87                  0.00014     2.04995   
  1755. RY*(   3) H  87                  0.00012     2.16463   
  1756. RY*(   4) H  87                  0.00006     3.03803   
  1757. RY*(   5) H  87                  0.00000     3.16047   
  1758. RY*(   1) H  88                  0.00018     1.25724   
  1759. RY*(   2) H  88                  0.00006     1.67870   
  1760. RY*(   3) H  88                  0.00004     1.98282   
  1761. RY*(   4) H  88                  0.00002     1.65412   
  1762. RY*(   5) H  88                  0.00001     2.71285   
  1763. RY*(   1) H  89                  0.00023     1.18492   
  1764. RY*(   2) H  89                  0.00007     1.84398   
  1765. RY*(   3) H  89                  0.00003     1.95131   
  1766. RY*(   4) H  89                  0.00002     1.42585   
  1767. RY*(   5) H  89                  0.00000     2.84876   
  1768. RY*(   1) H  90                  0.00019     1.22153   
  1769. RY*(   2) H  90                  0.00007     1.88647   
  1770. RY*(   3) H  90                  0.00003     1.89555   
  1771. RY*(   4) H  90                  0.00002     1.44201   
  1772. RY*(   5) H  90                  0.00000     2.82018   
  1773. RY*(   1) H  91                  0.00027     0.70113   
  1774. RY*(   2) H  91                  0.00018     2.10900   
  1775. RY*(   3) H  91                  0.00013     2.19823   
  1776. RY*(   4) H  91                  0.00003     2.61160   
  1777. RY*(   5) H  91                  0.00000     3.00744   
  1778. RY*(   1) H  92                  0.00026     2.09393   
  1779. RY*(   2) H  92                  0.00022     2.04123   
  1780. RY*(   3) H  92                  0.00010     2.53158   
  1781. RY*(   4) H  92                  0.00007     1.12092   
  1782. RY*(   5) H  92                  0.00001     3.00800   
  1783. RY*(   1) H  93                  0.00034     0.52661   
  1784. RY*(   2) H  93                  0.00019     2.31417   
  1785. RY*(   3) H  93                  0.00009     2.16731   
  1786. RY*(   4) H  93                  0.00002     2.48483   
  1787. RY*(   5) H  93                  0.00001     2.97843   
  1788. RY*(   1) H  94                  0.00028     1.26368   
  1789. RY*(   2) H  94                  0.00007     1.61189   
  1790. RY*(   3) H  94                  0.00006     1.81942   
  1791. RY*(   4) H  94                  0.00001     1.59989   
  1792. RY*(   5) H  94                  0.00001     2.78178   
  1793. RY*(   1) H  95                  0.00024     1.37840   
  1794. RY*(   2) H  95                  0.00008     1.65727   
  1795. RY*(   3) H  95                  0.00005     1.41583   
  1796. RY*(   4) H  95                  0.00001     2.76753   
  1797. RY*(   5) H  95                  0.00001     1.81995   
  1798. RY*(   1) H  96                  0.00030     1.29553   
  1799. RY*(   2) H  96                  0.00014     1.20404   
  1800. RY*(   3) H  96                  0.00006     1.82249   
  1801. RY*(   4) H  96                  0.00006     2.20470   
  1802. RY*(   5) H  96                  0.00002     2.94126   
  1803. RY*(   1) H  97                  0.00031     1.24187   
  1804. RY*(   2) H  97                  0.00009     1.65969   
  1805. RY*(   3) H  97                  0.00003     1.69718   
  1806. RY*(   4) H  97                  0.00001     2.78371   
  1807. RY*(   5) H  97                  0.00000     1.71795   
  1808. RY*(   1) H  98                  0.00050     0.96579   
  1809. RY*(   2) H  98                  0.00007     1.57565   
  1810. RY*(   3) H  98                  0.00006     1.92037   
  1811. RY*(   4) H  98                  0.00004     2.24262   
  1812. RY*(   5) H  98                  0.00001     2.51695   
  1813. RY*(   1) H  99                  0.00041     1.47770   
  1814. RY*(   2) H  99                  0.00010     1.20596   
  1815. RY*(   3) H  99                  0.00006     1.92108   
  1816. RY*(   4) H  99                  0.00005     2.44625   
  1817. RY*(   5) H  99                  0.00001     2.91834   
  1818. BD*(   1) C   1 - C   2          0.00655     0.26490   
  1819. BD*(   1) C   1 - H  88          0.00147     0.30244   
  1820. BD*(   1) C   1 - H  89          0.00382     0.30791   
  1821. BD*(   1) C   1 - H  90          0.00318     0.30825   
  1822. BD*(   1) C   2 - N   3          0.01151     0.34623   
  1823. BD*(   2) C   2 - N   3          0.36143    -0.14604  1828(v),188(v),1820(v)
                                                    260(g),233(g),1821(v),237(g)
  1824. BD*(   1) C   2 - C   4          0.01046     0.43042   
  1825. BD*(   1) N   3 - C   5          0.00989     0.32846   
  1826. BD*(   1) N   3 - H  92          0.00684     0.28575   
  1827. BD*(   1) C   4 - N   6          0.00811     0.37620   
  1828. BD*(   2) C   4 - N   6          0.32243    -0.12405  1823(v),188(v),206(v),286(g)
                                                    339(g),312(v)
  1829. BD*(   1) C   4 - H  91          0.00634     0.32223   
  1830. BD*(   1) C   5 - N   6          0.00926     0.34733   
  1831. BD*(   1) C   5 - H  93          0.00647     0.28442   
  1832. BD*(   1) N   6 -Fe  53          0.03488     0.25680   
  1833. BD*(   1) C   7 - C   8          0.00735     0.24206   
  1834. BD*(   1) C   7 - H  54          0.00310     0.33139   
  1835. BD*(   1) C   7 - H  55          0.00261     0.32404   
  1836. BD*(   1) C   7 - H  56          0.00470     0.32983   
  1837. BD*(   1) C   8 - S   9          0.01844     0.06922   
  1838. BD*(   1) C   8 - H  57          0.00856     0.29603   
  1839. BD*(   1) C   8 - H  58          0.00539     0.30959   
  1840. BD*(   1) S   9 - C  10          0.01135     0.06573   
  1841. BD*(   1) S   9 -Fe  53          0.03206     0.24984   
  1842. BD*(   1) C  10 - H  59          0.00814     0.30139   
  1843. BD*(   1) C  10 - H  60          0.00631     0.29728   
  1844. BD*(   1) C  10 - H  61          0.00343     0.30808   
  1845. BD*(   1) C  11 - C  15          0.01181     0.47633   
  1846. BD*(   2) C  11 - C  15          0.21244    -0.05889  1861(v),1866(v),199(v)
                                                    469(g),577(g),575(g)
  1847. BD*(   1) C  11 - C  42          0.01118     0.47207   
  1848. BD*(   1) C  11 - H  75          0.00642     0.34967   
  1849. BD*(   1) C  12 - C  18          0.01157     0.48540   
  1850. BD*(   1) C  12 - C  25          0.01094     0.48179   
  1851. BD*(   1) C  12 - H  87          0.00653     0.35349   
  1852. BD*(   1) C  13 - C  28          0.01073     0.47954   
  1853. BD*(   1) C  13 - C  32          0.01086     0.47443   
  1854. BD*(   1) C  13 - H  83          0.00647     0.35673   
  1855. BD*(   1) C  14 - C  35          0.01159     0.49139   
  1856. BD*(   1) C  14 - C  39          0.01118     0.48452   
  1857. BD*(   1) C  14 - H  79          0.00705     0.35555   
  1858. BD*(   1) C  15 - C  16          0.01598     0.48025   
  1859. BD*(   1) C  15 - N  49          0.01483     0.43128   
  1860. BD*(   1) C  16 - C  17          0.01209     0.48514   
  1861. BD*(   2) C  16 - C  17          0.13653    -0.03354  1846(v),1866(v),1870(v)
                                                    1868(v),1869(v)
  1862. BD*(   1) C  16 - C  20          0.01192     0.32933   
  1863. BD*(   1) C  17 - C  18          0.01528     0.48726   
  1864. BD*(   1) C  17 - C  19          0.00852     0.30584   
  1865. BD*(   1) C  18 - N  49          0.01482     0.42670   
  1866. BD*(   2) C  18 - N  49          0.33374    -0.09449  1861(v),1846(v),1882(r)
                                                    653(g),496(v),1458(g),206(v)
  1867. BD*(   1) C  19 - H  72          0.00283     0.33491   
  1868. BD*(   1) C  19 - H  73          0.00414     0.32395   
  1869. BD*(   1) C  19 - H  74          0.00392     0.32456   
  1870. BD*(   1) C  20 - C  21          0.00625     0.29160   
  1871. BD*(   1) C  20 - H  70          0.00712     0.33436   
  1872. BD*(   1) C  20 - H  71          0.00661     0.33959   
  1873. BD*(   1) C  21 - C  22          0.03596     0.26427   
  1874. BD*(   1) C  21 - H  68          0.00649     0.30942   
  1875. BD*(   1) C  21 - H  69          0.00589     0.31799   
  1876. BD*(   1) C  22 - O  23          0.01471     0.51749   
  1877. BD*(   2) C  22 - O  23          0.10195    -0.06730  1873(g),1878(g),1874(v)
                                                    1875(v),1879(v),1876(g)
  1878. BD*(   1) C  22 - O  24          0.03864     0.36540   
  1879. BD*(   1) O  24 - H  67          0.00585     0.33590   
  1880. BD*(   1) C  25 - C  26          0.01533     0.45744   
  1881. BD*(   1) C  25 - N  50          0.01424     0.41668   
  1882. BD*(   2) C  25 - N  50          0.32705    -0.09295  1884(v),197(v),1866(r)
                                                    835(g),206(v),1484(g),496(v)
  1883. BD*(   1) C  26 - C  27          0.01334     0.46498   
  1884. BD*(   2) C  26 - C  27          0.13612    -0.03578  1882(v),197(v),1893(v)
                                                    1894(v),1891(v),1890(v)
                                                    1892(v)
  1885. BD*(   1) C  26 - C  29          0.00792     0.30794   
  1886. BD*(   1) C  27 - C  28          0.01825     0.45794   
  1887. BD*(   1) C  27 - C  30          0.01070     0.30811   
  1888. BD*(   1) C  28 - N  50          0.01481     0.40583   
  1889. BD*(   1) C  29 - H  84          0.00266     0.33544   
  1890. BD*(   1) C  29 - H  85          0.00373     0.33503   
  1891. BD*(   1) C  29 - H  86          0.00377     0.33326   
  1892. BD*(   1) C  30 - C  31          0.00236     0.28033   
  1893. BD*(   2) C  30 - C  31          0.01758    -0.07167   
  1894. BD*(   1) C  30 - H  96          0.00693     0.37256   
  1895. BD*(   1) C  31 - H  94          0.00199     0.36404   
  1896. BD*(   1) C  31 - H  95          0.00236     0.37107   
  1897. BD*(   1) C  32 - C  33          0.01537     0.46737   
  1898. BD*(   1) C  32 - N  51          0.01502     0.41908   
  1899. BD*(   2) C  32 - N  51          0.33557    -0.09674  1901(v),198(v),1017(g)
                                                    206(v),1510(g),522(v)
  1900. BD*(   1) C  33 - C  34          0.01397     0.48927   
  1901. BD*(   2) C  33 - C  34          0.14046    -0.03341  1899(v),198(v),1910(v)
                                                    1908(v),1911(v),1906(v)
                                                    1909(v)
  1902. BD*(   1) C  33 - C  36          0.00815     0.31027   
  1903. BD*(   1) C  34 - C  35          0.01666     0.48518   
  1904. BD*(   1) C  34 - C  37          0.01081     0.31358   
  1905. BD*(   1) C  35 - N  51          0.01470     0.43299   
  1906. BD*(   1) C  36 - H  80          0.00405     0.33062   
  1907. BD*(   1) C  36 - H  81          0.00259     0.33466   
  1908. BD*(   1) C  36 - H  82          0.00438     0.32746   
  1909. BD*(   1) C  37 - C  38          0.00338     0.26788   
  1910. BD*(   2) C  37 - C  38          0.01181    -0.06490   
  1911. BD*(   1) C  37 - H  99          0.00590     0.36226   
  1912. BD*(   1) C  38 - H  97          0.00197     0.35676   
  1913. BD*(   1) C  38 - H  98          0.00215     0.35131   
  1914. BD*(   1) C  39 - C  40          0.01507     0.46428   
  1915. BD*(   1) C  39 - N  52          0.01543     0.39601   
  1916. BD*(   2) C  39 - N  52          0.33908    -0.10096  1918(v),199(v),206(v)
                                                    1199(g),1536(g),548(v)
                                                    1841(v)
  1917. BD*(   1) C  40 - C  41          0.01173     0.46805   
  1918. BD*(   2) C  40 - C  41          0.13908    -0.04000  1916(v),199(v),1926(v)
                                                    1923(v),1925(v)
  1919. BD*(   1) C  40 - C  43          0.00825     0.29377   
  1920. BD*(   1) C  41 - C  42          0.01508     0.46049   
  1921. BD*(   1) C  41 - C  44          0.01201     0.30924   
  1922. BD*(   1) C  42 - N  52          0.01567     0.39461   
  1923. BD*(   1) C  43 - H  76          0.00417     0.32173   
  1924. BD*(   1) C  43 - H  77          0.00253     0.32827   
  1925. BD*(   1) C  43 - H  78          0.00343     0.32202   
  1926. BD*(   1) C  44 - C  45          0.00790     0.27216   
  1927. BD*(   1) C  44 - H  64          0.00616     0.32971   
  1928. BD*(   1) C  44 - H  65          0.00741     0.31675   
  1929. BD*(   1) C  45 - C  46          0.03004     0.24505   
  1930. BD*(   1) C  45 - H  62          0.00612     0.30733   
  1931. BD*(   1) C  45 - H  63          0.00487     0.31369   
  1932. BD*(   1) C  46 - O  47          0.01276     0.49345   
  1933. BD*(   2) C  46 - O  47          0.10219    -0.05851  1932(g),1930(v),1381(g)
  1934. BD*(   1) C  46 - O  48          0.04344     0.30819   
  1935. BD*(   1) O  48 - H  66          0.00477     0.33841   
  1936. BD*(   1) N  49 -Fe  53          0.03049     0.28038   
  1937. BD*(   1) N  50 -Fe  53          0.03584     0.29486   
  1938. BD*(   1) N  51 -Fe  53          0.03088     0.28999   
  1939. BD*(   1) N  52 -Fe  53          0.03143     0.28548   
       -------------------------------
              Total Lewis  197.32610  ( 97.2050%)
        Valence non-Lewis    5.28179  (  2.6019%)
        Rydberg non-Lewis    0.39211  (  0.1932%)
       -------------------------------
            Total unit  1  203.00000  (100.0000%)
           Charge unit  1    1.00000
 1\1\GINC-NODE625\SP\UPBE1PBE\def2TZVP\C41H46Fe1N6O4S1(1+,2)\ZHARTOVSKA
 \09-Feb-2023\0\\# PBE1PBE/def2TZVP empiricaldispersion=GD3BJ scf=maxcy
 cle=999 geom=check pop=nbo\\351c_III_D\\1,2\C,0,10.506,-8.059,15.816\C
 ,0,10.646,-9.475,16.347\N,0,11.609,-10.329,15.917\C,0,9.806,-10.17,17.
 202999\C,0,11.386,-11.535,16.502001\N,0,10.281,-11.443,17.297001\C,0,9
 .901,-15.818,21.115999\C,0,8.608,-15.006,20.93\S,0,8.151,-14.706,19.20
 9\C,0,8.392,-16.289,18.379999\C,0,11.705,-15.247,17.135\C,0,7.609,-13.
 457,15.336\C,0,6.886,-11.003,19.43\C,0,11.262,-12.316,20.955\C,0,10.64
 7,-14.993,16.285\C,0,10.462,-15.551,15.035\C,0,9.322,-14.979,14.496\C,
 0,8.792,-14.154,15.459\C,0,8.722,-15.221,13.128\C,0,11.327,-16.6,14.39
 4\C,0,10.913,-17.951,14.931\C,0,11.757,-19.049,14.31\O,0,12.606,-18.74
 2001,13.48\O,0,11.154,-20.173,14.12\C,0,7.06,-12.605,16.271999\C,0,5.8
 13,-11.987,16.164\C,0,5.554,-11.363,17.382\C,0,6.7,-11.518,18.162001\C
 ,0,4.877,-12.076,14.978\C,0,4.282,-10.647,17.806999\C,0,3.058,-11.55,1
 7.913\C,0,8.014,-11.167,20.215\C,0,8.233,-10.548,21.438999\C,0,9.538,-
 10.804,21.785999\C,0,10.029,-11.717,20.882999\C,0,7.296,-9.624,22.1779
 99\C,0,10.314,-10.142,22.9\C,0,9.856,-10.481,24.302999\C,0,11.751,-13.
 246,20.066\C,0,12.957,-13.92,20.209999\C,0,13.035,-14.83,19.16\C,0,11.
 925,-14.622,18.348\C,0,13.973,-13.709,21.320999\C,0,14.131,-15.841,18.
 905001\C,0,13.737,-17.233999,19.374001\C,0,14.831,-18.243999,19.018999
 \O,0,14.501,-19.413,18.804001\O,0,16.113001,-17.959,19.183001\N,0,9.62
 8,-14.14,16.524\N,0,7.596,-12.302,17.486\N,0,9.124,-11.881,19.898001\N
 ,0,11.12,-13.672,18.924999\Fe,0,9.405,-12.974,18.219\H,0,10.67399188,-
 15.17778236,21.48681556\H,0,9.72766535,-16.60955442,21.81478129\H,0,10
 .20082861,-16.23153754,20.17579184\H,0,7.8069836,-15.53246791,21.40550
 422\H,0,8.72936864,-14.06104649,21.41706521\H,0,9.30548383,-16.7326877
 1,18.71702794\H,0,7.57385875,-16.93957557,18.60868288\H,0,8.43967129,-
 16.13411822,17.32234164\H,0,13.59624653,-17.22336679,20.43464958\H,0,1
 2.82249519,-17.52162495,18.89876184\H,0,15.01448836,-15.53537176,19.42
 551969\H,0,14.33817516,-15.87260544,17.85572527\H,0,16.78450501,-18.55
 363723,18.84081841\H,0,11.66446034,-20.97466485,13.98448726\H,0,11.042
 45449,-17.96381213,15.9930628\H,0,9.88282622,-18.12301905,14.69851036\
 H,0,12.3536577,-16.4161576,14.6329057\H,0,11.19410514,-16.57770676,13.
 33251897\H,0,9.38262966,-15.8350694,12.55233758\H,0,7.77853924,-15.714
 38786,13.23453737\H,0,8.58058445,-14.28465555,12.62984268\H,0,12.41297
 039,-15.98884884,16.82948695\H,0,14.86125385,-13.27289381,20.9139161\H
 ,0,13.56148116,-13.05500914,22.06116668\H,0,14.2113675,-14.65058659,21
 .76988163\H,0,11.89595662,-12.0365548,21.77041976\H,0,7.75946122,-8.66
 70133,22.29749861\H,0,6.38967718,-9.51417747,21.61995065\H,0,7.0745692
 ,-10.03573327,23.14046672\H,0,6.08570235,-10.42500433,19.84272835\H,0,
 5.34296267,-12.64039425,14.19746306\H,0,3.96988101,-12.55953047,15.275
 0411\H,0,4.65642184,-11.09099662,14.62301603\H,0,7.06308278,-13.589802
 75,14.42537504\H,0,11.34305378,-7.82816596,15.19073477\H,0,9.60319061,
 -7.97897834,15.24728941\H,0,10.47312219,-7.37224917,16.63587337\H,0,8.
 94264968,-9.77820921,17.69900928\H,0,12.3504467,-10.10986987,15.282777
 03\H,0,11.98023491,-12.41373768,16.36198328\H,0,3.1810822,-12.60564889
 ,18.03692009\H,0,2.0759628,-11.12804095,17.86346724\H,0,4.24852269,-9.
 59780029,18.01426513\H,0,10.57743644,-10.66659345,25.07110351\H,0,8.81
 094115,-10.53494366,24.5262524\H,0,11.13183644,-9.47852988,22.71065649
 \\Version=ES64L-G16RevA.03\State=2-A\HF=-3879.175671\S2=0.828687\S2-1=
 0.\S2A=0.751548\RMSD=1.675e-09\Dipole=0.0192912,2.3979528,0.2345443\Qu
 adrupole=3.1197935,2.551063,-5.6708564,-1.2915585,5.7921155,-2.433121\
 PG=C01 [X(C41H46Fe1N6O4S1)]\\@


 ALTHOUGH J.J. COULD DIAGNOSE THE FAULTS OF AN
 APPARATUS WITH UNCANNY ACCURACY, IT WAS JUST AS
 WELL NOT TO LET HIM HANDLE IT.
   -- GEORGE THOMPSON, ABOUT HIS FATHER
 Job cpu time:       8 days 11 hours 26 minutes 54.7 seconds.
 Elapsed time:       2 days  3 hours  3 minutes 13.1 seconds.
 File lengths (MBytes):  RWF=   3452 Int=      0 D2E=      0 Chk=    303 Scr=      1
 Normal termination of Gaussian 16 at Thu Feb  9 23:05:31 2023.
