 Entering Gaussian System, Link 0=g16
 Input=/net/homes/chemie/zhartovska/work/BioModel/Konrad/1h9x/hemec/1h9xc12/1h9xc16/1h9xc16.com
 Output=/net/homes/chemie/zhartovska/work/BioModel/Konrad/1h9x/hemec/1h9xc12/1h9xc16/1h9xc16.log
 Initial command:
 /afs/math/software/gaussian/g16.A03/g16/l1.exe "/scratch/zhartovska_gaussian.Gg09gRr/Gau-27148.inp" -scrdir="/scratch/zhartovska_gaussian.Gg09gRr/"
 Entering Link 1 = /afs/math/software/gaussian/g16.A03/g16/l1.exe PID=     27149.
  
 Copyright (c) 1988,1990,1992,1993,1995,1998,2003,2009,2016,
            Gaussian, Inc.  All Rights Reserved.
  
 This is part of the Gaussian(R) 16 program.  It is based on
 the Gaussian(R) 09 system (copyright 2009, Gaussian, Inc.),
 the Gaussian(R) 03 system (copyright 2003, Gaussian, Inc.),
 the Gaussian(R) 98 system (copyright 1998, Gaussian, Inc.),
 the Gaussian(R) 94 system (copyright 1995, Gaussian, Inc.),
 the Gaussian 92(TM) system (copyright 1992, Gaussian, Inc.),
 the Gaussian 90(TM) system (copyright 1990, Gaussian, Inc.),
 the Gaussian 88(TM) system (copyright 1988, Gaussian, Inc.),
 the Gaussian 86(TM) system (copyright 1986, Carnegie Mellon
 University), and the Gaussian 82(TM) system (copyright 1983,
 Carnegie Mellon University). Gaussian is a federally registered
 trademark of Gaussian, Inc.
  
 This software contains proprietary and confidential information,
 including trade secrets, belonging to Gaussian, Inc.
  
 This software is provided under written license and may be
 used, copied, transmitted, or stored only in accord with that
 written license.
  
 The following legend is applicable only to US Government
 contracts under FAR:
  
                    RESTRICTED RIGHTS LEGEND
  
 Use, reproduction and disclosure by the US Government is
 subject to restrictions as set forth in subparagraphs (a)
 and (c) of the Commercial Computer Software - Restricted
 Rights clause in FAR 52.227-19.
  
 Gaussian, Inc.
 340 Quinnipiac St., Bldg. 40, Wallingford CT 06492
  
  
 ---------------------------------------------------------------
 Warning -- This program may not be used in any manner that
 competes with the business of Gaussian, Inc. or will provide
 assistance to any competitor of Gaussian, Inc.  The licensee
 of this program is prohibited from giving any competitor of
 Gaussian, Inc. access to this program.  By using this program,
 the user acknowledges that Gaussian, Inc. is engaged in the
 business of creating and licensing software in the field of
 computational chemistry and represents and warrants to the
 licensee that it is not a competitor of Gaussian, Inc. and that
 it will not use this program in any manner prohibited above.
 ---------------------------------------------------------------
  

 Cite this work as:
 Gaussian 16, Revision A.03,
 M. J. Frisch, G. W. Trucks, H. B. Schlegel, G. E. Scuseria, 
 M. A. Robb, J. R. Cheeseman, G. Scalmani, V. Barone, 
 G. A. Petersson, H. Nakatsuji, X. Li, M. Caricato, A. V. Marenich, 
 J. Bloino, B. G. Janesko, R. Gomperts, B. Mennucci, H. P. Hratchian, 
 J. V. Ortiz, A. F. Izmaylov, J. L. Sonnenberg, D. Williams-Young, 
 F. Ding, F. Lipparini, F. Egidi, J. Goings, B. Peng, A. Petrone, 
 T. Henderson, D. Ranasinghe, V. G. Zakrzewski, J. Gao, N. Rega, 
 G. Zheng, W. Liang, M. Hada, M. Ehara, K. Toyota, R. Fukuda, 
 J. Hasegawa, M. Ishida, T. Nakajima, Y. Honda, O. Kitao, H. Nakai, 
 T. Vreven, K. Throssell, J. A. Montgomery, Jr., J. E. Peralta, 
 F. Ogliaro, M. J. Bearpark, J. J. Heyd, E. N. Brothers, K. N. Kudin, 
 V. N. Staroverov, T. A. Keith, R. Kobayashi, J. Normand, 
 K. Raghavachari, A. P. Rendell, J. C. Burant, S. S. Iyengar, 
 J. Tomasi, M. Cossi, J. M. Millam, M. Klene, C. Adamo, R. Cammi, 
 J. W. Ochterski, R. L. Martin, K. Morokuma, O. Farkas, 
 J. B. Foresman, and D. J. Fox, Gaussian, Inc., Wallingford CT, 2016.
 
 ******************************************
 Gaussian 16:  ES64L-G16RevA.03 25-Dec-2016
                29-Sep-2022 
 ******************************************
 %nprocs=12
 Will use up to   12 processors via shared memory.
 %mem=16GB
 %oldchk=1h9xc_III_D.chk
 %chk=1h9xc_III_H.chk
 Copying data from "1h9xc_III_D.chk" to current chk file "1h9xc_III_H.chk"
 IOpt=  2 FromEx=T IUOpen= 4 IOptOp= 5 NList=   0 IFRang= 0 IUIn= 4 IUOut= 2.
 ----------------------------------------------------------------------
 # PBE1PBE/def2TZVP empiricaldispersion=GD3BJ scf=maxcycle=999 geom=che
 ck pop=nbo
 ----------------------------------------------------------------------
 1/29=2,38=1,172=1/1;
 2/12=2,40=1/2;
 3/5=44,7=101,11=2,14=-4,25=1,30=1,74=-13,124=41/1,2,3;
 4//1;
 5/5=2,7=999,38=5/2;
 6/7=2,8=2,9=2,10=2,28=1,40=1/1,7;
 99/5=1,9=1/99;
 -----------
 1h9xc_III_H
 -----------
 Structure from the checkpoint file:  "1h9xc_III_H.chk"
 Charge =  1 Multiplicity = 6
 Z-Matrix found in chk file.
 C,0,108.765999,41.389999,198.218002
 C,0,109.397003,41.452,196.856003
 N,0,108.658997,41.402,195.705002
 C,0,110.708,41.555,196.488998
 C,0,109.480003,41.455002,194.664993
 N,0,110.721001,41.555,195.100998
 C,0,113.728996,43.437,190.542999
 C,0,114.058998,42.056,191.041
 S,0,114.267998,41.828999,192.822998
 C,0,115.002998,40.182999,192.723007
 Fe,0,112.424004,41.676998,194.016998
 C,0,110.544998,41.091,191.162003
 C,0,112.714996,38.337002,194.487
 C,0,114.471001,42.27,196.733994
 C,0,111.820999,45.012001,193.757996
 N,0,111.765999,40.029999,193.024002
 C,0,111.037003,40.008999,191.850998
 C,0,110.902,38.625999,191.427994
 C,0,111.483002,37.854,192.328995
 C,0,112.009003,38.731998,193.371994
 C,0,111.610001,36.312,192.376007
 C,0,110.147003,38.23,190.123001
 C,0,108.632004,38.055,190.399002
 C,0,107.761002,37.967999,189.171005
 O,0,106.549004,37.679001,189.343002
 O,0,108.268997,38.198002,188.056
 N,0,113.362999,40.544998,195.330994
 C,0,113.367996,39.154999,195.386002
 C,0,114.176003,38.714001,196.488998
 C,0,114.667999,39.801998,197.082993
 C,0,114.186996,40.957001,196.388
 C,0,114.400002,37.226002,196.867996
 C,0,115.609001,39.785999,198.343994
 C,0,116.93910131,39.36235088,198.22039219
 N,0,113.030998,43.317001,195.031998
 C,0,113.892998,43.360001,196.115997
 C,0,114.055,44.737999,196.531006
 C,0,113.342003,45.491001,195.697998
 C,0,112.657997,44.615002,194.770004
 C,0,114.928001,45.194,197.731995
 C,0,113.154999,47.051998,195.815994
 C,0,114.23110075,47.87155515,195.73293893
 N,0,111.411003,42.783001,192.738998
 C,0,111.259003,44.183998,192.807999
 C,0,110.457001,44.629002,191.716003
 C,0,110.101997,43.554001,191.016006
 C,0,110.700996,42.396,191.619995
 C,0,110.075996,46.111,191.429001
 C,0,109.226997,43.527,189.710007
 C,0,110.176003,43.561001,188.490997
 C,0,109.574997,43.698002,187.123993
 O,0,110.362999,43.536999,186.153
 O,0,108.356003,43.978001,187.014008
 H,0,115.94617555,40.18225682,193.22829459
 H,0,114.35022389,39.47222549,193.1851617
 H,0,115.14819972,39.91899621,191.69630403
 H,0,114.50315416,43.7734876,189.88546175
 H,0,112.79839184,43.41299749,190.01545775
 H,0,113.65077302,44.10656307,191.37394211
 H,0,113.27825718,41.39903579,190.71891026
 H,0,114.96623706,41.74698599,190.56526096
 H,0,109.40904975,41.86247385,198.93085068
 H,0,107.82333991,41.89584737,198.19772235
 H,0,108.61619482,40.36751754,198.49547341
 H,0,111.55456056,41.62216616,197.1399388
 H,0,107.66237025,41.33617888,195.65598461
 H,0,109.18353866,41.42197012,193.6374144
 H,0,106.30877507,36.88029421,189.8183519
 H,0,108.49630737,37.16064743,190.9705087
 H,0,108.30022991,38.88480565,190.98743087
 H,0,110.54595057,37.30966351,189.75054753
 H,0,110.28530504,38.99659495,189.38944478
 H,0,110.02425698,40.92479571,190.24216338
 H,0,108.58252929,44.38090039,189.68962316
 H,0,108.64117116,42.63192727,189.68649328
 H,0,110.85143177,44.37910572,188.63028322
 H,0,110.74921623,42.65756873,188.50269022
 H,0,108.0891786,44.83633099,186.67685171
 H,0,112.50996941,36.04371647,192.88882355
 H,0,110.76855741,35.9004271,192.89319211
 H,0,111.63926341,35.92595899,191.37850209
 H,0,110.83579683,46.56451722,190.82739911
 H,0,109.141625,46.14470909,190.90869866
 H,0,109.98871091,46.64231407,192.35365589
 H,0,111.58351142,46.05372453,193.70044834
 H,0,112.76191326,37.28483709,194.67580619
 H,0,115.31598852,37.13069965,197.41277684
 H,0,113.5869863,36.88627729,197.4750319
 H,0,114.45148747,36.63499415,195.97751356
 H,0,115.17451012,42.44665502,197.52061203
 H,0,115.85106189,45.5959652,197.36966564
 H,0,114.40587956,45.94457312,198.28780899
 H,0,115.12847074,44.35560014,198.36587003
 H,0,112.17844475,47.46433946,195.96165226
 H,0,114.88617453,47.52307268,194.96200553
 H,0,113.90612675,48.86471768,195.50289527
 H,0,114.75063856,47.87395755,196.66833975
 H,0,115.23333813,40.09858414,199.29587001
 H,0,117.06510063,38.84964255,197.28971806
 H,0,117.58837312,40.21232937,198.25010193
 H,0,117.17939127,38.70161597,199.02698386
 Recover connectivity data from disk.
 Stoichiometry    C41H48FeN6O4S(1+,6)
 Framework group  C1[X(C41H48FeN6O4S)]
 Deg. of freedom   297
 Full point group                 C1      NOp   1
 Largest Abelian subgroup         C1      NOp   1
 Largest concise Abelian subgroup C1      NOp   1
                         Standard orientation:                         
 ---------------------------------------------------------------------
 Center     Atomic      Atomic             Coordinates (Angstroms)
 Number     Number       Type             X           Y           Z
 ---------------------------------------------------------------------
      1          6           0        2.452058   -1.025755    5.162792
      2          6           0        1.651891   -0.747677    3.922044
      3          7           0        0.287472   -0.647492    3.938764
      4          6           0        2.053335   -0.557297    2.631070
      5          6           0       -0.142303   -0.420604    2.704951
      6          7           0        0.895433   -0.353022    1.893339
      7          6           0       -1.120115    2.256990   -2.849099
      8          6           0       -0.679046    0.827008   -3.006187
      9         16           0        0.902632    0.346249   -2.272776
     10          6           0        1.028229   -1.247212   -3.112209
     11         26           0        0.905995   -0.028162   -0.102785
     12          6           0       -2.555194   -0.237735   -0.066721
     13          6           0        1.086365   -3.392107   -0.438190
     14          6           0        4.341598    0.213047   -0.352527
     15          6           0        0.736012    3.291606    0.606570
     16          7           0       -0.459664   -1.528184   -0.231341
     17          6           0       -1.834547   -1.395853   -0.230853
     18          6           0       -2.414215   -2.704771   -0.476950
     19          6           0       -1.434013   -3.585160   -0.574254
     20          6           0       -0.181638   -2.856354   -0.385035
     21          6           0       -1.497299   -5.113436   -0.811885
     22          6           0       -3.955139   -2.924531   -0.561216
     23          6           0       -4.549534   -3.178120    0.847475
     24          6           0       -6.053472   -3.106719    0.932687
     25          8           0       -6.586405   -3.449749    2.019128
     26          8           0       -6.693297   -2.702060   -0.057804
     27          7           0        2.383633   -1.315745   -0.322869
     28          6           0        2.278889   -2.698120   -0.437836
     29          6           0        3.586049   -3.274901   -0.588205
     30          6           0        4.466710   -2.273378   -0.584226
     31          6           0        3.754952   -1.041904   -0.425214
     32          6           0        3.858985   -4.795998   -0.728660
     33          6           0        6.024239   -2.449625   -0.721721
     34          6           0        6.581937   -2.815249   -1.954284
     35          7           0        2.262186    1.460362    0.079747
     36          6           0        3.635625    1.366373   -0.077661
     37          6           0        4.222408    2.672233    0.140906
     38          6           0        3.226885    3.520363    0.383575
     39          6           0        1.987112    2.772465    0.388451
     40          6           0        5.745513    2.969719    0.076905
     41          6           0        3.398795    5.041595    0.760275
     42          6           0        3.992626    5.892584   -0.111362
     43          7           0       -0.583712    1.226473    0.196148
     44          6           0       -0.451957    2.597621    0.501518
     45          6           0       -1.746246    3.176906    0.652968
     46          6           0       -2.641485    2.207424    0.478892
     47          6           0       -1.943602    0.989472    0.172102
     48          6           0       -2.026241    4.674407    0.973821
     49          6           0       -4.206384    2.349507    0.532670
     50          6           0       -4.720322    2.587285   -0.905065
     51          6           0       -6.172405    2.907730   -1.098575
     52          8           0       -6.585478    2.911998   -2.289814
     53          8           0       -6.882843    3.168567   -0.096734
     54          1           0        1.954399   -1.297283   -3.645691
     55          1           0        0.989969   -2.035158   -2.389314
     56          1           0        0.214756   -1.353575   -3.799122
     57          1           0       -1.222541    2.706755   -3.814562
     58          1           0       -2.060999    2.286195   -2.340390
     59          1           0       -0.390456    2.794899   -2.280635
     60          1           0       -1.437646    0.204114   -2.580241
     61          1           0       -0.629359    0.615307   -4.053857
     62          1           0        3.444890   -0.646331    5.039411
     63          1           0        1.988993   -0.547483    6.000483
     64          1           0        2.492186   -2.081502    5.332165
     65          1           0        3.057796   -0.564171    2.262409
     66          1           0       -0.291605   -0.731686    4.749678
     67          1           0       -1.166164   -0.310117    2.414434
     68          1           0       -6.403641   -4.315690    2.391075
     69          1           0       -4.240981   -4.150003    1.171727
     70          1           0       -4.140698   -2.452826    1.519563
     71          1           0       -4.156960   -3.769300   -1.186144
     72          1           0       -4.412413   -2.055096   -0.985345
     73          1           0       -3.622772   -0.280678   -0.124449
     74          1           0       -4.472307    3.179819    1.152965
     75          1           0       -4.636936    1.452451    0.926135
     76          1           0       -4.153405    3.393591   -1.321449
     77          1           0       -4.505105    1.707391   -1.474599
     78          1           0       -7.213034    4.059772    0.038648
     79          1           0       -0.617376   -5.430298   -1.331726
     80          1           0       -1.556781   -5.618600    0.129481
     81          1           0       -2.361485   -5.347821   -1.397672
     82          1           0       -2.076440    5.231293    0.061539
     83          1           0       -2.956680    4.759514    1.495300
     84          1           0       -1.238037    5.061608    1.585138
     85          1           0        0.676354    4.323843    0.881941
     86          1           0        1.153551   -4.458984   -0.484655
     87          1           0        4.793373   -4.946090   -1.227951
     88          1           0        3.897981   -5.242569    0.242913
     89          1           0        3.073802   -5.248190   -1.297789
     90          1           0        5.395847    0.290723   -0.518131
     91          1           0        5.977349    3.444786   -0.853398
     92          1           0        6.016871    3.616434    0.885004
     93          1           0        6.291584    2.052874    0.155019
     94          1           0        3.046608    5.402133    1.704138
     95          1           0        3.655953    5.678570   -1.104211
     96          1           0        3.736258    6.899837    0.142835
     97          1           0        5.054525    5.771242   -0.060912
     98          1           0        6.657571   -2.290315    0.125870
     99          1           0        5.811351   -3.182147   -2.599639
    100          1           0        7.046490   -1.962017   -2.402711
    101          1           0        7.313785   -3.580745   -1.801593
 ---------------------------------------------------------------------
 Rotational constants (GHZ):           0.0676733           0.0434559           0.0335749
 Standard basis: def2TZVP (5D, 7F)
 There are  2218 symmetry adapted cartesian basis functions of A   symmetry.
 There are  1951 symmetry adapted basis functions of A   symmetry.
  1951 basis functions,  3156 primitive gaussians,  2218 cartesian basis functions
   207 alpha electrons      202 beta electrons
       nuclear repulsion energy      8979.1994694432 Hartrees.
 NAtoms=  101 NActive=  101 NUniq=  101 SFac= 1.00D+00 NAtFMM=   60 NAOKFM=T Big=T
 Integral buffers will be    131072 words long.
 Raffenetti 2 integral format.
 Two-electron integral symmetry is turned on.
 Nuclear repulsion after empirical dispersion term =     8979.0476063958 Hartrees.
 One-electron integrals computed using PRISM.
   1 Symmetry operations used in ECPInt.
 ECPInt:  NShTT=  305371 NPrTT=  941867 LenC2=  223893 LenP2D=  446839.
 LDataN:  DoStor=T MaxTD1= 6 Len=  172
 NBasis=  1951 RedAO= T EigKep=  2.63D-06  NBF=  1951
 NBsUse=  1951 1.00D-06 EigRej= -1.00D+00 NBFU=  1951
 ExpMin= 4.20D-02 ExpMax= 3.01D+05 ExpMxC= 2.91D+03 IAcc=3 IRadAn=         5 AccDes= 0.00D+00
 Harris functional with IExCor= 1009 and IRadAn=       5 diagonalized for initial guess.
 HarFok:  IExCor= 1009 AccDes= 0.00D+00 IRadAn=         5 IDoV= 1 UseB2=F ITyADJ=14
 ICtDFT=  3500011 ScaDFX=  1.000000  1.000000  1.000000  1.000000
 FoFCou: FMM=F IPFlag=           0 FMFlag=      100000 FMFlg1=        2001
         NFxFlg=           0 DoJE=T BraDBF=F KetDBF=T FulRan=T
         wScrn=  0.000000 ICntrl=       500 IOpCl=  0 I1Cent=   200000004 NGrid=           0
         NMat0=    1 NMatS0=      1 NMatT0=    0 NMatD0=    1 NMtDS0=    0 NMtDT0=    0
 Petite list used in FoFCou.
 Initial guess <Sx>= 0.0000 <Sy>= 0.0000 <Sz>= 2.5000 <S**2>= 8.7500 S= 2.5000
 Requested convergence on RMS density matrix=1.00D-08 within 999 cycles.
 Requested convergence on MAX density matrix=1.00D-06.
 Requested convergence on             energy=1.00D-06.
 No special actions if energy rises.
 EnCoef did   100 forward-backward iterations
 EnCoef did     2 forward-backward iterations
 Restarting incremental Fock formation.
 Restarting incremental Fock formation.
 SCF Done:  E(UPBE1PBE) =  -3880.35219001     A.U. after   47 cycles
            NFock= 47  Conv=0.16D-08     -V/T= 2.0029
 <Sx>= 0.0000 <Sy>= 0.0000 <Sz>= 2.5000 <S**2>= 8.8224 S= 2.5120
 <L.S>= 0.000000000000E+00
 Annihilation of the first spin contaminant:
 S**2 before annihilation     8.8224,   after     8.7511
 Hyperfine terms turned off by default for NAtoms > 100.

 **********************************************************************

            Population analysis using the SCF density.

 **********************************************************************

 Orbital symmetries:
 Alpha Orbitals:
       Occupied  (A) (A) (A) (A) (A) (A) (A) (A) (A) (A) (A) (A)
                 (A) (A) (A) (A) (A) (A) (A) (A) (A) (A) (A) (A)
                 (A) (A) (A) (A) (A) (A) (A) (A) (A) (A) (A) (A)
                 (A) (A) (A) (A) (A) (A) (A) (A) (A) (A) (A) (A)
                 (A) (A) (A) (A) (A) (A) (A) (A) (A) (A) (A) (A)
                 (A) (A) (A) (A) (A) (A) (A) (A) (A) (A) (A) (A)
                 (A) (A) (A) (A) (A) (A) (A) (A) (A) (A) (A) (A)
                 (A) (A) (A) (A) (A) (A) (A) (A) (A) (A) (A) (A)
                 (A) (A) (A) (A) (A) (A) (A) (A) (A) (A) (A) (A)
                 (A) (A) (A) (A) (A) (A) (A) (A) (A) (A) (A) (A)
                 (A) (A) (A) (A) (A) (A) (A) (A) (A) (A) (A) (A)
                 (A) (A) (A) (A) (A) (A) (A) (A) (A) (A) (A) (A)
                 (A) (A) (A) (A) (A) (A) (A) (A) (A) (A) (A) (A)
                 (A) (A) (A) (A) (A) (A) (A) (A) (A) (A) (A) (A)
                 (A) (A) (A) (A) (A) (A) (A) (A) (A) (A) (A) (A)
                 (A) (A) (A) (A) (A) (A) (A) (A) (A) (A) (A) (A)
                 (A) (A) (A) (A) (A) (A) (A) (A) (A) (A) (A) (A)
                 (A) (A) (A)
       Virtual   (A) (A) (A) (A) (A) (A) (A) (A) (A) (A) (A) (A)
                 (A) (A) (A) (A) (A) (A) (A) (A) (A) (A) (A) (A)
                 (A) (A) (A) (A) (A) (A) (A) (A) (A) (A) (A) (A)
                 (A) (A) (A) (A) (A) (A) (A) (A) (A) (A) (A) (A)
                 (A) (A) (A) (A) (A) (A) (A) (A) (A) (A) (A) (A)
                 (A) (A) (A) (A) (A) (A) (A) (A) (A) (A) (A) (A)
                 (A) (A) (A) (A) (A) (A) (A) (A) (A) (A) (A) (A)
                 (A) (A) (A) (A) (A) (A) (A) (A) (A) (A) (A) (A)
                 (A) (A) (A) (A) (A) (A) (A) (A) (A) (A) (A) (A)
                 (A) (A) (A) (A) (A) (A) (A) (A) (A) (A) (A) (A)
                 (A) (A) (A) (A) (A) (A) (A) (A) (A) (A) (A) (A)
                 (A) (A) (A) (A) (A) (A) (A) (A) (A) (A) (A) (A)
                 (A) (A) (A) (A) (A) (A) (A) (A) (A) (A) (A) (A)
                 (A) (A) (A) (A) (A) (A) (A) (A) (A) (A) (A) (A)
                 (A) (A) (A) (A) (A) (A) (A) (A) (A) (A) (A) (A)
                 (A) (A) (A) (A) (A) (A) (A) (A) (A) (A) (A) (A)
                 (A) (A) (A) (A) (A) (A) (A) (A) (A) (A) (A) (A)
                 (A) (A) (A) (A) (A) (A) (A) (A) (A) (A) (A) (A)
                 (A) (A) (A) (A) (A) (A) (A) (A) (A) (A) (A) (A)
                 (A) (A) (A) (A) (A) (A) (A) (A) (A) (A) (A) (A)
                 (A) (A) (A) (A) (A) (A) (A) (A) (A) (A) (A) (A)
                 (A) (A) (A) (A) (A) (A) (A) (A) (A) (A) (A) (A)
                 (A) (A) (A) (A) (A) (A) (A) (A) (A) (A) (A) (A)
                 (A) (A) (A) (A) (A) (A) (A) (A) (A) (A) (A) (A)
                 (A) (A) (A) (A) (A) (A) (A) (A) (A) (A) (A) (A)
                 (A) (A) (A) (A) (A) (A) (A) (A) (A) (A) (A) (A)
                 (A) (A) (A) (A) (A) (A) (A) (A) (A) (A) (A) (A)
                 (A) (A) (A) (A) (A) (A) (A) (A) (A) (A) (A) (A)
                 (A) (A) (A) (A) (A) (A) (A) (A) (A) (A) (A) (A)
                 (A) (A) (A) (A) (A) (A) (A) (A) (A) (A) (A) (A)
                 (A) (A) (A) (A) (A) (A) (A) (A) (A) (A) (A) (A)
                 (A) (A) (A) (A) (A) (A) (A) (A) (A) (A) (A) (A)
                 (A) (A) (A) (A) (A) (A) (A) (A) (A) (A) (A) (A)
                 (A) (A) (A) (A) (A) (A) (A) (A) (A) (A) (A) (A)
                 (A) (A) (A) (A) (A) (A) (A) (A) (A) (A) (A) (A)
                 (A) (A) (A) (A) (A) (A) (A) (A) (A) (A) (A) (A)
                 (A) (A) (A) (A) (A) (A) (A) (A) (A) (A) (A) (A)
                 (A) (A) (A) (A) (A) (A) (A) (A) (A) (A) (A) (A)
                 (A) (A) (A) (A) (A) (A) (A) (A) (A) (A) (A) (A)
                 (A) (A) (A) (A) (A) (A) (A) (A) (A) (A) (A) (A)
                 (A) (A) (A) (A) (A) (A) (A) (A) (A) (A) (A) (A)
                 (A) (A) (A) (A) (A) (A) (A) (A) (A) (A) (A) (A)
                 (A) (A) (A) (A) (A) (A) (A) (A) (A) (A) (A) (A)
                 (A) (A) (A) (A) (A) (A) (A) (A) (A) (A) (A) (A)
                 (A) (A) (A) (A) (A) (A) (A) (A) (A) (A) (A) (A)
                 (A) (A) (A) (A) (A) (A) (A) (A) (A) (A) (A) (A)
                 (A) (A) (A) (A) (A) (A) (A) (A) (A) (A) (A) (A)
                 (A) (A) (A) (A) (A) (A) (A) (A) (A) (A) (A) (A)
                 (A) (A) (A) (A) (A) (A) (A) (A) (A) (A) (A) (A)
                 (A) (A) (A) (A) (A) (A) (A) (A) (A) (A) (A) (A)
                 (A) (A) (A) (A) (A) (A) (A) (A) (A) (A) (A) (A)
                 (A) (A) (A) (A) (A) (A) (A) (A) (A) (A) (A) (A)
                 (A) (A) (A) (A) (A) (A) (A) (A) (A) (A) (A) (A)
                 (A) (A) (A) (A) (A) (A) (A) (A) (A) (A) (A) (A)
                 (A) (A) (A) (A) (A) (A) (A) (A) (A) (A) (A) (A)
                 (A) (A) (A) (A) (A) (A) (A) (A) (A) (A) (A) (A)
                 (A) (A) (A) (A) (A) (A) (A) (A) (A) (A) (A) (A)
                 (A) (A) (A) (A) (A) (A) (A) (A) (A) (A) (A) (A)
                 (A) (A) (A) (A) (A) (A) (A) (A) (A) (A) (A) (A)
                 (A) (A) (A) (A) (A) (A) (A) (A) (A) (A) (A) (A)
                 (A) (A) (A) (A) (A) (A) (A) (A) (A) (A) (A) (A)
                 (A) (A) (A) (A) (A) (A) (A) (A) (A) (A) (A) (A)
                 (A) (A) (A) (A) (A) (A) (A) (A) (A) (A) (A) (A)
                 (A) (A) (A) (A) (A) (A) (A) (A) (A) (A) (A) (A)
                 (A) (A) (A) (A) (A) (A) (A) (A) (A) (A) (A) (A)
                 (A) (A) (A) (A) (A) (A) (A) (A) (A) (A) (A) (A)
                 (A) (A) (A) (A) (A) (A) (A) (A) (A) (A) (A) (A)
                 (A) (A) (A) (A) (A) (A) (A) (A) (A) (A) (A) (A)
                 (A) (A) (A) (A) (A) (A) (A) (A) (A) (A) (A) (A)
                 (A) (A) (A) (A) (A) (A) (A) (A) (A) (A) (A) (A)
                 (A) (A) (A) (A) (A) (A) (A) (A) (A) (A) (A) (A)
                 (A) (A) (A) (A) (A) (A) (A) (A) (A) (A) (A) (A)
                 (A) (A) (A) (A) (A) (A) (A) (A) (A) (A) (A) (A)
                 (A) (A) (A) (A) (A) (A) (A) (A) (A) (A) (A) (A)
                 (A) (A) (A) (A) (A) (A) (A) (A) (A) (A) (A) (A)
                 (A) (A) (A) (A) (A) (A) (A) (A) (A) (A) (A) (A)
                 (A) (A) (A) (A) (A) (A) (A) (A) (A) (A) (A) (A)
                 (A) (A) (A) (A) (A) (A) (A) (A) (A) (A) (A) (A)
                 (A) (A) (A) (A) (A) (A) (A) (A) (A) (A) (A) (A)
                 (A) (A) (A) (A) (A) (A) (A) (A) (A) (A) (A) (A)
                 (A) (A) (A) (A) (A) (A) (A) (A) (A) (A) (A) (A)
                 (A) (A) (A) (A) (A) (A) (A) (A) (A) (A) (A) (A)
                 (A) (A) (A) (A) (A) (A) (A) (A) (A) (A) (A) (A)
                 (A) (A) (A) (A) (A) (A) (A) (A) (A) (A) (A) (A)
                 (A) (A) (A) (A) (A) (A) (A) (A) (A) (A) (A) (A)
                 (A) (A) (A) (A) (A) (A) (A) (A) (A) (A) (A) (A)
                 (A) (A) (A) (A) (A) (A) (A) (A) (A) (A) (A) (A)
                 (A) (A) (A) (A) (A) (A) (A) (A) (A) (A) (A) (A)
                 (A) (A) (A) (A) (A) (A) (A) (A) (A) (A) (A) (A)
                 (A) (A) (A) (A) (A) (A) (A) (A) (A) (A) (A) (A)
                 (A) (A) (A) (A) (A) (A) (A) (A) (A) (A) (A) (A)
                 (A) (A) (A) (A) (A) (A) (A) (A) (A) (A) (A) (A)
                 (A) (A) (A) (A) (A) (A) (A) (A) (A) (A) (A) (A)
                 (A) (A) (A) (A) (A) (A) (A) (A) (A) (A) (A) (A)
                 (A) (A) (A) (A) (A) (A) (A) (A) (A) (A) (A) (A)
                 (A) (A) (A) (A) (A) (A) (A) (A) (A) (A) (A) (A)
                 (A) (A) (A) (A) (A) (A) (A) (A) (A) (A) (A) (A)
                 (A) (A) (A) (A) (A) (A) (A) (A) (A) (A) (A) (A)
                 (A) (A) (A) (A) (A) (A) (A) (A) (A) (A) (A) (A)
                 (A) (A) (A) (A) (A) (A) (A) (A) (A) (A) (A) (A)
                 (A) (A) (A) (A) (A) (A) (A) (A) (A) (A) (A) (A)
                 (A) (A) (A) (A) (A) (A) (A) (A) (A) (A) (A) (A)
                 (A) (A) (A) (A) (A) (A) (A) (A) (A) (A) (A) (A)
                 (A) (A) (A) (A) (A) (A) (A) (A) (A) (A) (A) (A)
                 (A) (A) (A) (A) (A) (A) (A) (A) (A) (A) (A) (A)
                 (A) (A) (A) (A) (A) (A) (A) (A) (A) (A) (A) (A)
                 (A) (A) (A) (A) (A) (A) (A) (A) (A) (A) (A) (A)
                 (A) (A) (A) (A) (A) (A) (A) (A) (A) (A) (A) (A)
                 (A) (A) (A) (A) (A) (A) (A) (A) (A) (A) (A) (A)
                 (A) (A) (A) (A) (A) (A) (A) (A) (A) (A) (A) (A)
                 (A) (A) (A) (A) (A) (A) (A) (A) (A) (A) (A) (A)
                 (A) (A) (A) (A) (A) (A) (A) (A) (A) (A) (A) (A)
                 (A) (A) (A) (A) (A) (A) (A) (A) (A) (A) (A) (A)
                 (A) (A) (A) (A) (A) (A) (A) (A) (A) (A) (A) (A)
                 (A) (A) (A) (A) (A) (A) (A) (A) (A) (A) (A) (A)
                 (A) (A) (A) (A) (A) (A) (A) (A) (A) (A) (A) (A)
                 (A) (A) (A) (A) (A) (A) (A) (A) (A) (A) (A) (A)
                 (A) (A) (A) (A) (A) (A) (A) (A) (A) (A) (A) (A)
                 (A) (A) (A) (A) (A) (A) (A) (A) (A) (A) (A) (A)
                 (A) (A) (A) (A) (A) (A) (A) (A) (A) (A) (A) (A)
                 (A) (A) (A) (A) (A) (A) (A) (A) (A) (A) (A) (A)
                 (A) (A) (A) (A) (A) (A) (A) (A) (A) (A) (A) (A)
                 (A) (A) (A) (A) (A) (A) (A) (A) (A) (A) (A) (A)
                 (A) (A) (A) (A) (A) (A) (A) (A) (A) (A) (A) (A)
                 (A) (A) (A) (A) (A) (A) (A) (A) (A) (A) (A) (A)
                 (A) (A) (A) (A) (A) (A) (A) (A) (A) (A) (A) (A)
                 (A) (A) (A) (A) (A) (A) (A) (A) (A) (A) (A) (A)
                 (A) (A) (A) (A) (A) (A) (A) (A) (A) (A) (A) (A)
                 (A) (A) (A) (A) (A) (A) (A) (A) (A) (A) (A) (A)
                 (A) (A) (A) (A) (A) (A) (A) (A) (A) (A) (A) (A)
                 (A) (A) (A) (A) (A) (A) (A) (A) (A) (A) (A) (A)
                 (A) (A) (A) (A) (A) (A) (A) (A) (A) (A) (A) (A)
                 (A) (A) (A) (A) (A) (A) (A) (A) (A) (A) (A) (A)
                 (A) (A) (A) (A) (A) (A) (A) (A) (A) (A) (A) (A)
                 (A) (A) (A) (A) (A) (A) (A) (A) (A) (A) (A) (A)
                 (A) (A) (A) (A) (A) (A) (A) (A) (A) (A) (A) (A)
                 (A) (A) (A) (A) (A) (A) (A) (A) (A) (A) (A) (A)
                 (A) (A) (A) (A) (A) (A) (A) (A) (A) (A) (A) (A)
                 (A) (A) (A) (A) (A) (A) (A) (A) (A) (A) (A) (A)
                 (A) (A) (A) (A) (A) (A) (A) (A) (A) (A) (A) (A)
                 (A) (A) (A) (A) (A) (A) (A) (A) (A) (A) (A) (A)
                 (A) (A) (A) (A) (A) (A) (A) (A) (A) (A) (A) (A)
                 (A) (A) (A) (A) (A) (A) (A) (A) (A) (A) (A) (A)
                 (A) (A) (A) (A) (A) (A) (A) (A) (A) (A) (A) (A)
                 (A) (A) (A) (A) (A) (A) (A) (A) (A) (A) (A) (A)
                 (A) (A) (A) (A)
 Beta  Orbitals:
       Occupied  (A) (A) (A) (A) (A) (A) (A) (A) (A) (A) (A) (A)
                 (A) (A) (A) (A) (A) (A) (A) (A) (A) (A) (A) (A)
                 (A) (A) (A) (A) (A) (A) (A) (A) (A) (A) (A) (A)
                 (A) (A) (A) (A) (A) (A) (A) (A) (A) (A) (A) (A)
                 (A) (A) (A) (A) (A) (A) (A) (A) (A) (A) (A) (A)
                 (A) (A) (A) (A) (A) (A) (A) (A) (A) (A) (A) (A)
                 (A) (A) (A) (A) (A) (A) (A) (A) (A) (A) (A) (A)
                 (A) (A) (A) (A) (A) (A) (A) (A) (A) (A) (A) (A)
                 (A) (A) (A) (A) (A) (A) (A) (A) (A) (A) (A) (A)
                 (A) (A) (A) (A) (A) (A) (A) (A) (A) (A) (A) (A)
                 (A) (A) (A) (A) (A) (A) (A) (A) (A) (A) (A) (A)
                 (A) (A) (A) (A) (A) (A) (A) (A) (A) (A) (A) (A)
                 (A) (A) (A) (A) (A) (A) (A) (A) (A) (A) (A) (A)
                 (A) (A) (A) (A) (A) (A) (A) (A) (A) (A) (A) (A)
                 (A) (A) (A) (A) (A) (A) (A) (A) (A) (A) (A) (A)
                 (A) (A) (A) (A) (A) (A) (A) (A) (A) (A) (A) (A)
                 (A) (A) (A) (A) (A) (A) (A) (A) (A) (A)
       Virtual   (A) (A) (A) (A) (A) (A) (A) (A) (A) (A) (A) (A)
                 (A) (A) (A) (A) (A) (A) (A) (A) (A) (A) (A) (A)
                 (A) (A) (A) (A) (A) (A) (A) (A) (A) (A) (A) (A)
                 (A) (A) (A) (A) (A) (A) (A) (A) (A) (A) (A) (A)
                 (A) (A) (A) (A) (A) (A) (A) (A) (A) (A) (A) (A)
                 (A) (A) (A) (A) (A) (A) (A) (A) (A) (A) (A) (A)
                 (A) (A) (A) (A) (A) (A) (A) (A) (A) (A) (A) (A)
                 (A) (A) (A) (A) (A) (A) (A) (A) (A) (A) (A) (A)
                 (A) (A) (A) (A) (A) (A) (A) (A) (A) (A) (A) (A)
                 (A) (A) (A) (A) (A) (A) (A) (A) (A) (A) (A) (A)
                 (A) (A) (A) (A) (A) (A) (A) (A) (A) (A) (A) (A)
                 (A) (A) (A) (A) (A) (A) (A) (A) (A) (A) (A) (A)
                 (A) (A) (A) (A) (A) (A) (A) (A) (A) (A) (A) (A)
                 (A) (A) (A) (A) (A) (A) (A) (A) (A) (A) (A) (A)
                 (A) (A) (A) (A) (A) (A) (A) (A) (A) (A) (A) (A)
                 (A) (A) (A) (A) (A) (A) (A) (A) (A) (A) (A) (A)
                 (A) (A) (A) (A) (A) (A) (A) (A) (A) (A) (A) (A)
                 (A) (A) (A) (A) (A) (A) (A) (A) (A) (A) (A) (A)
                 (A) (A) (A) (A) (A) (A) (A) (A) (A) (A) (A) (A)
                 (A) (A) (A) (A) (A) (A) (A) (A) (A) (A) (A) (A)
                 (A) (A) (A) (A) (A) (A) (A) (A) (A) (A) (A) (A)
                 (A) (A) (A) (A) (A) (A) (A) (A) (A) (A) (A) (A)
                 (A) (A) (A) (A) (A) (A) (A) (A) (A) (A) (A) (A)
                 (A) (A) (A) (A) (A) (A) (A) (A) (A) (A) (A) (A)
                 (A) (A) (A) (A) (A) (A) (A) (A) (A) (A) (A) (A)
                 (A) (A) (A) (A) (A) (A) (A) (A) (A) (A) (A) (A)
                 (A) (A) (A) (A) (A) (A) (A) (A) (A) (A) (A) (A)
                 (A) (A) (A) (A) (A) (A) (A) (A) (A) (A) (A) (A)
                 (A) (A) (A) (A) (A) (A) (A) (A) (A) (A) (A) (A)
                 (A) (A) (A) (A) (A) (A) (A) (A) (A) (A) (A) (A)
                 (A) (A) (A) (A) (A) (A) (A) (A) (A) (A) (A) (A)
                 (A) (A) (A) (A) (A) (A) (A) (A) (A) (A) (A) (A)
                 (A) (A) (A) (A) (A) (A) (A) (A) (A) (A) (A) (A)
                 (A) (A) (A) (A) (A) (A) (A) (A) (A) (A) (A) (A)
                 (A) (A) (A) (A) (A) (A) (A) (A) (A) (A) (A) (A)
                 (A) (A) (A) (A) (A) (A) (A) (A) (A) (A) (A) (A)
                 (A) (A) (A) (A) (A) (A) (A) (A) (A) (A) (A) (A)
                 (A) (A) (A) (A) (A) (A) (A) (A) (A) (A) (A) (A)
                 (A) (A) (A) (A) (A) (A) (A) (A) (A) (A) (A) (A)
                 (A) (A) (A) (A) (A) (A) (A) (A) (A) (A) (A) (A)
                 (A) (A) (A) (A) (A) (A) (A) (A) (A) (A) (A) (A)
                 (A) (A) (A) (A) (A) (A) (A) (A) (A) (A) (A) (A)
                 (A) (A) (A) (A) (A) (A) (A) (A) (A) (A) (A) (A)
                 (A) (A) (A) (A) (A) (A) (A) (A) (A) (A) (A) (A)
                 (A) (A) (A) (A) (A) (A) (A) (A) (A) (A) (A) (A)
                 (A) (A) (A) (A) (A) (A) (A) (A) (A) (A) (A) (A)
                 (A) (A) (A) (A) (A) (A) (A) (A) (A) (A) (A) (A)
                 (A) (A) (A) (A) (A) (A) (A) (A) (A) (A) (A) (A)
                 (A) (A) (A) (A) (A) (A) (A) (A) (A) (A) (A) (A)
                 (A) (A) (A) (A) (A) (A) (A) (A) (A) (A) (A) (A)
                 (A) (A) (A) (A) (A) (A) (A) (A) (A) (A) (A) (A)
                 (A) (A) (A) (A) (A) (A) (A) (A) (A) (A) (A) (A)
                 (A) (A) (A) (A) (A) (A) (A) (A) (A) (A) (A) (A)
                 (A) (A) (A) (A) (A) (A) (A) (A) (A) (A) (A) (A)
                 (A) (A) (A) (A) (A) (A) (A) (A) (A) (A) (A) (A)
                 (A) (A) (A) (A) (A) (A) (A) (A) (A) (A) (A) (A)
                 (A) (A) (A) (A) (A) (A) (A) (A) (A) (A) (A) (A)
                 (A) (A) (A) (A) (A) (A) (A) (A) (A) (A) (A) (A)
                 (A) (A) (A) (A) (A) (A) (A) (A) (A) (A) (A) (A)
                 (A) (A) (A) (A) (A) (A) (A) (A) (A) (A) (A) (A)
                 (A) (A) (A) (A) (A) (A) (A) (A) (A) (A) (A) (A)
                 (A) (A) (A) (A) (A) (A) (A) (A) (A) (A) (A) (A)
                 (A) (A) (A) (A) (A) (A) (A) (A) (A) (A) (A) (A)
                 (A) (A) (A) (A) (A) (A) (A) (A) (A) (A) (A) (A)
                 (A) (A) (A) (A) (A) (A) (A) (A) (A) (A) (A) (A)
                 (A) (A) (A) (A) (A) (A) (A) (A) (A) (A) (A) (A)
                 (A) (A) (A) (A) (A) (A) (A) (A) (A) (A) (A) (A)
                 (A) (A) (A) (A) (A) (A) (A) (A) (A) (A) (A) (A)
                 (A) (A) (A) (A) (A) (A) (A) (A) (A) (A) (A) (A)
                 (A) (A) (A) (A) (A) (A) (A) (A) (A) (A) (A) (A)
                 (A) (A) (A) (A) (A) (A) (A) (A) (A) (A) (A) (A)
                 (A) (A) (A) (A) (A) (A) (A) (A) (A) (A) (A) (A)
                 (A) (A) (A) (A) (A) (A) (A) (A) (A) (A) (A) (A)
                 (A) (A) (A) (A) (A) (A) (A) (A) (A) (A) (A) (A)
                 (A) (A) (A) (A) (A) (A) (A) (A) (A) (A) (A) (A)
                 (A) (A) (A) (A) (A) (A) (A) (A) (A) (A) (A) (A)
                 (A) (A) (A) (A) (A) (A) (A) (A) (A) (A) (A) (A)
                 (A) (A) (A) (A) (A) (A) (A) (A) (A) (A) (A) (A)
                 (A) (A) (A) (A) (A) (A) (A) (A) (A) (A) (A) (A)
                 (A) (A) (A) (A) (A) (A) (A) (A) (A) (A) (A) (A)
                 (A) (A) (A) (A) (A) (A) (A) (A) (A) (A) (A) (A)
                 (A) (A) (A) (A) (A) (A) (A) (A) (A) (A) (A) (A)
                 (A) (A) (A) (A) (A) (A) (A) (A) (A) (A) (A) (A)
                 (A) (A) (A) (A) (A) (A) (A) (A) (A) (A) (A) (A)
                 (A) (A) (A) (A) (A) (A) (A) (A) (A) (A) (A) (A)
                 (A) (A) (A) (A) (A) (A) (A) (A) (A) (A) (A) (A)
                 (A) (A) (A) (A) (A) (A) (A) (A) (A) (A) (A) (A)
                 (A) (A) (A) (A) (A) (A) (A) (A) (A) (A) (A) (A)
                 (A) (A) (A) (A) (A) (A) (A) (A) (A) (A) (A) (A)
                 (A) (A) (A) (A) (A) (A) (A) (A) (A) (A) (A) (A)
                 (A) (A) (A) (A) (A) (A) (A) (A) (A) (A) (A) (A)
                 (A) (A) (A) (A) (A) (A) (A) (A) (A) (A) (A) (A)
                 (A) (A) (A) (A) (A) (A) (A) (A) (A) (A) (A) (A)
                 (A) (A) (A) (A) (A) (A) (A) (A) (A) (A) (A) (A)
                 (A) (A) (A) (A) (A) (A) (A) (A) (A) (A) (A) (A)
                 (A) (A) (A) (A) (A) (A) (A) (A) (A) (A) (A) (A)
                 (A) (A) (A) (A) (A) (A) (A) (A) (A) (A) (A) (A)
                 (A) (A) (A) (A) (A) (A) (A) (A) (A) (A) (A) (A)
                 (A) (A) (A) (A) (A) (A) (A) (A) (A) (A) (A) (A)
                 (A) (A) (A) (A) (A) (A) (A) (A) (A) (A) (A) (A)
                 (A) (A) (A) (A) (A) (A) (A) (A) (A) (A) (A) (A)
                 (A) (A) (A) (A) (A) (A) (A) (A) (A) (A) (A) (A)
                 (A) (A) (A) (A) (A) (A) (A) (A) (A) (A) (A) (A)
                 (A) (A) (A) (A) (A) (A) (A) (A) (A) (A) (A) (A)
                 (A) (A) (A) (A) (A) (A) (A) (A) (A) (A) (A) (A)
                 (A) (A) (A) (A) (A) (A) (A) (A) (A) (A) (A) (A)
                 (A) (A) (A) (A) (A) (A) (A) (A) (A) (A) (A) (A)
                 (A) (A) (A) (A) (A) (A) (A) (A) (A) (A) (A) (A)
                 (A) (A) (A) (A) (A) (A) (A) (A) (A) (A) (A) (A)
                 (A) (A) (A) (A) (A) (A) (A) (A) (A) (A) (A) (A)
                 (A) (A) (A) (A) (A) (A) (A) (A) (A) (A) (A) (A)
                 (A) (A) (A) (A) (A) (A) (A) (A) (A) (A) (A) (A)
                 (A) (A) (A) (A) (A) (A) (A) (A) (A) (A) (A) (A)
                 (A) (A) (A) (A) (A) (A) (A) (A) (A) (A) (A) (A)
                 (A) (A) (A) (A) (A) (A) (A) (A) (A) (A) (A) (A)
                 (A) (A) (A) (A) (A) (A) (A) (A) (A) (A) (A) (A)
                 (A) (A) (A) (A) (A) (A) (A) (A) (A) (A) (A) (A)
                 (A) (A) (A) (A) (A) (A) (A) (A) (A) (A) (A) (A)
                 (A) (A) (A) (A) (A) (A) (A) (A) (A) (A) (A) (A)
                 (A) (A) (A) (A) (A) (A) (A) (A) (A) (A) (A) (A)
                 (A) (A) (A) (A) (A) (A) (A) (A) (A) (A) (A) (A)
                 (A) (A) (A) (A) (A) (A) (A) (A) (A) (A) (A) (A)
                 (A) (A) (A) (A) (A) (A) (A) (A) (A) (A) (A) (A)
                 (A) (A) (A) (A) (A) (A) (A) (A) (A) (A) (A) (A)
                 (A) (A) (A) (A) (A) (A) (A) (A) (A) (A) (A) (A)
                 (A) (A) (A) (A) (A) (A) (A) (A) (A) (A) (A) (A)
                 (A) (A) (A) (A) (A) (A) (A) (A) (A) (A) (A) (A)
                 (A) (A) (A) (A) (A) (A) (A) (A) (A) (A) (A) (A)
                 (A) (A) (A) (A) (A) (A) (A) (A) (A) (A) (A) (A)
                 (A) (A) (A) (A) (A) (A) (A) (A) (A) (A) (A) (A)
                 (A) (A) (A) (A) (A) (A) (A) (A) (A) (A) (A) (A)
                 (A) (A) (A) (A) (A) (A) (A) (A) (A) (A) (A) (A)
                 (A) (A) (A) (A) (A) (A) (A) (A) (A) (A) (A) (A)
                 (A) (A) (A) (A) (A) (A) (A) (A) (A) (A) (A) (A)
                 (A) (A) (A) (A) (A) (A) (A) (A) (A) (A) (A) (A)
                 (A) (A) (A) (A) (A) (A) (A) (A) (A) (A) (A) (A)
                 (A) (A) (A) (A) (A) (A) (A) (A) (A) (A) (A) (A)
                 (A) (A) (A) (A) (A) (A) (A) (A) (A) (A) (A) (A)
                 (A) (A) (A) (A) (A) (A) (A) (A) (A) (A) (A) (A)
                 (A) (A) (A) (A) (A) (A) (A) (A) (A) (A) (A) (A)
                 (A) (A) (A) (A) (A) (A) (A) (A) (A) (A) (A) (A)
                 (A) (A) (A) (A) (A) (A) (A) (A) (A) (A) (A) (A)
                 (A) (A) (A) (A) (A) (A) (A) (A) (A) (A) (A) (A)
                 (A) (A) (A) (A) (A) (A) (A) (A) (A) (A) (A) (A)
                 (A) (A) (A) (A) (A) (A) (A) (A) (A) (A) (A) (A)
                 (A) (A) (A) (A) (A) (A) (A) (A) (A)
 The electronic state is 6-A.
 Alpha  occ. eigenvalues -- -256.51228 -89.14457 -30.32190 -26.15454 -26.13716
 Alpha  occ. eigenvalues --  -26.13195 -19.33215 -19.32500 -19.25447 -19.24636
 Alpha  occ. eigenvalues --  -14.55116 -14.50193 -14.49511 -14.49344 -14.47379
 Alpha  occ. eigenvalues --  -14.47327 -10.42658 -10.42230 -10.38851 -10.36317
 Alpha  occ. eigenvalues --  -10.35858 -10.35765 -10.35589 -10.35582 -10.35298
 Alpha  occ. eigenvalues --  -10.35255 -10.35062 -10.35006 -10.34050 -10.33877
 Alpha  occ. eigenvalues --  -10.33020 -10.32580 -10.32305 -10.32260 -10.32203
 Alpha  occ. eigenvalues --  -10.32199 -10.32162 -10.32103 -10.32070 -10.32047
 Alpha  occ. eigenvalues --  -10.32008 -10.31873 -10.31795 -10.31696 -10.31686
 Alpha  occ. eigenvalues --  -10.31654 -10.31434 -10.31295 -10.31175 -10.30644
 Alpha  occ. eigenvalues --  -10.30614 -10.30370 -10.30182 -10.29830 -10.29238
 Alpha  occ. eigenvalues --  -10.28148 -10.27373  -8.12365  -6.05948  -6.05705
 Alpha  occ. eigenvalues --   -6.05253  -3.71840  -2.51262  -2.46076  -2.45777
 Alpha  occ. eigenvalues --   -1.23714  -1.23104  -1.17090  -1.10320  -1.08882
 Alpha  occ. eigenvalues --   -1.08801  -1.07805  -1.07690  -1.06678  -1.01777
 Alpha  occ. eigenvalues --   -0.95048  -0.94340  -0.92672  -0.92583  -0.92450
 Alpha  occ. eigenvalues --   -0.92135  -0.91527  -0.91176  -0.91064  -0.88472
 Alpha  occ. eigenvalues --   -0.87914  -0.87654  -0.87535  -0.86963  -0.86324
 Alpha  occ. eigenvalues --   -0.83890  -0.82370  -0.81726  -0.81414  -0.80839
 Alpha  occ. eigenvalues --   -0.79270  -0.77996  -0.77683  -0.77452  -0.76192
 Alpha  occ. eigenvalues --   -0.75958  -0.75392  -0.73965  -0.73745  -0.72808
 Alpha  occ. eigenvalues --   -0.71621  -0.71432  -0.70734  -0.69799  -0.68714
 Alpha  occ. eigenvalues --   -0.67022  -0.65891  -0.65078  -0.64809  -0.64023
 Alpha  occ. eigenvalues --   -0.62660  -0.62303  -0.61799  -0.61129  -0.60495
 Alpha  occ. eigenvalues --   -0.59974  -0.59249  -0.58969  -0.58691  -0.58546
 Alpha  occ. eigenvalues --   -0.58457  -0.58250  -0.57713  -0.57196  -0.56911
 Alpha  occ. eigenvalues --   -0.55878  -0.55731  -0.55530  -0.55192  -0.55056
 Alpha  occ. eigenvalues --   -0.54933  -0.54829  -0.54408  -0.54271  -0.54088
 Alpha  occ. eigenvalues --   -0.53896  -0.53606  -0.53517  -0.53370  -0.53079
 Alpha  occ. eigenvalues --   -0.52965  -0.52543  -0.52391  -0.52286  -0.52155
 Alpha  occ. eigenvalues --   -0.52068  -0.52025  -0.51535  -0.51261  -0.51102
 Alpha  occ. eigenvalues --   -0.50879  -0.50455  -0.50376  -0.50249  -0.49738
 Alpha  occ. eigenvalues --   -0.49540  -0.49489  -0.48857  -0.48845  -0.48806
 Alpha  occ. eigenvalues --   -0.48460  -0.48234  -0.48037  -0.47852  -0.47572
 Alpha  occ. eigenvalues --   -0.47504  -0.47195  -0.46871  -0.46803  -0.46361
 Alpha  occ. eigenvalues --   -0.45988  -0.45961  -0.45525  -0.45111  -0.44904
 Alpha  occ. eigenvalues --   -0.44497  -0.44398  -0.43678  -0.43186  -0.42875
 Alpha  occ. eigenvalues --   -0.42765  -0.42631  -0.42464  -0.41886  -0.40580
 Alpha  occ. eigenvalues --   -0.40523  -0.39497  -0.38796  -0.38622  -0.37816
 Alpha  occ. eigenvalues --   -0.35534  -0.35449  -0.35054  -0.34833  -0.34477
 Alpha  occ. eigenvalues --   -0.33993  -0.33562  -0.30771  -0.30080  -0.29589
 Alpha  occ. eigenvalues --   -0.28750  -0.27718
 Alpha virt. eigenvalues --   -0.18723  -0.17861  -0.17472  -0.10509  -0.08467
 Alpha virt. eigenvalues --   -0.08358  -0.07917  -0.07707  -0.06712  -0.06115
 Alpha virt. eigenvalues --   -0.05455  -0.05150  -0.04831  -0.04435  -0.03881
 Alpha virt. eigenvalues --   -0.03166  -0.02884  -0.02713  -0.02492  -0.02330
 Alpha virt. eigenvalues --   -0.02169  -0.01988  -0.01635  -0.01500  -0.00814
 Alpha virt. eigenvalues --   -0.00712  -0.00599  -0.00326  -0.00174  -0.00039
 Alpha virt. eigenvalues --    0.00635   0.00901   0.01459   0.01661   0.01766
 Alpha virt. eigenvalues --    0.02007   0.02629   0.02672   0.02736   0.02841
 Alpha virt. eigenvalues --    0.03270   0.03411   0.03535   0.03751   0.03967
 Alpha virt. eigenvalues --    0.04134   0.04229   0.04476   0.04614   0.04930
 Alpha virt. eigenvalues --    0.05006   0.05153   0.05274   0.05588   0.05704
 Alpha virt. eigenvalues --    0.05923   0.06013   0.06310   0.06592   0.06706
 Alpha virt. eigenvalues --    0.07130   0.07213   0.07449   0.07574   0.07883
 Alpha virt. eigenvalues --    0.07967   0.08078   0.08165   0.08671   0.08774
 Alpha virt. eigenvalues --    0.09041   0.09201   0.09380   0.09477   0.09564
 Alpha virt. eigenvalues --    0.09956   0.10247   0.10366   0.10402   0.10519
 Alpha virt. eigenvalues --    0.10811   0.11194   0.11350   0.11686   0.11887
 Alpha virt. eigenvalues --    0.12131   0.12185   0.12238   0.12546   0.12683
 Alpha virt. eigenvalues --    0.12852   0.13012   0.13297   0.13406   0.13583
 Alpha virt. eigenvalues --    0.13804   0.14217   0.14253   0.14578   0.14768
 Alpha virt. eigenvalues --    0.15013   0.15161   0.15284   0.15410   0.15558
 Alpha virt. eigenvalues --    0.15849   0.16084   0.16293   0.16461   0.16773
 Alpha virt. eigenvalues --    0.16832   0.16978   0.17124   0.17165   0.17745
 Alpha virt. eigenvalues --    0.17872   0.17923   0.18142   0.18350   0.18652
 Alpha virt. eigenvalues --    0.19064   0.19118   0.19370   0.19473   0.19630
 Alpha virt. eigenvalues --    0.20047   0.20314   0.20534   0.20738   0.20914
 Alpha virt. eigenvalues --    0.21191   0.21281   0.21396   0.21717   0.21987
 Alpha virt. eigenvalues --    0.22222   0.22447   0.22921   0.23044   0.23263
 Alpha virt. eigenvalues --    0.23518   0.23827   0.23952   0.24170   0.24437
 Alpha virt. eigenvalues --    0.24700   0.24983   0.25253   0.25309   0.25404
 Alpha virt. eigenvalues --    0.25800   0.25991   0.26217   0.26399   0.26446
 Alpha virt. eigenvalues --    0.26959   0.27084   0.27382   0.27718   0.27764
 Alpha virt. eigenvalues --    0.27932   0.28321   0.28537   0.28571   0.28942
 Alpha virt. eigenvalues --    0.29288   0.29513   0.29575   0.29812   0.30034
 Alpha virt. eigenvalues --    0.30147   0.30361   0.30467   0.30934   0.31005
 Alpha virt. eigenvalues --    0.31176   0.31338   0.31437   0.31476   0.31783
 Alpha virt. eigenvalues --    0.32084   0.32281   0.32527   0.32679   0.32849
 Alpha virt. eigenvalues --    0.33011   0.33117   0.33512   0.33538   0.33709
 Alpha virt. eigenvalues --    0.33962   0.34049   0.34250   0.34475   0.34742
 Alpha virt. eigenvalues --    0.34794   0.34995   0.35124   0.35213   0.35564
 Alpha virt. eigenvalues --    0.35602   0.35828   0.36013   0.36213   0.36467
 Alpha virt. eigenvalues --    0.36617   0.36733   0.36912   0.36967   0.37133
 Alpha virt. eigenvalues --    0.37210   0.37547   0.37579   0.37805   0.37975
 Alpha virt. eigenvalues --    0.38217   0.38403   0.38454   0.38715   0.38963
 Alpha virt. eigenvalues --    0.39230   0.39294   0.39477   0.39747   0.39873
 Alpha virt. eigenvalues --    0.39975   0.40272   0.40334   0.40432   0.40568
 Alpha virt. eigenvalues --    0.40859   0.40889   0.40962   0.41237   0.41542
 Alpha virt. eigenvalues --    0.41563   0.41943   0.42105   0.42293   0.42620
 Alpha virt. eigenvalues --    0.42721   0.42752   0.42951   0.43217   0.43367
 Alpha virt. eigenvalues --    0.43547   0.43732   0.43905   0.44005   0.44248
 Alpha virt. eigenvalues --    0.44497   0.44632   0.44759   0.44851   0.44956
 Alpha virt. eigenvalues --    0.45361   0.45539   0.45827   0.46022   0.46163
 Alpha virt. eigenvalues --    0.46305   0.46460   0.46663   0.46787   0.46956
 Alpha virt. eigenvalues --    0.47371   0.47474   0.47550   0.47979   0.47998
 Alpha virt. eigenvalues --    0.48073   0.48343   0.48598   0.48723   0.49080
 Alpha virt. eigenvalues --    0.49207   0.49501   0.49663   0.50191   0.50266
 Alpha virt. eigenvalues --    0.50608   0.50821   0.50847   0.51227   0.51351
 Alpha virt. eigenvalues --    0.51770   0.51857   0.52138   0.52410   0.52446
 Alpha virt. eigenvalues --    0.52631   0.52781   0.53155   0.53435   0.53761
 Alpha virt. eigenvalues --    0.53810   0.53927   0.54334   0.54492   0.54527
 Alpha virt. eigenvalues --    0.54825   0.55223   0.55228   0.55344   0.55641
 Alpha virt. eigenvalues --    0.55819   0.56331   0.56524   0.56753   0.56949
 Alpha virt. eigenvalues --    0.57280   0.57397   0.57679   0.57776   0.58022
 Alpha virt. eigenvalues --    0.58174   0.58576   0.58855   0.58961   0.59459
 Alpha virt. eigenvalues --    0.59793   0.60217   0.60545   0.60691   0.60985
 Alpha virt. eigenvalues --    0.61269   0.61600   0.61865   0.61929   0.62221
 Alpha virt. eigenvalues --    0.62642   0.62779   0.63167   0.63340   0.63751
 Alpha virt. eigenvalues --    0.64128   0.64672   0.65140   0.65283   0.65438
 Alpha virt. eigenvalues --    0.65684   0.65838   0.66206   0.66581   0.66619
 Alpha virt. eigenvalues --    0.66839   0.67341   0.67586   0.67919   0.68254
 Alpha virt. eigenvalues --    0.68426   0.68948   0.69362   0.69508   0.69720
 Alpha virt. eigenvalues --    0.69971   0.70192   0.70220   0.70426   0.70711
 Alpha virt. eigenvalues --    0.70947   0.71284   0.72131   0.72173   0.72232
 Alpha virt. eigenvalues --    0.72358   0.72703   0.73162   0.73411   0.73586
 Alpha virt. eigenvalues --    0.73994   0.74294   0.74526   0.74954   0.75084
 Alpha virt. eigenvalues --    0.75303   0.75647   0.76002   0.76073   0.76611
 Alpha virt. eigenvalues --    0.76966   0.77170   0.77624   0.78125   0.78341
 Alpha virt. eigenvalues --    0.78681   0.78929   0.79031   0.79235   0.79379
 Alpha virt. eigenvalues --    0.79672   0.79865   0.80317   0.80416   0.80948
 Alpha virt. eigenvalues --    0.80983   0.81403   0.81851   0.82104   0.82147
 Alpha virt. eigenvalues --    0.82472   0.82793   0.82883   0.83220   0.83556
 Alpha virt. eigenvalues --    0.83806   0.83948   0.84140   0.84631   0.84802
 Alpha virt. eigenvalues --    0.85157   0.85444   0.85792   0.85881   0.85958
 Alpha virt. eigenvalues --    0.86355   0.86814   0.86926   0.87096   0.87314
 Alpha virt. eigenvalues --    0.87832   0.88152   0.88453   0.88612   0.88769
 Alpha virt. eigenvalues --    0.88995   0.89239   0.89863   0.90063   0.90219
 Alpha virt. eigenvalues --    0.90632   0.90862   0.91305   0.91526   0.91679
 Alpha virt. eigenvalues --    0.91999   0.92571   0.92660   0.93023   0.93190
 Alpha virt. eigenvalues --    0.93349   0.93812   0.93959   0.94086   0.94397
 Alpha virt. eigenvalues --    0.94704   0.94862   0.95511   0.95786   0.96168
 Alpha virt. eigenvalues --    0.96222   0.96582   0.96724   0.97090   0.97319
 Alpha virt. eigenvalues --    0.97420   0.97576   0.97887   0.97979   0.98312
 Alpha virt. eigenvalues --    0.98655   0.99034   0.99100   0.99130   0.99483
 Alpha virt. eigenvalues --    1.00090   1.00240   1.00889   1.01053   1.01606
 Alpha virt. eigenvalues --    1.01739   1.02079   1.02148   1.02668   1.02971
 Alpha virt. eigenvalues --    1.03315   1.03580   1.03847   1.04544   1.04728
 Alpha virt. eigenvalues --    1.05092   1.05518   1.05544   1.06363   1.06397
 Alpha virt. eigenvalues --    1.06542   1.06762   1.07335   1.07452   1.07860
 Alpha virt. eigenvalues --    1.08089   1.08355   1.08635   1.08907   1.09410
 Alpha virt. eigenvalues --    1.09657   1.10277   1.10379   1.10379   1.10681
 Alpha virt. eigenvalues --    1.10934   1.11449   1.12203   1.12285   1.12933
 Alpha virt. eigenvalues --    1.13417   1.13738   1.13994   1.14157   1.14773
 Alpha virt. eigenvalues --    1.15144   1.15309   1.15638   1.15753   1.16075
 Alpha virt. eigenvalues --    1.16362   1.17163   1.17273   1.17419   1.17980
 Alpha virt. eigenvalues --    1.18273   1.18503   1.19077   1.19311   1.19537
 Alpha virt. eigenvalues --    1.20063   1.20131   1.20405   1.21026   1.21434
 Alpha virt. eigenvalues --    1.21777   1.22044   1.22550   1.22794   1.23174
 Alpha virt. eigenvalues --    1.23475   1.23771   1.23946   1.24167   1.24950
 Alpha virt. eigenvalues --    1.25233   1.25485   1.25546   1.26383   1.26567
 Alpha virt. eigenvalues --    1.26731   1.27206   1.27852   1.28115   1.28500
 Alpha virt. eigenvalues --    1.28774   1.29700   1.29720   1.30254   1.30414
 Alpha virt. eigenvalues --    1.30753   1.31295   1.32090   1.32388   1.32960
 Alpha virt. eigenvalues --    1.33413   1.33693   1.34154   1.34676   1.35156
 Alpha virt. eigenvalues --    1.35533   1.36284   1.36561   1.36664   1.36881
 Alpha virt. eigenvalues --    1.37235   1.37686   1.38194   1.38645   1.38736
 Alpha virt. eigenvalues --    1.39041   1.39332   1.39597   1.39810   1.40013
 Alpha virt. eigenvalues --    1.40615   1.40825   1.41273   1.41801   1.41885
 Alpha virt. eigenvalues --    1.42269   1.42572   1.42648   1.43136   1.43591
 Alpha virt. eigenvalues --    1.43690   1.44207   1.44369   1.44721   1.44797
 Alpha virt. eigenvalues --    1.44954   1.45105   1.45347   1.45429   1.45751
 Alpha virt. eigenvalues --    1.46258   1.46437   1.46690   1.46770   1.47068
 Alpha virt. eigenvalues --    1.47348   1.47447   1.47767   1.47818   1.48126
 Alpha virt. eigenvalues --    1.48538   1.48957   1.48961   1.49418   1.49679
 Alpha virt. eigenvalues --    1.49914   1.49950   1.50383   1.50628   1.50824
 Alpha virt. eigenvalues --    1.51007   1.51207   1.51586   1.51862   1.52047
 Alpha virt. eigenvalues --    1.52438   1.52540   1.52755   1.52844   1.53186
 Alpha virt. eigenvalues --    1.53687   1.53835   1.53910   1.54119   1.54457
 Alpha virt. eigenvalues --    1.54714   1.55121   1.55296   1.55511   1.55824
 Alpha virt. eigenvalues --    1.56204   1.56284   1.56720   1.56809   1.57074
 Alpha virt. eigenvalues --    1.57447   1.57568   1.57765   1.58112   1.58172
 Alpha virt. eigenvalues --    1.58488   1.58768   1.59016   1.59394   1.59850
 Alpha virt. eigenvalues --    1.59933   1.60342   1.60663   1.60771   1.61058
 Alpha virt. eigenvalues --    1.61228   1.61508   1.61737   1.62106   1.62144
 Alpha virt. eigenvalues --    1.62526   1.63110   1.63302   1.63493   1.63564
 Alpha virt. eigenvalues --    1.63979   1.64305   1.64475   1.64939   1.65195
 Alpha virt. eigenvalues --    1.65353   1.65559   1.65782   1.66443   1.66633
 Alpha virt. eigenvalues --    1.66980   1.67440   1.67823   1.68220   1.68320
 Alpha virt. eigenvalues --    1.68439   1.69043   1.69285   1.69430   1.69742
 Alpha virt. eigenvalues --    1.70211   1.70773   1.71215   1.71413   1.71749
 Alpha virt. eigenvalues --    1.72115   1.72806   1.72995   1.73352   1.73712
 Alpha virt. eigenvalues --    1.74101   1.74735   1.75013   1.75319   1.76222
 Alpha virt. eigenvalues --    1.76448   1.76543   1.76649   1.77051   1.77492
 Alpha virt. eigenvalues --    1.77631   1.77886   1.78093   1.78513   1.78734
 Alpha virt. eigenvalues --    1.78892   1.79313   1.79896   1.80298   1.80454
 Alpha virt. eigenvalues --    1.80615   1.81236   1.81726   1.81900   1.82204
 Alpha virt. eigenvalues --    1.82401   1.82588   1.83088   1.83267   1.83562
 Alpha virt. eigenvalues --    1.83957   1.84089   1.84320   1.84795   1.85348
 Alpha virt. eigenvalues --    1.85785   1.85912   1.86643   1.86928   1.87053
 Alpha virt. eigenvalues --    1.87334   1.87519   1.87920   1.88098   1.88373
 Alpha virt. eigenvalues --    1.88566   1.89311   1.89502   1.89751   1.90386
 Alpha virt. eigenvalues --    1.90628   1.90803   1.91029   1.91399   1.92061
 Alpha virt. eigenvalues --    1.92222   1.92336   1.92722   1.93157   1.93679
 Alpha virt. eigenvalues --    1.93994   1.94203   1.94711   1.95069   1.95703
 Alpha virt. eigenvalues --    1.96101   1.96228   1.96594   1.96677   1.96902
 Alpha virt. eigenvalues --    1.97354   1.98027   1.98238   1.98346   1.98542
 Alpha virt. eigenvalues --    1.99027   2.00085   2.00416   2.00526   2.00923
 Alpha virt. eigenvalues --    2.01322   2.01833   2.02107   2.02311   2.02538
 Alpha virt. eigenvalues --    2.02602   2.03176   2.03672   2.04413   2.04513
 Alpha virt. eigenvalues --    2.05043   2.05240   2.05732   2.06051   2.06219
 Alpha virt. eigenvalues --    2.06718   2.06925   2.07293   2.07521   2.07894
 Alpha virt. eigenvalues --    2.08139   2.08391   2.08800   2.09220   2.09297
 Alpha virt. eigenvalues --    2.09369   2.09885   2.10106   2.10500   2.10529
 Alpha virt. eigenvalues --    2.10766   2.11251   2.11461   2.11703   2.12222
 Alpha virt. eigenvalues --    2.12595   2.12961   2.13100   2.13307   2.13557
 Alpha virt. eigenvalues --    2.14067   2.14747   2.15066   2.15364   2.15731
 Alpha virt. eigenvalues --    2.16036   2.16227   2.16589   2.16732   2.16969
 Alpha virt. eigenvalues --    2.17401   2.17678   2.18135   2.18235   2.18877
 Alpha virt. eigenvalues --    2.19168   2.19337   2.19957   2.20270   2.20292
 Alpha virt. eigenvalues --    2.20861   2.20993   2.21213   2.21915   2.22086
 Alpha virt. eigenvalues --    2.22467   2.22676   2.23203   2.23727   2.24070
 Alpha virt. eigenvalues --    2.24452   2.25020   2.25068   2.25440   2.25763
 Alpha virt. eigenvalues --    2.26200   2.26227   2.27323   2.27691   2.28031
 Alpha virt. eigenvalues --    2.28390   2.28733   2.28869   2.29279   2.29625
 Alpha virt. eigenvalues --    2.30031   2.30217   2.30772   2.30837   2.31122
 Alpha virt. eigenvalues --    2.31505   2.31640   2.32301   2.32662   2.33032
 Alpha virt. eigenvalues --    2.33117   2.33566   2.33979   2.34146   2.34228
 Alpha virt. eigenvalues --    2.34750   2.35012   2.35493   2.35694   2.36054
 Alpha virt. eigenvalues --    2.36174   2.36423   2.37254   2.37506   2.38121
 Alpha virt. eigenvalues --    2.38236   2.38602   2.38824   2.39247   2.39889
 Alpha virt. eigenvalues --    2.40365   2.40559   2.40762   2.41501   2.41587
 Alpha virt. eigenvalues --    2.41971   2.42418   2.42736   2.43059   2.43548
 Alpha virt. eigenvalues --    2.43844   2.44411   2.44847   2.44958   2.45192
 Alpha virt. eigenvalues --    2.45795   2.46041   2.46299   2.46771   2.47092
 Alpha virt. eigenvalues --    2.47382   2.47880   2.48010   2.48277   2.48837
 Alpha virt. eigenvalues --    2.49250   2.49432   2.49806   2.50280   2.50341
 Alpha virt. eigenvalues --    2.50646   2.50826   2.51118   2.51178   2.51736
 Alpha virt. eigenvalues --    2.52080   2.52170   2.52431   2.52803   2.52943
 Alpha virt. eigenvalues --    2.53111   2.53463   2.53755   2.54139   2.54296
 Alpha virt. eigenvalues --    2.54469   2.55093   2.55269   2.55509   2.56015
 Alpha virt. eigenvalues --    2.56205   2.56543   2.56701   2.56981   2.57102
 Alpha virt. eigenvalues --    2.57450   2.57741   2.58156   2.58301   2.58850
 Alpha virt. eigenvalues --    2.59167   2.59510   2.59849   2.60068   2.60700
 Alpha virt. eigenvalues --    2.61005   2.61226   2.61432   2.61546   2.62006
 Alpha virt. eigenvalues --    2.62285   2.62729   2.63036   2.63260   2.63297
 Alpha virt. eigenvalues --    2.63489   2.64150   2.64271   2.64551   2.64744
 Alpha virt. eigenvalues --    2.64990   2.65721   2.65801   2.66156   2.66582
 Alpha virt. eigenvalues --    2.66858   2.66959   2.67121   2.67264   2.68055
 Alpha virt. eigenvalues --    2.68180   2.68492   2.68562   2.68966   2.69257
 Alpha virt. eigenvalues --    2.69599   2.70244   2.70451   2.70490   2.70800
 Alpha virt. eigenvalues --    2.71367   2.71640   2.71766   2.72555   2.72959
 Alpha virt. eigenvalues --    2.73278   2.73388   2.73628   2.73695   2.74272
 Alpha virt. eigenvalues --    2.74336   2.74566   2.74978   2.75232   2.75722
 Alpha virt. eigenvalues --    2.76129   2.76637   2.77052   2.77145   2.77282
 Alpha virt. eigenvalues --    2.77643   2.77884   2.78610   2.78888   2.79350
 Alpha virt. eigenvalues --    2.80055   2.80608   2.80673   2.80797   2.81232
 Alpha virt. eigenvalues --    2.81757   2.81949   2.82269   2.82349   2.83030
 Alpha virt. eigenvalues --    2.83405   2.83663   2.84068   2.84548   2.84874
 Alpha virt. eigenvalues --    2.85020   2.85402   2.85549   2.86075   2.86126
 Alpha virt. eigenvalues --    2.86538   2.86737   2.87233   2.87290   2.87790
 Alpha virt. eigenvalues --    2.88541   2.88676   2.88811   2.88872   2.89105
 Alpha virt. eigenvalues --    2.89365   2.89719   2.89773   2.90339   2.90685
 Alpha virt. eigenvalues --    2.90968   2.91455   2.91854   2.92177   2.92433
 Alpha virt. eigenvalues --    2.92648   2.92997   2.93206   2.93462   2.93752
 Alpha virt. eigenvalues --    2.93881   2.94325   2.94640   2.95275   2.95562
 Alpha virt. eigenvalues --    2.95839   2.96432   2.96721   2.96906   2.97063
 Alpha virt. eigenvalues --    2.97294   2.97501   2.97734   2.97923   2.98471
 Alpha virt. eigenvalues --    2.98921   2.99232   2.99465   2.99856   3.00071
 Alpha virt. eigenvalues --    3.00362   3.00629   3.00949   3.01161   3.01531
 Alpha virt. eigenvalues --    3.01653   3.02109   3.02389   3.02695   3.03123
 Alpha virt. eigenvalues --    3.03177   3.03337   3.03469   3.03626   3.04034
 Alpha virt. eigenvalues --    3.04280   3.04304   3.04728   3.05086   3.05229
 Alpha virt. eigenvalues --    3.05443   3.05741   3.06007   3.06144   3.06428
 Alpha virt. eigenvalues --    3.06927   3.07262   3.07315   3.07547   3.07883
 Alpha virt. eigenvalues --    3.08279   3.08606   3.08806   3.08978   3.09138
 Alpha virt. eigenvalues --    3.09423   3.10201   3.10449   3.10517   3.10807
 Alpha virt. eigenvalues --    3.10929   3.11255   3.11476   3.11914   3.12255
 Alpha virt. eigenvalues --    3.12480   3.12713   3.13190   3.13423   3.13683
 Alpha virt. eigenvalues --    3.14091   3.14144   3.14523   3.14649   3.15165
 Alpha virt. eigenvalues --    3.15228   3.15497   3.15717   3.16075   3.16090
 Alpha virt. eigenvalues --    3.16230   3.16596   3.16709   3.17057   3.17191
 Alpha virt. eigenvalues --    3.17456   3.17694   3.17924   3.18328   3.18505
 Alpha virt. eigenvalues --    3.18773   3.18898   3.19314   3.19427   3.19606
 Alpha virt. eigenvalues --    3.19877   3.20096   3.20354   3.20676   3.20850
 Alpha virt. eigenvalues --    3.21153   3.21502   3.21567   3.21776   3.22012
 Alpha virt. eigenvalues --    3.22176   3.22364   3.22610   3.22887   3.23369
 Alpha virt. eigenvalues --    3.23612   3.23762   3.23894   3.24251   3.24358
 Alpha virt. eigenvalues --    3.24683   3.24759   3.25205   3.25314   3.25534
 Alpha virt. eigenvalues --    3.25773   3.26166   3.26442   3.26527   3.26760
 Alpha virt. eigenvalues --    3.27371   3.27557   3.27652   3.28208   3.28766
 Alpha virt. eigenvalues --    3.28939   3.29071   3.29294   3.29695   3.29939
 Alpha virt. eigenvalues --    3.29972   3.30350   3.30682   3.30913   3.30946
 Alpha virt. eigenvalues --    3.31362   3.31447   3.31816   3.32013   3.32084
 Alpha virt. eigenvalues --    3.32317   3.32811   3.33021   3.33424   3.33499
 Alpha virt. eigenvalues --    3.33628   3.33899   3.34299   3.34668   3.34771
 Alpha virt. eigenvalues --    3.35335   3.35495   3.35830   3.35914   3.36206
 Alpha virt. eigenvalues --    3.36453   3.36912   3.37370   3.37511   3.37628
 Alpha virt. eigenvalues --    3.38113   3.38542   3.38760   3.39311   3.39424
 Alpha virt. eigenvalues --    3.39719   3.40063   3.40187   3.40458   3.40789
 Alpha virt. eigenvalues --    3.41426   3.41475   3.41804   3.42185   3.42367
 Alpha virt. eigenvalues --    3.42860   3.43045   3.43158   3.43657   3.43891
 Alpha virt. eigenvalues --    3.44151   3.44405   3.44696   3.44792   3.45201
 Alpha virt. eigenvalues --    3.45507   3.46007   3.46176   3.46421   3.47089
 Alpha virt. eigenvalues --    3.47758   3.47830   3.48481   3.48617   3.49026
 Alpha virt. eigenvalues --    3.49347   3.49399   3.50097   3.50301   3.50877
 Alpha virt. eigenvalues --    3.51042   3.51138   3.51545   3.51706   3.52230
 Alpha virt. eigenvalues --    3.52528   3.52749   3.53096   3.53359   3.53713
 Alpha virt. eigenvalues --    3.53808   3.54129   3.55176   3.55474   3.55664
 Alpha virt. eigenvalues --    3.55720   3.56336   3.56559   3.56910   3.57335
 Alpha virt. eigenvalues --    3.57626   3.57889   3.58007   3.58640   3.58693
 Alpha virt. eigenvalues --    3.59384   3.59786   3.60138   3.60414   3.60637
 Alpha virt. eigenvalues --    3.60905   3.61350   3.61907   3.62059   3.62206
 Alpha virt. eigenvalues --    3.62505   3.63114   3.63633   3.63918   3.64098
 Alpha virt. eigenvalues --    3.64277   3.64602   3.64947   3.65101   3.65473
 Alpha virt. eigenvalues --    3.65589   3.65848   3.66303   3.67036   3.67061
 Alpha virt. eigenvalues --    3.67520   3.68081   3.68694   3.68827   3.69331
 Alpha virt. eigenvalues --    3.69497   3.70136   3.70418   3.70991   3.71188
 Alpha virt. eigenvalues --    3.71347   3.72710   3.73079   3.73309   3.73882
 Alpha virt. eigenvalues --    3.74095   3.74946   3.75515   3.75676   3.76037
 Alpha virt. eigenvalues --    3.76376   3.76997   3.77690   3.78099   3.78710
 Alpha virt. eigenvalues --    3.79103   3.79449   3.80233   3.80532   3.80713
 Alpha virt. eigenvalues --    3.81574   3.81823   3.82563   3.82598   3.83223
 Alpha virt. eigenvalues --    3.83416   3.83994   3.84268   3.84861   3.85525
 Alpha virt. eigenvalues --    3.85759   3.85991   3.86885   3.87310   3.87533
 Alpha virt. eigenvalues --    3.87846   3.88185   3.88866   3.89006   3.89564
 Alpha virt. eigenvalues --    3.90287   3.90781   3.90959   3.91558   3.91967
 Alpha virt. eigenvalues --    3.92102   3.92583   3.92855   3.92916   3.93539
 Alpha virt. eigenvalues --    3.94161   3.94313   3.94992   3.95304   3.96390
 Alpha virt. eigenvalues --    3.96740   3.97507   3.98263   3.98870   3.98889
 Alpha virt. eigenvalues --    3.99339   3.99627   4.00711   4.01038   4.01513
 Alpha virt. eigenvalues --    4.01925   4.02493   4.03242   4.03786   4.03942
 Alpha virt. eigenvalues --    4.05347   4.05514   4.06026   4.06386   4.06932
 Alpha virt. eigenvalues --    4.07753   4.08016   4.08732   4.09343   4.09812
 Alpha virt. eigenvalues --    4.10330   4.10833   4.11222   4.11371   4.11883
 Alpha virt. eigenvalues --    4.12610   4.12781   4.13295   4.13633   4.14095
 Alpha virt. eigenvalues --    4.14827   4.15345   4.15717   4.16077   4.16527
 Alpha virt. eigenvalues --    4.16575   4.17726   4.17774   4.18466   4.19018
 Alpha virt. eigenvalues --    4.19200   4.19900   4.20381   4.20840   4.21462
 Alpha virt. eigenvalues --    4.21836   4.23053   4.23311   4.23598   4.23985
 Alpha virt. eigenvalues --    4.24590   4.25747   4.25876   4.26042   4.26324
 Alpha virt. eigenvalues --    4.27139   4.27696   4.28041   4.28318   4.28843
 Alpha virt. eigenvalues --    4.29121   4.29783   4.30114   4.30562   4.30984
 Alpha virt. eigenvalues --    4.31385   4.31765   4.32564   4.33024   4.33136
 Alpha virt. eigenvalues --    4.33993   4.34465   4.34996   4.35534   4.36050
 Alpha virt. eigenvalues --    4.36578   4.37354   4.38129   4.38803   4.39849
 Alpha virt. eigenvalues --    4.40052   4.40700   4.41101   4.41454   4.42010
 Alpha virt. eigenvalues --    4.42193   4.43064   4.44484   4.45410   4.45622
 Alpha virt. eigenvalues --    4.46567   4.47601   4.47870   4.48500   4.48923
 Alpha virt. eigenvalues --    4.49219   4.49814   4.50550   4.50798   4.51858
 Alpha virt. eigenvalues --    4.52223   4.52563   4.52713   4.53214   4.54213
 Alpha virt. eigenvalues --    4.54465   4.54676   4.55266   4.55797   4.56373
 Alpha virt. eigenvalues --    4.57008   4.57517   4.58130   4.59119   4.59435
 Alpha virt. eigenvalues --    4.59959   4.60342   4.60514   4.60947   4.61771
 Alpha virt. eigenvalues --    4.62304   4.62590   4.63618   4.64142   4.64674
 Alpha virt. eigenvalues --    4.65646   4.66271   4.66720   4.67809   4.68180
 Alpha virt. eigenvalues --    4.68910   4.70151   4.70540   4.70839   4.71303
 Alpha virt. eigenvalues --    4.71553   4.71724   4.72081   4.73931   4.74653
 Alpha virt. eigenvalues --    4.74894   4.75335   4.75964   4.77164   4.77679
 Alpha virt. eigenvalues --    4.77881   4.79313   4.79571   4.80391   4.80789
 Alpha virt. eigenvalues --    4.81648   4.82079   4.82411   4.83052   4.83611
 Alpha virt. eigenvalues --    4.83927   4.85721   4.86790   4.86978   4.87572
 Alpha virt. eigenvalues --    4.88591   4.90551   4.90598   4.91257   4.91906
 Alpha virt. eigenvalues --    4.92675   4.92717   4.93258   4.94660   4.95106
 Alpha virt. eigenvalues --    4.95391   4.95572   4.96042   4.97444   4.99407
 Alpha virt. eigenvalues --    5.00650   5.01127   5.02059   5.02600   5.05512
 Alpha virt. eigenvalues --    5.07205   5.08436   5.09545   5.10028   5.10420
 Alpha virt. eigenvalues --    5.10732   5.12271   5.12876   5.12989   5.13170
 Alpha virt. eigenvalues --    5.14420   5.15232   5.16300   5.16780   5.16855
 Alpha virt. eigenvalues --    5.17418   5.17870   5.18134   5.18259   5.19601
 Alpha virt. eigenvalues --    5.22858   5.23660   5.23953   5.24465   5.26036
 Alpha virt. eigenvalues --    5.26253   5.27782   5.28290   5.29323   5.29633
 Alpha virt. eigenvalues --    5.29815   5.34087   5.34848   5.35457   5.35688
 Alpha virt. eigenvalues --    5.36035   5.37636   5.38827   5.39961   5.40068
 Alpha virt. eigenvalues --    5.40918   5.41624   5.42162   5.46679   5.47781
 Alpha virt. eigenvalues --    5.48356   5.50031   5.50310   5.51139   5.51276
 Alpha virt. eigenvalues --    5.51986   5.52973   5.53710   5.54443   5.55669
 Alpha virt. eigenvalues --    5.56600   5.58798   5.58971   5.59779   5.62138
 Alpha virt. eigenvalues --    5.63911   5.65527   5.67142   5.72025   5.72351
 Alpha virt. eigenvalues --    5.73662   5.74885   5.80019   5.84200   5.84283
 Alpha virt. eigenvalues --    5.84852   5.86695   5.88847   5.89407   5.91696
 Alpha virt. eigenvalues --    5.92435   5.93804   5.96349   5.97123   5.97607
 Alpha virt. eigenvalues --    5.99541   6.00363   6.02378   6.04014   6.07555
 Alpha virt. eigenvalues --    6.07803   6.09512   6.10504   6.12749   6.17156
 Alpha virt. eigenvalues --    6.19055   6.21092   6.22763   6.24620   6.25496
 Alpha virt. eigenvalues --    6.27123   6.31655   6.33956   6.39056   6.39825
 Alpha virt. eigenvalues --    6.41077   6.44286   6.44972   6.59030   6.59401
 Alpha virt. eigenvalues --    6.69264   6.69821   6.77311   6.78369   6.87287
 Alpha virt. eigenvalues --    6.87560   6.93359   6.98391   7.05722   7.06387
 Alpha virt. eigenvalues --    7.11053   7.12849   7.18808   7.19487   9.23106
 Alpha virt. eigenvalues --    9.45178   9.52478  20.08840  22.29640  22.33748
 Alpha virt. eigenvalues --   22.38214  22.42273  22.43011  22.43357  22.48115
 Alpha virt. eigenvalues --   22.49599  22.54406  22.56492  22.57680  22.63545
 Alpha virt. eigenvalues --   22.64652  22.65571  22.67473  22.70470  22.78851
 Alpha virt. eigenvalues --   22.80962  22.82568  22.85315  22.87414  22.91160
 Alpha virt. eigenvalues --   22.96668  22.99857  23.03852  23.08212  23.14268
 Alpha virt. eigenvalues --   23.19242  23.19780  23.21379  23.31985  23.34226
 Alpha virt. eigenvalues --   23.44340  23.45870  23.47536  23.49763  23.52587
 Alpha virt. eigenvalues --   23.61867  23.65025  23.67125  23.76336  32.37794
 Alpha virt. eigenvalues --   32.76249  32.87616  32.94922  32.99930  33.12634
 Alpha virt. eigenvalues --   43.86531  43.88720  43.89879  43.90922
  Beta  occ. eigenvalues -- -256.51130 -89.14456 -30.25772 -26.09576 -26.08633
  Beta  occ. eigenvalues --  -26.07979 -19.33215 -19.32500 -19.25447 -19.24636
  Beta  occ. eigenvalues --  -14.55110 -14.50145 -14.49649 -14.49415 -14.47087
  Beta  occ. eigenvalues --  -14.47029 -10.42658 -10.42230 -10.38844 -10.36315
  Beta  occ. eigenvalues --  -10.35845 -10.35712 -10.35603 -10.35561 -10.35274
  Beta  occ. eigenvalues --  -10.35248 -10.35011 -10.34979 -10.34052 -10.33878
  Beta  occ. eigenvalues --  -10.33019 -10.32586 -10.32371 -10.32240 -10.32204
  Beta  occ. eigenvalues --  -10.32167 -10.32135 -10.32084 -10.32073 -10.32053
  Beta  occ. eigenvalues --  -10.31853 -10.31781 -10.31687 -10.31670 -10.31654
  Beta  occ. eigenvalues --  -10.31433 -10.31173 -10.30643 -10.30614 -10.30510
  Beta  occ. eigenvalues --  -10.30369 -10.30183 -10.29854 -10.29837 -10.29239
  Beta  occ. eigenvalues --  -10.28235 -10.27466  -8.12358  -6.05942  -6.05704
  Beta  occ. eigenvalues --   -6.05266  -3.56441  -2.33347  -2.31624  -2.28540
  Beta  occ. eigenvalues --   -1.23714  -1.23104  -1.17059  -1.10320  -1.08804
  Beta  occ. eigenvalues --   -1.08762  -1.07842  -1.07385  -1.06466  -1.01717
  Beta  occ. eigenvalues --   -0.95022  -0.94266  -0.92646  -0.92343  -0.91787
  Beta  occ. eigenvalues --   -0.91389  -0.91172  -0.91053  -0.90849  -0.88228
  Beta  occ. eigenvalues --   -0.87726  -0.87082  -0.86861  -0.86533  -0.86264
  Beta  occ. eigenvalues --   -0.83793  -0.82353  -0.81705  -0.81382  -0.80746
  Beta  occ. eigenvalues --   -0.79218  -0.77960  -0.77657  -0.77423  -0.76114
  Beta  occ. eigenvalues --   -0.75868  -0.75308  -0.73912  -0.73735  -0.72787
  Beta  occ. eigenvalues --   -0.71349  -0.70194  -0.69538  -0.69010  -0.68462
  Beta  occ. eigenvalues --   -0.66979  -0.65754  -0.64609  -0.64120  -0.63534
  Beta  occ. eigenvalues --   -0.62441  -0.62037  -0.61581  -0.60995  -0.60050
  Beta  occ. eigenvalues --   -0.59468  -0.59054  -0.58902  -0.58551  -0.58380
  Beta  occ. eigenvalues --   -0.58197  -0.58007  -0.57576  -0.57004  -0.56603
  Beta  occ. eigenvalues --   -0.55757  -0.55562  -0.55168  -0.54857  -0.54787
  Beta  occ. eigenvalues --   -0.54715  -0.54526  -0.54196  -0.53917  -0.53460
  Beta  occ. eigenvalues --   -0.53382  -0.53269  -0.53001  -0.52794  -0.52744
  Beta  occ. eigenvalues --   -0.52421  -0.52330  -0.51951  -0.51753  -0.51607
  Beta  occ. eigenvalues --   -0.51452  -0.51082  -0.50851  -0.50624  -0.50467
  Beta  occ. eigenvalues --   -0.50131  -0.49933  -0.49633  -0.49479  -0.49206
  Beta  occ. eigenvalues --   -0.48789  -0.48672  -0.48417  -0.48264  -0.47925
  Beta  occ. eigenvalues --   -0.47826  -0.47609  -0.47160  -0.46986  -0.46780
  Beta  occ. eigenvalues --   -0.46564  -0.46531  -0.46119  -0.45974  -0.45461
  Beta  occ. eigenvalues --   -0.45278  -0.44680  -0.44564  -0.43693  -0.43471
  Beta  occ. eigenvalues --   -0.43303  -0.43033  -0.42601  -0.42524  -0.42232
  Beta  occ. eigenvalues --   -0.41883  -0.40733  -0.40531  -0.39510  -0.39369
  Beta  occ. eigenvalues --   -0.38708  -0.38307  -0.37353  -0.35530  -0.35335
  Beta  occ. eigenvalues --   -0.34798  -0.34344  -0.33967  -0.33789  -0.32690
  Beta  occ. eigenvalues --   -0.30005  -0.29327
  Beta virt. eigenvalues --   -0.19368  -0.17722  -0.16760  -0.15435  -0.12553
  Beta virt. eigenvalues --   -0.12125  -0.10422  -0.09976  -0.09456  -0.08437
  Beta virt. eigenvalues --   -0.08060  -0.07896  -0.07452  -0.06621  -0.05946
  Beta virt. eigenvalues --   -0.05408  -0.05065  -0.04752  -0.04365  -0.03692
  Beta virt. eigenvalues --   -0.03087  -0.02650  -0.02507  -0.02370  -0.02153
  Beta virt. eigenvalues --   -0.02003  -0.01744  -0.01554  -0.01440  -0.00662
  Beta virt. eigenvalues --   -0.00575  -0.00478  -0.00205  -0.00030   0.00153
  Beta virt. eigenvalues --    0.00768   0.00974   0.01593   0.01770   0.01854
  Beta virt. eigenvalues --    0.02185   0.02747   0.02868   0.02924   0.03119
  Beta virt. eigenvalues --    0.03433   0.03551   0.03739   0.03895   0.04198
  Beta virt. eigenvalues --    0.04249   0.04366   0.04625   0.04772   0.05067
  Beta virt. eigenvalues --    0.05238   0.05252   0.05472   0.05702   0.05926
  Beta virt. eigenvalues --    0.06070   0.06250   0.06445   0.06798   0.06919
  Beta virt. eigenvalues --    0.07265   0.07456   0.07558   0.07745   0.07981
  Beta virt. eigenvalues --    0.08039   0.08245   0.08391   0.08827   0.08904
  Beta virt. eigenvalues --    0.09200   0.09352   0.09495   0.09627   0.09809
  Beta virt. eigenvalues --    0.10078   0.10422   0.10470   0.10522   0.10725
  Beta virt. eigenvalues --    0.10903   0.11358   0.11533   0.11846   0.11972
  Beta virt. eigenvalues --    0.12259   0.12349   0.12379   0.12669   0.12841
  Beta virt. eigenvalues --    0.13075   0.13121   0.13404   0.13600   0.13775
  Beta virt. eigenvalues --    0.13957   0.14364   0.14546   0.14702   0.15000
  Beta virt. eigenvalues --    0.15135   0.15520   0.15551   0.15685   0.16009
  Beta virt. eigenvalues --    0.16020   0.16298   0.16491   0.16759   0.16919
  Beta virt. eigenvalues --    0.17051   0.17226   0.17416   0.17537   0.17888
  Beta virt. eigenvalues --    0.18062   0.18292   0.18442   0.18732   0.18779
  Beta virt. eigenvalues --    0.19213   0.19394   0.19616   0.19706   0.19867
  Beta virt. eigenvalues --    0.20446   0.20612   0.20822   0.20891   0.21076
  Beta virt. eigenvalues --    0.21433   0.21577   0.21724   0.22079   0.22330
  Beta virt. eigenvalues --    0.22751   0.22881   0.23109   0.23524   0.23644
  Beta virt. eigenvalues --    0.23724   0.24027   0.24276   0.24428   0.24695
  Beta virt. eigenvalues --    0.24954   0.25329   0.25481   0.25565   0.25643
  Beta virt. eigenvalues --    0.25973   0.26302   0.26425   0.26620   0.26739
  Beta virt. eigenvalues --    0.27245   0.27406   0.27549   0.27852   0.28067
  Beta virt. eigenvalues --    0.28202   0.28463   0.28704   0.28834   0.29191
  Beta virt. eigenvalues --    0.29484   0.29664   0.29802   0.30055   0.30246
  Beta virt. eigenvalues --    0.30342   0.30599   0.30838   0.31134   0.31203
  Beta virt. eigenvalues --    0.31430   0.31491   0.31668   0.31724   0.31901
  Beta virt. eigenvalues --    0.32202   0.32523   0.32675   0.32860   0.33021
  Beta virt. eigenvalues --    0.33238   0.33320   0.33623   0.33728   0.33975
  Beta virt. eigenvalues --    0.34177   0.34321   0.34546   0.34588   0.34941
  Beta virt. eigenvalues --    0.35097   0.35250   0.35362   0.35514   0.35791
  Beta virt. eigenvalues --    0.35877   0.36013   0.36231   0.36474   0.36601
  Beta virt. eigenvalues --    0.36698   0.36856   0.37041   0.37230   0.37278
  Beta virt. eigenvalues --    0.37377   0.37687   0.37797   0.37969   0.38130
  Beta virt. eigenvalues --    0.38535   0.38569   0.38609   0.38846   0.39105
  Beta virt. eigenvalues --    0.39363   0.39464   0.39557   0.39837   0.40088
  Beta virt. eigenvalues --    0.40199   0.40396   0.40438   0.40526   0.40776
  Beta virt. eigenvalues --    0.41034   0.41054   0.41190   0.41412   0.41696
  Beta virt. eigenvalues --    0.41793   0.42120   0.42326   0.42510   0.42758
  Beta virt. eigenvalues --    0.42848   0.42962   0.43120   0.43416   0.43683
  Beta virt. eigenvalues --    0.43839   0.44061   0.44113   0.44187   0.44527
  Beta virt. eigenvalues --    0.44729   0.44836   0.45050   0.45170   0.45280
  Beta virt. eigenvalues --    0.45578   0.45752   0.46025   0.46233   0.46372
  Beta virt. eigenvalues --    0.46430   0.46567   0.46814   0.47022   0.47237
  Beta virt. eigenvalues --    0.47647   0.47716   0.47871   0.48085   0.48209
  Beta virt. eigenvalues --    0.48277   0.48599   0.48692   0.48971   0.49289
  Beta virt. eigenvalues --    0.49458   0.49689   0.49810   0.50352   0.50425
  Beta virt. eigenvalues --    0.50851   0.50949   0.51154   0.51406   0.51554
  Beta virt. eigenvalues --    0.51919   0.52054   0.52301   0.52499   0.52609
  Beta virt. eigenvalues --    0.52847   0.53101   0.53358   0.53622   0.53856
  Beta virt. eigenvalues --    0.54006   0.54173   0.54496   0.54657   0.54702
  Beta virt. eigenvalues --    0.54968   0.55423   0.55441   0.55590   0.55789
  Beta virt. eigenvalues --    0.56087   0.56517   0.56709   0.56874   0.57058
  Beta virt. eigenvalues --    0.57455   0.57666   0.57911   0.57946   0.58272
  Beta virt. eigenvalues --    0.58290   0.58788   0.59053   0.59182   0.59668
  Beta virt. eigenvalues --    0.60049   0.60372   0.60770   0.60991   0.61192
[...]
  1725. RY*(   4) H  81                  0.00003     2.07667   
  1726. RY*(   5) H  81                  0.00000     2.84911   
  1727. RY*(   1) H  82                  0.00033     1.00330   
  1728. RY*(   2) H  82                  0.00008     1.67669   
  1729. RY*(   3) H  82                  0.00004     2.08810   
  1730. RY*(   4) H  82                  0.00002     1.94355   
  1731. RY*(   5) H  82                  0.00000     2.86883   
  1732. RY*(   1) H  83                  0.00032     0.95789   
  1733. RY*(   2) H  83                  0.00008     1.84866   
  1734. RY*(   3) H  83                  0.00004     1.78860   
  1735. RY*(   4) H  83                  0.00003     2.08229   
  1736. RY*(   5) H  83                  0.00000     2.89391   
  1737. RY*(   1) H  84                  0.00023     1.13537   
  1738. RY*(   2) H  84                  0.00009     1.80790   
  1739. RY*(   3) H  84                  0.00004     2.08084   
  1740. RY*(   4) H  84                  0.00001     2.24080   
  1741. RY*(   5) H  84                  0.00001     2.36448   
  1742. RY*(   1) H  85                  0.00066     0.58653   
  1743. RY*(   2) H  85                  0.00013     2.08666   
  1744. RY*(   3) H  85                  0.00012     2.17409   
  1745. RY*(   4) H  85                  0.00005     2.98240   
  1746. RY*(   5) H  85                  0.00000     3.09930   
  1747. RY*(   1) H  86                  0.00078     0.54337   
  1748. RY*(   2) H  86                  0.00014     2.09685   
  1749. RY*(   3) H  86                  0.00013     2.17871   
  1750. RY*(   4) H  86                  0.00005     2.98334   
  1751. RY*(   5) H  86                  0.00001     3.09986   
  1752. RY*(   1) H  87                  0.00026     1.07082   
  1753. RY*(   2) H  87                  0.00008     1.75940   
  1754. RY*(   3) H  87                  0.00003     1.86019   
  1755. RY*(   4) H  87                  0.00003     2.07971   
  1756. RY*(   5) H  87                  0.00000     2.90317   
  1757. RY*(   1) H  88                  0.00032     1.01870   
  1758. RY*(   2) H  88                  0.00008     1.62582   
  1759. RY*(   3) H  88                  0.00003     2.07147   
  1760. RY*(   4) H  88                  0.00003     2.03842   
  1761. RY*(   5) H  88                  0.00000     2.79721   
  1762. RY*(   1) H  89                  0.00024     1.05690   
  1763. RY*(   2) H  89                  0.00009     1.81968   
  1764. RY*(   3) H  89                  0.00003     1.88340   
  1765. RY*(   4) H  89                  0.00003     2.01897   
  1766. RY*(   5) H  89                  0.00000     2.83455   
  1767. RY*(   1) H  90                  0.00065     0.57537   
  1768. RY*(   2) H  90                  0.00013     2.05727   
  1769. RY*(   3) H  90                  0.00012     2.17079   
  1770. RY*(   4) H  90                  0.00005     2.93657   
  1771. RY*(   5) H  90                  0.00000     3.11132   
  1772. RY*(   1) H  91                  0.00030     1.03278   
  1773. RY*(   2) H  91                  0.00008     1.63901   
  1774. RY*(   3) H  91                  0.00004     2.08672   
  1775. RY*(   4) H  91                  0.00002     1.85253   
  1776. RY*(   5) H  91                  0.00000     2.91505   
  1777. RY*(   1) H  92                  0.00028     1.01490   
  1778. RY*(   2) H  92                  0.00008     1.71752   
  1779. RY*(   3) H  92                  0.00003     2.13412   
  1780. RY*(   4) H  92                  0.00002     1.78770   
  1781. RY*(   5) H  92                  0.00000     2.87446   
  1782. RY*(   1) H  93                  0.00021     1.22455   
  1783. RY*(   2) H  93                  0.00008     1.83548   
  1784. RY*(   3) H  93                  0.00003     2.07054   
  1785. RY*(   4) H  93                  0.00002     1.84803   
  1786. RY*(   5) H  93                  0.00000     2.69337   
  1787. RY*(   1) H  94                  0.00031     1.20991   
  1788. RY*(   2) H  94                  0.00011     1.56905   
  1789. RY*(   3) H  94                  0.00006     2.43055   
  1790. RY*(   4) H  94                  0.00001     2.26978   
  1791. RY*(   5) H  94                  0.00000     2.90366   
  1792. RY*(   1) H  95                  0.00032     1.35329   
  1793. RY*(   2) H  95                  0.00008     1.23726   
  1794. RY*(   3) H  95                  0.00006     2.15342   
  1795. RY*(   4) H  95                  0.00002     2.29230   
  1796. RY*(   5) H  95                  0.00001     2.96926   
  1797. RY*(   1) H  96                  0.00026     1.35301   
  1798. RY*(   2) H  96                  0.00008     1.23508   
  1799. RY*(   3) H  96                  0.00004     2.16204   
  1800. RY*(   4) H  96                  0.00002     2.25491   
  1801. RY*(   5) H  96                  0.00000     2.97630   
  1802. RY*(   1) H  97                  0.00026     1.29996   
  1803. RY*(   2) H  97                  0.00009     1.38950   
  1804. RY*(   3) H  97                  0.00005     2.10277   
  1805. RY*(   4) H  97                  0.00001     3.01755   
  1806. RY*(   5) H  97                  0.00002     2.12451   
  1807. RY*(   1) H  98                  0.00034     1.11673   
  1808. RY*(   2) H  98                  0.00011     1.59813   
  1809. RY*(   3) H  98                  0.00006     2.43308   
  1810. RY*(   4) H  98                  0.00001     2.17020   
  1811. RY*(   5) H  98                  0.00001     2.94385   
  1812. RY*(   1) H  99                  0.00040     1.11337   
  1813. RY*(   2) H  99                  0.00006     1.51696   
  1814. RY*(   3) H  99                  0.00005     2.11366   
  1815. RY*(   4) H  99                  0.00003     2.30760   
  1816. RY*(   5) H  99                  0.00000     2.98531   
  1817. RY*(   1) H 100                  0.00017     1.89465   
  1818. RY*(   2) H 100                  0.00004     0.78021   
  1819. RY*(   3) H 100                  0.00005     2.14880   
  1820. RY*(   4) H 100                  0.00002     2.52226   
  1821. RY*(   5) H 100                  0.00001     2.49350   
  1822. RY*(   1) H 101                  0.00023     1.42865   
  1823. RY*(   2) H 101                  0.00007     1.18731   
  1824. RY*(   3) H 101                  0.00005     1.22203   
  1825. RY*(   4) H 101                  0.00002     1.10556   
  1826. RY*(   5) H 101                  0.00000     3.40638   
  1841. BD*(   1) C   7 - C   8          0.00461     0.28157   
  1842. BD*(   1) C   7 - H  57          0.00284     0.32702   
  1843. BD*(   1) C   7 - H  58          0.00308     0.33091   
  1844. BD*(   1) C   7 - H  59          0.00341     0.32846   
  1845. BD*(   1) C   8 - S   9          0.01690     0.06948   
  1846. BD*(   1) C   8 - H  60          0.00979     0.30971   
  1847. BD*(   1) C   8 - H  61          0.00698     0.30609   
  1848. BD*(   1) S   9 - C  10          0.00929     0.06388   
  1849. BD*(   1) S   9 -Fe  11          0.04094     0.26171   
  1850. BD*(   1) C  10 - H  54          0.00455     0.29729   
  1851. BD*(   1) C  10 - H  55          0.00682     0.32542   
  1852. BD*(   1) C  10 - H  56          0.00388     0.29396   
  1853. BD*(   1)Fe  11 - N  16          0.03260     0.27146   
  1854. BD*(   1)Fe  11 - N  27          0.03418     0.29992   
  1855. BD*(   1)Fe  11 - N  35          0.03545     0.29607   
  1856. BD*(   1)Fe  11 - N  43          0.03391     0.28384   
  1857. BD*(   1) C  12 - C  17          0.00977     0.47972   
  1858. BD*(   2) C  12 - C  17          0.20023    -0.05787  1930(v),1877(v),497(g)
                                                    1871(r),631(g),629(g)
  1859. BD*(   1) C  12 - C  47          0.01091     0.45371   
  1860. BD*(   1) C  12 - H  73          0.00650     0.35273   
  1861. BD*(   1) C  13 - C  20          0.01004     0.48016   
  1862. BD*(   2) C  13 - C  20          0.19910    -0.04753  1895(v),1877(v),1947(r)
                                                    1948(r),523(g),709(g)
                                                    1826(r)
  1863. BD*(   1) C  13 - C  28          0.01046     0.47309   
  1864. BD*(   1) C  13 - H  86          0.00678     0.35081   
  1865. BD*(   1) C  14 - C  31          0.00978     0.46574   
  1866. BD*(   2) C  14 - C  31          0.20027    -0.05832  1912(v),1899(v),1895(v)
                                                    549(g),550(g)
  1867. BD*(   1) C  14 - C  36          0.00945     0.47722   
  1868. BD*(   1) C  14 - H  90          0.00597     0.35310   
  1869. BD*(   1) C  15 - C  39          0.00976     0.49218   
  1870. BD*(   1) C  15 - C  44          0.01011     0.47635   
  1871. BD*(   2) C  15 - C  44          0.19437    -0.05483  1933(v),202(v),1930(v)
                                                    575(g),1858(r),1332(g)
  1872. BD*(   1) C  15 - H  85          0.00611     0.35111   
  1873. BD*(   1) N  16 - C  17          0.01462     0.38483   
  1874. BD*(   1) N  16 - C  20          0.01391     0.40640   
  1875. BD*(   1) C  17 - C  18          0.01745     0.38831   
  1876. BD*(   1) C  18 - C  19          0.00951     0.57048   
  1877. BD*(   2) C  18 - C  19          0.10413    -0.01519  1862(v),1858(v),1884(v)
                                                    1882(v)
  1878. BD*(   1) C  18 - C  22          0.01250     0.26992   
  1879. BD*(   1) C  19 - C  20          0.01814     0.37636   
  1880. BD*(   1) C  19 - C  21          0.00941     0.26679   
  1881. BD*(   1) C  21 - H  79          0.00255     0.32345   
  1882. BD*(   1) C  21 - H  80          0.00391     0.32075   
  1883. BD*(   1) C  21 - H  81          0.00257     0.32795   
  1884. BD*(   1) C  22 - C  23          0.00717     0.25358   
  1885. BD*(   1) C  22 - H  71          0.00520     0.33698   
  1886. BD*(   1) C  22 - H  72          0.00573     0.33703   
  1887. BD*(   1) C  23 - C  24          0.04083     0.27600   
  1888. BD*(   1) C  23 - H  69          0.00623     0.30056   
  1889. BD*(   1) C  23 - H  70          0.00622     0.30491   
  1890. BD*(   1) C  24 - O  25          0.03582     0.41165   
  1891. BD*(   1) C  24 - O  26          0.02749     0.44758   
  1892. BD*(   2) C  24 - O  26          0.08792    -0.03730   
  1893. BD*(   1) O  25 - H  68          0.00679     0.30048   
  1894. BD*(   1) N  27 - C  28          0.01600     0.35805   
  1895. BD*(   2) N  27 - C  28          0.33625    -0.11130  1862(v),1899(v),1866(v)
                                                    194(v),915(g),887(g),916(g)
                                                    193(v),195(v),523(v)
  1896. BD*(   1) N  27 - C  31          0.01573     0.34574   
  1897. BD*(   1) C  28 - C  29          0.01664     0.39398   
  1898. BD*(   1) C  29 - C  30          0.00859     0.53245   
  1899. BD*(   2) C  29 - C  30          0.11593    -0.02059  1866(v),1895(v),201(v)
                                                    1904(v),1907(v),1906(v)
  1900. BD*(   1) C  29 - C  32          0.00910     0.26183   
  1901. BD*(   1) C  30 - C  31          0.01369     0.40938   
  1902. BD*(   1) C  30 - C  33          0.01423     0.27758   
  1903. BD*(   1) C  32 - H  87          0.00215     0.33328   
  1904. BD*(   1) C  32 - H  88          0.00392     0.32598   
  1905. BD*(   1) C  32 - H  89          0.00249     0.32495   
  1906. BD*(   1) C  33 - C  34          0.00287     0.44902   
  1907. BD*(   1) C  33 - H  98          0.00806     0.36910   
  1908. BD*(   1) C  34 - H  99          0.00467     0.32804   
  1909. BD*(   1) C  34 - H 100          0.00171     0.33046   
  1910. BD*(   1) C  34 - H 101          0.00304     0.32961   
  1911. BD*(   1) N  35 - C  36          0.01392     0.38150   
  1912. BD*(   2) N  35 - C  36          0.32344    -0.09682  1866(v),1916(v),194(v)
                                                    202(v),1122(g),1096(g)
                                                    1837(r)
  1913. BD*(   1) N  35 - C  39          0.01417     0.39672   
  1914. BD*(   1) C  36 - C  37          0.01696     0.39605   
  1915. BD*(   1) C  37 - C  38          0.00822     0.55297   
  1916. BD*(   2) C  37 - C  38          0.10676    -0.01293  1912(v),202(v),203(v)
                                                    1920(v),1921(v),1924(v)
  1917. BD*(   1) C  37 - C  40          0.00903     0.26808   
  1918. BD*(   1) C  38 - C  39          0.01493     0.39602   
  1919. BD*(   1) C  38 - C  41          0.01592     0.27924   
  1920. BD*(   1) C  40 - H  91          0.00340     0.32933   
  1921. BD*(   1) C  40 - H  92          0.00252     0.33213   
  1922. BD*(   1) C  40 - H  93          0.00237     0.33230   
  1923. BD*(   1) C  41 - C  42          0.00308     0.51856   
  1924. BD*(   1) C  41 - H  94          0.00819     0.37358   
  1925. BD*(   1) C  42 - H  95          0.00408     0.33225   
  1926. BD*(   1) C  42 - H  96          0.00451     0.33428   
  1927. BD*(   1) C  42 - H  97          0.00224     0.33342   
  1928. BD*(   1) N  43 - C  44          0.01640     0.33510   
  1929. BD*(   1) N  43 - C  47          0.01513     0.37362   
  1930. BD*(   2) N  43 - C  47          0.32940    -0.10947  1858(v),1933(v),1871(v)
                                                    194(v),1407(g),1302(g)
                                                    1406(g),497(v),193(v)
                                                    1948(r),1947(r),1408(g)
                                                    1837(r),1840(r),1836(r)
  1931. BD*(   1) C  44 - C  45          0.01557     0.41050   
  1932. BD*(   1) C  45 - C  46          0.00983     0.53824   
  1933. BD*(   2) C  45 - C  46          0.11713    -0.02181  1871(v),1930(v),1940(v)
                                                    1937(v)
  1934. BD*(   1) C  45 - C  48          0.00964     0.25431   
  1935. BD*(   1) C  46 - C  47          0.01642     0.40254   
  1936. BD*(   1) C  46 - C  49          0.01246     0.26660   
  1937. BD*(   1) C  48 - H  82          0.00379     0.32941   
  1938. BD*(   1) C  48 - H  83          0.00257     0.32561   
  1939. BD*(   1) C  48 - H  84          0.00250     0.32425   
  1940. BD*(   1) C  49 - C  50          0.00883     0.25973   
  1941. BD*(   1) C  49 - H  74          0.00595     0.33433   
  1942. BD*(   1) C  49 - H  75          0.00593     0.32990   
  1943. BD*(   1) C  50 - C  51          0.03697     0.30063   
  1944. BD*(   1) C  50 - H  76          0.00561     0.31344   
  1945. BD*(   1) C  50 - H  77          0.00549     0.36515   
  1946. BD*(   1) C  51 - O  52          0.02084     0.62781   
  1947. BD*(   2) C  51 - O  52          0.09044     0.34448   
  1948. BD*(   1) C  51 - O  53          0.03614     5.15061   
  1949. BD*(   1) O  53 - H  78          0.00672     3.36618   
       -------------------------------
              Total Lewis  175.86274  ( 97.5950%)
        Valence non-Lewis    4.00306  (  2.2215%)
        Rydberg non-Lewis    0.33068  (  0.1835%)
       -------------------------------
            Total unit  2  180.19648  (100.0000%)
           Charge unit  2    2.80352
 1\1\GINC-NODE631\SP\UPBE1PBE\def2TZVP\C41H48Fe1N6O4S1(1+,6)\ZHARTOVSKA
 \30-Sep-2022\0\\# PBE1PBE/def2TZVP empiricaldispersion=GD3BJ scf=maxcy
 cle=999 geom=check pop=nbo\\1h9xc_III_H\\1,6\C,0,108.765999,41.389999,
 198.218002\C,0,109.397003,41.452,196.856003\N,0,108.658997,41.402,195.
 705002\C,0,110.708,41.555,196.488998\C,0,109.480003,41.455002,194.6649
 93\N,0,110.721001,41.555,195.100998\C,0,113.728996,43.437,190.542999\C
 ,0,114.058998,42.056,191.041\S,0,114.267998,41.828999,192.822998\C,0,1
 15.002998,40.182999,192.723007\Fe,0,112.424004,41.676998,194.016998\C,
 0,110.544998,41.091,191.162003\C,0,112.714996,38.337002,194.487\C,0,11
 4.471001,42.27,196.733994\C,0,111.820999,45.012001,193.757996\N,0,111.
 765999,40.029999,193.024002\C,0,111.037003,40.008999,191.850998\C,0,11
 0.902,38.625999,191.427994\C,0,111.483002,37.854,192.328995\C,0,112.00
 9003,38.731998,193.371994\C,0,111.610001,36.312,192.376007\C,0,110.147
 003,38.23,190.123001\C,0,108.632004,38.055,190.399002\C,0,107.761002,3
 7.967999,189.171005\O,0,106.549004,37.679001,189.343002\O,0,108.268997
 ,38.198002,188.056\N,0,113.362999,40.544998,195.330994\C,0,113.367996,
 39.154999,195.386002\C,0,114.176003,38.714001,196.488998\C,0,114.66799
 9,39.801998,197.082993\C,0,114.186996,40.957001,196.388\C,0,114.400002
 ,37.226002,196.867996\C,0,115.609001,39.785999,198.343994\C,0,116.9391
 0131,39.36235088,198.22039219\N,0,113.030998,43.317001,195.031998\C,0,
 113.892998,43.360001,196.115997\C,0,114.055,44.737999,196.531006\C,0,1
 13.342003,45.491001,195.697998\C,0,112.657997,44.615002,194.770004\C,0
 ,114.928001,45.194,197.731995\C,0,113.154999,47.051998,195.815994\C,0,
 114.23110075,47.87155515,195.73293893\N,0,111.411003,42.783001,192.738
 998\C,0,111.259003,44.183998,192.807999\C,0,110.457001,44.629002,191.7
 16003\C,0,110.101997,43.554001,191.016006\C,0,110.700996,42.396,191.61
 9995\C,0,110.075996,46.111,191.429001\C,0,109.226997,43.527,189.710007
 \C,0,110.176003,43.561001,188.490997\C,0,109.574997,43.698002,187.1239
 93\O,0,110.362999,43.536999,186.153\O,0,108.356003,43.978001,187.01400
 8\H,0,115.94617555,40.18225682,193.22829459\H,0,114.35022389,39.472225
 49,193.1851617\H,0,115.14819972,39.91899621,191.69630403\H,0,114.50315
 416,43.7734876,189.88546175\H,0,112.79839184,43.41299749,190.01545775\
 H,0,113.65077302,44.10656307,191.37394211\H,0,113.27825718,41.39903579
 ,190.71891026\H,0,114.96623706,41.74698599,190.56526096\H,0,109.409049
 75,41.86247385,198.93085068\H,0,107.82333991,41.89584737,198.19772235\
 H,0,108.61619482,40.36751754,198.49547341\H,0,111.55456056,41.62216616
 ,197.1399388\H,0,107.66237025,41.33617888,195.65598461\H,0,109.1835386
 6,41.42197012,193.6374144\H,0,106.30877507,36.88029421,189.8183519\H,0
 ,108.49630737,37.16064743,190.9705087\H,0,108.30022991,38.88480565,190
 .98743087\H,0,110.54595057,37.30966351,189.75054753\H,0,110.28530504,3
 8.99659495,189.38944478\H,0,110.02425698,40.92479571,190.24216338\H,0,
 108.58252929,44.38090039,189.68962316\H,0,108.64117116,42.63192727,189
 .68649328\H,0,110.85143177,44.37910572,188.63028322\H,0,110.74921623,4
 2.65756873,188.50269022\H,0,108.0891786,44.83633099,186.67685171\H,0,1
 12.50996941,36.04371647,192.88882355\H,0,110.76855741,35.9004271,192.8
 9319211\H,0,111.63926341,35.92595899,191.37850209\H,0,110.83579683,46.
 56451722,190.82739911\H,0,109.141625,46.14470909,190.90869866\H,0,109.
 98871091,46.64231407,192.35365589\H,0,111.58351142,46.05372453,193.700
 44834\H,0,112.76191326,37.28483709,194.67580619\H,0,115.31598852,37.13
 069965,197.41277684\H,0,113.5869863,36.88627729,197.4750319\H,0,114.45
 148747,36.63499415,195.97751356\H,0,115.17451012,42.44665502,197.52061
 203\H,0,115.85106189,45.5959652,197.36966564\H,0,114.40587956,45.94457
 312,198.28780899\H,0,115.12847074,44.35560014,198.36587003\H,0,112.178
 44475,47.46433946,195.96165226\H,0,114.88617453,47.52307268,194.962005
 53\H,0,113.90612675,48.86471768,195.50289527\H,0,114.75063856,47.87395
 755,196.66833975\H,0,115.23333813,40.09858414,199.29587001\H,0,117.065
 10063,38.84964255,197.28971806\H,0,117.58837312,40.21232937,198.250101
 93\H,0,117.17939127,38.70161597,199.02698386\\Version=ES64L-G16RevA.03
 \State=6-A\HF=-3880.35219\S2=8.822412\S2-1=0.\S2A=8.751104\RMSD=1.632e
 -09\Dipole=-1.1012313,-0.1298451,3.8886434\Quadrupole=12.6398442,21.99
 68867,-34.6367309,0.2819487,6.0419755,-10.8056877\PG=C01 [X(C41H48Fe1N
 6O4S1)]\\@


 I WANT IT ALL - RICH, THIN, AND CHOCOLATE.
 Job cpu time:       4 days  7 hours  6 minutes 41.1 seconds.
 Elapsed time:       1 days  1 hours 50 minutes 51.3 seconds.
 File lengths (MBytes):  RWF=   3495 Int=      0 D2E=      0 Chk=    292 Scr=      1
 Normal termination of Gaussian 16 at Fri Sep 30 14:19:41 2022.
