 Entering Gaussian System, Link 0=g16
 Input=/net/homes/chemie/zhartovska/work/BioModel/Konrad/2pcb/2pcb12/2pcb16/2pcb16.com
 Output=/net/homes/chemie/zhartovska/work/BioModel/Konrad/2pcb/2pcb12/2pcb16/2pcb16.log
 Initial command:
 /afs/math/software/gaussian/g16.A03/g16/l1.exe "/scratch/zhartovska_gaussian.QRoB5kd/Gau-20416.inp" -scrdir="/scratch/zhartovska_gaussian.QRoB5kd/"
 Entering Link 1 = /afs/math/software/gaussian/g16.A03/g16/l1.exe PID=     20417.
  
 Copyright (c) 1988,1990,1992,1993,1995,1998,2003,2009,2016,
            Gaussian, Inc.  All Rights Reserved.
  
 This is part of the Gaussian(R) 16 program.  It is based on
 the Gaussian(R) 09 system (copyright 2009, Gaussian, Inc.),
 the Gaussian(R) 03 system (copyright 2003, Gaussian, Inc.),
 the Gaussian(R) 98 system (copyright 1998, Gaussian, Inc.),
 the Gaussian(R) 94 system (copyright 1995, Gaussian, Inc.),
 the Gaussian 92(TM) system (copyright 1992, Gaussian, Inc.),
 the Gaussian 90(TM) system (copyright 1990, Gaussian, Inc.),
 the Gaussian 88(TM) system (copyright 1988, Gaussian, Inc.),
 the Gaussian 86(TM) system (copyright 1986, Carnegie Mellon
 University), and the Gaussian 82(TM) system (copyright 1983,
 Carnegie Mellon University). Gaussian is a federally registered
 trademark of Gaussian, Inc.
  
 This software contains proprietary and confidential information,
 including trade secrets, belonging to Gaussian, Inc.
  
 This software is provided under written license and may be
 used, copied, transmitted, or stored only in accord with that
 written license.
  
 The following legend is applicable only to US Government
 contracts under FAR:
  
                    RESTRICTED RIGHTS LEGEND
  
 Use, reproduction and disclosure by the US Government is
 subject to restrictions as set forth in subparagraphs (a)
 and (c) of the Commercial Computer Software - Restricted
 Rights clause in FAR 52.227-19.
  
 Gaussian, Inc.
 340 Quinnipiac St., Bldg. 40, Wallingford CT 06492
  
  
 ---------------------------------------------------------------
 Warning -- This program may not be used in any manner that
 competes with the business of Gaussian, Inc. or will provide
 assistance to any competitor of Gaussian, Inc.  The licensee
 of this program is prohibited from giving any competitor of
 Gaussian, Inc. access to this program.  By using this program,
 the user acknowledges that Gaussian, Inc. is engaged in the
 business of creating and licensing software in the field of
 computational chemistry and represents and warrants to the
 licensee that it is not a competitor of Gaussian, Inc. and that
 it will not use this program in any manner prohibited above.
 ---------------------------------------------------------------
  

 Cite this work as:
 Gaussian 16, Revision A.03,
 M. J. Frisch, G. W. Trucks, H. B. Schlegel, G. E. Scuseria, 
 M. A. Robb, J. R. Cheeseman, G. Scalmani, V. Barone, 
 G. A. Petersson, H. Nakatsuji, X. Li, M. Caricato, A. V. Marenich, 
 J. Bloino, B. G. Janesko, R. Gomperts, B. Mennucci, H. P. Hratchian, 
 J. V. Ortiz, A. F. Izmaylov, J. L. Sonnenberg, D. Williams-Young, 
 F. Ding, F. Lipparini, F. Egidi, J. Goings, B. Peng, A. Petrone, 
 T. Henderson, D. Ranasinghe, V. G. Zakrzewski, J. Gao, N. Rega, 
 G. Zheng, W. Liang, M. Hada, M. Ehara, K. Toyota, R. Fukuda, 
 J. Hasegawa, M. Ishida, T. Nakajima, Y. Honda, O. Kitao, H. Nakai, 
 T. Vreven, K. Throssell, J. A. Montgomery, Jr., J. E. Peralta, 
 F. Ogliaro, M. J. Bearpark, J. J. Heyd, E. N. Brothers, K. N. Kudin, 
 V. N. Staroverov, T. A. Keith, R. Kobayashi, J. Normand, 
 K. Raghavachari, A. P. Rendell, J. C. Burant, S. S. Iyengar, 
 J. Tomasi, M. Cossi, J. M. Millam, M. Klene, C. Adamo, R. Cammi, 
 J. W. Ochterski, R. L. Martin, K. Morokuma, O. Farkas, 
 J. B. Foresman, and D. J. Fox, Gaussian, Inc., Wallingford CT, 2016.
 
 ******************************************
 Gaussian 16:  ES64L-G16RevA.03 25-Dec-2016
                 6-Apr-2023 
 ******************************************
 %nprocs=12
 Will use up to   12 processors via shared memory.
 %mem=16GB
 %oldchk=2pcb_III_D.chk
 %chk=2pcb_III_H.chk
 Copying data from "2pcb_III_D.chk" to current chk file "2pcb_III_H.chk"
 IOpt=  2 FromEx=T IUOpen= 4 IOptOp= 5 NList=   0 IFRang= 0 IUIn= 4 IUOut= 2.
 ----------------------------------------------------------------------
 # PBE1PBE/def2TZVP empiricaldispersion=GD3BJ scf=maxcycle=999 geom=che
 ck pop=nbo
 ----------------------------------------------------------------------
 1/29=2,38=1,172=1/1;
 2/12=2,40=1/2;
 3/5=44,7=101,11=2,14=-4,25=1,30=1,74=-13,124=41/1,2,3;
 4//1;
 5/5=2,7=999,38=5/2;
 6/7=2,8=2,9=2,10=2,28=1,40=1/1,7;
 99/5=1,9=1/99;
 ----------
 2pcb_III_H
 ----------
 Structure from the checkpoint file:  "2pcb_III_H.chk"
 Charge =  1 Multiplicity = 6
 Z-Matrix found in chk file.
 C,0,34.438,47.118999,62.702999
 C,0,35.814999,47.606998,62.407001
 N,0,36.875,47.675999,63.282001
 C,0,36.300999,48.143002,61.238998
 C,0,37.938,48.182999,62.674999
 N,0,37.611,48.493999,61.448002
 C,0,43.360001,48.891998,60.316002
 C,0,42.576,48.872002,59.02
 S,0,41.227001,50.019001,59.338001
 C,0,40.990002,50.785,57.730999
 Fe,0,39.398998,49.076,60.426998
 C,0,40.834,50.925999,62.865002
 C,0,37.374001,51.689999,59.554001
 C,0,38.300999,47.389999,57.612
 C,0,40.896,46.314999,61.495998
 N,0,39.132,50.938999,61.111
 C,0,39.903,51.578999,62.071999
 C,0,39.534,52.98,62.083
 C,0,38.612999,53.188,61.137001
 C,0,38.335999,51.903,60.521999
 C,0,37.842999,54.462002,60.729
 C,0,40.109001,54.040001,63.066002
 C,0,39.331001,54.242001,64.380997
 C,0,39.528999,55.541,65.112
 O,0,38.521999,56.216999,65.474998
 O,0,40.703999,55.933998,65.382004
 N,0,38.096001,49.452999,58.931999
 C,0,37.334,50.584999,58.755001
 C,0,36.504002,50.436001,57.580002
 C,0,36.793999,49.245998,57.033001
 C,0,37.785,48.608002,57.889999
 C,0,35.529999,51.504002,57.054001
 C,0,36.284,48.638,55.713001
 C,0,37.012001,47.900002,54.886002
 N,0,39.568001,47.212002,59.698002
 C,0,39.108002,46.744999,58.481998
 C,0,39.613998,45.407001,58.262001
 C,0,40.338001,45.074001,59.335999
 C,0,40.297001,46.181999,60.259998
 C,0,39.297001,44.534,57.027
 C,0,41.053001,43.731998,59.516998
 C,0,41.750999,43.388,60.575001
 N,0,40.617001,48.687,61.938
 C,0,41.188,47.472,62.200001
 C,0,42.200001,47.630001,63.241001
 C,0,42.167999,48.917,63.610001
 C,0,41.193001,49.599998,62.801998
 C,0,43.084999,46.450001,63.752998
 C,0,43.023998,49.582001,64.68
 C,0,44.362,50.223,64.300003
 C,0,45.161999,50.646,65.522003
 O,0,44.634998,51.459,66.348999
 O,0,46.317001,50.161999,65.668999
 H,0,41.80894557,50.5314106,57.09074605
 H,0,40.07692396,50.43219567,57.29889069
 H,0,40.94293476,51.84776851,57.84592404
 H,0,44.2921355,49.39407333,60.16125825
 H,0,42.79705503,49.40802447,61.06547416
 H,0,43.54459527,47.88802047,60.6367107
 H,0,43.18093315,49.21660558,58.20747046
 H,0,42.19838762,47.89056059,58.82230923
 H,0,34.44303731,46.57376727,63.6236493
 H,0,33.77399299,47.95387365,62.78653954
 H,0,34.10851515,46.47905457,61.91128512
 H,0,36.84695792,47.38528457,64.23839985
 H,0,35.75443587,48.26518035,60.3272737
 H,0,38.90385163,48.31586323,63.1158819
 H,0,44.93660301,49.51842833,63.73581319
 H,0,44.1744433,51.08388702,63.69288191
 H,0,42.42617166,50.34383998,65.13508795
 H,0,43.22793013,48.84299848,65.42644957
 H,0,45.19331123,52.00648395,66.90590803
 H,0,41.32707734,51.51846625,63.60713224
 H,0,41.10990579,53.75400809,63.31358562
 H,0,40.14668368,54.97958095,62.55544394
 H,0,38.28815015,54.14671622,64.16126327
 H,0,39.60205318,53.4486519,65.04584881
 H,0,41.4613878,55.44780434,65.04797117
 H,0,44.00691472,46.83550309,64.13556767
 H,0,42.56741622,45.92693392,64.52979198
 H,0,43.28716547,45.77889829,62.94451184
 H,0,38.42225016,55.0176163,60.02142608
 H,0,36.90789395,54.18748644,60.28727638
 H,0,37.66507205,55.0640693,61.59546233
 H,0,36.61664181,52.43446342,59.42331137
 H,0,41.17270218,45.39971975,61.97620608
 H,0,38.06390139,46.92458094,56.67815271
 H,0,40.07890505,43.81716198,56.88675265
 H,0,38.36876318,44.02406549,57.1794511
 H,0,39.22383411,45.15627375,56.15963503
 H,0,35.98033259,52.02507271,56.23510847
 H,0,34.62796881,51.03249912,56.72396074
 H,0,35.3041507,52.19736681,57.83703215
 H,0,38.02023668,47.64793402,55.14060472
 H,0,36.59117333,47.55660506,53.96411122
 H,0,35.26569826,48.82515793,55.442939
 H,0,42.75975924,43.72771581,60.68406953
 H,0,41.31090429,42.76802137,61.32789086
 H,0,40.97827515,43.02063908,58.72120623
 Recover connectivity data from disk.
 Stoichiometry    C41H46FeN6O4S(1+,6)
 Framework group  C1[X(C41H46FeN6O4S)]
 Deg. of freedom   291
 Full point group                 C1      NOp   1
 Largest Abelian subgroup         C1      NOp   1
 Largest concise Abelian subgroup C1      NOp   1
                         Standard orientation:                         
 ---------------------------------------------------------------------
 Center     Atomic      Atomic             Coordinates (Angstroms)
 Number     Number       Type             X           Y           Z
 ---------------------------------------------------------------------
      1          6           0        2.452341   -1.508951    5.369520
      2          6           0        1.806793   -1.007875    4.122895
      3          7           0        0.704636   -0.188654    4.032805
      4          6           0        2.123836   -1.298378    2.817974
      5          6           0        0.399746    0.031241    2.762310
      6          7           0        1.227279   -0.645625    2.009838
      7          6           0       -0.607537    2.654348   -2.488435
      8          6           0        0.648785    1.901651   -2.875449
      9         16           0        0.335794    0.238432   -2.265310
     10          6           0        1.135186   -0.781395   -3.508815
     11         26           0        0.868684   -0.079514   -0.022166
     12          6           0       -2.510265   -0.003373    0.027790
     13          6           0        0.845563   -3.481463   -0.371367
     14          6           0        4.279624   -0.123661   -0.601785
     15          6           0        1.058141    3.117034    0.845639
     16          7           0       -0.564255   -1.475338   -0.113136
     17          6           0       -1.931370   -1.244738   -0.186491
     18          6           0       -2.582521   -2.502183   -0.492953
     19          6           0       -1.646165   -3.443744   -0.645009
     20          6           0       -0.363316   -2.813653   -0.393088
     21          6           0       -1.760681   -4.954837   -0.938149
     22          6           0       -4.122300   -2.701477   -0.592382
     23          6           0       -4.841296   -3.110925    0.707886
     24          6           0       -6.181050   -3.781231    0.578595
     25          8           0       -6.400877   -4.868126    1.189436
     26          8           0       -7.088105   -3.236588   -0.120397
     27          7           0        2.257050   -1.501558   -0.375980
     28          6           0        2.056710   -2.860196   -0.461798
     29          6           0        3.320212   -3.526671   -0.687836
     30          6           0        4.263316   -2.577104   -0.778906
     31          6           0        3.605482   -1.294639   -0.564184
     32          6           0        3.491941   -5.046106   -0.854598
     33          6           0        5.756720   -2.726910   -1.124539
     34          6           0        6.456868   -1.868636   -1.853725
     35          7           0        2.375066    1.243551    0.099480
     36          6           0        3.693675    1.044582   -0.261128
     37          6           0        4.399337    2.307011   -0.206500
     38          6           0        3.526198    3.233287    0.203600
     39          6           0        2.258887    2.580178    0.428294
     40          6           0        5.902712    2.493284   -0.511477
     41          6           0        3.863012    4.713772    0.402796
     42          6           0        3.018343    5.627741    0.822439
     43          7           0       -0.488553    1.298034    0.400025
     44          6           0       -0.221025    2.606682    0.694609
     45          6           0       -1.471150    3.361431    0.712824
     46          6           0       -2.451718    2.478240    0.484763
     47          6           0       -1.860868    1.183139    0.275988
     48          6           0       -1.531896    4.900438    0.968812
     49          6           0       -3.945763    2.767862    0.423066
     50          6           0       -4.602717    3.116155   -0.915825
     51          6           0       -6.042951    3.573207   -0.745409
     52          8           0       -6.870027    2.793619   -0.170248
     53          8           0       -6.355129    4.716616   -1.175589
     54          1           0        1.389270   -0.178207   -4.355282
     55          1           0        2.024244   -1.212854   -3.098548
     56          1           0        0.468314   -1.560728   -3.813484
     57          1           0       -1.174608    2.877827   -3.367860
     58          1           0       -1.195585    2.051337   -1.828529
     59          1           0       -0.339827    3.565553   -1.995548
     60          1           0        0.773643    1.896672   -3.938128
     61          1           0        1.505788    2.325096   -2.394679
     62          1           0        2.109743   -0.934126    6.204447
     63          1           0        2.195939   -2.537490    5.515346
     64          1           0        3.514736   -1.414925    5.283636
     65          1           0        0.205652    0.186673    4.813922
     66          1           0        2.927961   -1.923339    2.489785
     67          1           0       -0.392355    0.658703    2.410506
     68          1           0       -4.043185    3.899014   -1.383752
     69          1           0       -4.585150    2.251823   -1.546319
     70          1           0       -4.451032    1.907230    0.808962
     71          1           0       -4.138139    3.581391    1.090944
     72          1           0       -7.809588    2.873082   -0.350556
     73          1           0       -3.579094    0.035791   -0.003348
     74          1           0       -4.553827   -1.784293   -0.935104
     75          1           0       -4.312205   -3.455255   -1.327674
     76          1           0       -4.194724   -3.774224    1.243498
     77          1           0       -4.973137   -2.229214    1.299582
     78          1           0       -6.892290   -2.446914   -0.629977
     79          1           0       -2.408249    5.304561    0.506654
     80          1           0       -1.566432    5.085722    2.022081
     81          1           0       -0.662636    5.365731    0.553131
     82          1           0       -1.819468   -5.109630   -1.995260
     83          1           0       -0.900186   -5.459454   -0.551096
     84          1           0       -2.641774   -5.342949   -0.471304
     85          1           0        0.831260   -4.547308   -0.278264
     86          1           0        1.123951    4.055478    1.355436
     87          1           0        5.304416   -0.122191   -0.909516
     88          1           0        6.082589    3.503455   -0.814956
     89          1           0        6.474248    2.277641    0.367013
     90          1           0        6.192293    1.827739   -1.297666
     91          1           0        3.585559   -5.282520   -1.893946
     92          1           0        4.371800   -5.364680   -0.335697
     93          1           0        2.637923   -5.548083   -0.450156
     94          1           0        5.997983   -0.969841   -2.209383
     95          1           0        7.480682   -2.074915   -2.086436
     96          1           0        6.267725   -3.588288   -0.747974
     97          1           0        2.325090    6.070136    0.137905
     98          1           0        3.023444    5.929968    1.848856
     99          1           0        4.862232    5.027395    0.183478
 ---------------------------------------------------------------------
 Rotational constants (GHZ):           0.0637291           0.0442599           0.0329895
 Standard basis: def2TZVP (5D, 7F)
 There are  2206 symmetry adapted cartesian basis functions of A   symmetry.
 There are  1939 symmetry adapted basis functions of A   symmetry.
  1939 basis functions,  3140 primitive gaussians,  2206 cartesian basis functions
   206 alpha electrons      201 beta electrons
       nuclear repulsion energy      8858.2281876867 Hartrees.
 NAtoms=   99 NActive=   99 NUniq=   99 SFac= 1.00D+00 NAtFMM=   60 NAOKFM=T Big=T
 Integral buffers will be    131072 words long.
 Raffenetti 2 integral format.
 Two-electron integral symmetry is turned on.
 Nuclear repulsion after empirical dispersion term =     8858.0791785440 Hartrees.
 One-electron integrals computed using PRISM.
   1 Symmetry operations used in ECPInt.
 ECPInt:  NShTT=  299151 NPrTT=  925475 LenC2=  218963 LenP2D=  437822.
 LDataN:  DoStor=T MaxTD1= 6 Len=  172
 NBasis=  1939 RedAO= T EigKep=  3.40D-06  NBF=  1939
 NBsUse=  1939 1.00D-06 EigRej= -1.00D+00 NBFU=  1939
 ExpMin= 4.20D-02 ExpMax= 3.01D+05 ExpMxC= 2.91D+03 IAcc=3 IRadAn=         5 AccDes= 0.00D+00
 Harris functional with IExCor= 1009 and IRadAn=       5 diagonalized for initial guess.
 HarFok:  IExCor= 1009 AccDes= 0.00D+00 IRadAn=         5 IDoV= 1 UseB2=F ITyADJ=14
 ICtDFT=  3500011 ScaDFX=  1.000000  1.000000  1.000000  1.000000
 FoFCou: FMM=F IPFlag=           0 FMFlag=      100000 FMFlg1=        2001
         NFxFlg=           0 DoJE=T BraDBF=F KetDBF=T FulRan=T
         wScrn=  0.000000 ICntrl=       500 IOpCl=  0 I1Cent=   200000004 NGrid=           0
         NMat0=    1 NMatS0=      1 NMatT0=    0 NMatD0=    1 NMtDS0=    0 NMtDT0=    0
 Petite list used in FoFCou.
 Initial guess <Sx>= 0.0000 <Sy>= 0.0000 <Sz>= 2.5000 <S**2>= 8.7500 S= 2.5000
 Requested convergence on RMS density matrix=1.00D-08 within 999 cycles.
 Requested convergence on MAX density matrix=1.00D-06.
 Requested convergence on             energy=1.00D-06.
 No special actions if energy rises.
 EnCoef did   100 forward-backward iterations
 EnCoef did   100 forward-backward iterations
 EnCoef did   100 forward-backward iterations
 EnCoef did   100 forward-backward iterations
 EnCoef did     5 forward-backward iterations
 EnCoef did    17 forward-backward iterations
 EnCoef did     2 forward-backward iterations
 Restarting incremental Fock formation.
 Restarting incremental Fock formation.
 Restarting incremental Fock formation.
 SCF Done:  E(UPBE1PBE) =  -3879.13167132     A.U. after   73 cycles
            NFock= 73  Conv=0.14D-08     -V/T= 2.0030
 <Sx>= 0.0000 <Sy>= 0.0000 <Sz>= 2.5000 <S**2>= 8.8389 S= 2.5148
 <L.S>= 0.000000000000E+00
 Annihilation of the first spin contaminant:
 S**2 before annihilation     8.8389,   after     8.7520

 **********************************************************************

            Population analysis using the SCF density.

 **********************************************************************

 Orbital symmetries:
 Alpha Orbitals:
       Occupied  (A) (A) (A) (A) (A) (A) (A) (A) (A) (A) (A) (A)
                 (A) (A) (A) (A) (A) (A) (A) (A) (A) (A) (A) (A)
                 (A) (A) (A) (A) (A) (A) (A) (A) (A) (A) (A) (A)
                 (A) (A) (A) (A) (A) (A) (A) (A) (A) (A) (A) (A)
                 (A) (A) (A) (A) (A) (A) (A) (A) (A) (A) (A) (A)
                 (A) (A) (A) (A) (A) (A) (A) (A) (A) (A) (A) (A)
                 (A) (A) (A) (A) (A) (A) (A) (A) (A) (A) (A) (A)
                 (A) (A) (A) (A) (A) (A) (A) (A) (A) (A) (A) (A)
                 (A) (A) (A) (A) (A) (A) (A) (A) (A) (A) (A) (A)
                 (A) (A) (A) (A) (A) (A) (A) (A) (A) (A) (A) (A)
                 (A) (A) (A) (A) (A) (A) (A) (A) (A) (A) (A) (A)
                 (A) (A) (A) (A) (A) (A) (A) (A) (A) (A) (A) (A)
                 (A) (A) (A) (A) (A) (A) (A) (A) (A) (A) (A) (A)
                 (A) (A) (A) (A) (A) (A) (A) (A) (A) (A) (A) (A)
                 (A) (A) (A) (A) (A) (A) (A) (A) (A) (A) (A) (A)
                 (A) (A) (A) (A) (A) (A) (A) (A) (A) (A) (A) (A)
                 (A) (A) (A) (A) (A) (A) (A) (A) (A) (A) (A) (A)
                 (A) (A)
       Virtual   (A) (A) (A) (A) (A) (A) (A) (A) (A) (A) (A) (A)
                 (A) (A) (A) (A) (A) (A) (A) (A) (A) (A) (A) (A)
                 (A) (A) (A) (A) (A) (A) (A) (A) (A) (A) (A) (A)
                 (A) (A) (A) (A) (A) (A) (A) (A) (A) (A) (A) (A)
                 (A) (A) (A) (A) (A) (A) (A) (A) (A) (A) (A) (A)
                 (A) (A) (A) (A) (A) (A) (A) (A) (A) (A) (A) (A)
                 (A) (A) (A) (A) (A) (A) (A) (A) (A) (A) (A) (A)
                 (A) (A) (A) (A) (A) (A) (A) (A) (A) (A) (A) (A)
                 (A) (A) (A) (A) (A) (A) (A) (A) (A) (A) (A) (A)
                 (A) (A) (A) (A) (A) (A) (A) (A) (A) (A) (A) (A)
                 (A) (A) (A) (A) (A) (A) (A) (A) (A) (A) (A) (A)
                 (A) (A) (A) (A) (A) (A) (A) (A) (A) (A) (A) (A)
                 (A) (A) (A) (A) (A) (A) (A) (A) (A) (A) (A) (A)
                 (A) (A) (A) (A) (A) (A) (A) (A) (A) (A) (A) (A)
                 (A) (A) (A) (A) (A) (A) (A) (A) (A) (A) (A) (A)
                 (A) (A) (A) (A) (A) (A) (A) (A) (A) (A) (A) (A)
                 (A) (A) (A) (A) (A) (A) (A) (A) (A) (A) (A) (A)
                 (A) (A) (A) (A) (A) (A) (A) (A) (A) (A) (A) (A)
                 (A) (A) (A) (A) (A) (A) (A) (A) (A) (A) (A) (A)
                 (A) (A) (A) (A) (A) (A) (A) (A) (A) (A) (A) (A)
                 (A) (A) (A) (A) (A) (A) (A) (A) (A) (A) (A) (A)
                 (A) (A) (A) (A) (A) (A) (A) (A) (A) (A) (A) (A)
                 (A) (A) (A) (A) (A) (A) (A) (A) (A) (A) (A) (A)
                 (A) (A) (A) (A) (A) (A) (A) (A) (A) (A) (A) (A)
                 (A) (A) (A) (A) (A) (A) (A) (A) (A) (A) (A) (A)
                 (A) (A) (A) (A) (A) (A) (A) (A) (A) (A) (A) (A)
                 (A) (A) (A) (A) (A) (A) (A) (A) (A) (A) (A) (A)
                 (A) (A) (A) (A) (A) (A) (A) (A) (A) (A) (A) (A)
                 (A) (A) (A) (A) (A) (A) (A) (A) (A) (A) (A) (A)
                 (A) (A) (A) (A) (A) (A) (A) (A) (A) (A) (A) (A)
                 (A) (A) (A) (A) (A) (A) (A) (A) (A) (A) (A) (A)
                 (A) (A) (A) (A) (A) (A) (A) (A) (A) (A) (A) (A)
                 (A) (A) (A) (A) (A) (A) (A) (A) (A) (A) (A) (A)
                 (A) (A) (A) (A) (A) (A) (A) (A) (A) (A) (A) (A)
                 (A) (A) (A) (A) (A) (A) (A) (A) (A) (A) (A) (A)
                 (A) (A) (A) (A) (A) (A) (A) (A) (A) (A) (A) (A)
                 (A) (A) (A) (A) (A) (A) (A) (A) (A) (A) (A) (A)
                 (A) (A) (A) (A) (A) (A) (A) (A) (A) (A) (A) (A)
                 (A) (A) (A) (A) (A) (A) (A) (A) (A) (A) (A) (A)
                 (A) (A) (A) (A) (A) (A) (A) (A) (A) (A) (A) (A)
                 (A) (A) (A) (A) (A) (A) (A) (A) (A) (A) (A) (A)
                 (A) (A) (A) (A) (A) (A) (A) (A) (A) (A) (A) (A)
                 (A) (A) (A) (A) (A) (A) (A) (A) (A) (A) (A) (A)
                 (A) (A) (A) (A) (A) (A) (A) (A) (A) (A) (A) (A)
                 (A) (A) (A) (A) (A) (A) (A) (A) (A) (A) (A) (A)
                 (A) (A) (A) (A) (A) (A) (A) (A) (A) (A) (A) (A)
                 (A) (A) (A) (A) (A) (A) (A) (A) (A) (A) (A) (A)
                 (A) (A) (A) (A) (A) (A) (A) (A) (A) (A) (A) (A)
                 (A) (A) (A) (A) (A) (A) (A) (A) (A) (A) (A) (A)
                 (A) (A) (A) (A) (A) (A) (A) (A) (A) (A) (A) (A)
                 (A) (A) (A) (A) (A) (A) (A) (A) (A) (A) (A) (A)
                 (A) (A) (A) (A) (A) (A) (A) (A) (A) (A) (A) (A)
                 (A) (A) (A) (A) (A) (A) (A) (A) (A) (A) (A) (A)
                 (A) (A) (A) (A) (A) (A) (A) (A) (A) (A) (A) (A)
                 (A) (A) (A) (A) (A) (A) (A) (A) (A) (A) (A) (A)
                 (A) (A) (A) (A) (A) (A) (A) (A) (A) (A) (A) (A)
                 (A) (A) (A) (A) (A) (A) (A) (A) (A) (A) (A) (A)
                 (A) (A) (A) (A) (A) (A) (A) (A) (A) (A) (A) (A)
                 (A) (A) (A) (A) (A) (A) (A) (A) (A) (A) (A) (A)
                 (A) (A) (A) (A) (A) (A) (A) (A) (A) (A) (A) (A)
                 (A) (A) (A) (A) (A) (A) (A) (A) (A) (A) (A) (A)
                 (A) (A) (A) (A) (A) (A) (A) (A) (A) (A) (A) (A)
                 (A) (A) (A) (A) (A) (A) (A) (A) (A) (A) (A) (A)
                 (A) (A) (A) (A) (A) (A) (A) (A) (A) (A) (A) (A)
                 (A) (A) (A) (A) (A) (A) (A) (A) (A) (A) (A) (A)
                 (A) (A) (A) (A) (A) (A) (A) (A) (A) (A) (A) (A)
                 (A) (A) (A) (A) (A) (A) (A) (A) (A) (A) (A) (A)
                 (A) (A) (A) (A) (A) (A) (A) (A) (A) (A) (A) (A)
                 (A) (A) (A) (A) (A) (A) (A) (A) (A) (A) (A) (A)
                 (A) (A) (A) (A) (A) (A) (A) (A) (A) (A) (A) (A)
                 (A) (A) (A) (A) (A) (A) (A) (A) (A) (A) (A) (A)
                 (A) (A) (A) (A) (A) (A) (A) (A) (A) (A) (A) (A)
                 (A) (A) (A) (A) (A) (A) (A) (A) (A) (A) (A) (A)
                 (A) (A) (A) (A) (A) (A) (A) (A) (A) (A) (A) (A)
                 (A) (A) (A) (A) (A) (A) (A) (A) (A) (A) (A) (A)
                 (A) (A) (A) (A) (A) (A) (A) (A) (A) (A) (A) (A)
                 (A) (A) (A) (A) (A) (A) (A) (A) (A) (A) (A) (A)
                 (A) (A) (A) (A) (A) (A) (A) (A) (A) (A) (A) (A)
                 (A) (A) (A) (A) (A) (A) (A) (A) (A) (A) (A) (A)
                 (A) (A) (A) (A) (A) (A) (A) (A) (A) (A) (A) (A)
                 (A) (A) (A) (A) (A) (A) (A) (A) (A) (A) (A) (A)
                 (A) (A) (A) (A) (A) (A) (A) (A) (A) (A) (A) (A)
                 (A) (A) (A) (A) (A) (A) (A) (A) (A) (A) (A) (A)
                 (A) (A) (A) (A) (A) (A) (A) (A) (A) (A) (A) (A)
                 (A) (A) (A) (A) (A) (A) (A) (A) (A) (A) (A) (A)
                 (A) (A) (A) (A) (A) (A) (A) (A) (A) (A) (A) (A)
                 (A) (A) (A) (A) (A) (A) (A) (A) (A) (A) (A) (A)
                 (A) (A) (A) (A) (A) (A) (A) (A) (A) (A) (A) (A)
                 (A) (A) (A) (A) (A) (A) (A) (A) (A) (A) (A) (A)
                 (A) (A) (A) (A) (A) (A) (A) (A) (A) (A) (A) (A)
                 (A) (A) (A) (A) (A) (A) (A) (A) (A) (A) (A) (A)
                 (A) (A) (A) (A) (A) (A) (A) (A) (A) (A) (A) (A)
                 (A) (A) (A) (A) (A) (A) (A) (A) (A) (A) (A) (A)
                 (A) (A) (A) (A) (A) (A) (A) (A) (A) (A) (A) (A)
                 (A) (A) (A) (A) (A) (A) (A) (A) (A) (A) (A) (A)
                 (A) (A) (A) (A) (A) (A) (A) (A) (A) (A) (A) (A)
                 (A) (A) (A) (A) (A) (A) (A) (A) (A) (A) (A) (A)
                 (A) (A) (A) (A) (A) (A) (A) (A) (A) (A) (A) (A)
                 (A) (A) (A) (A) (A) (A) (A) (A) (A) (A) (A) (A)
                 (A) (A) (A) (A) (A) (A) (A) (A) (A) (A) (A) (A)
                 (A) (A) (A) (A) (A) (A) (A) (A) (A) (A) (A) (A)
                 (A) (A) (A) (A) (A) (A) (A) (A) (A) (A) (A) (A)
                 (A) (A) (A) (A) (A) (A) (A) (A) (A) (A) (A) (A)
                 (A) (A) (A) (A) (A) (A) (A) (A) (A) (A) (A) (A)
                 (A) (A) (A) (A) (A) (A) (A) (A) (A) (A) (A) (A)
                 (A) (A) (A) (A) (A) (A) (A) (A) (A) (A) (A) (A)
                 (A) (A) (A) (A) (A) (A) (A) (A) (A) (A) (A) (A)
                 (A) (A) (A) (A) (A) (A) (A) (A) (A) (A) (A) (A)
                 (A) (A) (A) (A) (A) (A) (A) (A) (A) (A) (A) (A)
                 (A) (A) (A) (A) (A) (A) (A) (A) (A) (A) (A) (A)
                 (A) (A) (A) (A) (A) (A) (A) (A) (A) (A) (A) (A)
                 (A) (A) (A) (A) (A) (A) (A) (A) (A) (A) (A) (A)
                 (A) (A) (A) (A) (A) (A) (A) (A) (A) (A) (A) (A)
                 (A) (A) (A) (A) (A) (A) (A) (A) (A) (A) (A) (A)
                 (A) (A) (A) (A) (A) (A) (A) (A) (A) (A) (A) (A)
                 (A) (A) (A) (A) (A) (A) (A) (A) (A) (A) (A) (A)
                 (A) (A) (A) (A) (A) (A) (A) (A) (A) (A) (A) (A)
                 (A) (A) (A) (A) (A) (A) (A) (A) (A) (A) (A) (A)
                 (A) (A) (A) (A) (A) (A) (A) (A) (A) (A) (A) (A)
                 (A) (A) (A) (A) (A) (A) (A) (A) (A) (A) (A) (A)
                 (A) (A) (A) (A) (A) (A) (A) (A) (A) (A) (A) (A)
                 (A) (A) (A) (A) (A) (A) (A) (A) (A) (A) (A) (A)
                 (A) (A) (A) (A) (A) (A) (A) (A) (A) (A) (A) (A)
                 (A) (A) (A) (A) (A) (A) (A) (A) (A) (A) (A) (A)
                 (A) (A) (A) (A) (A) (A) (A) (A) (A) (A) (A) (A)
                 (A) (A) (A) (A) (A) (A) (A) (A) (A) (A) (A) (A)
                 (A) (A) (A) (A) (A) (A) (A) (A) (A) (A) (A) (A)
                 (A) (A) (A) (A) (A) (A) (A) (A) (A) (A) (A) (A)
                 (A) (A) (A) (A) (A) (A) (A) (A) (A) (A) (A) (A)
                 (A) (A) (A) (A) (A) (A) (A) (A) (A) (A) (A) (A)
                 (A) (A) (A) (A) (A) (A) (A) (A) (A) (A) (A) (A)
                 (A) (A) (A) (A) (A) (A) (A) (A) (A) (A) (A) (A)
                 (A) (A) (A) (A) (A) (A) (A) (A) (A) (A) (A) (A)
                 (A) (A) (A) (A) (A) (A) (A) (A) (A) (A) (A) (A)
                 (A) (A) (A) (A) (A) (A) (A) (A) (A) (A) (A) (A)
                 (A) (A) (A) (A) (A) (A) (A) (A) (A) (A) (A) (A)
                 (A) (A) (A) (A) (A) (A) (A) (A) (A) (A) (A) (A)
                 (A) (A) (A) (A) (A) (A) (A) (A) (A) (A) (A) (A)
                 (A) (A) (A) (A) (A) (A) (A) (A) (A) (A) (A) (A)
                 (A) (A) (A) (A) (A) (A) (A) (A) (A) (A) (A) (A)
                 (A) (A) (A) (A) (A) (A) (A) (A) (A) (A) (A) (A)
                 (A) (A) (A) (A) (A) (A) (A) (A) (A) (A) (A) (A)
                 (A) (A) (A) (A) (A) (A) (A) (A) (A) (A) (A) (A)
                 (A) (A) (A) (A) (A) (A) (A) (A) (A) (A) (A) (A)
                 (A) (A) (A) (A) (A)
 Beta  Orbitals:
       Occupied  (A) (A) (A) (A) (A) (A) (A) (A) (A) (A) (A) (A)
                 (A) (A) (A) (A) (A) (A) (A) (A) (A) (A) (A) (A)
                 (A) (A) (A) (A) (A) (A) (A) (A) (A) (A) (A) (A)
                 (A) (A) (A) (A) (A) (A) (A) (A) (A) (A) (A) (A)
                 (A) (A) (A) (A) (A) (A) (A) (A) (A) (A) (A) (A)
                 (A) (A) (A) (A) (A) (A) (A) (A) (A) (A) (A) (A)
                 (A) (A) (A) (A) (A) (A) (A) (A) (A) (A) (A) (A)
                 (A) (A) (A) (A) (A) (A) (A) (A) (A) (A) (A) (A)
                 (A) (A) (A) (A) (A) (A) (A) (A) (A) (A) (A) (A)
                 (A) (A) (A) (A) (A) (A) (A) (A) (A) (A) (A) (A)
                 (A) (A) (A) (A) (A) (A) (A) (A) (A) (A) (A) (A)
                 (A) (A) (A) (A) (A) (A) (A) (A) (A) (A) (A) (A)
                 (A) (A) (A) (A) (A) (A) (A) (A) (A) (A) (A) (A)
                 (A) (A) (A) (A) (A) (A) (A) (A) (A) (A) (A) (A)
                 (A) (A) (A) (A) (A) (A) (A) (A) (A) (A) (A) (A)
                 (A) (A) (A) (A) (A) (A) (A) (A) (A) (A) (A) (A)
                 (A) (A) (A) (A) (A) (A) (A) (A) (A)
       Virtual   (A) (A) (A) (A) (A) (A) (A) (A) (A) (A) (A) (A)
                 (A) (A) (A) (A) (A) (A) (A) (A) (A) (A) (A) (A)
                 (A) (A) (A) (A) (A) (A) (A) (A) (A) (A) (A) (A)
                 (A) (A) (A) (A) (A) (A) (A) (A) (A) (A) (A) (A)
                 (A) (A) (A) (A) (A) (A) (A) (A) (A) (A) (A) (A)
                 (A) (A) (A) (A) (A) (A) (A) (A) (A) (A) (A) (A)
                 (A) (A) (A) (A) (A) (A) (A) (A) (A) (A) (A) (A)
                 (A) (A) (A) (A) (A) (A) (A) (A) (A) (A) (A) (A)
                 (A) (A) (A) (A) (A) (A) (A) (A) (A) (A) (A) (A)
                 (A) (A) (A) (A) (A) (A) (A) (A) (A) (A) (A) (A)
                 (A) (A) (A) (A) (A) (A) (A) (A) (A) (A) (A) (A)
                 (A) (A) (A) (A) (A) (A) (A) (A) (A) (A) (A) (A)
                 (A) (A) (A) (A) (A) (A) (A) (A) (A) (A) (A) (A)
                 (A) (A) (A) (A) (A) (A) (A) (A) (A) (A) (A) (A)
                 (A) (A) (A) (A) (A) (A) (A) (A) (A) (A) (A) (A)
                 (A) (A) (A) (A) (A) (A) (A) (A) (A) (A) (A) (A)
                 (A) (A) (A) (A) (A) (A) (A) (A) (A) (A) (A) (A)
                 (A) (A) (A) (A) (A) (A) (A) (A) (A) (A) (A) (A)
                 (A) (A) (A) (A) (A) (A) (A) (A) (A) (A) (A) (A)
                 (A) (A) (A) (A) (A) (A) (A) (A) (A) (A) (A) (A)
                 (A) (A) (A) (A) (A) (A) (A) (A) (A) (A) (A) (A)
                 (A) (A) (A) (A) (A) (A) (A) (A) (A) (A) (A) (A)
                 (A) (A) (A) (A) (A) (A) (A) (A) (A) (A) (A) (A)
                 (A) (A) (A) (A) (A) (A) (A) (A) (A) (A) (A) (A)
                 (A) (A) (A) (A) (A) (A) (A) (A) (A) (A) (A) (A)
                 (A) (A) (A) (A) (A) (A) (A) (A) (A) (A) (A) (A)
                 (A) (A) (A) (A) (A) (A) (A) (A) (A) (A) (A) (A)
                 (A) (A) (A) (A) (A) (A) (A) (A) (A) (A) (A) (A)
                 (A) (A) (A) (A) (A) (A) (A) (A) (A) (A) (A) (A)
                 (A) (A) (A) (A) (A) (A) (A) (A) (A) (A) (A) (A)
                 (A) (A) (A) (A) (A) (A) (A) (A) (A) (A) (A) (A)
                 (A) (A) (A) (A) (A) (A) (A) (A) (A) (A) (A) (A)
                 (A) (A) (A) (A) (A) (A) (A) (A) (A) (A) (A) (A)
                 (A) (A) (A) (A) (A) (A) (A) (A) (A) (A) (A) (A)
                 (A) (A) (A) (A) (A) (A) (A) (A) (A) (A) (A) (A)
                 (A) (A) (A) (A) (A) (A) (A) (A) (A) (A) (A) (A)
                 (A) (A) (A) (A) (A) (A) (A) (A) (A) (A) (A) (A)
                 (A) (A) (A) (A) (A) (A) (A) (A) (A) (A) (A) (A)
                 (A) (A) (A) (A) (A) (A) (A) (A) (A) (A) (A) (A)
                 (A) (A) (A) (A) (A) (A) (A) (A) (A) (A) (A) (A)
                 (A) (A) (A) (A) (A) (A) (A) (A) (A) (A) (A) (A)
                 (A) (A) (A) (A) (A) (A) (A) (A) (A) (A) (A) (A)
                 (A) (A) (A) (A) (A) (A) (A) (A) (A) (A) (A) (A)
                 (A) (A) (A) (A) (A) (A) (A) (A) (A) (A) (A) (A)
                 (A) (A) (A) (A) (A) (A) (A) (A) (A) (A) (A) (A)
                 (A) (A) (A) (A) (A) (A) (A) (A) (A) (A) (A) (A)
                 (A) (A) (A) (A) (A) (A) (A) (A) (A) (A) (A) (A)
                 (A) (A) (A) (A) (A) (A) (A) (A) (A) (A) (A) (A)
                 (A) (A) (A) (A) (A) (A) (A) (A) (A) (A) (A) (A)
                 (A) (A) (A) (A) (A) (A) (A) (A) (A) (A) (A) (A)
                 (A) (A) (A) (A) (A) (A) (A) (A) (A) (A) (A) (A)
                 (A) (A) (A) (A) (A) (A) (A) (A) (A) (A) (A) (A)
                 (A) (A) (A) (A) (A) (A) (A) (A) (A) (A) (A) (A)
                 (A) (A) (A) (A) (A) (A) (A) (A) (A) (A) (A) (A)
                 (A) (A) (A) (A) (A) (A) (A) (A) (A) (A) (A) (A)
                 (A) (A) (A) (A) (A) (A) (A) (A) (A) (A) (A) (A)
                 (A) (A) (A) (A) (A) (A) (A) (A) (A) (A) (A) (A)
                 (A) (A) (A) (A) (A) (A) (A) (A) (A) (A) (A) (A)
                 (A) (A) (A) (A) (A) (A) (A) (A) (A) (A) (A) (A)
                 (A) (A) (A) (A) (A) (A) (A) (A) (A) (A) (A) (A)
                 (A) (A) (A) (A) (A) (A) (A) (A) (A) (A) (A) (A)
                 (A) (A) (A) (A) (A) (A) (A) (A) (A) (A) (A) (A)
                 (A) (A) (A) (A) (A) (A) (A) (A) (A) (A) (A) (A)
                 (A) (A) (A) (A) (A) (A) (A) (A) (A) (A) (A) (A)
                 (A) (A) (A) (A) (A) (A) (A) (A) (A) (A) (A) (A)
                 (A) (A) (A) (A) (A) (A) (A) (A) (A) (A) (A) (A)
                 (A) (A) (A) (A) (A) (A) (A) (A) (A) (A) (A) (A)
                 (A) (A) (A) (A) (A) (A) (A) (A) (A) (A) (A) (A)
                 (A) (A) (A) (A) (A) (A) (A) (A) (A) (A) (A) (A)
                 (A) (A) (A) (A) (A) (A) (A) (A) (A) (A) (A) (A)
                 (A) (A) (A) (A) (A) (A) (A) (A) (A) (A) (A) (A)
                 (A) (A) (A) (A) (A) (A) (A) (A) (A) (A) (A) (A)
                 (A) (A) (A) (A) (A) (A) (A) (A) (A) (A) (A) (A)
                 (A) (A) (A) (A) (A) (A) (A) (A) (A) (A) (A) (A)
                 (A) (A) (A) (A) (A) (A) (A) (A) (A) (A) (A) (A)
                 (A) (A) (A) (A) (A) (A) (A) (A) (A) (A) (A) (A)
                 (A) (A) (A) (A) (A) (A) (A) (A) (A) (A) (A) (A)
                 (A) (A) (A) (A) (A) (A) (A) (A) (A) (A) (A) (A)
                 (A) (A) (A) (A) (A) (A) (A) (A) (A) (A) (A) (A)
                 (A) (A) (A) (A) (A) (A) (A) (A) (A) (A) (A) (A)
                 (A) (A) (A) (A) (A) (A) (A) (A) (A) (A) (A) (A)
                 (A) (A) (A) (A) (A) (A) (A) (A) (A) (A) (A) (A)
                 (A) (A) (A) (A) (A) (A) (A) (A) (A) (A) (A) (A)
                 (A) (A) (A) (A) (A) (A) (A) (A) (A) (A) (A) (A)
                 (A) (A) (A) (A) (A) (A) (A) (A) (A) (A) (A) (A)
                 (A) (A) (A) (A) (A) (A) (A) (A) (A) (A) (A) (A)
                 (A) (A) (A) (A) (A) (A) (A) (A) (A) (A) (A) (A)
                 (A) (A) (A) (A) (A) (A) (A) (A) (A) (A) (A) (A)
                 (A) (A) (A) (A) (A) (A) (A) (A) (A) (A) (A) (A)
                 (A) (A) (A) (A) (A) (A) (A) (A) (A) (A) (A) (A)
                 (A) (A) (A) (A) (A) (A) (A) (A) (A) (A) (A) (A)
                 (A) (A) (A) (A) (A) (A) (A) (A) (A) (A) (A) (A)
                 (A) (A) (A) (A) (A) (A) (A) (A) (A) (A) (A) (A)
                 (A) (A) (A) (A) (A) (A) (A) (A) (A) (A) (A) (A)
                 (A) (A) (A) (A) (A) (A) (A) (A) (A) (A) (A) (A)
                 (A) (A) (A) (A) (A) (A) (A) (A) (A) (A) (A) (A)
                 (A) (A) (A) (A) (A) (A) (A) (A) (A) (A) (A) (A)
                 (A) (A) (A) (A) (A) (A) (A) (A) (A) (A) (A) (A)
                 (A) (A) (A) (A) (A) (A) (A) (A) (A) (A) (A) (A)
                 (A) (A) (A) (A) (A) (A) (A) (A) (A) (A) (A) (A)
                 (A) (A) (A) (A) (A) (A) (A) (A) (A) (A) (A) (A)
                 (A) (A) (A) (A) (A) (A) (A) (A) (A) (A) (A) (A)
                 (A) (A) (A) (A) (A) (A) (A) (A) (A) (A) (A) (A)
                 (A) (A) (A) (A) (A) (A) (A) (A) (A) (A) (A) (A)
                 (A) (A) (A) (A) (A) (A) (A) (A) (A) (A) (A) (A)
                 (A) (A) (A) (A) (A) (A) (A) (A) (A) (A) (A) (A)
                 (A) (A) (A) (A) (A) (A) (A) (A) (A) (A) (A) (A)
                 (A) (A) (A) (A) (A) (A) (A) (A) (A) (A) (A) (A)
                 (A) (A) (A) (A) (A) (A) (A) (A) (A) (A) (A) (A)
                 (A) (A) (A) (A) (A) (A) (A) (A) (A) (A) (A) (A)
                 (A) (A) (A) (A) (A) (A) (A) (A) (A) (A) (A) (A)
                 (A) (A) (A) (A) (A) (A) (A) (A) (A) (A) (A) (A)
                 (A) (A) (A) (A) (A) (A) (A) (A) (A) (A) (A) (A)
                 (A) (A) (A) (A) (A) (A) (A) (A) (A) (A) (A) (A)
                 (A) (A) (A) (A) (A) (A) (A) (A) (A) (A) (A) (A)
                 (A) (A) (A) (A) (A) (A) (A) (A) (A) (A) (A) (A)
                 (A) (A) (A) (A) (A) (A) (A) (A) (A) (A) (A) (A)
                 (A) (A) (A) (A) (A) (A) (A) (A) (A) (A) (A) (A)
                 (A) (A) (A) (A) (A) (A) (A) (A) (A) (A) (A) (A)
                 (A) (A) (A) (A) (A) (A) (A) (A) (A) (A) (A) (A)
                 (A) (A) (A) (A) (A) (A) (A) (A) (A) (A) (A) (A)
                 (A) (A) (A) (A) (A) (A) (A) (A) (A) (A) (A) (A)
                 (A) (A) (A) (A) (A) (A) (A) (A) (A) (A) (A) (A)
                 (A) (A) (A) (A) (A) (A) (A) (A) (A) (A) (A) (A)
                 (A) (A) (A) (A) (A) (A) (A) (A) (A) (A) (A) (A)
                 (A) (A) (A) (A) (A) (A) (A) (A) (A) (A) (A) (A)
                 (A) (A) (A) (A) (A) (A) (A) (A) (A) (A) (A) (A)
                 (A) (A) (A) (A) (A) (A) (A) (A) (A) (A) (A) (A)
                 (A) (A) (A) (A) (A) (A) (A) (A) (A) (A) (A) (A)
                 (A) (A) (A) (A) (A) (A) (A) (A) (A) (A) (A) (A)
                 (A) (A) (A) (A) (A) (A) (A) (A) (A) (A) (A) (A)
                 (A) (A) (A) (A) (A) (A) (A) (A) (A) (A) (A) (A)
                 (A) (A) (A) (A) (A) (A) (A) (A) (A) (A) (A) (A)
                 (A) (A) (A) (A) (A) (A) (A) (A) (A) (A) (A) (A)
                 (A) (A) (A) (A) (A) (A) (A) (A) (A) (A) (A) (A)
                 (A) (A) (A) (A) (A) (A) (A) (A) (A) (A) (A) (A)
                 (A) (A) (A) (A) (A) (A) (A) (A) (A) (A) (A) (A)
                 (A) (A) (A) (A) (A) (A) (A) (A) (A) (A) (A) (A)
                 (A) (A) (A) (A) (A) (A) (A) (A) (A) (A) (A) (A)
                 (A) (A) (A) (A) (A) (A) (A) (A) (A) (A) (A) (A)
                 (A) (A) (A) (A) (A) (A) (A) (A) (A) (A) (A) (A)
                 (A) (A) (A) (A) (A) (A) (A) (A) (A) (A) (A) (A)
                 (A) (A) (A) (A) (A) (A) (A) (A) (A) (A) (A) (A)
                 (A) (A) (A) (A) (A) (A) (A) (A) (A) (A) (A) (A)
                 (A) (A) (A) (A) (A) (A) (A) (A) (A) (A)
 The electronic state is 6-A.
 Alpha  occ. eigenvalues -- -256.52847 -89.12828 -30.33653 -26.17359 -26.15258
 Alpha  occ. eigenvalues --  -26.14193 -19.34423 -19.34060 -19.25394 -19.24245
 Alpha  occ. eigenvalues --  -14.54213 -14.50551 -14.50370 -14.49481 -14.49377
 Alpha  occ. eigenvalues --  -14.48490 -10.43390 -10.42422 -10.37231 -10.37023
 Alpha  occ. eigenvalues --  -10.36785 -10.36635 -10.36541 -10.36240 -10.36168
 Alpha  occ. eigenvalues --  -10.36137 -10.35859 -10.35762 -10.34008 -10.33736
 Alpha  occ. eigenvalues --  -10.33673 -10.33577 -10.33369 -10.33330 -10.33300
 Alpha  occ. eigenvalues --  -10.33298 -10.33265 -10.33255 -10.33162 -10.33122
 Alpha  occ. eigenvalues --  -10.33080 -10.32972 -10.32881 -10.32759 -10.32669
 Alpha  occ. eigenvalues --  -10.32271 -10.31927 -10.31835 -10.31375 -10.31323
 Alpha  occ. eigenvalues --  -10.31164 -10.31099 -10.30838 -10.30666 -10.30653
 Alpha  occ. eigenvalues --  -10.30609 -10.29319  -8.10864  -6.04488  -6.04204
 Alpha  occ. eigenvalues --   -6.03719  -3.73183  -2.52857  -2.47342  -2.46852
 Alpha  occ. eigenvalues --   -1.23776  -1.23397  -1.16303  -1.10361  -1.09506
 Alpha  occ. eigenvalues --   -1.09456  -1.08825  -1.08438  -1.07920  -1.00942
 Alpha  occ. eigenvalues --   -0.95632  -0.94986  -0.94468  -0.93850  -0.93363
 Alpha  occ. eigenvalues --   -0.92859  -0.92675  -0.92273  -0.90693  -0.89847
 Alpha  occ. eigenvalues --   -0.89081  -0.88643  -0.87778  -0.87337  -0.86948
 Alpha  occ. eigenvalues --   -0.84671  -0.82599  -0.82215  -0.82024  -0.81541
 Alpha  occ. eigenvalues --   -0.80034  -0.78884  -0.77898  -0.77214  -0.76986
 Alpha  occ. eigenvalues --   -0.76906  -0.74800  -0.74299  -0.74104  -0.72864
 Alpha  occ. eigenvalues --   -0.71955  -0.71621  -0.71174  -0.70274  -0.69855
 Alpha  occ. eigenvalues --   -0.67082  -0.66994  -0.66593  -0.65867  -0.64546
 Alpha  occ. eigenvalues --   -0.63388  -0.63181  -0.62937  -0.61814  -0.61123
 Alpha  occ. eigenvalues --   -0.60111  -0.59792  -0.59555  -0.59312  -0.58540
 Alpha  occ. eigenvalues --   -0.58171  -0.58109  -0.57827  -0.57620  -0.57487
 Alpha  occ. eigenvalues --   -0.57356  -0.57117  -0.56428  -0.56317  -0.55904
 Alpha  occ. eigenvalues --   -0.55538  -0.55300  -0.55076  -0.54759  -0.54589
 Alpha  occ. eigenvalues --   -0.54317  -0.54173  -0.54076  -0.53741  -0.53584
 Alpha  occ. eigenvalues --   -0.53342  -0.53003  -0.52994  -0.52584  -0.52498
 Alpha  occ. eigenvalues --   -0.52473  -0.52242  -0.51875  -0.51822  -0.51709
 Alpha  occ. eigenvalues --   -0.51584  -0.51457  -0.50975  -0.50881  -0.50768
 Alpha  occ. eigenvalues --   -0.50170  -0.50059  -0.49950  -0.49764  -0.49389
 Alpha  occ. eigenvalues --   -0.49156  -0.48646  -0.48468  -0.48302  -0.48037
 Alpha  occ. eigenvalues --   -0.47743  -0.47552  -0.47311  -0.47038  -0.46568
 Alpha  occ. eigenvalues --   -0.46543  -0.46043  -0.45668  -0.45286  -0.45027
 Alpha  occ. eigenvalues --   -0.44922  -0.44690  -0.44394  -0.44111  -0.43774
 Alpha  occ. eigenvalues --   -0.43068  -0.42905  -0.40665  -0.40405  -0.40229
 Alpha  occ. eigenvalues --   -0.40106  -0.38790  -0.38637  -0.38126  -0.37141
 Alpha  occ. eigenvalues --   -0.35896  -0.35261  -0.34921  -0.34029  -0.33978
 Alpha  occ. eigenvalues --   -0.33769  -0.32339  -0.31949  -0.30747  -0.30490
 Alpha  occ. eigenvalues --   -0.27790
 Alpha virt. eigenvalues --   -0.20866  -0.18693  -0.18162  -0.12062  -0.09013
 Alpha virt. eigenvalues --   -0.08154  -0.07521  -0.07269  -0.07107  -0.06520
 Alpha virt. eigenvalues --   -0.06162  -0.05721  -0.05154  -0.04972  -0.04613
 Alpha virt. eigenvalues --   -0.04010  -0.03602  -0.03310  -0.03053  -0.02785
 Alpha virt. eigenvalues --   -0.02486  -0.02395  -0.02243  -0.01836  -0.01679
 Alpha virt. eigenvalues --   -0.01498  -0.01129  -0.00959  -0.00559  -0.00408
 Alpha virt. eigenvalues --   -0.00198   0.00302   0.00316   0.00469   0.01054
 Alpha virt. eigenvalues --    0.01214   0.01696   0.01936   0.02013   0.02204
 Alpha virt. eigenvalues --    0.02713   0.02879   0.03080   0.03245   0.03565
 Alpha virt. eigenvalues --    0.03768   0.03931   0.04144   0.04390   0.04455
 Alpha virt. eigenvalues --    0.04777   0.04994   0.05072   0.05298   0.05337
 Alpha virt. eigenvalues --    0.05675   0.05783   0.06003   0.06125   0.06349
 Alpha virt. eigenvalues --    0.06509   0.06877   0.06955   0.07086   0.07293
 Alpha virt. eigenvalues --    0.07483   0.07727   0.07974   0.08136   0.08243
 Alpha virt. eigenvalues --    0.08410   0.08860   0.09159   0.09296   0.09600
 Alpha virt. eigenvalues --    0.09883   0.10085   0.10351   0.10513   0.10631
 Alpha virt. eigenvalues --    0.10970   0.11059   0.11385   0.11444   0.11787
 Alpha virt. eigenvalues --    0.11934   0.12103   0.12607   0.12734   0.12821
 Alpha virt. eigenvalues --    0.13016   0.13139   0.13357   0.13486   0.13785
 Alpha virt. eigenvalues --    0.14098   0.14192   0.14286   0.14321   0.14541
 Alpha virt. eigenvalues --    0.14823   0.14971   0.15073   0.15544   0.15727
 Alpha virt. eigenvalues --    0.15823   0.16135   0.16217   0.16319   0.16680
 Alpha virt. eigenvalues --    0.16780   0.16889   0.17056   0.17304   0.17548
 Alpha virt. eigenvalues --    0.17782   0.18165   0.18206   0.18379   0.18533
 Alpha virt. eigenvalues --    0.18890   0.19061   0.19267   0.19444   0.19571
 Alpha virt. eigenvalues --    0.19748   0.19950   0.20161   0.20303   0.20497
 Alpha virt. eigenvalues --    0.20774   0.21110   0.21174   0.21421   0.21814
 Alpha virt. eigenvalues --    0.21887   0.22160   0.22401   0.22468   0.22609
 Alpha virt. eigenvalues --    0.23031   0.23200   0.23243   0.23477   0.23559
 Alpha virt. eigenvalues --    0.23827   0.23995   0.24124   0.24423   0.24530
 Alpha virt. eigenvalues --    0.25071   0.25438   0.25709   0.25821   0.26006
 Alpha virt. eigenvalues --    0.26031   0.26237   0.26451   0.26821   0.26992
 Alpha virt. eigenvalues --    0.27175   0.27325   0.27641   0.28144   0.28373
 Alpha virt. eigenvalues --    0.28674   0.28764   0.29002   0.29194   0.29622
 Alpha virt. eigenvalues --    0.29653   0.30013   0.30182   0.30242   0.30574
 Alpha virt. eigenvalues --    0.30633   0.30862   0.31206   0.31544   0.31592
 Alpha virt. eigenvalues --    0.31858   0.31983   0.32176   0.32497   0.32578
 Alpha virt. eigenvalues --    0.32795   0.32911   0.32964   0.33335   0.33412
 Alpha virt. eigenvalues --    0.33550   0.33761   0.33862   0.34159   0.34321
 Alpha virt. eigenvalues --    0.34613   0.34693   0.34914   0.35044   0.35104
 Alpha virt. eigenvalues --    0.35510   0.35715   0.36052   0.36263   0.36328
 Alpha virt. eigenvalues --    0.36478   0.36640   0.36713   0.36875   0.37179
 Alpha virt. eigenvalues --    0.37288   0.37549   0.37657   0.37742   0.37860
 Alpha virt. eigenvalues --    0.38027   0.38203   0.38310   0.38388   0.38620
 Alpha virt. eigenvalues --    0.38804   0.38896   0.39227   0.39388   0.39452
 Alpha virt. eigenvalues --    0.39781   0.39843   0.39973   0.40239   0.40464
 Alpha virt. eigenvalues --    0.40714   0.40743   0.40994   0.41242   0.41420
 Alpha virt. eigenvalues --    0.41548   0.41831   0.41891   0.42041   0.42158
 Alpha virt. eigenvalues --    0.42383   0.42608   0.42648   0.42985   0.43200
 Alpha virt. eigenvalues --    0.43479   0.43525   0.43821   0.43905   0.44251
 Alpha virt. eigenvalues --    0.44365   0.44565   0.44753   0.44867   0.45027
 Alpha virt. eigenvalues --    0.45187   0.45260   0.45591   0.45842   0.46176
 Alpha virt. eigenvalues --    0.46269   0.46578   0.46937   0.47090   0.47334
 Alpha virt. eigenvalues --    0.47369   0.47464   0.47831   0.48021   0.48093
 Alpha virt. eigenvalues --    0.48206   0.48411   0.48510   0.48973   0.49163
 Alpha virt. eigenvalues --    0.49427   0.49586   0.49867   0.49938   0.50039
 Alpha virt. eigenvalues --    0.50389   0.50726   0.51165   0.51487   0.51642
 Alpha virt. eigenvalues --    0.51794   0.51989   0.52277   0.52592   0.52665
 Alpha virt. eigenvalues --    0.52871   0.53037   0.53137   0.53465   0.53782
 Alpha virt. eigenvalues --    0.53986   0.54040   0.54319   0.54536   0.55026
 Alpha virt. eigenvalues --    0.55151   0.55353   0.55579   0.55823   0.56175
 Alpha virt. eigenvalues --    0.56393   0.56466   0.56786   0.57119   0.57234
 Alpha virt. eigenvalues --    0.57404   0.57474   0.57895   0.58232   0.58476
 Alpha virt. eigenvalues --    0.58627   0.58986   0.59232   0.59409   0.59501
 Alpha virt. eigenvalues --    0.60008   0.60339   0.60461   0.60879   0.60945
 Alpha virt. eigenvalues --    0.61556   0.61736   0.61899   0.62202   0.62223
 Alpha virt. eigenvalues --    0.62498   0.62908   0.63203   0.63314   0.63537
 Alpha virt. eigenvalues --    0.64137   0.64702   0.64841   0.65109   0.65315
 Alpha virt. eigenvalues --    0.65416   0.65698   0.66018   0.66139   0.66297
 Alpha virt. eigenvalues --    0.66926   0.67136   0.67393   0.67527   0.67954
 Alpha virt. eigenvalues --    0.68020   0.68580   0.68693   0.69096   0.69195
 Alpha virt. eigenvalues --    0.69764   0.70001   0.70088   0.70374   0.70895
 Alpha virt. eigenvalues --    0.71065   0.71109   0.71622   0.71825   0.72176
 Alpha virt. eigenvalues --    0.72395   0.72538   0.72682   0.73210   0.73660
 Alpha virt. eigenvalues --    0.73787   0.74492   0.74538   0.74747   0.74943
 Alpha virt. eigenvalues --    0.75254   0.75501   0.75792   0.76522   0.76661
 Alpha virt. eigenvalues --    0.76740   0.77017   0.77360   0.77460   0.77712
 Alpha virt. eigenvalues --    0.77855   0.78264   0.78642   0.78700   0.79081
 Alpha virt. eigenvalues --    0.79125   0.79819   0.80027   0.80179   0.80507
 Alpha virt. eigenvalues --    0.80932   0.81040   0.81608   0.81820   0.81904
 Alpha virt. eigenvalues --    0.82056   0.82642   0.82859   0.83366   0.83420
 Alpha virt. eigenvalues --    0.83536   0.84077   0.84227   0.84745   0.84947
 Alpha virt. eigenvalues --    0.85240   0.85565   0.85776   0.86044   0.86152
 Alpha virt. eigenvalues --    0.86198   0.86647   0.86744   0.87002   0.87347
 Alpha virt. eigenvalues --    0.87521   0.87719   0.87999   0.88122   0.88369
 Alpha virt. eigenvalues --    0.88748   0.88828   0.89196   0.89484   0.89795
 Alpha virt. eigenvalues --    0.90150   0.90366   0.90547   0.90928   0.91168
 Alpha virt. eigenvalues --    0.91277   0.91693   0.92416   0.92563   0.92755
 Alpha virt. eigenvalues --    0.92889   0.93433   0.93835   0.93969   0.94379
 Alpha virt. eigenvalues --    0.94544   0.94868   0.95245   0.95558   0.95823
 Alpha virt. eigenvalues --    0.96036   0.96181   0.96734   0.96811   0.96994
 Alpha virt. eigenvalues --    0.97806   0.97854   0.98312   0.98473   0.98981
 Alpha virt. eigenvalues --    0.99210   0.99696   0.99942   1.00041   1.00309
 Alpha virt. eigenvalues --    1.00899   1.01067   1.01354   1.01824   1.02079
 Alpha virt. eigenvalues --    1.02366   1.02593   1.02867   1.03074   1.03433
 Alpha virt. eigenvalues --    1.03508   1.03588   1.04141   1.04303   1.04498
 Alpha virt. eigenvalues --    1.04877   1.05177   1.05478   1.05750   1.06191
 Alpha virt. eigenvalues --    1.06235   1.06890   1.07198   1.07790   1.07916
 Alpha virt. eigenvalues --    1.08369   1.08621   1.09012   1.09583   1.09894
 Alpha virt. eigenvalues --    1.10013   1.10086   1.10582   1.11060   1.11364
 Alpha virt. eigenvalues --    1.11824   1.12181   1.12326   1.12835   1.13081
 Alpha virt. eigenvalues --    1.13458   1.13785   1.13911   1.14508   1.14643
 Alpha virt. eigenvalues --    1.14993   1.15324   1.15621   1.16291   1.16665
 Alpha virt. eigenvalues --    1.16879   1.17233   1.17532   1.18308   1.18366
 Alpha virt. eigenvalues --    1.18707   1.19132   1.19172   1.19554   1.19901
 Alpha virt. eigenvalues --    1.20397   1.20459   1.20966   1.21030   1.21526
 Alpha virt. eigenvalues --    1.21881   1.22384   1.22412   1.22810   1.22841
 Alpha virt. eigenvalues --    1.23753   1.23931   1.24437   1.24779   1.25061
 Alpha virt. eigenvalues --    1.25647   1.26076   1.26887   1.27151   1.27326
 Alpha virt. eigenvalues --    1.27588   1.27843   1.28403   1.28644   1.29324
 Alpha virt. eigenvalues --    1.29476   1.29877   1.30168   1.30673   1.31061
 Alpha virt. eigenvalues --    1.31474   1.31674   1.31970   1.32625   1.32860
 Alpha virt. eigenvalues --    1.33517   1.33893   1.34159   1.34659   1.34855
 Alpha virt. eigenvalues --    1.34860   1.35736   1.35931   1.36426   1.36752
 Alpha virt. eigenvalues --    1.36825   1.37106   1.37671   1.37934   1.38166
 Alpha virt. eigenvalues --    1.38418   1.38820   1.39433   1.39757   1.39901
 Alpha virt. eigenvalues --    1.40341   1.40905   1.41001   1.41296   1.41483
 Alpha virt. eigenvalues --    1.41732   1.42416   1.42684   1.43017   1.43140
 Alpha virt. eigenvalues --    1.43767   1.44041   1.44137   1.44363   1.44592
 Alpha virt. eigenvalues --    1.44904   1.44985   1.45221   1.45454   1.45773
 Alpha virt. eigenvalues --    1.45959   1.46140   1.46266   1.47000   1.47335
 Alpha virt. eigenvalues --    1.47620   1.47924   1.48175   1.48301   1.48532
 Alpha virt. eigenvalues --    1.48758   1.49135   1.49533   1.49646   1.49704
 Alpha virt. eigenvalues --    1.50057   1.50408   1.50718   1.50795   1.51053
 Alpha virt. eigenvalues --    1.51599   1.51838   1.51970   1.52260   1.52544
 Alpha virt. eigenvalues --    1.52721   1.52898   1.52925   1.53475   1.53571
 Alpha virt. eigenvalues --    1.54024   1.54235   1.54559   1.54793   1.55351
 Alpha virt. eigenvalues --    1.55449   1.55659   1.55920   1.56165   1.56542
 Alpha virt. eigenvalues --    1.56601   1.56745   1.57119   1.57550   1.57694
 Alpha virt. eigenvalues --    1.58098   1.58686   1.58870   1.58907   1.59138
 Alpha virt. eigenvalues --    1.59567   1.59735   1.59864   1.60059   1.60506
 Alpha virt. eigenvalues --    1.60622   1.60735   1.61107   1.61621   1.61770
 Alpha virt. eigenvalues --    1.61865   1.62115   1.62577   1.62808   1.63026
 Alpha virt. eigenvalues --    1.63322   1.63488   1.63553   1.63889   1.64184
 Alpha virt. eigenvalues --    1.64308   1.64645   1.64949   1.65485   1.65619
 Alpha virt. eigenvalues --    1.65750   1.66118   1.66308   1.66487   1.66730
 Alpha virt. eigenvalues --    1.66911   1.67824   1.67848   1.68099   1.68494
 Alpha virt. eigenvalues --    1.68946   1.69129   1.69236   1.70080   1.70431
 Alpha virt. eigenvalues --    1.70693   1.70858   1.71305   1.71855   1.72273
 Alpha virt. eigenvalues --    1.72656   1.73334   1.73618   1.74009   1.74439
 Alpha virt. eigenvalues --    1.74618   1.74990   1.75515   1.75573   1.75928
 Alpha virt. eigenvalues --    1.76315   1.76736   1.77063   1.77528   1.78062
 Alpha virt. eigenvalues --    1.78194   1.78867   1.79054   1.79247   1.79445
 Alpha virt. eigenvalues --    1.79793   1.80370   1.80601   1.80836   1.81034
 Alpha virt. eigenvalues --    1.81847   1.82043   1.82288   1.82416   1.83001
 Alpha virt. eigenvalues --    1.83222   1.83511   1.83960   1.84186   1.84431
 Alpha virt. eigenvalues --    1.84750   1.85131   1.85650   1.85785   1.86275
 Alpha virt. eigenvalues --    1.86584   1.86866   1.87173   1.87603   1.87896
 Alpha virt. eigenvalues --    1.88080   1.88355   1.88752   1.88911   1.89425
 Alpha virt. eigenvalues --    1.90161   1.90298   1.90772   1.91260   1.91452
 Alpha virt. eigenvalues --    1.92073   1.92200   1.92301   1.93025   1.93214
 Alpha virt. eigenvalues --    1.93342   1.93936   1.94088   1.94847   1.94999
 Alpha virt. eigenvalues --    1.95540   1.95780   1.95960   1.96118   1.96517
 Alpha virt. eigenvalues --    1.96871   1.97072   1.97634   1.97702   1.98110
 Alpha virt. eigenvalues --    1.98472   1.98883   1.99349   1.99398   1.99516
 Alpha virt. eigenvalues --    2.00235   2.00435   2.00854   2.00990   2.01426
 Alpha virt. eigenvalues --    2.02054   2.02124   2.02432   2.02711   2.02991
 Alpha virt. eigenvalues --    2.03308   2.03397   2.03731   2.03816   2.04126
 Alpha virt. eigenvalues --    2.04627   2.04814   2.05371   2.05611   2.06014
 Alpha virt. eigenvalues --    2.06103   2.06308   2.06440   2.07026   2.07322
 Alpha virt. eigenvalues --    2.07674   2.07736   2.08643   2.08851   2.09358
 Alpha virt. eigenvalues --    2.09497   2.09582   2.10206   2.10458   2.10760
 Alpha virt. eigenvalues --    2.11133   2.11490   2.12034   2.12216   2.12669
 Alpha virt. eigenvalues --    2.13247   2.13678   2.14034   2.14329   2.14570
 Alpha virt. eigenvalues --    2.15051   2.15155   2.15577   2.15757   2.16562
 Alpha virt. eigenvalues --    2.16636   2.16887   2.17312   2.17406   2.17940
 Alpha virt. eigenvalues --    2.18414   2.18759   2.19137   2.19334   2.19693
 Alpha virt. eigenvalues --    2.20179   2.20322   2.20453   2.21326   2.21530
 Alpha virt. eigenvalues --    2.21932   2.22141   2.22595   2.23152   2.23377
 Alpha virt. eigenvalues --    2.24023   2.24417   2.24878   2.25404   2.25630
 Alpha virt. eigenvalues --    2.25704   2.26234   2.26843   2.27316   2.27559
 Alpha virt. eigenvalues --    2.27897   2.28377   2.28531   2.28748   2.29013
 Alpha virt. eigenvalues --    2.29182   2.29415   2.29899   2.30047   2.30188
 Alpha virt. eigenvalues --    2.30869   2.30967   2.31225   2.31612   2.31844
 Alpha virt. eigenvalues --    2.32564   2.32812   2.33289   2.33397   2.33762
 Alpha virt. eigenvalues --    2.33983   2.34145   2.34827   2.34973   2.35133
 Alpha virt. eigenvalues --    2.35185   2.35929   2.36183   2.36295   2.37012
 Alpha virt. eigenvalues --    2.37283   2.37436   2.38514   2.39294   2.39557
 Alpha virt. eigenvalues --    2.39973   2.40524   2.40807   2.41595   2.41987
 Alpha virt. eigenvalues --    2.42355   2.42760   2.42803   2.43319   2.43860
 Alpha virt. eigenvalues --    2.44219   2.44980   2.45526   2.45587   2.45770
 Alpha virt. eigenvalues --    2.46109   2.46221   2.46718   2.47229   2.47445
 Alpha virt. eigenvalues --    2.47782   2.48377   2.48577   2.48607   2.49039
 Alpha virt. eigenvalues --    2.49087   2.49423   2.49782   2.50157   2.50486
 Alpha virt. eigenvalues --    2.50614   2.50931   2.51266   2.51608   2.51643
 Alpha virt. eigenvalues --    2.52130   2.52321   2.52544   2.52721   2.53124
 Alpha virt. eigenvalues --    2.53496   2.54042   2.54382   2.54695   2.54806
 Alpha virt. eigenvalues --    2.55007   2.55515   2.55589   2.55849   2.56216
 Alpha virt. eigenvalues --    2.56487   2.56740   2.56809   2.57374   2.57477
 Alpha virt. eigenvalues --    2.57640   2.57970   2.58393   2.58766   2.59018
 Alpha virt. eigenvalues --    2.59448   2.59863   2.60070   2.60259   2.60923
 Alpha virt. eigenvalues --    2.61340   2.61652   2.61857   2.62080   2.62165
 Alpha virt. eigenvalues --    2.62424   2.62790   2.63095   2.63302   2.63522
 Alpha virt. eigenvalues --    2.63730   2.63953   2.64620   2.65042   2.65230
 Alpha virt. eigenvalues --    2.65447   2.65703   2.66038   2.66436   2.66535
 Alpha virt. eigenvalues --    2.67051   2.67396   2.67743   2.67906   2.68075
 Alpha virt. eigenvalues --    2.68605   2.69014   2.69056   2.69568   2.69954
 Alpha virt. eigenvalues --    2.70410   2.70699   2.71089   2.71538   2.71888
 Alpha virt. eigenvalues --    2.72163   2.72454   2.72641   2.73107   2.73473
 Alpha virt. eigenvalues --    2.73659   2.74112   2.74145   2.74595   2.74843
 Alpha virt. eigenvalues --    2.75261   2.75658   2.75869   2.76228   2.76726
 Alpha virt. eigenvalues --    2.77004   2.77165   2.77407   2.77677   2.78291
 Alpha virt. eigenvalues --    2.78451   2.78795   2.78976   2.79678   2.79954
 Alpha virt. eigenvalues --    2.80322   2.80570   2.80808   2.81333   2.81552
 Alpha virt. eigenvalues --    2.81799   2.82770   2.82867   2.83072   2.83315
 Alpha virt. eigenvalues --    2.83770   2.84162   2.84324   2.84410   2.85547
 Alpha virt. eigenvalues --    2.85622   2.85858   2.86276   2.86371   2.86771
 Alpha virt. eigenvalues --    2.87097   2.87242   2.87734   2.87760   2.87947
 Alpha virt. eigenvalues --    2.88092   2.88592   2.88744   2.88999   2.89568
 Alpha virt. eigenvalues --    2.89819   2.89882   2.90270   2.90961   2.91236
 Alpha virt. eigenvalues --    2.91475   2.91974   2.92143   2.92419   2.92708
 Alpha virt. eigenvalues --    2.92956   2.93270   2.93697   2.94048   2.94355
 Alpha virt. eigenvalues --    2.94444   2.94766   2.95045   2.95241   2.95547
 Alpha virt. eigenvalues --    2.95751   2.96226   2.96744   2.96935   2.97109
 Alpha virt. eigenvalues --    2.97495   2.97937   2.97978   2.98189   2.98298
 Alpha virt. eigenvalues --    2.98638   2.99049   2.99080   2.99295   2.99453
 Alpha virt. eigenvalues --    3.00000   3.00317   3.00508   3.00710   3.01064
 Alpha virt. eigenvalues --    3.01143   3.01585   3.01790   3.02045   3.02332
 Alpha virt. eigenvalues --    3.02508   3.02618   3.02936   3.03108   3.03519
 Alpha virt. eigenvalues --    3.03826   3.04082   3.04237   3.04601   3.04876
 Alpha virt. eigenvalues --    3.05129   3.05639   3.06053   3.06128   3.06397
 Alpha virt. eigenvalues --    3.06477   3.06794   3.06975   3.07457   3.07635
 Alpha virt. eigenvalues --    3.08076   3.08132   3.08269   3.08687   3.08937
 Alpha virt. eigenvalues --    3.09512   3.09613   3.09853   3.10176   3.10433
 Alpha virt. eigenvalues --    3.10442   3.10722   3.10989   3.11322   3.11733
 Alpha virt. eigenvalues --    3.11945   3.12252   3.12308   3.12664   3.12886
 Alpha virt. eigenvalues --    3.13459   3.13615   3.13988   3.14161   3.14500
 Alpha virt. eigenvalues --    3.14541   3.14795   3.15082   3.15373   3.15655
 Alpha virt. eigenvalues --    3.15792   3.16318   3.16533   3.16680   3.16912
 Alpha virt. eigenvalues --    3.17064   3.17163   3.17738   3.18228   3.18625
 Alpha virt. eigenvalues --    3.18870   3.19029   3.19247   3.19588   3.19702
 Alpha virt. eigenvalues --    3.19901   3.20305   3.20604   3.20742   3.20913
 Alpha virt. eigenvalues --    3.21244   3.21491   3.21924   3.21986   3.22444
 Alpha virt. eigenvalues --    3.22812   3.22960   3.23291   3.23457   3.23979
 Alpha virt. eigenvalues --    3.24045   3.24175   3.24538   3.24742   3.25130
 Alpha virt. eigenvalues --    3.25376   3.25591   3.25734   3.25947   3.26200
 Alpha virt. eigenvalues --    3.26650   3.26978   3.27084   3.27373   3.27538
 Alpha virt. eigenvalues --    3.27702   3.27980   3.28361   3.28504   3.28904
 Alpha virt. eigenvalues --    3.29121   3.29357   3.29515   3.29921   3.30012
 Alpha virt. eigenvalues --    3.30275   3.30460   3.30799   3.30845   3.31063
 Alpha virt. eigenvalues --    3.31266   3.31443   3.31828   3.31872   3.32382
 Alpha virt. eigenvalues --    3.32681   3.32931   3.32959   3.33423   3.33638
 Alpha virt. eigenvalues --    3.33942   3.33967   3.34390   3.34782   3.34973
 Alpha virt. eigenvalues --    3.35085   3.35362   3.35704   3.35791   3.36320
 Alpha virt. eigenvalues --    3.36578   3.36651   3.37123   3.37185   3.37926
 Alpha virt. eigenvalues --    3.38381   3.38594   3.38807   3.38985   3.39264
 Alpha virt. eigenvalues --    3.39483   3.39730   3.40123   3.40176   3.40522
 Alpha virt. eigenvalues --    3.41060   3.41279   3.41390   3.41702   3.41850
 Alpha virt. eigenvalues --    3.42221   3.43063   3.43151   3.43360   3.43491
 Alpha virt. eigenvalues --    3.44122   3.44361   3.44783   3.44930   3.45583
 Alpha virt. eigenvalues --    3.46310   3.46435   3.46647   3.47049   3.47158
 Alpha virt. eigenvalues --    3.47913   3.48126   3.48612   3.48707   3.49167
 Alpha virt. eigenvalues --    3.49479   3.49619   3.49936   3.50095   3.50219
 Alpha virt. eigenvalues --    3.51177   3.51214   3.51825   3.52046   3.52282
 Alpha virt. eigenvalues --    3.52889   3.53167   3.53664   3.53900   3.54339
 Alpha virt. eigenvalues --    3.54616   3.54657   3.55096   3.55190   3.55700
 Alpha virt. eigenvalues --    3.56230   3.56348   3.56649   3.57088   3.57212
 Alpha virt. eigenvalues --    3.57759   3.57832   3.58401   3.58796   3.59083
 Alpha virt. eigenvalues --    3.59244   3.59879   3.60000   3.60552   3.60787
 Alpha virt. eigenvalues --    3.61343   3.61669   3.61901   3.62536   3.62847
 Alpha virt. eigenvalues --    3.63207   3.63451   3.63776   3.63831   3.64096
 Alpha virt. eigenvalues --    3.64514   3.65042   3.65112   3.65274   3.65459
 Alpha virt. eigenvalues --    3.65835   3.66317   3.66529   3.66576   3.66985
 Alpha virt. eigenvalues --    3.67696   3.68142   3.68277   3.68956   3.69469
 Alpha virt. eigenvalues --    3.69990   3.70268   3.70459   3.71141   3.71750
 Alpha virt. eigenvalues --    3.72163   3.72869   3.73083   3.73728   3.74622
 Alpha virt. eigenvalues --    3.75241   3.75784   3.76551   3.76885   3.77302
 Alpha virt. eigenvalues --    3.77509   3.78386   3.78445   3.79535   3.79742
 Alpha virt. eigenvalues --    3.80607   3.81037   3.81543   3.82281   3.82965
 Alpha virt. eigenvalues --    3.83142   3.83736   3.84202   3.84338   3.84608
 Alpha virt. eigenvalues --    3.84774   3.85295   3.86076   3.86287   3.86437
 Alpha virt. eigenvalues --    3.87197   3.88064   3.88285   3.88666   3.88937
 Alpha virt. eigenvalues --    3.89257   3.89607   3.89965   3.90219   3.91165
 Alpha virt. eigenvalues --    3.91286   3.92133   3.92221   3.92231   3.92987
 Alpha virt. eigenvalues --    3.93636   3.94045   3.94632   3.95074   3.95836
 Alpha virt. eigenvalues --    3.96074   3.96430   3.97381   3.97816   3.97966
 Alpha virt. eigenvalues --    3.98354   3.98666   3.99943   4.00100   4.00307
 Alpha virt. eigenvalues --    4.02316   4.02346   4.02752   4.03237   4.03323
 Alpha virt. eigenvalues --    4.03732   4.04320   4.05291   4.05595   4.06062
 Alpha virt. eigenvalues --    4.06629   4.07247   4.07688   4.08033   4.08713
 Alpha virt. eigenvalues --    4.08798   4.09614   4.09714   4.09937   4.10727
 Alpha virt. eigenvalues --    4.11287   4.11747   4.12217   4.13232   4.13551
 Alpha virt. eigenvalues --    4.14044   4.14398   4.14642   4.14892   4.15484
 Alpha virt. eigenvalues --    4.15666   4.16390   4.16603   4.17459   4.17731
 Alpha virt. eigenvalues --    4.18339   4.18689   4.19033   4.19854   4.20223
 Alpha virt. eigenvalues --    4.21204   4.21535   4.21991   4.22622   4.23187
 Alpha virt. eigenvalues --    4.23374   4.24073   4.24400   4.25319   4.26309
 Alpha virt. eigenvalues --    4.26505   4.26929   4.27169   4.27359   4.28144
 Alpha virt. eigenvalues --    4.29340   4.29588   4.30274   4.31164   4.31310
 Alpha virt. eigenvalues --    4.31658   4.31840   4.32528   4.33041   4.33166
 Alpha virt. eigenvalues --    4.33647   4.34281   4.34345   4.35019   4.35301
 Alpha virt. eigenvalues --    4.35776   4.36031   4.36823   4.37385   4.37582
 Alpha virt. eigenvalues --    4.38219   4.38618   4.39526   4.39784   4.40280
 Alpha virt. eigenvalues --    4.41739   4.42372   4.43022   4.44182   4.44706
 Alpha virt. eigenvalues --    4.45506   4.46216   4.46532   4.47497   4.48136
 Alpha virt. eigenvalues --    4.48641   4.48794   4.49309   4.50664   4.50672
 Alpha virt. eigenvalues --    4.51268   4.52458   4.53119   4.53637   4.54606
 Alpha virt. eigenvalues --    4.55567   4.55697   4.56637   4.56762   4.57137
 Alpha virt. eigenvalues --    4.57794   4.58305   4.58864   4.59604   4.60488
 Alpha virt. eigenvalues --    4.61021   4.61356   4.62236   4.62806   4.63240
 Alpha virt. eigenvalues --    4.63678   4.64051   4.64851   4.65084   4.65541
 Alpha virt. eigenvalues --    4.65728   4.66679   4.67331   4.67986   4.68327
 Alpha virt. eigenvalues --    4.68824   4.69047   4.70036   4.70930   4.71424
 Alpha virt. eigenvalues --    4.71852   4.74109   4.74438   4.74732   4.75634
 Alpha virt. eigenvalues --    4.76096   4.77077   4.77530   4.78051   4.78589
 Alpha virt. eigenvalues --    4.79105   4.79268   4.79474   4.80574   4.81570
 Alpha virt. eigenvalues --    4.82030   4.82545   4.83590   4.83815   4.84094
 Alpha virt. eigenvalues --    4.84830   4.85595   4.86825   4.87367   4.88643
 Alpha virt. eigenvalues --    4.89441   4.90494   4.91316   4.92096   4.92293
 Alpha virt. eigenvalues --    4.93019   4.93360   4.94611   4.95703   4.96119
 Alpha virt. eigenvalues --    4.97332   4.97791   4.98567   4.99757   5.00795
 Alpha virt. eigenvalues --    5.01500   5.02662   5.03232   5.05818   5.06595
 Alpha virt. eigenvalues --    5.07363   5.08900   5.09092   5.09354   5.10089
 Alpha virt. eigenvalues --    5.11976   5.12585   5.13073   5.13833   5.14434
 Alpha virt. eigenvalues --    5.14935   5.15239   5.15415   5.16008   5.17172
 Alpha virt. eigenvalues --    5.18476   5.19404   5.20026   5.20476   5.22008
 Alpha virt. eigenvalues --    5.22925   5.23671   5.24396   5.25012   5.25808
 Alpha virt. eigenvalues --    5.26365   5.26824   5.27513   5.29134   5.29530
 Alpha virt. eigenvalues --    5.30630   5.33307   5.35481   5.35925   5.36721
 Alpha virt. eigenvalues --    5.37525   5.38091   5.39320   5.39822   5.40859
 Alpha virt. eigenvalues --    5.41231   5.42876   5.45507   5.46267   5.47323
 Alpha virt. eigenvalues --    5.48210   5.48454   5.49761   5.51113   5.51592
 Alpha virt. eigenvalues --    5.52425   5.52877   5.54129   5.54966   5.56971
 Alpha virt. eigenvalues --    5.57896   5.58296   5.60562   5.63164   5.63852
 Alpha virt. eigenvalues --    5.65601   5.66728   5.67299   5.68897   5.71428
 Alpha virt. eigenvalues --    5.73114   5.77294   5.81522   5.84185   5.85310
 Alpha virt. eigenvalues --    5.85811   5.86039   5.88000   5.88252   5.89167
 Alpha virt. eigenvalues --    5.90781   5.92495   5.95745   5.96442   5.96901
 Alpha virt. eigenvalues --    6.00246   6.00591   6.01759   6.03112   6.04778
 Alpha virt. eigenvalues --    6.05702   6.07226   6.12998   6.13817   6.15541
 Alpha virt. eigenvalues --    6.18518   6.19222   6.19322   6.24737   6.25343
 Alpha virt. eigenvalues --    6.28805   6.33843   6.35918   6.38424   6.38479
 Alpha virt. eigenvalues --    6.42571   6.45413   6.57012   6.65989   6.66343
 Alpha virt. eigenvalues --    6.68425   6.73510   6.78228   6.81211   6.81984
 Alpha virt. eigenvalues --    6.87797   6.91738   7.02970   7.03131   7.07184
 Alpha virt. eigenvalues --    7.07851   7.22862   7.24620   9.15907   9.44425
 Alpha virt. eigenvalues --    9.55182  20.18956  22.22810  22.31673  22.32738
 Alpha virt. eigenvalues --   22.43351  22.43962  22.45626  22.47246  22.47956
 Alpha virt. eigenvalues --   22.48703  22.52789  22.53966  22.57322  22.58533
 Alpha virt. eigenvalues --   22.63644  22.68307  22.74742  22.77452  22.80335
 Alpha virt. eigenvalues --   22.81641  22.89299  22.92203  22.93981  22.97827
 Alpha virt. eigenvalues --   23.02076  23.09925  23.11322  23.14413  23.18001
 Alpha virt. eigenvalues --   23.20342  23.22798  23.29679  23.34215  23.36167
 Alpha virt. eigenvalues --   23.39556  23.43465  23.43724  23.49806  23.61983
 Alpha virt. eigenvalues --   23.66676  23.68491  23.76401  32.41812  32.69061
 Alpha virt. eigenvalues --   32.85577  32.91571  32.98647  33.08253  43.85013
 Alpha virt. eigenvalues --   43.85621  43.86155  43.89332
  Beta  occ. eigenvalues -- -256.52749 -89.12758 -30.27225 -26.11313 -26.10609
  Beta  occ. eigenvalues --  -26.08689 -19.34423 -19.34060 -19.25395 -19.24245
  Beta  occ. eigenvalues --  -14.54209 -14.50737 -14.50490 -14.49300 -14.49292
  Beta  occ. eigenvalues --  -14.48268 -10.43390 -10.42422 -10.37231 -10.36967
  Beta  occ. eigenvalues --  -10.36748 -10.36578 -10.36477 -10.36266 -10.36232
  Beta  occ. eigenvalues --  -10.36136 -10.35853 -10.35845 -10.34001 -10.33791
  Beta  occ. eigenvalues --  -10.33661 -10.33625 -10.33322 -10.33297 -10.33297
  Beta  occ. eigenvalues --  -10.33289 -10.33266 -10.33167 -10.33038 -10.32970
  Beta  occ. eigenvalues --  -10.32838 -10.32733 -10.32692 -10.32670 -10.32287
  Beta  occ. eigenvalues --  -10.32272 -10.31926 -10.31747 -10.31374 -10.31321
  Beta  occ. eigenvalues --  -10.31165 -10.30857 -10.30667 -10.30652 -10.30609
  Beta  occ. eigenvalues --  -10.29725 -10.29319  -8.10785  -6.04436  -6.04111
  Beta  occ. eigenvalues --   -6.03586  -3.57704  -2.35061  -2.31958  -2.30152
  Beta  occ. eigenvalues --   -1.23776  -1.23397  -1.16212  -1.10360  -1.09533
  Beta  occ. eigenvalues --   -1.09502  -1.08595  -1.08438  -1.07821  -1.00744
  Beta  occ. eigenvalues --   -0.95511  -0.94790  -0.93939  -0.93308  -0.92970
  Beta  occ. eigenvalues --   -0.92779  -0.92354  -0.91969  -0.90661  -0.89282
  Beta  occ. eigenvalues --   -0.88660  -0.87922  -0.87284  -0.86891  -0.86858
  Beta  occ. eigenvalues --   -0.84419  -0.82595  -0.82037  -0.81971  -0.81456
  Beta  occ. eigenvalues --   -0.80003  -0.78903  -0.77833  -0.77112  -0.76868
  Beta  occ. eigenvalues --   -0.76806  -0.74787  -0.74293  -0.73935  -0.71899
  Beta  occ. eigenvalues --   -0.71687  -0.71437  -0.70512  -0.69649  -0.69481
  Beta  occ. eigenvalues --   -0.66945  -0.66820  -0.66091  -0.65751  -0.64213
  Beta  occ. eigenvalues --   -0.63190  -0.63021  -0.62510  -0.61799  -0.60563
  Beta  occ. eigenvalues --   -0.60053  -0.59560  -0.59255  -0.58890  -0.58350
  Beta  occ. eigenvalues --   -0.58119  -0.57964  -0.57660  -0.57551  -0.57325
  Beta  occ. eigenvalues --   -0.57200  -0.56359  -0.55592  -0.55526  -0.55327
  Beta  occ. eigenvalues --   -0.55147  -0.54687  -0.54608  -0.54421  -0.54154
  Beta  occ. eigenvalues --   -0.53867  -0.53742  -0.53532  -0.53421  -0.53313
  Beta  occ. eigenvalues --   -0.52921  -0.52653  -0.52503  -0.52134  -0.52059
  Beta  occ. eigenvalues --   -0.51875  -0.51687  -0.51398  -0.51176  -0.51027
  Beta  occ. eigenvalues --   -0.50948  -0.50781  -0.50438  -0.50064  -0.49972
  Beta  occ. eigenvalues --   -0.49836  -0.49517  -0.49068  -0.48618  -0.48573
  Beta  occ. eigenvalues --   -0.48103  -0.47998  -0.47770  -0.47443  -0.47347
  Beta  occ. eigenvalues --   -0.47116  -0.46784  -0.46382  -0.46052  -0.45232
  Beta  occ. eigenvalues --   -0.44976  -0.44831  -0.44740  -0.44630  -0.44148
  Beta  occ. eigenvalues --   -0.43885  -0.43732  -0.43226  -0.42926  -0.40739
  Beta  occ. eigenvalues --   -0.40446  -0.40115  -0.40065  -0.39465  -0.38750
  Beta  occ. eigenvalues --   -0.38058  -0.37247  -0.35854  -0.35472  -0.35076
  Beta  occ. eigenvalues --   -0.34343  -0.34057  -0.33678  -0.33337  -0.30685
  Beta  occ. eigenvalues --   -0.30139
  Beta virt. eigenvalues --   -0.20439  -0.19035  -0.18720  -0.16006  -0.15675
  Beta virt. eigenvalues --   -0.13752  -0.13065  -0.11376  -0.11012  -0.08725
  Beta virt. eigenvalues --   -0.08130  -0.07398  -0.07031  -0.06857  -0.06429
  Beta virt. eigenvalues --   -0.06029  -0.05566  -0.04980  -0.04789  -0.04422
  Beta virt. eigenvalues --   -0.03887  -0.03398  -0.03033  -0.02846  -0.02609
  Beta virt. eigenvalues --   -0.02307  -0.02230  -0.02199  -0.01727  -0.01584
  Beta virt. eigenvalues --   -0.01242  -0.00992  -0.00723  -0.00344  -0.00127
  Beta virt. eigenvalues --    0.00035   0.00439   0.00535   0.00750   0.01095
  Beta virt. eigenvalues --    0.01309   0.01868   0.01999   0.02171   0.02445
  Beta virt. eigenvalues --    0.02985   0.03170   0.03290   0.03480   0.03697
  Beta virt. eigenvalues --    0.03962   0.04025   0.04303   0.04465   0.04595
  Beta virt. eigenvalues --    0.04850   0.05131   0.05162   0.05452   0.05534
  Beta virt. eigenvalues --    0.05828   0.05922   0.06074   0.06387   0.06618
  Beta virt. eigenvalues --    0.06826   0.06988   0.07102   0.07251   0.07397
  Beta virt. eigenvalues --    0.07568   0.07834   0.08170   0.08295   0.08394
  Beta virt. eigenvalues --    0.08626   0.08964   0.09329   0.09429   0.09680
  Beta virt. eigenvalues --    0.10141   0.10171   0.10563   0.10680   0.11029
  Beta virt. eigenvalues --    0.11161   0.11256   0.11509   0.11603   0.11902
  Beta virt. eigenvalues --    0.12202   0.12427   0.12725   0.12844   0.13055
  Beta virt. eigenvalues --    0.13197   0.13377   0.13498   0.13643   0.13909
  Beta virt. eigenvalues --    0.14189   0.14351   0.14395   0.14635   0.14695
  Beta virt. eigenvalues --    0.14922   0.15205   0.15302   0.15746   0.15868
  Beta virt. eigenvalues --    0.16208   0.16257   0.16535   0.16540   0.16942
  Beta virt. eigenvalues --    0.17014   0.17141   0.17564   0.17663   0.17824
  Beta virt. eigenvalues --    0.18025   0.18312   0.18320   0.18578   0.18772
  Beta virt. eigenvalues --    0.19047   0.19251   0.19325   0.19835   0.19879
  Beta virt. eigenvalues --    0.20051   0.20100   0.20402   0.20555   0.20815
  Beta virt. eigenvalues --    0.21114   0.21263   0.21429   0.21678   0.22023
  Beta virt. eigenvalues --    0.22204   0.22294   0.22646   0.22786   0.23087
  Beta virt. eigenvalues --    0.23291   0.23329   0.23566   0.23624   0.23979
  Beta virt. eigenvalues --    0.24204   0.24348   0.24683   0.24949   0.25173
  Beta virt. eigenvalues --    0.25491   0.25634   0.26058   0.26135   0.26169
  Beta virt. eigenvalues --    0.26527   0.26652   0.26727   0.26979   0.27213
  Beta virt. eigenvalues --    0.27419   0.27658   0.27999   0.28497   0.28646
  Beta virt. eigenvalues --    0.28907   0.29093   0.29199   0.29410   0.29789
  Beta virt. eigenvalues --    0.29832   0.30256   0.30326   0.30626   0.30734
  Beta virt. eigenvalues --    0.30970   0.31087   0.31337   0.31742   0.32015
  Beta virt. eigenvalues --    0.32079   0.32191   0.32342   0.32640   0.32841
  Beta virt. eigenvalues --    0.32999   0.33148   0.33166   0.33554   0.33644
  Beta virt. eigenvalues --    0.33775   0.33903   0.34033   0.34386   0.34617
  Beta virt. eigenvalues --    0.34760   0.34885   0.35159   0.35257   0.35438
  Beta virt. eigenvalues --    0.35631   0.35875   0.36313   0.36392   0.36530
  Beta virt. eigenvalues --    0.36684   0.36824   0.36949   0.37057   0.37339
  Beta virt. eigenvalues --    0.37444   0.37664   0.37819   0.37876   0.38129
  Beta virt. eigenvalues --    0.38217   0.38395   0.38642   0.38718   0.38758
  Beta virt. eigenvalues --    0.38947   0.39262   0.39393   0.39490   0.39666
  Beta virt. eigenvalues --    0.39927   0.40092   0.40127   0.40329   0.40545
  Beta virt. eigenvalues --    0.40835   0.40919   0.41197   0.41399   0.41612
  Beta virt. eigenvalues --    0.41669   0.42037   0.42081   0.42208   0.42373
  Beta virt. eigenvalues --    0.42633   0.42701   0.42883   0.43184   0.43455
  Beta virt. eigenvalues --    0.43654   0.43666   0.43946   0.44351   0.44413
  Beta virt. eigenvalues --    0.44615   0.44727   0.44891   0.45021   0.45151
  Beta virt. eigenvalues --    0.45321   0.45465   0.45811   0.46120   0.46364
  Beta virt. eigenvalues --    0.46498   0.46730   0.47172   0.47193   0.47447
  Beta virt. eigenvalues --    0.47518   0.47596   0.47980   0.48117   0.48244
  Beta virt. eigenvalues --    0.48369   0.48549   0.48974   0.49159   0.49456
  Beta virt. eigenvalues --    0.49587   0.49781   0.50007   0.50064   0.50457
  Beta virt. eigenvalues --    0.50683   0.50910   0.51319   0.51640   0.51745
  Beta virt. eigenvalues --    0.52130   0.52154   0.52492   0.52776   0.52939
  Beta virt. eigenvalues --    0.53053   0.53242   0.53432   0.53694   0.53908
  Beta virt. eigenvalues --    0.54111   0.54161   0.54483   0.54709   0.55208
  Beta virt. eigenvalues --    0.55355   0.55555   0.55708   0.55993   0.56284
  Beta virt. eigenvalues --    0.56569   0.56789   0.56948   0.57392   0.57437
  Beta virt. eigenvalues --    0.57577   0.57747   0.58244   0.58327   0.58580
  Beta virt. eigenvalues --    0.58830   0.59221   0.59405   0.59582   0.59735
  Beta virt. eigenvalues --    0.60161   0.60464   0.60725   0.61017   0.61222
  Beta virt. eigenvalues --    0.61763   0.61904   0.62189   0.62368   0.62474
  Beta virt. eigenvalues --    0.62630   0.63240   0.63330   0.63572   0.63861
  Beta virt. eigenvalues --    0.64281   0.64864   0.65145   0.65273   0.65496
  Beta virt. eigenvalues --    0.65646   0.65860   0.66291   0.66367   0.66554
  Beta virt. eigenvalues --    0.67072   0.67315   0.67657   0.67729   0.68158
  Beta virt. eigenvalues --    0.68253   0.68707   0.68886   0.69263   0.69468
  Beta virt. eigenvalues --    0.69937   0.70198   0.70268   0.70494   0.70988
  Beta virt. eigenvalues --    0.71178   0.71243   0.71786   0.72158   0.72319
[...]
  1759. RY*(   4) H  88                  0.00003     2.07107   
  1760. RY*(   5) H  88                  0.00000     2.90523   
  1761. RY*(   1) H  89                  0.00024     1.09564   
  1762. RY*(   2) H  89                  0.00008     1.60400   
  1763. RY*(   3) H  89                  0.00004     2.06113   
  1764. RY*(   4) H  89                  0.00002     1.96058   
  1765. RY*(   5) H  89                  0.00000     2.78109   
  1766. RY*(   1) H  90                  0.00022     1.05031   
  1767. RY*(   2) H  90                  0.00009     1.85973   
  1768. RY*(   3) H  90                  0.00004     2.07388   
  1769. RY*(   4) H  90                  0.00001     2.12498   
  1770. RY*(   5) H  90                  0.00001     2.52083   
  1771. RY*(   1) H  91                  0.00036     0.97295   
  1772. RY*(   2) H  91                  0.00008     1.62486   
  1773. RY*(   3) H  91                  0.00003     2.05778   
  1774. RY*(   4) H  91                  0.00002     1.90680   
  1775. RY*(   5) H  91                  0.00000     2.86450   
  1776. RY*(   1) H  92                  0.00030     0.87664   
  1777. RY*(   2) H  92                  0.00008     1.69299   
  1778. RY*(   3) H  92                  0.00003     1.91032   
  1779. RY*(   4) H  92                  0.00003     2.10635   
  1780. RY*(   5) H  92                  0.00000     2.87499   
  1781. RY*(   1) H  93                  0.00020     1.24753   
  1782. RY*(   2) H  93                  0.00008     1.83962   
  1783. RY*(   3) H  93                  0.00003     2.06153   
  1784. RY*(   4) H  93                  0.00001     2.09296   
  1785. RY*(   5) H  93                  0.00000     2.41794   
  1786. RY*(   1) H  94                  0.00044     0.96029   
  1787. RY*(   2) H  94                  0.00012     1.90116   
  1788. RY*(   3) H  94                  0.00008     1.99491   
  1789. RY*(   4) H  94                  0.00005     2.34068   
  1790. RY*(   5) H  94                  0.00001     3.05262   
  1791. RY*(   1) H  95                  0.00022     1.55176   
  1792. RY*(   2) H  95                  0.00011     0.92805   
  1793. RY*(   3) H  95                  0.00009     2.01328   
  1794. RY*(   4) H  95                  0.00003     2.41785   
  1795. RY*(   5) H  95                  0.00000     3.02629   
  1796. RY*(   1) H  96                  0.00042     1.20062   
  1797. RY*(   2) H  96                  0.00010     1.51593   
  1798. RY*(   3) H  96                  0.00007     2.14599   
  1799. RY*(   4) H  96                  0.00005     2.53658   
  1800. RY*(   5) H  96                  0.00000     3.01240   
  1801. RY*(   1) H  97                  0.00023     1.64265   
  1802. RY*(   2) H  97                  0.00011     0.94554   
  1803. RY*(   3) H  97                  0.00001     2.54232   
  1804. RY*(   4) H  97                  0.00002     2.32275   
  1805. RY*(   5) H  97                  0.00002     2.39140   
  1806. RY*(   1) H  98                  0.00020     1.84588   
  1807. RY*(   2) H  98                  0.00009     0.74825   
  1808. RY*(   3) H  98                  0.00001     2.17764   
  1809. RY*(   4) H  98                  0.00002     2.25641   
  1810. RY*(   5) H  98                  0.00001     2.76458   
  1811. RY*(   1) H  99                  0.00035     1.17635   
  1812. RY*(   2) H  99                  0.00009     1.50674   
  1813. RY*(   3) H  99                  0.00005     1.92245   
  1814. RY*(   4) H  99                  0.00002     0.75277   
  1815. RY*(   5) H  99                  0.00000     3.20032   
  1830. BD*(   1) C   7 - C   8          0.00323     0.26233   
  1831. BD*(   1) C   7 - H  57          0.00310     0.32281   
  1832. BD*(   1) C   7 - H  58          0.00531     0.33498   
  1833. BD*(   1) C   7 - H  59          0.00384     0.32243   
  1834. BD*(   1) C   8 - S   9          0.01448     0.07730   
  1835. BD*(   1) C   8 - H  60          0.00656     0.30302   
  1836. BD*(   1) C   8 - H  61          0.00988     0.30977   
  1837. BD*(   1) S   9 - C  10          0.01167     0.07964   
  1838. BD*(   1) S   9 -Fe  11          0.03705     0.20395   
  1839. BD*(   1) C  10 - H  54          0.00321     0.29053   
  1840. BD*(   1) C  10 - H  55          0.00600     0.30803   
  1841. BD*(   1) C  10 - H  56          0.00480     0.29397   
  1842. BD*(   1)Fe  11 - N  16          0.03800     0.28255   
  1843. BD*(   1)Fe  11 - N  27          0.03147     0.26055   
  1844. BD*(   1)Fe  11 - N  35          0.03408     0.25468   
  1845. BD*(   1)Fe  11 - N  43          0.03643     0.28759   
  1846. BD*(   1) C  12 - C  17          0.00983     0.45937   
  1847. BD*(   1) C  12 - C  47          0.01042     0.47467   
  1848. BD*(   2) C  12 - C  47          0.19724    -0.06676  1863(v),1921(v),1860(r)
                                                    496(g),1408(g)
  1849. BD*(   1) C  12 - H  73          0.00658     0.33459   
  1850. BD*(   1) C  13 - C  20          0.01000     0.46714   
  1851. BD*(   1) C  13 - C  28          0.01017     0.49078   
  1852. BD*(   2) C  13 - C  28          0.19384    -0.05845  1889(v),195(v),1886(v)
                                                    914(g),522(g),523(g),913(g)
  1853. BD*(   1) C  13 - H  85          0.00743     0.34325   
  1854. BD*(   1) C  14 - C  31          0.01038     0.51118   
  1855. BD*(   1) C  14 - C  36          0.01088     0.51661   
  1856. BD*(   2) C  14 - C  36          0.18801    -0.05095  1906(v),1886(v),1903(v)
                                                    548(g),1123(g)
  1857. BD*(   1) C  14 - H  87          0.01027     0.35348   
  1858. BD*(   1) C  15 - C  39          0.01030     0.46874   
  1859. BD*(   1) C  15 - C  44          0.01064     0.46077   
  1860. BD*(   2) C  15 - C  44          0.19953    -0.06636  1903(v),1921(v),1848(r)
                                                    574(g),1861(g),1330(g)
  1861. BD*(   1) C  15 - H  86          0.00630     0.34352   
  1862. BD*(   1) N  16 - C  17          0.01414     0.36029   
  1863. BD*(   2) N  16 - C  17          0.32198    -0.11043  1848(v),1867(v),195(v)
                                                    193(v),1826(r),627(g),192(v)
                                                    602(g),496(v),194(v)
  1864. BD*(   1) N  16 - C  20          0.01455     0.36858   
  1865. BD*(   1) C  17 - C  18          0.01618     0.37628   
  1866. BD*(   1) C  18 - C  19          0.00935     0.53009   
  1867. BD*(   2) C  18 - C  19          0.11512    -0.02877  1863(v),195(v),1874(v)
                                                    1871(v)
  1868. BD*(   1) C  18 - C  22          0.01306     0.25546   
  1869. BD*(   1) C  19 - C  20          0.01647     0.37725   
  1870. BD*(   1) C  19 - C  21          0.00855     0.26663   
  1871. BD*(   1) C  21 - H  82          0.00380     0.32074   
  1872. BD*(   1) C  21 - H  83          0.00235     0.32403   
  1873. BD*(   1) C  21 - H  84          0.00264     0.32788   
  1874. BD*(   1) C  22 - C  23          0.00934     0.25316   
  1875. BD*(   1) C  22 - H  74          0.00611     0.30424   
  1876. BD*(   1) C  22 - H  75          0.00610     0.32034   
  1877. BD*(   1) C  23 - C  24          0.03529     0.28122   
  1878. BD*(   1) C  23 - H  76          0.00530     0.32124   
  1879. BD*(   1) C  23 - H  77          0.00633     0.30081   
  1880. BD*(   1) C  24 - O  25          0.01779     0.43604   
  1881. BD*(   2) C  24 - O  25          0.11240    -0.04831  1880(g),1874(v),1879(v)
                                                    820(g),809(g)
  1882. BD*(   1) C  24 - O  26          0.03735     0.39227   
  1883. BD*(   1) O  26 - H  78          0.00604     0.30433   
  1884. BD*(   1) N  27 - C  28          0.01496     0.37097   
  1885. BD*(   1) N  27 - C  31          0.01532     0.36882   
  1886. BD*(   2) N  27 - C  31          0.32382    -0.11454  1856(v),1889(v),1852(v)
                                                    193(v),991(g),885(g),548(v)
                                                    192(v),992(g),889(g),1826(r)
                                                    1828(r)
  1887. BD*(   1) C  28 - C  29          0.01687     0.38255   
  1888. BD*(   1) C  29 - C  30          0.00875     0.52534   
  1889. BD*(   2) C  29 - C  30          0.12215    -0.03295  1897(v),1852(v),1886(v)
                                                    1893(v),1894(v)
  1890. BD*(   1) C  29 - C  32          0.00866     0.27031   
  1891. BD*(   1) C  30 - C  31          0.01741     0.37080   
  1892. BD*(   1) C  30 - C  33          0.01522     0.29185   
  1893. BD*(   1) C  32 - H  91          0.00403     0.32101   
  1894. BD*(   1) C  32 - H  92          0.00278     0.32211   
  1895. BD*(   1) C  32 - H  93          0.00219     0.32262   
  1896. BD*(   1) C  33 - C  34          0.00260     0.53033   
  1897. BD*(   2) C  33 - C  34          0.02023    -0.02567   
  1898. BD*(   1) C  33 - H  96          0.00810     0.36038   
  1899. BD*(   1) C  34 - H  94          0.00619     0.34981   
  1900. BD*(   1) C  34 - H  95          0.00446     0.36302   
  1901. BD*(   1) N  35 - C  36          0.01496     0.37000   
  1902. BD*(   1) N  35 - C  39          0.01426     0.36950   
  1903. BD*(   2) N  35 - C  39          0.29273    -0.10705  193(v),1860(v),1856(v)
                                                    1906(v),1826(r),1198(g)
                                                    200(r),1095(g),1197(g)
  1904. BD*(   1) C  36 - C  37          0.01680     0.37878   
  1905. BD*(   1) C  37 - C  38          0.00810     0.52190   
  1906. BD*(   2) C  37 - C  38          0.11560    -0.02648  1856(v),200(v),1903(v)
                                                    1911(v),1173(g)
  1907. BD*(   1) C  37 - C  40          0.00838     0.26360   
  1908. BD*(   1) C  38 - C  39          0.01644     0.38348   
  1909. BD*(   1) C  38 - C  41          0.01150     0.30424   
  1910. BD*(   1) C  40 - H  88          0.00216     0.32446   
  1911. BD*(   1) C  40 - H  89          0.00309     0.32115   
  1912. BD*(   1) C  40 - H  90          0.00228     0.31955   
  1913. BD*(   1) C  41 - C  42          0.00238     0.59857   
  1914. BD*(   1) C  41 - H  99          0.00346     0.35398   
  1915. BD*(   1) C  42 - H  97          0.00231     0.35375   
  1916. BD*(   1) C  42 - H  98          0.00236     0.35495   
  1917. BD*(   1) N  43 - C  44          0.01594     0.36847   
  1918. BD*(   1) N  43 - C  47          0.01640     0.34882   
  1919. BD*(   1) C  44 - C  45          0.01722     0.36146   
  1920. BD*(   1) C  45 - C  46          0.00998     0.52877   
  1921. BD*(   2) C  45 - C  46          0.11033    -0.03340  1848(v),1860(v),1928(v)
                                                    1926(v)
  1922. BD*(   1) C  45 - C  48          0.00864     0.24564   
  1923. BD*(   1) C  46 - C  47          0.01699     0.39223   
  1924. BD*(   1) C  46 - C  49          0.01318     0.29437   
  1925. BD*(   1) C  48 - H  79          0.00204     0.32450   
  1926. BD*(   1) C  48 - H  80          0.00366     0.31689   
  1927. BD*(   1) C  48 - H  81          0.00237     0.31801   
  1928. BD*(   1) C  49 - C  50          0.00883     0.26202   
  1929. BD*(   1) C  49 - H  70          0.00668     0.31210   
  1930. BD*(   1) C  49 - H  71          0.00681     0.31737   
  1931. BD*(   1) C  50 - C  51          0.03120     0.25494   
  1932. BD*(   1) C  50 - H  68          0.00485     0.31921   
  1933. BD*(   1) C  50 - H  69          0.00658     0.30862   
  1934. BD*(   1) C  51 - O  52          0.03748     0.40721   
  1935. BD*(   1) C  51 - O  53          0.01816     0.65964   
  1936. BD*(   2) C  51 - O  53          0.10728     3.83445  1140(r),1272(r),1269(r)
                                                    1165(r),1815(r),1813(r)
                                                    1268(r),1270(r),1217(r)
                                                    1181(r),1258(r),1288(r)
                                                    1210(r),1812(r),1221(r)
                                                    1214(r),1267(r),1935(g)
                                                    1263(r),1218(r),1180(r)
                                                    1286(r),493(r),1250(r)
                                                    1293(r),1187(r),1298(r)
                                                    485(r),1287(r),1212(r)
                                                    1256(r),1209(r),1194(r)
                                                    1169(r),1314(r),1182(r)
                                                    1178(r),1219(r),1294(r)
                                                    1811(r),1163(r),1252(r)
                                                    1271(r),1134(r),1249(r)
                                                    1284(r),1300(r),1319(r)
                                                    1299(r),1131(r),1150(r)
                                                    1207(r),1311(r),1206(r)
                                                    1237(r),1216(r),492(r)
                                                    1166(r),1251(r),1934(g)
                                                    1316(r),1292(r),1259(r)
                                                    1289(r),1156(r),1215(r)
                                                    330(r),1196(r),1179(r)
                                                    1170(r),1266(r),1188(r)
                                                    1195(r),1189(r),1285(r)
                                                    1137(r),1264(r),1273(r)
                                                    1296(r),1295(r),1143(r)
                                                    1290(r),490(r),1211(r)
                                                    1204(r),1193(r),1162(r)
                                                    1533(g),1260(r),1149(r)
                                                    480(r),1104(r),1262(r)
                                                    1205(r),1255(r),1282(r)
                                                    1120(r),569(r),1373(r)
                                                    1519(g),1803(r),1191(r)
                                                    1192(r),1126(r),1315(r)
                                                    1227(r),1167(r),1346(r)
                                                    1340(r),1155(r),1814(r)
                                                    1510(g),1175(r),1157(r)
                                                    1176(r),1310(r),1241(r)
                                                    322(r),331(r),334(r),346(r)
                                                    221(r)
  1937. BD*(   1) O  52 - H  72          0.00614     3.12310   
       -------------------------------
              Total Lewis  174.83806  ( 97.5707%)
        Valence non-Lewis    4.02444  (  2.2459%)
        Rydberg non-Lewis    0.32859  (  0.1834%)
       -------------------------------
            Total unit  2  179.19108  (100.0000%)
           Charge unit  2    2.80892
 1\1\GINC-NODE537\SP\UPBE1PBE\def2TZVP\C41H46Fe1N6O4S1(1+,6)\ZHARTOVSKA
 \08-Apr-2023\0\\# PBE1PBE/def2TZVP empiricaldispersion=GD3BJ scf=maxcy
 cle=999 geom=check pop=nbo\\2pcb_III_H\\1,6\C,0,34.438,47.118999,62.70
 2999\C,0,35.814999,47.606998,62.407001\N,0,36.875,47.675999,63.282001\
 C,0,36.300999,48.143002,61.238998\C,0,37.938,48.182999,62.674999\N,0,3
 7.611,48.493999,61.448002\C,0,43.360001,48.891998,60.316002\C,0,42.576
 ,48.872002,59.02\S,0,41.227001,50.019001,59.338001\C,0,40.990002,50.78
 5,57.730999\Fe,0,39.398998,49.076,60.426998\C,0,40.834,50.925999,62.86
 5002\C,0,37.374001,51.689999,59.554001\C,0,38.300999,47.389999,57.612\
 C,0,40.896,46.314999,61.495998\N,0,39.132,50.938999,61.111\C,0,39.903,
 51.578999,62.071999\C,0,39.534,52.98,62.083\C,0,38.612999,53.188,61.13
 7001\C,0,38.335999,51.903,60.521999\C,0,37.842999,54.462002,60.729\C,0
 ,40.109001,54.040001,63.066002\C,0,39.331001,54.242001,64.380997\C,0,3
 9.528999,55.541,65.112\O,0,38.521999,56.216999,65.474998\O,0,40.703999
 ,55.933998,65.382004\N,0,38.096001,49.452999,58.931999\C,0,37.334,50.5
 84999,58.755001\C,0,36.504002,50.436001,57.580002\C,0,36.793999,49.245
 998,57.033001\C,0,37.785,48.608002,57.889999\C,0,35.529999,51.504002,5
 7.054001\C,0,36.284,48.638,55.713001\C,0,37.012001,47.900002,54.886002
 \N,0,39.568001,47.212002,59.698002\C,0,39.108002,46.744999,58.481998\C
 ,0,39.613998,45.407001,58.262001\C,0,40.338001,45.074001,59.335999\C,0
 ,40.297001,46.181999,60.259998\C,0,39.297001,44.534,57.027\C,0,41.0530
 01,43.731998,59.516998\C,0,41.750999,43.388,60.575001\N,0,40.617001,48
 .687,61.938\C,0,41.188,47.472,62.200001\C,0,42.200001,47.630001,63.241
 001\C,0,42.167999,48.917,63.610001\C,0,41.193001,49.599998,62.801998\C
 ,0,43.084999,46.450001,63.752998\C,0,43.023998,49.582001,64.68\C,0,44.
 362,50.223,64.300003\C,0,45.161999,50.646,65.522003\O,0,44.634998,51.4
 59,66.348999\O,0,46.317001,50.161999,65.668999\H,0,41.80894557,50.5314
 106,57.09074605\H,0,40.07692396,50.43219567,57.29889069\H,0,40.9429347
 6,51.84776851,57.84592404\H,0,44.2921355,49.39407333,60.16125825\H,0,4
 2.79705503,49.40802447,61.06547416\H,0,43.54459527,47.88802047,60.6367
 107\H,0,43.18093315,49.21660558,58.20747046\H,0,42.19838762,47.8905605
 9,58.82230923\H,0,34.44303731,46.57376727,63.6236493\H,0,33.77399299,4
 7.95387365,62.78653954\H,0,34.10851515,46.47905457,61.91128512\H,0,36.
 84695792,47.38528457,64.23839985\H,0,35.75443587,48.26518035,60.327273
 7\H,0,38.90385163,48.31586323,63.1158819\H,0,44.93660301,49.51842833,6
 3.73581319\H,0,44.1744433,51.08388702,63.69288191\H,0,42.42617166,50.3
 4383998,65.13508795\H,0,43.22793013,48.84299848,65.42644957\H,0,45.193
 31123,52.00648395,66.90590803\H,0,41.32707734,51.51846625,63.60713224\
 H,0,41.10990579,53.75400809,63.31358562\H,0,40.14668368,54.97958095,62
 .55544394\H,0,38.28815015,54.14671622,64.16126327\H,0,39.60205318,53.4
 486519,65.04584881\H,0,41.4613878,55.44780434,65.04797117\H,0,44.00691
 472,46.83550309,64.13556767\H,0,42.56741622,45.92693392,64.52979198\H,
 0,43.28716547,45.77889829,62.94451184\H,0,38.42225016,55.0176163,60.02
 142608\H,0,36.90789395,54.18748644,60.28727638\H,0,37.66507205,55.0640
 693,61.59546233\H,0,36.61664181,52.43446342,59.42331137\H,0,41.1727021
 8,45.39971975,61.97620608\H,0,38.06390139,46.92458094,56.67815271\H,0,
 40.07890505,43.81716198,56.88675265\H,0,38.36876318,44.02406549,57.179
 4511\H,0,39.22383411,45.15627375,56.15963503\H,0,35.98033259,52.025072
 71,56.23510847\H,0,34.62796881,51.03249912,56.72396074\H,0,35.3041507,
 52.19736681,57.83703215\H,0,38.02023668,47.64793402,55.14060472\H,0,36
 .59117333,47.55660506,53.96411122\H,0,35.26569826,48.82515793,55.44293
 9\H,0,42.75975924,43.72771581,60.68406953\H,0,41.31090429,42.76802137,
 61.32789086\H,0,40.97827515,43.02063908,58.72120623\\Version=ES64L-G16
 RevA.03\State=6-A\HF=-3879.1316713\S2=8.83892\S2-1=0.\S2A=8.751979\RMS
 D=1.373e-09\Dipole=-0.9315712,-2.5083123,-1.7162939\Quadrupole=-3.6897
 179,-5.5630638,9.2527816,19.3438363,12.6157942,-9.3602076\PG=C01 [X(C4
 1H46Fe1N6O4S1)]\\@


 AND HERE I AM, FOR ALL MY LORE,
 THE WRETCHED FOOL I WAS BEFORE.
 CALLED MASTER OF ARTS, AND DOCTOR TO BOOT,
 FOR TEN YEARS ALMOST I CONFUTE
 AND UP AND DOWN, WHEREVER IT GOES
 I DRAG MY STUDENTS BY THE NOSE --
 AND SEE THAT FOR ALL OUR SCIENCE AND ART
 WE CAN KNOW NOTHING.  IT BURNS MY HEART.

                                       -- FAUST
 Job cpu time:       6 days  0 hours 51 minutes  4.7 seconds.
 Elapsed time:       1 days 12 hours 19 minutes  4.4 seconds.
 File lengths (MBytes):  RWF=   3452 Int=      0 D2E=      0 Chk=    289 Scr=      1
 Normal termination of Gaussian 16 at Sat Apr  8 01:32:26 2023.
