 Entering Gaussian System, Link 0=g16
 Input=/net/homes/chemie/zhartovska/work/BioModel/Konrad/1vb6/1vb612/1vb616/1vb616.com
 Output=/net/homes/chemie/zhartovska/work/BioModel/Konrad/1vb6/1vb612/1vb616/1vb616.log
 Initial command:
 /afs/math/software/gaussian/g16.A03/g16/l1.exe "/scratch/zhartovska_gaussian.ndaQPyu/Gau-28037.inp" -scrdir="/scratch/zhartovska_gaussian.ndaQPyu/"
 Entering Link 1 = /afs/math/software/gaussian/g16.A03/g16/l1.exe PID=     28038.
  
 Copyright (c) 1988,1990,1992,1993,1995,1998,2003,2009,2016,
            Gaussian, Inc.  All Rights Reserved.
  
 This is part of the Gaussian(R) 16 program.  It is based on
 the Gaussian(R) 09 system (copyright 2009, Gaussian, Inc.),
 the Gaussian(R) 03 system (copyright 2003, Gaussian, Inc.),
 the Gaussian(R) 98 system (copyright 1998, Gaussian, Inc.),
 the Gaussian(R) 94 system (copyright 1995, Gaussian, Inc.),
 the Gaussian 92(TM) system (copyright 1992, Gaussian, Inc.),
 the Gaussian 90(TM) system (copyright 1990, Gaussian, Inc.),
 the Gaussian 88(TM) system (copyright 1988, Gaussian, Inc.),
 the Gaussian 86(TM) system (copyright 1986, Carnegie Mellon
 University), and the Gaussian 82(TM) system (copyright 1983,
 Carnegie Mellon University). Gaussian is a federally registered
 trademark of Gaussian, Inc.
  
 This software contains proprietary and confidential information,
 including trade secrets, belonging to Gaussian, Inc.
  
 This software is provided under written license and may be
 used, copied, transmitted, or stored only in accord with that
 written license.
  
 The following legend is applicable only to US Government
 contracts under FAR:
  
                    RESTRICTED RIGHTS LEGEND
  
 Use, reproduction and disclosure by the US Government is
 subject to restrictions as set forth in subparagraphs (a)
 and (c) of the Commercial Computer Software - Restricted
 Rights clause in FAR 52.227-19.
  
 Gaussian, Inc.
 340 Quinnipiac St., Bldg. 40, Wallingford CT 06492
  
  
 ---------------------------------------------------------------
 Warning -- This program may not be used in any manner that
 competes with the business of Gaussian, Inc. or will provide
 assistance to any competitor of Gaussian, Inc.  The licensee
 of this program is prohibited from giving any competitor of
 Gaussian, Inc. access to this program.  By using this program,
 the user acknowledges that Gaussian, Inc. is engaged in the
 business of creating and licensing software in the field of
 computational chemistry and represents and warrants to the
 licensee that it is not a competitor of Gaussian, Inc. and that
 it will not use this program in any manner prohibited above.
 ---------------------------------------------------------------
  

 Cite this work as:
 Gaussian 16, Revision A.03,
 M. J. Frisch, G. W. Trucks, H. B. Schlegel, G. E. Scuseria, 
 M. A. Robb, J. R. Cheeseman, G. Scalmani, V. Barone, 
 G. A. Petersson, H. Nakatsuji, X. Li, M. Caricato, A. V. Marenich, 
 J. Bloino, B. G. Janesko, R. Gomperts, B. Mennucci, H. P. Hratchian, 
 J. V. Ortiz, A. F. Izmaylov, J. L. Sonnenberg, D. Williams-Young, 
 F. Ding, F. Lipparini, F. Egidi, J. Goings, B. Peng, A. Petrone, 
 T. Henderson, D. Ranasinghe, V. G. Zakrzewski, J. Gao, N. Rega, 
 G. Zheng, W. Liang, M. Hada, M. Ehara, K. Toyota, R. Fukuda, 
 J. Hasegawa, M. Ishida, T. Nakajima, Y. Honda, O. Kitao, H. Nakai, 
 T. Vreven, K. Throssell, J. A. Montgomery, Jr., J. E. Peralta, 
 F. Ogliaro, M. J. Bearpark, J. J. Heyd, E. N. Brothers, K. N. Kudin, 
 V. N. Staroverov, T. A. Keith, R. Kobayashi, J. Normand, 
 K. Raghavachari, A. P. Rendell, J. C. Burant, S. S. Iyengar, 
 J. Tomasi, M. Cossi, J. M. Millam, M. Klene, C. Adamo, R. Cammi, 
 J. W. Ochterski, R. L. Martin, K. Morokuma, O. Farkas, 
 J. B. Foresman, and D. J. Fox, Gaussian, Inc., Wallingford CT, 2016.
 
 ******************************************
 Gaussian 16:  ES64L-G16RevA.03 25-Dec-2016
                 8-Sep-2022 
 ******************************************
 %nprocs=12
 Will use up to   12 processors via shared memory.
 %mem=16GB
 %oldchk=1vb6_III_D.chk
 %chk=1vb6_III_H.chk
 Copying data from "1vb6_III_D.chk" to current chk file "1vb6_III_H.chk"
 IOpt=  2 FromEx=T IUOpen= 4 IOptOp= 5 NList=   0 IFRang= 0 IUIn= 4 IUOut= 2.
 ----------------------------------------------------------------------
 # PBE1PBE/def2TZVP empiricaldispersion=GD3BJ scf=maxcycle=999 geom=che
 ck pop=nbo
 ----------------------------------------------------------------------
 1/29=2,38=1,172=1/1;
 2/12=2,40=1/2;
 3/5=44,7=101,11=2,14=-4,25=1,30=1,74=-13,124=41/1,2,3;
 4//1;
 5/5=2,7=999,38=5/2;
 6/7=2,8=2,9=2,10=2,28=1,40=1/1,7;
 99/5=1,9=1/99;
 ----------
 1vb6_III_H
 ----------
 Structure from the checkpoint file:  "1vb6_III_H.chk"
 Charge =  1 Multiplicity = 6
 Z-Matrix found in chk file.
 C,0,-2.424,-20.167999,-17.756001
 C,0,-1.867,-19.166,-16.792
 N,0,-1.739,-17.827999,-17.097
 C,0,-1.43,-19.306,-15.519
 C,0,-1.25,-17.184999,-16.052999
 N,0,-1.053,-18.058001,-15.081
 C,0,0.45697758,-17.95830189,-8.41996971
 C,0,-0.44,-17.849001,-9.667
 S,0,0.424,-16.907,-10.952
 C,0,2.103,-17.461,-10.658
 C,0,-3.488,-18.146999,-11.841
 C,0,0.475,-20.855,-12.647
 C,0,2.812,-16.966999,-14.344
 C,0,-1.12,-14.231,-13.549
 C,0,-2.587,-19.247999,-11.935
 C,0,-2.932,-20.6,-11.506
 C,0,-1.805,-21.367001,-11.727
 C,0,-0.802,-20.481001,-12.283
 C,0,-1.657,-22.875999,-11.434
 C,0,-4.327,-21.063,-11.046
 C,0,-4.331,-21.563,-9.609
 C,0,-3.95,-20.499001,-8.605
 O,0,-2.992,-20.737,-7.867
 O,0,-4.603,-19.431999,-8.572
 C,0,1.452,-20.034,-13.173
 C,0,2.769,-20.487,-13.523
 C,0,3.487,-19.410999,-14.027
 C,0,2.526,-18.271999,-13.951
 C,0,3.248,-21.954,-13.337
 C,0,4.848,-19.458,-14.494
 C,0,5.43718768,-20.66545086,-14.0954498
 C,0,1.931,-15.889,-14.27
 C,0,2.322,-14.539,-14.688
 C,0,1.194,-13.739,-14.465
 C,0,0.167,-14.634,-13.918
 C,0,3.717,-14.158,-15.246
 C,0,0.995,-12.333,-14.685
 C,0,2.20853082,-11.74303756,-15.06342995
 C,0,-2.116,-15.047,-13.008
 C,0,-3.443,-14.59,-12.61
 C,0,-4.099,-15.687,-12.125
 C,0,-3.174,-16.819,-12.245
 C,0,-4.001,-13.156,-12.69
 C,0,-5.525,-15.74,-11.562
 C,0,-5.357,-15.764,-10.037
 C,0,-6.585,-15.349,-9.233
 O,0,-6.445,-15.222,-7.988
 O,0,-7.668,-15.154,-9.838
 N,0,-1.292,-19.194,-12.411
 N,0,1.284,-18.655001,-13.442
 N,0,0.629,-15.962,-13.807
 N,0,-1.964,-16.415001,-12.778
 Fe,0,-0.402,-17.572001,-13.123
 H,0,2.74283065,-16.61187198,-10.53759093
 H,0,2.13140383,-18.05772314,-9.77029807
 H,0,2.43711724,-18.04413915,-11.49059498
 H,0,-0.66328638,-18.82943156,-10.0327856
 H,0,-1.35000161,-17.3487389,-9.40905641
 H,0,1.37487921,-17.43670896,-8.5940312
 H,0,-0.04544094,-17.52557051,-7.58019642
 H,0,0.66471914,-18.98856903,-8.2192384
 H,0,-1.38602936,-20.21643011,-14.95856838
 H,0,-1.04762584,-16.13552516,-16.00250783
 H,0,-1.9791923,-17.40946593,-17.97286399
 H,0,-1.74563411,-20.99042479,-17.84730015
 H,0,-3.36763089,-20.52217969,-17.39681194
 H,0,-2.5566325,-19.70717867,-18.71253289
 H,0,-5.5654052,-15.1829708,-7.60539093
 H,0,-5.08749005,-16.75782718,-9.74618749
 H,0,-4.55168658,-15.10830396,-9.77925399
 H,0,-6.02223092,-16.62724052,-11.89436377
 H,0,-6.07430299,-14.87180373,-11.86100076
 H,0,-3.31581583,-12.53625783,-13.22976133
 H,0,-4.94451449,-13.1680529,-13.19451475
 H,0,-4.13016516,-12.76786754,-11.70127883
 H,0,-1.36505811,-13.1997123,-13.69491847
 H,0,0.27251664,-12.19225514,-15.46160072
 H,0,0.64274415,-11.87724362,-13.78327835
 H,0,2.21319203,-10.71502949,-14.76665111
 H,0,3.01808761,-12.2554696,-14.58705698
 H,0,2.32087053,-11.80816418,-16.12552143
 H,0,4.41882934,-14.93026432,-15.00947645
 H,0,3.65716398,-14.04351916,-16.30817409
 H,0,4.03799666,-13.23720635,-14.80554546
 H,0,3.78931294,-16.77569619,-14.73536001
 H,0,4.86124881,-19.39001851,-15.56175605
 H,0,5.39643122,-18.63899858,-14.07763492
 H,0,5.02792258,-21.46914906,-14.67118522
 H,0,6.49429086,-20.61573254,-14.25344012
 H,0,5.23920745,-20.8333865,-13.05742212
 H,0,4.18904507,-21.96008368,-12.82778771
 H,0,2.52677545,-22.49425537,-12.76006042
 H,0,3.35791026,-22.41750451,-14.29511445
 H,0,0.7338584,-21.88383212,-12.5077276
 H,0,-0.75318818,-23.04617832,-10.8871333
 H,0,-2.4924481,-23.21056443,-10.85521468
 H,0,-1.62281814,-23.4168021,-12.35663948
 H,0,-4.46316194,-18.33105867,-11.44089848
 H,0,-4.65799906,-21.85272864,-11.68761382
 H,0,-5.00813605,-20.24189546,-11.1281037
 H,0,-5.31133489,-21.92126563,-9.37343845
 H,0,-3.63938766,-22.37528621,-9.52675961
 H,0,-2.09583782,-20.6313472,-8.19461385
 Recover connectivity data from disk.
 Stoichiometry    C41H50FeN6O4S(1+,6)
 Framework group  C1[X(C41H50FeN6O4S)]
 Deg. of freedom   303
 Full point group                 C1      NOp   1
 Largest Abelian subgroup         C1      NOp   1
 Largest concise Abelian subgroup C1      NOp   1
                         Standard orientation:                         
 ---------------------------------------------------------------------
 Center     Atomic      Atomic             Coordinates (Angstroms)
 Number     Number       Type             X           Y           Z
 ---------------------------------------------------------------------
      1          6           0       -1.396554   -1.101004    5.656971
      2          6           0       -1.380639   -0.417092    4.324470
      3          7           0       -1.673206    0.920733    4.168633
      4          6           0       -1.080271   -0.883599    3.090271
      5          6           0       -1.551138    1.251094    2.896442
      6          7           0       -1.192228    0.174835    2.219261
      7          6           0        1.025374   -1.346049   -4.059946
      8          6           0        1.130337   -0.846071   -2.607155
      9         16           0       -0.296608    0.204129   -2.225059
     10          6           0       -1.560050   -0.643039   -3.172906
     11          6           0        2.583962   -0.225353    0.799760
     12          6           0       -1.162670   -3.264912    0.157802
     13          6           0       -4.110180    0.499087   -0.618361
     14          6           0       -0.396182    3.563383    0.009850
     15          6           0        1.787548   -1.404121    0.704534
     16          6           0        2.330100   -2.749044    0.871241
     17          6           0        1.268896   -3.612154    0.681118
     18          6           0        0.108143   -2.789160    0.406390
     19          6           0        1.323437   -5.153880    0.751353
     20          6           0        3.766326   -3.084715    1.314609
     21          6           0        4.534221   -3.867694    0.259969
     22          6           0        4.719753   -3.105984   -1.032566
     23          8           0        4.297420   -3.633057   -2.063527
     24          8           0        5.273792   -1.984294   -1.003501
     25          6           0       -2.284402   -2.507133   -0.111889
     26          6           0       -3.580489   -3.068127   -0.371972
     27          6           0       -4.474856   -2.029883   -0.594401
     28          6           0       -3.637550   -0.801682   -0.463788
     29          6           0       -3.864418   -4.596242   -0.391326
     30          6           0       -5.876966   -2.180590   -0.884216
     31          6           0       -6.147325   -3.518703   -1.200891
     32          6           0       -3.340891    1.656824   -0.510849
     33          6           0       -3.916739    2.990657   -0.709328
     34          6           0       -2.854207    3.885391   -0.528800
     35          6           0       -1.677623    3.059157   -0.232234
     36          6           0       -5.403078    3.267557   -1.050898
     37          6           0       -2.825192    5.319916   -0.607101
     38          6           0       -4.066418    5.788298   -1.058653
     39          6           0        0.749509    2.810135    0.275483
     40          6           0        2.079275    3.366454    0.500015
     41          6           0        2.911293    2.302642    0.712197
     42          6           0        2.081337    1.095769    0.634234
     43          6           0        2.486706    4.852297    0.480300
     44          6           0        4.420909    2.346326    0.981282
     45          6           0        5.080535    1.979362   -0.354628
     46          6           0        6.540383    2.395477   -0.504025
     47          8           0        7.073924    2.237147   -1.633635
     48          8           0        7.139707    2.871829    0.491383
     49          7           0        0.435067   -1.445494    0.429580
     50          7           0       -2.307049   -1.093084   -0.158522
     51          7           0       -1.988964    1.683592   -0.216777
     52          7           0        0.765058    1.417251    0.359527
     53         26           0       -0.724467    0.138283    0.151987
     54          1           0       -2.055589    0.057087   -3.812565
     55          1           0       -1.106924   -1.409528   -3.766263
     56          1           0       -2.271903   -1.082431   -2.505747
     57          1           0        1.144904   -1.683910   -1.941788
     58          1           0        2.031096   -0.280830   -2.488685
     59          1           0        0.144211   -0.942389   -4.513280
     60          1           0        1.886736   -1.028436   -4.609562
     61          1           0        0.972245   -2.414710   -4.066405
     62          1           0       -0.807044   -1.887203    2.839219
     63          1           0       -1.714954    2.224676    2.483887
     64          1           0       -1.936909    1.544100    4.904754
     65          1           0       -2.007086   -1.977910    5.600528
     66          1           0       -0.399062   -1.377718    5.927785
     67          1           0       -1.794883   -0.435941    6.394485
     68          1           0        6.526520    2.063782   -2.402982
     69          1           0        5.021626    0.917886   -0.475859
     70          1           0        4.519882    2.439168   -1.141487
     71          1           0        4.684377    1.632405    1.733480
     72          1           0        4.715620    3.329802    1.282646
     73          1           0        1.609385    5.461939    0.420773
     74          1           0        3.023878    5.086741    1.375500
     75          1           0        3.109791    5.040035   -0.369064
     76          1           0       -0.282511    4.627137   -0.010310
     77          1           0       -2.621736    5.725954    0.361733
     78          1           0       -2.059339    5.624451   -1.289470
     79          1           0       -3.932202    6.719133   -1.568978
     80          1           0       -4.495343    5.072797   -1.728713
     81          1           0       -4.719411    5.930584   -0.223037
     82          1           0       -5.862019    2.367119   -1.402301
     83          1           0       -5.912837    3.609115   -0.174322
     84          1           0       -5.460422    4.017587   -1.811863
     85          1           0       -5.150395    0.620085   -0.837933
     86          1           0       -6.450997   -1.893702   -0.028013
     87          1           0       -6.138603   -1.557810   -1.714030
     88          1           0       -6.088113   -4.114130   -0.313839
     89          1           0       -7.130182   -3.595213   -1.616868
     90          1           0       -5.430103   -3.868444   -1.913754
     91          1           0       -4.396703   -4.848829   -1.284507
     92          1           0       -2.938281   -5.131459   -0.364621
     93          1           0       -4.453719   -4.860353    0.461827
     94          1           0       -1.291613   -4.326961    0.175848
     95          1           0        0.845476   -5.567382   -0.112052
     96          1           0        2.344090   -5.473659    0.781501
     97          1           0        0.818535   -5.488824    1.633276
     98          1           0        3.626819   -0.341498    1.009184
     99          1           0        3.724093   -3.664539    2.212897
    100          1           0        4.288036   -2.172432    1.515749
    101          1           0        5.497973   -4.117047    0.652276
    102          1           0        4.003520   -4.773045    0.051170
    103          1           0        3.361230   -3.596065   -2.272762
 ---------------------------------------------------------------------
 Rotational constants (GHZ):           0.0643288           0.0457790           0.0355004
 Standard basis: def2TZVP (5D, 7F)
 There are  2230 symmetry adapted cartesian basis functions of A   symmetry.
 There are  1963 symmetry adapted basis functions of A   symmetry.
  1963 basis functions,  3172 primitive gaussians,  2230 cartesian basis functions
   208 alpha electrons      203 beta electrons
       nuclear repulsion energy      9051.8543214259 Hartrees.
 NAtoms=  103 NActive=  103 NUniq=  103 SFac= 1.00D+00 NAtFMM=   60 NAOKFM=T Big=T
 Integral buffers will be    131072 words long.
 Raffenetti 2 integral format.
 Two-electron integral symmetry is turned on.
 Nuclear repulsion after empirical dispersion term =     9051.7023887059 Hartrees.
 One-electron integrals computed using PRISM.
   1 Symmetry operations used in ECPInt.
 ECPInt:  NShTT=  311655 NPrTT=  958403 LenC2=  229008 LenP2D=  455055.
 LDataN:  DoStor=T MaxTD1= 6 Len=  172
 NBasis=  1963 RedAO= T EigKep=  2.88D-06  NBF=  1963
 NBsUse=  1963 1.00D-06 EigRej= -1.00D+00 NBFU=  1963
 ExpMin= 4.20D-02 ExpMax= 3.01D+05 ExpMxC= 2.91D+03 IAcc=3 IRadAn=         5 AccDes= 0.00D+00
 Harris functional with IExCor= 1009 and IRadAn=       5 diagonalized for initial guess.
 HarFok:  IExCor= 1009 AccDes= 0.00D+00 IRadAn=         5 IDoV= 1 UseB2=F ITyADJ=14
 ICtDFT=  3500011 ScaDFX=  1.000000  1.000000  1.000000  1.000000
 FoFCou: FMM=F IPFlag=           0 FMFlag=      100000 FMFlg1=        2001
         NFxFlg=           0 DoJE=T BraDBF=F KetDBF=T FulRan=T
         wScrn=  0.000000 ICntrl=       500 IOpCl=  0 I1Cent=   200000004 NGrid=           0
         NMat0=    1 NMatS0=      1 NMatT0=    0 NMatD0=    1 NMtDS0=    0 NMtDT0=    0
 Petite list used in FoFCou.
 Initial guess <Sx>= 0.0000 <Sy>= 0.0000 <Sz>= 2.5000 <S**2>= 8.7500 S= 2.5000
 Requested convergence on RMS density matrix=1.00D-08 within 999 cycles.
 Requested convergence on MAX density matrix=1.00D-06.
 Requested convergence on             energy=1.00D-06.
 No special actions if energy rises.
 EnCoef did   100 forward-backward iterations
 EnCoef did     4 forward-backward iterations
 EnCoef did     5 forward-backward iterations
 EnCoef did   100 forward-backward iterations
 EnCoef did     7 forward-backward iterations
 Restarting incremental Fock formation.
 SCF Done:  E(UPBE1PBE) =  -3881.64589067     A.U. after   29 cycles
            NFock= 29  Conv=0.73D-08     -V/T= 2.0029
 <Sx>= 0.0000 <Sy>= 0.0000 <Sz>= 2.5000 <S**2>= 8.7606 S= 2.5018
 <L.S>= 0.000000000000E+00
 Annihilation of the first spin contaminant:
 S**2 before annihilation     8.7606,   after     8.7500
 Hyperfine terms turned off by default for NAtoms > 100.

 **********************************************************************

            Population analysis using the SCF density.

 **********************************************************************

 Orbital symmetries:
 Alpha Orbitals:
       Occupied  (A) (A) (A) (A) (A) (A) (A) (A) (A) (A) (A) (A)
                 (A) (A) (A) (A) (A) (A) (A) (A) (A) (A) (A) (A)
                 (A) (A) (A) (A) (A) (A) (A) (A) (A) (A) (A) (A)
                 (A) (A) (A) (A) (A) (A) (A) (A) (A) (A) (A) (A)
                 (A) (A) (A) (A) (A) (A) (A) (A) (A) (A) (A) (A)
                 (A) (A) (A) (A) (A) (A) (A) (A) (A) (A) (A) (A)
                 (A) (A) (A) (A) (A) (A) (A) (A) (A) (A) (A) (A)
                 (A) (A) (A) (A) (A) (A) (A) (A) (A) (A) (A) (A)
                 (A) (A) (A) (A) (A) (A) (A) (A) (A) (A) (A) (A)
                 (A) (A) (A) (A) (A) (A) (A) (A) (A) (A) (A) (A)
                 (A) (A) (A) (A) (A) (A) (A) (A) (A) (A) (A) (A)
                 (A) (A) (A) (A) (A) (A) (A) (A) (A) (A) (A) (A)
                 (A) (A) (A) (A) (A) (A) (A) (A) (A) (A) (A) (A)
                 (A) (A) (A) (A) (A) (A) (A) (A) (A) (A) (A) (A)
                 (A) (A) (A) (A) (A) (A) (A) (A) (A) (A) (A) (A)
                 (A) (A) (A) (A) (A) (A) (A) (A) (A) (A) (A) (A)
                 (A) (A) (A) (A) (A) (A) (A) (A) (A) (A) (A) (A)
                 (A) (A) (A) (A)
       Virtual   (A) (A) (A) (A) (A) (A) (A) (A) (A) (A) (A) (A)
                 (A) (A) (A) (A) (A) (A) (A) (A) (A) (A) (A) (A)
                 (A) (A) (A) (A) (A) (A) (A) (A) (A) (A) (A) (A)
                 (A) (A) (A) (A) (A) (A) (A) (A) (A) (A) (A) (A)
                 (A) (A) (A) (A) (A) (A) (A) (A) (A) (A) (A) (A)
                 (A) (A) (A) (A) (A) (A) (A) (A) (A) (A) (A) (A)
                 (A) (A) (A) (A) (A) (A) (A) (A) (A) (A) (A) (A)
                 (A) (A) (A) (A) (A) (A) (A) (A) (A) (A) (A) (A)
                 (A) (A) (A) (A) (A) (A) (A) (A) (A) (A) (A) (A)
                 (A) (A) (A) (A) (A) (A) (A) (A) (A) (A) (A) (A)
                 (A) (A) (A) (A) (A) (A) (A) (A) (A) (A) (A) (A)
                 (A) (A) (A) (A) (A) (A) (A) (A) (A) (A) (A) (A)
                 (A) (A) (A) (A) (A) (A) (A) (A) (A) (A) (A) (A)
                 (A) (A) (A) (A) (A) (A) (A) (A) (A) (A) (A) (A)
                 (A) (A) (A) (A) (A) (A) (A) (A) (A) (A) (A) (A)
                 (A) (A) (A) (A) (A) (A) (A) (A) (A) (A) (A) (A)
                 (A) (A) (A) (A) (A) (A) (A) (A) (A) (A) (A) (A)
                 (A) (A) (A) (A) (A) (A) (A) (A) (A) (A) (A) (A)
                 (A) (A) (A) (A) (A) (A) (A) (A) (A) (A) (A) (A)
                 (A) (A) (A) (A) (A) (A) (A) (A) (A) (A) (A) (A)
                 (A) (A) (A) (A) (A) (A) (A) (A) (A) (A) (A) (A)
                 (A) (A) (A) (A) (A) (A) (A) (A) (A) (A) (A) (A)
                 (A) (A) (A) (A) (A) (A) (A) (A) (A) (A) (A) (A)
                 (A) (A) (A) (A) (A) (A) (A) (A) (A) (A) (A) (A)
                 (A) (A) (A) (A) (A) (A) (A) (A) (A) (A) (A) (A)
                 (A) (A) (A) (A) (A) (A) (A) (A) (A) (A) (A) (A)
                 (A) (A) (A) (A) (A) (A) (A) (A) (A) (A) (A) (A)
                 (A) (A) (A) (A) (A) (A) (A) (A) (A) (A) (A) (A)
                 (A) (A) (A) (A) (A) (A) (A) (A) (A) (A) (A) (A)
                 (A) (A) (A) (A) (A) (A) (A) (A) (A) (A) (A) (A)
                 (A) (A) (A) (A) (A) (A) (A) (A) (A) (A) (A) (A)
                 (A) (A) (A) (A) (A) (A) (A) (A) (A) (A) (A) (A)
                 (A) (A) (A) (A) (A) (A) (A) (A) (A) (A) (A) (A)
                 (A) (A) (A) (A) (A) (A) (A) (A) (A) (A) (A) (A)
                 (A) (A) (A) (A) (A) (A) (A) (A) (A) (A) (A) (A)
                 (A) (A) (A) (A) (A) (A) (A) (A) (A) (A) (A) (A)
                 (A) (A) (A) (A) (A) (A) (A) (A) (A) (A) (A) (A)
                 (A) (A) (A) (A) (A) (A) (A) (A) (A) (A) (A) (A)
                 (A) (A) (A) (A) (A) (A) (A) (A) (A) (A) (A) (A)
                 (A) (A) (A) (A) (A) (A) (A) (A) (A) (A) (A) (A)
                 (A) (A) (A) (A) (A) (A) (A) (A) (A) (A) (A) (A)
                 (A) (A) (A) (A) (A) (A) (A) (A) (A) (A) (A) (A)
                 (A) (A) (A) (A) (A) (A) (A) (A) (A) (A) (A) (A)
                 (A) (A) (A) (A) (A) (A) (A) (A) (A) (A) (A) (A)
                 (A) (A) (A) (A) (A) (A) (A) (A) (A) (A) (A) (A)
                 (A) (A) (A) (A) (A) (A) (A) (A) (A) (A) (A) (A)
                 (A) (A) (A) (A) (A) (A) (A) (A) (A) (A) (A) (A)
                 (A) (A) (A) (A) (A) (A) (A) (A) (A) (A) (A) (A)
                 (A) (A) (A) (A) (A) (A) (A) (A) (A) (A) (A) (A)
                 (A) (A) (A) (A) (A) (A) (A) (A) (A) (A) (A) (A)
                 (A) (A) (A) (A) (A) (A) (A) (A) (A) (A) (A) (A)
                 (A) (A) (A) (A) (A) (A) (A) (A) (A) (A) (A) (A)
                 (A) (A) (A) (A) (A) (A) (A) (A) (A) (A) (A) (A)
                 (A) (A) (A) (A) (A) (A) (A) (A) (A) (A) (A) (A)
                 (A) (A) (A) (A) (A) (A) (A) (A) (A) (A) (A) (A)
                 (A) (A) (A) (A) (A) (A) (A) (A) (A) (A) (A) (A)
                 (A) (A) (A) (A) (A) (A) (A) (A) (A) (A) (A) (A)
                 (A) (A) (A) (A) (A) (A) (A) (A) (A) (A) (A) (A)
                 (A) (A) (A) (A) (A) (A) (A) (A) (A) (A) (A) (A)
                 (A) (A) (A) (A) (A) (A) (A) (A) (A) (A) (A) (A)
                 (A) (A) (A) (A) (A) (A) (A) (A) (A) (A) (A) (A)
                 (A) (A) (A) (A) (A) (A) (A) (A) (A) (A) (A) (A)
                 (A) (A) (A) (A) (A) (A) (A) (A) (A) (A) (A) (A)
                 (A) (A) (A) (A) (A) (A) (A) (A) (A) (A) (A) (A)
                 (A) (A) (A) (A) (A) (A) (A) (A) (A) (A) (A) (A)
                 (A) (A) (A) (A) (A) (A) (A) (A) (A) (A) (A) (A)
                 (A) (A) (A) (A) (A) (A) (A) (A) (A) (A) (A) (A)
                 (A) (A) (A) (A) (A) (A) (A) (A) (A) (A) (A) (A)
                 (A) (A) (A) (A) (A) (A) (A) (A) (A) (A) (A) (A)
                 (A) (A) (A) (A) (A) (A) (A) (A) (A) (A) (A) (A)
                 (A) (A) (A) (A) (A) (A) (A) (A) (A) (A) (A) (A)
                 (A) (A) (A) (A) (A) (A) (A) (A) (A) (A) (A) (A)
                 (A) (A) (A) (A) (A) (A) (A) (A) (A) (A) (A) (A)
                 (A) (A) (A) (A) (A) (A) (A) (A) (A) (A) (A) (A)
                 (A) (A) (A) (A) (A) (A) (A) (A) (A) (A) (A) (A)
                 (A) (A) (A) (A) (A) (A) (A) (A) (A) (A) (A) (A)
                 (A) (A) (A) (A) (A) (A) (A) (A) (A) (A) (A) (A)
                 (A) (A) (A) (A) (A) (A) (A) (A) (A) (A) (A) (A)
                 (A) (A) (A) (A) (A) (A) (A) (A) (A) (A) (A) (A)
                 (A) (A) (A) (A) (A) (A) (A) (A) (A) (A) (A) (A)
                 (A) (A) (A) (A) (A) (A) (A) (A) (A) (A) (A) (A)
                 (A) (A) (A) (A) (A) (A) (A) (A) (A) (A) (A) (A)
                 (A) (A) (A) (A) (A) (A) (A) (A) (A) (A) (A) (A)
                 (A) (A) (A) (A) (A) (A) (A) (A) (A) (A) (A) (A)
                 (A) (A) (A) (A) (A) (A) (A) (A) (A) (A) (A) (A)
                 (A) (A) (A) (A) (A) (A) (A) (A) (A) (A) (A) (A)
                 (A) (A) (A) (A) (A) (A) (A) (A) (A) (A) (A) (A)
                 (A) (A) (A) (A) (A) (A) (A) (A) (A) (A) (A) (A)
                 (A) (A) (A) (A) (A) (A) (A) (A) (A) (A) (A) (A)
                 (A) (A) (A) (A) (A) (A) (A) (A) (A) (A) (A) (A)
                 (A) (A) (A) (A) (A) (A) (A) (A) (A) (A) (A) (A)
                 (A) (A) (A) (A) (A) (A) (A) (A) (A) (A) (A) (A)
                 (A) (A) (A) (A) (A) (A) (A) (A) (A) (A) (A) (A)
                 (A) (A) (A) (A) (A) (A) (A) (A) (A) (A) (A) (A)
                 (A) (A) (A) (A) (A) (A) (A) (A) (A) (A) (A) (A)
                 (A) (A) (A) (A) (A) (A) (A) (A) (A) (A) (A) (A)
                 (A) (A) (A) (A) (A) (A) (A) (A) (A) (A) (A) (A)
                 (A) (A) (A) (A) (A) (A) (A) (A) (A) (A) (A) (A)
                 (A) (A) (A) (A) (A) (A) (A) (A) (A) (A) (A) (A)
                 (A) (A) (A) (A) (A) (A) (A) (A) (A) (A) (A) (A)
                 (A) (A) (A) (A) (A) (A) (A) (A) (A) (A) (A) (A)
                 (A) (A) (A) (A) (A) (A) (A) (A) (A) (A) (A) (A)
                 (A) (A) (A) (A) (A) (A) (A) (A) (A) (A) (A) (A)
                 (A) (A) (A) (A) (A) (A) (A) (A) (A) (A) (A) (A)
                 (A) (A) (A) (A) (A) (A) (A) (A) (A) (A) (A) (A)
                 (A) (A) (A) (A) (A) (A) (A) (A) (A) (A) (A) (A)
                 (A) (A) (A) (A) (A) (A) (A) (A) (A) (A) (A) (A)
                 (A) (A) (A) (A) (A) (A) (A) (A) (A) (A) (A) (A)
                 (A) (A) (A) (A) (A) (A) (A) (A) (A) (A) (A) (A)
                 (A) (A) (A) (A) (A) (A) (A) (A) (A) (A) (A) (A)
                 (A) (A) (A) (A) (A) (A) (A) (A) (A) (A) (A) (A)
                 (A) (A) (A) (A) (A) (A) (A) (A) (A) (A) (A) (A)
                 (A) (A) (A) (A) (A) (A) (A) (A) (A) (A) (A) (A)
                 (A) (A) (A) (A) (A) (A) (A) (A) (A) (A) (A) (A)
                 (A) (A) (A) (A) (A) (A) (A) (A) (A) (A) (A) (A)
                 (A) (A) (A) (A) (A) (A) (A) (A) (A) (A) (A) (A)
                 (A) (A) (A) (A) (A) (A) (A) (A) (A) (A) (A) (A)
                 (A) (A) (A) (A) (A) (A) (A) (A) (A) (A) (A) (A)
                 (A) (A) (A) (A) (A) (A) (A) (A) (A) (A) (A) (A)
                 (A) (A) (A) (A) (A) (A) (A) (A) (A) (A) (A) (A)
                 (A) (A) (A) (A) (A) (A) (A) (A) (A) (A) (A) (A)
                 (A) (A) (A) (A) (A) (A) (A) (A) (A) (A) (A) (A)
                 (A) (A) (A) (A) (A) (A) (A) (A) (A) (A) (A) (A)
                 (A) (A) (A) (A) (A) (A) (A) (A) (A) (A) (A) (A)
                 (A) (A) (A) (A) (A) (A) (A) (A) (A) (A) (A) (A)
                 (A) (A) (A) (A) (A) (A) (A) (A) (A) (A) (A) (A)
                 (A) (A) (A) (A) (A) (A) (A) (A) (A) (A) (A) (A)
                 (A) (A) (A) (A) (A) (A) (A) (A) (A) (A) (A) (A)
                 (A) (A) (A) (A) (A) (A) (A) (A) (A) (A) (A) (A)
                 (A) (A) (A) (A) (A) (A) (A) (A) (A) (A) (A) (A)
                 (A) (A) (A) (A) (A) (A) (A) (A) (A) (A) (A) (A)
                 (A) (A) (A) (A) (A) (A) (A) (A) (A) (A) (A) (A)
                 (A) (A) (A) (A) (A) (A) (A) (A) (A) (A) (A) (A)
                 (A) (A) (A) (A) (A) (A) (A) (A) (A) (A) (A) (A)
                 (A) (A) (A) (A) (A) (A) (A) (A) (A) (A) (A) (A)
                 (A) (A) (A) (A) (A) (A) (A) (A) (A) (A) (A) (A)
                 (A) (A) (A) (A) (A) (A) (A) (A) (A) (A) (A) (A)
                 (A) (A) (A) (A) (A) (A) (A) (A) (A) (A) (A) (A)
                 (A) (A) (A) (A) (A) (A) (A) (A) (A) (A) (A) (A)
                 (A) (A) (A) (A) (A) (A) (A) (A) (A) (A) (A) (A)
                 (A) (A) (A) (A) (A) (A) (A) (A) (A) (A) (A) (A)
                 (A) (A) (A) (A) (A) (A) (A) (A) (A) (A) (A) (A)
                 (A) (A) (A) (A) (A) (A) (A) (A) (A) (A) (A) (A)
                 (A) (A) (A) (A) (A) (A) (A) (A) (A) (A) (A) (A)
                 (A) (A) (A) (A) (A) (A) (A) (A) (A) (A) (A) (A)
                 (A) (A) (A) (A) (A) (A) (A) (A) (A) (A) (A) (A)
                 (A) (A) (A)
 Beta  Orbitals:
       Occupied  (A) (A) (A) (A) (A) (A) (A) (A) (A) (A) (A) (A)
                 (A) (A) (A) (A) (A) (A) (A) (A) (A) (A) (A) (A)
                 (A) (A) (A) (A) (A) (A) (A) (A) (A) (A) (A) (A)
                 (A) (A) (A) (A) (A) (A) (A) (A) (A) (A) (A) (A)
                 (A) (A) (A) (A) (A) (A) (A) (A) (A) (A) (A) (A)
                 (A) (A) (A) (A) (A) (A) (A) (A) (A) (A) (A) (A)
                 (A) (A) (A) (A) (A) (A) (A) (A) (A) (A) (A) (A)
                 (A) (A) (A) (A) (A) (A) (A) (A) (A) (A) (A) (A)
                 (A) (A) (A) (A) (A) (A) (A) (A) (A) (A) (A) (A)
                 (A) (A) (A) (A) (A) (A) (A) (A) (A) (A) (A) (A)
                 (A) (A) (A) (A) (A) (A) (A) (A) (A) (A) (A) (A)
                 (A) (A) (A) (A) (A) (A) (A) (A) (A) (A) (A) (A)
                 (A) (A) (A) (A) (A) (A) (A) (A) (A) (A) (A) (A)
                 (A) (A) (A) (A) (A) (A) (A) (A) (A) (A) (A) (A)
                 (A) (A) (A) (A) (A) (A) (A) (A) (A) (A) (A) (A)
                 (A) (A) (A) (A) (A) (A) (A) (A) (A) (A) (A) (A)
                 (A) (A) (A) (A) (A) (A) (A) (A) (A) (A) (A)
       Virtual   (A) (A) (A) (A) (A) (A) (A) (A) (A) (A) (A) (A)
                 (A) (A) (A) (A) (A) (A) (A) (A) (A) (A) (A) (A)
                 (A) (A) (A) (A) (A) (A) (A) (A) (A) (A) (A) (A)
                 (A) (A) (A) (A) (A) (A) (A) (A) (A) (A) (A) (A)
                 (A) (A) (A) (A) (A) (A) (A) (A) (A) (A) (A) (A)
                 (A) (A) (A) (A) (A) (A) (A) (A) (A) (A) (A) (A)
                 (A) (A) (A) (A) (A) (A) (A) (A) (A) (A) (A) (A)
                 (A) (A) (A) (A) (A) (A) (A) (A) (A) (A) (A) (A)
                 (A) (A) (A) (A) (A) (A) (A) (A) (A) (A) (A) (A)
                 (A) (A) (A) (A) (A) (A) (A) (A) (A) (A) (A) (A)
                 (A) (A) (A) (A) (A) (A) (A) (A) (A) (A) (A) (A)
                 (A) (A) (A) (A) (A) (A) (A) (A) (A) (A) (A) (A)
                 (A) (A) (A) (A) (A) (A) (A) (A) (A) (A) (A) (A)
                 (A) (A) (A) (A) (A) (A) (A) (A) (A) (A) (A) (A)
                 (A) (A) (A) (A) (A) (A) (A) (A) (A) (A) (A) (A)
                 (A) (A) (A) (A) (A) (A) (A) (A) (A) (A) (A) (A)
                 (A) (A) (A) (A) (A) (A) (A) (A) (A) (A) (A) (A)
                 (A) (A) (A) (A) (A) (A) (A) (A) (A) (A) (A) (A)
                 (A) (A) (A) (A) (A) (A) (A) (A) (A) (A) (A) (A)
                 (A) (A) (A) (A) (A) (A) (A) (A) (A) (A) (A) (A)
                 (A) (A) (A) (A) (A) (A) (A) (A) (A) (A) (A) (A)
                 (A) (A) (A) (A) (A) (A) (A) (A) (A) (A) (A) (A)
                 (A) (A) (A) (A) (A) (A) (A) (A) (A) (A) (A) (A)
                 (A) (A) (A) (A) (A) (A) (A) (A) (A) (A) (A) (A)
                 (A) (A) (A) (A) (A) (A) (A) (A) (A) (A) (A) (A)
                 (A) (A) (A) (A) (A) (A) (A) (A) (A) (A) (A) (A)
                 (A) (A) (A) (A) (A) (A) (A) (A) (A) (A) (A) (A)
                 (A) (A) (A) (A) (A) (A) (A) (A) (A) (A) (A) (A)
                 (A) (A) (A) (A) (A) (A) (A) (A) (A) (A) (A) (A)
                 (A) (A) (A) (A) (A) (A) (A) (A) (A) (A) (A) (A)
                 (A) (A) (A) (A) (A) (A) (A) (A) (A) (A) (A) (A)
                 (A) (A) (A) (A) (A) (A) (A) (A) (A) (A) (A) (A)
                 (A) (A) (A) (A) (A) (A) (A) (A) (A) (A) (A) (A)
                 (A) (A) (A) (A) (A) (A) (A) (A) (A) (A) (A) (A)
                 (A) (A) (A) (A) (A) (A) (A) (A) (A) (A) (A) (A)
                 (A) (A) (A) (A) (A) (A) (A) (A) (A) (A) (A) (A)
                 (A) (A) (A) (A) (A) (A) (A) (A) (A) (A) (A) (A)
                 (A) (A) (A) (A) (A) (A) (A) (A) (A) (A) (A) (A)
                 (A) (A) (A) (A) (A) (A) (A) (A) (A) (A) (A) (A)
                 (A) (A) (A) (A) (A) (A) (A) (A) (A) (A) (A) (A)
                 (A) (A) (A) (A) (A) (A) (A) (A) (A) (A) (A) (A)
                 (A) (A) (A) (A) (A) (A) (A) (A) (A) (A) (A) (A)
                 (A) (A) (A) (A) (A) (A) (A) (A) (A) (A) (A) (A)
                 (A) (A) (A) (A) (A) (A) (A) (A) (A) (A) (A) (A)
                 (A) (A) (A) (A) (A) (A) (A) (A) (A) (A) (A) (A)
                 (A) (A) (A) (A) (A) (A) (A) (A) (A) (A) (A) (A)
                 (A) (A) (A) (A) (A) (A) (A) (A) (A) (A) (A) (A)
                 (A) (A) (A) (A) (A) (A) (A) (A) (A) (A) (A) (A)
                 (A) (A) (A) (A) (A) (A) (A) (A) (A) (A) (A) (A)
                 (A) (A) (A) (A) (A) (A) (A) (A) (A) (A) (A) (A)
                 (A) (A) (A) (A) (A) (A) (A) (A) (A) (A) (A) (A)
                 (A) (A) (A) (A) (A) (A) (A) (A) (A) (A) (A) (A)
                 (A) (A) (A) (A) (A) (A) (A) (A) (A) (A) (A) (A)
                 (A) (A) (A) (A) (A) (A) (A) (A) (A) (A) (A) (A)
                 (A) (A) (A) (A) (A) (A) (A) (A) (A) (A) (A) (A)
                 (A) (A) (A) (A) (A) (A) (A) (A) (A) (A) (A) (A)
                 (A) (A) (A) (A) (A) (A) (A) (A) (A) (A) (A) (A)
                 (A) (A) (A) (A) (A) (A) (A) (A) (A) (A) (A) (A)
                 (A) (A) (A) (A) (A) (A) (A) (A) (A) (A) (A) (A)
                 (A) (A) (A) (A) (A) (A) (A) (A) (A) (A) (A) (A)
                 (A) (A) (A) (A) (A) (A) (A) (A) (A) (A) (A) (A)
                 (A) (A) (A) (A) (A) (A) (A) (A) (A) (A) (A) (A)
                 (A) (A) (A) (A) (A) (A) (A) (A) (A) (A) (A) (A)
                 (A) (A) (A) (A) (A) (A) (A) (A) (A) (A) (A) (A)
                 (A) (A) (A) (A) (A) (A) (A) (A) (A) (A) (A) (A)
                 (A) (A) (A) (A) (A) (A) (A) (A) (A) (A) (A) (A)
                 (A) (A) (A) (A) (A) (A) (A) (A) (A) (A) (A) (A)
                 (A) (A) (A) (A) (A) (A) (A) (A) (A) (A) (A) (A)
                 (A) (A) (A) (A) (A) (A) (A) (A) (A) (A) (A) (A)
                 (A) (A) (A) (A) (A) (A) (A) (A) (A) (A) (A) (A)
                 (A) (A) (A) (A) (A) (A) (A) (A) (A) (A) (A) (A)
                 (A) (A) (A) (A) (A) (A) (A) (A) (A) (A) (A) (A)
                 (A) (A) (A) (A) (A) (A) (A) (A) (A) (A) (A) (A)
                 (A) (A) (A) (A) (A) (A) (A) (A) (A) (A) (A) (A)
                 (A) (A) (A) (A) (A) (A) (A) (A) (A) (A) (A) (A)
                 (A) (A) (A) (A) (A) (A) (A) (A) (A) (A) (A) (A)
                 (A) (A) (A) (A) (A) (A) (A) (A) (A) (A) (A) (A)
                 (A) (A) (A) (A) (A) (A) (A) (A) (A) (A) (A) (A)
                 (A) (A) (A) (A) (A) (A) (A) (A) (A) (A) (A) (A)
                 (A) (A) (A) (A) (A) (A) (A) (A) (A) (A) (A) (A)
                 (A) (A) (A) (A) (A) (A) (A) (A) (A) (A) (A) (A)
                 (A) (A) (A) (A) (A) (A) (A) (A) (A) (A) (A) (A)
                 (A) (A) (A) (A) (A) (A) (A) (A) (A) (A) (A) (A)
                 (A) (A) (A) (A) (A) (A) (A) (A) (A) (A) (A) (A)
                 (A) (A) (A) (A) (A) (A) (A) (A) (A) (A) (A) (A)
                 (A) (A) (A) (A) (A) (A) (A) (A) (A) (A) (A) (A)
                 (A) (A) (A) (A) (A) (A) (A) (A) (A) (A) (A) (A)
                 (A) (A) (A) (A) (A) (A) (A) (A) (A) (A) (A) (A)
                 (A) (A) (A) (A) (A) (A) (A) (A) (A) (A) (A) (A)
                 (A) (A) (A) (A) (A) (A) (A) (A) (A) (A) (A) (A)
                 (A) (A) (A) (A) (A) (A) (A) (A) (A) (A) (A) (A)
                 (A) (A) (A) (A) (A) (A) (A) (A) (A) (A) (A) (A)
                 (A) (A) (A) (A) (A) (A) (A) (A) (A) (A) (A) (A)
                 (A) (A) (A) (A) (A) (A) (A) (A) (A) (A) (A) (A)
                 (A) (A) (A) (A) (A) (A) (A) (A) (A) (A) (A) (A)
                 (A) (A) (A) (A) (A) (A) (A) (A) (A) (A) (A) (A)
                 (A) (A) (A) (A) (A) (A) (A) (A) (A) (A) (A) (A)
                 (A) (A) (A) (A) (A) (A) (A) (A) (A) (A) (A) (A)
                 (A) (A) (A) (A) (A) (A) (A) (A) (A) (A) (A) (A)
                 (A) (A) (A) (A) (A) (A) (A) (A) (A) (A) (A) (A)
                 (A) (A) (A) (A) (A) (A) (A) (A) (A) (A) (A) (A)
                 (A) (A) (A) (A) (A) (A) (A) (A) (A) (A) (A) (A)
                 (A) (A) (A) (A) (A) (A) (A) (A) (A) (A) (A) (A)
                 (A) (A) (A) (A) (A) (A) (A) (A) (A) (A) (A) (A)
                 (A) (A) (A) (A) (A) (A) (A) (A) (A) (A) (A) (A)
                 (A) (A) (A) (A) (A) (A) (A) (A) (A) (A) (A) (A)
                 (A) (A) (A) (A) (A) (A) (A) (A) (A) (A) (A) (A)
                 (A) (A) (A) (A) (A) (A) (A) (A) (A) (A) (A) (A)
                 (A) (A) (A) (A) (A) (A) (A) (A) (A) (A) (A) (A)
                 (A) (A) (A) (A) (A) (A) (A) (A) (A) (A) (A) (A)
                 (A) (A) (A) (A) (A) (A) (A) (A) (A) (A) (A) (A)
                 (A) (A) (A) (A) (A) (A) (A) (A) (A) (A) (A) (A)
                 (A) (A) (A) (A) (A) (A) (A) (A) (A) (A) (A) (A)
                 (A) (A) (A) (A) (A) (A) (A) (A) (A) (A) (A) (A)
                 (A) (A) (A) (A) (A) (A) (A) (A) (A) (A) (A) (A)
                 (A) (A) (A) (A) (A) (A) (A) (A) (A) (A) (A) (A)
                 (A) (A) (A) (A) (A) (A) (A) (A) (A) (A) (A) (A)
                 (A) (A) (A) (A) (A) (A) (A) (A) (A) (A) (A) (A)
                 (A) (A) (A) (A) (A) (A) (A) (A) (A) (A) (A) (A)
                 (A) (A) (A) (A) (A) (A) (A) (A) (A) (A) (A) (A)
                 (A) (A) (A) (A) (A) (A) (A) (A) (A) (A) (A) (A)
                 (A) (A) (A) (A) (A) (A) (A) (A) (A) (A) (A) (A)
                 (A) (A) (A) (A) (A) (A) (A) (A) (A) (A) (A) (A)
                 (A) (A) (A) (A) (A) (A) (A) (A) (A) (A) (A) (A)
                 (A) (A) (A) (A) (A) (A) (A) (A) (A) (A) (A) (A)
                 (A) (A) (A) (A) (A) (A) (A) (A) (A) (A) (A) (A)
                 (A) (A) (A) (A) (A) (A) (A) (A) (A) (A) (A) (A)
                 (A) (A) (A) (A) (A) (A) (A) (A) (A) (A) (A) (A)
                 (A) (A) (A) (A) (A) (A) (A) (A) (A) (A) (A) (A)
                 (A) (A) (A) (A) (A) (A) (A) (A) (A) (A) (A) (A)
                 (A) (A) (A) (A) (A) (A) (A) (A) (A) (A) (A) (A)
                 (A) (A) (A) (A) (A) (A) (A) (A) (A) (A) (A) (A)
                 (A) (A) (A) (A) (A) (A) (A) (A) (A) (A) (A) (A)
                 (A) (A) (A) (A) (A) (A) (A) (A) (A) (A) (A) (A)
                 (A) (A) (A) (A) (A) (A) (A) (A) (A) (A) (A) (A)
                 (A) (A) (A) (A) (A) (A) (A) (A) (A) (A) (A) (A)
                 (A) (A) (A) (A) (A) (A) (A) (A) (A) (A) (A) (A)
                 (A) (A) (A) (A) (A) (A) (A) (A) (A) (A) (A) (A)
                 (A) (A) (A) (A) (A) (A) (A) (A) (A) (A) (A) (A)
                 (A) (A) (A) (A) (A) (A) (A) (A) (A) (A) (A) (A)
                 (A) (A) (A) (A) (A) (A) (A) (A) (A) (A) (A) (A)
                 (A) (A) (A) (A) (A) (A) (A) (A) (A) (A) (A) (A)
                 (A) (A) (A) (A) (A) (A) (A) (A) (A) (A) (A) (A)
                 (A) (A) (A) (A) (A) (A) (A) (A) (A) (A) (A) (A)
                 (A) (A) (A) (A) (A) (A) (A) (A) (A) (A) (A) (A)
                 (A) (A) (A) (A) (A) (A) (A) (A) (A) (A) (A) (A)
                 (A) (A) (A) (A) (A) (A) (A) (A)
 The electronic state is 6-A.
 Alpha  occ. eigenvalues -- -256.54899 -89.13027 -30.37663 -26.19318 -26.19295
 Alpha  occ. eigenvalues --  -26.19270 -19.33589 -19.33043 -19.26420 -19.23600
 Alpha  occ. eigenvalues --  -14.54901 -14.49588 -14.48465 -14.48408 -14.48190
 Alpha  occ. eigenvalues --  -14.48047 -10.43403 -10.41467 -10.38570 -10.36314
 Alpha  occ. eigenvalues --  -10.36151 -10.36100 -10.36096 -10.35999 -10.35883
 Alpha  occ. eigenvalues --  -10.35837 -10.35806 -10.35540 -10.34363 -10.33684
 Alpha  occ. eigenvalues --  -10.33621 -10.33493 -10.33260 -10.33085 -10.32863
 Alpha  occ. eigenvalues --  -10.32796 -10.32657 -10.32548 -10.32519 -10.32491
 Alpha  occ. eigenvalues --  -10.32432 -10.32261 -10.32093 -10.32038 -10.31595
 Alpha  occ. eigenvalues --  -10.31264 -10.31002 -10.30547 -10.30472 -10.30432
 Alpha  occ. eigenvalues --  -10.30382 -10.30177 -10.30002 -10.29388 -10.29099
 Alpha  occ. eigenvalues --  -10.27149 -10.26676  -8.10989  -6.04600  -6.04329
 Alpha  occ. eigenvalues --   -6.03900  -3.80217  -2.56394  -2.56309  -2.56112
 Alpha  occ. eigenvalues --   -1.25521  -1.22743  -1.17033  -1.10949  -1.08557
 Alpha  occ. eigenvalues --   -1.08377  -1.07458  -1.06901  -1.05851  -1.01537
 Alpha  occ. eigenvalues --   -0.95264  -0.94977  -0.94791  -0.93614  -0.93138
 Alpha  occ. eigenvalues --   -0.92432  -0.91212  -0.91046  -0.90717  -0.88540
 Alpha  occ. eigenvalues --   -0.87725  -0.86980  -0.86579  -0.86026  -0.85395
 Alpha  occ. eigenvalues --   -0.83652  -0.82385  -0.82322  -0.81942  -0.81297
 Alpha  occ. eigenvalues --   -0.79481  -0.79345  -0.79011  -0.77000  -0.75900
 Alpha  occ. eigenvalues --   -0.75397  -0.75251  -0.74347  -0.73614  -0.72730
 Alpha  occ. eigenvalues --   -0.72614  -0.72562  -0.70327  -0.69346  -0.68365
 Alpha  occ. eigenvalues --   -0.66957  -0.66344  -0.65307  -0.65201  -0.64620
 Alpha  occ. eigenvalues --   -0.63118  -0.62691  -0.62509  -0.61934  -0.61367
 Alpha  occ. eigenvalues --   -0.60489  -0.60343  -0.59547  -0.59014  -0.58917
 Alpha  occ. eigenvalues --   -0.58720  -0.58567  -0.58472  -0.58306  -0.58231
 Alpha  occ. eigenvalues --   -0.58152  -0.57315  -0.56740  -0.56613  -0.56350
 Alpha  occ. eigenvalues --   -0.55885  -0.55857  -0.55590  -0.55351  -0.54517
 Alpha  occ. eigenvalues --   -0.54318  -0.54131  -0.53964  -0.53565  -0.53327
 Alpha  occ. eigenvalues --   -0.53178  -0.53066  -0.52973  -0.52753  -0.52508
 Alpha  occ. eigenvalues --   -0.52319  -0.52269  -0.52185  -0.51985  -0.51899
 Alpha  occ. eigenvalues --   -0.51541  -0.51294  -0.51022  -0.50712  -0.50645
 Alpha  occ. eigenvalues --   -0.50404  -0.50270  -0.50114  -0.49847  -0.49802
 Alpha  occ. eigenvalues --   -0.49288  -0.49084  -0.48852  -0.48513  -0.48211
 Alpha  occ. eigenvalues --   -0.47758  -0.47366  -0.47294  -0.46862  -0.46569
 Alpha  occ. eigenvalues --   -0.46333  -0.45778  -0.45561  -0.45464  -0.44827
 Alpha  occ. eigenvalues --   -0.44627  -0.44480  -0.43974  -0.43943  -0.43171
 Alpha  occ. eigenvalues --   -0.42959  -0.42686  -0.42573  -0.42532  -0.41965
 Alpha  occ. eigenvalues --   -0.41786  -0.41394  -0.41107  -0.39149  -0.38401
 Alpha  occ. eigenvalues --   -0.38354  -0.37961  -0.36195  -0.35105  -0.34819
 Alpha  occ. eigenvalues --   -0.34347  -0.33957  -0.33699  -0.33487  -0.33246
 Alpha  occ. eigenvalues --   -0.33094  -0.29805  -0.29390
 Alpha virt. eigenvalues --   -0.18106  -0.17755  -0.11402  -0.10230  -0.07979
 Alpha virt. eigenvalues --   -0.07765  -0.07226  -0.06179  -0.06085  -0.05431
 Alpha virt. eigenvalues --   -0.05385  -0.04604  -0.04478  -0.04185  -0.04034
 Alpha virt. eigenvalues --   -0.03874  -0.03503  -0.02840  -0.02743  -0.02482
 Alpha virt. eigenvalues --   -0.02307  -0.02156  -0.01652  -0.01414  -0.00922
 Alpha virt. eigenvalues --   -0.00438  -0.00329  -0.00091   0.00373   0.00501
 Alpha virt. eigenvalues --    0.00890   0.01094   0.01116   0.01347   0.01790
 Alpha virt. eigenvalues --    0.02001   0.02096   0.02390   0.02532   0.02618
 Alpha virt. eigenvalues --    0.02799   0.03089   0.03377   0.03461   0.03524
 Alpha virt. eigenvalues --    0.04086   0.04165   0.04593   0.05057   0.05235
 Alpha virt. eigenvalues --    0.05319   0.05449   0.05486   0.05580   0.05726
 Alpha virt. eigenvalues --    0.05910   0.06011   0.06146   0.06212   0.06421
 Alpha virt. eigenvalues --    0.06547   0.06693   0.06774   0.07118   0.07286
 Alpha virt. eigenvalues --    0.07488   0.07835   0.08108   0.08353   0.08564
 Alpha virt. eigenvalues --    0.08970   0.09038   0.09273   0.09478   0.09625
 Alpha virt. eigenvalues --    0.09905   0.10178   0.10744   0.10824   0.10961
 Alpha virt. eigenvalues --    0.11038   0.11235   0.11439   0.11586   0.11768
 Alpha virt. eigenvalues --    0.11951   0.12087   0.12429   0.12498   0.12655
 Alpha virt. eigenvalues --    0.12875   0.13040   0.13305   0.13417   0.13614
 Alpha virt. eigenvalues --    0.13637   0.13934   0.14113   0.14371   0.14633
 Alpha virt. eigenvalues --    0.14903   0.15022   0.15122   0.15181   0.15556
 Alpha virt. eigenvalues --    0.15696   0.15976   0.15994   0.16278   0.16694
 Alpha virt. eigenvalues --    0.16790   0.17035   0.17197   0.17462   0.17641
 Alpha virt. eigenvalues --    0.17956   0.18049   0.18422   0.18485   0.18553
 Alpha virt. eigenvalues --    0.18775   0.18853   0.19179   0.19570   0.19647
 Alpha virt. eigenvalues --    0.19841   0.20081   0.20310   0.20389   0.20652
 Alpha virt. eigenvalues --    0.20922   0.21080   0.21338   0.21580   0.21690
 Alpha virt. eigenvalues --    0.21912   0.22274   0.22461   0.22773   0.23030
 Alpha virt. eigenvalues --    0.23124   0.23433   0.23535   0.24007   0.24086
 Alpha virt. eigenvalues --    0.24488   0.24835   0.24998   0.25310   0.25463
 Alpha virt. eigenvalues --    0.25675   0.25814   0.25972   0.26263   0.26407
 Alpha virt. eigenvalues --    0.26785   0.26979   0.27304   0.27436   0.27758
 Alpha virt. eigenvalues --    0.27870   0.28215   0.28405   0.28730   0.28878
 Alpha virt. eigenvalues --    0.28971   0.29377   0.29525   0.29624   0.29798
 Alpha virt. eigenvalues --    0.30094   0.30232   0.30366   0.30598   0.30832
 Alpha virt. eigenvalues --    0.30938   0.31040   0.31173   0.31414   0.31511
 Alpha virt. eigenvalues --    0.31767   0.31966   0.32151   0.32411   0.32714
 Alpha virt. eigenvalues --    0.32892   0.32932   0.33190   0.33414   0.33597
 Alpha virt. eigenvalues --    0.33621   0.33776   0.33959   0.34122   0.34432
 Alpha virt. eigenvalues --    0.34669   0.34812   0.34968   0.35089   0.35384
 Alpha virt. eigenvalues --    0.35572   0.35797   0.35904   0.36166   0.36241
 Alpha virt. eigenvalues --    0.36349   0.36527   0.36631   0.36737   0.36772
 Alpha virt. eigenvalues --    0.36944   0.37095   0.37436   0.37561   0.37680
 Alpha virt. eigenvalues --    0.38002   0.38132   0.38252   0.38355   0.38598
 Alpha virt. eigenvalues --    0.38789   0.38957   0.39146   0.39282   0.39435
 Alpha virt. eigenvalues --    0.39552   0.39606   0.39776   0.40167   0.40232
 Alpha virt. eigenvalues --    0.40384   0.40647   0.40844   0.40860   0.41035
 Alpha virt. eigenvalues --    0.41200   0.41432   0.41725   0.41750   0.41889
 Alpha virt. eigenvalues --    0.42236   0.42354   0.42504   0.42576   0.42785
 Alpha virt. eigenvalues --    0.42928   0.43236   0.43448   0.43659   0.43707
 Alpha virt. eigenvalues --    0.43940   0.44063   0.44385   0.44568   0.44666
 Alpha virt. eigenvalues --    0.44945   0.45155   0.45317   0.45614   0.45800
 Alpha virt. eigenvalues --    0.45929   0.45952   0.46138   0.46360   0.46521
 Alpha virt. eigenvalues --    0.46756   0.47061   0.47277   0.47461   0.47620
 Alpha virt. eigenvalues --    0.47651   0.47920   0.48080   0.48308   0.48392
 Alpha virt. eigenvalues --    0.48705   0.48747   0.49356   0.49435   0.49685
 Alpha virt. eigenvalues --    0.49880   0.50058   0.50204   0.50332   0.50467
 Alpha virt. eigenvalues --    0.50845   0.50978   0.51331   0.51450   0.51593
 Alpha virt. eigenvalues --    0.51669   0.51970   0.52266   0.52483   0.52672
 Alpha virt. eigenvalues --    0.52821   0.53551   0.53720   0.54014   0.54049
 Alpha virt. eigenvalues --    0.54228   0.54662   0.54925   0.55103   0.55255
 Alpha virt. eigenvalues --    0.55562   0.55663   0.56052   0.56538   0.56698
 Alpha virt. eigenvalues --    0.56925   0.57216   0.57523   0.57897   0.58177
 Alpha virt. eigenvalues --    0.58574   0.58640   0.58950   0.59313   0.59488
 Alpha virt. eigenvalues --    0.59783   0.59854   0.60271   0.60564   0.60760
 Alpha virt. eigenvalues --    0.60843   0.61159   0.61310   0.61481   0.61979
 Alpha virt. eigenvalues --    0.62067   0.62560   0.62807   0.62994   0.63167
 Alpha virt. eigenvalues --    0.63323   0.63590   0.64011   0.64139   0.64235
 Alpha virt. eigenvalues --    0.64648   0.64896   0.65052   0.65264   0.65595
 Alpha virt. eigenvalues --    0.65912   0.66259   0.66610   0.66718   0.67060
 Alpha virt. eigenvalues --    0.67359   0.67489   0.67854   0.68138   0.68478
 Alpha virt. eigenvalues --    0.68593   0.68920   0.69335   0.69555   0.69822
 Alpha virt. eigenvalues --    0.70024   0.70197   0.70849   0.71111   0.71442
 Alpha virt. eigenvalues --    0.71641   0.71819   0.72065   0.72269   0.72493
 Alpha virt. eigenvalues --    0.73376   0.73555   0.73848   0.74143   0.74269
 Alpha virt. eigenvalues --    0.74544   0.74748   0.75154   0.75464   0.75707
 Alpha virt. eigenvalues --    0.76156   0.76426   0.76697   0.76881   0.77107
 Alpha virt. eigenvalues --    0.77500   0.77687   0.77804   0.78257   0.78350
 Alpha virt. eigenvalues --    0.78747   0.78796   0.79141   0.79436   0.79798
 Alpha virt. eigenvalues --    0.80132   0.80180   0.80640   0.80795   0.81228
 Alpha virt. eigenvalues --    0.81656   0.81736   0.82018   0.82428   0.82798
 Alpha virt. eigenvalues --    0.82857   0.83193   0.83448   0.83579   0.83772
 Alpha virt. eigenvalues --    0.83941   0.84288   0.84691   0.84953   0.85298
 Alpha virt. eigenvalues --    0.85405   0.85745   0.85964   0.86329   0.86549
 Alpha virt. eigenvalues --    0.86897   0.87039   0.87080   0.87608   0.87740
 Alpha virt. eigenvalues --    0.88052   0.88529   0.88607   0.88908   0.89173
 Alpha virt. eigenvalues --    0.89344   0.89746   0.89950   0.90195   0.90786
 Alpha virt. eigenvalues --    0.90902   0.91329   0.91342   0.91777   0.91873
 Alpha virt. eigenvalues --    0.92052   0.92630   0.92786   0.93124   0.93288
 Alpha virt. eigenvalues --    0.93417   0.93694   0.93870   0.94080   0.94416
 Alpha virt. eigenvalues --    0.94794   0.95008   0.95166   0.95384   0.95604
 Alpha virt. eigenvalues --    0.96123   0.96785   0.97229   0.97409   0.97588
 Alpha virt. eigenvalues --    0.97922   0.98237   0.98753   0.99011   0.99115
 Alpha virt. eigenvalues --    0.99502   0.99552   0.99748   1.00322   1.00600
 Alpha virt. eigenvalues --    1.00947   1.01199   1.01407   1.02135   1.02249
 Alpha virt. eigenvalues --    1.02596   1.02643   1.03032   1.03225   1.03548
 Alpha virt. eigenvalues --    1.03965   1.03983   1.04209   1.04680   1.04993
 Alpha virt. eigenvalues --    1.05623   1.05694   1.05869   1.06494   1.06644
 Alpha virt. eigenvalues --    1.07024   1.07481   1.07761   1.07929   1.08137
 Alpha virt. eigenvalues --    1.08887   1.09453   1.09592   1.10040   1.10520
 Alpha virt. eigenvalues --    1.10751   1.10989   1.11206   1.11392   1.11671
 Alpha virt. eigenvalues --    1.11998   1.12211   1.12545   1.13002   1.13261
 Alpha virt. eigenvalues --    1.13527   1.13772   1.14218   1.14629   1.14853
 Alpha virt. eigenvalues --    1.14949   1.15359   1.15519   1.15683   1.16437
 Alpha virt. eigenvalues --    1.16835   1.16942   1.17327   1.17511   1.17820
 Alpha virt. eigenvalues --    1.18328   1.18647   1.19043   1.19179   1.19271
 Alpha virt. eigenvalues --    1.19692   1.19912   1.20350   1.20492   1.20856
 Alpha virt. eigenvalues --    1.21002   1.21561   1.22583   1.23031   1.23358
 Alpha virt. eigenvalues --    1.23719   1.23756   1.24072   1.24788   1.24973
 Alpha virt. eigenvalues --    1.25211   1.25892   1.26107   1.26616   1.26775
 Alpha virt. eigenvalues --    1.27014   1.27564   1.27698   1.28143   1.28438
 Alpha virt. eigenvalues --    1.28547   1.29051   1.29353   1.29853   1.30022
 Alpha virt. eigenvalues --    1.30443   1.31036   1.31831   1.32146   1.32409
 Alpha virt. eigenvalues --    1.32882   1.33296   1.33428   1.33909   1.35077
 Alpha virt. eigenvalues --    1.35162   1.35449   1.35713   1.36311   1.36584
 Alpha virt. eigenvalues --    1.36836   1.37043   1.37876   1.38232   1.38613
 Alpha virt. eigenvalues --    1.38851   1.39010   1.39594   1.39885   1.40160
 Alpha virt. eigenvalues --    1.40266   1.40638   1.40978   1.41219   1.41348
 Alpha virt. eigenvalues --    1.41626   1.41967   1.42425   1.42672   1.42994
 Alpha virt. eigenvalues --    1.43268   1.43357   1.43586   1.43735   1.44062
 Alpha virt. eigenvalues --    1.44125   1.44587   1.44825   1.45168   1.45461
 Alpha virt. eigenvalues --    1.45543   1.45894   1.46016   1.46313   1.46684
 Alpha virt. eigenvalues --    1.46710   1.46986   1.47367   1.47653   1.48209
 Alpha virt. eigenvalues --    1.48272   1.48691   1.48994   1.49130   1.49411
 Alpha virt. eigenvalues --    1.49682   1.50123   1.50272   1.50735   1.50801
 Alpha virt. eigenvalues --    1.51043   1.51487   1.51530   1.51622   1.51821
 Alpha virt. eigenvalues --    1.52106   1.52688   1.52845   1.53193   1.53394
 Alpha virt. eigenvalues --    1.53803   1.53867   1.53958   1.54423   1.54674
 Alpha virt. eigenvalues --    1.54834   1.55048   1.55393   1.55531   1.55786
 Alpha virt. eigenvalues --    1.56030   1.56033   1.56459   1.56565   1.56808
 Alpha virt. eigenvalues --    1.57116   1.57317   1.57665   1.57904   1.57992
 Alpha virt. eigenvalues --    1.58357   1.58424   1.58859   1.59059   1.59236
 Alpha virt. eigenvalues --    1.59767   1.60007   1.60291   1.60584   1.60812
 Alpha virt. eigenvalues --    1.60948   1.61126   1.61353   1.61493   1.61726
 Alpha virt. eigenvalues --    1.61990   1.62156   1.62653   1.62773   1.62990
 Alpha virt. eigenvalues --    1.63136   1.63570   1.64180   1.64406   1.64476
 Alpha virt. eigenvalues --    1.65087   1.65335   1.65633   1.65713   1.65860
 Alpha virt. eigenvalues --    1.66284   1.66631   1.67064   1.67241   1.67897
 Alpha virt. eigenvalues --    1.68248   1.68338   1.68718   1.69613   1.70005
 Alpha virt. eigenvalues --    1.70211   1.70517   1.71156   1.71217   1.71717
 Alpha virt. eigenvalues --    1.71976   1.72858   1.73046   1.73113   1.73885
 Alpha virt. eigenvalues --    1.74090   1.74341   1.74524   1.75209   1.75375
 Alpha virt. eigenvalues --    1.75460   1.76026   1.76263   1.76443   1.76585
 Alpha virt. eigenvalues --    1.77408   1.77635   1.77666   1.78015   1.78181
 Alpha virt. eigenvalues --    1.78365   1.78892   1.79461   1.79797   1.80107
 Alpha virt. eigenvalues --    1.80580   1.80761   1.81076   1.81216   1.81758
 Alpha virt. eigenvalues --    1.81964   1.82252   1.82662   1.82789   1.83445
 Alpha virt. eigenvalues --    1.83562   1.83957   1.84454   1.84562   1.84729
 Alpha virt. eigenvalues --    1.85080   1.85435   1.85626   1.86491   1.86567
 Alpha virt. eigenvalues --    1.86818   1.87426   1.87609   1.87869   1.88209
 Alpha virt. eigenvalues --    1.88394   1.88833   1.89063   1.89472   1.89874
 Alpha virt. eigenvalues --    1.90257   1.90596   1.90983   1.91043   1.91482
 Alpha virt. eigenvalues --    1.91987   1.92182   1.92299   1.92418   1.92799
 Alpha virt. eigenvalues --    1.93028   1.93232   1.94138   1.94616   1.94739
 Alpha virt. eigenvalues --    1.95195   1.95740   1.95809   1.96262   1.96389
 Alpha virt. eigenvalues --    1.97076   1.97826   1.97911   1.98102   1.98664
 Alpha virt. eigenvalues --    1.99048   1.99282   1.99648   2.00232   2.00429
 Alpha virt. eigenvalues --    2.00777   2.00955   2.01459   2.01716   2.02030
 Alpha virt. eigenvalues --    2.02495   2.02877   2.03315   2.03535   2.03928
 Alpha virt. eigenvalues --    2.04461   2.04565   2.05049   2.05164   2.05464
 Alpha virt. eigenvalues --    2.05701   2.05978   2.06122   2.06565   2.06658
 Alpha virt. eigenvalues --    2.07583   2.07939   2.08029   2.08158   2.08436
 Alpha virt. eigenvalues --    2.08932   2.09340   2.09885   2.10009   2.10689
 Alpha virt. eigenvalues --    2.11071   2.11202   2.11743   2.12092   2.12383
 Alpha virt. eigenvalues --    2.12517   2.13349   2.13623   2.13995   2.14328
 Alpha virt. eigenvalues --    2.14772   2.14823   2.15336   2.15705   2.16139
 Alpha virt. eigenvalues --    2.16317   2.16634   2.16794   2.17455   2.17964
 Alpha virt. eigenvalues --    2.18288   2.18441   2.18841   2.19307   2.19367
 Alpha virt. eigenvalues --    2.19665   2.19900   2.20339   2.20698   2.21231
 Alpha virt. eigenvalues --    2.21652   2.21936   2.22318   2.22669   2.23014
 Alpha virt. eigenvalues --    2.23183   2.23774   2.24022   2.24277   2.24528
 Alpha virt. eigenvalues --    2.24916   2.25190   2.25676   2.25832   2.26029
 Alpha virt. eigenvalues --    2.26360   2.26806   2.26917   2.27322   2.28313
 Alpha virt. eigenvalues --    2.28466   2.29078   2.29313   2.29411   2.29756
 Alpha virt. eigenvalues --    2.30467   2.30862   2.31179   2.31614   2.32021
 Alpha virt. eigenvalues --    2.32064   2.32309   2.32498   2.32822   2.33076
 Alpha virt. eigenvalues --    2.33396   2.33700   2.33915   2.34148   2.34641
 Alpha virt. eigenvalues --    2.35038   2.35427   2.35967   2.36096   2.36516
 Alpha virt. eigenvalues --    2.36751   2.36835   2.37234   2.37358   2.37644
 Alpha virt. eigenvalues --    2.38232   2.38683   2.38832   2.39697   2.40044
 Alpha virt. eigenvalues --    2.40223   2.40679   2.41011   2.41255   2.41475
 Alpha virt. eigenvalues --    2.41765   2.42110   2.42715   2.43051   2.43326
 Alpha virt. eigenvalues --    2.43771   2.43945   2.44102   2.44338   2.44791
 Alpha virt. eigenvalues --    2.45474   2.45723   2.45767   2.46357   2.46378
 Alpha virt. eigenvalues --    2.47116   2.47678   2.47836   2.48002   2.48111
 Alpha virt. eigenvalues --    2.48734   2.48871   2.49108   2.49608   2.49891
 Alpha virt. eigenvalues --    2.50336   2.50496   2.50865   2.51114   2.51217
 Alpha virt. eigenvalues --    2.51573   2.51818   2.51967   2.52183   2.52466
 Alpha virt. eigenvalues --    2.52785   2.52895   2.53223   2.53469   2.53720
 Alpha virt. eigenvalues --    2.54282   2.54594   2.55078   2.55200   2.55266
 Alpha virt. eigenvalues --    2.55785   2.56200   2.56589   2.56667   2.56767
 Alpha virt. eigenvalues --    2.57353   2.57592   2.57749   2.58059   2.58322
 Alpha virt. eigenvalues --    2.58359   2.58488   2.58660   2.59217   2.59451
 Alpha virt. eigenvalues --    2.59954   2.60290   2.60375   2.60987   2.61087
 Alpha virt. eigenvalues --    2.61429   2.61697   2.61924   2.62394   2.62683
 Alpha virt. eigenvalues --    2.62797   2.63053   2.63365   2.63726   2.64100
 Alpha virt. eigenvalues --    2.64419   2.64658   2.64766   2.65414   2.65694
 Alpha virt. eigenvalues --    2.66004   2.66597   2.66937   2.66952   2.67217
 Alpha virt. eigenvalues --    2.67351   2.67913   2.68506   2.68758   2.68940
 Alpha virt. eigenvalues --    2.69338   2.69740   2.69865   2.70206   2.70569
 Alpha virt. eigenvalues --    2.70823   2.71057   2.71637   2.71824   2.72309
 Alpha virt. eigenvalues --    2.72489   2.72636   2.73075   2.73393   2.73703
 Alpha virt. eigenvalues --    2.73828   2.74012   2.74947   2.75160   2.75567
 Alpha virt. eigenvalues --    2.75616   2.76230   2.76346   2.76752   2.77167
 Alpha virt. eigenvalues --    2.77411   2.77740   2.78193   2.78539   2.78750
 Alpha virt. eigenvalues --    2.79103   2.79423   2.79732   2.79854   2.80349
 Alpha virt. eigenvalues --    2.80656   2.81183   2.81654   2.81744   2.82057
 Alpha virt. eigenvalues --    2.82498   2.82995   2.83111   2.83205   2.83758
 Alpha virt. eigenvalues --    2.84437   2.84484   2.84805   2.85163   2.85316
 Alpha virt. eigenvalues --    2.85674   2.85757   2.86216   2.86601   2.87065
 Alpha virt. eigenvalues --    2.87307   2.87510   2.87763   2.88132   2.88443
 Alpha virt. eigenvalues --    2.88599   2.88835   2.89269   2.89623   2.89939
 Alpha virt. eigenvalues --    2.90288   2.90445   2.90641   2.90976   2.91292
 Alpha virt. eigenvalues --    2.91836   2.92116   2.92277   2.92443   2.92899
 Alpha virt. eigenvalues --    2.93123   2.93456   2.93760   2.93958   2.94746
 Alpha virt. eigenvalues --    2.95013   2.95074   2.95722   2.95802   2.96009
 Alpha virt. eigenvalues --    2.96101   2.96306   2.96667   2.97453   2.97572
 Alpha virt. eigenvalues --    2.97682   2.98001   2.98256   2.98500   2.98680
 Alpha virt. eigenvalues --    2.99025   2.99385   2.99778   3.00052   3.00086
 Alpha virt. eigenvalues --    3.00229   3.00679   3.00917   3.01156   3.01270
 Alpha virt. eigenvalues --    3.01503   3.01894   3.01936   3.02612   3.02843
 Alpha virt. eigenvalues --    3.03016   3.03150   3.03818   3.04189   3.04585
 Alpha virt. eigenvalues --    3.04850   3.04996   3.05394   3.05481   3.05660
 Alpha virt. eigenvalues --    3.05905   3.06477   3.06823   3.07176   3.07505
 Alpha virt. eigenvalues --    3.07622   3.07799   3.08058   3.08180   3.08692
 Alpha virt. eigenvalues --    3.09041   3.09281   3.09357   3.09746   3.09888
 Alpha virt. eigenvalues --    3.10213   3.10864   3.10978   3.11099   3.11303
 Alpha virt. eigenvalues --    3.11762   3.11965   3.12127   3.12455   3.12618
 Alpha virt. eigenvalues --    3.12789   3.13206   3.13650   3.14033   3.14332
 Alpha virt. eigenvalues --    3.14531   3.14713   3.14868   3.15141   3.15178
 Alpha virt. eigenvalues --    3.15466   3.15765   3.16057   3.16283   3.16486
 Alpha virt. eigenvalues --    3.16575   3.16857   3.17301   3.17452   3.17813
 Alpha virt. eigenvalues --    3.17906   3.18220   3.18417   3.18749   3.18892
 Alpha virt. eigenvalues --    3.19054   3.19386   3.19674   3.19814   3.20028
 Alpha virt. eigenvalues --    3.20144   3.20159   3.20543   3.20665   3.21309
 Alpha virt. eigenvalues --    3.21659   3.21682   3.22167   3.22418   3.22719
 Alpha virt. eigenvalues --    3.22866   3.23178   3.23542   3.23637   3.23769
 Alpha virt. eigenvalues --    3.23928   3.24390   3.24533   3.25094   3.25371
 Alpha virt. eigenvalues --    3.25657   3.25810   3.25947   3.26342   3.26436
 Alpha virt. eigenvalues --    3.26732   3.26926   3.27195   3.27316   3.27482
 Alpha virt. eigenvalues --    3.27651   3.28054   3.28274   3.28451   3.28563
 Alpha virt. eigenvalues --    3.28789   3.28985   3.29347   3.29644   3.29947
 Alpha virt. eigenvalues --    3.30592   3.30794   3.31093   3.31263   3.31368
 Alpha virt. eigenvalues --    3.31664   3.31917   3.32130   3.32401   3.32458
 Alpha virt. eigenvalues --    3.33005   3.33291   3.33550   3.33922   3.34179
 Alpha virt. eigenvalues --    3.34541   3.34686   3.35192   3.35265   3.35465
 Alpha virt. eigenvalues --    3.35634   3.35826   3.36288   3.36446   3.36693
 Alpha virt. eigenvalues --    3.37213   3.37450   3.37679   3.37939   3.38074
 Alpha virt. eigenvalues --    3.38303   3.38657   3.39039   3.39133   3.39390
 Alpha virt. eigenvalues --    3.39745   3.40081   3.40309   3.40623   3.40931
 Alpha virt. eigenvalues --    3.41354   3.41532   3.41871   3.42056   3.42566
 Alpha virt. eigenvalues --    3.42705   3.42775   3.43455   3.43961   3.44101
 Alpha virt. eigenvalues --    3.44489   3.44821   3.45076   3.45388   3.45655
 Alpha virt. eigenvalues --    3.46073   3.46359   3.46515   3.47287   3.47463
 Alpha virt. eigenvalues --    3.47481   3.48022   3.48503   3.48850   3.49430
 Alpha virt. eigenvalues --    3.49479   3.49681   3.50105   3.50588   3.50997
 Alpha virt. eigenvalues --    3.51576   3.51751   3.52364   3.52593   3.52842
 Alpha virt. eigenvalues --    3.53153   3.53261   3.53636   3.53919   3.54026
 Alpha virt. eigenvalues --    3.54625   3.54695   3.55132   3.55341   3.55383
 Alpha virt. eigenvalues --    3.56094   3.56510   3.57052   3.57661   3.57818
 Alpha virt. eigenvalues --    3.57938   3.58149   3.58547   3.59125   3.59184
 Alpha virt. eigenvalues --    3.59534   3.59937   3.60512   3.61092   3.61249
 Alpha virt. eigenvalues --    3.61784   3.62001   3.62155   3.62733   3.63150
 Alpha virt. eigenvalues --    3.63375   3.63830   3.64426   3.64534   3.65096
 Alpha virt. eigenvalues --    3.65356   3.65695   3.66138   3.66414   3.66939
 Alpha virt. eigenvalues --    3.67122   3.67204   3.67631   3.68143   3.68454
 Alpha virt. eigenvalues --    3.68765   3.69006   3.69472   3.69881   3.70431
 Alpha virt. eigenvalues --    3.71205   3.71559   3.72368   3.72574   3.73023
 Alpha virt. eigenvalues --    3.73521   3.73908   3.73916   3.74434   3.74979
 Alpha virt. eigenvalues --    3.75601   3.76042   3.76472   3.76492   3.76819
 Alpha virt. eigenvalues --    3.77424   3.78016   3.78238   3.78646   3.79257
 Alpha virt. eigenvalues --    3.79396   3.80153   3.80628   3.80900   3.80968
 Alpha virt. eigenvalues --    3.81584   3.81860   3.82031   3.82733   3.83214
 Alpha virt. eigenvalues --    3.83880   3.84136   3.84695   3.84886   3.85288
 Alpha virt. eigenvalues --    3.85873   3.86134   3.86400   3.86666   3.86865
 Alpha virt. eigenvalues --    3.87286   3.87696   3.87834   3.88629   3.89098
 Alpha virt. eigenvalues --    3.89268   3.89939   3.90128   3.90307   3.90984
 Alpha virt. eigenvalues --    3.91095   3.91880   3.92177   3.92544   3.92782
 Alpha virt. eigenvalues --    3.93742   3.93854   3.94025   3.94994   3.95789
 Alpha virt. eigenvalues --    3.96484   3.96717   3.97293   3.97828   3.98554
 Alpha virt. eigenvalues --    3.99165   3.99578   4.00180   4.00994   4.01455
 Alpha virt. eigenvalues --    4.01690   4.01930   4.02525   4.03029   4.03052
 Alpha virt. eigenvalues --    4.04102   4.04462   4.04835   4.04982   4.05681
 Alpha virt. eigenvalues --    4.05983   4.06881   4.07605   4.08176   4.09101
 Alpha virt. eigenvalues --    4.09425   4.09626   4.10366   4.10592   4.11079
 Alpha virt. eigenvalues --    4.11566   4.12111   4.12591   4.12828   4.13553
 Alpha virt. eigenvalues --    4.14069   4.14257   4.14851   4.14996   4.15167
 Alpha virt. eigenvalues --    4.15872   4.16103   4.16563   4.17074   4.17674
 Alpha virt. eigenvalues --    4.18172   4.18729   4.19328   4.19960   4.20570
 Alpha virt. eigenvalues --    4.20883   4.21409   4.22039   4.22404   4.22872
 Alpha virt. eigenvalues --    4.23016   4.23883   4.24287   4.25477   4.25860
 Alpha virt. eigenvalues --    4.26085   4.26325   4.27301   4.27987   4.28517
 Alpha virt. eigenvalues --    4.29023   4.29283   4.29367   4.30097   4.30399
 Alpha virt. eigenvalues --    4.30706   4.31335   4.31541   4.31975   4.32339
 Alpha virt. eigenvalues --    4.32759   4.33244   4.33400   4.34089   4.34482
 Alpha virt. eigenvalues --    4.35294   4.35507   4.36250   4.36400   4.37080
 Alpha virt. eigenvalues --    4.37471   4.37793   4.38375   4.38678   4.39775
 Alpha virt. eigenvalues --    4.40630   4.41338   4.41870   4.43094   4.43865
 Alpha virt. eigenvalues --    4.44994   4.45731   4.46114   4.46437   4.46900
 Alpha virt. eigenvalues --    4.47108   4.48333   4.48850   4.50134   4.51289
 Alpha virt. eigenvalues --    4.51446   4.52085   4.52139   4.52594   4.52723
 Alpha virt. eigenvalues --    4.53948   4.54329   4.55137   4.55919   4.56309
 Alpha virt. eigenvalues --    4.56553   4.57320   4.57725   4.58527   4.58985
 Alpha virt. eigenvalues --    4.59333   4.59541   4.60214   4.60534   4.61241
 Alpha virt. eigenvalues --    4.61569   4.62039   4.62489   4.63428   4.63538
 Alpha virt. eigenvalues --    4.64555   4.65158   4.65828   4.66480   4.66531
 Alpha virt. eigenvalues --    4.68075   4.68413   4.69339   4.69803   4.70266
 Alpha virt. eigenvalues --    4.71631   4.72445   4.72972   4.73299   4.73662
 Alpha virt. eigenvalues --    4.74573   4.75084   4.76441   4.77103   4.77273
 Alpha virt. eigenvalues --    4.77748   4.78377   4.79043   4.79900   4.80259
 Alpha virt. eigenvalues --    4.80539   4.81766   4.81894   4.82361   4.82421
 Alpha virt. eigenvalues --    4.82862   4.83239   4.83901   4.84185   4.85340
 Alpha virt. eigenvalues --    4.85389   4.86931   4.87310   4.87647   4.87969
 Alpha virt. eigenvalues --    4.88733   4.89491   4.91301   4.91717   4.92832
 Alpha virt. eigenvalues --    4.92919   4.94273   4.95612   4.97192   4.99694
 Alpha virt. eigenvalues --    5.00281   5.01324   5.02170   5.02468   5.04904
 Alpha virt. eigenvalues --    5.06240   5.06681   5.08564   5.08741   5.09862
 Alpha virt. eigenvalues --    5.10127   5.11538   5.11780   5.12226   5.12492
 Alpha virt. eigenvalues --    5.12861   5.13664   5.15210   5.15807   5.16035
 Alpha virt. eigenvalues --    5.16303   5.16872   5.17201   5.17750   5.18967
 Alpha virt. eigenvalues --    5.20794   5.21930   5.22127   5.23660   5.24115
 Alpha virt. eigenvalues --    5.24323   5.24872   5.25069   5.27806   5.28268
 Alpha virt. eigenvalues --    5.29406   5.31312   5.32093   5.32377   5.33075
 Alpha virt. eigenvalues --    5.33158   5.33563   5.34489   5.35256   5.35911
 Alpha virt. eigenvalues --    5.36756   5.37279   5.38887   5.40921   5.43510
 Alpha virt. eigenvalues --    5.44872   5.45668   5.46369   5.47951   5.49844
 Alpha virt. eigenvalues --    5.51328   5.52192   5.52353   5.52847   5.53178
 Alpha virt. eigenvalues --    5.53943   5.55152   5.56989   5.57312   5.57624
 Alpha virt. eigenvalues --    5.62328   5.64268   5.66695   5.68351   5.69298
 Alpha virt. eigenvalues --    5.72341   5.73308   5.73692   5.78542   5.80883
 Alpha virt. eigenvalues --    5.82043   5.83953   5.84155   5.85966   5.87740
 Alpha virt. eigenvalues --    5.88605   5.89134   5.89419   5.93188   5.94310
 Alpha virt. eigenvalues --    5.96138   5.97827   5.98587   5.99172   6.01224
 Alpha virt. eigenvalues --    6.02965   6.07477   6.07921   6.09668   6.10771
 Alpha virt. eigenvalues --    6.14894   6.15949   6.16525   6.18373   6.19792
 Alpha virt. eigenvalues --    6.26878   6.30933   6.31774   6.36849   6.37084
 Alpha virt. eigenvalues --    6.40580   6.40685   6.42078   6.48462   6.59321
 Alpha virt. eigenvalues --    6.67826   6.69573   6.70129   6.79936   6.80009
 Alpha virt. eigenvalues --    6.85332   6.88359   6.91571   7.01902   7.06079
 Alpha virt. eigenvalues --    7.07272   7.12658   7.13729   7.17981   7.22549
 Alpha virt. eigenvalues --    9.15828   9.39343   9.47941  20.04074  22.34203
 Alpha virt. eigenvalues --   22.40792  22.44859  22.45317  22.45685  22.45844
 Alpha virt. eigenvalues --   22.48834  22.49356  22.55980  22.59743  22.61260
 Alpha virt. eigenvalues --   22.61718  22.62864  22.66148  22.70580  22.76466
 Alpha virt. eigenvalues --   22.78904  22.80813  22.81685  22.85102  22.88321
 Alpha virt. eigenvalues --   22.90632  22.93486  22.97069  23.00851  23.05328
 Alpha virt. eigenvalues --   23.07607  23.10726  23.11463  23.18898  23.22759
 Alpha virt. eigenvalues --   23.24976  23.31373  23.36726  23.38809  23.48048
 Alpha virt. eigenvalues --   23.55931  23.57066  23.60063  23.63148  23.71807
 Alpha virt. eigenvalues --   32.38103  32.67269  32.83979  32.90909  32.96105
 Alpha virt. eigenvalues --   33.03432  43.86913  43.88984  43.93199  44.05937
  Beta  occ. eigenvalues -- -256.54752 -89.12921 -30.27899 -26.11155 -26.11066
  Beta  occ. eigenvalues --  -26.11041 -19.33589 -19.33042 -19.26420 -19.23600
  Beta  occ. eigenvalues --  -14.54890 -14.49294 -14.48174 -14.48111 -14.47890
  Beta  occ. eigenvalues --  -14.47744 -10.43403 -10.41467 -10.38563 -10.36283
  Beta  occ. eigenvalues --  -10.36121 -10.36085 -10.36068 -10.35973 -10.35852
  Beta  occ. eigenvalues --  -10.35813 -10.35783 -10.35518 -10.34367 -10.33683
  Beta  occ. eigenvalues --  -10.33588 -10.33457 -10.33233 -10.33100 -10.32836
  Beta  occ. eigenvalues --  -10.32761 -10.32658 -10.32519 -10.32492 -10.32453
  Beta  occ. eigenvalues --  -10.32445 -10.32265 -10.32099 -10.32036 -10.31592
  Beta  occ. eigenvalues --  -10.31263 -10.31000 -10.30546 -10.30464 -10.30429
  Beta  occ. eigenvalues --  -10.30381 -10.30176 -10.30001 -10.29387 -10.29098
  Beta  occ. eigenvalues --  -10.27148 -10.26675  -8.10881  -6.04527  -6.04198
  Beta  occ. eigenvalues --   -6.03668  -3.57004  -2.31542  -2.31259  -2.31220
  Beta  occ. eigenvalues --   -1.25520  -1.22742  -1.16897  -1.10948  -1.08379
  Beta  occ. eigenvalues --   -1.08181  -1.07086  -1.06549  -1.05490  -1.01248
  Beta  occ. eigenvalues --   -0.95076  -0.94831  -0.94691  -0.93541  -0.93015
  Beta  occ. eigenvalues --   -0.92274  -0.91172  -0.90948  -0.90655  -0.88448
  Beta  occ. eigenvalues --   -0.87619  -0.86880  -0.86457  -0.85923  -0.85344
  Beta  occ. eigenvalues --   -0.83542  -0.82310  -0.82244  -0.81831  -0.81198
  Beta  occ. eigenvalues --   -0.79367  -0.79195  -0.78932  -0.76919  -0.75824
  Beta  occ. eigenvalues --   -0.75327  -0.74975  -0.74279  -0.73550  -0.72649
  Beta  occ. eigenvalues --   -0.72533  -0.72491  -0.70072  -0.69138  -0.67943
  Beta  occ. eigenvalues --   -0.66813  -0.66243  -0.65131  -0.64998  -0.63975
  Beta  occ. eigenvalues --   -0.62789  -0.62339  -0.61972  -0.61223  -0.60448
  Beta  occ. eigenvalues --   -0.60197  -0.59823  -0.58844  -0.58771  -0.58544
  Beta  occ. eigenvalues --   -0.58484  -0.58372  -0.58126  -0.57946  -0.57769
  Beta  occ. eigenvalues --   -0.57230  -0.56596  -0.56163  -0.55448  -0.54501
  Beta  occ. eigenvalues --   -0.54427  -0.54003  -0.53981  -0.53667  -0.53375
  Beta  occ. eigenvalues --   -0.53263  -0.53141  -0.53006  -0.52865  -0.52528
  Beta  occ. eigenvalues --   -0.52510  -0.52371  -0.52214  -0.52104  -0.51957
  Beta  occ. eigenvalues --   -0.51822  -0.51693  -0.51350  -0.50953  -0.50759
  Beta  occ. eigenvalues --   -0.50689  -0.50354  -0.50246  -0.50113  -0.49834
  Beta  occ. eigenvalues --   -0.49203  -0.49014  -0.48765  -0.48366  -0.48182
  Beta  occ. eigenvalues --   -0.47921  -0.47547  -0.47215  -0.47070  -0.46690
  Beta  occ. eigenvalues --   -0.46559  -0.46371  -0.45677  -0.45311  -0.45281
  Beta  occ. eigenvalues --   -0.45129  -0.44593  -0.44477  -0.44205  -0.43583
  Beta  occ. eigenvalues --   -0.43178  -0.42945  -0.42619  -0.42571  -0.42525
  Beta  occ. eigenvalues --   -0.41935  -0.41865  -0.41599  -0.41349  -0.41020
  Beta  occ. eigenvalues --   -0.38400  -0.38389  -0.37943  -0.37010  -0.36192
  Beta  occ. eigenvalues --   -0.35139  -0.34807  -0.34301  -0.33645  -0.33557
  Beta  occ. eigenvalues --   -0.33162  -0.29619  -0.29242
  Beta virt. eigenvalues --   -0.20477  -0.20203  -0.18389  -0.16310  -0.15996
  Beta virt. eigenvalues --   -0.13577  -0.11303  -0.10532  -0.10167  -0.07693
  Beta virt. eigenvalues --   -0.07619  -0.06786  -0.06089  -0.05759  -0.05359
  Beta virt. eigenvalues --   -0.05255  -0.04536  -0.04230  -0.04073  -0.03930
  Beta virt. eigenvalues --   -0.03511  -0.03162  -0.02779  -0.02663  -0.02388
  Beta virt. eigenvalues --   -0.02247  -0.02062  -0.01619  -0.01401  -0.00853
  Beta virt. eigenvalues --   -0.00392  -0.00287  -0.00052   0.00473   0.00569
  Beta virt. eigenvalues --    0.00920   0.01164   0.01216   0.01425   0.01882
  Beta virt. eigenvalues --    0.02147   0.02282   0.02536   0.02602   0.02734
  Beta virt. eigenvalues --    0.02941   0.03133   0.03438   0.03543   0.03592
  Beta virt. eigenvalues --    0.04191   0.04327   0.04716   0.05106   0.05313
  Beta virt. eigenvalues --    0.05360   0.05489   0.05541   0.05672   0.05790
  Beta virt. eigenvalues --    0.05946   0.06108   0.06186   0.06250   0.06469
  Beta virt. eigenvalues --    0.06594   0.06738   0.06820   0.07194   0.07365
  Beta virt. eigenvalues --    0.07595   0.07948   0.08152   0.08444   0.08660
  Beta virt. eigenvalues --    0.09017   0.09116   0.09381   0.09589   0.09702
  Beta virt. eigenvalues --    0.09974   0.10233   0.10807   0.10973   0.11053
  Beta virt. eigenvalues --    0.11110   0.11296   0.11497   0.11690   0.11952
  Beta virt. eigenvalues --    0.12122   0.12350   0.12607   0.12656   0.12816
  Beta virt. eigenvalues --    0.13054   0.13182   0.13400   0.13483   0.13752
  Beta virt. eigenvalues --    0.13948   0.14144   0.14278   0.14475   0.14725
  Beta virt. eigenvalues --    0.15076   0.15156   0.15192   0.15438   0.15668
  Beta virt. eigenvalues --    0.15912   0.16097   0.16194   0.16349   0.16861
  Beta virt. eigenvalues --    0.16971   0.17180   0.17444   0.17633   0.17809
  Beta virt. eigenvalues --    0.18111   0.18249   0.18508   0.18561   0.18794
  Beta virt. eigenvalues --    0.18850   0.19048   0.19290   0.19615   0.19782
  Beta virt. eigenvalues --    0.20017   0.20281   0.20470   0.20499   0.20791
  Beta virt. eigenvalues --    0.21136   0.21182   0.21540   0.21673   0.21931
  Beta virt. eigenvalues --    0.22112   0.22580   0.22670   0.22877   0.23140
  Beta virt. eigenvalues --    0.23224   0.23549   0.23633   0.24159   0.24190
  Beta virt. eigenvalues --    0.24737   0.24940   0.25135   0.25525   0.25663
  Beta virt. eigenvalues --    0.25745   0.25939   0.26197   0.26367   0.26574
  Beta virt. eigenvalues --    0.26904   0.27200   0.27466   0.27838   0.27927
  Beta virt. eigenvalues --    0.27999   0.28335   0.28560   0.28841   0.28964
  Beta virt. eigenvalues --    0.29116   0.29550   0.29584   0.29850   0.29930
  Beta virt. eigenvalues --    0.30167   0.30303   0.30557   0.30811   0.30969
  Beta virt. eigenvalues --    0.31019   0.31172   0.31258   0.31504   0.31642
  Beta virt. eigenvalues --    0.31904   0.32110   0.32267   0.32591   0.32806
  Beta virt. eigenvalues --    0.32997   0.33098   0.33330   0.33511   0.33697
  Beta virt. eigenvalues --    0.33767   0.33884   0.34001   0.34229   0.34519
  Beta virt. eigenvalues --    0.34781   0.34892   0.35123   0.35166   0.35471
  Beta virt. eigenvalues --    0.35681   0.35873   0.35998   0.36286   0.36329
  Beta virt. eigenvalues --    0.36462   0.36632   0.36726   0.36859   0.36891
  Beta virt. eigenvalues --    0.37013   0.37188   0.37516   0.37600   0.37748
  Beta virt. eigenvalues --    0.38066   0.38187   0.38315   0.38417   0.38678
  Beta virt. eigenvalues --    0.38872   0.39020   0.39202   0.39364   0.39526
  Beta virt. eigenvalues --    0.39591   0.39677   0.39858   0.40253   0.40321
  Beta virt. eigenvalues --    0.40454   0.40741   0.40915   0.40960   0.41095
  Beta virt. eigenvalues --    0.41261   0.41483   0.41796   0.41873   0.41973
  Beta virt. eigenvalues --    0.42318   0.42405   0.42603   0.42649   0.42875
  Beta virt. eigenvalues --    0.43073   0.43319   0.43553   0.43757   0.43863
  Beta virt. eigenvalues --    0.44049   0.44165   0.44517   0.44687   0.44779
  Beta virt. eigenvalues --    0.45079   0.45260   0.45372   0.45656   0.45901
  Beta virt. eigenvalues --    0.46011   0.46086   0.46241   0.46465   0.46627
  Beta virt. eigenvalues --    0.46848   0.47167   0.47354   0.47517   0.47710
  Beta virt. eigenvalues --    0.47735   0.47995   0.48327   0.48403   0.48479
  Beta virt. eigenvalues --    0.48778   0.48937   0.49451   0.49510   0.49767
  Beta virt. eigenvalues --    0.49973   0.50241   0.50307   0.50436   0.50582
  Beta virt. eigenvalues --    0.50957   0.51061   0.51395   0.51504   0.51751
  Beta virt. eigenvalues --    0.51897   0.52104   0.52376   0.52648   0.52742
  Beta virt. eigenvalues --    0.52950   0.53696   0.53935   0.54154   0.54223
  Beta virt. eigenvalues --    0.54324   0.54850   0.55037   0.55200   0.55327
  Beta virt. eigenvalues --    0.55639   0.55759   0.56172   0.56623   0.56809
[...]
  1768. RY*(   5) H  90                  0.00001     2.87977   
  1769. RY*(   1) H  91                  0.00032     1.05013   
  1770. RY*(   2) H  91                  0.00008     1.45440   
  1771. RY*(   3) H  91                  0.00008     2.24327   
  1772. RY*(   4) H  91                  0.00004     2.14261   
  1773. RY*(   5) H  91                  0.00001     2.93994   
  1774. RY*(   1) H  92                  0.00024     1.28739   
  1775. RY*(   2) H  92                  0.00010     1.78713   
  1776. RY*(   3) H  92                  0.00002     2.53192   
  1777. RY*(   4) H  92                  0.00003     2.13966   
  1778. RY*(   5) H  92                  0.00001     2.04845   
  1779. RY*(   1) H  93                  0.00035     1.00808   
  1780. RY*(   2) H  93                  0.00008     1.78161   
  1781. RY*(   3) H  93                  0.00005     1.95898   
  1782. RY*(   4) H  93                  0.00003     1.93659   
  1783. RY*(   5) H  93                  0.00001     2.97266   
  1784. RY*(   1) H  94                  0.00102     0.60052   
  1785. RY*(   2) H  94                  0.00014     2.07900   
  1786. RY*(   3) H  94                  0.00013     2.16892   
  1787. RY*(   4) H  94                  0.00005     2.97876   
  1788. RY*(   5) H  94                  0.00001     3.15745   
  1789. RY*(   1) H  95                  0.00028     1.03098   
  1790. RY*(   2) H  95                  0.00009     1.70357   
  1791. RY*(   3) H  95                  0.00003     1.98723   
  1792. RY*(   4) H  95                  0.00003     1.92086   
  1793. RY*(   5) H  95                  0.00000     2.86809   
  1794. RY*(   1) H  96                  0.00037     0.94292   
  1795. RY*(   2) H  96                  0.00007     2.04104   
  1796. RY*(   3) H  96                  0.00005     1.75366   
  1797. RY*(   4) H  96                  0.00003     1.99963   
  1798. RY*(   5) H  96                  0.00000     2.97422   
  1799. RY*(   1) H  97                  0.00035     1.05002   
  1800. RY*(   2) H  97                  0.00009     1.60704   
  1801. RY*(   3) H  97                  0.00003     2.03924   
  1802. RY*(   4) H  97                  0.00002     2.07561   
  1803. RY*(   5) H  97                  0.00001     2.75316   
  1804. RY*(   1) H  98                  0.00076     0.71198   
  1805. RY*(   2) H  98                  0.00014     2.14640   
  1806. RY*(   3) H  98                  0.00011     2.08799   
  1807. RY*(   4) H  98                  0.00005     2.90070   
  1808. RY*(   5) H  98                  0.00001     3.15461   
  1809. RY*(   1) H  99                  0.00031     1.68625   
  1810. RY*(   2) H  99                  0.00008     2.61180   
  1811. RY*(   3) H  99                  0.00004     1.33741   
  1812. RY*(   4) H  99                  0.00005     2.27904   
  1813. RY*(   5) H  99                  0.00000     2.84690   
  1814. RY*(   1) H 100                  0.00036     1.70745   
  1815. RY*(   2) H 100                  0.00009     2.60555   
  1816. RY*(   3) H 100                  0.00005     2.31804   
  1817. RY*(   4) H 100                  0.00003     1.16208   
  1818. RY*(   5) H 100                  0.00000     3.04380   
  1819. RY*(   1) H 101                  0.00023     1.14501   
  1820. RY*(   2) H 101                  0.00007     1.57434   
  1821. RY*(   3) H 101                  0.00006     2.29975   
  1822. RY*(   4) H 101                  0.00003     2.44851   
  1823. RY*(   5) H 101                  0.00000     2.74504   
  1824. RY*(   1) H 102                  0.00042     0.92598   
  1825. RY*(   2) H 102                  0.00007     2.11309   
  1826. RY*(   3) H 102                  0.00004     2.28549   
  1827. RY*(   4) H 102                  0.00004     2.02352   
  1828. RY*(   5) H 102                  0.00001     2.96452   
  1829. RY*(   1) H 103                  0.00041     0.48470   
  1830. RY*(   2) H 103                  0.00032    -2.31624   
  1831. RY*(   3) H 103                  0.00014     0.81487   
  1832. RY*(   4) H 103                  0.00010    -9.49625   
  1833. RY*(   5) H 103                  0.00000     1.74959   
  1834. BD*(   1) C   1 - C   2          0.00662     0.29306   
  1835. BD*(   1) C   1 - H  65          0.00333     0.31080   
  1836. BD*(   1) C   1 - H  66          0.00421     0.31048   
  1837. BD*(   1) C   1 - H  67          0.00160     0.30569   
  1838. BD*(   1) C   2 - N   3          0.01346     0.32837   
  1839. BD*(   1) C   2 - C   4          0.01000     0.48354   
  1840. BD*(   1) N   3 - C   5          0.00970     0.40065   
  1841. BD*(   1) N   3 - H  64          0.00726     0.29220   
  1842. BD*(   1) C   4 - N   6          0.00780     0.37484   
  1843. BD*(   2) C   4 - N   6          0.32959    -0.11567  7(v),194(v),204(v),286(g)
                                                    1900(r),338(g),205(v),312(v)
                                                    1936(r)
  1844. BD*(   1) C   4 - H  62          0.00643     0.32298   
  1845. BD*(   1) C   5 - N   6          0.00838     0.42962   
  1846. BD*(   1) C   5 - H  63          0.00803     0.28543   
  1847. BD*(   1) N   6 -Fe  53          0.03539     0.21482   
  1848. BD*(   1) C   7 - C   8          0.00362     0.23678   
  1849. BD*(   1) C   7 - H  59          0.00501     0.31258   
  1850. BD*(   1) C   7 - H  60          0.00330     0.32447   
  1851. BD*(   1) C   7 - H  61          0.00258     0.30587   
  1852. BD*(   1) C   8 - S   9          0.01605     0.07077   
  1853. BD*(   1) C   8 - H  57          0.01001     0.30926   
  1854. BD*(   1) C   8 - H  58          0.00619     0.30458   
  1855. BD*(   1) S   9 - C  10          0.00885     0.08096   
  1856. BD*(   1) S   9 -Fe  53          0.03020     0.20871   
  1857. BD*(   1) C  10 - H  54          0.00504     0.30513   
  1858. BD*(   1) C  10 - H  55          0.00661     0.30338   
  1859. BD*(   1) C  10 - H  56          0.00729     0.33095   
  1860. BD*(   1) C  11 - C  15          0.01013     0.40963   
  1861. BD*(   1) C  11 - C  42          0.00976     0.41320   
  1862. BD*(   2) C  11 - C  42          0.19405    -0.06626  1938(v),1878(v),1936(v)
                                                    469(g),1275(g),1873(r)
                                                    1865(r)
  1863. BD*(   1) C  11 - H  98          0.00540     0.35816   
  1864. BD*(   1) C  12 - C  18          0.01054     0.47671   
  1865. BD*(   2) C  12 - C  18          0.20636    -0.06065  1880(v),1900(v),1878(v)
                                                    495(g),1869(r),1873(r)
                                                    653(g),1862(r)
  1866. BD*(   1) C  12 - C  25          0.01034     0.47494   
  1867. BD*(   1) C  12 - H  94          0.00732     0.34872   
  1868. BD*(   1) C  13 - C  28          0.01013     0.45980   
  1869. BD*(   2) C  13 - C  28          0.19560    -0.05832  1918(v),1902(v),1900(v)
                                                    521(g),1865(r),1873(r)
                                                    912(g)
  1870. BD*(   1) C  13 - C  32          0.01039     0.45481   
  1871. BD*(   1) C  13 - H  85          0.00674     0.35052   
  1872. BD*(   1) C  14 - C  35          0.00993     0.43307   
  1873. BD*(   2) C  14 - C  35          0.19543    -0.06097  1920(v),1936(v),1918(v)
                                                    547(g),1869(r),1865(r)
                                                    1094(g),1862(r)
  1874. BD*(   1) C  14 - C  39          0.00990     0.43417   
  1875. BD*(   1) C  14 - H  76          0.00650     0.34895   
  1876. BD*(   1) C  15 - C  16          0.01624     0.36985   
  1877. BD*(   1) C  15 - N  49          0.01412     0.37097   
  1878. BD*(   2) C  15 - N  49          0.32843    -0.10616  1862(v),1880(v),1865(v)
                                                    205(v),574(g),573(g),469(v)
                                                    1456(g),1454(g),1856(v)
  1879. BD*(   1) C  16 - C  17          0.01044     0.45838   
  1880. BD*(   2) C  16 - C  17          0.12953    -0.04411  1865(v),1878(v),1896(r)
                                                    1888(v),1887(v),1889(v)
                                                    1885(v)
  1881. BD*(   1) C  16 - C  20          0.01205     0.27222   
  1882. BD*(   1) C  17 - C  18          0.01636     0.37246   
  1883. BD*(   1) C  17 - C  19          0.00854     0.25934   
  1884. BD*(   1) C  18 - N  49          0.01527     0.36825   
  1885. BD*(   1) C  19 - H  95          0.00303     0.31169   
  1886. BD*(   1) C  19 - H  96          0.00281     0.32456   
  1887. BD*(   1) C  19 - H  97          0.00424     0.31442   
  1888. BD*(   1) C  20 - C  21          0.00623     0.27374   
  1889. BD*(   1) C  20 - H  99          0.00683     0.32554   
  1890. BD*(   1) C  20 - H 100          0.00621     0.32895   
  1891. BD*(   1) C  21 - C  22          0.04093     0.26795   
  1892. BD*(   1) C  21 - H 101          0.00529     0.31579   
  1893. BD*(   1) C  21 - H 102          0.00709     0.31425   
  1894. BD*(   1) C  22 - O  23          0.03347     0.44784   
  1895. BD*(   1) C  22 - O  24          0.02788     0.43542   
  1896. BD*(   2) C  22 - O  24          0.08372    -0.05275   
  1897. BD*(   1) O  23 - H 103          0.00781     0.29835   
  1898. BD*(   1) C  25 - C  26          0.01465     0.40307   
  1899. BD*(   1) C  25 - N  50          0.01552     0.33428   
  1900. BD*(   2) C  25 - N  50          0.33929    -0.10941  1865(v),1902(v),1869(v)
                                                    204(v),833(g),1843(r),495(v)
                                                    1480(g),1936(r),1482(g)
                                                    1856(v),1847(v)
  1901. BD*(   1) C  26 - C  27          0.01150     0.45595   
  1902. BD*(   2) C  26 - C  27          0.12251    -0.03731  1869(v),1900(v),1911(v)
                                                    1909(v),1912(v),1907(v)
  1903. BD*(   1) C  26 - C  29          0.00911     0.25814   
  1904. BD*(   1) C  27 - C  28          0.01820     0.33400   
  1905. BD*(   1) C  27 - C  30          0.01200     0.38802   
  1906. BD*(   1) C  28 - N  50          0.01314     0.35629   
  1907. BD*(   1) C  29 - H  91          0.00557     0.33337   
  1908. BD*(   1) C  29 - H  92          0.00489     0.33161   
  1909. BD*(   1) C  29 - H  93          0.00401     0.32161   
  1910. BD*(   1) C  30 - C  31          0.00377     0.42461   
  1911. BD*(   1) C  30 - H  86          0.01255     0.31296   
  1912. BD*(   1) C  30 - H  87          0.01145     0.31299   
  1913. BD*(   1) C  31 - H  88          0.00618     0.32665   
  1914. BD*(   1) C  31 - H  89          0.00503     0.34784   
  1915. BD*(   1) C  31 - H  90          0.00683     0.32970   
  1916. BD*(   1) C  32 - C  33          0.01564     0.36487   
  1917. BD*(   1) C  32 - N  51          0.01385     0.37220   
  1918. BD*(   2) C  32 - N  51          0.32105    -0.10029  1869(v),1920(v),1873(v)
                                                    205(v),1014(g),1508(g)
                                                    521(v),1507(g)
  1919. BD*(   1) C  33 - C  34          0.01226     0.44171   
  1920. BD*(   2) C  33 - C  34          0.12283    -0.04249  1873(v),1918(v),762(r)
                                                    1929(v),1926(v),1930(v)
                                                    659(r),1938(r),1927(v)
  1921. BD*(   1) C  33 - C  36          0.00793     0.25956   
  1922. BD*(   1) C  34 - C  35          0.01675     0.35846   
  1923. BD*(   1) C  34 - C  37          0.01196     0.39261   
  1924. BD*(   1) C  35 - N  51          0.01435     0.33668   
  1925. BD*(   1) C  36 - H  82          0.00409     0.33333   
  1926. BD*(   1) C  36 - H  83          0.00416     0.32105   
  1927. BD*(   1) C  36 - H  84          0.00538     0.34354   
  1928. BD*(   1) C  37 - C  38          0.00396     0.42867   
  1929. BD*(   1) C  37 - H  77          0.01156     0.31381   
  1930. BD*(   1) C  37 - H  78          0.01129     0.31533   
  1931. BD*(   1) C  38 - H  79          0.00421     0.34447   
  1932. BD*(   1) C  38 - H  80          0.01008     0.36060   
  1933. BD*(   1) C  38 - H  81          0.00481     0.32856   
  1934. BD*(   1) C  39 - C  40          0.01594     0.37419   
  1935. BD*(   1) C  39 - N  52          0.01469     0.35290   
  1936. BD*(   2) C  39 - N  52          0.33366    -0.10570  1873(v),1938(v),1862(v)
                                                    204(v),1194(g),1534(g)
                                                    547(v),1900(r),1843(r)
  1937. BD*(   1) C  40 - C  41          0.00981     0.49318   
  1938. BD*(   2) C  40 - C  41          0.11461    -0.05865  1862(v),762(r),1936(v)
                                                    659(r),1833(r),1830(r)
                                                    1832(r),1955(r),1956(r)
                                                    770(r),194(r),1829(r)
                                                    1896(r),1831(r),1949(r)
                                                    1704(r),669(r),1946(v)
                                                    1945(v),663(r),1957(r)
                                                    221(r),401(r),1954(r),373(r)
                                                    1944(v),1619(r),679(r)
  1939. BD*(   1) C  40 - C  43          0.00814     0.27327   
  1940. BD*(   1) C  41 - C  42          0.01688     0.36568   
  1941. BD*(   1) C  41 - C  44          0.01035     0.29257   
  1942. BD*(   1) C  42 - N  52          0.01365     0.37021   
  1943. BD*(   1) C  43 - H  73          0.00217     0.33128   
  1944. BD*(   1) C  43 - H  74          0.00322     0.33293   
  1945. BD*(   1) C  43 - H  75          0.00365     0.32495   
  1946. BD*(   1) C  44 - C  45          0.00586     0.27054   
  1947. BD*(   1) C  44 - H  71          0.00564     0.33842   
  1948. BD*(   1) C  44 - H  72          0.00577     0.34473   
  1949. BD*(   1) C  45 - C  46          0.04109     0.24736   
  1950. BD*(   1) C  45 - H  69          0.00563     0.27299   
  1951. BD*(   1) C  45 - H  70          0.00627     0.30890   
  1952. BD*(   1) C  46 - O  47          0.03569     0.41878   
  1953. BD*(   1) C  46 - O  48          0.02384     0.43809   
  1954. BD*(   2) C  46 - O  48          0.10870    -0.02513  762(r),1953(g),659(r)
                                                    1950(v),1833(r),1830(r)
                                                    1955(v),1832(r),1951(v)
                                                    1956(r),770(r),1938(r)
                                                    1829(r)
  1955. BD*(   1) O  47 - H  68          0.00549    -3.14308   
  1956. BD*(   1) N  49 -Fe  53          0.02631   -14.01895   
  1957. BD*(   1) N  50 -Fe  53          0.02585     7.16693   
  1958. BD*(   1) N  51 -Fe  53          0.02719     2.42384   
  1959. BD*(   1) N  52 -Fe  53          0.02781     2.83776   
       -------------------------------
              Total Lewis  197.71538  ( 97.3967%)
        Valence non-Lewis    4.93123  (  2.4292%)
        Rydberg non-Lewis    0.35339  (  0.1741%)
       -------------------------------
            Total unit  1  203.00000  (100.0000%)
           Charge unit  1    3.00000
 1\1\GINC-NODE717\SP\UPBE1PBE\def2TZVP\C41H50Fe1N6O4S1(1+,6)\ZHARTOVSKA
 \09-Sep-2022\0\\# PBE1PBE/def2TZVP empiricaldispersion=GD3BJ scf=maxcy
 cle=999 geom=check pop=nbo\\1vb6_III_H\\1,6\C,0,-2.424,-20.167999,-17.
 756001\C,0,-1.867,-19.166,-16.792\N,0,-1.739,-17.827999,-17.097\C,0,-1
 .43,-19.306,-15.519\C,0,-1.25,-17.184999,-16.052999\N,0,-1.053,-18.058
 001,-15.081\C,0,0.45697758,-17.95830189,-8.41996971\C,0,-0.44,-17.8490
 01,-9.667\S,0,0.424,-16.907,-10.952\C,0,2.103,-17.461,-10.658\C,0,-3.4
 88,-18.146999,-11.841\C,0,0.475,-20.855,-12.647\C,0,2.812,-16.966999,-
 14.344\C,0,-1.12,-14.231,-13.549\C,0,-2.587,-19.247999,-11.935\C,0,-2.
 932,-20.6,-11.506\C,0,-1.805,-21.367001,-11.727\C,0,-0.802,-20.481001,
 -12.283\C,0,-1.657,-22.875999,-11.434\C,0,-4.327,-21.063,-11.046\C,0,-
 4.331,-21.563,-9.609\C,0,-3.95,-20.499001,-8.605\O,0,-2.992,-20.737,-7
 .867\O,0,-4.603,-19.431999,-8.572\C,0,1.452,-20.034,-13.173\C,0,2.769,
 -20.487,-13.523\C,0,3.487,-19.410999,-14.027\C,0,2.526,-18.271999,-13.
 951\C,0,3.248,-21.954,-13.337\C,0,4.848,-19.458,-14.494\C,0,5.43718768
 ,-20.66545086,-14.0954498\C,0,1.931,-15.889,-14.27\C,0,2.322,-14.539,-
 14.688\C,0,1.194,-13.739,-14.465\C,0,0.167,-14.634,-13.918\C,0,3.717,-
 14.158,-15.246\C,0,0.995,-12.333,-14.685\C,0,2.20853082,-11.74303756,-
 15.06342995\C,0,-2.116,-15.047,-13.008\C,0,-3.443,-14.59,-12.61\C,0,-4
 .099,-15.687,-12.125\C,0,-3.174,-16.819,-12.245\C,0,-4.001,-13.156,-12
 .69\C,0,-5.525,-15.74,-11.562\C,0,-5.357,-15.764,-10.037\C,0,-6.585,-1
 5.349,-9.233\O,0,-6.445,-15.222,-7.988\O,0,-7.668,-15.154,-9.838\N,0,-
 1.292,-19.194,-12.411\N,0,1.284,-18.655001,-13.442\N,0,0.629,-15.962,-
 13.807\N,0,-1.964,-16.415001,-12.778\Fe,0,-0.402,-17.572001,-13.123\H,
 0,2.74283065,-16.61187198,-10.53759093\H,0,2.13140383,-18.05772314,-9.
 77029807\H,0,2.43711724,-18.04413915,-11.49059498\H,0,-0.66328638,-18.
 82943156,-10.0327856\H,0,-1.35000161,-17.3487389,-9.40905641\H,0,1.374
 87921,-17.43670896,-8.5940312\H,0,-0.04544094,-17.52557051,-7.58019642
 \H,0,0.66471914,-18.98856903,-8.2192384\H,0,-1.38602936,-20.21643011,-
 14.95856838\H,0,-1.04762584,-16.13552516,-16.00250783\H,0,-1.9791923,-
 17.40946593,-17.97286399\H,0,-1.74563411,-20.99042479,-17.84730015\H,0
 ,-3.36763089,-20.52217969,-17.39681194\H,0,-2.5566325,-19.70717867,-18
 .71253289\H,0,-5.5654052,-15.1829708,-7.60539093\H,0,-5.08749005,-16.7
 5782718,-9.74618749\H,0,-4.55168658,-15.10830396,-9.77925399\H,0,-6.02
 223092,-16.62724052,-11.89436377\H,0,-6.07430299,-14.87180373,-11.8610
 0076\H,0,-3.31581583,-12.53625783,-13.22976133\H,0,-4.94451449,-13.168
 0529,-13.19451475\H,0,-4.13016516,-12.76786754,-11.70127883\H,0,-1.365
 05811,-13.1997123,-13.69491847\H,0,0.27251664,-12.19225514,-15.4616007
 2\H,0,0.64274415,-11.87724362,-13.78327835\H,0,2.21319203,-10.71502949
 ,-14.76665111\H,0,3.01808761,-12.2554696,-14.58705698\H,0,2.32087053,-
 11.80816418,-16.12552143\H,0,4.41882934,-14.93026432,-15.00947645\H,0,
 3.65716398,-14.04351916,-16.30817409\H,0,4.03799666,-13.23720635,-14.8
 0554546\H,0,3.78931294,-16.77569619,-14.73536001\H,0,4.86124881,-19.39
 001851,-15.56175605\H,0,5.39643122,-18.63899858,-14.07763492\H,0,5.027
 92258,-21.46914906,-14.67118522\H,0,6.49429086,-20.61573254,-14.253440
 12\H,0,5.23920745,-20.8333865,-13.05742212\H,0,4.18904507,-21.96008368
 ,-12.82778771\H,0,2.52677545,-22.49425537,-12.76006042\H,0,3.35791026,
 -22.41750451,-14.29511445\H,0,0.7338584,-21.88383212,-12.5077276\H,0,-
 0.75318818,-23.04617832,-10.8871333\H,0,-2.4924481,-23.21056443,-10.85
 521468\H,0,-1.62281814,-23.4168021,-12.35663948\H,0,-4.46316194,-18.33
 105867,-11.44089848\H,0,-4.65799906,-21.85272864,-11.68761382\H,0,-5.0
 0813605,-20.24189546,-11.1281037\H,0,-5.31133489,-21.92126563,-9.37343
 845\H,0,-3.63938766,-22.37528621,-9.52675961\H,0,-2.09583782,-20.63134
 72,-8.19461385\\Version=ES64L-G16RevA.03\State=6-A\HF=-3881.6458907\S2
 =8.760571\S2-1=0.\S2A=8.750033\RMSD=7.271e-09\Dipole=3.3651219,-1.1398
 238,-2.4650398\Quadrupole=-31.8583154,18.8586629,12.9996525,10.8578637
 ,11.0468488,-8.6982711\PG=C01 [X(C41H50Fe1N6O4S1)]\\@


 WOE UNTO THEM THAT CALL EVIL GOOD, AND GOOD EVIL      
 Job cpu time:       2 days 11 hours 17 minutes 11.0 seconds.
 Elapsed time:       0 days 14 hours 52 minutes 44.1 seconds.
 File lengths (MBytes):  RWF=   3538 Int=      0 D2E=      0 Chk=    296 Scr=      1
 Normal termination of Gaussian 16 at Fri Sep  9 00:22:05 2022.
