 Entering Gaussian System, Link 0=g16
 Input=/net/homes/chemie/zhartovska/work/BioModel/Konrad/1vb6/1vb612/1vb612.com
 Output=/net/homes/chemie/zhartovska/work/BioModel/Konrad/1vb6/1vb612/1vb612.log
 Initial command:
 /afs/math/software/gaussian/g16.A03/g16/l1.exe "/scratch/zhartovska_gaussian.IrDXH65/Gau-24566.inp" -scrdir="/scratch/zhartovska_gaussian.IrDXH65/"
 Entering Link 1 = /afs/math/software/gaussian/g16.A03/g16/l1.exe PID=     24567.
  
 Copyright (c) 1988,1990,1992,1993,1995,1998,2003,2009,2016,
            Gaussian, Inc.  All Rights Reserved.
  
 This is part of the Gaussian(R) 16 program.  It is based on
 the Gaussian(R) 09 system (copyright 2009, Gaussian, Inc.),
 the Gaussian(R) 03 system (copyright 2003, Gaussian, Inc.),
 the Gaussian(R) 98 system (copyright 1998, Gaussian, Inc.),
 the Gaussian(R) 94 system (copyright 1995, Gaussian, Inc.),
 the Gaussian 92(TM) system (copyright 1992, Gaussian, Inc.),
 the Gaussian 90(TM) system (copyright 1990, Gaussian, Inc.),
 the Gaussian 88(TM) system (copyright 1988, Gaussian, Inc.),
 the Gaussian 86(TM) system (copyright 1986, Carnegie Mellon
 University), and the Gaussian 82(TM) system (copyright 1983,
 Carnegie Mellon University). Gaussian is a federally registered
 trademark of Gaussian, Inc.
  
 This software contains proprietary and confidential information,
 including trade secrets, belonging to Gaussian, Inc.
  
 This software is provided under written license and may be
 used, copied, transmitted, or stored only in accord with that
 written license.
  
 The following legend is applicable only to US Government
 contracts under FAR:
  
                    RESTRICTED RIGHTS LEGEND
  
 Use, reproduction and disclosure by the US Government is
 subject to restrictions as set forth in subparagraphs (a)
 and (c) of the Commercial Computer Software - Restricted
 Rights clause in FAR 52.227-19.
  
 Gaussian, Inc.
 340 Quinnipiac St., Bldg. 40, Wallingford CT 06492
  
  
 ---------------------------------------------------------------
 Warning -- This program may not be used in any manner that
 competes with the business of Gaussian, Inc. or will provide
 assistance to any competitor of Gaussian, Inc.  The licensee
 of this program is prohibited from giving any competitor of
 Gaussian, Inc. access to this program.  By using this program,
 the user acknowledges that Gaussian, Inc. is engaged in the
 business of creating and licensing software in the field of
 computational chemistry and represents and warrants to the
 licensee that it is not a competitor of Gaussian, Inc. and that
 it will not use this program in any manner prohibited above.
 ---------------------------------------------------------------
  

 Cite this work as:
 Gaussian 16, Revision A.03,
 M. J. Frisch, G. W. Trucks, H. B. Schlegel, G. E. Scuseria, 
 M. A. Robb, J. R. Cheeseman, G. Scalmani, V. Barone, 
 G. A. Petersson, H. Nakatsuji, X. Li, M. Caricato, A. V. Marenich, 
 J. Bloino, B. G. Janesko, R. Gomperts, B. Mennucci, H. P. Hratchian, 
 J. V. Ortiz, A. F. Izmaylov, J. L. Sonnenberg, D. Williams-Young, 
 F. Ding, F. Lipparini, F. Egidi, J. Goings, B. Peng, A. Petrone, 
 T. Henderson, D. Ranasinghe, V. G. Zakrzewski, J. Gao, N. Rega, 
 G. Zheng, W. Liang, M. Hada, M. Ehara, K. Toyota, R. Fukuda, 
 J. Hasegawa, M. Ishida, T. Nakajima, Y. Honda, O. Kitao, H. Nakai, 
 T. Vreven, K. Throssell, J. A. Montgomery, Jr., J. E. Peralta, 
 F. Ogliaro, M. J. Bearpark, J. J. Heyd, E. N. Brothers, K. N. Kudin, 
 V. N. Staroverov, T. A. Keith, R. Kobayashi, J. Normand, 
 K. Raghavachari, A. P. Rendell, J. C. Burant, S. S. Iyengar, 
 J. Tomasi, M. Cossi, J. M. Millam, M. Klene, C. Adamo, R. Cammi, 
 J. W. Ochterski, R. L. Martin, K. Morokuma, O. Farkas, 
 J. B. Foresman, and D. J. Fox, Gaussian, Inc., Wallingford CT, 2016.
 
 ******************************************
 Gaussian 16:  ES64L-G16RevA.03 25-Dec-2016
                31-Aug-2022 
 ******************************************
 %nprocs=12
 Will use up to   12 processors via shared memory.
 %mem=16GB
 %oldchk=1vb6_II_S.chk
 %chk=1vb6_III_D.chk
 Copying data from "1vb6_II_S.chk" to current chk file "1vb6_III_D.chk"
 IOpt=  2 FromEx=T IUOpen= 4 IOptOp= 5 NList=   0 IFRang= 0 IUIn= 4 IUOut= 2.
 ----------------------------------------------------------------------
 # PBE1PBE/def2TZVP empiricaldispersion=GD3BJ scf=maxcycle=999 geom=che
 ck pop=nbo
 ----------------------------------------------------------------------
 1/29=2,38=1,172=1/1;
 2/12=2,40=1/2;
 3/5=44,7=101,11=2,14=-4,25=1,30=1,74=-13,124=41/1,2,3;
 4//1;
 5/5=2,7=999,38=5/2;
 6/7=2,8=2,9=2,10=2,28=1,40=1/1,7;
 99/5=1,9=1/99;
 ----------
 1vb6_III_D
 ----------
 Structure from the checkpoint file:  "1vb6_III_D.chk"
 Charge =  1 Multiplicity = 2
 Z-Matrix found in chk file.
 C,0,-2.424,-20.167999,-17.756001
 C,0,-1.867,-19.166,-16.792
 N,0,-1.739,-17.827999,-17.097
 C,0,-1.43,-19.306,-15.519
 C,0,-1.25,-17.184999,-16.052999
 N,0,-1.053,-18.058001,-15.081
 C,0,0.45697758,-17.95830189,-8.41996971
 C,0,-0.44,-17.849001,-9.667
 S,0,0.424,-16.907,-10.952
 C,0,2.103,-17.461,-10.658
 C,0,-3.488,-18.146999,-11.841
 C,0,0.475,-20.855,-12.647
 C,0,2.812,-16.966999,-14.344
 C,0,-1.12,-14.231,-13.549
 C,0,-2.587,-19.247999,-11.935
 C,0,-2.932,-20.6,-11.506
 C,0,-1.805,-21.367001,-11.727
 C,0,-0.802,-20.481001,-12.283
 C,0,-1.657,-22.875999,-11.434
 C,0,-4.327,-21.063,-11.046
 C,0,-4.331,-21.563,-9.609
 C,0,-3.95,-20.499001,-8.605
 O,0,-2.992,-20.737,-7.867
 O,0,-4.603,-19.431999,-8.572
 C,0,1.452,-20.034,-13.173
 C,0,2.769,-20.487,-13.523
 C,0,3.487,-19.410999,-14.027
 C,0,2.526,-18.271999,-13.951
 C,0,3.248,-21.954,-13.337
 C,0,4.848,-19.458,-14.494
 C,0,5.43718768,-20.66545086,-14.0954498
 C,0,1.931,-15.889,-14.27
 C,0,2.322,-14.539,-14.688
 C,0,1.194,-13.739,-14.465
 C,0,0.167,-14.634,-13.918
 C,0,3.717,-14.158,-15.246
 C,0,0.995,-12.333,-14.685
 C,0,2.20853082,-11.74303756,-15.06342995
 C,0,-2.116,-15.047,-13.008
 C,0,-3.443,-14.59,-12.61
 C,0,-4.099,-15.687,-12.125
 C,0,-3.174,-16.819,-12.245
 C,0,-4.001,-13.156,-12.69
 C,0,-5.525,-15.74,-11.562
 C,0,-5.357,-15.764,-10.037
 C,0,-6.585,-15.349,-9.233
 O,0,-6.445,-15.222,-7.988
 O,0,-7.668,-15.154,-9.838
 N,0,-1.292,-19.194,-12.411
 N,0,1.284,-18.655001,-13.442
 N,0,0.629,-15.962,-13.807
 N,0,-1.964,-16.415001,-12.778
 Fe,0,-0.402,-17.572001,-13.123
 H,0,2.74283065,-16.61187198,-10.53759093
 H,0,2.13140383,-18.05772314,-9.77029807
 H,0,2.43711724,-18.04413915,-11.49059498
 H,0,-0.66328638,-18.82943156,-10.0327856
 H,0,-1.35000161,-17.3487389,-9.40905641
 H,0,1.37487921,-17.43670896,-8.5940312
 H,0,-0.04544094,-17.52557051,-7.58019642
 H,0,0.66471914,-18.98856903,-8.2192384
 H,0,-1.38602936,-20.21643011,-14.95856838
 H,0,-1.04762584,-16.13552516,-16.00250783
 H,0,-1.9791923,-17.40946593,-17.97286399
 H,0,-1.74563411,-20.99042479,-17.84730015
 H,0,-3.36763089,-20.52217969,-17.39681194
 H,0,-2.5566325,-19.70717867,-18.71253289
 H,0,-5.5654052,-15.1829708,-7.60539093
 H,0,-5.08749005,-16.75782718,-9.74618749
 H,0,-4.55168658,-15.10830396,-9.77925399
 H,0,-6.02223092,-16.62724052,-11.89436377
 H,0,-6.07430299,-14.87180373,-11.86100076
 H,0,-3.31581583,-12.53625783,-13.22976133
 H,0,-4.94451449,-13.1680529,-13.19451475
 H,0,-4.13016516,-12.76786754,-11.70127883
 H,0,-1.36505811,-13.1997123,-13.69491847
 H,0,0.27251664,-12.19225514,-15.46160072
 H,0,0.64274415,-11.87724362,-13.78327835
 H,0,2.21319203,-10.71502949,-14.76665111
 H,0,3.01808761,-12.2554696,-14.58705698
 H,0,2.32087053,-11.80816418,-16.12552143
 H,0,4.41882934,-14.93026432,-15.00947645
 H,0,3.65716398,-14.04351916,-16.30817409
 H,0,4.03799666,-13.23720635,-14.80554546
 H,0,3.78931294,-16.77569619,-14.73536001
 H,0,4.86124881,-19.39001851,-15.56175605
 H,0,5.39643122,-18.63899858,-14.07763492
 H,0,5.02792258,-21.46914906,-14.67118522
 H,0,6.49429086,-20.61573254,-14.25344012
 H,0,5.23920745,-20.8333865,-13.05742212
 H,0,4.18904507,-21.96008368,-12.82778771
 H,0,2.52677545,-22.49425537,-12.76006042
 H,0,3.35791026,-22.41750451,-14.29511445
 H,0,0.7338584,-21.88383212,-12.5077276
 H,0,-0.75318818,-23.04617832,-10.8871333
 H,0,-2.4924481,-23.21056443,-10.85521468
 H,0,-1.62281814,-23.4168021,-12.35663948
 H,0,-4.46316194,-18.33105867,-11.44089848
 H,0,-4.65799906,-21.85272864,-11.68761382
 H,0,-5.00813605,-20.24189546,-11.1281037
 H,0,-5.31133489,-21.92126563,-9.37343845
 H,0,-3.63938766,-22.37528621,-9.52675961
 H,0,-2.09583782,-20.6313472,-8.19461385
 Recover connectivity data from disk.
 Stoichiometry    C41H50FeN6O4S(1+,2)
 Framework group  C1[X(C41H50FeN6O4S)]
 Deg. of freedom   303
 Full point group                 C1      NOp   1
 Largest Abelian subgroup         C1      NOp   1
 Largest concise Abelian subgroup C1      NOp   1
                         Standard orientation:                         
 ---------------------------------------------------------------------
 Center     Atomic      Atomic             Coordinates (Angstroms)
 Number     Number       Type             X           Y           Z
 ---------------------------------------------------------------------
      1          6           0       -1.396554   -1.101004    5.656971
      2          6           0       -1.380639   -0.417092    4.324470
      3          7           0       -1.673206    0.920733    4.168633
      4          6           0       -1.080271   -0.883599    3.090271
      5          6           0       -1.551138    1.251094    2.896442
      6          7           0       -1.192228    0.174835    2.219261
      7          6           0        1.025374   -1.346049   -4.059946
      8          6           0        1.130337   -0.846071   -2.607155
      9         16           0       -0.296608    0.204129   -2.225059
     10          6           0       -1.560050   -0.643039   -3.172906
     11          6           0        2.583962   -0.225353    0.799760
     12          6           0       -1.162670   -3.264912    0.157802
     13          6           0       -4.110180    0.499087   -0.618361
     14          6           0       -0.396182    3.563383    0.009850
     15          6           0        1.787548   -1.404121    0.704534
     16          6           0        2.330100   -2.749044    0.871241
     17          6           0        1.268896   -3.612154    0.681118
     18          6           0        0.108143   -2.789160    0.406390
     19          6           0        1.323437   -5.153880    0.751353
     20          6           0        3.766326   -3.084715    1.314609
     21          6           0        4.534221   -3.867694    0.259969
     22          6           0        4.719753   -3.105984   -1.032566
     23          8           0        4.297420   -3.633057   -2.063527
     24          8           0        5.273792   -1.984294   -1.003501
     25          6           0       -2.284402   -2.507133   -0.111889
     26          6           0       -3.580489   -3.068127   -0.371972
     27          6           0       -4.474856   -2.029883   -0.594401
     28          6           0       -3.637550   -0.801682   -0.463788
     29          6           0       -3.864418   -4.596242   -0.391326
     30          6           0       -5.876966   -2.180590   -0.884216
     31          6           0       -6.147325   -3.518703   -1.200891
     32          6           0       -3.340891    1.656824   -0.510849
     33          6           0       -3.916739    2.990657   -0.709328
     34          6           0       -2.854207    3.885391   -0.528800
     35          6           0       -1.677623    3.059157   -0.232234
     36          6           0       -5.403078    3.267557   -1.050898
     37          6           0       -2.825192    5.319916   -0.607101
     38          6           0       -4.066418    5.788298   -1.058653
     39          6           0        0.749509    2.810135    0.275483
     40          6           0        2.079275    3.366454    0.500015
     41          6           0        2.911293    2.302642    0.712197
     42          6           0        2.081337    1.095769    0.634234
     43          6           0        2.486706    4.852297    0.480300
     44          6           0        4.420909    2.346326    0.981282
     45          6           0        5.080535    1.979362   -0.354628
     46          6           0        6.540383    2.395477   -0.504025
     47          8           0        7.073924    2.237147   -1.633635
     48          8           0        7.139707    2.871829    0.491383
     49          7           0        0.435067   -1.445494    0.429580
     50          7           0       -2.307049   -1.093084   -0.158522
     51          7           0       -1.988964    1.683592   -0.216777
     52          7           0        0.765058    1.417251    0.359527
     53         26           0       -0.724467    0.138283    0.151987
     54          1           0       -2.055589    0.057087   -3.812565
     55          1           0       -1.106924   -1.409528   -3.766263
     56          1           0       -2.271903   -1.082431   -2.505747
     57          1           0        1.144904   -1.683910   -1.941788
     58          1           0        2.031096   -0.280830   -2.488685
     59          1           0        0.144211   -0.942389   -4.513280
     60          1           0        1.886736   -1.028436   -4.609562
     61          1           0        0.972245   -2.414710   -4.066405
     62          1           0       -0.807044   -1.887203    2.839219
     63          1           0       -1.714954    2.224676    2.483887
     64          1           0       -1.936909    1.544100    4.904754
     65          1           0       -2.007086   -1.977910    5.600528
     66          1           0       -0.399062   -1.377718    5.927785
     67          1           0       -1.794883   -0.435941    6.394485
     68          1           0        6.526520    2.063782   -2.402982
     69          1           0        5.021626    0.917886   -0.475859
     70          1           0        4.519882    2.439168   -1.141487
     71          1           0        4.684377    1.632405    1.733480
     72          1           0        4.715620    3.329802    1.282646
     73          1           0        1.609385    5.461939    0.420773
     74          1           0        3.023878    5.086741    1.375500
     75          1           0        3.109791    5.040035   -0.369064
     76          1           0       -0.282511    4.627137   -0.010310
     77          1           0       -2.621736    5.725954    0.361733
     78          1           0       -2.059339    5.624451   -1.289470
     79          1           0       -3.932202    6.719133   -1.568978
     80          1           0       -4.495343    5.072797   -1.728713
     81          1           0       -4.719411    5.930584   -0.223037
     82          1           0       -5.862019    2.367119   -1.402301
     83          1           0       -5.912837    3.609115   -0.174322
     84          1           0       -5.460422    4.017587   -1.811863
     85          1           0       -5.150395    0.620085   -0.837933
     86          1           0       -6.450997   -1.893702   -0.028013
     87          1           0       -6.138603   -1.557810   -1.714030
     88          1           0       -6.088113   -4.114130   -0.313839
     89          1           0       -7.130182   -3.595213   -1.616868
     90          1           0       -5.430103   -3.868444   -1.913754
     91          1           0       -4.396703   -4.848829   -1.284507
     92          1           0       -2.938281   -5.131459   -0.364621
     93          1           0       -4.453719   -4.860353    0.461827
     94          1           0       -1.291613   -4.326961    0.175848
     95          1           0        0.845476   -5.567382   -0.112052
     96          1           0        2.344090   -5.473659    0.781501
     97          1           0        0.818535   -5.488824    1.633276
     98          1           0        3.626819   -0.341498    1.009184
     99          1           0        3.724093   -3.664539    2.212897
    100          1           0        4.288036   -2.172432    1.515749
    101          1           0        5.497973   -4.117047    0.652276
    102          1           0        4.003520   -4.773045    0.051170
    103          1           0        3.361230   -3.596065   -2.272762
 ---------------------------------------------------------------------
 Rotational constants (GHZ):           0.0643288           0.0457790           0.0355004
 Standard basis: def2TZVP (5D, 7F)
 There are  2230 symmetry adapted cartesian basis functions of A   symmetry.
 There are  1963 symmetry adapted basis functions of A   symmetry.
  1963 basis functions,  3172 primitive gaussians,  2230 cartesian basis functions
   206 alpha electrons      205 beta electrons
       nuclear repulsion energy      9051.8543214259 Hartrees.
 NAtoms=  103 NActive=  103 NUniq=  103 SFac= 1.00D+00 NAtFMM=   60 NAOKFM=T Big=T
 Integral buffers will be    131072 words long.
 Raffenetti 2 integral format.
 Two-electron integral symmetry is turned on.
 Nuclear repulsion after empirical dispersion term =     9051.7023887059 Hartrees.
 One-electron integrals computed using PRISM.
   1 Symmetry operations used in ECPInt.
 ECPInt:  NShTT=  311655 NPrTT=  958403 LenC2=  229008 LenP2D=  455055.
 LDataN:  DoStor=T MaxTD1= 6 Len=  172
 NBasis=  1963 RedAO= T EigKep=  2.88D-06  NBF=  1963
 NBsUse=  1963 1.00D-06 EigRej= -1.00D+00 NBFU=  1963
 ExpMin= 4.20D-02 ExpMax= 3.01D+05 ExpMxC= 2.91D+03 IAcc=3 IRadAn=         5 AccDes= 0.00D+00
 Harris functional with IExCor= 1009 and IRadAn=       5 diagonalized for initial guess.
 HarFok:  IExCor= 1009 AccDes= 0.00D+00 IRadAn=         5 IDoV= 1 UseB2=F ITyADJ=14
 ICtDFT=  3500011 ScaDFX=  1.000000  1.000000  1.000000  1.000000
 FoFCou: FMM=F IPFlag=           0 FMFlag=      100000 FMFlg1=        2001
         NFxFlg=           0 DoJE=T BraDBF=F KetDBF=T FulRan=T
         wScrn=  0.000000 ICntrl=       500 IOpCl=  0 I1Cent=   200000004 NGrid=           0
         NMat0=    1 NMatS0=      1 NMatT0=    0 NMatD0=    1 NMtDS0=    0 NMtDT0=    0
 Petite list used in FoFCou.
 Initial guess <Sx>= 0.0000 <Sy>= 0.0000 <Sz>= 0.5000 <S**2>= 0.7500 S= 0.5000
 Requested convergence on RMS density matrix=1.00D-08 within 999 cycles.
 Requested convergence on MAX density matrix=1.00D-06.
 Requested convergence on             energy=1.00D-06.
 No special actions if energy rises.
 EnCoef did   100 forward-backward iterations
 EnCoef did   100 forward-backward iterations
 Restarting incremental Fock formation.
 Restarting incremental Fock formation.
 Restarting incremental Fock formation.
 SCF Done:  E(UPBE1PBE) =  -3881.64764555     A.U. after   72 cycles
            NFock= 72  Conv=0.15D-08     -V/T= 2.0032
 <Sx>= 0.0000 <Sy>= 0.0000 <Sz>= 0.5000 <S**2>= 0.9018 S= 0.5732
 <L.S>= 0.000000000000E+00
 Annihilation of the first spin contaminant:
 S**2 before annihilation     0.9018,   after     0.7530
 Hyperfine terms turned off by default for NAtoms > 100.

 **********************************************************************

            Population analysis using the SCF density.

 **********************************************************************

 Orbital symmetries:
 Alpha Orbitals:
       Occupied  (A) (A) (A) (A) (A) (A) (A) (A) (A) (A) (A) (A)
                 (A) (A) (A) (A) (A) (A) (A) (A) (A) (A) (A) (A)
                 (A) (A) (A) (A) (A) (A) (A) (A) (A) (A) (A) (A)
                 (A) (A) (A) (A) (A) (A) (A) (A) (A) (A) (A) (A)
                 (A) (A) (A) (A) (A) (A) (A) (A) (A) (A) (A) (A)
                 (A) (A) (A) (A) (A) (A) (A) (A) (A) (A) (A) (A)
                 (A) (A) (A) (A) (A) (A) (A) (A) (A) (A) (A) (A)
                 (A) (A) (A) (A) (A) (A) (A) (A) (A) (A) (A) (A)
                 (A) (A) (A) (A) (A) (A) (A) (A) (A) (A) (A) (A)
                 (A) (A) (A) (A) (A) (A) (A) (A) (A) (A) (A) (A)
                 (A) (A) (A) (A) (A) (A) (A) (A) (A) (A) (A) (A)
                 (A) (A) (A) (A) (A) (A) (A) (A) (A) (A) (A) (A)
                 (A) (A) (A) (A) (A) (A) (A) (A) (A) (A) (A) (A)
                 (A) (A) (A) (A) (A) (A) (A) (A) (A) (A) (A) (A)
                 (A) (A) (A) (A) (A) (A) (A) (A) (A) (A) (A) (A)
                 (A) (A) (A) (A) (A) (A) (A) (A) (A) (A) (A) (A)
                 (A) (A) (A) (A) (A) (A) (A) (A) (A) (A) (A) (A)
                 (A) (A)
       Virtual   (A) (A) (A) (A) (A) (A) (A) (A) (A) (A) (A) (A)
                 (A) (A) (A) (A) (A) (A) (A) (A) (A) (A) (A) (A)
                 (A) (A) (A) (A) (A) (A) (A) (A) (A) (A) (A) (A)
                 (A) (A) (A) (A) (A) (A) (A) (A) (A) (A) (A) (A)
                 (A) (A) (A) (A) (A) (A) (A) (A) (A) (A) (A) (A)
                 (A) (A) (A) (A) (A) (A) (A) (A) (A) (A) (A) (A)
                 (A) (A) (A) (A) (A) (A) (A) (A) (A) (A) (A) (A)
                 (A) (A) (A) (A) (A) (A) (A) (A) (A) (A) (A) (A)
                 (A) (A) (A) (A) (A) (A) (A) (A) (A) (A) (A) (A)
                 (A) (A) (A) (A) (A) (A) (A) (A) (A) (A) (A) (A)
                 (A) (A) (A) (A) (A) (A) (A) (A) (A) (A) (A) (A)
                 (A) (A) (A) (A) (A) (A) (A) (A) (A) (A) (A) (A)
                 (A) (A) (A) (A) (A) (A) (A) (A) (A) (A) (A) (A)
                 (A) (A) (A) (A) (A) (A) (A) (A) (A) (A) (A) (A)
                 (A) (A) (A) (A) (A) (A) (A) (A) (A) (A) (A) (A)
                 (A) (A) (A) (A) (A) (A) (A) (A) (A) (A) (A) (A)
                 (A) (A) (A) (A) (A) (A) (A) (A) (A) (A) (A) (A)
                 (A) (A) (A) (A) (A) (A) (A) (A) (A) (A) (A) (A)
                 (A) (A) (A) (A) (A) (A) (A) (A) (A) (A) (A) (A)
                 (A) (A) (A) (A) (A) (A) (A) (A) (A) (A) (A) (A)
                 (A) (A) (A) (A) (A) (A) (A) (A) (A) (A) (A) (A)
                 (A) (A) (A) (A) (A) (A) (A) (A) (A) (A) (A) (A)
                 (A) (A) (A) (A) (A) (A) (A) (A) (A) (A) (A) (A)
                 (A) (A) (A) (A) (A) (A) (A) (A) (A) (A) (A) (A)
                 (A) (A) (A) (A) (A) (A) (A) (A) (A) (A) (A) (A)
                 (A) (A) (A) (A) (A) (A) (A) (A) (A) (A) (A) (A)
                 (A) (A) (A) (A) (A) (A) (A) (A) (A) (A) (A) (A)
                 (A) (A) (A) (A) (A) (A) (A) (A) (A) (A) (A) (A)
                 (A) (A) (A) (A) (A) (A) (A) (A) (A) (A) (A) (A)
                 (A) (A) (A) (A) (A) (A) (A) (A) (A) (A) (A) (A)
                 (A) (A) (A) (A) (A) (A) (A) (A) (A) (A) (A) (A)
                 (A) (A) (A) (A) (A) (A) (A) (A) (A) (A) (A) (A)
                 (A) (A) (A) (A) (A) (A) (A) (A) (A) (A) (A) (A)
                 (A) (A) (A) (A) (A) (A) (A) (A) (A) (A) (A) (A)
                 (A) (A) (A) (A) (A) (A) (A) (A) (A) (A) (A) (A)
                 (A) (A) (A) (A) (A) (A) (A) (A) (A) (A) (A) (A)
                 (A) (A) (A) (A) (A) (A) (A) (A) (A) (A) (A) (A)
                 (A) (A) (A) (A) (A) (A) (A) (A) (A) (A) (A) (A)
                 (A) (A) (A) (A) (A) (A) (A) (A) (A) (A) (A) (A)
                 (A) (A) (A) (A) (A) (A) (A) (A) (A) (A) (A) (A)
                 (A) (A) (A) (A) (A) (A) (A) (A) (A) (A) (A) (A)
                 (A) (A) (A) (A) (A) (A) (A) (A) (A) (A) (A) (A)
                 (A) (A) (A) (A) (A) (A) (A) (A) (A) (A) (A) (A)
                 (A) (A) (A) (A) (A) (A) (A) (A) (A) (A) (A) (A)
                 (A) (A) (A) (A) (A) (A) (A) (A) (A) (A) (A) (A)
                 (A) (A) (A) (A) (A) (A) (A) (A) (A) (A) (A) (A)
                 (A) (A) (A) (A) (A) (A) (A) (A) (A) (A) (A) (A)
                 (A) (A) (A) (A) (A) (A) (A) (A) (A) (A) (A) (A)
                 (A) (A) (A) (A) (A) (A) (A) (A) (A) (A) (A) (A)
                 (A) (A) (A) (A) (A) (A) (A) (A) (A) (A) (A) (A)
                 (A) (A) (A) (A) (A) (A) (A) (A) (A) (A) (A) (A)
                 (A) (A) (A) (A) (A) (A) (A) (A) (A) (A) (A) (A)
                 (A) (A) (A) (A) (A) (A) (A) (A) (A) (A) (A) (A)
                 (A) (A) (A) (A) (A) (A) (A) (A) (A) (A) (A) (A)
                 (A) (A) (A) (A) (A) (A) (A) (A) (A) (A) (A) (A)
                 (A) (A) (A) (A) (A) (A) (A) (A) (A) (A) (A) (A)
                 (A) (A) (A) (A) (A) (A) (A) (A) (A) (A) (A) (A)
                 (A) (A) (A) (A) (A) (A) (A) (A) (A) (A) (A) (A)
                 (A) (A) (A) (A) (A) (A) (A) (A) (A) (A) (A) (A)
                 (A) (A) (A) (A) (A) (A) (A) (A) (A) (A) (A) (A)
                 (A) (A) (A) (A) (A) (A) (A) (A) (A) (A) (A) (A)
                 (A) (A) (A) (A) (A) (A) (A) (A) (A) (A) (A) (A)
                 (A) (A) (A) (A) (A) (A) (A) (A) (A) (A) (A) (A)
                 (A) (A) (A) (A) (A) (A) (A) (A) (A) (A) (A) (A)
                 (A) (A) (A) (A) (A) (A) (A) (A) (A) (A) (A) (A)
                 (A) (A) (A) (A) (A) (A) (A) (A) (A) (A) (A) (A)
                 (A) (A) (A) (A) (A) (A) (A) (A) (A) (A) (A) (A)
                 (A) (A) (A) (A) (A) (A) (A) (A) (A) (A) (A) (A)
                 (A) (A) (A) (A) (A) (A) (A) (A) (A) (A) (A) (A)
                 (A) (A) (A) (A) (A) (A) (A) (A) (A) (A) (A) (A)
                 (A) (A) (A) (A) (A) (A) (A) (A) (A) (A) (A) (A)
                 (A) (A) (A) (A) (A) (A) (A) (A) (A) (A) (A) (A)
                 (A) (A) (A) (A) (A) (A) (A) (A) (A) (A) (A) (A)
                 (A) (A) (A) (A) (A) (A) (A) (A) (A) (A) (A) (A)
                 (A) (A) (A) (A) (A) (A) (A) (A) (A) (A) (A) (A)
                 (A) (A) (A) (A) (A) (A) (A) (A) (A) (A) (A) (A)
                 (A) (A) (A) (A) (A) (A) (A) (A) (A) (A) (A) (A)
                 (A) (A) (A) (A) (A) (A) (A) (A) (A) (A) (A) (A)
                 (A) (A) (A) (A) (A) (A) (A) (A) (A) (A) (A) (A)
                 (A) (A) (A) (A) (A) (A) (A) (A) (A) (A) (A) (A)
                 (A) (A) (A) (A) (A) (A) (A) (A) (A) (A) (A) (A)
                 (A) (A) (A) (A) (A) (A) (A) (A) (A) (A) (A) (A)
                 (A) (A) (A) (A) (A) (A) (A) (A) (A) (A) (A) (A)
                 (A) (A) (A) (A) (A) (A) (A) (A) (A) (A) (A) (A)
                 (A) (A) (A) (A) (A) (A) (A) (A) (A) (A) (A) (A)
                 (A) (A) (A) (A) (A) (A) (A) (A) (A) (A) (A) (A)
                 (A) (A) (A) (A) (A) (A) (A) (A) (A) (A) (A) (A)
                 (A) (A) (A) (A) (A) (A) (A) (A) (A) (A) (A) (A)
                 (A) (A) (A) (A) (A) (A) (A) (A) (A) (A) (A) (A)
                 (A) (A) (A) (A) (A) (A) (A) (A) (A) (A) (A) (A)
                 (A) (A) (A) (A) (A) (A) (A) (A) (A) (A) (A) (A)
                 (A) (A) (A) (A) (A) (A) (A) (A) (A) (A) (A) (A)
                 (A) (A) (A) (A) (A) (A) (A) (A) (A) (A) (A) (A)
                 (A) (A) (A) (A) (A) (A) (A) (A) (A) (A) (A) (A)
                 (A) (A) (A) (A) (A) (A) (A) (A) (A) (A) (A) (A)
                 (A) (A) (A) (A) (A) (A) (A) (A) (A) (A) (A) (A)
                 (A) (A) (A) (A) (A) (A) (A) (A) (A) (A) (A) (A)
                 (A) (A) (A) (A) (A) (A) (A) (A) (A) (A) (A) (A)
                 (A) (A) (A) (A) (A) (A) (A) (A) (A) (A) (A) (A)
                 (A) (A) (A) (A) (A) (A) (A) (A) (A) (A) (A) (A)
                 (A) (A) (A) (A) (A) (A) (A) (A) (A) (A) (A) (A)
                 (A) (A) (A) (A) (A) (A) (A) (A) (A) (A) (A) (A)
                 (A) (A) (A) (A) (A) (A) (A) (A) (A) (A) (A) (A)
                 (A) (A) (A) (A) (A) (A) (A) (A) (A) (A) (A) (A)
                 (A) (A) (A) (A) (A) (A) (A) (A) (A) (A) (A) (A)
                 (A) (A) (A) (A) (A) (A) (A) (A) (A) (A) (A) (A)
                 (A) (A) (A) (A) (A) (A) (A) (A) (A) (A) (A) (A)
                 (A) (A) (A) (A) (A) (A) (A) (A) (A) (A) (A) (A)
                 (A) (A) (A) (A) (A) (A) (A) (A) (A) (A) (A) (A)
                 (A) (A) (A) (A) (A) (A) (A) (A) (A) (A) (A) (A)
                 (A) (A) (A) (A) (A) (A) (A) (A) (A) (A) (A) (A)
                 (A) (A) (A) (A) (A) (A) (A) (A) (A) (A) (A) (A)
                 (A) (A) (A) (A) (A) (A) (A) (A) (A) (A) (A) (A)
                 (A) (A) (A) (A) (A) (A) (A) (A) (A) (A) (A) (A)
                 (A) (A) (A) (A) (A) (A) (A) (A) (A) (A) (A) (A)
                 (A) (A) (A) (A) (A) (A) (A) (A) (A) (A) (A) (A)
                 (A) (A) (A) (A) (A) (A) (A) (A) (A) (A) (A) (A)
                 (A) (A) (A) (A) (A) (A) (A) (A) (A) (A) (A) (A)
                 (A) (A) (A) (A) (A) (A) (A) (A) (A) (A) (A) (A)
                 (A) (A) (A) (A) (A) (A) (A) (A) (A) (A) (A) (A)
                 (A) (A) (A) (A) (A) (A) (A) (A) (A) (A) (A) (A)
                 (A) (A) (A) (A) (A) (A) (A) (A) (A) (A) (A) (A)
                 (A) (A) (A) (A) (A) (A) (A) (A) (A) (A) (A) (A)
                 (A) (A) (A) (A) (A) (A) (A) (A) (A) (A) (A) (A)
                 (A) (A) (A) (A) (A) (A) (A) (A) (A) (A) (A) (A)
                 (A) (A) (A) (A) (A) (A) (A) (A) (A) (A) (A) (A)
                 (A) (A) (A) (A) (A) (A) (A) (A) (A) (A) (A) (A)
                 (A) (A) (A) (A) (A) (A) (A) (A) (A) (A) (A) (A)
                 (A) (A) (A) (A) (A) (A) (A) (A) (A) (A) (A) (A)
                 (A) (A) (A) (A) (A) (A) (A) (A) (A) (A) (A) (A)
                 (A) (A) (A) (A) (A) (A) (A) (A) (A) (A) (A) (A)
                 (A) (A) (A) (A) (A) (A) (A) (A) (A) (A) (A) (A)
                 (A) (A) (A) (A) (A) (A) (A) (A) (A) (A) (A) (A)
                 (A) (A) (A) (A) (A) (A) (A) (A) (A) (A) (A) (A)
                 (A) (A) (A) (A) (A) (A) (A) (A) (A) (A) (A) (A)
                 (A) (A) (A) (A) (A) (A) (A) (A) (A) (A) (A) (A)
                 (A) (A) (A) (A) (A) (A) (A) (A) (A) (A) (A) (A)
                 (A) (A) (A) (A) (A) (A) (A) (A) (A) (A) (A) (A)
                 (A) (A) (A) (A) (A) (A) (A) (A) (A) (A) (A) (A)
                 (A) (A) (A) (A) (A) (A) (A) (A) (A) (A) (A) (A)
                 (A) (A) (A) (A) (A) (A) (A) (A) (A) (A) (A) (A)
                 (A) (A) (A) (A) (A) (A) (A) (A) (A) (A) (A) (A)
                 (A) (A) (A) (A) (A) (A) (A) (A) (A) (A) (A) (A)
                 (A) (A) (A) (A) (A) (A) (A) (A) (A) (A) (A) (A)
                 (A) (A) (A) (A) (A) (A) (A) (A) (A) (A) (A) (A)
                 (A) (A) (A) (A) (A) (A) (A) (A) (A) (A) (A) (A)
                 (A) (A) (A) (A) (A)
 Beta  Orbitals:
       Occupied  (A) (A) (A) (A) (A) (A) (A) (A) (A) (A) (A) (A)
                 (A) (A) (A) (A) (A) (A) (A) (A) (A) (A) (A) (A)
                 (A) (A) (A) (A) (A) (A) (A) (A) (A) (A) (A) (A)
                 (A) (A) (A) (A) (A) (A) (A) (A) (A) (A) (A) (A)
                 (A) (A) (A) (A) (A) (A) (A) (A) (A) (A) (A) (A)
                 (A) (A) (A) (A) (A) (A) (A) (A) (A) (A) (A) (A)
                 (A) (A) (A) (A) (A) (A) (A) (A) (A) (A) (A) (A)
                 (A) (A) (A) (A) (A) (A) (A) (A) (A) (A) (A) (A)
                 (A) (A) (A) (A) (A) (A) (A) (A) (A) (A) (A) (A)
                 (A) (A) (A) (A) (A) (A) (A) (A) (A) (A) (A) (A)
                 (A) (A) (A) (A) (A) (A) (A) (A) (A) (A) (A) (A)
                 (A) (A) (A) (A) (A) (A) (A) (A) (A) (A) (A) (A)
                 (A) (A) (A) (A) (A) (A) (A) (A) (A) (A) (A) (A)
                 (A) (A) (A) (A) (A) (A) (A) (A) (A) (A) (A) (A)
                 (A) (A) (A) (A) (A) (A) (A) (A) (A) (A) (A) (A)
                 (A) (A) (A) (A) (A) (A) (A) (A) (A) (A) (A) (A)
                 (A) (A) (A) (A) (A) (A) (A) (A) (A) (A) (A) (A)
                 (A)
       Virtual   (A) (A) (A) (A) (A) (A) (A) (A) (A) (A) (A) (A)
                 (A) (A) (A) (A) (A) (A) (A) (A) (A) (A) (A) (A)
                 (A) (A) (A) (A) (A) (A) (A) (A) (A) (A) (A) (A)
                 (A) (A) (A) (A) (A) (A) (A) (A) (A) (A) (A) (A)
                 (A) (A) (A) (A) (A) (A) (A) (A) (A) (A) (A) (A)
                 (A) (A) (A) (A) (A) (A) (A) (A) (A) (A) (A) (A)
                 (A) (A) (A) (A) (A) (A) (A) (A) (A) (A) (A) (A)
                 (A) (A) (A) (A) (A) (A) (A) (A) (A) (A) (A) (A)
                 (A) (A) (A) (A) (A) (A) (A) (A) (A) (A) (A) (A)
                 (A) (A) (A) (A) (A) (A) (A) (A) (A) (A) (A) (A)
                 (A) (A) (A) (A) (A) (A) (A) (A) (A) (A) (A) (A)
                 (A) (A) (A) (A) (A) (A) (A) (A) (A) (A) (A) (A)
                 (A) (A) (A) (A) (A) (A) (A) (A) (A) (A) (A) (A)
                 (A) (A) (A) (A) (A) (A) (A) (A) (A) (A) (A) (A)
                 (A) (A) (A) (A) (A) (A) (A) (A) (A) (A) (A) (A)
                 (A) (A) (A) (A) (A) (A) (A) (A) (A) (A) (A) (A)
                 (A) (A) (A) (A) (A) (A) (A) (A) (A) (A) (A) (A)
                 (A) (A) (A) (A) (A) (A) (A) (A) (A) (A) (A) (A)
                 (A) (A) (A) (A) (A) (A) (A) (A) (A) (A) (A) (A)
                 (A) (A) (A) (A) (A) (A) (A) (A) (A) (A) (A) (A)
                 (A) (A) (A) (A) (A) (A) (A) (A) (A) (A) (A) (A)
                 (A) (A) (A) (A) (A) (A) (A) (A) (A) (A) (A) (A)
                 (A) (A) (A) (A) (A) (A) (A) (A) (A) (A) (A) (A)
                 (A) (A) (A) (A) (A) (A) (A) (A) (A) (A) (A) (A)
                 (A) (A) (A) (A) (A) (A) (A) (A) (A) (A) (A) (A)
                 (A) (A) (A) (A) (A) (A) (A) (A) (A) (A) (A) (A)
                 (A) (A) (A) (A) (A) (A) (A) (A) (A) (A) (A) (A)
                 (A) (A) (A) (A) (A) (A) (A) (A) (A) (A) (A) (A)
                 (A) (A) (A) (A) (A) (A) (A) (A) (A) (A) (A) (A)
                 (A) (A) (A) (A) (A) (A) (A) (A) (A) (A) (A) (A)
                 (A) (A) (A) (A) (A) (A) (A) (A) (A) (A) (A) (A)
                 (A) (A) (A) (A) (A) (A) (A) (A) (A) (A) (A) (A)
                 (A) (A) (A) (A) (A) (A) (A) (A) (A) (A) (A) (A)
                 (A) (A) (A) (A) (A) (A) (A) (A) (A) (A) (A) (A)
                 (A) (A) (A) (A) (A) (A) (A) (A) (A) (A) (A) (A)
                 (A) (A) (A) (A) (A) (A) (A) (A) (A) (A) (A) (A)
                 (A) (A) (A) (A) (A) (A) (A) (A) (A) (A) (A) (A)
                 (A) (A) (A) (A) (A) (A) (A) (A) (A) (A) (A) (A)
                 (A) (A) (A) (A) (A) (A) (A) (A) (A) (A) (A) (A)
                 (A) (A) (A) (A) (A) (A) (A) (A) (A) (A) (A) (A)
                 (A) (A) (A) (A) (A) (A) (A) (A) (A) (A) (A) (A)
                 (A) (A) (A) (A) (A) (A) (A) (A) (A) (A) (A) (A)
                 (A) (A) (A) (A) (A) (A) (A) (A) (A) (A) (A) (A)
                 (A) (A) (A) (A) (A) (A) (A) (A) (A) (A) (A) (A)
                 (A) (A) (A) (A) (A) (A) (A) (A) (A) (A) (A) (A)
                 (A) (A) (A) (A) (A) (A) (A) (A) (A) (A) (A) (A)
                 (A) (A) (A) (A) (A) (A) (A) (A) (A) (A) (A) (A)
                 (A) (A) (A) (A) (A) (A) (A) (A) (A) (A) (A) (A)
                 (A) (A) (A) (A) (A) (A) (A) (A) (A) (A) (A) (A)
                 (A) (A) (A) (A) (A) (A) (A) (A) (A) (A) (A) (A)
                 (A) (A) (A) (A) (A) (A) (A) (A) (A) (A) (A) (A)
                 (A) (A) (A) (A) (A) (A) (A) (A) (A) (A) (A) (A)
                 (A) (A) (A) (A) (A) (A) (A) (A) (A) (A) (A) (A)
                 (A) (A) (A) (A) (A) (A) (A) (A) (A) (A) (A) (A)
                 (A) (A) (A) (A) (A) (A) (A) (A) (A) (A) (A) (A)
                 (A) (A) (A) (A) (A) (A) (A) (A) (A) (A) (A) (A)
                 (A) (A) (A) (A) (A) (A) (A) (A) (A) (A) (A) (A)
                 (A) (A) (A) (A) (A) (A) (A) (A) (A) (A) (A) (A)
                 (A) (A) (A) (A) (A) (A) (A) (A) (A) (A) (A) (A)
                 (A) (A) (A) (A) (A) (A) (A) (A) (A) (A) (A) (A)
                 (A) (A) (A) (A) (A) (A) (A) (A) (A) (A) (A) (A)
                 (A) (A) (A) (A) (A) (A) (A) (A) (A) (A) (A) (A)
                 (A) (A) (A) (A) (A) (A) (A) (A) (A) (A) (A) (A)
                 (A) (A) (A) (A) (A) (A) (A) (A) (A) (A) (A) (A)
                 (A) (A) (A) (A) (A) (A) (A) (A) (A) (A) (A) (A)
                 (A) (A) (A) (A) (A) (A) (A) (A) (A) (A) (A) (A)
                 (A) (A) (A) (A) (A) (A) (A) (A) (A) (A) (A) (A)
                 (A) (A) (A) (A) (A) (A) (A) (A) (A) (A) (A) (A)
                 (A) (A) (A) (A) (A) (A) (A) (A) (A) (A) (A) (A)
                 (A) (A) (A) (A) (A) (A) (A) (A) (A) (A) (A) (A)
                 (A) (A) (A) (A) (A) (A) (A) (A) (A) (A) (A) (A)
                 (A) (A) (A) (A) (A) (A) (A) (A) (A) (A) (A) (A)
                 (A) (A) (A) (A) (A) (A) (A) (A) (A) (A) (A) (A)
                 (A) (A) (A) (A) (A) (A) (A) (A) (A) (A) (A) (A)
                 (A) (A) (A) (A) (A) (A) (A) (A) (A) (A) (A) (A)
                 (A) (A) (A) (A) (A) (A) (A) (A) (A) (A) (A) (A)
                 (A) (A) (A) (A) (A) (A) (A) (A) (A) (A) (A) (A)
                 (A) (A) (A) (A) (A) (A) (A) (A) (A) (A) (A) (A)
                 (A) (A) (A) (A) (A) (A) (A) (A) (A) (A) (A) (A)
                 (A) (A) (A) (A) (A) (A) (A) (A) (A) (A) (A) (A)
                 (A) (A) (A) (A) (A) (A) (A) (A) (A) (A) (A) (A)
                 (A) (A) (A) (A) (A) (A) (A) (A) (A) (A) (A) (A)
                 (A) (A) (A) (A) (A) (A) (A) (A) (A) (A) (A) (A)
                 (A) (A) (A) (A) (A) (A) (A) (A) (A) (A) (A) (A)
                 (A) (A) (A) (A) (A) (A) (A) (A) (A) (A) (A) (A)
                 (A) (A) (A) (A) (A) (A) (A) (A) (A) (A) (A) (A)
                 (A) (A) (A) (A) (A) (A) (A) (A) (A) (A) (A) (A)
                 (A) (A) (A) (A) (A) (A) (A) (A) (A) (A) (A) (A)
                 (A) (A) (A) (A) (A) (A) (A) (A) (A) (A) (A) (A)
                 (A) (A) (A) (A) (A) (A) (A) (A) (A) (A) (A) (A)
                 (A) (A) (A) (A) (A) (A) (A) (A) (A) (A) (A) (A)
                 (A) (A) (A) (A) (A) (A) (A) (A) (A) (A) (A) (A)
                 (A) (A) (A) (A) (A) (A) (A) (A) (A) (A) (A) (A)
                 (A) (A) (A) (A) (A) (A) (A) (A) (A) (A) (A) (A)
                 (A) (A) (A) (A) (A) (A) (A) (A) (A) (A) (A) (A)
                 (A) (A) (A) (A) (A) (A) (A) (A) (A) (A) (A) (A)
                 (A) (A) (A) (A) (A) (A) (A) (A) (A) (A) (A) (A)
                 (A) (A) (A) (A) (A) (A) (A) (A) (A) (A) (A) (A)
                 (A) (A) (A) (A) (A) (A) (A) (A) (A) (A) (A) (A)
                 (A) (A) (A) (A) (A) (A) (A) (A) (A) (A) (A) (A)
                 (A) (A) (A) (A) (A) (A) (A) (A) (A) (A) (A) (A)
                 (A) (A) (A) (A) (A) (A) (A) (A) (A) (A) (A) (A)
                 (A) (A) (A) (A) (A) (A) (A) (A) (A) (A) (A) (A)
                 (A) (A) (A) (A) (A) (A) (A) (A) (A) (A) (A) (A)
                 (A) (A) (A) (A) (A) (A) (A) (A) (A) (A) (A) (A)
                 (A) (A) (A) (A) (A) (A) (A) (A) (A) (A) (A) (A)
                 (A) (A) (A) (A) (A) (A) (A) (A) (A) (A) (A) (A)
                 (A) (A) (A) (A) (A) (A) (A) (A) (A) (A) (A) (A)
                 (A) (A) (A) (A) (A) (A) (A) (A) (A) (A) (A) (A)
                 (A) (A) (A) (A) (A) (A) (A) (A) (A) (A) (A) (A)
                 (A) (A) (A) (A) (A) (A) (A) (A) (A) (A) (A) (A)
                 (A) (A) (A) (A) (A) (A) (A) (A) (A) (A) (A) (A)
                 (A) (A) (A) (A) (A) (A) (A) (A) (A) (A) (A) (A)
                 (A) (A) (A) (A) (A) (A) (A) (A) (A) (A) (A) (A)
                 (A) (A) (A) (A) (A) (A) (A) (A) (A) (A) (A) (A)
                 (A) (A) (A) (A) (A) (A) (A) (A) (A) (A) (A) (A)
                 (A) (A) (A) (A) (A) (A) (A) (A) (A) (A) (A) (A)
                 (A) (A) (A) (A) (A) (A) (A) (A) (A) (A) (A) (A)
                 (A) (A) (A) (A) (A) (A) (A) (A) (A) (A) (A) (A)
                 (A) (A) (A) (A) (A) (A) (A) (A) (A) (A) (A) (A)
                 (A) (A) (A) (A) (A) (A) (A) (A) (A) (A) (A) (A)
                 (A) (A) (A) (A) (A) (A) (A) (A) (A) (A) (A) (A)
                 (A) (A) (A) (A) (A) (A) (A) (A) (A) (A) (A) (A)
                 (A) (A) (A) (A) (A) (A) (A) (A) (A) (A) (A) (A)
                 (A) (A) (A) (A) (A) (A) (A) (A) (A) (A) (A) (A)
                 (A) (A) (A) (A) (A) (A) (A) (A) (A) (A) (A) (A)
                 (A) (A) (A) (A) (A) (A) (A) (A) (A) (A) (A) (A)
                 (A) (A) (A) (A) (A) (A) (A) (A) (A) (A) (A) (A)
                 (A) (A) (A) (A) (A) (A) (A) (A) (A) (A) (A) (A)
                 (A) (A) (A) (A) (A) (A) (A) (A) (A) (A) (A) (A)
                 (A) (A) (A) (A) (A) (A) (A) (A) (A) (A) (A) (A)
                 (A) (A) (A) (A) (A) (A) (A) (A) (A) (A) (A) (A)
                 (A) (A) (A) (A) (A) (A) (A) (A) (A) (A) (A) (A)
                 (A) (A) (A) (A) (A) (A) (A) (A) (A) (A) (A) (A)
                 (A) (A) (A) (A) (A) (A) (A) (A) (A) (A) (A) (A)
                 (A) (A) (A) (A) (A) (A) (A) (A) (A) (A) (A) (A)
                 (A) (A) (A) (A) (A) (A) (A) (A) (A) (A) (A) (A)
                 (A) (A) (A) (A) (A) (A) (A) (A) (A) (A) (A) (A)
                 (A) (A) (A) (A) (A) (A) (A) (A) (A) (A) (A) (A)
                 (A) (A) (A) (A) (A) (A) (A) (A) (A) (A) (A) (A)
                 (A) (A) (A) (A) (A) (A) (A) (A) (A) (A) (A) (A)
                 (A) (A) (A) (A) (A) (A) (A) (A) (A) (A) (A) (A)
                 (A) (A) (A) (A) (A) (A) (A) (A) (A) (A) (A) (A)
                 (A) (A) (A) (A) (A) (A) (A) (A) (A) (A) (A) (A)
                 (A) (A) (A) (A) (A) (A) (A) (A) (A) (A) (A) (A)
                 (A) (A) (A) (A) (A) (A) (A) (A) (A) (A) (A) (A)
                 (A) (A) (A) (A) (A) (A)
 The electronic state is 2-A.
 Alpha  occ. eigenvalues -- -256.51318 -89.15049 -30.29949 -26.12968 -26.12546
 Alpha  occ. eigenvalues --  -26.11271 -19.33585 -19.32974 -19.26383 -19.23516
 Alpha  occ. eigenvalues --  -14.55083 -14.50837 -14.49217 -14.49183 -14.49036
 Alpha  occ. eigenvalues --  -14.49031 -10.43360 -10.41374 -10.38825 -10.36295
 Alpha  occ. eigenvalues --  -10.36080 -10.35995 -10.35938 -10.35843 -10.35761
 Alpha  occ. eigenvalues --  -10.35611 -10.35590 -10.35377 -10.34951 -10.33974
 Alpha  occ. eigenvalues --  -10.33422 -10.33361 -10.33180 -10.32970 -10.32956
 Alpha  occ. eigenvalues --  -10.32762 -10.32585 -10.32370 -10.32312 -10.32278
 Alpha  occ. eigenvalues --  -10.32152 -10.32140 -10.32019 -10.31891 -10.31725
 Alpha  occ. eigenvalues --  -10.31159 -10.31049 -10.30900 -10.30381 -10.30299
 Alpha  occ. eigenvalues --  -10.30230 -10.30044 -10.29945 -10.29307 -10.28970
 Alpha  occ. eigenvalues --  -10.27097 -10.26568  -8.12802  -6.06418  -6.06126
 Alpha  occ. eigenvalues --   -6.05681  -3.65627  -2.42680  -2.41587  -2.39130
 Alpha  occ. eigenvalues --   -1.25510  -1.22672  -1.17249  -1.10914  -1.08297
 Alpha  occ. eigenvalues --   -1.08198  -1.07128  -1.06659  -1.05633  -1.01684
 Alpha  occ. eigenvalues --   -0.95876  -0.94892  -0.94604  -0.93415  -0.92891
 Alpha  occ. eigenvalues --   -0.92142  -0.91376  -0.90834  -0.90547  -0.88347
 Alpha  occ. eigenvalues --   -0.87531  -0.86779  -0.86625  -0.86396  -0.85221
 Alpha  occ. eigenvalues --   -0.83450  -0.82487  -0.82160  -0.81757  -0.81061
 Alpha  occ. eigenvalues --   -0.79875  -0.79275  -0.78913  -0.76808  -0.75723
 Alpha  occ. eigenvalues --   -0.75277  -0.75213  -0.74208  -0.73454  -0.72729
 Alpha  occ. eigenvalues --   -0.72568  -0.72421  -0.70761  -0.69009  -0.67969
 Alpha  occ. eigenvalues --   -0.67031  -0.66139  -0.65039  -0.64879  -0.63855
 Alpha  occ. eigenvalues --   -0.62697  -0.62258  -0.61903  -0.61179  -0.60543
 Alpha  occ. eigenvalues --   -0.60337  -0.60038  -0.59162  -0.58746  -0.58604
 Alpha  occ. eigenvalues --   -0.58434  -0.58373  -0.58177  -0.58054  -0.57958
 Alpha  occ. eigenvalues --   -0.57149  -0.56542  -0.56059  -0.55624  -0.55055
 Alpha  occ. eigenvalues --   -0.54644  -0.54164  -0.53909  -0.53709  -0.53377
 Alpha  occ. eigenvalues --   -0.53216  -0.53172  -0.52981  -0.52887  -0.52660
 Alpha  occ. eigenvalues --   -0.52464  -0.52441  -0.52417  -0.52141  -0.51944
 Alpha  occ. eigenvalues --   -0.51874  -0.51708  -0.51409  -0.51043  -0.50995
 Alpha  occ. eigenvalues --   -0.50672  -0.50447  -0.50312  -0.50267  -0.49818
 Alpha  occ. eigenvalues --   -0.49618  -0.48990  -0.48765  -0.48515  -0.48320
 Alpha  occ. eigenvalues --   -0.48048  -0.47738  -0.47354  -0.47203  -0.47117
 Alpha  occ. eigenvalues --   -0.46911  -0.46832  -0.46263  -0.46019  -0.45452
 Alpha  occ. eigenvalues --   -0.45214  -0.45158  -0.44787  -0.44482  -0.44098
 Alpha  occ. eigenvalues --   -0.43640  -0.43231  -0.43036  -0.42789  -0.42523
 Alpha  occ. eigenvalues --   -0.42490  -0.42110  -0.41849  -0.41759  -0.41532
 Alpha  occ. eigenvalues --   -0.41274  -0.40322  -0.39795  -0.38322  -0.38254
 Alpha  occ. eigenvalues --   -0.37771  -0.37359  -0.36152  -0.34851  -0.34318
 Alpha  occ. eigenvalues --   -0.34084  -0.33446  -0.33331  -0.32884  -0.29610
 Alpha  occ. eigenvalues --   -0.29218
 Alpha virt. eigenvalues --   -0.18099  -0.17807  -0.17520  -0.14339  -0.11222
 Alpha virt. eigenvalues --   -0.10257  -0.08031  -0.07789  -0.07338  -0.06179
 Alpha virt. eigenvalues --   -0.06004  -0.05518  -0.05365  -0.04582  -0.04510
 Alpha virt. eigenvalues --   -0.04110  -0.04033  -0.03723  -0.03363  -0.02875
 Alpha virt. eigenvalues --   -0.02731  -0.02398  -0.02344  -0.02095  -0.01646
 Alpha virt. eigenvalues --   -0.01338  -0.00854  -0.00446  -0.00316  -0.00034
 Alpha virt. eigenvalues --    0.00200   0.00580   0.00846   0.01066   0.01208
 Alpha virt. eigenvalues --    0.01320   0.01881   0.02050   0.02264   0.02445
 Alpha virt. eigenvalues --    0.02545   0.02706   0.02868   0.03169   0.03445
 Alpha virt. eigenvalues --    0.03509   0.03603   0.04072   0.04270   0.04512
 Alpha virt. eigenvalues --    0.05128   0.05286   0.05361   0.05478   0.05521
 Alpha virt. eigenvalues --    0.05623   0.05775   0.05971   0.06002   0.06216
 Alpha virt. eigenvalues --    0.06295   0.06457   0.06588   0.06752   0.06837
 Alpha virt. eigenvalues --    0.07049   0.07398   0.07523   0.07790   0.08222
 Alpha virt. eigenvalues --    0.08399   0.08597   0.09048   0.09124   0.09310
 Alpha virt. eigenvalues --    0.09530   0.09693   0.09911   0.10246   0.10794
 Alpha virt. eigenvalues --    0.10910   0.11009   0.11139   0.11352   0.11470
 Alpha virt. eigenvalues --    0.11657   0.11891   0.12137   0.12249   0.12613
 Alpha virt. eigenvalues --    0.12641   0.12813   0.13021   0.13115   0.13398
 Alpha virt. eigenvalues --    0.13487   0.13711   0.13942   0.14144   0.14226
 Alpha virt. eigenvalues --    0.14456   0.14725   0.15038   0.15119   0.15222
 Alpha virt. eigenvalues --    0.15346   0.15663   0.15832   0.16070   0.16123
 Alpha virt. eigenvalues --    0.16346   0.16815   0.16901   0.17126   0.17311
 Alpha virt. eigenvalues --    0.17530   0.17662   0.18093   0.18188   0.18530
 Alpha virt. eigenvalues --    0.18599   0.18723   0.18845   0.19024   0.19312
 Alpha virt. eigenvalues --    0.19624   0.19752   0.19923   0.20223   0.20343
 Alpha virt. eigenvalues --    0.20510   0.20752   0.21117   0.21183   0.21455
 Alpha virt. eigenvalues --    0.21647   0.21965   0.22082   0.22558   0.22598
 Alpha virt. eigenvalues --    0.22836   0.23082   0.23227   0.23576   0.23620
 Alpha virt. eigenvalues --    0.24081   0.24183   0.24652   0.24951   0.25145
 Alpha virt. eigenvalues --    0.25504   0.25660   0.25740   0.25954   0.26159
 Alpha virt. eigenvalues --    0.26350   0.26482   0.26931   0.27159   0.27517
 Alpha virt. eigenvalues --    0.27800   0.27862   0.27993   0.28318   0.28528
 Alpha virt. eigenvalues --    0.28867   0.28967   0.29096   0.29522   0.29589
 Alpha virt. eigenvalues --    0.29784   0.29939   0.30218   0.30318   0.30476
 Alpha virt. eigenvalues --    0.30819   0.30966   0.31007   0.31168   0.31273
 Alpha virt. eigenvalues --    0.31498   0.31605   0.31861   0.32098   0.32261
 Alpha virt. eigenvalues --    0.32566   0.32825   0.33017   0.33098   0.33368
 Alpha virt. eigenvalues --    0.33505   0.33693   0.33738   0.33842   0.34035
 Alpha virt. eigenvalues --    0.34145   0.34451   0.34790   0.34893   0.35127
 Alpha virt. eigenvalues --    0.35170   0.35479   0.35678   0.35845   0.35912
 Alpha virt. eigenvalues --    0.36284   0.36310   0.36399   0.36550   0.36739
 Alpha virt. eigenvalues --    0.36822   0.36838   0.36952   0.37194   0.37500
 Alpha virt. eigenvalues --    0.37629   0.37735   0.38048   0.38157   0.38319
 Alpha virt. eigenvalues --    0.38444   0.38689   0.38783   0.39012   0.39170
 Alpha virt. eigenvalues --    0.39354   0.39489   0.39589   0.39683   0.39852
 Alpha virt. eigenvalues --    0.40180   0.40267   0.40417   0.40718   0.40935
 Alpha virt. eigenvalues --    0.40941   0.41076   0.41291   0.41520   0.41791
 Alpha virt. eigenvalues --    0.41908   0.41972   0.42267   0.42437   0.42586
 Alpha virt. eigenvalues --    0.42624   0.42841   0.43090   0.43257   0.43554
 Alpha virt. eigenvalues --    0.43698   0.43816   0.43987   0.44201   0.44392
 Alpha virt. eigenvalues --    0.44661   0.44743   0.45061   0.45239   0.45386
 Alpha virt. eigenvalues --    0.45677   0.45890   0.45977   0.46067   0.46276
 Alpha virt. eigenvalues --    0.46486   0.46626   0.46872   0.47126   0.47361
 Alpha virt. eigenvalues --    0.47537   0.47679   0.47715   0.47989   0.48233
 Alpha virt. eigenvalues --    0.48435   0.48483   0.48775   0.48932   0.49461
 Alpha virt. eigenvalues --    0.49530   0.49813   0.49954   0.50229   0.50304
 Alpha virt. eigenvalues --    0.50455   0.50582   0.50918   0.51082   0.51413
 Alpha virt. eigenvalues --    0.51523   0.51736   0.51885   0.52097   0.52375
 Alpha virt. eigenvalues --    0.52652   0.52783   0.52932   0.53660   0.53858
 Alpha virt. eigenvalues --    0.54120   0.54219   0.54293   0.54874   0.55002
 Alpha virt. eigenvalues --    0.55214   0.55318   0.55563   0.55806   0.56186
 Alpha virt. eigenvalues --    0.56665   0.56817   0.56974   0.57396   0.57633
 Alpha virt. eigenvalues --    0.58088   0.58300   0.58677   0.58783   0.59097
 Alpha virt. eigenvalues --    0.59525   0.59573   0.59886   0.60038   0.60394
 Alpha virt. eigenvalues --    0.60779   0.60889   0.60954   0.61270   0.61383
 Alpha virt. eigenvalues --    0.61598   0.62191   0.62411   0.62677   0.62967
 Alpha virt. eigenvalues --    0.63143   0.63275   0.63442   0.63755   0.64125
 Alpha virt. eigenvalues --    0.64270   0.64343   0.64849   0.65120   0.65219
 Alpha virt. eigenvalues --    0.65432   0.65672   0.66176   0.66322   0.66700
 Alpha virt. eigenvalues --    0.66864   0.67142   0.67506   0.67611   0.68066
 Alpha virt. eigenvalues --    0.68274   0.68599   0.68732   0.69066   0.69447
 Alpha virt. eigenvalues --    0.69674   0.69940   0.70145   0.70299   0.70957
 Alpha virt. eigenvalues --    0.71251   0.71549   0.71721   0.71900   0.72145
 Alpha virt. eigenvalues --    0.72374   0.72600   0.73523   0.73692   0.73939
 Alpha virt. eigenvalues --    0.74238   0.74418   0.74649   0.74828   0.75218
 Alpha virt. eigenvalues --    0.75524   0.75832   0.76279   0.76547   0.76814
 Alpha virt. eigenvalues --    0.77045   0.77252   0.77621   0.77765   0.77934
 Alpha virt. eigenvalues --    0.78369   0.78452   0.78795   0.78933   0.79223
 Alpha virt. eigenvalues --    0.79539   0.79946   0.80250   0.80426   0.80820
 Alpha virt. eigenvalues --    0.80919   0.81360   0.81752   0.81854   0.82110
 Alpha virt. eigenvalues --    0.82550   0.82921   0.82968   0.83471   0.83566
 Alpha virt. eigenvalues --    0.83750   0.83914   0.84109   0.84411   0.84750
 Alpha virt. eigenvalues --    0.85043   0.85423   0.85560   0.85931   0.86127
 Alpha virt. eigenvalues --    0.86453   0.86639   0.86972   0.87089   0.87216
 Alpha virt. eigenvalues --    0.87727   0.87828   0.88157   0.88591   0.88710
 Alpha virt. eigenvalues --    0.89064   0.89238   0.89401   0.89885   0.90079
 Alpha virt. eigenvalues --    0.90272   0.90962   0.91080   0.91520   0.91563
 Alpha virt. eigenvalues --    0.91897   0.91959   0.92238   0.92733   0.92930
 Alpha virt. eigenvalues --    0.93306   0.93463   0.93564   0.93898   0.94002
 Alpha virt. eigenvalues --    0.94153   0.94738   0.94953   0.95299   0.95431
 Alpha virt. eigenvalues --    0.95648   0.95760   0.96258   0.96921   0.97416
 Alpha virt. eigenvalues --    0.97506   0.97714   0.98015   0.98427   0.98927
 Alpha virt. eigenvalues --    0.99134   0.99251   0.99594   0.99718   0.99887
 Alpha virt. eigenvalues --    1.00601   1.00816   1.01141   1.01475   1.01638
 Alpha virt. eigenvalues --    1.02327   1.02448   1.02699   1.02808   1.03215
 Alpha virt. eigenvalues --    1.03318   1.03657   1.04074   1.04225   1.04326
 Alpha virt. eigenvalues --    1.04755   1.05151   1.05740   1.05955   1.06061
 Alpha virt. eigenvalues --    1.06612   1.06901   1.07231   1.07682   1.07890
 Alpha virt. eigenvalues --    1.08100   1.08322   1.09002   1.09619   1.09830
 Alpha virt. eigenvalues --    1.10204   1.10657   1.10876   1.11084   1.11367
 Alpha virt. eigenvalues --    1.11554   1.11853   1.12050   1.12442   1.12718
 Alpha virt. eigenvalues --    1.13192   1.13408   1.13671   1.14121   1.14311
 Alpha virt. eigenvalues --    1.14901   1.15067   1.15211   1.15475   1.15743
 Alpha virt. eigenvalues --    1.15943   1.16518   1.17091   1.17262   1.17603
 Alpha virt. eigenvalues --    1.17738   1.18288   1.18527   1.18962   1.19331
 Alpha virt. eigenvalues --    1.19455   1.19661   1.19856   1.20097   1.20662
 Alpha virt. eigenvalues --    1.20920   1.21113   1.21433   1.21855   1.22843
 Alpha virt. eigenvalues --    1.23287   1.23549   1.23950   1.24194   1.24249
 Alpha virt. eigenvalues --    1.25037   1.25287   1.25472   1.26078   1.26373
 Alpha virt. eigenvalues --    1.26789   1.26978   1.27212   1.27711   1.28276
 Alpha virt. eigenvalues --    1.28388   1.28610   1.28809   1.29289   1.29651
 Alpha virt. eigenvalues --    1.30007   1.30259   1.30670   1.31279   1.32078
 Alpha virt. eigenvalues --    1.32395   1.32606   1.33039   1.33490   1.33561
 Alpha virt. eigenvalues --    1.34100   1.35241   1.35386   1.35631   1.36009
 Alpha virt. eigenvalues --    1.36396   1.36751   1.37090   1.37182   1.38005
 Alpha virt. eigenvalues --    1.38388   1.38777   1.39079   1.39192   1.39680
 Alpha virt. eigenvalues --    1.39974   1.40238   1.40533   1.40776   1.41232
 Alpha virt. eigenvalues --    1.41391   1.41489   1.41779   1.42152   1.42627
 Alpha virt. eigenvalues --    1.42795   1.43283   1.43396   1.43522   1.43751
 Alpha virt. eigenvalues --    1.43942   1.44171   1.44437   1.44652   1.44910
 Alpha virt. eigenvalues --    1.45494   1.45570   1.45678   1.45988   1.46017
 Alpha virt. eigenvalues --    1.46519   1.46880   1.46955   1.47121   1.47442
 Alpha virt. eigenvalues --    1.47808   1.48367   1.48487   1.48832   1.49062
 Alpha virt. eigenvalues --    1.49275   1.49485   1.49825   1.50249   1.50353
 Alpha virt. eigenvalues --    1.50882   1.51003   1.51199   1.51616   1.51643
 Alpha virt. eigenvalues --    1.51789   1.51925   1.52224   1.52825   1.52987
 Alpha virt. eigenvalues --    1.53328   1.53517   1.53868   1.53948   1.54016
 Alpha virt. eigenvalues --    1.54490   1.54634   1.54911   1.55105   1.55542
 Alpha virt. eigenvalues --    1.55621   1.55881   1.56069   1.56165   1.56515
 Alpha virt. eigenvalues --    1.56674   1.56905   1.57159   1.57452   1.57717
 Alpha virt. eigenvalues --    1.57946   1.58060   1.58424   1.58512   1.58946
 Alpha virt. eigenvalues --    1.59161   1.59331   1.59822   1.60053   1.60362
 Alpha virt. eigenvalues --    1.60730   1.60852   1.61007   1.61069   1.61483
 Alpha virt. eigenvalues --    1.61573   1.61805   1.62019   1.62168   1.62765
 Alpha virt. eigenvalues --    1.62879   1.63093   1.63251   1.63534   1.64241
 Alpha virt. eigenvalues --    1.64500   1.64540   1.65165   1.65345   1.65568
 Alpha virt. eigenvalues --    1.65662   1.65976   1.66358   1.66729   1.67117
 Alpha virt. eigenvalues --    1.67272   1.67964   1.68222   1.68334   1.68812
 Alpha virt. eigenvalues --    1.69704   1.70086   1.70331   1.70607   1.71045
 Alpha virt. eigenvalues --    1.71320   1.71802   1.72083   1.72957   1.73092
 Alpha virt. eigenvalues --    1.73195   1.73940   1.74101   1.74377   1.74505
 Alpha virt. eigenvalues --    1.75117   1.75393   1.75527   1.76053   1.76325
 Alpha virt. eigenvalues --    1.76555   1.76620   1.77324   1.77691   1.77771
 Alpha virt. eigenvalues --    1.78103   1.78206   1.78388   1.78981   1.79517
 Alpha virt. eigenvalues --    1.79813   1.80187   1.80662   1.80849   1.81100
 Alpha virt. eigenvalues --    1.81219   1.81905   1.82051   1.82359   1.82780
 Alpha virt. eigenvalues --    1.82941   1.83568   1.83743   1.84193   1.84586
 Alpha virt. eigenvalues --    1.84612   1.84909   1.85197   1.85618   1.85814
 Alpha virt. eigenvalues --    1.86670   1.86703   1.86818   1.87481   1.87708
 Alpha virt. eigenvalues --    1.88095   1.88309   1.88548   1.89009   1.89177
 Alpha virt. eigenvalues --    1.89529   1.90024   1.90373   1.90727   1.91080
 Alpha virt. eigenvalues --    1.91217   1.91601   1.92049   1.92295   1.92430
 Alpha virt. eigenvalues --    1.92585   1.92990   1.93179   1.93406   1.94296
 Alpha virt. eigenvalues --    1.94625   1.94879   1.95288   1.95880   1.95920
 Alpha virt. eigenvalues --    1.96475   1.96513   1.97200   1.97955   1.98056
 Alpha virt. eigenvalues --    1.98309   1.98795   1.99186   1.99481   1.99756
 Alpha virt. eigenvalues --    2.00318   2.00586   2.00864   2.00995   2.01641
 Alpha virt. eigenvalues --    2.01919   2.02172   2.02648   2.03015   2.03382
 Alpha virt. eigenvalues --    2.03673   2.03988   2.04525   2.04834   2.05171
 Alpha virt. eigenvalues --    2.05244   2.05576   2.05859   2.06062   2.06319
 Alpha virt. eigenvalues --    2.06702   2.06778   2.07666   2.07998   2.08097
 Alpha virt. eigenvalues --    2.08274   2.08535   2.09139   2.09465   2.09871
 Alpha virt. eigenvalues --    2.10115   2.10776   2.11215   2.11289   2.11814
 Alpha virt. eigenvalues --    2.12233   2.12490   2.12623   2.13392   2.13772
 Alpha virt. eigenvalues --    2.14113   2.14458   2.14810   2.14939   2.15495
 Alpha virt. eigenvalues --    2.15816   2.16247   2.16435   2.16789   2.16970
 Alpha virt. eigenvalues --    2.17616   2.18015   2.18334   2.18447   2.18949
 Alpha virt. eigenvalues --    2.19200   2.19420   2.19690   2.20070   2.20438
 Alpha virt. eigenvalues --    2.20718   2.21343   2.21569   2.22149   2.22555
 Alpha virt. eigenvalues --    2.22753   2.23090   2.23278   2.23928   2.24150
 Alpha virt. eigenvalues --    2.24513   2.24566   2.25054   2.25383   2.25792
 Alpha virt. eigenvalues --    2.26004   2.26215   2.26452   2.27001   2.27074
 Alpha virt. eigenvalues --    2.27545   2.28579   2.28828   2.29254   2.29475
 Alpha virt. eigenvalues --    2.29513   2.29952   2.30671   2.31026   2.31371
 Alpha virt. eigenvalues --    2.31817   2.32099   2.32247   2.32484   2.32704
 Alpha virt. eigenvalues --    2.32981   2.33216   2.33384   2.33945   2.34179
 Alpha virt. eigenvalues --    2.34369   2.34836   2.35159   2.35456   2.36074
 Alpha virt. eigenvalues --    2.36326   2.36759   2.36927   2.37079   2.37350
 Alpha virt. eigenvalues --    2.37567   2.37758   2.38470   2.38864   2.39060
 Alpha virt. eigenvalues --    2.39799   2.40192   2.40353   2.40833   2.41190
 Alpha virt. eigenvalues --    2.41315   2.41637   2.41922   2.42329   2.42841
 Alpha virt. eigenvalues --    2.43265   2.43359   2.43943   2.44061   2.44187
 Alpha virt. eigenvalues --    2.44494   2.44986   2.45613   2.45869   2.45935
 Alpha virt. eigenvalues --    2.46552   2.46725   2.47204   2.47791   2.48014
 Alpha virt. eigenvalues --    2.48118   2.48259   2.48754   2.48998   2.49281
 Alpha virt. eigenvalues --    2.49716   2.49990   2.50431   2.50691   2.51002
 Alpha virt. eigenvalues --    2.51202   2.51273   2.51643   2.51864   2.52045
 Alpha virt. eigenvalues --    2.52199   2.52542   2.52831   2.53093   2.53327
 Alpha virt. eigenvalues --    2.53582   2.53803   2.54397   2.54820   2.55210
 Alpha virt. eigenvalues --    2.55291   2.55433   2.56022   2.56248   2.56708
 Alpha virt. eigenvalues --    2.56813   2.56966   2.57485   2.57636   2.57825
 Alpha virt. eigenvalues --    2.58129   2.58285   2.58502   2.58668   2.58762
 Alpha virt. eigenvalues --    2.59423   2.59462   2.60121   2.60358   2.60604
 Alpha virt. eigenvalues --    2.61132   2.61189   2.61595   2.61756   2.62098
 Alpha virt. eigenvalues --    2.62570   2.62693   2.62828   2.63157   2.63459
 Alpha virt. eigenvalues --    2.63914   2.64091   2.64610   2.64782   2.64852
 Alpha virt. eigenvalues --    2.65530   2.65866   2.66122   2.66698   2.67038
 Alpha virt. eigenvalues --    2.67168   2.67354   2.67483   2.68150   2.68647
 Alpha virt. eigenvalues --    2.68858   2.69096   2.69459   2.69807   2.69991
 Alpha virt. eigenvalues --    2.70317   2.70735   2.70950   2.71142   2.71578
 Alpha virt. eigenvalues --    2.71932   2.72317   2.72659   2.72778   2.73216
 Alpha virt. eigenvalues --    2.73503   2.73816   2.74066   2.74325   2.75045
 Alpha virt. eigenvalues --    2.75251   2.75681   2.75858   2.76482   2.76620
 Alpha virt. eigenvalues --    2.76884   2.77307   2.77524   2.78086   2.78319
 Alpha virt. eigenvalues --    2.78731   2.78923   2.79338   2.79587   2.79932
 Alpha virt. eigenvalues --    2.80023   2.80639   2.80818   2.81388   2.81762
 Alpha virt. eigenvalues --    2.81940   2.82244   2.82735   2.83202   2.83280
 Alpha virt. eigenvalues --    2.83339   2.83896   2.84523   2.84638   2.84957
 Alpha virt. eigenvalues --    2.85291   2.85475   2.85847   2.85883   2.86350
 Alpha virt. eigenvalues --    2.86714   2.87210   2.87426   2.87594   2.88069
 Alpha virt. eigenvalues --    2.88277   2.88599   2.88765   2.88923   2.89393
 Alpha virt. eigenvalues --    2.89776   2.90028   2.90550   2.90630   2.90902
 Alpha virt. eigenvalues --    2.91131   2.91434   2.92026   2.92284   2.92463
 Alpha virt. eigenvalues --    2.92574   2.93043   2.93229   2.93660   2.93929
 Alpha virt. eigenvalues --    2.94163   2.94742   2.95154   2.95178   2.95893
 Alpha virt. eigenvalues --    2.95933   2.96123   2.96308   2.96419   2.96786
 Alpha virt. eigenvalues --    2.97549   2.97690   2.97771   2.98101   2.98440
 Alpha virt. eigenvalues --    2.98574   2.98801   2.99122   2.99473   2.99894
 Alpha virt. eigenvalues --    3.00179   3.00226   3.00311   3.00710   3.01063
 Alpha virt. eigenvalues --    3.01246   3.01301   3.01607   3.01857   3.01970
 Alpha virt. eigenvalues --    3.02695   3.02946   3.03132   3.03223   3.03866
 Alpha virt. eigenvalues --    3.04244   3.04714   3.04928   3.05097   3.05388
 Alpha virt. eigenvalues --    3.05577   3.05764   3.05916   3.06576   3.06931
 Alpha virt. eigenvalues --    3.07283   3.07617   3.07652   3.07844   3.08140
 Alpha virt. eigenvalues --    3.08252   3.08745   3.09168   3.09423   3.09473
 Alpha virt. eigenvalues --    3.09892   3.09951   3.10334   3.11008   3.11108
 Alpha virt. eigenvalues --    3.11238   3.11438   3.11903   3.12119   3.12256
 Alpha virt. eigenvalues --    3.12602   3.12763   3.12942   3.13315   3.13803
 Alpha virt. eigenvalues --    3.14163   3.14427   3.14693   3.14717   3.15035
 Alpha virt. eigenvalues --    3.15295   3.15310   3.15580   3.15852   3.16123
 Alpha virt. eigenvalues --    3.16403   3.16614   3.16638   3.16953   3.17456
 Alpha virt. eigenvalues --    3.17549   3.17863   3.18025   3.18307   3.18530
 Alpha virt. eigenvalues --    3.18824   3.19106   3.19149   3.19526   3.19727
 Alpha virt. eigenvalues --    3.19937   3.20217   3.20244   3.20286   3.20689
 Alpha virt. eigenvalues --    3.20758   3.21241   3.21760   3.21833   3.22350
 Alpha virt. eigenvalues --    3.22537   3.22807   3.22994   3.23344   3.23642
 Alpha virt. eigenvalues --    3.23716   3.23898   3.24092   3.24551   3.24692
 Alpha virt. eigenvalues --    3.25222   3.25515   3.25775   3.25803   3.26041
 Alpha virt. eigenvalues --    3.26484   3.26528   3.26905   3.27101   3.27291
 Alpha virt. eigenvalues --    3.27481   3.27588   3.27786   3.28226   3.28385
 Alpha virt. eigenvalues --    3.28551   3.28677   3.28927   3.29057   3.29482
 Alpha virt. eigenvalues --    3.29804   3.30122   3.30744   3.30830   3.31206
 Alpha virt. eigenvalues --    3.31323   3.31488   3.31775   3.32037   3.32267
 Alpha virt. eigenvalues --    3.32485   3.32591   3.33172   3.33395   3.33701
 Alpha virt. eigenvalues --    3.33995   3.34319   3.34613   3.34778   3.35188
 Alpha virt. eigenvalues --    3.35320   3.35589   3.35739   3.35829   3.36383
 Alpha virt. eigenvalues --    3.36668   3.36791   3.37340   3.37500   3.37682
 Alpha virt. eigenvalues --    3.38079   3.38206   3.38367   3.38791   3.39078
 Alpha virt. eigenvalues --    3.39320   3.39572   3.39857   3.40228   3.40399
 Alpha virt. eigenvalues --    3.40806   3.41017   3.41484   3.41714   3.41980
 Alpha virt. eigenvalues --    3.42130   3.42607   3.42867   3.42959   3.43638
 Alpha virt. eigenvalues --    3.44179   3.44227   3.44644   3.44929   3.45265
 Alpha virt. eigenvalues --    3.45554   3.45885   3.46266   3.46613   3.46706
 Alpha virt. eigenvalues --    3.47424   3.47575   3.47643   3.48192   3.48605
 Alpha virt. eigenvalues --    3.49032   3.49553   3.49661   3.49928   3.50265
 Alpha virt. eigenvalues --    3.50692   3.51238   3.51622   3.51990   3.52440
 Alpha virt. eigenvalues --    3.52667   3.52944   3.53217   3.53439   3.53819
 Alpha virt. eigenvalues --    3.53961   3.54349   3.54787   3.54895   3.55246
 Alpha virt. eigenvalues --    3.55424   3.55620   3.56250   3.56584   3.57200
 Alpha virt. eigenvalues --    3.57664   3.58015   3.58112   3.58401   3.58747
 Alpha virt. eigenvalues --    3.59255   3.59348   3.59686   3.60134   3.60651
 Alpha virt. eigenvalues --    3.61239   3.61348   3.61787   3.62191   3.62352
 Alpha virt. eigenvalues --    3.62851   3.63298   3.63569   3.64061   3.64682
 Alpha virt. eigenvalues --    3.64719   3.65206   3.65488   3.65640   3.66261
 Alpha virt. eigenvalues --    3.66524   3.67057   3.67379   3.67418   3.67848
 Alpha virt. eigenvalues --    3.68509   3.68730   3.69072   3.69263   3.69871
 Alpha virt. eigenvalues --    3.70141   3.71022   3.71441   3.72036   3.72850
 Alpha virt. eigenvalues --    3.73034   3.73588   3.74114   3.74507   3.74742
 Alpha virt. eigenvalues --    3.75399   3.75491   3.76326   3.76416   3.76838
 Alpha virt. eigenvalues --    3.77209   3.77643   3.77923   3.78480   3.78708
 Alpha virt. eigenvalues --    3.79068   3.79987   3.80075   3.80304   3.80948
 Alpha virt. eigenvalues --    3.81206   3.81499   3.81904   3.82210   3.82326
 Alpha virt. eigenvalues --    3.82865   3.83329   3.84269   3.84758   3.85159
 Alpha virt. eigenvalues --    3.85536   3.85992   3.86677   3.87040   3.87410
 Alpha virt. eigenvalues --    3.87492   3.87792   3.88576   3.89356   3.89406
 Alpha virt. eigenvalues --    3.89936   3.90362   3.90559   3.91110   3.91261
 Alpha virt. eigenvalues --    3.91908   3.92218   3.92427   3.92779   3.93092
 Alpha virt. eigenvalues --    3.94002   3.94414   3.94503   3.94908   3.95694
 Alpha virt. eigenvalues --    3.96378   3.96837   3.97415   3.97862   3.98615
 Alpha virt. eigenvalues --    3.98748   3.99552   4.00189   4.00374   4.01062
 Alpha virt. eigenvalues --    4.01866   4.02089   4.02790   4.03074   4.03257
 Alpha virt. eigenvalues --    4.03735   4.04022   4.04744   4.05265   4.05792
 Alpha virt. eigenvalues --    4.06193   4.06644   4.07273   4.08310   4.08483
 Alpha virt. eigenvalues --    4.09281   4.09782   4.10103   4.10753   4.11039
 Alpha virt. eigenvalues --    4.11661   4.11731   4.12722   4.13126   4.13398
 Alpha virt. eigenvalues --    4.14326   4.14380   4.14730   4.15296   4.15673
 Alpha virt. eigenvalues --    4.15840   4.16308   4.16521   4.17092   4.17467
 Alpha virt. eigenvalues --    4.18150   4.18748   4.19340   4.19975   4.20249
 Alpha virt. eigenvalues --    4.20681   4.21417   4.21602   4.21713   4.22445
 Alpha virt. eigenvalues --    4.22907   4.23367   4.24151   4.24450   4.25371
 Alpha virt. eigenvalues --    4.25848   4.26382   4.26454   4.26670   4.27834
 Alpha virt. eigenvalues --    4.28178   4.29023   4.29228   4.29703   4.29978
 Alpha virt. eigenvalues --    4.30479   4.31068   4.31168   4.31471   4.32199
 Alpha virt. eigenvalues --    4.32380   4.33151   4.33336   4.33733   4.33954
 Alpha virt. eigenvalues --    4.34489   4.35202   4.35712   4.36231   4.36820
 Alpha virt. eigenvalues --    4.37049   4.37306   4.37623   4.38222   4.38724
 Alpha virt. eigenvalues --    4.39008   4.40818   4.41542   4.41807   4.42350
 Alpha virt. eigenvalues --    4.43515   4.44136   4.45257   4.45752   4.46177
 Alpha virt. eigenvalues --    4.46780   4.47229   4.47324   4.48713   4.49044
 Alpha virt. eigenvalues --    4.50103   4.51359   4.51462   4.52307   4.52340
 Alpha virt. eigenvalues --    4.52932   4.53152   4.54319   4.54690   4.55494
 Alpha virt. eigenvalues --    4.56200   4.56459   4.56751   4.57706   4.57818
 Alpha virt. eigenvalues --    4.58522   4.59120   4.59444   4.59751   4.60479
 Alpha virt. eigenvalues --    4.60624   4.61239   4.61609   4.62208   4.62567
 Alpha virt. eigenvalues --    4.63534   4.63708   4.64675   4.65387   4.65976
 Alpha virt. eigenvalues --    4.66682   4.66742   4.68091   4.68647   4.69795
 Alpha virt. eigenvalues --    4.70055   4.70583   4.71787   4.72613   4.72992
 Alpha virt. eigenvalues --    4.73531   4.73857   4.74837   4.75344   4.76711
 Alpha virt. eigenvalues --    4.77355   4.77663   4.77908   4.78649   4.79274
 Alpha virt. eigenvalues --    4.80109   4.80527   4.81043   4.81725   4.81961
 Alpha virt. eigenvalues --    4.82508   4.82589   4.83132   4.83430   4.84044
 Alpha virt. eigenvalues --    4.84418   4.85419   4.85772   4.87342   4.87558
 Alpha virt. eigenvalues --    4.88052   4.88155   4.89203   4.89636   4.91408
 Alpha virt. eigenvalues --    4.91973   4.92928   4.93179   4.94179   4.95801
 Alpha virt. eigenvalues --    4.97417   4.99773   5.00264   5.01553   5.02374
 Alpha virt. eigenvalues --    5.02678   5.05138   5.06421   5.06986   5.08810
 Alpha virt. eigenvalues --    5.08956   5.10039   5.10246   5.11571   5.11916
 Alpha virt. eigenvalues --    5.12281   5.12588   5.13051   5.13841   5.15529
 Alpha virt. eigenvalues --    5.15910   5.16126   5.16630   5.17015   5.17526
 Alpha virt. eigenvalues --    5.18128   5.19281   5.21060   5.22087   5.22232
 Alpha virt. eigenvalues --    5.23951   5.24226   5.24497   5.25084   5.25418
 Alpha virt. eigenvalues --    5.27935   5.28514   5.29339   5.31626   5.32184
 Alpha virt. eigenvalues --    5.32596   5.33132   5.33270   5.33584   5.34755
 Alpha virt. eigenvalues --    5.35479   5.36210   5.36980   5.37338   5.39041
 Alpha virt. eigenvalues --    5.40865   5.43624   5.45174   5.46001   5.46765
 Alpha virt. eigenvalues --    5.48151   5.50092   5.51457   5.52323   5.52495
 Alpha virt. eigenvalues --    5.52893   5.53502   5.54175   5.55408   5.57008
 Alpha virt. eigenvalues --    5.57451   5.57701   5.62259   5.64387   5.66937
 Alpha virt. eigenvalues --    5.68554   5.69424   5.72586   5.73361   5.73909
 Alpha virt. eigenvalues --    5.78621   5.81174   5.82394   5.84314   5.84444
 Alpha virt. eigenvalues --    5.86219   5.87831   5.88638   5.89228   5.89729
 Alpha virt. eigenvalues --    5.93599   5.94406   5.96426   5.98039   5.99130
 Alpha virt. eigenvalues --    5.99865   6.01263   6.03680   6.07819   6.08001
 Alpha virt. eigenvalues --    6.09566   6.10792   6.15270   6.16053   6.16885
 Alpha virt. eigenvalues --    6.18647   6.20049   6.26903   6.31008   6.31792
 Alpha virt. eigenvalues --    6.36857   6.37156   6.40651   6.40712   6.42112
 Alpha virt. eigenvalues --    6.48542   6.59328   6.67894   6.69643   6.70151
 Alpha virt. eigenvalues --    6.79974   6.80087   6.85405   6.88431   6.91584
 Alpha virt. eigenvalues --    7.01914   7.06155   7.07296   7.12739   7.13762
 Alpha virt. eigenvalues --    7.17989   7.22617   9.14363   9.37923   9.46437
 Alpha virt. eigenvalues --   20.02517  22.33555  22.40184  22.44970  22.45214
 Alpha virt. eigenvalues --   22.45798  22.45978  22.48280  22.49402  22.56085
 Alpha virt. eigenvalues --   22.59878  22.61391  22.61831  22.62934  22.66302
 Alpha virt. eigenvalues --   22.70352  22.76637  22.79085  22.80994  22.81853
 Alpha virt. eigenvalues --   22.85211  22.88446  22.90768  22.93583  22.97191
 Alpha virt. eigenvalues --   23.00656  23.05456  23.07852  23.10858  23.11686
 Alpha virt. eigenvalues --   23.19081  23.22589  23.25145  23.31588  23.36927
 Alpha virt. eigenvalues --   23.39017  23.48143  23.56058  23.57239  23.60246
 Alpha virt. eigenvalues --   23.63338  23.71984  32.37920  32.66173  32.83261
 Alpha virt. eigenvalues --   32.90158  32.95394  33.02667  43.86990  43.89057
 Alpha virt. eigenvalues --   43.93225  44.05954
  Beta  occ. eigenvalues -- -256.51283 -89.15089 -30.27648 -26.10678 -26.10563
  Beta  occ. eigenvalues --  -26.09752 -19.33585 -19.32974 -19.26383 -19.23516
  Beta  occ. eigenvalues --  -14.55085 -14.50930 -14.49283 -14.49245 -14.49091
  Beta  occ. eigenvalues --  -14.49086 -10.43360 -10.41374 -10.38819 -10.36298
  Beta  occ. eigenvalues --  -10.36066 -10.35986 -10.35925 -10.35841 -10.35750
  Beta  occ. eigenvalues --  -10.35612 -10.35590 -10.35376 -10.34948 -10.33974
  Beta  occ. eigenvalues --  -10.33402 -10.33356 -10.33190 -10.32978 -10.32966
  Beta  occ. eigenvalues --  -10.32741 -10.32557 -10.32376 -10.32291 -10.32284
  Beta  occ. eigenvalues --  -10.32157 -10.32144 -10.32024 -10.31892 -10.31726
  Beta  occ. eigenvalues --  -10.31161 -10.31053 -10.30900 -10.30382 -10.30299
  Beta  occ. eigenvalues --  -10.30230 -10.30045 -10.29946 -10.29308 -10.28972
  Beta  occ. eigenvalues --  -10.27097 -10.26568  -8.12840  -6.06443  -6.06181
  Beta  occ. eigenvalues --   -6.05772  -3.59972  -2.35648  -2.35068  -2.34403
  Beta  occ. eigenvalues --   -1.25509  -1.22672  -1.17283  -1.10914  -1.08298
  Beta  occ. eigenvalues --   -1.08225  -1.07152  -1.06679  -1.05653  -1.01761
  Beta  occ. eigenvalues --   -0.95965  -0.94896  -0.94595  -0.93419  -0.92895
  Beta  occ. eigenvalues --   -0.92139  -0.91384  -0.90841  -0.90538  -0.88344
  Beta  occ. eigenvalues --   -0.87532  -0.86786  -0.86651  -0.86400  -0.85233
  Beta  occ. eigenvalues --   -0.83456  -0.82496  -0.82169  -0.81762  -0.81070
  Beta  occ. eigenvalues --   -0.79924  -0.79276  -0.78917  -0.76817  -0.75725
  Beta  occ. eigenvalues --   -0.75314  -0.75217  -0.74212  -0.73457  -0.72738
  Beta  occ. eigenvalues --   -0.72573  -0.72424  -0.70815  -0.69002  -0.67960
  Beta  occ. eigenvalues --   -0.67043  -0.66142  -0.65042  -0.64883  -0.63869
  Beta  occ. eigenvalues --   -0.62715  -0.62279  -0.61915  -0.61195  -0.60558
  Beta  occ. eigenvalues --   -0.60336  -0.60025  -0.59173  -0.58741  -0.58605
  Beta  occ. eigenvalues --   -0.58443  -0.58371  -0.58176  -0.58040  -0.57949
  Beta  occ. eigenvalues --   -0.57144  -0.56547  -0.56067  -0.55621  -0.55054
  Beta  occ. eigenvalues --   -0.54611  -0.54007  -0.53899  -0.53677  -0.53395
  Beta  occ. eigenvalues --   -0.53193  -0.53131  -0.53000  -0.52903  -0.52622
  Beta  occ. eigenvalues --   -0.52457  -0.52444  -0.52399  -0.52147  -0.51935
  Beta  occ. eigenvalues --   -0.51821  -0.51664  -0.51404  -0.50970  -0.50802
  Beta  occ. eigenvalues --   -0.50668  -0.50382  -0.50279  -0.50174  -0.49779
  Beta  occ. eigenvalues --   -0.49567  -0.49000  -0.48763  -0.48533  -0.48313
  Beta  occ. eigenvalues --   -0.47961  -0.47719  -0.47325  -0.47082  -0.47030
  Beta  occ. eigenvalues --   -0.46756  -0.46467  -0.46110  -0.45550  -0.45246
  Beta  occ. eigenvalues --   -0.45199  -0.44745  -0.44499  -0.44170  -0.43875
  Beta  occ. eigenvalues --   -0.43123  -0.42941  -0.42681  -0.42521  -0.42497
  Beta  occ. eigenvalues --   -0.41954  -0.41856  -0.41678  -0.41512  -0.41287
  Beta  occ. eigenvalues --   -0.39008  -0.38628  -0.38319  -0.38296  -0.37577
  Beta  occ. eigenvalues --   -0.36298  -0.36151  -0.35024  -0.34507  -0.34125
  Beta  occ. eigenvalues --   -0.33654  -0.33283  -0.32544  -0.29677  -0.29143
  Beta virt. eigenvalues --   -0.19614  -0.17697  -0.15714  -0.15114  -0.11469
  Beta virt. eigenvalues --   -0.11182  -0.10245  -0.08027  -0.07767  -0.07302
  Beta virt. eigenvalues --   -0.06164  -0.06000  -0.05515  -0.05362  -0.04560
  Beta virt. eigenvalues --   -0.04526  -0.04038  -0.04033  -0.03509  -0.03196
  Beta virt. eigenvalues --   -0.02871  -0.02728  -0.02380  -0.02344  -0.02057
  Beta virt. eigenvalues --   -0.01638  -0.01335  -0.00821  -0.00436  -0.00310
  Beta virt. eigenvalues --   -0.00027   0.00209   0.00594   0.00847   0.01067
  Beta virt. eigenvalues --    0.01229   0.01356   0.01913   0.02064   0.02323
  Beta virt. eigenvalues --    0.02440   0.02564   0.02725   0.02905   0.03185
  Beta virt. eigenvalues --    0.03457   0.03523   0.03615   0.04105   0.04303
  Beta virt. eigenvalues --    0.04518   0.05144   0.05288   0.05373   0.05483
  Beta virt. eigenvalues --    0.05527   0.05626   0.05791   0.05978   0.06008
  Beta virt. eigenvalues --    0.06224   0.06301   0.06461   0.06598   0.06755
  Beta virt. eigenvalues --    0.06844   0.07055   0.07402   0.07545   0.07801
  Beta virt. eigenvalues --    0.08229   0.08416   0.08599   0.09056   0.09139
  Beta virt. eigenvalues --    0.09312   0.09546   0.09706   0.09919   0.10250
  Beta virt. eigenvalues --    0.10802   0.10914   0.11001   0.11147   0.11355
  Beta virt. eigenvalues --    0.11473   0.11659   0.11908   0.12147   0.12261
  Beta virt. eigenvalues --    0.12621   0.12652   0.12854   0.13036   0.13175
  Beta virt. eigenvalues --    0.13403   0.13493   0.13722   0.13987   0.14192
  Beta virt. eigenvalues --    0.14247   0.14469   0.14738   0.15058   0.15143
  Beta virt. eigenvalues --    0.15240   0.15398   0.15685   0.15842   0.16061
  Beta virt. eigenvalues --    0.16164   0.16360   0.16837   0.16921   0.17155
  Beta virt. eigenvalues --    0.17364   0.17582   0.17689   0.18099   0.18209
  Beta virt. eigenvalues --    0.18536   0.18603   0.18751   0.18864   0.19074
  Beta virt. eigenvalues --    0.19333   0.19628   0.19773   0.19987   0.20228
  Beta virt. eigenvalues --    0.20358   0.20533   0.20760   0.21158   0.21201
  Beta virt. eigenvalues --    0.21532   0.21658   0.21986   0.22107   0.22583
  Beta virt. eigenvalues --    0.22687   0.22864   0.23106   0.23236   0.23589
  Beta virt. eigenvalues --    0.23639   0.24108   0.24219   0.24728   0.24977
  Beta virt. eigenvalues --    0.25160   0.25518   0.25702   0.25744   0.25967
  Beta virt. eigenvalues --    0.26181   0.26349   0.26507   0.26939   0.27183
  Beta virt. eigenvalues --    0.27535   0.27862   0.27939   0.28018   0.28332
  Beta virt. eigenvalues --    0.28556   0.28877   0.28978   0.29129   0.29524
  Beta virt. eigenvalues --    0.29590   0.29842   0.29998   0.30226   0.30325
  Beta virt. eigenvalues --    0.30514   0.30846   0.31004   0.31012   0.31178
  Beta virt. eigenvalues --    0.31297   0.31495   0.31617   0.31868   0.32127
  Beta virt. eigenvalues --    0.32288   0.32604   0.32840   0.33040   0.33142
  Beta virt. eigenvalues --    0.33389   0.33526   0.33717   0.33787   0.33881
  Beta virt. eigenvalues --    0.34041   0.34176   0.34457   0.34805   0.34904
  Beta virt. eigenvalues --    0.35146   0.35188   0.35506   0.35694   0.35851
  Beta virt. eigenvalues --    0.35934   0.36300   0.36318   0.36418   0.36570
  Beta virt. eigenvalues --    0.36754   0.36834   0.36873   0.36963   0.37205
  Beta virt. eigenvalues --    0.37507   0.37630   0.37734   0.38054   0.38156
  Beta virt. eigenvalues --    0.38326   0.38449   0.38703   0.38791   0.39011
  Beta virt. eigenvalues --    0.39178   0.39358   0.39497   0.39595   0.39707
  Beta virt. eigenvalues --    0.39875   0.40203   0.40278   0.40423   0.40716
  Beta virt. eigenvalues --    0.40934   0.40958   0.41079   0.41298   0.41518
  Beta virt. eigenvalues --    0.41806   0.41921   0.41984   0.42283   0.42442
  Beta virt. eigenvalues --    0.42598   0.42628   0.42850   0.43116   0.43283
  Beta virt. eigenvalues --    0.43576   0.43698   0.43847   0.44009   0.44231
  Beta virt. eigenvalues --    0.44462   0.44665   0.44767   0.45108   0.45257
  Beta virt. eigenvalues --    0.45393   0.45680   0.45911   0.45996   0.46075
  Beta virt. eigenvalues --    0.46294   0.46497   0.46644   0.46878   0.47145
  Beta virt. eigenvalues --    0.47367   0.47542   0.47682   0.47725   0.47995
  Beta virt. eigenvalues --    0.48256   0.48455   0.48496   0.48782   0.48963
  Beta virt. eigenvalues --    0.49478   0.49534   0.49821   0.49965   0.50253
  Beta virt. eigenvalues --    0.50325   0.50462   0.50587   0.50919   0.51086
  Beta virt. eigenvalues --    0.51415   0.51526   0.51738   0.51915   0.52108
  Beta virt. eigenvalues --    0.52392   0.52681   0.52791   0.52957   0.53677
  Beta virt. eigenvalues --    0.53877   0.54135   0.54245   0.54298   0.54918
  Beta virt. eigenvalues --    0.55018   0.55214   0.55327   0.55568   0.55825
  Beta virt. eigenvalues --    0.56213   0.56680   0.56825   0.56987   0.57517
[...]
  1743. RY*(   5) H  84                  0.00001     2.87736   
  1744. RY*(   1) H  85                  0.00084     0.64411   
  1745. RY*(   2) H  85                  0.00013     2.05944   
  1746. RY*(   3) H  85                  0.00013     2.16338   
  1747. RY*(   4) H  85                  0.00006     2.95023   
  1748. RY*(   5) H  85                  0.00001     3.15918   
  1749. RY*(   1) H  86                  0.00086     0.62179   
  1750. RY*(   2) H  86                  0.00008     2.53588   
  1751. RY*(   3) H  86                  0.00008     2.24193   
  1752. RY*(   4) H  86                  0.00003     2.32031   
  1753. RY*(   5) H  86                  0.00000     2.91561   
  1754. RY*(   1) H  87                  0.00073     0.66021   
  1755. RY*(   2) H  87                  0.00008     2.43626   
  1756. RY*(   3) H  87                  0.00007     2.41016   
  1757. RY*(   4) H  87                  0.00004     2.24295   
  1758. RY*(   5) H  87                  0.00000     2.96630   
  1759. RY*(   1) H  88                  0.00036     1.11651   
  1760. RY*(   2) H  88                  0.00009     1.43211   
  1761. RY*(   3) H  88                  0.00006     2.33980   
  1762. RY*(   4) H  88                  0.00001     2.63161   
  1763. RY*(   5) H  88                  0.00001     2.77098   
  1764. RY*(   1) H  89                  0.00022     0.91716   
  1765. RY*(   2) H  89                  0.00008     1.82105   
  1766. RY*(   3) H  89                  0.00005     2.19743   
  1767. RY*(   4) H  89                  0.00003     2.22584   
  1768. RY*(   5) H  89                  0.00000     2.86306   
  1769. RY*(   1) H  90                  0.00034     1.05753   
  1770. RY*(   2) H  90                  0.00009     2.00315   
  1771. RY*(   3) H  90                  0.00006     1.88344   
  1772. RY*(   4) H  90                  0.00002     2.49560   
  1773. RY*(   5) H  90                  0.00001     2.88206   
  1774. RY*(   1) H  91                  0.00032     1.04430   
  1775. RY*(   2) H  91                  0.00008     1.46218   
  1776. RY*(   3) H  91                  0.00008     2.24593   
  1777. RY*(   4) H  91                  0.00004     2.14901   
  1778. RY*(   5) H  91                  0.00001     2.93249   
  1779. RY*(   1) H  92                  0.00025     1.27843   
  1780. RY*(   2) H  92                  0.00010     1.79270   
  1781. RY*(   3) H  92                  0.00002     2.54801   
  1782. RY*(   4) H  92                  0.00003     2.13984   
  1783. RY*(   5) H  92                  0.00001     2.04187   
  1784. RY*(   1) H  93                  0.00036     1.00786   
  1785. RY*(   2) H  93                  0.00008     1.77751   
  1786. RY*(   3) H  93                  0.00005     1.96660   
  1787. RY*(   4) H  93                  0.00003     1.93807   
  1788. RY*(   5) H  93                  0.00001     2.96836   
  1789. RY*(   1) H  94                  0.00104     0.59244   
  1790. RY*(   2) H  94                  0.00014     2.06359   
  1791. RY*(   3) H  94                  0.00013     2.16332   
  1792. RY*(   4) H  94                  0.00006     2.99735   
  1793. RY*(   5) H  94                  0.00001     3.18175   
  1794. RY*(   1) H  95                  0.00029     1.02629   
  1795. RY*(   2) H  95                  0.00009     1.67944   
  1796. RY*(   3) H  95                  0.00003     2.02739   
  1797. RY*(   4) H  95                  0.00003     1.89854   
  1798. RY*(   5) H  95                  0.00000     2.86393   
  1799. RY*(   1) H  96                  0.00038     0.93271   
  1800. RY*(   2) H  96                  0.00006     1.61577   
  1801. RY*(   3) H  96                  0.00006     2.16483   
  1802. RY*(   4) H  96                  0.00003     2.00245   
  1803. RY*(   5) H  96                  0.00000     2.96132   
  1804. RY*(   1) H  97                  0.00037     1.04639   
  1805. RY*(   2) H  97                  0.00008     1.56680   
  1806. RY*(   3) H  97                  0.00003     2.04132   
  1807. RY*(   4) H  97                  0.00002     2.05813   
  1808. RY*(   5) H  97                  0.00001     2.77767   
  1809. RY*(   1) H  98                  0.00080     0.68779   
  1810. RY*(   2) H  98                  0.00014     2.14804   
  1811. RY*(   3) H  98                  0.00011     2.10026   
  1812. RY*(   4) H  98                  0.00006     2.91745   
  1813. RY*(   5) H  98                  0.00001     3.16800   
  1814. RY*(   1) H  99                  0.00032     1.68660   
  1815. RY*(   2) H  99                  0.00008     2.62928   
  1816. RY*(   3) H  99                  0.00004     1.33800   
  1817. RY*(   4) H  99                  0.00005     2.27953   
  1818. RY*(   5) H  99                  0.00000     2.84030   
  1819. RY*(   1) H 100                  0.00037     1.70425   
  1820. RY*(   2) H 100                  0.00009     2.61936   
  1821. RY*(   3) H 100                  0.00005     2.31904   
  1822. RY*(   4) H 100                  0.00003     1.19199   
  1823. RY*(   5) H 100                  0.00000     3.03312   
  1824. RY*(   1) H 101                  0.00023     1.14427   
  1825. RY*(   2) H 101                  0.00007     1.56573   
  1826. RY*(   3) H 101                  0.00006     2.30078   
  1827. RY*(   4) H 101                  0.00003     2.44938   
  1828. RY*(   5) H 101                  0.00000     2.74847   
  1829. RY*(   1) H 102                  0.00042     0.95297   
  1830. RY*(   2) H 102                  0.00007     2.11533   
  1831. RY*(   3) H 102                  0.00004     2.28575   
  1832. RY*(   4) H 102                  0.00004     2.07394   
  1833. RY*(   5) H 102                  0.00001     2.96596   
  1834. RY*(   1) H 103                  0.00041     2.02190   
  1835. RY*(   2) H 103                  0.00032     1.53263   
  1836. RY*(   3) H 103                  0.00014     2.14183   
  1837. RY*(   4) H 103                  0.00010     1.41831   
  1838. RY*(   5) H 103                  0.00000     3.25084   
  1852. BD*(   1) C   7 - C   8          0.00399     0.23029   
  1853. BD*(   1) C   7 - H  59          0.00504     0.30779   
  1854. BD*(   1) C   7 - H  60          0.00330     0.31976   
  1855. BD*(   1) C   7 - H  61          0.00263     0.30216   
  1856. BD*(   1) C   8 - S   9          0.01639     0.05822   
  1857. BD*(   1) C   8 - H  57          0.01050     0.30319   
  1858. BD*(   1) C   8 - H  58          0.00626     0.30041   
  1859. BD*(   1) S   9 - C  10          0.00933     0.06741   
  1860. BD*(   1) S   9 -Fe  53          0.04613     0.15545   
  1861. BD*(   1) C  10 - H  54          0.00542     0.28850   
  1862. BD*(   1) C  10 - H  55          0.00707     0.29317   
  1863. BD*(   1) C  10 - H  56          0.00780     0.31976   
  1864. BD*(   1) C  11 - C  15          0.01030     0.41114   
  1865. BD*(   1) C  11 - C  42          0.00993     0.41567   
  1866. BD*(   2) C  11 - C  42          0.19223    -0.06439  1882(v),1942(v),1940(v)
                                                    470(g),1869(r),1877(r)
  1867. BD*(   1) C  11 - H  98          0.00547     0.36169   
  1868. BD*(   1) C  12 - C  18          0.01079     0.47827   
  1869. BD*(   2) C  12 - C  18          0.21159    -0.06011  1884(v),1904(v),1882(v)
                                                    1877(r),1873(r),496(g)
                                                    656(g),1866(r)
  1870. BD*(   1) C  12 - C  25          0.01059     0.47668   
  1871. BD*(   1) C  12 - H  94          0.00752     0.35170   
  1872. BD*(   1) C  13 - C  28          0.01028     0.46108   
  1873. BD*(   2) C  13 - C  28          0.19490    -0.05793  1922(v),1906(v),1904(v)
                                                    1877(r),1869(r),522(g)
                                                    916(g)
  1874. BD*(   1) C  13 - C  32          0.01060     0.45654   
  1875. BD*(   1) C  13 - H  85          0.00686     0.35282   
  1876. BD*(   1) C  14 - C  35          0.00993     0.45194   
  1877. BD*(   2) C  14 - C  35          0.19848    -0.06007  1924(v),1940(v),1922(v)
                                                    1869(r),549(g),1873(r)
                                                    1098(g),1866(r)
  1878. BD*(   1) C  14 - C  39          0.00998     0.45352   
  1879. BD*(   1) C  14 - H  76          0.00664     0.35340   
  1880. BD*(   1) C  15 - C  16          0.01618     0.37135   
  1881. BD*(   1) C  15 - N  49          0.01405     0.37249   
  1882. BD*(   2) C  15 - N  49          0.32577    -0.10698  1866(v),1884(v),1869(v)
                                                    206(v),576(g),1459(g),575(g)
                                                    470(v),205(v),577(g),1462(g)
  1883. BD*(   1) C  16 - C  17          0.01031     0.46943   
  1884. BD*(   2) C  16 - C  17          0.12963    -0.04365  1869(v),1882(v),1900(r)
                                                    1892(v),1891(v),1893(v)
                                                    1889(v)
  1885. BD*(   1) C  16 - C  20          0.01211     0.27410   
  1886. BD*(   1) C  17 - C  18          0.01646     0.38207   
  1887. BD*(   1) C  17 - C  19          0.00847     0.26220   
  1888. BD*(   1) C  18 - N  49          0.01453     0.36992   
  1889. BD*(   1) C  19 - H  95          0.00308     0.31289   
  1890. BD*(   1) C  19 - H  96          0.00282     0.32577   
  1891. BD*(   1) C  19 - H  97          0.00433     0.31596   
  1892. BD*(   1) C  20 - C  21          0.00636     0.27510   
  1893. BD*(   1) C  20 - H  99          0.00692     0.32692   
  1894. BD*(   1) C  20 - H 100          0.00623     0.33175   
  1895. BD*(   1) C  21 - C  22          0.04088     0.26850   
  1896. BD*(   1) C  21 - H 101          0.00532     0.31705   
  1897. BD*(   1) C  21 - H 102          0.00710     0.31625   
  1898. BD*(   1) C  22 - O  23          0.03350     0.44978   
  1899. BD*(   1) C  22 - O  24          0.02784     0.43549   
  1900. BD*(   2) C  22 - O  24          0.08364    -0.05000   
  1901. BD*(   1) O  23 - H 103          0.00784     0.28769   
  1902. BD*(   1) C  25 - C  26          0.01478     0.40339   
  1903. BD*(   1) C  25 - N  50          0.01511     0.33338   
  1904. BD*(   2) C  25 - N  50          0.34070    -0.11202  1869(v),1906(v),1873(v)
                                                    836(g),206(v),1485(g)
                                                    1848(r),205(v)
  1905. BD*(   1) C  26 - C  27          0.01147     0.46405   
  1906. BD*(   2) C  26 - C  27          0.12375    -0.03726  1873(v),1904(v),1915(v)
                                                    1913(v),1916(v),1911(v)
                                                    888(g)
  1907. BD*(   1) C  26 - C  29          0.00910     0.25955   
  1908. BD*(   1) C  27 - C  28          0.01804     0.34077   
  1909. BD*(   1) C  27 - C  30          0.01186     0.39164   
  1910. BD*(   1) C  28 - N  50          0.01281     0.35581   
  1911. BD*(   1) C  29 - H  91          0.00558     0.33705   
  1912. BD*(   1) C  29 - H  92          0.00491     0.34136   
  1913. BD*(   1) C  29 - H  93          0.00402     0.32244   
  1914. BD*(   1) C  30 - C  31          0.00380     0.42595   
  1915. BD*(   1) C  30 - H  86          0.01271     0.31442   
  1916. BD*(   1) C  30 - H  87          0.01153     0.31383   
  1917. BD*(   1) C  31 - H  88          0.00620     0.32762   
  1918. BD*(   1) C  31 - H  89          0.00503     0.34932   
  1919. BD*(   1) C  31 - H  90          0.00687     0.33023   
  1920. BD*(   1) C  32 - C  33          0.01576     0.36535   
  1921. BD*(   1) C  32 - N  51          0.01349     0.37259   
  1922. BD*(   2) C  32 - N  51          0.31998    -0.10248  1873(v),1924(v),1877(v)
                                                    1018(g),206(v),1511(g)
                                                    1017(g),1019(g),205(v)
  1923. BD*(   1) C  33 - C  34          0.01219     0.45009   
  1924. BD*(   2) C  33 - C  34          0.12371    -0.03986  1877(v),1922(v),1933(v)
                                                    1930(v),1934(v),1931(v)
  1925. BD*(   1) C  33 - C  36          0.00797     0.26148   
  1926. BD*(   1) C  34 - C  35          0.01661     0.36837   
  1927. BD*(   1) C  34 - C  37          0.01177     0.39778   
  1928. BD*(   1) C  35 - N  51          0.01373     0.33797   
  1929. BD*(   1) C  36 - H  82          0.00411     0.33480   
  1930. BD*(   1) C  36 - H  83          0.00433     0.32281   
  1931. BD*(   1) C  36 - H  84          0.00545     0.34506   
  1932. BD*(   1) C  37 - C  38          0.00399     0.43026   
  1933. BD*(   1) C  37 - H  77          0.01162     0.31519   
  1934. BD*(   1) C  37 - H  78          0.01135     0.31659   
  1935. BD*(   1) C  38 - H  79          0.00421     0.34519   
  1936. BD*(   1) C  38 - H  80          0.01009     0.36009   
  1937. BD*(   1) C  38 - H  81          0.00481     0.32997   
  1938. BD*(   1) C  39 - C  40          0.01615     0.37542   
  1939. BD*(   1) C  39 - N  52          0.01395     0.35522   
  1940. BD*(   2) C  39 - N  52          0.33172    -0.10742  1877(v),1942(v),1866(v)
                                                    206(v),1200(g),1537(g)
                                                    549(v),205(v),1541(g)
                                                    1848(r)
  1941. BD*(   1) C  40 - C  41          0.00986     0.49591   
  1942. BD*(   2) C  40 - C  41          0.11555    -0.02832  1866(v),1940(v),1949(v)
                                                    1950(v),1948(v)
  1943. BD*(   1) C  40 - C  43          0.00821     0.27483   
  1944. BD*(   1) C  41 - C  42          0.01684     0.36696   
  1945. BD*(   1) C  41 - C  44          0.01051     0.29399   
  1946. BD*(   1) C  42 - N  52          0.01366     0.37252   
  1947. BD*(   1) C  43 - H  73          0.00218     0.33049   
  1948. BD*(   1) C  43 - H  74          0.00324     0.32987   
  1949. BD*(   1) C  43 - H  75          0.00368     0.32660   
  1950. BD*(   1) C  44 - C  45          0.00598     0.27236   
  1951. BD*(   1) C  44 - H  71          0.00569     0.33958   
  1952. BD*(   1) C  44 - H  72          0.00578     0.34660   
  1953. BD*(   1) C  45 - C  46          0.04107     0.27365   
  1954. BD*(   1) C  45 - H  69          0.00564     0.32682   
  1955. BD*(   1) C  45 - H  70          0.00628     0.30981   
  1956. BD*(   1) C  46 - O  47          0.03574     0.41966   
  1957. BD*(   1) C  46 - O  48          0.02385     0.43886   
  1958. BD*(   2) C  46 - O  48          0.10862    -0.01736  1957(g),1955(v),1954(v)
                                                    1382(g)
  1959. BD*(   1) O  47 - H  68          0.00551     0.31318   
  1960. BD*(   1) N  49 -Fe  53          0.03358     0.27639   
  1961. BD*(   1) N  50 -Fe  53          0.03472     0.26675   
  1962. BD*(   1) N  51 -Fe  53          0.03495     0.28052   
  1963. BD*(   1) N  52 -Fe  53          0.03573     0.28748   
       -------------------------------
              Total Lewis  178.75165  ( 97.5855%)
        Valence non-Lewis    4.07952  (  2.2271%)
        Rydberg non-Lewis    0.34324  (  0.1874%)
       -------------------------------
            Total unit  2  183.17440  (100.0000%)
           Charge unit  2    0.82560
 1\1\GINC-NODE493\SP\UPBE1PBE\def2TZVP\C41H50Fe1N6O4S1(1+,2)\ZHARTOVSKA
 \02-Sep-2022\0\\# PBE1PBE/def2TZVP empiricaldispersion=GD3BJ scf=maxcy
 cle=999 geom=check pop=nbo\\1vb6_III_D\\1,2\C,0,-2.424,-20.167999,-17.
 756001\C,0,-1.867,-19.166,-16.792\N,0,-1.739,-17.827999,-17.097\C,0,-1
 .43,-19.306,-15.519\C,0,-1.25,-17.184999,-16.052999\N,0,-1.053,-18.058
 001,-15.081\C,0,0.45697758,-17.95830189,-8.41996971\C,0,-0.44,-17.8490
 01,-9.667\S,0,0.424,-16.907,-10.952\C,0,2.103,-17.461,-10.658\C,0,-3.4
 88,-18.146999,-11.841\C,0,0.475,-20.855,-12.647\C,0,2.812,-16.966999,-
 14.344\C,0,-1.12,-14.231,-13.549\C,0,-2.587,-19.247999,-11.935\C,0,-2.
 932,-20.6,-11.506\C,0,-1.805,-21.367001,-11.727\C,0,-0.802,-20.481001,
 -12.283\C,0,-1.657,-22.875999,-11.434\C,0,-4.327,-21.063,-11.046\C,0,-
 4.331,-21.563,-9.609\C,0,-3.95,-20.499001,-8.605\O,0,-2.992,-20.737,-7
 .867\O,0,-4.603,-19.431999,-8.572\C,0,1.452,-20.034,-13.173\C,0,2.769,
 -20.487,-13.523\C,0,3.487,-19.410999,-14.027\C,0,2.526,-18.271999,-13.
 951\C,0,3.248,-21.954,-13.337\C,0,4.848,-19.458,-14.494\C,0,5.43718768
 ,-20.66545086,-14.0954498\C,0,1.931,-15.889,-14.27\C,0,2.322,-14.539,-
 14.688\C,0,1.194,-13.739,-14.465\C,0,0.167,-14.634,-13.918\C,0,3.717,-
 14.158,-15.246\C,0,0.995,-12.333,-14.685\C,0,2.20853082,-11.74303756,-
 15.06342995\C,0,-2.116,-15.047,-13.008\C,0,-3.443,-14.59,-12.61\C,0,-4
 .099,-15.687,-12.125\C,0,-3.174,-16.819,-12.245\C,0,-4.001,-13.156,-12
 .69\C,0,-5.525,-15.74,-11.562\C,0,-5.357,-15.764,-10.037\C,0,-6.585,-1
 5.349,-9.233\O,0,-6.445,-15.222,-7.988\O,0,-7.668,-15.154,-9.838\N,0,-
 1.292,-19.194,-12.411\N,0,1.284,-18.655001,-13.442\N,0,0.629,-15.962,-
 13.807\N,0,-1.964,-16.415001,-12.778\Fe,0,-0.402,-17.572001,-13.123\H,
 0,2.74283065,-16.61187198,-10.53759093\H,0,2.13140383,-18.05772314,-9.
 77029807\H,0,2.43711724,-18.04413915,-11.49059498\H,0,-0.66328638,-18.
 82943156,-10.0327856\H,0,-1.35000161,-17.3487389,-9.40905641\H,0,1.374
 87921,-17.43670896,-8.5940312\H,0,-0.04544094,-17.52557051,-7.58019642
 \H,0,0.66471914,-18.98856903,-8.2192384\H,0,-1.38602936,-20.21643011,-
 14.95856838\H,0,-1.04762584,-16.13552516,-16.00250783\H,0,-1.9791923,-
 17.40946593,-17.97286399\H,0,-1.74563411,-20.99042479,-17.84730015\H,0
 ,-3.36763089,-20.52217969,-17.39681194\H,0,-2.5566325,-19.70717867,-18
 .71253289\H,0,-5.5654052,-15.1829708,-7.60539093\H,0,-5.08749005,-16.7
 5782718,-9.74618749\H,0,-4.55168658,-15.10830396,-9.77925399\H,0,-6.02
 223092,-16.62724052,-11.89436377\H,0,-6.07430299,-14.87180373,-11.8610
 0076\H,0,-3.31581583,-12.53625783,-13.22976133\H,0,-4.94451449,-13.168
 0529,-13.19451475\H,0,-4.13016516,-12.76786754,-11.70127883\H,0,-1.365
 05811,-13.1997123,-13.69491847\H,0,0.27251664,-12.19225514,-15.4616007
 2\H,0,0.64274415,-11.87724362,-13.78327835\H,0,2.21319203,-10.71502949
 ,-14.76665111\H,0,3.01808761,-12.2554696,-14.58705698\H,0,2.32087053,-
 11.80816418,-16.12552143\H,0,4.41882934,-14.93026432,-15.00947645\H,0,
 3.65716398,-14.04351916,-16.30817409\H,0,4.03799666,-13.23720635,-14.8
 0554546\H,0,3.78931294,-16.77569619,-14.73536001\H,0,4.86124881,-19.39
 001851,-15.56175605\H,0,5.39643122,-18.63899858,-14.07763492\H,0,5.027
 92258,-21.46914906,-14.67118522\H,0,6.49429086,-20.61573254,-14.253440
 12\H,0,5.23920745,-20.8333865,-13.05742212\H,0,4.18904507,-21.96008368
 ,-12.82778771\H,0,2.52677545,-22.49425537,-12.76006042\H,0,3.35791026,
 -22.41750451,-14.29511445\H,0,0.7338584,-21.88383212,-12.5077276\H,0,-
 0.75318818,-23.04617832,-10.8871333\H,0,-2.4924481,-23.21056443,-10.85
 521468\H,0,-1.62281814,-23.4168021,-12.35663948\H,0,-4.46316194,-18.33
 105867,-11.44089848\H,0,-4.65799906,-21.85272864,-11.68761382\H,0,-5.0
 0813605,-20.24189546,-11.1281037\H,0,-5.31133489,-21.92126563,-9.37343
 845\H,0,-3.63938766,-22.37528621,-9.52675961\H,0,-2.09583782,-20.63134
 72,-8.19461385\\Version=ES64L-G16RevA.03\State=2-A\HF=-3881.6476456\S2
 =0.901801\S2-1=0.\S2A=0.752968\RMSD=1.487e-09\Dipole=3.4636797,-1.1533
 935,-2.316914\Quadrupole=-32.6361519,17.6645176,14.9716343,11.0226751,
 12.7590626,-7.8858478\PG=C01 [X(C41H50Fe1N6O4S1)]\\@


 Mondays are the potholes in the road of life.
                                -- Tom Wilson
 Job cpu time:       7 days 11 hours 53 minutes 58.5 seconds.
 Elapsed time:       1 days 21 hours  8 minutes 33.4 seconds.
 File lengths (MBytes):  RWF=   3538 Int=      0 D2E=      0 Chk=    296 Scr=      1
 Normal termination of Gaussian 16 at Fri Sep  2 10:18:58 2022.
