 Entering Gaussian System, Link 0=g16
 Input=/net/homes/chemie/zhartovska/work/BioModel/Konrad/1drm/PDB/1drm12/1drm16/1drm16.com
 Output=/net/homes/chemie/zhartovska/work/BioModel/Konrad/1drm/PDB/1drm12/1drm16/1drm16.log
 Initial command:
 /afs/math/software/gaussian/g16.A03/g16/l1.exe "/scratch/zhartovska_gaussian.dB8yqOP/Gau-13312.inp" -scrdir="/scratch/zhartovska_gaussian.dB8yqOP/"
 Entering Link 1 = /afs/math/software/gaussian/g16.A03/g16/l1.exe PID=     13313.
  
 Copyright (c) 1988,1990,1992,1993,1995,1998,2003,2009,2016,
            Gaussian, Inc.  All Rights Reserved.
  
 This is part of the Gaussian(R) 16 program.  It is based on
 the Gaussian(R) 09 system (copyright 2009, Gaussian, Inc.),
 the Gaussian(R) 03 system (copyright 2003, Gaussian, Inc.),
 the Gaussian(R) 98 system (copyright 1998, Gaussian, Inc.),
 the Gaussian(R) 94 system (copyright 1995, Gaussian, Inc.),
 the Gaussian 92(TM) system (copyright 1992, Gaussian, Inc.),
 the Gaussian 90(TM) system (copyright 1990, Gaussian, Inc.),
 the Gaussian 88(TM) system (copyright 1988, Gaussian, Inc.),
 the Gaussian 86(TM) system (copyright 1986, Carnegie Mellon
 University), and the Gaussian 82(TM) system (copyright 1983,
 Carnegie Mellon University). Gaussian is a federally registered
 trademark of Gaussian, Inc.
  
 This software contains proprietary and confidential information,
 including trade secrets, belonging to Gaussian, Inc.
  
 This software is provided under written license and may be
 used, copied, transmitted, or stored only in accord with that
 written license.
  
 The following legend is applicable only to US Government
 contracts under FAR:
  
                    RESTRICTED RIGHTS LEGEND
  
 Use, reproduction and disclosure by the US Government is
 subject to restrictions as set forth in subparagraphs (a)
 and (c) of the Commercial Computer Software - Restricted
 Rights clause in FAR 52.227-19.
  
 Gaussian, Inc.
 340 Quinnipiac St., Bldg. 40, Wallingford CT 06492
  
  
 ---------------------------------------------------------------
 Warning -- This program may not be used in any manner that
 competes with the business of Gaussian, Inc. or will provide
 assistance to any competitor of Gaussian, Inc.  The licensee
 of this program is prohibited from giving any competitor of
 Gaussian, Inc. access to this program.  By using this program,
 the user acknowledges that Gaussian, Inc. is engaged in the
 business of creating and licensing software in the field of
 computational chemistry and represents and warrants to the
 licensee that it is not a competitor of Gaussian, Inc. and that
 it will not use this program in any manner prohibited above.
 ---------------------------------------------------------------
  

 Cite this work as:
 Gaussian 16, Revision A.03,
 M. J. Frisch, G. W. Trucks, H. B. Schlegel, G. E. Scuseria, 
 M. A. Robb, J. R. Cheeseman, G. Scalmani, V. Barone, 
 G. A. Petersson, H. Nakatsuji, X. Li, M. Caricato, A. V. Marenich, 
 J. Bloino, B. G. Janesko, R. Gomperts, B. Mennucci, H. P. Hratchian, 
 J. V. Ortiz, A. F. Izmaylov, J. L. Sonnenberg, D. Williams-Young, 
 F. Ding, F. Lipparini, F. Egidi, J. Goings, B. Peng, A. Petrone, 
 T. Henderson, D. Ranasinghe, V. G. Zakrzewski, J. Gao, N. Rega, 
 G. Zheng, W. Liang, M. Hada, M. Ehara, K. Toyota, R. Fukuda, 
 J. Hasegawa, M. Ishida, T. Nakajima, Y. Honda, O. Kitao, H. Nakai, 
 T. Vreven, K. Throssell, J. A. Montgomery, Jr., J. E. Peralta, 
 F. Ogliaro, M. J. Bearpark, J. J. Heyd, E. N. Brothers, K. N. Kudin, 
 V. N. Staroverov, T. A. Keith, R. Kobayashi, J. Normand, 
 K. Raghavachari, A. P. Rendell, J. C. Burant, S. S. Iyengar, 
 J. Tomasi, M. Cossi, J. M. Millam, M. Klene, C. Adamo, R. Cammi, 
 J. W. Ochterski, R. L. Martin, K. Morokuma, O. Farkas, 
 J. B. Foresman, and D. J. Fox, Gaussian, Inc., Wallingford CT, 2016.
 
 ******************************************
 Gaussian 16:  AM64L-G16RevA.03 25-Dec-2016
                24-Jan-2023 
 ******************************************
 %nprocs=12
 Will use up to   12 processors via shared memory.
 %mem=16GB
 %oldchk=1drm_III_D.chk
 %chk=1drm_III_H.chk
 Copying data from "1drm_III_D.chk" to current chk file "1drm_III_H.chk"
 IOpt=  2 FromEx=T IUOpen= 4 IOptOp= 5 NList=   0 IFRang= 0 IUIn= 4 IUOut= 2.
 ----------------------------------------------------------------------
 # PBE1PBE/def2TZVP empiricaldispersion=GD3BJ int=(grid=ultrafine) geom
 =check pop=nbo
 ----------------------------------------------------------------------
 1/29=2,38=1,172=1/1;
 2/12=2,40=1/2;
 3/5=44,7=101,11=2,14=-4,25=1,30=1,74=-13,75=-5,124=41/1,2,3;
 4//1;
 5/5=2,38=5/2;
 6/7=2,8=2,9=2,10=2,28=1,40=1/1,7;
 99/5=1,9=1/99;
 ----------
 1drm_III_H
 ----------
 Structure from the checkpoint file:  "1drm_III_H.chk"
 Charge =  1 Multiplicity = 6
 Z-Matrix found in chk file.
 C,0,48.068001,60.623001,29.973
 C,0,48.181,59.849998,31.268
 N,0,47.933998,60.384998,32.516998
 C,0,48.473,58.541,31.49
 C,0,48.068001,59.411999,33.443001
 N,0,48.400002,58.257,32.889999
 Fe,0,48.765999,56.499001,34.030998
 C,0,45.678001,55.007999,33.291
 C,0,50.331001,55.000999,31.341999
 C,0,51.877998,57.230999,35.203999
 C,0,47.299,57.897999,36.900002
 N,0,48.188,55.292999,32.580002
 C,0,46.804001,54.751999,32.449001
 C,0,46.826,53.873001,31.332001
 C,0,48.123001,53.901001,30.809999
 C,0,48.922001,54.757999,31.573
 C,0,48.710999,53.084,29.59
 C,0,45.639999,52.916,31.042
 C,0,45.424,52.798,29.694
 C,0,44.573002,51.631001,29.422001
 O,0,43.542,51.953999,28.733
 O,0,44.916,50.459,29.83
 N,0,50.624001,56.294998,33.435001
 C,0,51.097,55.622002,32.187
 C,0,52.467999,55.814999,31.962999
 C,0,52.971001,56.416,33.016998
 C,0,51.838001,56.742001,33.980999
 C,0,53.264999,55.367001,30.736
 C,0,54.458,56.728001,33.074001
 C,0,54.797001,57.828999,34.120998
 N,0,49.436001,57.335999,35.605
 C,0,50.751999,57.528,35.959
 C,0,50.819,58.118,37.297001
 C,0,49.610001,58.249001,37.731998
 C,0,48.743,57.799,36.740002
 C,0,52.186001,58.487999,38.056999
 C,0,48.980999,58.606998,39.147999
 C,0,49.917999,59.463001,39.915001
 N,0,47.058998,56.563999,34.905998
 C,0,46.537998,57.237,36.117001
 C,0,45.07,57.032001,36.300999
 C,0,44.625,56.328999,35.282001
 C,0,45.769001,55.956001,34.452999
 C,0,44.231998,57.564999,37.375999
 C,0,43.164001,55.853001,34.801998
 C,0,42.825001,54.415001,35.34
 C,0,42.188999,53.115002,35.033001
 O,0,42.549,52.308998,35.884998
 O,0,42.134998,52.839001,33.841
 H,0,48.91256188,60.40564405,29.35302188
 H,0,47.17014309,60.33873095,29.46512037
 H,0,48.04135249,61.67151902,30.18465967
 H,0,47.6949062,61.33766942,32.7047539
 H,0,47.92368984,59.55686386,34.49328118
 H,0,48.72058404,57.82910785,30.73051879
 H,0,43.64950944,52.35892198,27.86924129
 H,0,46.36202809,52.67753947,29.19350768
 H,0,44.94028785,53.68168899,29.33342224
 H,0,45.85972007,51.95091072,31.4484792
 H,0,44.75640512,53.30046253,31.50713484
 H,0,42.94440956,52.72256058,33.33811378
 H,0,43.80326767,54.08387538,35.61973226
 H,0,42.30710607,54.66908985,36.24117906
 H,0,43.13313015,55.84277089,33.73249235
 H,0,42.43333071,56.5443519,35.16676487
 H,0,44.74403567,58.36900803,37.86209251
 H,0,43.31151685,57.9245862,36.96574117
 H,0,44.02777626,56.79107885,38.08609835
 H,0,44.75046246,54.51403329,33.08957971
 H,0,49.65462918,52.66138077,29.865418
 H,0,48.03255864,52.299936,29.32568518
 H,0,48.84359391,53.73797639,28.75355904
 H,0,50.76309554,54.65077001,30.42792353
 H,0,46.88066238,58.5178466,37.66530102
 H,0,52.83769674,57.41011033,35.64194586
 H,0,52.94883066,58.69836102,37.3367638
 H,0,52.02988441,59.34887937,38.67296376
 H,0,52.48935753,57.66308038,38.66723181
 H,0,50.97427026,59.3357553,39.80098539
 H,0,49.53782712,60.20790208,40.58245266
 H,0,48.02373752,58.27891268,39.49572084
 H,0,54.19655882,54.9448365,31.05044146
 H,0,52.70498256,54.63270141,30.19555047
 H,0,53.45077069,56.21019528,30.10400927
 H,0,55.81791529,58.06115329,34.34176575
 H,0,54.00909925,58.35361632,34.61988425
 H,0,55.19046584,56.24427829,32.46211365
 Recover connectivity data from disk.
 Stoichiometry    C38H38FeN6O4(1+,6)
 Framework group  C1[X(C38H38FeN6O4)]
 Deg. of freedom   255
 Full point group                 C1      NOp   1
 Largest Abelian subgroup         C1      NOp   1
 Largest concise Abelian subgroup C1      NOp   1
                         Standard orientation:                         
 ---------------------------------------------------------------------
 Center     Atomic      Atomic             Coordinates (Angstroms)
 Number     Number       Type             X           Y           Z
 ---------------------------------------------------------------------
      1          6           0       -1.125983   -1.908213    5.402037
      2          6           0       -1.269752   -1.122076    4.118040
      3          7           0       -1.819874    0.142104    4.037763
      4          6           0       -0.874797   -1.422264    2.852370
      5          6           0       -1.739039    0.573139    2.761111
      6          7           0       -1.175562   -0.331450    1.977358
      7         26           0       -0.931035   -0.046217   -0.116740
      8          6           0        2.492034    0.696816    0.075383
      9          6           0       -0.351158   -3.419378   -0.574439
     10          6           0       -4.124527   -0.640162   -1.139055
     11          6           0       -1.598265    3.393057    0.141444
     12          7           0        0.680677   -1.181420   -0.203990
     13          6           0        2.074120   -0.657094   -0.110764
     14          6           0        2.931790   -1.775513   -0.296105
     15          6           0        2.115560   -2.898610   -0.463148
     16          6           0        0.770973   -2.519589   -0.404455
     17          6           0        2.545178   -4.395272   -0.740746
     18          6           0        4.453702   -1.587943   -0.530953
     19          6           0        5.170883   -2.575879    0.091395
     20          6           0        6.542434   -2.608838   -0.435701
     21          8           0        7.407657   -2.515192    0.504849
     22          8           0        6.757819   -2.755088   -1.696621
     23          7           0       -2.025127   -1.592888   -0.626421
     24          6           0       -1.574354   -3.013864   -0.734992
     25          6           0       -2.643312   -3.899302   -0.935963
     26          6           0       -3.730789   -3.187039   -1.123588
     27          6           0       -3.389162   -1.714752   -0.936710
     28          6           0       -2.567728   -5.426915   -0.982053
     29          6           0       -5.053846   -3.882633   -1.401851
     30          6           0       -6.280339   -2.964675   -1.125465
     31          7           0       -2.460740    1.047362   -0.418464
     32          6           0       -3.696922    0.654115   -0.878076
     33          6           0       -4.548552    1.830321   -1.062745
     34          6           0       -3.852821    2.874045   -0.755077
     35          6           0       -2.590385    2.447916   -0.351448
     36          6           0       -6.066029    1.776879   -1.589619
     37          6           0       -4.077295    4.438701   -0.929225
     38          6           0       -5.528216    4.744877   -0.920005
     39          7           0        0.020639    1.606926    0.095710
     40          6           0       -0.380043    3.024684    0.238244
     41          6           0        0.783932    3.928505    0.481487
     42          6           0        1.868835    3.187644    0.550078
     43          6           0        1.494892    1.805878    0.256823
     44          6           0        0.749469    5.377693    0.683040
     45          6           0        3.413067    3.490932    0.888990
     46          6           0        4.244181    3.758784   -0.418572
     47          6           0        5.535184    3.547497   -1.109523
     48          8           0        5.381125    3.835691   -2.292042
     49          8           0        6.156326    2.557024   -0.744689
     50          1           0       -1.430114   -2.920612    5.236351
     51          1           0       -0.104117   -1.890075    5.718834
     52          1           0       -1.742004   -1.470135    6.159339
     53          1           0       -2.213791    0.654527    4.800818
     54          1           0       -2.087282    1.527424    2.425005
     55          1           0       -0.408373   -2.338185    2.554986
     56          1           0        7.422914   -3.166825    1.209648
     57          1           0        4.700282   -3.520579   -0.084604
     58          1           0        5.199637   -2.384304    1.143712
     59          1           0        4.653383   -1.617533   -1.581739
     60          1           0        4.754665   -0.637420   -0.142588
     61          1           0        5.782693    1.682033   -0.872711
     62          1           0        3.572109    3.364849   -1.152080
     63          1           0        4.177127    4.825523   -0.468300
     64          1           0        3.830252    2.650138    1.402724
     65          1           0        3.469866    4.351585    1.522195
     66          1           0       -0.247144    5.680058    0.928471
     67          1           0        1.409582    5.642407    1.482463
     68          1           0        1.060775    5.870120   -0.214460
     69          1           0        3.537261    0.925496    0.085754
     70          1           0        1.949958   -4.795811   -1.534585
     71          1           0        3.577769   -4.424042   -1.019723
     72          1           0        2.398448   -4.978464    0.144272
     73          1           0       -0.162578   -4.472605   -0.567367
     74          1           0       -1.887247    4.385113    0.419320
     75          1           0       -5.112131   -0.773686   -1.528554
     76          1           0       -6.499603    0.832886   -1.333120
     77          1           0       -6.629747    2.563905   -1.133865
     78          1           0       -6.078984    1.898267   -2.652632
     79          1           0       -6.225778    4.042641   -1.326420
     80          1           0       -5.877578    5.668035   -0.506938
     81          1           0       -3.297184    5.163063   -1.037052
     82          1           0       -3.168134   -5.789507   -1.790100
     83          1           0       -1.551940   -5.729494   -1.128751
     84          1           0       -2.930257   -5.829951   -0.059538
     85          1           0       -7.264193   -3.292643   -1.388846
     86          1           0       -6.139517   -2.005750   -0.672110
     87          1           0       -5.133137   -4.891559   -1.749241
 ---------------------------------------------------------------------
 Rotational constants (GHZ):           0.0724819           0.0470425           0.0348636
 Standard basis: def2TZVP (5D, 7F)
 There are  2008 symmetry adapted cartesian basis functions of A   symmetry.
 There are  1761 symmetry adapted basis functions of A   symmetry.
  1761 basis functions,  2854 primitive gaussians,  2008 cartesian basis functions
   185 alpha electrons      180 beta electrons
       nuclear repulsion energy      7110.6130457198 Hartrees.
 NAtoms=   87 NActive=   87 NUniq=   87 SFac= 1.00D+00 NAtFMM=   60 NAOKFM=T Big=T
 Integral buffers will be    131072 words long.
 Raffenetti 2 integral format.
 Two-electron integral symmetry is turned on.
 Nuclear repulsion after empirical dispersion term =     7110.4902802193 Hartrees.
 One-electron integrals computed using PRISM.
   1 Symmetry operations used in ECPInt.
 ECPInt:  NShTT=  241860 NPrTT=  750929 LenC2=  174019 LenP2D=  349599.
 LDataN:  DoStor=T MaxTD1= 6 Len=  172
 NBasis=  1761 RedAO= T EigKep=  3.97D-06  NBF=  1761
 NBsUse=  1761 1.00D-06 EigRej= -1.00D+00 NBFU=  1761
 ExpMin= 4.20D-02 ExpMax= 3.01D+05 ExpMxC= 2.91D+03 IAcc=3 IRadAn=         5 AccDes= 0.00D+00
 Harris functional with IExCor= 1009 and IRadAn=       5 diagonalized for initial guess.
 HarFok:  IExCor= 1009 AccDes= 0.00D+00 IRadAn=         5 IDoV= 1 UseB2=F ITyADJ=14
 ICtDFT=  3500011 ScaDFX=  1.000000  1.000000  1.000000  1.000000
 FoFCou: FMM=F IPFlag=           0 FMFlag=      100000 FMFlg1=        2001
         NFxFlg=           0 DoJE=T BraDBF=F KetDBF=T FulRan=T
         wScrn=  0.000000 ICntrl=       500 IOpCl=  0 I1Cent=   200000004 NGrid=           0
         NMat0=    1 NMatS0=      1 NMatT0=    0 NMatD0=    1 NMtDS0=    0 NMtDT0=    0
 Petite list used in FoFCou.
 Initial guess <Sx>= 0.0000 <Sy>= 0.0000 <Sz>= 2.5000 <S**2>= 8.7500 S= 2.5000
 Requested convergence on RMS density matrix=1.00D-08 within 128 cycles.
 Requested convergence on MAX density matrix=1.00D-06.
 Requested convergence on             energy=1.00D-06.
 No special actions if energy rises.
 EnCoef did   100 forward-backward iterations
 EnCoef did   100 forward-backward iterations
 EnCoef did   100 forward-backward iterations
 EnCoef did     6 forward-backward iterations
 EnCoef did     5 forward-backward iterations
 Restarting incremental Fock formation.
 Restarting incremental Fock formation.
 SCF Done:  E(UPBE1PBE) =  -3361.79464722     A.U. after   41 cycles
            NFock= 41  Conv=0.52D-08     -V/T= 2.0033
 <Sx>= 0.0000 <Sy>= 0.0000 <Sz>= 2.5000 <S**2>= 8.7773 S= 2.5046
 <L.S>= 0.000000000000E+00
 Annihilation of the first spin contaminant:
 S**2 before annihilation     8.7773,   after     8.7502

 **********************************************************************

            Population analysis using the SCF density.

 **********************************************************************

 Orbital symmetries:
 Alpha Orbitals:
       Occupied  (A) (A) (A) (A) (A) (A) (A) (A) (A) (A) (A) (A)
                 (A) (A) (A) (A) (A) (A) (A) (A) (A) (A) (A) (A)
                 (A) (A) (A) (A) (A) (A) (A) (A) (A) (A) (A) (A)
                 (A) (A) (A) (A) (A) (A) (A) (A) (A) (A) (A) (A)
                 (A) (A) (A) (A) (A) (A) (A) (A) (A) (A) (A) (A)
                 (A) (A) (A) (A) (A) (A) (A) (A) (A) (A) (A) (A)
                 (A) (A) (A) (A) (A) (A) (A) (A) (A) (A) (A) (A)
                 (A) (A) (A) (A) (A) (A) (A) (A) (A) (A) (A) (A)
                 (A) (A) (A) (A) (A) (A) (A) (A) (A) (A) (A) (A)
                 (A) (A) (A) (A) (A) (A) (A) (A) (A) (A) (A) (A)
                 (A) (A) (A) (A) (A) (A) (A) (A) (A) (A) (A) (A)
                 (A) (A) (A) (A) (A) (A) (A) (A) (A) (A) (A) (A)
                 (A) (A) (A) (A) (A) (A) (A) (A) (A) (A) (A) (A)
                 (A) (A) (A) (A) (A) (A) (A) (A) (A) (A) (A) (A)
                 (A) (A) (A) (A) (A) (A) (A) (A) (A) (A) (A) (A)
                 (A) (A) (A) (A) (A)
       Virtual   (A) (A) (A) (A) (A) (A) (A) (A) (A) (A) (A) (A)
                 (A) (A) (A) (A) (A) (A) (A) (A) (A) (A) (A) (A)
                 (A) (A) (A) (A) (A) (A) (A) (A) (A) (A) (A) (A)
                 (A) (A) (A) (A) (A) (A) (A) (A) (A) (A) (A) (A)
                 (A) (A) (A) (A) (A) (A) (A) (A) (A) (A) (A) (A)
                 (A) (A) (A) (A) (A) (A) (A) (A) (A) (A) (A) (A)
                 (A) (A) (A) (A) (A) (A) (A) (A) (A) (A) (A) (A)
                 (A) (A) (A) (A) (A) (A) (A) (A) (A) (A) (A) (A)
                 (A) (A) (A) (A) (A) (A) (A) (A) (A) (A) (A) (A)
                 (A) (A) (A) (A) (A) (A) (A) (A) (A) (A) (A) (A)
                 (A) (A) (A) (A) (A) (A) (A) (A) (A) (A) (A) (A)
                 (A) (A) (A) (A) (A) (A) (A) (A) (A) (A) (A) (A)
                 (A) (A) (A) (A) (A) (A) (A) (A) (A) (A) (A) (A)
                 (A) (A) (A) (A) (A) (A) (A) (A) (A) (A) (A) (A)
                 (A) (A) (A) (A) (A) (A) (A) (A) (A) (A) (A) (A)
                 (A) (A) (A) (A) (A) (A) (A) (A) (A) (A) (A) (A)
                 (A) (A) (A) (A) (A) (A) (A) (A) (A) (A) (A) (A)
                 (A) (A) (A) (A) (A) (A) (A) (A) (A) (A) (A) (A)
                 (A) (A) (A) (A) (A) (A) (A) (A) (A) (A) (A) (A)
                 (A) (A) (A) (A) (A) (A) (A) (A) (A) (A) (A) (A)
                 (A) (A) (A) (A) (A) (A) (A) (A) (A) (A) (A) (A)
                 (A) (A) (A) (A) (A) (A) (A) (A) (A) (A) (A) (A)
                 (A) (A) (A) (A) (A) (A) (A) (A) (A) (A) (A) (A)
                 (A) (A) (A) (A) (A) (A) (A) (A) (A) (A) (A) (A)
                 (A) (A) (A) (A) (A) (A) (A) (A) (A) (A) (A) (A)
                 (A) (A) (A) (A) (A) (A) (A) (A) (A) (A) (A) (A)
                 (A) (A) (A) (A) (A) (A) (A) (A) (A) (A) (A) (A)
                 (A) (A) (A) (A) (A) (A) (A) (A) (A) (A) (A) (A)
                 (A) (A) (A) (A) (A) (A) (A) (A) (A) (A) (A) (A)
                 (A) (A) (A) (A) (A) (A) (A) (A) (A) (A) (A) (A)
                 (A) (A) (A) (A) (A) (A) (A) (A) (A) (A) (A) (A)
                 (A) (A) (A) (A) (A) (A) (A) (A) (A) (A) (A) (A)
                 (A) (A) (A) (A) (A) (A) (A) (A) (A) (A) (A) (A)
                 (A) (A) (A) (A) (A) (A) (A) (A) (A) (A) (A) (A)
                 (A) (A) (A) (A) (A) (A) (A) (A) (A) (A) (A) (A)
                 (A) (A) (A) (A) (A) (A) (A) (A) (A) (A) (A) (A)
                 (A) (A) (A) (A) (A) (A) (A) (A) (A) (A) (A) (A)
                 (A) (A) (A) (A) (A) (A) (A) (A) (A) (A) (A) (A)
                 (A) (A) (A) (A) (A) (A) (A) (A) (A) (A) (A) (A)
                 (A) (A) (A) (A) (A) (A) (A) (A) (A) (A) (A) (A)
                 (A) (A) (A) (A) (A) (A) (A) (A) (A) (A) (A) (A)
                 (A) (A) (A) (A) (A) (A) (A) (A) (A) (A) (A) (A)
                 (A) (A) (A) (A) (A) (A) (A) (A) (A) (A) (A) (A)
                 (A) (A) (A) (A) (A) (A) (A) (A) (A) (A) (A) (A)
                 (A) (A) (A) (A) (A) (A) (A) (A) (A) (A) (A) (A)
                 (A) (A) (A) (A) (A) (A) (A) (A) (A) (A) (A) (A)
                 (A) (A) (A) (A) (A) (A) (A) (A) (A) (A) (A) (A)
                 (A) (A) (A) (A) (A) (A) (A) (A) (A) (A) (A) (A)
                 (A) (A) (A) (A) (A) (A) (A) (A) (A) (A) (A) (A)
                 (A) (A) (A) (A) (A) (A) (A) (A) (A) (A) (A) (A)
                 (A) (A) (A) (A) (A) (A) (A) (A) (A) (A) (A) (A)
                 (A) (A) (A) (A) (A) (A) (A) (A) (A) (A) (A) (A)
                 (A) (A) (A) (A) (A) (A) (A) (A) (A) (A) (A) (A)
                 (A) (A) (A) (A) (A) (A) (A) (A) (A) (A) (A) (A)
                 (A) (A) (A) (A) (A) (A) (A) (A) (A) (A) (A) (A)
                 (A) (A) (A) (A) (A) (A) (A) (A) (A) (A) (A) (A)
                 (A) (A) (A) (A) (A) (A) (A) (A) (A) (A) (A) (A)
                 (A) (A) (A) (A) (A) (A) (A) (A) (A) (A) (A) (A)
                 (A) (A) (A) (A) (A) (A) (A) (A) (A) (A) (A) (A)
                 (A) (A) (A) (A) (A) (A) (A) (A) (A) (A) (A) (A)
                 (A) (A) (A) (A) (A) (A) (A) (A) (A) (A) (A) (A)
                 (A) (A) (A) (A) (A) (A) (A) (A) (A) (A) (A) (A)
                 (A) (A) (A) (A) (A) (A) (A) (A) (A) (A) (A) (A)
                 (A) (A) (A) (A) (A) (A) (A) (A) (A) (A) (A) (A)
                 (A) (A) (A) (A) (A) (A) (A) (A) (A) (A) (A) (A)
                 (A) (A) (A) (A) (A) (A) (A) (A) (A) (A) (A) (A)
                 (A) (A) (A) (A) (A) (A) (A) (A) (A) (A) (A) (A)
                 (A) (A) (A) (A) (A) (A) (A) (A) (A) (A) (A) (A)
                 (A) (A) (A) (A) (A) (A) (A) (A) (A) (A) (A) (A)
                 (A) (A) (A) (A) (A) (A) (A) (A) (A) (A) (A) (A)
                 (A) (A) (A) (A) (A) (A) (A) (A) (A) (A) (A) (A)
                 (A) (A) (A) (A) (A) (A) (A) (A) (A) (A) (A) (A)
                 (A) (A) (A) (A) (A) (A) (A) (A) (A) (A) (A) (A)
                 (A) (A) (A) (A) (A) (A) (A) (A) (A) (A) (A) (A)
                 (A) (A) (A) (A) (A) (A) (A) (A) (A) (A) (A) (A)
                 (A) (A) (A) (A) (A) (A) (A) (A) (A) (A) (A) (A)
                 (A) (A) (A) (A) (A) (A) (A) (A) (A) (A) (A) (A)
                 (A) (A) (A) (A) (A) (A) (A) (A) (A) (A) (A) (A)
                 (A) (A) (A) (A) (A) (A) (A) (A) (A) (A) (A) (A)
                 (A) (A) (A) (A) (A) (A) (A) (A) (A) (A) (A) (A)
                 (A) (A) (A) (A) (A) (A) (A) (A) (A) (A) (A) (A)
                 (A) (A) (A) (A) (A) (A) (A) (A) (A) (A) (A) (A)
                 (A) (A) (A) (A) (A) (A) (A) (A) (A) (A) (A) (A)
                 (A) (A) (A) (A) (A) (A) (A) (A) (A) (A) (A) (A)
                 (A) (A) (A) (A) (A) (A) (A) (A) (A) (A) (A) (A)
                 (A) (A) (A) (A) (A) (A) (A) (A) (A) (A) (A) (A)
                 (A) (A) (A) (A) (A) (A) (A) (A) (A) (A) (A) (A)
                 (A) (A) (A) (A) (A) (A) (A) (A) (A) (A) (A) (A)
                 (A) (A) (A) (A) (A) (A) (A) (A) (A) (A) (A) (A)
                 (A) (A) (A) (A) (A) (A) (A) (A) (A) (A) (A) (A)
                 (A) (A) (A) (A) (A) (A) (A) (A) (A) (A) (A) (A)
                 (A) (A) (A) (A) (A) (A) (A) (A) (A) (A) (A) (A)
                 (A) (A) (A) (A) (A) (A) (A) (A) (A) (A) (A) (A)
                 (A) (A) (A) (A) (A) (A) (A) (A) (A) (A) (A) (A)
                 (A) (A) (A) (A) (A) (A) (A) (A) (A) (A) (A) (A)
                 (A) (A) (A) (A) (A) (A) (A) (A) (A) (A) (A) (A)
                 (A) (A) (A) (A) (A) (A) (A) (A) (A) (A) (A) (A)
                 (A) (A) (A) (A) (A) (A) (A) (A) (A) (A) (A) (A)
                 (A) (A) (A) (A) (A) (A) (A) (A) (A) (A) (A) (A)
                 (A) (A) (A) (A) (A) (A) (A) (A) (A) (A) (A) (A)
                 (A) (A) (A) (A) (A) (A) (A) (A) (A) (A) (A) (A)
                 (A) (A) (A) (A) (A) (A) (A) (A) (A) (A) (A) (A)
                 (A) (A) (A) (A) (A) (A) (A) (A) (A) (A) (A) (A)
                 (A) (A) (A) (A) (A) (A) (A) (A) (A) (A) (A) (A)
                 (A) (A) (A) (A) (A) (A) (A) (A) (A) (A) (A) (A)
                 (A) (A) (A) (A) (A) (A) (A) (A) (A) (A) (A) (A)
                 (A) (A) (A) (A) (A) (A) (A) (A) (A) (A) (A) (A)
                 (A) (A) (A) (A) (A) (A) (A) (A) (A) (A) (A) (A)
                 (A) (A) (A) (A) (A) (A) (A) (A) (A) (A) (A) (A)
                 (A) (A) (A) (A) (A) (A) (A) (A) (A) (A) (A) (A)
                 (A) (A) (A) (A) (A) (A) (A) (A) (A) (A) (A) (A)
                 (A) (A) (A) (A) (A) (A) (A) (A) (A) (A) (A) (A)
                 (A) (A) (A) (A) (A) (A) (A) (A) (A) (A) (A) (A)
                 (A) (A) (A) (A) (A) (A) (A) (A) (A) (A) (A) (A)
                 (A) (A) (A) (A) (A) (A) (A) (A) (A) (A) (A) (A)
                 (A) (A) (A) (A) (A) (A) (A) (A) (A) (A) (A) (A)
                 (A) (A) (A) (A) (A) (A) (A) (A) (A) (A) (A) (A)
                 (A) (A) (A) (A) (A) (A) (A) (A) (A) (A) (A) (A)
                 (A) (A) (A) (A) (A) (A) (A) (A) (A) (A) (A) (A)
                 (A) (A) (A) (A) (A) (A) (A) (A) (A) (A) (A) (A)
                 (A) (A) (A) (A) (A) (A) (A) (A) (A) (A) (A) (A)
                 (A) (A) (A) (A) (A) (A) (A) (A) (A) (A) (A) (A)
                 (A) (A) (A) (A) (A) (A) (A) (A) (A) (A) (A) (A)
                 (A) (A) (A) (A) (A) (A) (A) (A) (A) (A) (A) (A)
                 (A) (A) (A) (A) (A) (A) (A) (A) (A) (A) (A) (A)
                 (A) (A) (A) (A) (A) (A) (A) (A) (A) (A) (A) (A)
                 (A) (A) (A) (A) (A) (A) (A) (A) (A) (A) (A) (A)
                 (A) (A) (A) (A) (A) (A) (A) (A) (A) (A) (A) (A)
                 (A) (A) (A) (A) (A) (A) (A) (A) (A) (A) (A) (A)
                 (A) (A) (A) (A) (A) (A) (A) (A) (A) (A) (A) (A)
                 (A) (A) (A) (A) (A) (A) (A) (A) (A) (A) (A) (A)
                 (A) (A) (A) (A)
 Beta  Orbitals:
       Occupied  (A) (A) (A) (A) (A) (A) (A) (A) (A) (A) (A) (A)
                 (A) (A) (A) (A) (A) (A) (A) (A) (A) (A) (A) (A)
                 (A) (A) (A) (A) (A) (A) (A) (A) (A) (A) (A) (A)
                 (A) (A) (A) (A) (A) (A) (A) (A) (A) (A) (A) (A)
                 (A) (A) (A) (A) (A) (A) (A) (A) (A) (A) (A) (A)
                 (A) (A) (A) (A) (A) (A) (A) (A) (A) (A) (A) (A)
                 (A) (A) (A) (A) (A) (A) (A) (A) (A) (A) (A) (A)
                 (A) (A) (A) (A) (A) (A) (A) (A) (A) (A) (A) (A)
                 (A) (A) (A) (A) (A) (A) (A) (A) (A) (A) (A) (A)
                 (A) (A) (A) (A) (A) (A) (A) (A) (A) (A) (A) (A)
                 (A) (A) (A) (A) (A) (A) (A) (A) (A) (A) (A) (A)
                 (A) (A) (A) (A) (A) (A) (A) (A) (A) (A) (A) (A)
                 (A) (A) (A) (A) (A) (A) (A) (A) (A) (A) (A) (A)
                 (A) (A) (A) (A) (A) (A) (A) (A) (A) (A) (A) (A)
                 (A) (A) (A) (A) (A) (A) (A) (A) (A) (A) (A) (A)
       Virtual   (A) (A) (A) (A) (A) (A) (A) (A) (A) (A) (A) (A)
                 (A) (A) (A) (A) (A) (A) (A) (A) (A) (A) (A) (A)
                 (A) (A) (A) (A) (A) (A) (A) (A) (A) (A) (A) (A)
                 (A) (A) (A) (A) (A) (A) (A) (A) (A) (A) (A) (A)
                 (A) (A) (A) (A) (A) (A) (A) (A) (A) (A) (A) (A)
                 (A) (A) (A) (A) (A) (A) (A) (A) (A) (A) (A) (A)
                 (A) (A) (A) (A) (A) (A) (A) (A) (A) (A) (A) (A)
                 (A) (A) (A) (A) (A) (A) (A) (A) (A) (A) (A) (A)
                 (A) (A) (A) (A) (A) (A) (A) (A) (A) (A) (A) (A)
                 (A) (A) (A) (A) (A) (A) (A) (A) (A) (A) (A) (A)
                 (A) (A) (A) (A) (A) (A) (A) (A) (A) (A) (A) (A)
                 (A) (A) (A) (A) (A) (A) (A) (A) (A) (A) (A) (A)
                 (A) (A) (A) (A) (A) (A) (A) (A) (A) (A) (A) (A)
                 (A) (A) (A) (A) (A) (A) (A) (A) (A) (A) (A) (A)
                 (A) (A) (A) (A) (A) (A) (A) (A) (A) (A) (A) (A)
                 (A) (A) (A) (A) (A) (A) (A) (A) (A) (A) (A) (A)
                 (A) (A) (A) (A) (A) (A) (A) (A) (A) (A) (A) (A)
                 (A) (A) (A) (A) (A) (A) (A) (A) (A) (A) (A) (A)
                 (A) (A) (A) (A) (A) (A) (A) (A) (A) (A) (A) (A)
                 (A) (A) (A) (A) (A) (A) (A) (A) (A) (A) (A) (A)
                 (A) (A) (A) (A) (A) (A) (A) (A) (A) (A) (A) (A)
                 (A) (A) (A) (A) (A) (A) (A) (A) (A) (A) (A) (A)
                 (A) (A) (A) (A) (A) (A) (A) (A) (A) (A) (A) (A)
                 (A) (A) (A) (A) (A) (A) (A) (A) (A) (A) (A) (A)
                 (A) (A) (A) (A) (A) (A) (A) (A) (A) (A) (A) (A)
                 (A) (A) (A) (A) (A) (A) (A) (A) (A) (A) (A) (A)
                 (A) (A) (A) (A) (A) (A) (A) (A) (A) (A) (A) (A)
                 (A) (A) (A) (A) (A) (A) (A) (A) (A) (A) (A) (A)
                 (A) (A) (A) (A) (A) (A) (A) (A) (A) (A) (A) (A)
                 (A) (A) (A) (A) (A) (A) (A) (A) (A) (A) (A) (A)
                 (A) (A) (A) (A) (A) (A) (A) (A) (A) (A) (A) (A)
                 (A) (A) (A) (A) (A) (A) (A) (A) (A) (A) (A) (A)
                 (A) (A) (A) (A) (A) (A) (A) (A) (A) (A) (A) (A)
                 (A) (A) (A) (A) (A) (A) (A) (A) (A) (A) (A) (A)
                 (A) (A) (A) (A) (A) (A) (A) (A) (A) (A) (A) (A)
                 (A) (A) (A) (A) (A) (A) (A) (A) (A) (A) (A) (A)
                 (A) (A) (A) (A) (A) (A) (A) (A) (A) (A) (A) (A)
                 (A) (A) (A) (A) (A) (A) (A) (A) (A) (A) (A) (A)
                 (A) (A) (A) (A) (A) (A) (A) (A) (A) (A) (A) (A)
                 (A) (A) (A) (A) (A) (A) (A) (A) (A) (A) (A) (A)
                 (A) (A) (A) (A) (A) (A) (A) (A) (A) (A) (A) (A)
                 (A) (A) (A) (A) (A) (A) (A) (A) (A) (A) (A) (A)
                 (A) (A) (A) (A) (A) (A) (A) (A) (A) (A) (A) (A)
                 (A) (A) (A) (A) (A) (A) (A) (A) (A) (A) (A) (A)
                 (A) (A) (A) (A) (A) (A) (A) (A) (A) (A) (A) (A)
                 (A) (A) (A) (A) (A) (A) (A) (A) (A) (A) (A) (A)
                 (A) (A) (A) (A) (A) (A) (A) (A) (A) (A) (A) (A)
                 (A) (A) (A) (A) (A) (A) (A) (A) (A) (A) (A) (A)
                 (A) (A) (A) (A) (A) (A) (A) (A) (A) (A) (A) (A)
                 (A) (A) (A) (A) (A) (A) (A) (A) (A) (A) (A) (A)
                 (A) (A) (A) (A) (A) (A) (A) (A) (A) (A) (A) (A)
                 (A) (A) (A) (A) (A) (A) (A) (A) (A) (A) (A) (A)
                 (A) (A) (A) (A) (A) (A) (A) (A) (A) (A) (A) (A)
                 (A) (A) (A) (A) (A) (A) (A) (A) (A) (A) (A) (A)
                 (A) (A) (A) (A) (A) (A) (A) (A) (A) (A) (A) (A)
                 (A) (A) (A) (A) (A) (A) (A) (A) (A) (A) (A) (A)
                 (A) (A) (A) (A) (A) (A) (A) (A) (A) (A) (A) (A)
                 (A) (A) (A) (A) (A) (A) (A) (A) (A) (A) (A) (A)
                 (A) (A) (A) (A) (A) (A) (A) (A) (A) (A) (A) (A)
                 (A) (A) (A) (A) (A) (A) (A) (A) (A) (A) (A) (A)
                 (A) (A) (A) (A) (A) (A) (A) (A) (A) (A) (A) (A)
                 (A) (A) (A) (A) (A) (A) (A) (A) (A) (A) (A) (A)
                 (A) (A) (A) (A) (A) (A) (A) (A) (A) (A) (A) (A)
                 (A) (A) (A) (A) (A) (A) (A) (A) (A) (A) (A) (A)
                 (A) (A) (A) (A) (A) (A) (A) (A) (A) (A) (A) (A)
                 (A) (A) (A) (A) (A) (A) (A) (A) (A) (A) (A) (A)
                 (A) (A) (A) (A) (A) (A) (A) (A) (A) (A) (A) (A)
                 (A) (A) (A) (A) (A) (A) (A) (A) (A) (A) (A) (A)
                 (A) (A) (A) (A) (A) (A) (A) (A) (A) (A) (A) (A)
                 (A) (A) (A) (A) (A) (A) (A) (A) (A) (A) (A) (A)
                 (A) (A) (A) (A) (A) (A) (A) (A) (A) (A) (A) (A)
                 (A) (A) (A) (A) (A) (A) (A) (A) (A) (A) (A) (A)
                 (A) (A) (A) (A) (A) (A) (A) (A) (A) (A) (A) (A)
                 (A) (A) (A) (A) (A) (A) (A) (A) (A) (A) (A) (A)
                 (A) (A) (A) (A) (A) (A) (A) (A) (A) (A) (A) (A)
                 (A) (A) (A) (A) (A) (A) (A) (A) (A) (A) (A) (A)
                 (A) (A) (A) (A) (A) (A) (A) (A) (A) (A) (A) (A)
                 (A) (A) (A) (A) (A) (A) (A) (A) (A) (A) (A) (A)
                 (A) (A) (A) (A) (A) (A) (A) (A) (A) (A) (A) (A)
                 (A) (A) (A) (A) (A) (A) (A) (A) (A) (A) (A) (A)
                 (A) (A) (A) (A) (A) (A) (A) (A) (A) (A) (A) (A)
                 (A) (A) (A) (A) (A) (A) (A) (A) (A) (A) (A) (A)
                 (A) (A) (A) (A) (A) (A) (A) (A) (A) (A) (A) (A)
                 (A) (A) (A) (A) (A) (A) (A) (A) (A) (A) (A) (A)
                 (A) (A) (A) (A) (A) (A) (A) (A) (A) (A) (A) (A)
                 (A) (A) (A) (A) (A) (A) (A) (A) (A) (A) (A) (A)
                 (A) (A) (A) (A) (A) (A) (A) (A) (A) (A) (A) (A)
                 (A) (A) (A) (A) (A) (A) (A) (A) (A) (A) (A) (A)
                 (A) (A) (A) (A) (A) (A) (A) (A) (A) (A) (A) (A)
                 (A) (A) (A) (A) (A) (A) (A) (A) (A) (A) (A) (A)
                 (A) (A) (A) (A) (A) (A) (A) (A) (A) (A) (A) (A)
                 (A) (A) (A) (A) (A) (A) (A) (A) (A) (A) (A) (A)
                 (A) (A) (A) (A) (A) (A) (A) (A) (A) (A) (A) (A)
                 (A) (A) (A) (A) (A) (A) (A) (A) (A) (A) (A) (A)
                 (A) (A) (A) (A) (A) (A) (A) (A) (A) (A) (A) (A)
                 (A) (A) (A) (A) (A) (A) (A) (A) (A) (A) (A) (A)
                 (A) (A) (A) (A) (A) (A) (A) (A) (A) (A) (A) (A)
                 (A) (A) (A) (A) (A) (A) (A) (A) (A) (A) (A) (A)
                 (A) (A) (A) (A) (A) (A) (A) (A) (A) (A) (A) (A)
                 (A) (A) (A) (A) (A) (A) (A) (A) (A) (A) (A) (A)
                 (A) (A) (A) (A) (A) (A) (A) (A) (A) (A) (A) (A)
                 (A) (A) (A) (A) (A) (A) (A) (A) (A) (A) (A) (A)
                 (A) (A) (A) (A) (A) (A) (A) (A) (A) (A) (A) (A)
                 (A) (A) (A) (A) (A) (A) (A) (A) (A) (A) (A) (A)
                 (A) (A) (A) (A) (A) (A) (A) (A) (A) (A) (A) (A)
                 (A) (A) (A) (A) (A) (A) (A) (A) (A) (A) (A) (A)
                 (A) (A) (A) (A) (A) (A) (A) (A) (A) (A) (A) (A)
                 (A) (A) (A) (A) (A) (A) (A) (A) (A) (A) (A) (A)
                 (A) (A) (A) (A) (A) (A) (A) (A) (A) (A) (A) (A)
                 (A) (A) (A) (A) (A) (A) (A) (A) (A) (A) (A) (A)
                 (A) (A) (A) (A) (A) (A) (A) (A) (A) (A) (A) (A)
                 (A) (A) (A) (A) (A) (A) (A) (A) (A) (A) (A) (A)
                 (A) (A) (A) (A) (A) (A) (A) (A) (A) (A) (A) (A)
                 (A) (A) (A) (A) (A) (A) (A) (A) (A) (A) (A) (A)
                 (A) (A) (A) (A) (A) (A) (A) (A) (A) (A) (A) (A)
                 (A) (A) (A) (A) (A) (A) (A) (A) (A) (A) (A) (A)
                 (A) (A) (A) (A) (A) (A) (A) (A) (A) (A) (A) (A)
                 (A) (A) (A) (A) (A) (A) (A) (A) (A) (A) (A) (A)
                 (A) (A) (A) (A) (A) (A) (A) (A) (A) (A) (A) (A)
                 (A) (A) (A) (A) (A) (A) (A) (A) (A) (A) (A) (A)
                 (A) (A) (A) (A) (A) (A) (A) (A) (A) (A) (A) (A)
                 (A) (A) (A) (A) (A) (A) (A) (A) (A) (A) (A) (A)
                 (A) (A) (A) (A) (A) (A) (A) (A) (A) (A) (A) (A)
                 (A) (A) (A) (A) (A) (A) (A) (A) (A) (A) (A) (A)
                 (A) (A) (A) (A) (A) (A) (A) (A) (A) (A) (A) (A)
                 (A) (A) (A) (A) (A) (A) (A) (A) (A) (A) (A) (A)
                 (A) (A) (A) (A) (A) (A) (A) (A) (A) (A) (A) (A)
                 (A) (A) (A) (A) (A) (A) (A) (A) (A) (A) (A) (A)
                 (A) (A) (A) (A) (A) (A) (A) (A) (A) (A) (A) (A)
                 (A) (A) (A) (A) (A) (A) (A) (A) (A) (A) (A) (A)
                 (A) (A) (A) (A) (A) (A) (A) (A) (A) (A) (A) (A)
                 (A) (A) (A) (A) (A) (A) (A) (A) (A)
 The electronic state is 6-A.
 Alpha  occ. eigenvalues -- -256.55452 -30.38262 -26.20080 -26.19830 -26.19768
 Alpha  occ. eigenvalues --  -19.33359 -19.31725 -19.26935 -19.25779 -14.56052
 Alpha  occ. eigenvalues --  -14.51893 -14.50504 -14.49998 -14.49635 -14.49313
 Alpha  occ. eigenvalues --  -10.43714 -10.42799 -10.40287 -10.39248 -10.37672
 Alpha  occ. eigenvalues --  -10.37668 -10.37029 -10.36923 -10.36757 -10.36619
 Alpha  occ. eigenvalues --  -10.36565 -10.35966 -10.35893 -10.35817 -10.35510
 Alpha  occ. eigenvalues --  -10.35248 -10.34286 -10.34241 -10.34093 -10.33897
 Alpha  occ. eigenvalues --  -10.33820 -10.33758 -10.33255 -10.33216 -10.33016
 Alpha  occ. eigenvalues --  -10.32972 -10.32887 -10.32812 -10.32798 -10.32782
 Alpha  occ. eigenvalues --  -10.32104 -10.31463 -10.31323 -10.31197 -10.31101
 Alpha  occ. eigenvalues --  -10.30947 -10.30006 -10.29953  -3.80795  -2.56988
 Alpha  occ. eigenvalues --   -2.56845  -2.56750  -1.25129  -1.22969  -1.16828
 Alpha  occ. eigenvalues --   -1.11671  -1.09862  -1.09676  -1.07781  -1.06489
 Alpha  occ. eigenvalues --   -1.05292  -1.02342  -0.96174  -0.95575  -0.94144
 Alpha  occ. eigenvalues --   -0.93448  -0.93112  -0.92524  -0.91724  -0.90999
 Alpha  occ. eigenvalues --   -0.89424  -0.88632  -0.87644  -0.85595  -0.84739
 Alpha  occ. eigenvalues --   -0.83867  -0.83252  -0.82715  -0.82537  -0.81531
 Alpha  occ. eigenvalues --   -0.79776  -0.78667  -0.78316  -0.77700  -0.75969
 Alpha  occ. eigenvalues --   -0.75927  -0.75035  -0.74025  -0.73104  -0.72954
 Alpha  occ. eigenvalues --   -0.71268  -0.70856  -0.68623  -0.67837  -0.67165
 Alpha  occ. eigenvalues --   -0.66458  -0.65812  -0.65495  -0.64139  -0.63966
 Alpha  occ. eigenvalues --   -0.63153  -0.62351  -0.61900  -0.61184  -0.60498
 Alpha  occ. eigenvalues --   -0.59686  -0.59641  -0.59177  -0.59006  -0.58817
 Alpha  occ. eigenvalues --   -0.58697  -0.57728  -0.57644  -0.57161  -0.57074
 Alpha  occ. eigenvalues --   -0.56752  -0.56618  -0.56016  -0.55940  -0.55680
 Alpha  occ. eigenvalues --   -0.55288  -0.55091  -0.54680  -0.54621  -0.54518
 Alpha  occ. eigenvalues --   -0.54169  -0.53891  -0.53591  -0.53568  -0.53300
 Alpha  occ. eigenvalues --   -0.53162  -0.52738  -0.52624  -0.52198  -0.52044
 Alpha  occ. eigenvalues --   -0.51999  -0.51645  -0.51450  -0.51020  -0.50592
 Alpha  occ. eigenvalues --   -0.50335  -0.50059  -0.49634  -0.49397  -0.49213
 Alpha  occ. eigenvalues --   -0.49008  -0.48922  -0.48557  -0.47741  -0.47570
 Alpha  occ. eigenvalues --   -0.46666  -0.46449  -0.46118  -0.45920  -0.45704
 Alpha  occ. eigenvalues --   -0.45416  -0.44765  -0.44468  -0.44227  -0.44015
 Alpha  occ. eigenvalues --   -0.42542  -0.42030  -0.41985  -0.40570  -0.40311
 Alpha  occ. eigenvalues --   -0.40238  -0.40037  -0.38847  -0.38775  -0.38073
 Alpha  occ. eigenvalues --   -0.36538  -0.36260  -0.35742  -0.35148  -0.34486
 Alpha  occ. eigenvalues --   -0.33406  -0.32893  -0.32421  -0.31413  -0.29337
 Alpha virt. eigenvalues --   -0.20462  -0.18092  -0.14371  -0.13392  -0.12812
 Alpha virt. eigenvalues --   -0.10651  -0.09956  -0.09574  -0.07696  -0.06797
 Alpha virt. eigenvalues --   -0.06710  -0.06167  -0.05193  -0.05048  -0.04383
 Alpha virt. eigenvalues --   -0.04307  -0.03869  -0.03247  -0.03027  -0.02622
 Alpha virt. eigenvalues --   -0.02308  -0.02014  -0.01668  -0.01388  -0.00539
 Alpha virt. eigenvalues --   -0.00264  -0.00228  -0.00006   0.00188   0.00372
 Alpha virt. eigenvalues --    0.00812   0.00948   0.01341   0.01448   0.01660
 Alpha virt. eigenvalues --    0.01775   0.02285   0.02624   0.02897   0.03093
 Alpha virt. eigenvalues --    0.03188   0.03427   0.03662   0.03977   0.04020
 Alpha virt. eigenvalues --    0.04112   0.04280   0.04625   0.04798   0.05057
 Alpha virt. eigenvalues --    0.05351   0.05369   0.05683   0.05985   0.06310
 Alpha virt. eigenvalues --    0.06433   0.06493   0.06723   0.07088   0.07346
 Alpha virt. eigenvalues --    0.07586   0.07832   0.07969   0.08144   0.08318
 Alpha virt. eigenvalues --    0.08650   0.09111   0.09265   0.09319   0.09572
 Alpha virt. eigenvalues --    0.09853   0.10022   0.10425   0.10574   0.10880
 Alpha virt. eigenvalues --    0.11056   0.11196   0.11554   0.11637   0.11954
 Alpha virt. eigenvalues --    0.12121   0.12212   0.12388   0.12583   0.13041
 Alpha virt. eigenvalues --    0.13246   0.13442   0.13745   0.13863   0.14071
 Alpha virt. eigenvalues --    0.14326   0.14409   0.14661   0.14740   0.15081
 Alpha virt. eigenvalues --    0.15249   0.15455   0.15657   0.16298   0.16347
 Alpha virt. eigenvalues --    0.16669   0.16795   0.17126   0.17276   0.17511
 Alpha virt. eigenvalues --    0.17701   0.17924   0.18126   0.18211   0.18390
 Alpha virt. eigenvalues --    0.18738   0.18952   0.19087   0.19208   0.19511
 Alpha virt. eigenvalues --    0.19818   0.19920   0.20341   0.20547   0.20640
 Alpha virt. eigenvalues --    0.21009   0.21271   0.21567   0.21620   0.21847
 Alpha virt. eigenvalues --    0.22192   0.22363   0.22643   0.22936   0.23070
 Alpha virt. eigenvalues --    0.23385   0.23454   0.23656   0.23946   0.24139
 Alpha virt. eigenvalues --    0.24386   0.24447   0.24705   0.25365   0.25421
 Alpha virt. eigenvalues --    0.25494   0.25829   0.25887   0.26276   0.26438
 Alpha virt. eigenvalues --    0.26721   0.27013   0.27194   0.27217   0.27498
 Alpha virt. eigenvalues --    0.27795   0.28163   0.28280   0.28589   0.28662
 Alpha virt. eigenvalues --    0.28685   0.29260   0.29590   0.29665   0.29889
 Alpha virt. eigenvalues --    0.30098   0.30514   0.30806   0.30881   0.31104
 Alpha virt. eigenvalues --    0.31290   0.31620   0.31889   0.31944   0.32094
 Alpha virt. eigenvalues --    0.32436   0.32619   0.32656   0.32820   0.33150
 Alpha virt. eigenvalues --    0.33484   0.33680   0.33921   0.33963   0.34367
 Alpha virt. eigenvalues --    0.34858   0.34902   0.35022   0.35223   0.35310
 Alpha virt. eigenvalues --    0.35759   0.35783   0.36006   0.36254   0.36362
 Alpha virt. eigenvalues --    0.36761   0.36885   0.37291   0.37363   0.37543
 Alpha virt. eigenvalues --    0.37653   0.37794   0.37829   0.38261   0.38466
 Alpha virt. eigenvalues --    0.38601   0.38696   0.39164   0.39372   0.39506
 Alpha virt. eigenvalues --    0.39689   0.40058   0.40309   0.40405   0.40571
 Alpha virt. eigenvalues --    0.40674   0.40817   0.40916   0.41202   0.41433
 Alpha virt. eigenvalues --    0.41583   0.41788   0.42107   0.42217   0.42430
 Alpha virt. eigenvalues --    0.42557   0.42724   0.42887   0.43101   0.43137
 Alpha virt. eigenvalues --    0.43275   0.43659   0.44019   0.44156   0.44329
 Alpha virt. eigenvalues --    0.44546   0.44643   0.44900   0.45344   0.45375
 Alpha virt. eigenvalues --    0.45516   0.45798   0.46227   0.46584   0.46670
 Alpha virt. eigenvalues --    0.46964   0.47225   0.47431   0.47663   0.47819
 Alpha virt. eigenvalues --    0.47840   0.48099   0.48288   0.48607   0.48772
 Alpha virt. eigenvalues --    0.48986   0.49199   0.49369   0.49921   0.50080
 Alpha virt. eigenvalues --    0.50112   0.50594   0.50844   0.51125   0.51330
 Alpha virt. eigenvalues --    0.51368   0.51748   0.52157   0.52511   0.52631
 Alpha virt. eigenvalues --    0.52812   0.52885   0.53439   0.53557   0.53876
 Alpha virt. eigenvalues --    0.54270   0.54518   0.54830   0.55106   0.55417
 Alpha virt. eigenvalues --    0.55771   0.56078   0.56311   0.56650   0.56899
 Alpha virt. eigenvalues --    0.57019   0.57202   0.57692   0.57781   0.58079
 Alpha virt. eigenvalues --    0.58169   0.58420   0.58742   0.58957   0.59130
 Alpha virt. eigenvalues --    0.59621   0.59844   0.60116   0.60408   0.60545
 Alpha virt. eigenvalues --    0.61087   0.61401   0.61600   0.61813   0.62232
 Alpha virt. eigenvalues --    0.62521   0.62698   0.63095   0.63443   0.63551
 Alpha virt. eigenvalues --    0.63811   0.63950   0.64207   0.64293   0.64725
 Alpha virt. eigenvalues --    0.65023   0.65315   0.65713   0.65909   0.66047
 Alpha virt. eigenvalues --    0.66102   0.66679   0.67100   0.67242   0.67628
 Alpha virt. eigenvalues --    0.68159   0.68449   0.68586   0.68850   0.69289
 Alpha virt. eigenvalues --    0.69530   0.69916   0.70132   0.70318   0.70763
 Alpha virt. eigenvalues --    0.71012   0.71614   0.71944   0.72227   0.72368
 Alpha virt. eigenvalues --    0.72465   0.72717   0.73130   0.73806   0.73970
 Alpha virt. eigenvalues --    0.74354   0.74777   0.75103   0.75316   0.75560
 Alpha virt. eigenvalues --    0.75748   0.75891   0.76279   0.76825   0.77159
 Alpha virt. eigenvalues --    0.77376   0.77516   0.77804   0.78353   0.78758
 Alpha virt. eigenvalues --    0.78989   0.79359   0.79605   0.79687   0.80119
 Alpha virt. eigenvalues --    0.80216   0.80574   0.80854   0.81028   0.81452
 Alpha virt. eigenvalues --    0.82000   0.82140   0.82492   0.82746   0.83088
 Alpha virt. eigenvalues --    0.83401   0.83579   0.83824   0.83966   0.84314
 Alpha virt. eigenvalues --    0.84432   0.85129   0.85332   0.85595   0.85951
 Alpha virt. eigenvalues --    0.86435   0.86519   0.86974   0.87080   0.87103
 Alpha virt. eigenvalues --    0.87661   0.87903   0.87983   0.88337   0.88692
 Alpha virt. eigenvalues --    0.88978   0.89255   0.89585   0.89768   0.90147
 Alpha virt. eigenvalues --    0.90368   0.90737   0.91059   0.91117   0.91303
 Alpha virt. eigenvalues --    0.92351   0.92402   0.92525   0.92748   0.92937
 Alpha virt. eigenvalues --    0.93104   0.93550   0.94172   0.94645   0.95228
 Alpha virt. eigenvalues --    0.95552   0.95782   0.95993   0.96230   0.96704
 Alpha virt. eigenvalues --    0.97082   0.97544   0.97744   0.97782   0.98032
 Alpha virt. eigenvalues --    0.98412   0.99020   0.99116   1.00188   1.00440
 Alpha virt. eigenvalues --    1.00639   1.00849   1.01229   1.01477   1.02253
 Alpha virt. eigenvalues --    1.02916   1.03090   1.03463   1.03694   1.03947
 Alpha virt. eigenvalues --    1.04306   1.04652   1.05052   1.05594   1.05734
 Alpha virt. eigenvalues --    1.05946   1.06681   1.06953   1.07468   1.07942
 Alpha virt. eigenvalues --    1.08091   1.08584   1.08723   1.09197   1.09291
 Alpha virt. eigenvalues --    1.09535   1.09694   1.10222   1.10471   1.10832
 Alpha virt. eigenvalues --    1.11366   1.11464   1.11907   1.12189   1.12616
 Alpha virt. eigenvalues --    1.13075   1.13599   1.13638   1.13843   1.14434
 Alpha virt. eigenvalues --    1.14785   1.15085   1.15401   1.16084   1.16373
 Alpha virt. eigenvalues --    1.16534   1.16984   1.17307   1.17400   1.18215
 Alpha virt. eigenvalues --    1.18677   1.19137   1.19415   1.19647   1.20058
 Alpha virt. eigenvalues --    1.20649   1.21016   1.21552   1.21590   1.22285
 Alpha virt. eigenvalues --    1.22443   1.22828   1.22925   1.23962   1.24105
 Alpha virt. eigenvalues --    1.24455   1.24781   1.24917   1.25591   1.26139
 Alpha virt. eigenvalues --    1.26336   1.26981   1.27690   1.27941   1.28609
 Alpha virt. eigenvalues --    1.28707   1.29440   1.29577   1.30143   1.30440
 Alpha virt. eigenvalues --    1.31261   1.31617   1.31857   1.32072   1.32808
 Alpha virt. eigenvalues --    1.33051   1.33174   1.33322   1.33993   1.34046
 Alpha virt. eigenvalues --    1.34382   1.34643   1.35307   1.35697   1.36093
 Alpha virt. eigenvalues --    1.36200   1.36447   1.36787   1.36842   1.37455
 Alpha virt. eigenvalues --    1.37870   1.37993   1.38697   1.39000   1.39346
 Alpha virt. eigenvalues --    1.39629   1.39881   1.40368   1.40744   1.41173
 Alpha virt. eigenvalues --    1.41613   1.42010   1.42362   1.42544   1.43009
 Alpha virt. eigenvalues --    1.43131   1.43625   1.43933   1.44103   1.44398
 Alpha virt. eigenvalues --    1.44467   1.44718   1.45053   1.45373   1.45748
 Alpha virt. eigenvalues --    1.45866   1.46116   1.46708   1.47056   1.47268
 Alpha virt. eigenvalues --    1.47742   1.47840   1.48224   1.48413   1.48983
 Alpha virt. eigenvalues --    1.49174   1.49383   1.49557   1.49857   1.50258
 Alpha virt. eigenvalues --    1.50365   1.50785   1.51027   1.51585   1.51678
 Alpha virt. eigenvalues --    1.51850   1.51938   1.52432   1.52680   1.52899
 Alpha virt. eigenvalues --    1.53230   1.53570   1.53689   1.54187   1.54321
 Alpha virt. eigenvalues --    1.54715   1.55157   1.55406   1.55548   1.56090
 Alpha virt. eigenvalues --    1.56361   1.56793   1.56946   1.57049   1.57248
 Alpha virt. eigenvalues --    1.57567   1.57931   1.58588   1.58649   1.58944
 Alpha virt. eigenvalues --    1.59410   1.59617   1.60195   1.60243   1.60523
 Alpha virt. eigenvalues --    1.60866   1.61080   1.61915   1.61934   1.62474
 Alpha virt. eigenvalues --    1.62671   1.63353   1.63422   1.63714   1.63798
 Alpha virt. eigenvalues --    1.64271   1.65091   1.65175   1.65760   1.66160
 Alpha virt. eigenvalues --    1.66429   1.66775   1.66926   1.67282   1.68097
 Alpha virt. eigenvalues --    1.68280   1.68827   1.69111   1.70027   1.70350
 Alpha virt. eigenvalues --    1.70701   1.70882   1.71241   1.72161   1.72440
 Alpha virt. eigenvalues --    1.72690   1.73027   1.73499   1.73884   1.74216
 Alpha virt. eigenvalues --    1.74783   1.74920   1.75558   1.76242   1.76386
 Alpha virt. eigenvalues --    1.76623   1.77283   1.77683   1.77883   1.78256
 Alpha virt. eigenvalues --    1.78720   1.79045   1.79278   1.79542   1.79844
 Alpha virt. eigenvalues --    1.80305   1.80471   1.80815   1.81275   1.81605
 Alpha virt. eigenvalues --    1.81922   1.82623   1.82822   1.83231   1.83345
 Alpha virt. eigenvalues --    1.83956   1.84279   1.84539   1.84911   1.85422
 Alpha virt. eigenvalues --    1.85606   1.86068   1.86973   1.87312   1.87585
 Alpha virt. eigenvalues --    1.87613   1.88260   1.88812   1.89024   1.89306
 Alpha virt. eigenvalues --    1.89719   1.89936   1.90125   1.90636   1.91016
 Alpha virt. eigenvalues --    1.91463   1.91602   1.92522   1.93015   1.93124
 Alpha virt. eigenvalues --    1.93357   1.93706   1.94529   1.94815   1.94972
 Alpha virt. eigenvalues --    1.95832   1.96103   1.96442   1.96696   1.97016
 Alpha virt. eigenvalues --    1.97371   1.97555   1.98122   1.98649   1.99347
 Alpha virt. eigenvalues --    1.99484   1.99772   2.00162   2.00474   2.01030
 Alpha virt. eigenvalues --    2.01177   2.01517   2.01837   2.02090   2.02446
 Alpha virt. eigenvalues --    2.02784   2.02873   2.03280   2.04001   2.04121
 Alpha virt. eigenvalues --    2.04331   2.04509   2.05081   2.05979   2.06225
 Alpha virt. eigenvalues --    2.06868   2.06971   2.07010   2.07372   2.08161
 Alpha virt. eigenvalues --    2.08210   2.08721   2.09026   2.09469   2.09855
 Alpha virt. eigenvalues --    2.10148   2.10795   2.11113   2.11972   2.12062
 Alpha virt. eigenvalues --    2.12704   2.13103   2.13294   2.13616   2.14093
 Alpha virt. eigenvalues --    2.14254   2.14705   2.15437   2.15952   2.16082
 Alpha virt. eigenvalues --    2.16936   2.17236   2.17286   2.18133   2.18166
 Alpha virt. eigenvalues --    2.18808   2.19277   2.19499   2.19621   2.20015
 Alpha virt. eigenvalues --    2.20405   2.20696   2.21337   2.21764   2.22163
 Alpha virt. eigenvalues --    2.23596   2.23950   2.24293   2.24402   2.24921
 Alpha virt. eigenvalues --    2.25284   2.25796   2.26378   2.26848   2.27058
 Alpha virt. eigenvalues --    2.27572   2.28098   2.28226   2.28672   2.28964
 Alpha virt. eigenvalues --    2.29119   2.29259   2.29668   2.29903   2.30724
 Alpha virt. eigenvalues --    2.31209   2.31665   2.31876   2.32065   2.32672
 Alpha virt. eigenvalues --    2.32902   2.33309   2.34153   2.34218   2.34557
 Alpha virt. eigenvalues --    2.35055   2.35421   2.35808   2.36291   2.36681
 Alpha virt. eigenvalues --    2.37221   2.37533   2.37957   2.38056   2.38410
 Alpha virt. eigenvalues --    2.39392   2.39701   2.39946   2.40104   2.40369
 Alpha virt. eigenvalues --    2.40687   2.41174   2.41383   2.42436   2.42799
 Alpha virt. eigenvalues --    2.43042   2.43464   2.43982   2.44195   2.44366
 Alpha virt. eigenvalues --    2.44764   2.44995   2.45844   2.46269   2.46563
 Alpha virt. eigenvalues --    2.47185   2.47443   2.47659   2.47857   2.48038
 Alpha virt. eigenvalues --    2.48442   2.48601   2.48960   2.49276   2.49698
 Alpha virt. eigenvalues --    2.49890   2.50144   2.50368   2.50545   2.51232
 Alpha virt. eigenvalues --    2.51599   2.51931   2.52317   2.52506   2.53238
 Alpha virt. eigenvalues --    2.53822   2.54294   2.54655   2.54922   2.55556
 Alpha virt. eigenvalues --    2.55880   2.56033   2.56376   2.56763   2.56887
 Alpha virt. eigenvalues --    2.57432   2.57576   2.58020   2.58390   2.58891
 Alpha virt. eigenvalues --    2.59240   2.59510   2.59870   2.59920   2.60176
 Alpha virt. eigenvalues --    2.60575   2.60817   2.60915   2.61067   2.61443
 Alpha virt. eigenvalues --    2.61702   2.62033   2.62438   2.63352   2.63701
 Alpha virt. eigenvalues --    2.64104   2.64359   2.64617   2.65049   2.65661
 Alpha virt. eigenvalues --    2.65740   2.66337   2.66454   2.66809   2.66956
 Alpha virt. eigenvalues --    2.67436   2.67734   2.68436   2.68709   2.69011
 Alpha virt. eigenvalues --    2.69297   2.69742   2.70107   2.70430   2.70672
 Alpha virt. eigenvalues --    2.71200   2.71617   2.72217   2.72444   2.72771
 Alpha virt. eigenvalues --    2.73576   2.73765   2.73889   2.74287   2.74503
 Alpha virt. eigenvalues --    2.74712   2.75172   2.75395   2.76043   2.76604
 Alpha virt. eigenvalues --    2.76827   2.76999   2.77177   2.77448   2.78234
 Alpha virt. eigenvalues --    2.78439   2.79333   2.79653   2.79873   2.80090
 Alpha virt. eigenvalues --    2.80310   2.80690   2.81360   2.81978   2.82573
 Alpha virt. eigenvalues --    2.82747   2.82987   2.83446   2.83705   2.83942
 Alpha virt. eigenvalues --    2.84034   2.84427   2.84625   2.84887   2.85147
 Alpha virt. eigenvalues --    2.85689   2.86206   2.86366   2.86475   2.86757
 Alpha virt. eigenvalues --    2.87138   2.87503   2.87842   2.87918   2.88443
 Alpha virt. eigenvalues --    2.88563   2.89321   2.89597   2.89984   2.90431
 Alpha virt. eigenvalues --    2.90934   2.91066   2.91599   2.91788   2.92106
 Alpha virt. eigenvalues --    2.92348   2.92603   2.92965   2.93093   2.93536
 Alpha virt. eigenvalues --    2.93690   2.94204   2.94622   2.94825   2.95406
 Alpha virt. eigenvalues --    2.95439   2.95695   2.96004   2.96274   2.96691
 Alpha virt. eigenvalues --    2.97031   2.97351   2.97523   2.98002   2.98385
 Alpha virt. eigenvalues --    2.98504   2.98959   2.99155   2.99332   2.99502
 Alpha virt. eigenvalues --    3.00090   3.00324   3.00444   3.00739   3.01095
 Alpha virt. eigenvalues --    3.01320   3.01698   3.02020   3.02239   3.02474
 Alpha virt. eigenvalues --    3.02888   3.02921   3.03231   3.03473   3.03984
 Alpha virt. eigenvalues --    3.04479   3.04606   3.04741   3.05161   3.05483
 Alpha virt. eigenvalues --    3.05645   3.06044   3.06185   3.06517   3.06810
 Alpha virt. eigenvalues --    3.06978   3.07349   3.07478   3.07705   3.07982
 Alpha virt. eigenvalues --    3.08135   3.08679   3.08822   3.09428   3.09675
 Alpha virt. eigenvalues --    3.10036   3.10267   3.10695   3.10896   3.10923
 Alpha virt. eigenvalues --    3.11368   3.11694   3.12092   3.12525   3.12688
 Alpha virt. eigenvalues --    3.12897   3.13092   3.13303   3.13493   3.13652
 Alpha virt. eigenvalues --    3.13974   3.14034   3.14352   3.14501   3.14923
 Alpha virt. eigenvalues --    3.15222   3.15350   3.15783   3.15860   3.16375
 Alpha virt. eigenvalues --    3.16648   3.16858   3.16998   3.17215   3.17583
 Alpha virt. eigenvalues --    3.17728   3.18155   3.18385   3.18763   3.19011
 Alpha virt. eigenvalues --    3.19206   3.19495   3.20084   3.20201   3.20396
 Alpha virt. eigenvalues --    3.20825   3.21207   3.21394   3.21522   3.22187
 Alpha virt. eigenvalues --    3.22282   3.22603   3.22831   3.23231   3.23311
 Alpha virt. eigenvalues --    3.23374   3.23619   3.23920   3.24437   3.24751
 Alpha virt. eigenvalues --    3.24906   3.25531   3.25721   3.25908   3.26083
 Alpha virt. eigenvalues --    3.26150   3.26577   3.27043   3.27110   3.27242
 Alpha virt. eigenvalues --    3.27713   3.28127   3.28285   3.28469   3.29099
 Alpha virt. eigenvalues --    3.29268   3.29730   3.29862   3.30027   3.30302
 Alpha virt. eigenvalues --    3.30691   3.30942   3.31042   3.31390   3.31853
 Alpha virt. eigenvalues --    3.32060   3.32209   3.32666   3.32724   3.33306
 Alpha virt. eigenvalues --    3.33955   3.34065   3.34236   3.34634   3.34954
 Alpha virt. eigenvalues --    3.35166   3.35252   3.35805   3.36555   3.36697
 Alpha virt. eigenvalues --    3.36988   3.37186   3.37342   3.37874   3.38778
 Alpha virt. eigenvalues --    3.38979   3.39369   3.39924   3.40151   3.40462
 Alpha virt. eigenvalues --    3.40624   3.41037   3.41530   3.41742   3.41919
 Alpha virt. eigenvalues --    3.42413   3.42692   3.43044   3.43729   3.44089
 Alpha virt. eigenvalues --    3.44243   3.44470   3.44926   3.45792   3.46116
 Alpha virt. eigenvalues --    3.46591   3.46617   3.46910   3.47014   3.47496
 Alpha virt. eigenvalues --    3.47687   3.48429   3.48595   3.49116   3.49926
 Alpha virt. eigenvalues --    3.50020   3.50149   3.50287   3.50645   3.51323
 Alpha virt. eigenvalues --    3.51748   3.51971   3.52037   3.52732   3.52837
 Alpha virt. eigenvalues --    3.53449   3.53920   3.54372   3.54824   3.54954
 Alpha virt. eigenvalues --    3.55320   3.55888   3.56363   3.56644   3.57330
 Alpha virt. eigenvalues --    3.57749   3.57990   3.58406   3.58511   3.58981
 Alpha virt. eigenvalues --    3.59292   3.59922   3.60108   3.60571   3.60711
 Alpha virt. eigenvalues --    3.61622   3.61730   3.62293   3.62597   3.62669
 Alpha virt. eigenvalues --    3.63250   3.63509   3.63945   3.64035   3.64460
 Alpha virt. eigenvalues --    3.65079   3.65222   3.66201   3.66271   3.66994
 Alpha virt. eigenvalues --    3.67565   3.67782   3.67944   3.68209   3.69538
 Alpha virt. eigenvalues --    3.70051   3.70139   3.70862   3.71020   3.71545
 Alpha virt. eigenvalues --    3.72422   3.72684   3.73051   3.73320   3.73943
 Alpha virt. eigenvalues --    3.74178   3.74939   3.75393   3.75663   3.75995
 Alpha virt. eigenvalues --    3.76678   3.77350   3.77505   3.77849   3.78105
 Alpha virt. eigenvalues --    3.78355   3.79331   3.79994   3.80509   3.81024
 Alpha virt. eigenvalues --    3.81240   3.81846   3.82340   3.82531   3.83333
 Alpha virt. eigenvalues --    3.83773   3.84805   3.84857   3.86102   3.86466
 Alpha virt. eigenvalues --    3.86561   3.87137   3.87851   3.88728   3.88930
 Alpha virt. eigenvalues --    3.89454   3.89793   3.90340   3.90818   3.91490
 Alpha virt. eigenvalues --    3.92219   3.92598   3.93382   3.93398   3.94347
 Alpha virt. eigenvalues --    3.94596   3.95130   3.95473   3.96317   3.96836
 Alpha virt. eigenvalues --    3.97034   3.97724   3.97813   3.98954   3.99555
 Alpha virt. eigenvalues --    3.99843   4.00553   4.01004   4.01747   4.01933
 Alpha virt. eigenvalues --    4.03055   4.03280   4.04061   4.04657   4.04878
 Alpha virt. eigenvalues --    4.05473   4.06712   4.07636   4.07988   4.08347
 Alpha virt. eigenvalues --    4.08832   4.09424   4.09462   4.09678   4.09974
 Alpha virt. eigenvalues --    4.10287   4.11131   4.11714   4.12287   4.12516
 Alpha virt. eigenvalues --    4.13306   4.13893   4.14495   4.15089   4.15824
 Alpha virt. eigenvalues --    4.16312   4.16869   4.17734   4.17941   4.19180
 Alpha virt. eigenvalues --    4.19758   4.20132   4.20765   4.21138   4.22219
 Alpha virt. eigenvalues --    4.22861   4.23281   4.23956   4.24172   4.24348
 Alpha virt. eigenvalues --    4.25035   4.26253   4.26723   4.26958   4.27149
 Alpha virt. eigenvalues --    4.27820   4.28008   4.28961   4.29611   4.30261
 Alpha virt. eigenvalues --    4.30786   4.31193   4.31711   4.32148   4.32217
 Alpha virt. eigenvalues --    4.32506   4.33616   4.33828   4.34001   4.34224
 Alpha virt. eigenvalues --    4.35166   4.36103   4.37016   4.37397   4.38095
 Alpha virt. eigenvalues --    4.38731   4.39322   4.40448   4.41865   4.42101
 Alpha virt. eigenvalues --    4.43383   4.44190   4.44985   4.45331   4.45798
 Alpha virt. eigenvalues --    4.47438   4.47481   4.48311   4.48910   4.49917
 Alpha virt. eigenvalues --    4.50156   4.50967   4.51139   4.51486   4.52047
 Alpha virt. eigenvalues --    4.52731   4.53332   4.53594   4.53843   4.54202
 Alpha virt. eigenvalues --    4.55383   4.56059   4.56726   4.57410   4.57517
 Alpha virt. eigenvalues --    4.57904   4.58213   4.58679   4.59356   4.60607
 Alpha virt. eigenvalues --    4.61002   4.61520   4.62585   4.62735   4.63232
 Alpha virt. eigenvalues --    4.63947   4.64127   4.65010   4.65688   4.66673
 Alpha virt. eigenvalues --    4.67209   4.67854   4.68208   4.69079   4.69954
 Alpha virt. eigenvalues --    4.70639   4.71124   4.71387   4.71983   4.73348
 Alpha virt. eigenvalues --    4.73695   4.74070   4.74449   4.74858   4.75026
 Alpha virt. eigenvalues --    4.76555   4.77519   4.77700   4.78764   4.79085
 Alpha virt. eigenvalues --    4.80304   4.80949   4.81841   4.82953   4.83701
 Alpha virt. eigenvalues --    4.84349   4.84637   4.85569   4.86561   4.86837
 Alpha virt. eigenvalues --    4.88465   4.89886   4.91200   4.91553   4.91648
 Alpha virt. eigenvalues --    4.92792   4.93624   4.94702   4.95066   4.96134
 Alpha virt. eigenvalues --    4.96431   4.96596   4.96977   4.98597   5.01168
 Alpha virt. eigenvalues --    5.02228   5.03172   5.04239   5.05032   5.05264
 Alpha virt. eigenvalues --    5.07109   5.07921   5.08491   5.09359   5.10112
 Alpha virt. eigenvalues --    5.11026   5.11946   5.12639   5.12891   5.12996
 Alpha virt. eigenvalues --    5.13279   5.13827   5.15161   5.15923   5.16723
 Alpha virt. eigenvalues --    5.17549   5.18140   5.18970   5.19314   5.19818
 Alpha virt. eigenvalues --    5.21021   5.21563   5.21667   5.22597   5.24276
 Alpha virt. eigenvalues --    5.26044   5.27099   5.28027   5.28941   5.29575
 Alpha virt. eigenvalues --    5.29752   5.31371   5.34197   5.34659   5.36038
 Alpha virt. eigenvalues --    5.36359   5.37063   5.38543   5.39608   5.39977
 Alpha virt. eigenvalues --    5.40753   5.42099   5.44635   5.45780   5.46699
 Alpha virt. eigenvalues --    5.46714   5.47440   5.47767   5.48164   5.48604
 Alpha virt. eigenvalues --    5.50644   5.53944   5.54835   5.55345   5.56179
 Alpha virt. eigenvalues --    5.59006   5.59515   5.63081   5.64713   5.69983
 Alpha virt. eigenvalues --    5.70660   5.72317   5.73000   5.73996   5.77955
 Alpha virt. eigenvalues --    5.78140   5.78671   5.79692   5.80338   5.83729
 Alpha virt. eigenvalues --    5.86845   5.87460   5.92153   5.93774   5.94598
 Alpha virt. eigenvalues --    5.95476   5.97046   5.97687   5.98979   5.99051
 Alpha virt. eigenvalues --    5.99480   6.01898   6.06951   6.11267   6.15565
 Alpha virt. eigenvalues --    6.17071   6.17494   6.22085   6.29247   6.30849
 Alpha virt. eigenvalues --    6.34174   6.35175   6.36994   6.37186   6.41797
 Alpha virt. eigenvalues --    6.41971   6.50352   6.56802   6.58135   6.60299
 Alpha virt. eigenvalues --    6.69687   6.77291   6.82895   6.84402   6.91857
 Alpha virt. eigenvalues --    6.93470   6.97847   7.00628   7.05166   7.09894
 Alpha virt. eigenvalues --    7.12476   7.17077   7.22602  22.07987  22.11487
 Alpha virt. eigenvalues --   22.26122  22.27113  22.40728  22.42287  22.43068
 Alpha virt. eigenvalues --   22.45941  22.49419  22.50099  22.50841  22.53735
 Alpha virt. eigenvalues --   22.55888  22.60895  22.62101  22.66228  22.68618
 Alpha virt. eigenvalues --   22.76637  22.91445  22.92046  22.93956  22.95673
 Alpha virt. eigenvalues --   23.06141  23.07671  23.13544  23.14463  23.19324
 Alpha virt. eigenvalues --   23.20870  23.25654  23.33609  23.39608  23.43773
 Alpha virt. eigenvalues --   23.45682  23.49045  23.57211  23.64271  23.65104
 Alpha virt. eigenvalues --   23.75433  32.32328  32.48032  32.65528  32.76185
 Alpha virt. eigenvalues --   32.78402  32.97985  43.86311  43.89538  43.92183
 Alpha virt. eigenvalues --   43.98357
  Beta  occ. eigenvalues -- -256.55296 -30.28611 -26.12023 -26.11668 -26.11643
  Beta  occ. eigenvalues --  -19.33359 -19.31725 -19.26934 -19.25778 -14.56040
  Beta  occ. eigenvalues --  -14.51555 -14.50193 -14.49645 -14.49311 -14.49007
  Beta  occ. eigenvalues --  -10.43714 -10.42798 -10.40283 -10.39143 -10.37660
  Beta  occ. eigenvalues --  -10.37591 -10.37042 -10.36920 -10.36764 -10.36604
  Beta  occ. eigenvalues --  -10.36525 -10.35922 -10.35922 -10.35916 -10.35533
  Beta  occ. eigenvalues --  -10.35240 -10.34220 -10.34171 -10.34079 -10.33774
  Beta  occ. eigenvalues --  -10.33759 -10.33712 -10.33253 -10.33177 -10.32999
  Beta  occ. eigenvalues --  -10.32938 -10.32861 -10.32815 -10.32810 -10.32792
  Beta  occ. eigenvalues --  -10.32087 -10.31462 -10.31319 -10.31196 -10.31100
  Beta  occ. eigenvalues --  -10.30948 -10.30006 -10.29952  -3.57850  -2.32685
  Beta  occ. eigenvalues --   -2.32035  -2.31966  -1.25129  -1.22968  -1.16689
  Beta  occ. eigenvalues --   -1.11670  -1.09674  -1.09456  -1.07375  -1.06114
  Beta  occ. eigenvalues --   -1.04887  -1.02011  -0.96113  -0.95493  -0.93953
  Beta  occ. eigenvalues --   -0.93240  -0.92853  -0.92355  -0.91688  -0.90849
  Beta  occ. eigenvalues --   -0.89165  -0.88581  -0.87542  -0.85535  -0.84687
  Beta  occ. eigenvalues --   -0.83744  -0.83187  -0.82603  -0.82442  -0.81337
  Beta  occ. eigenvalues --   -0.79676  -0.78582  -0.78214  -0.77589  -0.75898
  Beta  occ. eigenvalues --   -0.75629  -0.74957  -0.73972  -0.73050  -0.72771
  Beta  occ. eigenvalues --   -0.71147  -0.70527  -0.68198  -0.67681  -0.67064
  Beta  occ. eigenvalues --   -0.66072  -0.65604  -0.64882  -0.63741  -0.63335
  Beta  occ. eigenvalues --   -0.62261  -0.61790  -0.60906  -0.60470  -0.60189
  Beta  occ. eigenvalues --   -0.59436  -0.59004  -0.58581  -0.58408  -0.58318
  Beta  occ. eigenvalues --   -0.58138  -0.57228  -0.56457  -0.55989  -0.55676
  Beta  occ. eigenvalues --   -0.55452  -0.55189  -0.54947  -0.54830  -0.54529
  Beta  occ. eigenvalues --   -0.54327  -0.53921  -0.53865  -0.53603  -0.53597
  Beta  occ. eigenvalues --   -0.53201  -0.52839  -0.52680  -0.52404  -0.52168
  Beta  occ. eigenvalues --   -0.52110  -0.51820  -0.51490  -0.51135  -0.50836
  Beta  occ. eigenvalues --   -0.50651  -0.50414  -0.49809  -0.49498  -0.49341
  Beta  occ. eigenvalues --   -0.48872  -0.48777  -0.48551  -0.48068  -0.47698
  Beta  occ. eigenvalues --   -0.47451  -0.47110  -0.46689  -0.46402  -0.45877
  Beta  occ. eigenvalues --   -0.45838  -0.45528  -0.44974  -0.44453  -0.44337
  Beta  occ. eigenvalues --   -0.43944  -0.43337  -0.42290  -0.42005  -0.40642
  Beta  occ. eigenvalues --   -0.40248  -0.40231  -0.40017  -0.39208  -0.38843
  Beta  occ. eigenvalues --   -0.38099  -0.36893  -0.36395  -0.35696  -0.35240
  Beta  occ. eigenvalues --   -0.34694  -0.33767  -0.32172  -0.31285  -0.29286
  Beta virt. eigenvalues --   -0.22344  -0.20803  -0.19132  -0.17416  -0.17212
  Beta virt. eigenvalues --   -0.16407  -0.14068  -0.13220  -0.12782  -0.10437
  Beta virt. eigenvalues --   -0.09970  -0.09729  -0.09146  -0.07292  -0.06617
  Beta virt. eigenvalues --   -0.06559  -0.06145  -0.04934  -0.04870  -0.04356
  Beta virt. eigenvalues --   -0.03763  -0.03569  -0.02927  -0.02735  -0.02473
  Beta virt. eigenvalues --   -0.02100  -0.01968  -0.01551  -0.01107  -0.00411
  Beta virt. eigenvalues --   -0.00149  -0.00035   0.00187   0.00292   0.00445
  Beta virt. eigenvalues --    0.00956   0.01079   0.01404   0.01537   0.01772
  Beta virt. eigenvalues --    0.01843   0.02335   0.02667   0.02996   0.03150
  Beta virt. eigenvalues --    0.03325   0.03528   0.03776   0.04031   0.04138
  Beta virt. eigenvalues --    0.04246   0.04337   0.04718   0.04909   0.05134
  Beta virt. eigenvalues --    0.05459   0.05500   0.05757   0.06083   0.06436
  Beta virt. eigenvalues --    0.06499   0.06617   0.06817   0.07169   0.07533
  Beta virt. eigenvalues --    0.07636   0.07896   0.08054   0.08238   0.08480
  Beta virt. eigenvalues --    0.08887   0.09238   0.09343   0.09518   0.09739
  Beta virt. eigenvalues --    0.09927   0.10157   0.10541   0.10947   0.11230
  Beta virt. eigenvalues --    0.11368   0.11489   0.11676   0.11758   0.12112
  Beta virt. eigenvalues --    0.12181   0.12405   0.12489   0.12860   0.13211
  Beta virt. eigenvalues --    0.13448   0.13693   0.13793   0.14066   0.14138
  Beta virt. eigenvalues --    0.14433   0.14604   0.14803   0.14826   0.15194
  Beta virt. eigenvalues --    0.15365   0.15548   0.15714   0.16412   0.16514
  Beta virt. eigenvalues --    0.16810   0.17012   0.17202   0.17484   0.17643
  Beta virt. eigenvalues --    0.17820   0.17986   0.18318   0.18385   0.18574
  Beta virt. eigenvalues --    0.18889   0.19066   0.19189   0.19314   0.19611
  Beta virt. eigenvalues --    0.19940   0.19997   0.20475   0.20728   0.20806
  Beta virt. eigenvalues --    0.21204   0.21342   0.21688   0.21805   0.22038
  Beta virt. eigenvalues --    0.22303   0.22598   0.22746   0.23136   0.23159
  Beta virt. eigenvalues --    0.23496   0.23738   0.23944   0.24084   0.24335
  Beta virt. eigenvalues --    0.24494   0.24693   0.24963   0.25536   0.25602
  Beta virt. eigenvalues --    0.25845   0.25980   0.26152   0.26442   0.26601
  Beta virt. eigenvalues --    0.26842   0.27153   0.27309   0.27331   0.27673
  Beta virt. eigenvalues --    0.27890   0.28315   0.28394   0.28648   0.28782
  Beta virt. eigenvalues --    0.28934   0.29415   0.29805   0.29846   0.30016
  Beta virt. eigenvalues --    0.30227   0.30636   0.30894   0.31043   0.31161
  Beta virt. eigenvalues --    0.31373   0.31764   0.31975   0.32099   0.32222
  Beta virt. eigenvalues --    0.32553   0.32728   0.32882   0.32971   0.33316
  Beta virt. eigenvalues --    0.33622   0.33774   0.34022   0.34115   0.34541
  Beta virt. eigenvalues --    0.34942   0.35024   0.35151   0.35328   0.35414
  Beta virt. eigenvalues --    0.35840   0.36048   0.36152   0.36338   0.36521
  Beta virt. eigenvalues --    0.36868   0.36956   0.37377   0.37440   0.37653
  Beta virt. eigenvalues --    0.37713   0.37870   0.37994   0.38373   0.38549
  Beta virt. eigenvalues --    0.38654   0.38860   0.39254   0.39425   0.39614
  Beta virt. eigenvalues --    0.39886   0.40110   0.40431   0.40498   0.40729
  Beta virt. eigenvalues --    0.40757   0.40946   0.41027   0.41343   0.41506
  Beta virt. eigenvalues --    0.41681   0.41894   0.42216   0.42302   0.42587
  Beta virt. eigenvalues --    0.42710   0.42891   0.43067   0.43187   0.43326
  Beta virt. eigenvalues --    0.43404   0.43779   0.44127   0.44287   0.44445
  Beta virt. eigenvalues --    0.44692   0.44771   0.44977   0.45413   0.45483
  Beta virt. eigenvalues --    0.45689   0.45924   0.46399   0.46694   0.46777
  Beta virt. eigenvalues --    0.47073   0.47339   0.47531   0.47763   0.47903
  Beta virt. eigenvalues --    0.47969   0.48234   0.48345   0.48717   0.48861
  Beta virt. eigenvalues --    0.49098   0.49331   0.49581   0.50027   0.50164
  Beta virt. eigenvalues --    0.50207   0.50759   0.51037   0.51300   0.51407
  Beta virt. eigenvalues --    0.51552   0.51895   0.52346   0.52634   0.52783
  Beta virt. eigenvalues --    0.52901   0.53137   0.53581   0.53734   0.54015
  Beta virt. eigenvalues --    0.54411   0.54629   0.55006   0.55213   0.55517
  Beta virt. eigenvalues --    0.55842   0.56363   0.56460   0.56742   0.57062
  Beta virt. eigenvalues --    0.57127   0.57389   0.57822   0.57936   0.58269
  Beta virt. eigenvalues --    0.58322   0.58649   0.58847   0.59083   0.59259
  Beta virt. eigenvalues --    0.59746   0.59979   0.60221   0.60539   0.60663
  Beta virt. eigenvalues --    0.61288   0.61580   0.61796   0.61963   0.62446
  Beta virt. eigenvalues --    0.62698   0.62774   0.63237   0.63521   0.63689
  Beta virt. eigenvalues --    0.63884   0.64115   0.64317   0.64553   0.64816
  Beta virt. eigenvalues --    0.65200   0.65399   0.65822   0.66037   0.66148
  Beta virt. eigenvalues --    0.66233   0.66819   0.67198   0.67444   0.67790
  Beta virt. eigenvalues --    0.68307   0.68612   0.68743   0.68937   0.69406
  Beta virt. eigenvalues --    0.69721   0.69988   0.70316   0.70415   0.70872
  Beta virt. eigenvalues --    0.71114   0.71777   0.72009   0.72348   0.72525
  Beta virt. eigenvalues --    0.72581   0.73034   0.73245   0.73909   0.74063
  Beta virt. eigenvalues --    0.74467   0.74927   0.75222   0.75436   0.75684
  Beta virt. eigenvalues --    0.75896   0.76010   0.76432   0.77005   0.77303
  Beta virt. eigenvalues --    0.77491   0.77665   0.77900   0.78441   0.78925
  Beta virt. eigenvalues --    0.79100   0.79494   0.79793   0.79916   0.80188
  Beta virt. eigenvalues --    0.80451   0.80671   0.81046   0.81210   0.81569
  Beta virt. eigenvalues --    0.82095   0.82212   0.82633   0.82905   0.83178
  Beta virt. eigenvalues --    0.83479   0.83678   0.83911   0.84043   0.84464
  Beta virt. eigenvalues --    0.84632   0.85241   0.85474   0.85771   0.86085
  Beta virt. eigenvalues --    0.86585   0.86629   0.87220   0.87263   0.87329
  Beta virt. eigenvalues --    0.87789   0.88010   0.88098   0.88597   0.88833
  Beta virt. eigenvalues --    0.89215   0.89462   0.89751   0.89896   0.90295
  Beta virt. eigenvalues --    0.90471   0.91042   0.91163   0.91225   0.91813
  Beta virt. eigenvalues --    0.92455   0.92598   0.92687   0.92876   0.93085
  Beta virt. eigenvalues --    0.93291   0.93680   0.94826   0.94883   0.95551
  Beta virt. eigenvalues --    0.95779   0.96046   0.96354   0.96432   0.97057
  Beta virt. eigenvalues --    0.97262   0.97816   0.97930   0.98085   0.98223
  Beta virt. eigenvalues --    0.98675   0.99290   0.99641   1.00535   1.00728
  Beta virt. eigenvalues --    1.00886   1.00978   1.01400   1.01756   1.02409
  Beta virt. eigenvalues --    1.03076   1.03355   1.03664   1.03875   1.04193
  Beta virt. eigenvalues --    1.04422   1.04794   1.05288   1.05702   1.06023
  Beta virt. eigenvalues --    1.06038   1.06908   1.07219   1.07643   1.08240
  Beta virt. eigenvalues --    1.08548   1.08786   1.08839   1.09333   1.09503
  Beta virt. eigenvalues --    1.09707   1.09874   1.10423   1.10666   1.10940
  Beta virt. eigenvalues --    1.11485   1.11592   1.12127   1.12441   1.12967
  Beta virt. eigenvalues --    1.13420   1.13797   1.13803   1.14041   1.14735
  Beta virt. eigenvalues --    1.14992   1.15322   1.15698   1.16283   1.16471
  Beta virt. eigenvalues --    1.16742   1.17319   1.17492   1.17629   1.18394
  Beta virt. eigenvalues --    1.18994   1.19384   1.19595   1.19801   1.20215
  Beta virt. eigenvalues --    1.20827   1.21402   1.21699   1.21836   1.22430
  Beta virt. eigenvalues --    1.22582   1.22959   1.23118   1.24141   1.24455
  Beta virt. eigenvalues --    1.24661   1.24920   1.25106   1.25782   1.26271
  Beta virt. eigenvalues --    1.26505   1.27063   1.27929   1.28048   1.28778
  Beta virt. eigenvalues --    1.28854   1.29600   1.29712   1.30349   1.30623
  Beta virt. eigenvalues --    1.31499   1.31870   1.32030   1.32181   1.33066
  Beta virt. eigenvalues --    1.33268   1.33346   1.33451   1.34135   1.34246
  Beta virt. eigenvalues --    1.34541   1.34975   1.35497   1.35820   1.36278
  Beta virt. eigenvalues --    1.36468   1.36637   1.37014   1.37113   1.37604
  Beta virt. eigenvalues --    1.38097   1.38226   1.38907   1.39147   1.39609
  Beta virt. eigenvalues --    1.39850   1.40118   1.40584   1.40970   1.41341
  Beta virt. eigenvalues --    1.41727   1.42201   1.42506   1.42783   1.43210
  Beta virt. eigenvalues --    1.43265   1.43729   1.44021   1.44225   1.44478
  Beta virt. eigenvalues --    1.44589   1.44879   1.45399   1.45517   1.45928
  Beta virt. eigenvalues --    1.46004   1.46300   1.46866   1.47287   1.47385
  Beta virt. eigenvalues --    1.47886   1.48045   1.48371   1.48574   1.49086
  Beta virt. eigenvalues --    1.49245   1.49484   1.49738   1.49950   1.50358
  Beta virt. eigenvalues --    1.50485   1.50913   1.51147   1.51743   1.51781
  Beta virt. eigenvalues --    1.51942   1.52019   1.52542   1.52746   1.53044
  Beta virt. eigenvalues --    1.53354   1.53654   1.53795   1.54317   1.54415
  Beta virt. eigenvalues --    1.54804   1.55291   1.55516   1.55644   1.56206
  Beta virt. eigenvalues --    1.56542   1.56870   1.57013   1.57195   1.57458
  Beta virt. eigenvalues --    1.57663   1.58050   1.58703   1.58792   1.59061
  Beta virt. eigenvalues --    1.59487   1.59773   1.60321   1.60392   1.60658
  Beta virt. eigenvalues --    1.60982   1.61184   1.61992   1.62056   1.62586
  Beta virt. eigenvalues --    1.62786   1.63454   1.63524   1.63805   1.63914
  Beta virt. eigenvalues --    1.64360   1.65165   1.65290   1.65880   1.66258
  Beta virt. eigenvalues --    1.66519   1.66887   1.67009   1.67376   1.68150
  Beta virt. eigenvalues --    1.68451   1.68959   1.69255   1.70140   1.70473
  Beta virt. eigenvalues --    1.70787   1.70987   1.71334   1.72266   1.72555
  Beta virt. eigenvalues --    1.72766   1.73157   1.73618   1.73969   1.74323
  Beta virt. eigenvalues --    1.74922   1.75177   1.75706   1.76367   1.76475
  Beta virt. eigenvalues --    1.76827   1.77396   1.77845   1.77980   1.78360
  Beta virt. eigenvalues --    1.78836   1.79121   1.79407   1.79636   1.80129
  Beta virt. eigenvalues --    1.80454   1.80666   1.80931   1.81436   1.81679
  Beta virt. eigenvalues --    1.82090   1.82813   1.82948   1.83402   1.83646
  Beta virt. eigenvalues --    1.84085   1.84397   1.84826   1.85155   1.85516
  Beta virt. eigenvalues --    1.85768   1.86250   1.87130   1.87467   1.87696
  Beta virt. eigenvalues --    1.87844   1.88447   1.88931   1.89218   1.89464
  Beta virt. eigenvalues --    1.89861   1.90036   1.90257   1.90825   1.91289
  Beta virt. eigenvalues --    1.91569   1.91721   1.92810   1.93138   1.93413
  Beta virt. eigenvalues --    1.93556   1.93820   1.94643   1.95005   1.95123
  Beta virt. eigenvalues --    1.96128   1.96203   1.96828   1.96988   1.97167
  Beta virt. eigenvalues --    1.97487   1.97868   1.98332   1.99009   1.99510
  Beta virt. eigenvalues --    1.99625   1.99935   2.00374   2.00664   2.01148
  Beta virt. eigenvalues --    2.01385   2.01689   2.01925   2.02239   2.02586
  Beta virt. eigenvalues --    2.02889   2.03180   2.03520   2.04144   2.04482
  Beta virt. eigenvalues --    2.04517   2.04778   2.05211   2.06106   2.06318
  Beta virt. eigenvalues --    2.07049   2.07121   2.07350   2.07566   2.08250
  Beta virt. eigenvalues --    2.08680   2.08836   2.09234   2.09975   2.10263
  Beta virt. eigenvalues --    2.10479   2.11185   2.11840   2.12067   2.12751
  Beta virt. eigenvalues --    2.12802   2.13300   2.13683   2.13711   2.14187
  Beta virt. eigenvalues --    2.14697   2.15018   2.15756   2.16085   2.16250
  Beta virt. eigenvalues --    2.17044   2.17317   2.18168   2.18286   2.18529
  Beta virt. eigenvalues --    2.18965   2.19397   2.19630   2.19834   2.20252
  Beta virt. eigenvalues --    2.20731   2.20911   2.21495   2.21921   2.22233
  Beta virt. eigenvalues --    2.23701   2.24179   2.24471   2.24710   2.25132
  Beta virt. eigenvalues --    2.25680   2.26091   2.26472   2.27004   2.27190
  Beta virt. eigenvalues --    2.27710   2.28177   2.28357   2.28795   2.29151
  Beta virt. eigenvalues --    2.29255   2.29407   2.29816   2.30057   2.30837
[...]
  1537. RY*(   3) H  65                  0.00006     2.37631   
  1538. RY*(   4) H  65                  0.00004     1.39704   
  1539. RY*(   5) H  65                  0.00001     2.66810   
  1540. RY*(   1) H  66                  0.00019     1.42260   
  1541. RY*(   2) H  66                  0.00006     1.29863   
  1542. RY*(   3) H  66                  0.00005     2.16429   
  1543. RY*(   4) H  66                  0.00003     2.33130   
  1544. RY*(   5) H  66                  0.00000     2.95927   
  1545. RY*(   1) H  67                  0.00033     0.95508   
  1546. RY*(   2) H  67                  0.00009     1.56206   
  1547. RY*(   3) H  67                  0.00005     2.20658   
  1548. RY*(   4) H  67                  0.00003     2.34593   
  1549. RY*(   5) H  67                  0.00000     2.95403   
  1550. RY*(   1) H  68                  0.00033     0.98622   
  1551. RY*(   2) H  68                  0.00010     1.48123   
  1552. RY*(   3) H  68                  0.00005     2.15677   
  1553. RY*(   4) H  68                  0.00002     2.54025   
  1554. RY*(   5) H  68                  0.00001     2.78017   
  1555. RY*(   1) H  69                  0.00114     0.73756   
  1556. RY*(   2) H  69                  0.00015     2.21782   
  1557. RY*(   3) H  69                  0.00014     2.11453   
  1558. RY*(   4) H  69                  0.00008     2.74628   
  1559. RY*(   5) H  69                  0.00001     3.16087   
  1560. RY*(   1) H  70                  0.00025     1.06732   
  1561. RY*(   2) H  70                  0.00010     1.70696   
  1562. RY*(   3) H  70                  0.00003     1.96603   
  1563. RY*(   4) H  70                  0.00002     2.04372   
  1564. RY*(   5) H  70                  0.00000     2.69745   
  1565. RY*(   1) H  71                  0.00025     0.94658   
  1566. RY*(   2) H  71                  0.00011     2.01796   
  1567. RY*(   3) H  71                  0.00003     1.83973   
  1568. RY*(   4) H  71                  0.00004     1.98254   
  1569. RY*(   5) H  71                  0.00000     2.94443   
  1570. RY*(   1) H  72                  0.00028     1.04874   
  1571. RY*(   2) H  72                  0.00009     1.63985   
  1572. RY*(   3) H  72                  0.00004     2.05481   
  1573. RY*(   4) H  72                  0.00002     1.89592   
  1574. RY*(   5) H  72                  0.00000     2.83242   
  1575. RY*(   1) H  73                  0.00086     0.58066   
  1576. RY*(   2) H  73                  0.00015     2.08516   
  1577. RY*(   3) H  73                  0.00012     2.15423   
  1578. RY*(   4) H  73                  0.00008     2.84678   
  1579. RY*(   5) H  73                  0.00001     3.11418   
  1580. RY*(   1) H  74                  0.00091     0.58537   
  1581. RY*(   2) H  74                  0.00015     2.01747   
  1582. RY*(   3) H  74                  0.00012     2.15550   
  1583. RY*(   4) H  74                  0.00007     2.82180   
  1584. RY*(   5) H  74                  0.00000     3.09433   
  1585. RY*(   1) H  75                  0.00068     0.68759   
  1586. RY*(   2) H  75                  0.00014     2.05605   
  1587. RY*(   3) H  75                  0.00013     2.19539   
  1588. RY*(   4) H  75                  0.00007     2.91206   
  1589. RY*(   5) H  75                  0.00001     3.16033   
  1590. RY*(   1) H  76                  0.00019     1.02525   
  1591. RY*(   2) H  76                  0.00009     1.91451   
  1592. RY*(   3) H  76                  0.00003     2.08579   
  1593. RY*(   4) H  76                  0.00002     1.90165   
  1594. RY*(   5) H  76                  0.00001     2.68064   
  1595. RY*(   1) H  77                  0.00032     0.85357   
  1596. RY*(   2) H  77                  0.00010     1.80552   
  1597. RY*(   3) H  77                  0.00008     1.92877   
  1598. RY*(   4) H  77                  0.00004     2.13034   
  1599. RY*(   5) H  77                  0.00001     2.88773   
  1600. RY*(   1) H  78                  0.00030     0.94641   
  1601. RY*(   2) H  78                  0.00007     1.64364   
  1602. RY*(   3) H  78                  0.00005     2.09232   
  1603. RY*(   4) H  78                  0.00002     1.84655   
  1604. RY*(   5) H  78                  0.00001     2.90213   
  1605. RY*(   1) H  79                  0.00031     1.22145   
  1606. RY*(   2) H  79                  0.00009     1.79702   
  1607. RY*(   3) H  79                  0.00008     1.96635   
  1608. RY*(   4) H  79                  0.00003     2.13600   
  1609. RY*(   5) H  79                  0.00002     2.38456   
  1610. RY*(   1) H  80                  0.00029     1.33475   
  1611. RY*(   2) H  80                  0.00008     1.59628   
  1612. RY*(   3) H  80                  0.00003     1.70226   
  1613. RY*(   4) H  80                  0.00001     2.75525   
  1614. RY*(   5) H  80                  0.00000     1.63392   
  1615. RY*(   1) H  81                  0.00033     1.73044   
  1616. RY*(   2) H  81                  0.00008     1.93755   
  1617. RY*(   3) H  81                  0.00007     0.70666   
  1618. RY*(   4) H  81                  0.00004     2.14218   
  1619. RY*(   5) H  81                  0.00002     2.91786   
  1620. RY*(   1) H  82                  0.00029     0.73460   
  1621. RY*(   2) H  82                  0.00010     1.80079   
  1622. RY*(   3) H  82                  0.00005     2.20382   
  1623. RY*(   4) H  82                  0.00003     2.33456   
  1624. RY*(   5) H  82                  0.00000     2.93529   
  1625. RY*(   1) H  83                  0.00018     1.38345   
  1626. RY*(   2) H  83                  0.00007     1.64457   
  1627. RY*(   3) H  83                  0.00004     2.11511   
  1628. RY*(   4) H  83                  0.00004     2.03508   
  1629. RY*(   5) H  83                  0.00000     2.96642   
  1630. RY*(   1) H  84                  0.00029     0.83809   
  1631. RY*(   2) H  84                  0.00010     1.60045   
  1632. RY*(   3) H  84                  0.00005     2.13331   
  1633. RY*(   4) H  84                  0.00003     2.32230   
  1634. RY*(   5) H  84                  0.00001     2.96055   
  1635. RY*(   1) H  85                  0.00018     1.52738   
  1636. RY*(   2) H  85                  0.00007     1.60376   
  1637. RY*(   3) H  85                  0.00006     1.31142   
  1638. RY*(   4) H  85                  0.00000     1.80570   
  1639. RY*(   5) H  85                  0.00001     2.74095   
  1640. RY*(   1) H  86                  0.00033     1.29989   
  1641. RY*(   2) H  86                  0.00013     1.70591   
  1642. RY*(   3) H  86                  0.00005     1.99845   
  1643. RY*(   4) H  86                  0.00002     2.79349   
  1644. RY*(   5) H  86                  0.00002     1.68636   
  1645. RY*(   1) H  87                  0.00030     1.31449   
  1646. RY*(   2) H  87                  0.00014     1.06741   
  1647. RY*(   3) H  87                  0.00007     1.96299   
  1648. RY*(   4) H  87                  0.00005     2.15853   
  1649. RY*(   5) H  87                  0.00001     2.91554   
  1650. BD*(   1) C   1 - C   2          0.00616     0.26435   
  1651. BD*(   1) C   1 - H  50          0.00263     0.30160   
  1652. BD*(   1) C   1 - H  51          0.00412     0.29988   
  1653. BD*(   1) C   1 - H  52          0.00169     0.29612   
  1654. BD*(   1) C   2 - N   3          0.01343     0.31214   
  1655. BD*(   2) C   2 - N   3          0.37639    -0.15530  1660(v),170(v),1652(v)
                                                    212(g),237(g),1651(v),268(v)
                                                    186(v)
  1656. BD*(   1) C   2 - C   4          0.00908     0.45509   
  1657. BD*(   1) N   3 - C   5          0.01102     0.34113   
  1658. BD*(   1) N   3 - H  53          0.00663     0.28517   
  1659. BD*(   1) C   4 - N   6          0.00799     0.28719   
  1660. BD*(   2) C   4 - N   6          0.34998    -0.14525  1655(v),170(v),1666(v)
                                                    264(g),1668(v),316(g)
                                                    1670(v),290(v)
  1661. BD*(   1) C   4 - H  55          0.00563     0.31501   
  1662. BD*(   1) C   5 - N   6          0.00632     0.40487   
  1663. BD*(   1) C   5 - H  54          0.00846     0.27708   
  1664. BD*(   1) N   6 -Fe   7          0.01719     0.12748   
  1665. BD*(   1)Fe   7 - N  12          0.03153     0.25201   
  1666. BD*(   2)Fe   7 - N  12          0.06654    -0.14311   
  1667. BD*(   1)Fe   7 - N  23          0.03861     0.21532   
  1668. BD*(   2)Fe   7 - N  23          0.07095    -0.09063   
  1669. BD*(   1)Fe   7 - N  31          0.03208     0.26361   
  1670. BD*(   1)Fe   7 - N  39          0.04992    -0.06151   
  1671. BD*(   1) C   8 - C  13          0.00791     0.38768   
  1672. BD*(   2) C   8 - C  13          0.17565    -0.08079  1691(v),180(v),1666(v)
                                                    369(g),502(g)
  1673. BD*(   1) C   8 - C  43          0.01039     0.30371   
  1674. BD*(   1) C   8 - H  69          0.00546     0.33444   
  1675. BD*(   1) C   9 - C  16          0.01333     0.38043   
  1676. BD*(   1) C   9 - C  24          0.00894     0.59209   
  1677. BD*(   2) C   9 - C  24          0.15037    -0.03978  1712(v),173(v),1680(r)
                                                    1668(v),394(g),788(g)
  1678. BD*(   1) C   9 - H  73          0.00766     0.33995   
  1679. BD*(   1) C  10 - C  27          0.00949     0.56170   
  1680. BD*(   2) C  10 - C  27          0.16155    -0.04303  1712(v),1725(v),1668(v)
                                                    1677(r),421(g),866(g)
  1681. BD*(   1) C  10 - C  32          0.01122     0.46116   
  1682. BD*(   1) C  10 - H  75          0.00918     0.34206   
  1683. BD*(   1) C  11 - C  35          0.01262     0.36601   
  1684. BD*(   1) C  11 - C  40          0.00880     0.62279   
  1685. BD*(   2) C  11 - C  40          0.14145    -0.03562  1745(v),178(v),1670(v)
                                                    447(g),1204(g)
  1686. BD*(   1) C  11 - H  74          0.00830     0.33540   
  1687. BD*(   1) N  12 - C  13          0.01703     0.23729   
  1688. BD*(   1) N  12 - C  16          0.01155     0.40793   
  1689. BD*(   1) C  13 - C  14          0.01192     0.40367   
  1690. BD*(   1) C  14 - C  15          0.01037     0.44597   
  1691. BD*(   2) C  14 - C  15          0.13546    -0.04884  1672(v),173(v),1699(v)
                                                    1697(v),552(g)
  1692. BD*(   1) C  14 - C  18          0.01420     0.26136   
  1693. BD*(   1) C  15 - C  16          0.01319     0.43734   
  1694. BD*(   1) C  15 - C  17          0.00889     0.22744   
  1695. BD*(   1) C  17 - H  70          0.00316     0.32346   
  1696. BD*(   1) C  17 - H  71          0.00250     0.33284   
  1697. BD*(   1) C  17 - H  72          0.00332     0.31515   
  1698. BD*(   1) C  18 - C  19          0.00615     0.44015   
  1699. BD*(   1) C  18 - H  59          0.01153     0.32749   
  1700. BD*(   1) C  18 - H  60          0.00927     0.30235   
  1701. BD*(   1) C  19 - C  20          0.03707     0.30854   
  1702. BD*(   1) C  19 - H  57          0.01173     0.31822   
  1703. BD*(   1) C  19 - H  58          0.00966     0.30802   
  1704. BD*(   1) C  20 - O  21          0.03749     0.36550   
  1705. BD*(   1) C  20 - O  22          0.02775     0.37708   
  1706. BD*(   2) C  20 - O  22          0.08699    -0.06938   
  1707. BD*(   1) O  21 - H  56          0.00642     0.30442   
  1708. BD*(   1) N  23 - C  24          0.01971     0.23238   
  1709. BD*(   1) N  23 - C  27          0.01258     0.33491   
  1710. BD*(   1) C  24 - C  25          0.01665     0.44111   
  1711. BD*(   1) C  25 - C  26          0.00958     0.56244   
  1712. BD*(   2) C  25 - C  26          0.11963    -0.02725  1677(v),1680(v),1720(v)
                                                    1718(v),838(g),812(g)
                                                    1716(v)
  1713. BD*(   1) C  25 - C  28          0.00965     0.27100   
  1714. BD*(   1) C  26 - C  27          0.02055     0.29482   
  1715. BD*(   1) C  26 - C  29          0.01021     0.29464   
  1716. BD*(   1) C  28 - H  82          0.00294     0.31612   
  1717. BD*(   1) C  28 - H  83          0.00254     0.31901   
  1718. BD*(   1) C  28 - H  84          0.00372     0.31401   
  1719. BD*(   1) C  29 - C  30          0.00213     0.24989   
  1720. BD*(   2) C  29 - C  30          0.02970    -0.10090   
  1721. BD*(   1) C  29 - H  87          0.00451     0.36060   
  1722. BD*(   1) C  30 - H  85          0.00220     0.36489   
  1723. BD*(   1) C  30 - H  86          0.00281     0.35159   
  1724. BD*(   1) N  31 - C  32          0.01398     0.36825   
  1725. BD*(   2) N  31 - C  32          0.33136    -0.11357  1680(v),1729(v),178(v)
                                                    1668(v),1666(v),1670(v)
                                                    993(g),967(g),421(v)
  1726. BD*(   1) N  31 - C  35          0.01499     0.32243   
  1727. BD*(   1) C  32 - C  33          0.01564     0.36324   
  1728. BD*(   1) C  33 - C  34          0.00922     0.60897   
  1729. BD*(   2) C  33 - C  34          0.14070    -0.01731  1725(v),178(v),1737(v)
                                                    1046(g),1020(g),1735(v)
  1730. BD*(   1) C  33 - C  36          0.01047     0.20523   
  1731. BD*(   1) C  34 - C  35          0.01333     0.44810   
  1732. BD*(   1) C  34 - C  37          0.01469     0.22558   
  1733. BD*(   1) C  36 - H  76          0.00230     0.32658   
  1734. BD*(   1) C  36 - H  77          0.00442     0.33362   
  1735. BD*(   1) C  36 - H  78          0.00316     0.32217   
  1736. BD*(   1) C  37 - C  38          0.00175     0.32503   
  1737. BD*(   2) C  37 - C  38          0.01838    -0.08889   
  1738. BD*(   1) C  37 - H  81          0.00395     0.35509   
  1739. BD*(   1) C  38 - H  79          0.00528     0.36415   
  1740. BD*(   1) C  38 - H  80          0.00294     0.35497   
  1741. BD*(   1) N  39 - C  40          0.01729     0.24077   
  1742. BD*(   1) N  39 - C  43          0.01417     0.22052   
  1743. BD*(   1) C  40 - C  41          0.02146     0.32795   
  1744. BD*(   1) C  41 - C  42          0.01026     0.55865   
  1745. BD*(   2) C  41 - C  42          0.10564    -0.02951  1685(v),180(v),1751(v)
                                                    1752(v),1750(v),1228(g)
  1746. BD*(   1) C  41 - C  44          0.00898     0.34034   
  1747. BD*(   1) C  42 - C  43          0.01336     0.34940   
  1748. BD*(   1) C  42 - C  45          0.01284     0.20284   
  1749. BD*(   1) C  44 - H  66          0.00307     0.31032   
  1750. BD*(   1) C  44 - H  67          0.00357     0.31120   
  1751. BD*(   1) C  44 - H  68          0.00469     0.31128   
  1752. BD*(   1) C  45 - C  46          0.01536     0.23126   
  1753. BD*(   1) C  45 - H  64          0.00644     0.32182   
  1754. BD*(   1) C  45 - H  65          0.00496     0.33170   
  1755. BD*(   1) C  46 - C  47          0.04248     0.29708   
  1756. BD*(   1) C  46 - H  62          0.00496     0.31534   
  1757. BD*(   1) C  46 - H  63          0.00611     0.30768   
  1758. BD*(   1) C  47 - O  48          0.02212     0.45348   
  1759. BD*(   2) C  47 - O  48          0.08359    -0.01683   
  1760. BD*(   1) C  47 - O  49          0.03583     0.47635   
  1761. BD*(   1) O  49 - H  61          0.00742     0.30013   
       -------------------------------
              Total Lewis  174.93468  ( 97.1859%)
        Valence non-Lewis    4.75437  (  2.6413%)
        Rydberg non-Lewis    0.31095  (  0.1727%)
       -------------------------------
            Total unit  1  180.00000  (100.0000%)
           Charge unit  1    3.00000
 1\1\GINC-NODE832\SP\UPBE1PBE\def2TZVP\C38H38Fe1N6O4(1+,6)\ZHARTOVSKA\2
 5-Jan-2023\0\\# PBE1PBE/def2TZVP empiricaldispersion=GD3BJ int=(grid=u
 ltrafine) geom=check pop=nbo\\1drm_III_H\\1,6\C,0,48.068001,60.623001,
 29.973\C,0,48.181,59.849998,31.268\N,0,47.933998,60.384998,32.516998\C
 ,0,48.473,58.541,31.49\C,0,48.068001,59.411999,33.443001\N,0,48.400002
 ,58.257,32.889999\Fe,0,48.765999,56.499001,34.030998\C,0,45.678001,55.
 007999,33.291\C,0,50.331001,55.000999,31.341999\C,0,51.877998,57.23099
 9,35.203999\C,0,47.299,57.897999,36.900002\N,0,48.188,55.292999,32.580
 002\C,0,46.804001,54.751999,32.449001\C,0,46.826,53.873001,31.332001\C
 ,0,48.123001,53.901001,30.809999\C,0,48.922001,54.757999,31.573\C,0,48
 .710999,53.084,29.59\C,0,45.639999,52.916,31.042\C,0,45.424,52.798,29.
 694\C,0,44.573002,51.631001,29.422001\O,0,43.542,51.953999,28.733\O,0,
 44.916,50.459,29.83\N,0,50.624001,56.294998,33.435001\C,0,51.097,55.62
 2002,32.187\C,0,52.467999,55.814999,31.962999\C,0,52.971001,56.416,33.
 016998\C,0,51.838001,56.742001,33.980999\C,0,53.264999,55.367001,30.73
 6\C,0,54.458,56.728001,33.074001\C,0,54.797001,57.828999,34.120998\N,0
 ,49.436001,57.335999,35.605\C,0,50.751999,57.528,35.959\C,0,50.819,58.
 118,37.297001\C,0,49.610001,58.249001,37.731998\C,0,48.743,57.799,36.7
 40002\C,0,52.186001,58.487999,38.056999\C,0,48.980999,58.606998,39.147
 999\C,0,49.917999,59.463001,39.915001\N,0,47.058998,56.563999,34.90599
 8\C,0,46.537998,57.237,36.117001\C,0,45.07,57.032001,36.300999\C,0,44.
 625,56.328999,35.282001\C,0,45.769001,55.956001,34.452999\C,0,44.23199
 8,57.564999,37.375999\C,0,43.164001,55.853001,34.801998\C,0,42.825001,
 54.415001,35.34\C,0,42.188999,53.115002,35.033001\O,0,42.549,52.308998
 ,35.884998\O,0,42.134998,52.839001,33.841\H,0,48.91256188,60.40564405,
 29.35302188\H,0,47.17014309,60.33873095,29.46512037\H,0,48.04135249,61
 .67151902,30.18465967\H,0,47.6949062,61.33766942,32.7047539\H,0,47.923
 68984,59.55686386,34.49328118\H,0,48.72058404,57.82910785,30.73051879\
 H,0,43.64950944,52.35892198,27.86924129\H,0,46.36202809,52.67753947,29
 .19350768\H,0,44.94028785,53.68168899,29.33342224\H,0,45.85972007,51.9
 5091072,31.4484792\H,0,44.75640512,53.30046253,31.50713484\H,0,42.9444
 0956,52.72256058,33.33811378\H,0,43.80326767,54.08387538,35.61973226\H
 ,0,42.30710607,54.66908985,36.24117906\H,0,43.13313015,55.84277089,33.
 73249235\H,0,42.43333071,56.5443519,35.16676487\H,0,44.74403567,58.369
 00803,37.86209251\H,0,43.31151685,57.9245862,36.96574117\H,0,44.027776
 26,56.79107885,38.08609835\H,0,44.75046246,54.51403329,33.08957971\H,0
 ,49.65462918,52.66138077,29.865418\H,0,48.03255864,52.299936,29.325685
 18\H,0,48.84359391,53.73797639,28.75355904\H,0,50.76309554,54.65077001
 ,30.42792353\H,0,46.88066238,58.5178466,37.66530102\H,0,52.83769674,57
 .41011033,35.64194586\H,0,52.94883066,58.69836102,37.3367638\H,0,52.02
 988441,59.34887937,38.67296376\H,0,52.48935753,57.66308038,38.66723181
 \H,0,50.97427026,59.3357553,39.80098539\H,0,49.53782712,60.20790208,40
 .58245266\H,0,48.02373752,58.27891268,39.49572084\H,0,54.19655882,54.9
 448365,31.05044146\H,0,52.70498256,54.63270141,30.19555047\H,0,53.4507
 7069,56.21019528,30.10400927\H,0,55.81791529,58.06115329,34.34176575\H
 ,0,54.00909925,58.35361632,34.61988425\H,0,55.19046584,56.24427829,32.
 46211365\\Version=AM64L-G16RevA.03\State=6-A\HF=-3361.7946472\S2=8.777
 322\S2-1=0.\S2A=8.750205\RMSD=5.190e-09\Dipole=1.6421655,5.2915898,-1.
 7400757\Quadrupole=7.0524932,-28.6686437,21.6161505,-13.926918,6.05231
 49,18.1545409\PG=C01 [X(C38H38Fe1N6O4)]\\@


 WORK FAITHFULLY FOR EIGHT HOURS A DAY AND DON'T WORRY.
 IN TIME YOU MAY BECOME BOSS AND WORK TWELVE HOURS A DAY
 AND HAVE ALL THE WORRY.
 Job cpu time:       5 days  2 hours 23 minutes 57.1 seconds.
 Elapsed time:       1 days  6 hours 46 minutes 10.3 seconds.
 File lengths (MBytes):  RWF=   2849 Int=      0 D2E=      0 Chk=    238 Scr=      1
 Normal termination of Gaussian 16 at Wed Jan 25 20:33:40 2023.
