 Entering Gaussian System, Link 0=g16
 Input=/net/homes/chemie/zhartovska/work/BioModel/Konrad/1jp9/1jp905/1jp905.com
 Output=/net/homes/chemie/zhartovska/work/BioModel/Konrad/1jp9/1jp905/1jp905.log
 Initial command:
 /afs/math/software/gaussian/g16.A03/g16/l1.exe "/scratch/zhartovska_gaussian.GTQE02s/Gau-9098.inp" -scrdir="/scratch/zhartovska_gaussian.GTQE02s/"
 Entering Link 1 = /afs/math/software/gaussian/g16.A03/g16/l1.exe PID=      9099.
  
 Copyright (c) 1988,1990,1992,1993,1995,1998,2003,2009,2016,
            Gaussian, Inc.  All Rights Reserved.
  
 This is part of the Gaussian(R) 16 program.  It is based on
 the Gaussian(R) 09 system (copyright 2009, Gaussian, Inc.),
 the Gaussian(R) 03 system (copyright 2003, Gaussian, Inc.),
 the Gaussian(R) 98 system (copyright 1998, Gaussian, Inc.),
 the Gaussian(R) 94 system (copyright 1995, Gaussian, Inc.),
 the Gaussian 92(TM) system (copyright 1992, Gaussian, Inc.),
 the Gaussian 90(TM) system (copyright 1990, Gaussian, Inc.),
 the Gaussian 88(TM) system (copyright 1988, Gaussian, Inc.),
 the Gaussian 86(TM) system (copyright 1986, Carnegie Mellon
 University), and the Gaussian 82(TM) system (copyright 1983,
 Carnegie Mellon University). Gaussian is a federally registered
 trademark of Gaussian, Inc.
  
 This software contains proprietary and confidential information,
 including trade secrets, belonging to Gaussian, Inc.
  
 This software is provided under written license and may be
 used, copied, transmitted, or stored only in accord with that
 written license.
  
 The following legend is applicable only to US Government
 contracts under FAR:
  
                    RESTRICTED RIGHTS LEGEND
  
 Use, reproduction and disclosure by the US Government is
 subject to restrictions as set forth in subparagraphs (a)
 and (c) of the Commercial Computer Software - Restricted
 Rights clause in FAR 52.227-19.
  
 Gaussian, Inc.
 340 Quinnipiac St., Bldg. 40, Wallingford CT 06492
  
  
 ---------------------------------------------------------------
 Warning -- This program may not be used in any manner that
 competes with the business of Gaussian, Inc. or will provide
 assistance to any competitor of Gaussian, Inc.  The licensee
 of this program is prohibited from giving any competitor of
 Gaussian, Inc. access to this program.  By using this program,
 the user acknowledges that Gaussian, Inc. is engaged in the
 business of creating and licensing software in the field of
 computational chemistry and represents and warrants to the
 licensee that it is not a competitor of Gaussian, Inc. and that
 it will not use this program in any manner prohibited above.
 ---------------------------------------------------------------
  

 Cite this work as:
 Gaussian 16, Revision A.03,
 M. J. Frisch, G. W. Trucks, H. B. Schlegel, G. E. Scuseria, 
 M. A. Robb, J. R. Cheeseman, G. Scalmani, V. Barone, 
 G. A. Petersson, H. Nakatsuji, X. Li, M. Caricato, A. V. Marenich, 
 J. Bloino, B. G. Janesko, R. Gomperts, B. Mennucci, H. P. Hratchian, 
 J. V. Ortiz, A. F. Izmaylov, J. L. Sonnenberg, D. Williams-Young, 
 F. Ding, F. Lipparini, F. Egidi, J. Goings, B. Peng, A. Petrone, 
 T. Henderson, D. Ranasinghe, V. G. Zakrzewski, J. Gao, N. Rega, 
 G. Zheng, W. Liang, M. Hada, M. Ehara, K. Toyota, R. Fukuda, 
 J. Hasegawa, M. Ishida, T. Nakajima, Y. Honda, O. Kitao, H. Nakai, 
 T. Vreven, K. Throssell, J. A. Montgomery, Jr., J. E. Peralta, 
 F. Ogliaro, M. J. Bearpark, J. J. Heyd, E. N. Brothers, K. N. Kudin, 
 V. N. Staroverov, T. A. Keith, R. Kobayashi, J. Normand, 
 K. Raghavachari, A. P. Rendell, J. C. Burant, S. S. Iyengar, 
 J. Tomasi, M. Cossi, J. M. Millam, M. Klene, C. Adamo, R. Cammi, 
 J. W. Ochterski, R. L. Martin, K. Morokuma, O. Farkas, 
 J. B. Foresman, and D. J. Fox, Gaussian, Inc., Wallingford CT, 2016.
 
 ******************************************
 Gaussian 16:  ES64L-G16RevA.03 25-Dec-2016
                 5-Dec-2022 
 ******************************************
 %nprocs=12
 Will use up to   12 processors via shared memory.
 %mem=16GB
 %oldchk=1jp9_II_Qn.chk
 %chk=1jp9_II_Q.chk
 Copying data from "1jp9_II_Qn.chk" to current chk file "1jp9_II_Q.chk"
 IOpt=  2 FromEx=T IUOpen= 4 IOptOp= 5 NList=   0 IFRang= 0 IUIn= 4 IUOut= 2.
 ----------------------------------------------------------------------
 # PBE1PBE/def2TZVP empiricaldispersion=GD3BJ int=(grid=ultrafine) geom
 =check pop=nbo guess=read
 ----------------------------------------------------------------------
 1/29=2,38=1,172=1/1;
 2/12=2,40=1/2;
 3/5=44,7=101,11=2,14=-4,25=1,30=1,74=-13,75=-5,116=-2,124=41/1,2,3;
 4/5=1/1;
 5/5=2,38=6/2;
 6/7=2,8=2,9=2,10=2,28=1,40=1/1,7;
 99/5=1,9=1/99;
 ---------
 1jp9_II_Q
 ---------
 Structure from the checkpoint file:  "1jp9_II_Q.chk"
 Charge =  0 Multiplicity = 5
 Z-Matrix found in chk file.
 C,0,9.522,29.638,2.62
 C,0,10.701,29.479,3.525
 N,0,10.928,30.315001,4.596
 C,0,11.748,28.622,3.487
 C,0,12.066,29.983,5.177
 N,0,12.584,28.959,4.524
 Fe,0,14.627,28.121,4.795
 C,0,15.882,31.27,5.037
 C,0,13.895,28.174999,8.147
 C,0,13.451,24.923,4.61
 C,0,15.452,28.044001,1.547
 N,0,14.83,29.443001,6.281
 C,0,15.369,30.707001,6.203
 C,0,15.333,31.365999,7.516
 C,0,14.77,30.465,8.37
 C,0,14.467,29.298,7.619
 C,0,14.5,30.634001,9.847
 C,0,15.824,32.738998,7.794
 C,0,14.651,33.764999,7.933
 C,0,13.796,33.793999,6.697
 O,0,14.247,34.201,5.615
 O,0,12.599,33.380001,6.81
 N,0,13.821,26.812,6.079
 C,0,13.594,27.017,7.439
 C,0,12.987,25.812,8.025
 C,0,12.861,24.917999,7.054
 C,0,13.387,25.547001,5.855
 C,0,12.617,25.700001,9.478
 C,0,12.304,23.518,7.133
 C,0,12.6540801,22.70642624,8.16030667
 N,0,14.473,26.757999,3.339
 C,0,13.959,25.471001,3.438
 C,0,14.045,24.795,2.175
 C,0,14.614,25.679001,1.327
 C,0,14.865,26.896,2.065
 C,0,13.587,23.384001,1.94
 C,0,14.988,25.563999,-0.121
 C,0,14.75710306,24.40873409,-0.79078849
 N,0,15.491,29.417,3.511
 C,0,15.748,29.212,2.197
 C,0,16.368999,30.343,1.609
 C,0,16.5,31.271999,2.617
 C,0,15.943,30.679001,3.806
 C,0,16.795,30.461,0.175
 C,0,17.118,32.632999,2.493
 C,0,18.642,32.530998,2.813
 C,0,19.365999,33.835999,2.726
 O,0,19.007,34.765999,1.962
 O,0,20.375999,33.960999,3.469
 O,0,16.577,27.254999,5.015
 H,0,12.42773767,32.46873619,7.05872807
 H,0,15.05783496,34.74052909,8.09951234
 H,0,14.04467787,33.49123506,8.77104939
 H,0,16.46300377,33.04820937,6.99339865
 H,0,16.38663965,32.72914598,8.70407668
 H,0,19.66649899,35.30504101,1.51917409
 H,0,18.75697045,32.14291317,3.80349077
 H,0,19.08986648,31.84622738,2.12350394
 H,0,16.98497857,32.9972961,1.49575734
 H,0,16.65086745,33.30285626,3.18435984
 H,0,17.73396066,29.96600286,0.03997886
 H,0,16.05854743,30.00668329,-0.45439172
 H,0,16.89625405,31.49445434,-0.08310801
 H,0,15.29585509,31.19277466,10.29341536
 H,0,13.576676,31.15727991,9.98320567
 H,0,14.43626555,29.67162828,10.31033213
 H,0,16.26716287,32.2654204,5.11241742
 H,0,13.6594945,28.18790866,9.19068122
 H,0,15.70486129,28.01094827,0.5078327
 H,0,13.07184509,23.92417932,4.55084936
 H,0,13.37601483,26.15982111,10.07579758
 H,0,11.68244467,26.19286683,9.64708466
 H,0,12.52922975,24.6676109,9.74514615
 H,0,11.63258535,23.16594001,6.37791316
 H,0,13.61998936,22.80021075,8.6109992
 H,0,11.96457782,21.97186115,8.52072414
 H,0,14.31028302,22.70328447,2.33797824
 H,0,12.64619789,23.22885584,2.42551145
 H,0,13.47824045,23.21466873,0.88909661
 H,0,15.43710319,26.39410167,-0.62511891
 H,0,15.50942398,23.64848343,-0.82132006
 H,0,13.82247793,24.25684461,-1.28909107
 H,0,12.49555452,30.46228499,6.03179168
 H,0,10.32496967,31.05742484,4.88782402
 H,0,11.8966582,27.83092054,2.78202196
 H,0,9.77772733,29.29838558,1.63808067
 H,0,8.70363214,29.05990456,2.99547265
 H,0,9.24067974,30.66952645,2.57862267
 H,0,17.42833133,27.69865988,5.015
 H,0,15.87493541,27.90975491,5.015
 Recover connectivity data from disk.
 Stoichiometry    C38H40FeN6O5(5)
 Framework group  C1[X(C38H40FeN6O5)]
 Deg. of freedom   264
 Full point group                 C1      NOp   1
 Largest Abelian subgroup         C1      NOp   1
 Largest concise Abelian subgroup C1      NOp   1
                         Standard orientation:                         
 ---------------------------------------------------------------------
 Center     Atomic      Atomic             Coordinates (Angstroms)
 Number     Number       Type             X           Y           Z
 ---------------------------------------------------------------------
      1          6           0       -1.395105    0.237801    5.325101
      2          6           0       -1.115773   -0.209118    3.926321
      3          7           0       -0.355513   -1.322749    3.644721
      4          6           0       -1.442763    0.336271    2.731444
      5          6           0       -0.222377   -1.442615    2.336770
      6          7           0       -0.872166   -0.448993    1.759017
      7         26           0       -0.786576    0.105819   -0.393746
      8          6           0        2.565034   -0.456715   -0.401142
      9          6           0       -1.329263   -3.231035   -0.981568
     10          6           0       -4.153758    0.650501   -0.492792
     11          6           0       -0.234031    3.379598    0.067908
     12          7           0        0.367113   -1.509906   -0.629387
     13          6           0        1.742071   -1.562904   -0.598045
     14          6           0        2.211031   -2.939568   -0.808791
     15          6           0        1.088196   -3.694995   -0.972063
     16          6           0       -0.029732   -2.825295   -0.864554
     17          6           0        1.002304   -5.182531   -1.222759
     18          6           0        3.634099   -3.361492   -0.827449
     19          6           0        4.051759   -4.076796    0.499890
     20          6           0        3.820045   -3.196221    1.695908
     21          8           0        4.468979   -2.151005    1.857717
     22          8           0        2.930600   -3.567113    2.525546
     23          7           0       -2.416450   -1.028173   -0.657083
     24          6           0       -2.441838   -2.402602   -0.888289
     25          6           0       -3.835030   -2.853940   -1.026783
     26          6           0       -4.613287   -1.789311   -0.889544
     27          6           0       -3.722504   -0.663661   -0.667420
     28          6           0       -4.214727   -4.285441   -1.286181
     29          6           0       -6.118641   -1.711723   -0.955716
     30          6           0       -6.789040   -2.373053   -1.930280
     31          7           0       -1.959044    1.717843   -0.226045
     32          6           0       -3.345937    1.764152   -0.294906
     33          6           0       -3.813284    3.113437   -0.151516
     34          6           0       -2.703750    3.868980   -0.001809
     35          6           0       -1.561623    2.984289   -0.041771
     36          6           0       -5.260287    3.514120   -0.190806
     37          6           0       -2.527577    5.348692    0.169132
     38          6           0       -3.611236    6.162226    0.189446
     39          7           0        0.856109    1.260233   -0.184741
     40          6           0        0.890324    2.601096    0.003905
     41          6           0        2.222846    3.075334    0.104050
     42          6           0        3.031684    1.969985   -0.038249
     43          6           0        2.161108    0.836073   -0.217006
     44          6           0        2.630054    4.504737    0.310798
     45          6           0        4.531444    1.961309   -0.021945
     46          6           0        5.057331    2.147052   -1.479451
     47          6           0        6.548308    2.148766   -1.587869
     48          8           0        7.299647    2.536633   -0.659147
     49          8           0        7.025969    1.736381   -2.678535
     50          8           0       -0.761310    0.686228   -2.458533
     51          1           0        2.015113   -3.641731    2.246411
     52          1           0        5.089999   -4.330404    0.448497
     53          1           0        3.477814   -4.973174    0.609398
     54          1           0        4.250705   -2.498016   -0.965671
     55          1           0        3.786781   -4.032627   -1.646696
     56          1           0        8.102206    3.022678   -0.862271
     57          1           0        4.672614    1.352691   -2.084334
     58          1           0        4.686981    3.076189   -1.859510
     59          1           0        4.887631    2.761898    0.592130
     60          1           0        4.880032    1.028037    0.368427
     61          1           0        2.592098    5.025098   -0.623378
     62          1           0        1.961481    4.969190    1.005199
     63          1           0        3.626945    4.539167    0.697996
     64          1           0        1.805627   -5.483411   -1.862324
     65          1           0        1.072292   -5.705713   -0.292016
     66          1           0        0.068169   -5.411883   -1.691469
     67          1           0        3.619704   -0.637013   -0.393211
     68          1           0       -1.504967   -4.271398   -1.159537
     69          1           0       -0.069536    4.425589    0.222002
     70          1           0       -5.210322    0.818318   -0.513088
     71          1           0       -3.528987   -4.715095   -1.986223
     72          1           0       -4.179692   -4.835535   -0.369082
     73          1           0       -5.205712   -4.324423   -1.687837
     74          1           0       -6.656880   -1.134546   -0.233175
     75          1           0       -6.333630   -2.520918   -2.887170
     76          1           0       -7.773764   -2.747340   -1.742859
     77          1           0       -5.601840    3.518194   -1.204820
     78          1           0       -5.839108    2.816519    0.377716
     79          1           0       -5.370754    4.493094    0.226695
     80          1           0       -1.546296    5.761939    0.275036
     81          1           0       -3.976246    6.589962   -0.720889
     82          1           0       -4.101829    6.376818    1.115820
     83          1           0        0.319932   -2.213891    1.830869
     84          1           0        0.034621   -1.943452    4.324812
     85          1           0       -2.034315    1.213836    2.573818
     86          1           0       -1.510781    1.301373    5.343326
     87          1           0       -2.294454   -0.224823    5.674458
     88          1           0       -0.580033   -0.043232    5.958803
     89          1           0       -0.000853    0.841645   -3.023466
     90          1           0       -0.467646    0.325895   -1.618580
 ---------------------------------------------------------------------
 Rotational constants (GHZ):           0.0726029           0.0504372           0.0376594
 Standard basis: def2TZVP (5D, 7F)
 There are  2056 symmetry adapted cartesian basis functions of A   symmetry.
 There are  1804 symmetry adapted basis functions of A   symmetry.
  1804 basis functions,  2921 primitive gaussians,  2056 cartesian basis functions
   190 alpha electrons      186 beta electrons
       nuclear repulsion energy      7688.2779979158 Hartrees.
 NAtoms=   90 NActive=   90 NUniq=   90 SFac= 1.00D+00 NAtFMM=   60 NAOKFM=T Big=T
 Integral buffers will be    131072 words long.
 Raffenetti 2 integral format.
 Two-electron integral symmetry is turned on.
 Nuclear repulsion after empirical dispersion term =     7688.1497782207 Hartrees.
 One-electron integrals computed using PRISM.
   1 Symmetry operations used in ECPInt.
 ECPInt:  NShTT=  255255 NPrTT=  790653 LenC2=  188093 LenP2D=  377922.
 LDataN:  DoStor=T MaxTD1= 6 Len=  172
 NBasis=  1804 RedAO= T EigKep=  2.49D-06  NBF=  1804
 NBsUse=  1804 1.00D-06 EigRej= -1.00D+00 NBFU=  1804
 Initial guess from the checkpoint file:  "1jp9_II_Q.chk"
 B after Tr=     0.000000    0.000000    0.000000
         Rot=    1.000000   -0.000000   -0.000000   -0.000000 Ang=   0.00 deg.
 Initial guess <Sx>= 0.0000 <Sy>= 0.0000 <Sz>= 2.0000 <S**2>= 6.0862 S= 2.0172
 Requested convergence on RMS density matrix=1.00D-08 within 128 cycles.
 Requested convergence on MAX density matrix=1.00D-06.
 Requested convergence on             energy=1.00D-06.
 No special actions if energy rises.
 SCF Done:  E(UPBE1PBE) =  -3438.53995420     A.U. after    1 cycles
            NFock=  1  Conv=0.12D-08     -V/T= 2.0030
 <Sx>= 0.0000 <Sy>= 0.0000 <Sz>= 2.0000 <S**2>= 6.0862 S= 2.0172
 <L.S>= 0.000000000000E+00
 Annihilation of the first spin contaminant:
 S**2 before annihilation     6.0862,   after     6.0021

 **********************************************************************

            Population analysis using the SCF density.

 **********************************************************************

 Orbital symmetries:
 Alpha Orbitals:
       Occupied  (A) (A) (A) (A) (A) (A) (A) (A) (A) (A) (A) (A)
                 (A) (A) (A) (A) (A) (A) (A) (A) (A) (A) (A) (A)
                 (A) (A) (A) (A) (A) (A) (A) (A) (A) (A) (A) (A)
                 (A) (A) (A) (A) (A) (A) (A) (A) (A) (A) (A) (A)
                 (A) (A) (A) (A) (A) (A) (A) (A) (A) (A) (A) (A)
                 (A) (A) (A) (A) (A) (A) (A) (A) (A) (A) (A) (A)
                 (A) (A) (A) (A) (A) (A) (A) (A) (A) (A) (A) (A)
                 (A) (A) (A) (A) (A) (A) (A) (A) (A) (A) (A) (A)
                 (A) (A) (A) (A) (A) (A) (A) (A) (A) (A) (A) (A)
                 (A) (A) (A) (A) (A) (A) (A) (A) (A) (A) (A) (A)
                 (A) (A) (A) (A) (A) (A) (A) (A) (A) (A) (A) (A)
                 (A) (A) (A) (A) (A) (A) (A) (A) (A) (A) (A) (A)
                 (A) (A) (A) (A) (A) (A) (A) (A) (A) (A) (A) (A)
                 (A) (A) (A) (A) (A) (A) (A) (A) (A) (A) (A) (A)
                 (A) (A) (A) (A) (A) (A) (A) (A) (A) (A) (A) (A)
                 (A) (A) (A) (A) (A) (A) (A) (A) (A) (A)
       Virtual   (A) (A) (A) (A) (A) (A) (A) (A) (A) (A) (A) (A)
                 (A) (A) (A) (A) (A) (A) (A) (A) (A) (A) (A) (A)
                 (A) (A) (A) (A) (A) (A) (A) (A) (A) (A) (A) (A)
                 (A) (A) (A) (A) (A) (A) (A) (A) (A) (A) (A) (A)
                 (A) (A) (A) (A) (A) (A) (A) (A) (A) (A) (A) (A)
                 (A) (A) (A) (A) (A) (A) (A) (A) (A) (A) (A) (A)
                 (A) (A) (A) (A) (A) (A) (A) (A) (A) (A) (A) (A)
                 (A) (A) (A) (A) (A) (A) (A) (A) (A) (A) (A) (A)
                 (A) (A) (A) (A) (A) (A) (A) (A) (A) (A) (A) (A)
                 (A) (A) (A) (A) (A) (A) (A) (A) (A) (A) (A) (A)
                 (A) (A) (A) (A) (A) (A) (A) (A) (A) (A) (A) (A)
                 (A) (A) (A) (A) (A) (A) (A) (A) (A) (A) (A) (A)
                 (A) (A) (A) (A) (A) (A) (A) (A) (A) (A) (A) (A)
                 (A) (A) (A) (A) (A) (A) (A) (A) (A) (A) (A) (A)
                 (A) (A) (A) (A) (A) (A) (A) (A) (A) (A) (A) (A)
                 (A) (A) (A) (A) (A) (A) (A) (A) (A) (A) (A) (A)
                 (A) (A) (A) (A) (A) (A) (A) (A) (A) (A) (A) (A)
                 (A) (A) (A) (A) (A) (A) (A) (A) (A) (A) (A) (A)
                 (A) (A) (A) (A) (A) (A) (A) (A) (A) (A) (A) (A)
                 (A) (A) (A) (A) (A) (A) (A) (A) (A) (A) (A) (A)
                 (A) (A) (A) (A) (A) (A) (A) (A) (A) (A) (A) (A)
                 (A) (A) (A) (A) (A) (A) (A) (A) (A) (A) (A) (A)
                 (A) (A) (A) (A) (A) (A) (A) (A) (A) (A) (A) (A)
                 (A) (A) (A) (A) (A) (A) (A) (A) (A) (A) (A) (A)
                 (A) (A) (A) (A) (A) (A) (A) (A) (A) (A) (A) (A)
                 (A) (A) (A) (A) (A) (A) (A) (A) (A) (A) (A) (A)
                 (A) (A) (A) (A) (A) (A) (A) (A) (A) (A) (A) (A)
                 (A) (A) (A) (A) (A) (A) (A) (A) (A) (A) (A) (A)
                 (A) (A) (A) (A) (A) (A) (A) (A) (A) (A) (A) (A)
                 (A) (A) (A) (A) (A) (A) (A) (A) (A) (A) (A) (A)
                 (A) (A) (A) (A) (A) (A) (A) (A) (A) (A) (A) (A)
                 (A) (A) (A) (A) (A) (A) (A) (A) (A) (A) (A) (A)
                 (A) (A) (A) (A) (A) (A) (A) (A) (A) (A) (A) (A)
                 (A) (A) (A) (A) (A) (A) (A) (A) (A) (A) (A) (A)
                 (A) (A) (A) (A) (A) (A) (A) (A) (A) (A) (A) (A)
                 (A) (A) (A) (A) (A) (A) (A) (A) (A) (A) (A) (A)
                 (A) (A) (A) (A) (A) (A) (A) (A) (A) (A) (A) (A)
                 (A) (A) (A) (A) (A) (A) (A) (A) (A) (A) (A) (A)
                 (A) (A) (A) (A) (A) (A) (A) (A) (A) (A) (A) (A)
                 (A) (A) (A) (A) (A) (A) (A) (A) (A) (A) (A) (A)
                 (A) (A) (A) (A) (A) (A) (A) (A) (A) (A) (A) (A)
                 (A) (A) (A) (A) (A) (A) (A) (A) (A) (A) (A) (A)
                 (A) (A) (A) (A) (A) (A) (A) (A) (A) (A) (A) (A)
                 (A) (A) (A) (A) (A) (A) (A) (A) (A) (A) (A) (A)
                 (A) (A) (A) (A) (A) (A) (A) (A) (A) (A) (A) (A)
                 (A) (A) (A) (A) (A) (A) (A) (A) (A) (A) (A) (A)
                 (A) (A) (A) (A) (A) (A) (A) (A) (A) (A) (A) (A)
                 (A) (A) (A) (A) (A) (A) (A) (A) (A) (A) (A) (A)
                 (A) (A) (A) (A) (A) (A) (A) (A) (A) (A) (A) (A)
                 (A) (A) (A) (A) (A) (A) (A) (A) (A) (A) (A) (A)
                 (A) (A) (A) (A) (A) (A) (A) (A) (A) (A) (A) (A)
                 (A) (A) (A) (A) (A) (A) (A) (A) (A) (A) (A) (A)
                 (A) (A) (A) (A) (A) (A) (A) (A) (A) (A) (A) (A)
                 (A) (A) (A) (A) (A) (A) (A) (A) (A) (A) (A) (A)
                 (A) (A) (A) (A) (A) (A) (A) (A) (A) (A) (A) (A)
                 (A) (A) (A) (A) (A) (A) (A) (A) (A) (A) (A) (A)
                 (A) (A) (A) (A) (A) (A) (A) (A) (A) (A) (A) (A)
                 (A) (A) (A) (A) (A) (A) (A) (A) (A) (A) (A) (A)
                 (A) (A) (A) (A) (A) (A) (A) (A) (A) (A) (A) (A)
                 (A) (A) (A) (A) (A) (A) (A) (A) (A) (A) (A) (A)
                 (A) (A) (A) (A) (A) (A) (A) (A) (A) (A) (A) (A)
                 (A) (A) (A) (A) (A) (A) (A) (A) (A) (A) (A) (A)
                 (A) (A) (A) (A) (A) (A) (A) (A) (A) (A) (A) (A)
                 (A) (A) (A) (A) (A) (A) (A) (A) (A) (A) (A) (A)
                 (A) (A) (A) (A) (A) (A) (A) (A) (A) (A) (A) (A)
                 (A) (A) (A) (A) (A) (A) (A) (A) (A) (A) (A) (A)
                 (A) (A) (A) (A) (A) (A) (A) (A) (A) (A) (A) (A)
                 (A) (A) (A) (A) (A) (A) (A) (A) (A) (A) (A) (A)
                 (A) (A) (A) (A) (A) (A) (A) (A) (A) (A) (A) (A)
                 (A) (A) (A) (A) (A) (A) (A) (A) (A) (A) (A) (A)
                 (A) (A) (A) (A) (A) (A) (A) (A) (A) (A) (A) (A)
                 (A) (A) (A) (A) (A) (A) (A) (A) (A) (A) (A) (A)
                 (A) (A) (A) (A) (A) (A) (A) (A) (A) (A) (A) (A)
                 (A) (A) (A) (A) (A) (A) (A) (A) (A) (A) (A) (A)
                 (A) (A) (A) (A) (A) (A) (A) (A) (A) (A) (A) (A)
                 (A) (A) (A) (A) (A) (A) (A) (A) (A) (A) (A) (A)
                 (A) (A) (A) (A) (A) (A) (A) (A) (A) (A) (A) (A)
                 (A) (A) (A) (A) (A) (A) (A) (A) (A) (A) (A) (A)
                 (A) (A) (A) (A) (A) (A) (A) (A) (A) (A) (A) (A)
                 (A) (A) (A) (A) (A) (A) (A) (A) (A) (A) (A) (A)
                 (A) (A) (A) (A) (A) (A) (A) (A) (A) (A) (A) (A)
                 (A) (A) (A) (A) (A) (A) (A) (A) (A) (A) (A) (A)
                 (A) (A) (A) (A) (A) (A) (A) (A) (A) (A) (A) (A)
                 (A) (A) (A) (A) (A) (A) (A) (A) (A) (A) (A) (A)
                 (A) (A) (A) (A) (A) (A) (A) (A) (A) (A) (A) (A)
                 (A) (A) (A) (A) (A) (A) (A) (A) (A) (A) (A) (A)
                 (A) (A) (A) (A) (A) (A) (A) (A) (A) (A) (A) (A)
                 (A) (A) (A) (A) (A) (A) (A) (A) (A) (A) (A) (A)
                 (A) (A) (A) (A) (A) (A) (A) (A) (A) (A) (A) (A)
                 (A) (A) (A) (A) (A) (A) (A) (A) (A) (A) (A) (A)
                 (A) (A) (A) (A) (A) (A) (A) (A) (A) (A) (A) (A)
                 (A) (A) (A) (A) (A) (A) (A) (A) (A) (A) (A) (A)
                 (A) (A) (A) (A) (A) (A) (A) (A) (A) (A) (A) (A)
                 (A) (A) (A) (A) (A) (A) (A) (A) (A) (A) (A) (A)
                 (A) (A) (A) (A) (A) (A) (A) (A) (A) (A) (A) (A)
                 (A) (A) (A) (A) (A) (A) (A) (A) (A) (A) (A) (A)
                 (A) (A) (A) (A) (A) (A) (A) (A) (A) (A) (A) (A)
                 (A) (A) (A) (A) (A) (A) (A) (A) (A) (A) (A) (A)
                 (A) (A) (A) (A) (A) (A) (A) (A) (A) (A) (A) (A)
                 (A) (A) (A) (A) (A) (A) (A) (A) (A) (A) (A) (A)
                 (A) (A) (A) (A) (A) (A) (A) (A) (A) (A) (A) (A)
                 (A) (A) (A) (A) (A) (A) (A) (A) (A) (A) (A) (A)
                 (A) (A) (A) (A) (A) (A) (A) (A) (A) (A) (A) (A)
                 (A) (A) (A) (A) (A) (A) (A) (A) (A) (A) (A) (A)
                 (A) (A) (A) (A) (A) (A) (A) (A) (A) (A) (A) (A)
                 (A) (A) (A) (A) (A) (A) (A) (A) (A) (A) (A) (A)
                 (A) (A) (A) (A) (A) (A) (A) (A) (A) (A) (A) (A)
                 (A) (A) (A) (A) (A) (A) (A) (A) (A) (A) (A) (A)
                 (A) (A) (A) (A) (A) (A) (A) (A) (A) (A) (A) (A)
                 (A) (A) (A) (A) (A) (A) (A) (A) (A) (A) (A) (A)
                 (A) (A) (A) (A) (A) (A) (A) (A) (A) (A) (A) (A)
                 (A) (A) (A) (A) (A) (A) (A) (A) (A) (A) (A) (A)
                 (A) (A) (A) (A) (A) (A) (A) (A) (A) (A) (A) (A)
                 (A) (A) (A) (A) (A) (A) (A) (A) (A) (A) (A) (A)
                 (A) (A) (A) (A) (A) (A) (A) (A) (A) (A) (A) (A)
                 (A) (A) (A) (A) (A) (A) (A) (A) (A) (A) (A) (A)
                 (A) (A) (A) (A) (A) (A) (A) (A) (A) (A) (A) (A)
                 (A) (A) (A) (A) (A) (A) (A) (A) (A) (A) (A) (A)
                 (A) (A) (A) (A) (A) (A) (A) (A) (A) (A) (A) (A)
                 (A) (A) (A) (A) (A) (A) (A) (A) (A) (A) (A) (A)
                 (A) (A) (A) (A) (A) (A) (A) (A) (A) (A) (A) (A)
                 (A) (A) (A) (A) (A) (A) (A) (A) (A) (A) (A) (A)
                 (A) (A) (A) (A) (A) (A) (A) (A) (A) (A) (A) (A)
                 (A) (A) (A) (A) (A) (A) (A) (A) (A) (A) (A) (A)
                 (A) (A) (A) (A) (A) (A) (A) (A) (A) (A) (A) (A)
                 (A) (A) (A) (A) (A) (A) (A) (A) (A) (A) (A) (A)
                 (A) (A) (A) (A) (A) (A) (A) (A) (A) (A) (A) (A)
                 (A) (A) (A) (A) (A) (A) (A) (A) (A) (A) (A) (A)
                 (A) (A) (A) (A) (A) (A) (A) (A) (A) (A) (A) (A)
                 (A) (A) (A) (A) (A) (A) (A) (A) (A) (A) (A) (A)
                 (A) (A) (A) (A) (A) (A) (A) (A) (A) (A) (A) (A)
                 (A) (A) (A) (A) (A) (A) (A) (A) (A) (A) (A) (A)
                 (A) (A) (A) (A) (A) (A) (A) (A) (A) (A) (A) (A)
                 (A) (A) (A) (A) (A) (A) (A) (A) (A) (A) (A) (A)
                 (A) (A) (A) (A) (A) (A)
 Beta  Orbitals:
       Occupied  (A) (A) (A) (A) (A) (A) (A) (A) (A) (A) (A) (A)
                 (A) (A) (A) (A) (A) (A) (A) (A) (A) (A) (A) (A)
                 (A) (A) (A) (A) (A) (A) (A) (A) (A) (A) (A) (A)
                 (A) (A) (A) (A) (A) (A) (A) (A) (A) (A) (A) (A)
                 (A) (A) (A) (A) (A) (A) (A) (A) (A) (A) (A) (A)
                 (A) (A) (A) (A) (A) (A) (A) (A) (A) (A) (A) (A)
                 (A) (A) (A) (A) (A) (A) (A) (A) (A) (A) (A) (A)
                 (A) (A) (A) (A) (A) (A) (A) (A) (A) (A) (A) (A)
                 (A) (A) (A) (A) (A) (A) (A) (A) (A) (A) (A) (A)
                 (A) (A) (A) (A) (A) (A) (A) (A) (A) (A) (A) (A)
                 (A) (A) (A) (A) (A) (A) (A) (A) (A) (A) (A) (A)
                 (A) (A) (A) (A) (A) (A) (A) (A) (A) (A) (A) (A)
                 (A) (A) (A) (A) (A) (A) (A) (A) (A) (A) (A) (A)
                 (A) (A) (A) (A) (A) (A) (A) (A) (A) (A) (A) (A)
                 (A) (A) (A) (A) (A) (A) (A) (A) (A) (A) (A) (A)
                 (A) (A) (A) (A) (A) (A)
       Virtual   (A) (A) (A) (A) (A) (A) (A) (A) (A) (A) (A) (A)
                 (A) (A) (A) (A) (A) (A) (A) (A) (A) (A) (A) (A)
                 (A) (A) (A) (A) (A) (A) (A) (A) (A) (A) (A) (A)
                 (A) (A) (A) (A) (A) (A) (A) (A) (A) (A) (A) (A)
                 (A) (A) (A) (A) (A) (A) (A) (A) (A) (A) (A) (A)
                 (A) (A) (A) (A) (A) (A) (A) (A) (A) (A) (A) (A)
                 (A) (A) (A) (A) (A) (A) (A) (A) (A) (A) (A) (A)
                 (A) (A) (A) (A) (A) (A) (A) (A) (A) (A) (A) (A)
                 (A) (A) (A) (A) (A) (A) (A) (A) (A) (A) (A) (A)
                 (A) (A) (A) (A) (A) (A) (A) (A) (A) (A) (A) (A)
                 (A) (A) (A) (A) (A) (A) (A) (A) (A) (A) (A) (A)
                 (A) (A) (A) (A) (A) (A) (A) (A) (A) (A) (A) (A)
                 (A) (A) (A) (A) (A) (A) (A) (A) (A) (A) (A) (A)
                 (A) (A) (A) (A) (A) (A) (A) (A) (A) (A) (A) (A)
                 (A) (A) (A) (A) (A) (A) (A) (A) (A) (A) (A) (A)
                 (A) (A) (A) (A) (A) (A) (A) (A) (A) (A) (A) (A)
                 (A) (A) (A) (A) (A) (A) (A) (A) (A) (A) (A) (A)
                 (A) (A) (A) (A) (A) (A) (A) (A) (A) (A) (A) (A)
                 (A) (A) (A) (A) (A) (A) (A) (A) (A) (A) (A) (A)
                 (A) (A) (A) (A) (A) (A) (A) (A) (A) (A) (A) (A)
                 (A) (A) (A) (A) (A) (A) (A) (A) (A) (A) (A) (A)
                 (A) (A) (A) (A) (A) (A) (A) (A) (A) (A) (A) (A)
                 (A) (A) (A) (A) (A) (A) (A) (A) (A) (A) (A) (A)
                 (A) (A) (A) (A) (A) (A) (A) (A) (A) (A) (A) (A)
                 (A) (A) (A) (A) (A) (A) (A) (A) (A) (A) (A) (A)
                 (A) (A) (A) (A) (A) (A) (A) (A) (A) (A) (A) (A)
                 (A) (A) (A) (A) (A) (A) (A) (A) (A) (A) (A) (A)
                 (A) (A) (A) (A) (A) (A) (A) (A) (A) (A) (A) (A)
                 (A) (A) (A) (A) (A) (A) (A) (A) (A) (A) (A) (A)
                 (A) (A) (A) (A) (A) (A) (A) (A) (A) (A) (A) (A)
                 (A) (A) (A) (A) (A) (A) (A) (A) (A) (A) (A) (A)
                 (A) (A) (A) (A) (A) (A) (A) (A) (A) (A) (A) (A)
                 (A) (A) (A) (A) (A) (A) (A) (A) (A) (A) (A) (A)
                 (A) (A) (A) (A) (A) (A) (A) (A) (A) (A) (A) (A)
                 (A) (A) (A) (A) (A) (A) (A) (A) (A) (A) (A) (A)
                 (A) (A) (A) (A) (A) (A) (A) (A) (A) (A) (A) (A)
                 (A) (A) (A) (A) (A) (A) (A) (A) (A) (A) (A) (A)
                 (A) (A) (A) (A) (A) (A) (A) (A) (A) (A) (A) (A)
                 (A) (A) (A) (A) (A) (A) (A) (A) (A) (A) (A) (A)
                 (A) (A) (A) (A) (A) (A) (A) (A) (A) (A) (A) (A)
                 (A) (A) (A) (A) (A) (A) (A) (A) (A) (A) (A) (A)
                 (A) (A) (A) (A) (A) (A) (A) (A) (A) (A) (A) (A)
                 (A) (A) (A) (A) (A) (A) (A) (A) (A) (A) (A) (A)
                 (A) (A) (A) (A) (A) (A) (A) (A) (A) (A) (A) (A)
                 (A) (A) (A) (A) (A) (A) (A) (A) (A) (A) (A) (A)
                 (A) (A) (A) (A) (A) (A) (A) (A) (A) (A) (A) (A)
                 (A) (A) (A) (A) (A) (A) (A) (A) (A) (A) (A) (A)
                 (A) (A) (A) (A) (A) (A) (A) (A) (A) (A) (A) (A)
                 (A) (A) (A) (A) (A) (A) (A) (A) (A) (A) (A) (A)
                 (A) (A) (A) (A) (A) (A) (A) (A) (A) (A) (A) (A)
                 (A) (A) (A) (A) (A) (A) (A) (A) (A) (A) (A) (A)
                 (A) (A) (A) (A) (A) (A) (A) (A) (A) (A) (A) (A)
                 (A) (A) (A) (A) (A) (A) (A) (A) (A) (A) (A) (A)
                 (A) (A) (A) (A) (A) (A) (A) (A) (A) (A) (A) (A)
                 (A) (A) (A) (A) (A) (A) (A) (A) (A) (A) (A) (A)
                 (A) (A) (A) (A) (A) (A) (A) (A) (A) (A) (A) (A)
                 (A) (A) (A) (A) (A) (A) (A) (A) (A) (A) (A) (A)
                 (A) (A) (A) (A) (A) (A) (A) (A) (A) (A) (A) (A)
                 (A) (A) (A) (A) (A) (A) (A) (A) (A) (A) (A) (A)
                 (A) (A) (A) (A) (A) (A) (A) (A) (A) (A) (A) (A)
                 (A) (A) (A) (A) (A) (A) (A) (A) (A) (A) (A) (A)
                 (A) (A) (A) (A) (A) (A) (A) (A) (A) (A) (A) (A)
                 (A) (A) (A) (A) (A) (A) (A) (A) (A) (A) (A) (A)
                 (A) (A) (A) (A) (A) (A) (A) (A) (A) (A) (A) (A)
                 (A) (A) (A) (A) (A) (A) (A) (A) (A) (A) (A) (A)
                 (A) (A) (A) (A) (A) (A) (A) (A) (A) (A) (A) (A)
                 (A) (A) (A) (A) (A) (A) (A) (A) (A) (A) (A) (A)
                 (A) (A) (A) (A) (A) (A) (A) (A) (A) (A) (A) (A)
                 (A) (A) (A) (A) (A) (A) (A) (A) (A) (A) (A) (A)
                 (A) (A) (A) (A) (A) (A) (A) (A) (A) (A) (A) (A)
                 (A) (A) (A) (A) (A) (A) (A) (A) (A) (A) (A) (A)
                 (A) (A) (A) (A) (A) (A) (A) (A) (A) (A) (A) (A)
                 (A) (A) (A) (A) (A) (A) (A) (A) (A) (A) (A) (A)
                 (A) (A) (A) (A) (A) (A) (A) (A) (A) (A) (A) (A)
                 (A) (A) (A) (A) (A) (A) (A) (A) (A) (A) (A) (A)
                 (A) (A) (A) (A) (A) (A) (A) (A) (A) (A) (A) (A)
                 (A) (A) (A) (A) (A) (A) (A) (A) (A) (A) (A) (A)
                 (A) (A) (A) (A) (A) (A) (A) (A) (A) (A) (A) (A)
                 (A) (A) (A) (A) (A) (A) (A) (A) (A) (A) (A) (A)
                 (A) (A) (A) (A) (A) (A) (A) (A) (A) (A) (A) (A)
                 (A) (A) (A) (A) (A) (A) (A) (A) (A) (A) (A) (A)
                 (A) (A) (A) (A) (A) (A) (A) (A) (A) (A) (A) (A)
                 (A) (A) (A) (A) (A) (A) (A) (A) (A) (A) (A) (A)
                 (A) (A) (A) (A) (A) (A) (A) (A) (A) (A) (A) (A)
                 (A) (A) (A) (A) (A) (A) (A) (A) (A) (A) (A) (A)
                 (A) (A) (A) (A) (A) (A) (A) (A) (A) (A) (A) (A)
                 (A) (A) (A) (A) (A) (A) (A) (A) (A) (A) (A) (A)
                 (A) (A) (A) (A) (A) (A) (A) (A) (A) (A) (A) (A)
                 (A) (A) (A) (A) (A) (A) (A) (A) (A) (A) (A) (A)
                 (A) (A) (A) (A) (A) (A) (A) (A) (A) (A) (A) (A)
                 (A) (A) (A) (A) (A) (A) (A) (A) (A) (A) (A) (A)
                 (A) (A) (A) (A) (A) (A) (A) (A) (A) (A) (A) (A)
                 (A) (A) (A) (A) (A) (A) (A) (A) (A) (A) (A) (A)
                 (A) (A) (A) (A) (A) (A) (A) (A) (A) (A) (A) (A)
                 (A) (A) (A) (A) (A) (A) (A) (A) (A) (A) (A) (A)
                 (A) (A) (A) (A) (A) (A) (A) (A) (A) (A) (A) (A)
                 (A) (A) (A) (A) (A) (A) (A) (A) (A) (A) (A) (A)
                 (A) (A) (A) (A) (A) (A) (A) (A) (A) (A) (A) (A)
                 (A) (A) (A) (A) (A) (A) (A) (A) (A) (A) (A) (A)
                 (A) (A) (A) (A) (A) (A) (A) (A) (A) (A) (A) (A)
                 (A) (A) (A) (A) (A) (A) (A) (A) (A) (A) (A) (A)
                 (A) (A) (A) (A) (A) (A) (A) (A) (A) (A) (A) (A)
                 (A) (A) (A) (A) (A) (A) (A) (A) (A) (A) (A) (A)
                 (A) (A) (A) (A) (A) (A) (A) (A) (A) (A) (A) (A)
                 (A) (A) (A) (A) (A) (A) (A) (A) (A) (A) (A) (A)
                 (A) (A) (A) (A) (A) (A) (A) (A) (A) (A) (A) (A)
                 (A) (A) (A) (A) (A) (A) (A) (A) (A) (A) (A) (A)
                 (A) (A) (A) (A) (A) (A) (A) (A) (A) (A) (A) (A)
                 (A) (A) (A) (A) (A) (A) (A) (A) (A) (A) (A) (A)
                 (A) (A) (A) (A) (A) (A) (A) (A) (A) (A) (A) (A)
                 (A) (A) (A) (A) (A) (A) (A) (A) (A) (A) (A) (A)
                 (A) (A) (A) (A) (A) (A) (A) (A) (A) (A) (A) (A)
                 (A) (A) (A) (A) (A) (A) (A) (A) (A) (A) (A) (A)
                 (A) (A) (A) (A) (A) (A) (A) (A) (A) (A) (A) (A)
                 (A) (A) (A) (A) (A) (A) (A) (A) (A) (A) (A) (A)
                 (A) (A) (A) (A) (A) (A) (A) (A) (A) (A) (A) (A)
                 (A) (A) (A) (A) (A) (A) (A) (A) (A) (A) (A) (A)
                 (A) (A) (A) (A) (A) (A) (A) (A) (A) (A) (A) (A)
                 (A) (A) (A) (A) (A) (A) (A) (A) (A) (A) (A) (A)
                 (A) (A) (A) (A) (A) (A) (A) (A) (A) (A) (A) (A)
                 (A) (A) (A) (A) (A) (A) (A) (A) (A) (A) (A) (A)
                 (A) (A) (A) (A) (A) (A) (A) (A) (A) (A) (A) (A)
                 (A) (A) (A) (A) (A) (A) (A) (A) (A) (A) (A) (A)
                 (A) (A) (A) (A) (A) (A) (A) (A) (A) (A) (A) (A)
                 (A) (A) (A) (A) (A) (A) (A) (A) (A) (A) (A) (A)
                 (A) (A) (A) (A) (A) (A) (A) (A) (A) (A) (A) (A)
                 (A) (A) (A) (A) (A) (A) (A) (A) (A) (A) (A) (A)
                 (A) (A) (A) (A) (A) (A) (A) (A) (A) (A) (A) (A)
                 (A) (A) (A) (A) (A) (A) (A) (A) (A) (A) (A) (A)
                 (A) (A) (A) (A) (A) (A) (A) (A) (A) (A) (A) (A)
                 (A) (A) (A) (A) (A) (A) (A) (A) (A) (A) (A) (A)
                 (A) (A) (A) (A) (A) (A) (A) (A) (A) (A) (A) (A)
                 (A) (A) (A) (A) (A) (A) (A) (A) (A) (A) (A) (A)
                 (A) (A) (A) (A) (A) (A) (A) (A) (A) (A) (A) (A)
                 (A) (A) (A) (A) (A) (A) (A) (A) (A) (A)
 The electronic state is 5-A.
 Alpha  occ. eigenvalues -- -256.32768 -30.11426 -25.94940 -25.93312 -25.92747
 Alpha  occ. eigenvalues --  -19.26288 -19.25896 -19.18766 -19.18040 -19.16819
 Alpha  occ. eigenvalues --  -14.44916 -14.37972 -14.37931 -14.37668 -14.37475
 Alpha  occ. eigenvalues --  -14.36922 -10.35658 -10.34810 -10.28196 -10.26215
 Alpha  occ. eigenvalues --  -10.25101 -10.24926 -10.24656 -10.24601 -10.24512
 Alpha  occ. eigenvalues --  -10.24405 -10.24227 -10.23992 -10.23686 -10.23545
 Alpha  occ. eigenvalues --  -10.23489 -10.23391 -10.23225 -10.23136 -10.23014
 Alpha  occ. eigenvalues --  -10.22789 -10.22713 -10.22638 -10.22364 -10.22337
 Alpha  occ. eigenvalues --  -10.22321 -10.22242 -10.22154 -10.22034 -10.21953
 Alpha  occ. eigenvalues --  -10.21914 -10.21805 -10.21625 -10.21554 -10.21472
 Alpha  occ. eigenvalues --  -10.21287 -10.21076 -10.20860 -10.20664  -3.50546
 Alpha  occ. eigenvalues --   -2.29021  -2.25883  -2.24843  -1.16590  -1.16192
 Alpha  occ. eigenvalues --   -1.06731  -1.03589  -1.03402  -1.01293  -0.98522
 Alpha  occ. eigenvalues --   -0.97621  -0.97364  -0.96453  -0.90758  -0.84548
 Alpha  occ. eigenvalues --   -0.84120  -0.83961  -0.83517  -0.82899  -0.81756
 Alpha  occ. eigenvalues --   -0.81614  -0.81136  -0.79831  -0.78920  -0.78370
 Alpha  occ. eigenvalues --   -0.77172  -0.75499  -0.74502  -0.73450  -0.72927
 Alpha  occ. eigenvalues --   -0.72550  -0.71909  -0.70101  -0.69703  -0.69378
 Alpha  occ. eigenvalues --   -0.67068  -0.66333  -0.65495  -0.65300  -0.64771
 Alpha  occ. eigenvalues --   -0.62588  -0.62384  -0.60965  -0.59477  -0.58313
 Alpha  occ. eigenvalues --   -0.57899  -0.57044  -0.56605  -0.55505  -0.54963
 Alpha  occ. eigenvalues --   -0.54249  -0.53752  -0.52650  -0.52515  -0.52008
 Alpha  occ. eigenvalues --   -0.51093  -0.50728  -0.50453  -0.49716  -0.49223
 Alpha  occ. eigenvalues --   -0.48956  -0.48608  -0.48358  -0.48261  -0.48100
 Alpha  occ. eigenvalues --   -0.47223  -0.46437  -0.46246  -0.45992  -0.45288
 Alpha  occ. eigenvalues --   -0.45088  -0.44877  -0.44779  -0.44523  -0.44473
 Alpha  occ. eigenvalues --   -0.44178  -0.44006  -0.43792  -0.43681  -0.43308
 Alpha  occ. eigenvalues --   -0.43064  -0.42979  -0.42823  -0.42675  -0.42505
 Alpha  occ. eigenvalues --   -0.41967  -0.41524  -0.41306  -0.41210  -0.40770
 Alpha  occ. eigenvalues --   -0.40397  -0.40011  -0.39612  -0.39372  -0.39200
 Alpha  occ. eigenvalues --   -0.39126  -0.38664  -0.38493  -0.38237  -0.37959
 Alpha  occ. eigenvalues --   -0.37688  -0.37060  -0.37024  -0.36732  -0.36240
 Alpha  occ. eigenvalues --   -0.35785  -0.35551  -0.35460  -0.34167  -0.33703
 Alpha  occ. eigenvalues --   -0.33379  -0.33294  -0.32868  -0.31965  -0.31738
 Alpha  occ. eigenvalues --   -0.31085  -0.30775  -0.29713  -0.29135  -0.28790
 Alpha  occ. eigenvalues --   -0.28580  -0.27727  -0.27111  -0.27082  -0.26249
 Alpha  occ. eigenvalues --   -0.25543  -0.24587  -0.23627  -0.23087  -0.22169
 Alpha  occ. eigenvalues --   -0.21961  -0.20876  -0.20386  -0.19298  -0.17150
 Alpha virt. eigenvalues --   -0.07304  -0.06672  -0.02399  -0.01847  -0.00661
 Alpha virt. eigenvalues --   -0.00043   0.00195   0.00585   0.02039   0.03104
 Alpha virt. eigenvalues --    0.03420   0.04273   0.04732   0.04859   0.05028
 Alpha virt. eigenvalues --    0.05401   0.05553   0.05837   0.06636   0.06818
 Alpha virt. eigenvalues --    0.07298   0.07494   0.07747   0.08122   0.08527
 Alpha virt. eigenvalues --    0.08905   0.09196   0.09259   0.09656   0.09780
 Alpha virt. eigenvalues --    0.10051   0.10388   0.10875   0.11207   0.11539
 Alpha virt. eigenvalues --    0.11780   0.11946   0.12170   0.12754   0.12948
 Alpha virt. eigenvalues --    0.13017   0.13243   0.13360   0.13535   0.13824
 Alpha virt. eigenvalues --    0.13913   0.14229   0.14317   0.14462   0.14683
 Alpha virt. eigenvalues --    0.14737   0.15041   0.15248   0.15471   0.15821
 Alpha virt. eigenvalues --    0.15901   0.16102   0.16344   0.16517   0.16914
 Alpha virt. eigenvalues --    0.17080   0.17363   0.17641   0.17733   0.18075
 Alpha virt. eigenvalues --    0.18364   0.18469   0.18779   0.18950   0.19014
 Alpha virt. eigenvalues --    0.19298   0.19843   0.19969   0.20100   0.20185
 Alpha virt. eigenvalues --    0.20430   0.20773   0.20870   0.21057   0.21631
 Alpha virt. eigenvalues --    0.21900   0.21927   0.22169   0.22272   0.22523
 Alpha virt. eigenvalues --    0.22891   0.23056   0.23311   0.23847   0.23911
 Alpha virt. eigenvalues --    0.24070   0.24308   0.24632   0.24778   0.24877
 Alpha virt. eigenvalues --    0.25180   0.25465   0.25627   0.26101   0.26227
 Alpha virt. eigenvalues --    0.26508   0.26755   0.26936   0.27129   0.27368
 Alpha virt. eigenvalues --    0.27580   0.27756   0.27897   0.27958   0.28413
 Alpha virt. eigenvalues --    0.28537   0.28899   0.28947   0.29258   0.29698
 Alpha virt. eigenvalues --    0.30060   0.30098   0.30394   0.30788   0.30921
 Alpha virt. eigenvalues --    0.31136   0.31436   0.31491   0.31654   0.31806
 Alpha virt. eigenvalues --    0.32081   0.32396   0.32611   0.32884   0.33453
 Alpha virt. eigenvalues --    0.33719   0.33802   0.34032   0.34400   0.34507
 Alpha virt. eigenvalues --    0.34838   0.35002   0.35306   0.35698   0.35826
 Alpha virt. eigenvalues --    0.35951   0.36215   0.36555   0.36656   0.36877
 Alpha virt. eigenvalues --    0.37420   0.37505   0.37703   0.37995   0.38161
 Alpha virt. eigenvalues --    0.38377   0.38604   0.38716   0.39014   0.39109
 Alpha virt. eigenvalues --    0.39160   0.39397   0.39686   0.39959   0.40226
 Alpha virt. eigenvalues --    0.40385   0.40536   0.40786   0.41068   0.41428
 Alpha virt. eigenvalues --    0.41493   0.41609   0.41759   0.42180   0.42394
 Alpha virt. eigenvalues --    0.42570   0.42687   0.42943   0.43048   0.43206
 Alpha virt. eigenvalues --    0.43477   0.43501   0.43681   0.43939   0.44109
 Alpha virt. eigenvalues --    0.44326   0.44554   0.44608   0.44818   0.45031
 Alpha virt. eigenvalues --    0.45059   0.45367   0.45459   0.45704   0.45874
 Alpha virt. eigenvalues --    0.46273   0.46430   0.46570   0.46866   0.47018
 Alpha virt. eigenvalues --    0.47099   0.47286   0.47534   0.47561   0.47905
 Alpha virt. eigenvalues --    0.47994   0.48243   0.48365   0.48508   0.48858
 Alpha virt. eigenvalues --    0.49019   0.49178   0.49361   0.49431   0.49677
 Alpha virt. eigenvalues --    0.49832   0.50129   0.50177   0.50483   0.50706
 Alpha virt. eigenvalues --    0.50877   0.51132   0.51378   0.51527   0.51558
 Alpha virt. eigenvalues --    0.51804   0.52112   0.52255   0.52359   0.52510
 Alpha virt. eigenvalues --    0.53081   0.53147   0.53406   0.53643   0.53990
 Alpha virt. eigenvalues --    0.54113   0.54141   0.54422   0.54911   0.55148
 Alpha virt. eigenvalues --    0.55194   0.55461   0.55793   0.55826   0.56033
 Alpha virt. eigenvalues --    0.56493   0.56564   0.57024   0.57182   0.57316
 Alpha virt. eigenvalues --    0.57595   0.58055   0.58180   0.58718   0.58821
 Alpha virt. eigenvalues --    0.59088   0.59331   0.59494   0.59684   0.60064
 Alpha virt. eigenvalues --    0.60410   0.60563   0.60641   0.60965   0.61111
 Alpha virt. eigenvalues --    0.61506   0.61653   0.62082   0.62293   0.62335
 Alpha virt. eigenvalues --    0.62693   0.63135   0.63274   0.63440   0.63729
 Alpha virt. eigenvalues --    0.64048   0.64321   0.64568   0.64661   0.64856
 Alpha virt. eigenvalues --    0.65302   0.65674   0.66052   0.66218   0.66569
 Alpha virt. eigenvalues --    0.66621   0.66772   0.67115   0.67422   0.67554
 Alpha virt. eigenvalues --    0.67616   0.67910   0.68299   0.68410   0.68557
 Alpha virt. eigenvalues --    0.69050   0.69215   0.69750   0.69813   0.70038
 Alpha virt. eigenvalues --    0.70662   0.70854   0.71109   0.71367   0.71695
 Alpha virt. eigenvalues --    0.71863   0.71978   0.72435   0.72680   0.72950
 Alpha virt. eigenvalues --    0.73201   0.73404   0.73707   0.73899   0.74326
 Alpha virt. eigenvalues --    0.74626   0.75161   0.75229   0.75862   0.76047
 Alpha virt. eigenvalues --    0.76449   0.76647   0.77110   0.77270   0.77625
 Alpha virt. eigenvalues --    0.78084   0.78204   0.78340   0.78770   0.78907
 Alpha virt. eigenvalues --    0.79071   0.79633   0.79787   0.79991   0.80123
 Alpha virt. eigenvalues --    0.80602   0.81163   0.81636   0.81916   0.82267
 Alpha virt. eigenvalues --    0.82677   0.82812   0.83140   0.83356   0.83614
 Alpha virt. eigenvalues --    0.83717   0.84013   0.84363   0.84801   0.85181
 Alpha virt. eigenvalues --    0.85296   0.85673   0.86170   0.86577   0.86736
 Alpha virt. eigenvalues --    0.87048   0.87518   0.87709   0.87873   0.88269
 Alpha virt. eigenvalues --    0.88556   0.88620   0.89031   0.89522   0.89655
 Alpha virt. eigenvalues --    0.90071   0.90172   0.90889   0.90960   0.91178
 Alpha virt. eigenvalues --    0.91778   0.91843   0.91925   0.92375   0.92809
 Alpha virt. eigenvalues --    0.93107   0.93329   0.93620   0.93864   0.94021
 Alpha virt. eigenvalues --    0.94426   0.94785   0.95026   0.95407   0.95633
 Alpha virt. eigenvalues --    0.95957   0.96070   0.96691   0.96786   0.97201
 Alpha virt. eigenvalues --    0.97242   0.97493   0.97785   0.97980   0.98223
 Alpha virt. eigenvalues --    0.98385   0.99074   0.99321   0.99494   0.99707
 Alpha virt. eigenvalues --    1.00203   1.00222   1.00517   1.00929   1.01225
 Alpha virt. eigenvalues --    1.01348   1.01935   1.02321   1.02745   1.02964
 Alpha virt. eigenvalues --    1.03367   1.03586   1.03926   1.04196   1.04523
 Alpha virt. eigenvalues --    1.04845   1.05319   1.05685   1.05920   1.06322
 Alpha virt. eigenvalues --    1.06652   1.07120   1.07353   1.07742   1.07979
 Alpha virt. eigenvalues --    1.08470   1.08726   1.08984   1.09227   1.09556
 Alpha virt. eigenvalues --    1.09938   1.10244   1.10512   1.10800   1.11283
 Alpha virt. eigenvalues --    1.11762   1.12062   1.12335   1.12490   1.13271
 Alpha virt. eigenvalues --    1.13303   1.13437   1.14020   1.14274   1.14841
 Alpha virt. eigenvalues --    1.15332   1.15616   1.15914   1.16213   1.16492
 Alpha virt. eigenvalues --    1.16969   1.17059   1.17572   1.17821   1.18485
 Alpha virt. eigenvalues --    1.18546   1.18676   1.19420   1.20016   1.20616
 Alpha virt. eigenvalues --    1.20706   1.21104   1.21255   1.21637   1.21797
 Alpha virt. eigenvalues --    1.21980   1.22580   1.23211   1.23702   1.23863
 Alpha virt. eigenvalues --    1.24205   1.24660   1.25165   1.25740   1.26062
 Alpha virt. eigenvalues --    1.26376   1.26563   1.27144   1.27582   1.27752
 Alpha virt. eigenvalues --    1.27978   1.28125   1.28649   1.29204   1.29411
 Alpha virt. eigenvalues --    1.30147   1.30465   1.30706   1.30959   1.31464
 Alpha virt. eigenvalues --    1.31815   1.31853   1.32199   1.32735   1.33360
 Alpha virt. eigenvalues --    1.33779   1.34003   1.34417   1.34988   1.35581
 Alpha virt. eigenvalues --    1.35797   1.36097   1.36446   1.36725   1.36954
 Alpha virt. eigenvalues --    1.37462   1.37793   1.37960   1.38985   1.39197
 Alpha virt. eigenvalues --    1.39630   1.40040   1.40396   1.41231   1.41599
 Alpha virt. eigenvalues --    1.42369   1.42515   1.42979   1.43063   1.43495
 Alpha virt. eigenvalues --    1.43777   1.44004   1.44898   1.45182   1.45751
 Alpha virt. eigenvalues --    1.46217   1.46724   1.46863   1.47067   1.47400
 Alpha virt. eigenvalues --    1.47972   1.48155   1.48290   1.48915   1.49172
 Alpha virt. eigenvalues --    1.49301   1.49554   1.49967   1.50358   1.50445
 Alpha virt. eigenvalues --    1.51017   1.51272   1.51692   1.52030   1.52290
 Alpha virt. eigenvalues --    1.52407   1.52504   1.52717   1.52943   1.53351
 Alpha virt. eigenvalues --    1.53535   1.53732   1.53993   1.54495   1.55047
 Alpha virt. eigenvalues --    1.55235   1.55426   1.55645   1.56002   1.56165
 Alpha virt. eigenvalues --    1.56471   1.56750   1.57133   1.57350   1.57943
 Alpha virt. eigenvalues --    1.58206   1.58310   1.58670   1.58950   1.59298
 Alpha virt. eigenvalues --    1.59736   1.60148   1.60410   1.60577   1.60879
 Alpha virt. eigenvalues --    1.61211   1.61275   1.61474   1.61656   1.61970
 Alpha virt. eigenvalues --    1.62216   1.62511   1.62818   1.63127   1.63299
 Alpha virt. eigenvalues --    1.63337   1.63736   1.63772   1.64129   1.64529
 Alpha virt. eigenvalues --    1.64700   1.65170   1.65566   1.65632   1.66116
 Alpha virt. eigenvalues --    1.66250   1.66643   1.66764   1.66947   1.67160
 Alpha virt. eigenvalues --    1.67700   1.68040   1.68498   1.68640   1.68938
 Alpha virt. eigenvalues --    1.69550   1.69886   1.70056   1.70699   1.70870
 Alpha virt. eigenvalues --    1.71198   1.71545   1.71869   1.72502   1.72698
 Alpha virt. eigenvalues --    1.72848   1.72971   1.73203   1.73651   1.74300
 Alpha virt. eigenvalues --    1.74437   1.74493   1.74970   1.75307   1.75417
 Alpha virt. eigenvalues --    1.75639   1.76168   1.76543   1.76642   1.77310
 Alpha virt. eigenvalues --    1.77853   1.78302   1.78608   1.78981   1.79160
 Alpha virt. eigenvalues --    1.79393   1.79966   1.80787   1.81579   1.81709
 Alpha virt. eigenvalues --    1.82175   1.82317   1.82472   1.83386   1.83608
 Alpha virt. eigenvalues --    1.83871   1.84298   1.84867   1.85048   1.85453
 Alpha virt. eigenvalues --    1.85735   1.86048   1.86156   1.86860   1.87170
 Alpha virt. eigenvalues --    1.87587   1.87921   1.88383   1.88537   1.88726
 Alpha virt. eigenvalues --    1.89434   1.89811   1.90215   1.90352   1.90841
 Alpha virt. eigenvalues --    1.91309   1.91379   1.91879   1.92030   1.92981
 Alpha virt. eigenvalues --    1.93290   1.93728   1.94264   1.94658   1.94842
 Alpha virt. eigenvalues --    1.95198   1.95837   1.96087   1.96387   1.96789
 Alpha virt. eigenvalues --    1.97121   1.97407   1.97978   1.98249   1.98640
 Alpha virt. eigenvalues --    1.98906   1.99633   1.99806   2.00019   2.00381
 Alpha virt. eigenvalues --    2.00584   2.00858   2.01296   2.01872   2.02172
 Alpha virt. eigenvalues --    2.02391   2.02725   2.03457   2.03782   2.04159
 Alpha virt. eigenvalues --    2.04416   2.04756   2.04990   2.05693   2.06083
 Alpha virt. eigenvalues --    2.06106   2.06806   2.07159   2.07762   2.08060
 Alpha virt. eigenvalues --    2.08381   2.08597   2.08951   2.09709   2.09868
 Alpha virt. eigenvalues --    2.10170   2.10360   2.10873   2.11539   2.11667
 Alpha virt. eigenvalues --    2.12058   2.12703   2.12949   2.13078   2.13561
 Alpha virt. eigenvalues --    2.14149   2.14390   2.14615   2.15220   2.15611
 Alpha virt. eigenvalues --    2.16212   2.16379   2.17068   2.17366   2.17646
 Alpha virt. eigenvalues --    2.18190   2.18705   2.19015   2.19088   2.19411
 Alpha virt. eigenvalues --    2.19847   2.20333   2.21003   2.21200   2.21249
 Alpha virt. eigenvalues --    2.21355   2.22127   2.22336   2.23207   2.23454
 Alpha virt. eigenvalues --    2.23779   2.24168   2.24505   2.25161   2.25325
 Alpha virt. eigenvalues --    2.25703   2.25894   2.26205   2.26789   2.27187
 Alpha virt. eigenvalues --    2.27703   2.27888   2.28269   2.28480   2.28868
 Alpha virt. eigenvalues --    2.29233   2.29341   2.29749   2.30447   2.30751
 Alpha virt. eigenvalues --    2.31034   2.31485   2.31830   2.32273   2.32496
 Alpha virt. eigenvalues --    2.32699   2.33041   2.33334   2.33942   2.34404
 Alpha virt. eigenvalues --    2.34870   2.35183   2.35523   2.36299   2.36717
 Alpha virt. eigenvalues --    2.36999   2.37542   2.37667   2.38371   2.38546
 Alpha virt. eigenvalues --    2.39059   2.39666   2.39718   2.40099   2.40491
 Alpha virt. eigenvalues --    2.40881   2.41239   2.41733   2.41837   2.42361
 Alpha virt. eigenvalues --    2.42874   2.43048   2.43703   2.44098   2.44323
 Alpha virt. eigenvalues --    2.44450   2.44721   2.45285   2.45725   2.46108
 Alpha virt. eigenvalues --    2.46236   2.46732   2.47022   2.47879   2.48271
 Alpha virt. eigenvalues --    2.48810   2.49365   2.49780   2.49954   2.50445
 Alpha virt. eigenvalues --    2.50640   2.50958   2.51996   2.52519   2.52754
 Alpha virt. eigenvalues --    2.52975   2.53331   2.53941   2.54249   2.54811
 Alpha virt. eigenvalues --    2.55233   2.55875   2.56177   2.56227   2.56680
 Alpha virt. eigenvalues --    2.57068   2.57344   2.57481   2.57680   2.58075
 Alpha virt. eigenvalues --    2.58345   2.58960   2.59182   2.59297   2.59463
 Alpha virt. eigenvalues --    2.59890   2.59985   2.60594   2.60620   2.60868
 Alpha virt. eigenvalues --    2.61048   2.61215   2.61458   2.61782   2.62722
 Alpha virt. eigenvalues --    2.62880   2.63455   2.63775   2.63896   2.64224
 Alpha virt. eigenvalues --    2.64974   2.65007   2.65448   2.65650   2.65982
 Alpha virt. eigenvalues --    2.66322   2.66483   2.66840   2.67313   2.67428
 Alpha virt. eigenvalues --    2.67521   2.67989   2.68537   2.68775   2.69553
 Alpha virt. eigenvalues --    2.69934   2.70255   2.70736   2.71367   2.71751
 Alpha virt. eigenvalues --    2.71957   2.72165   2.72891   2.73172   2.73544
 Alpha virt. eigenvalues --    2.73658   2.74384   2.74483   2.74667   2.75083
 Alpha virt. eigenvalues --    2.75355   2.75684   2.75771   2.76240   2.76348
 Alpha virt. eigenvalues --    2.76745   2.77620   2.78139   2.78187   2.78542
 Alpha virt. eigenvalues --    2.78963   2.79234   2.79562   2.80052   2.80417
 Alpha virt. eigenvalues --    2.80766   2.81097   2.81388   2.81718   2.81871
 Alpha virt. eigenvalues --    2.82492   2.82764   2.83200   2.83547   2.83674
 Alpha virt. eigenvalues --    2.83911   2.84845   2.84959   2.85315   2.85771
 Alpha virt. eigenvalues --    2.86078   2.86497   2.87134   2.87203   2.87501
 Alpha virt. eigenvalues --    2.88138   2.88506   2.88545   2.88743   2.88941
 Alpha virt. eigenvalues --    2.89530   2.89937   2.90100   2.90308   2.90602
 Alpha virt. eigenvalues --    2.90701   2.91445   2.91672   2.92317   2.92427
 Alpha virt. eigenvalues --    2.92598   2.93019   2.93206   2.93405   2.93597
 Alpha virt. eigenvalues --    2.93778   2.94428   2.94992   2.95248   2.95551
 Alpha virt. eigenvalues --    2.95843   2.95989   2.96376   2.96692   2.96940
 Alpha virt. eigenvalues --    2.97131   2.97616   2.97746   2.98282   2.98570
 Alpha virt. eigenvalues --    2.98895   2.99179   2.99457   2.99781   3.00329
 Alpha virt. eigenvalues --    3.00443   3.00741   3.01107   3.01274   3.01570
 Alpha virt. eigenvalues --    3.02073   3.02529   3.02671   3.03060   3.03267
 Alpha virt. eigenvalues --    3.03803   3.03954   3.04482   3.04757   3.04974
 Alpha virt. eigenvalues --    3.05231   3.05530   3.05959   3.06103   3.06586
 Alpha virt. eigenvalues --    3.06959   3.07186   3.07574   3.07840   3.08162
 Alpha virt. eigenvalues --    3.08411   3.08598   3.08889   3.09162   3.09363
 Alpha virt. eigenvalues --    3.09872   3.10111   3.10333   3.10720   3.11025
 Alpha virt. eigenvalues --    3.11673   3.11735   3.12280   3.12474   3.12828
 Alpha virt. eigenvalues --    3.12998   3.13153   3.13337   3.13550   3.14164
 Alpha virt. eigenvalues --    3.14757   3.15196   3.15349   3.15471   3.15867
 Alpha virt. eigenvalues --    3.16133   3.16328   3.16985   3.17173   3.17403
 Alpha virt. eigenvalues --    3.17613   3.17813   3.17925   3.18293   3.18478
 Alpha virt. eigenvalues --    3.18882   3.19159   3.19320   3.19788   3.20144
 Alpha virt. eigenvalues --    3.20378   3.20624   3.20729   3.21401   3.21607
 Alpha virt. eigenvalues --    3.21863   3.22412   3.22548   3.22739   3.22976
 Alpha virt. eigenvalues --    3.23452   3.23589   3.23860   3.23941   3.24348
 Alpha virt. eigenvalues --    3.25011   3.25283   3.25301   3.25754   3.25849
 Alpha virt. eigenvalues --    3.25996   3.26494   3.26858   3.27092   3.27214
 Alpha virt. eigenvalues --    3.27420   3.27698   3.28193   3.28604   3.28843
 Alpha virt. eigenvalues --    3.28878   3.29223   3.29396   3.29884   3.30013
 Alpha virt. eigenvalues --    3.30197   3.30462   3.30632   3.30831   3.30970
 Alpha virt. eigenvalues --    3.31705   3.31949   3.32199   3.32626   3.32994
 Alpha virt. eigenvalues --    3.33100   3.33281   3.33628   3.33818   3.34055
 Alpha virt. eigenvalues --    3.34301   3.34594   3.34697   3.34972   3.35253
 Alpha virt. eigenvalues --    3.35421   3.35847   3.36024   3.36592   3.36960
 Alpha virt. eigenvalues --    3.37128   3.37216   3.37708   3.37890   3.38123
 Alpha virt. eigenvalues --    3.38266   3.38547   3.38867   3.39036   3.39413
 Alpha virt. eigenvalues --    3.39587   3.40055   3.40323   3.40379   3.40916
 Alpha virt. eigenvalues --    3.41067   3.41313   3.41407   3.41772   3.42215
 Alpha virt. eigenvalues --    3.42406   3.42519   3.42974   3.43355   3.43544
 Alpha virt. eigenvalues --    3.43768   3.44461   3.44678   3.45172   3.45275
 Alpha virt. eigenvalues --    3.45947   3.46030   3.46443   3.46942   3.47129
 Alpha virt. eigenvalues --    3.47692   3.47810   3.48040   3.48500   3.48651
 Alpha virt. eigenvalues --    3.48959   3.49424   3.49524   3.49734   3.50389
 Alpha virt. eigenvalues --    3.50522   3.51052   3.51282   3.51691   3.51872
 Alpha virt. eigenvalues --    3.52386   3.52954   3.53179   3.53885   3.54254
 Alpha virt. eigenvalues --    3.54417   3.54875   3.55086   3.55302   3.55499
 Alpha virt. eigenvalues --    3.56302   3.56393   3.56956   3.57120   3.57967
 Alpha virt. eigenvalues --    3.58095   3.58300   3.58635   3.58764   3.59225
 Alpha virt. eigenvalues --    3.59675   3.60483   3.60691   3.60884   3.61402
 Alpha virt. eigenvalues --    3.61516   3.61894   3.62427   3.63052   3.63518
 Alpha virt. eigenvalues --    3.64102   3.64189   3.64424   3.64871   3.65088
 Alpha virt. eigenvalues --    3.65412   3.65946   3.66542   3.66928   3.67469
 Alpha virt. eigenvalues --    3.67634   3.68037   3.68204   3.68643   3.69003
 Alpha virt. eigenvalues --    3.69703   3.69927   3.70313   3.70565   3.71316
 Alpha virt. eigenvalues --    3.71437   3.72045   3.72679   3.72941   3.73493
 Alpha virt. eigenvalues --    3.73705   3.73916   3.74288   3.74786   3.75147
 Alpha virt. eigenvalues --    3.75285   3.75663   3.76161   3.76571   3.76586
 Alpha virt. eigenvalues --    3.77093   3.77431   3.77734   3.78697   3.79128
 Alpha virt. eigenvalues --    3.79227   3.79523   3.80358   3.80908   3.80921
 Alpha virt. eigenvalues --    3.81591   3.82096   3.82477   3.82894   3.84530
 Alpha virt. eigenvalues --    3.84563   3.84984   3.85312   3.85544   3.85793
 Alpha virt. eigenvalues --    3.86291   3.86711   3.86984   3.87368   3.88452
 Alpha virt. eigenvalues --    3.88897   3.89593   3.90076   3.91157   3.91494
 Alpha virt. eigenvalues --    3.91874   3.92527   3.93595   3.94004   3.94784
 Alpha virt. eigenvalues --    3.94924   3.95125   3.95399   3.95940   3.96651
 Alpha virt. eigenvalues --    3.97113   3.97394   3.97946   3.98271   3.99409
 Alpha virt. eigenvalues --    3.99687   3.99954   4.00274   4.01201   4.01379
 Alpha virt. eigenvalues --    4.02214   4.02578   4.02919   4.03083   4.03812
 Alpha virt. eigenvalues --    4.04850   4.05068   4.05253   4.06059   4.06568
 Alpha virt. eigenvalues --    4.07055   4.08166   4.08297   4.08663   4.09175
 Alpha virt. eigenvalues --    4.09307   4.10329   4.10723   4.12112   4.12657
 Alpha virt. eigenvalues --    4.13235   4.13416   4.14333   4.14838   4.15236
 Alpha virt. eigenvalues --    4.15382   4.16194   4.16465   4.16964   4.17416
 Alpha virt. eigenvalues --    4.17861   4.17965   4.18481   4.18937   4.19730
 Alpha virt. eigenvalues --    4.19832   4.20851   4.21269   4.21449   4.21844
 Alpha virt. eigenvalues --    4.22477   4.22943   4.23200   4.23763   4.25152
 Alpha virt. eigenvalues --    4.25413   4.25793   4.26339   4.26877   4.27680
 Alpha virt. eigenvalues --    4.27965   4.28381   4.29228   4.30002   4.30742
 Alpha virt. eigenvalues --    4.31009   4.31807   4.32393   4.32747   4.33029
 Alpha virt. eigenvalues --    4.34112   4.34624   4.35065   4.35484   4.36057
 Alpha virt. eigenvalues --    4.36970   4.37410   4.37789   4.38042   4.38352
 Alpha virt. eigenvalues --    4.38773   4.39065   4.39519   4.40377   4.40746
 Alpha virt. eigenvalues --    4.40871   4.42609   4.42819   4.43741   4.43915
 Alpha virt. eigenvalues --    4.44848   4.45079   4.45426   4.46409   4.46485
 Alpha virt. eigenvalues --    4.46615   4.47091   4.48175   4.48276   4.48825
 Alpha virt. eigenvalues --    4.49386   4.49918   4.50308   4.51190   4.51418
 Alpha virt. eigenvalues --    4.51639   4.52602   4.53630   4.54265   4.55349
 Alpha virt. eigenvalues --    4.57025   4.57132   4.57930   4.58788   4.59867
 Alpha virt. eigenvalues --    4.60238   4.61232   4.61512   4.62293   4.62609
 Alpha virt. eigenvalues --    4.63424   4.63798   4.64232   4.65655   4.66619
 Alpha virt. eigenvalues --    4.67368   4.67516   4.68583   4.68885   4.69634
 Alpha virt. eigenvalues --    4.70155   4.70499   4.71201   4.71711   4.72567
 Alpha virt. eigenvalues --    4.73625   4.73723   4.74514   4.75239   4.75769
 Alpha virt. eigenvalues --    4.76552   4.76871   4.77748   4.78056   4.78589
 Alpha virt. eigenvalues --    4.79884   4.80273   4.80371   4.80559   4.81543
 Alpha virt. eigenvalues --    4.82991   4.83491   4.83707   4.84522   4.86069
 Alpha virt. eigenvalues --    4.86871   4.87543   4.88227   4.88361   4.88655
 Alpha virt. eigenvalues --    4.89505   4.90081   4.90786   4.91173   4.92105
 Alpha virt. eigenvalues --    4.92406   4.92862   4.93380   4.93727   4.94851
 Alpha virt. eigenvalues --    4.96019   4.96597   4.97112   4.97841   4.98447
 Alpha virt. eigenvalues --    4.99346   4.99831   5.01415   5.02841   5.03847
 Alpha virt. eigenvalues --    5.04227   5.05136   5.05400   5.05879   5.06789
 Alpha virt. eigenvalues --    5.07534   5.08149   5.09265   5.09571   5.11248
 Alpha virt. eigenvalues --    5.12038   5.13261   5.14093   5.17070   5.18169
 Alpha virt. eigenvalues --    5.18326   5.18542   5.19552   5.19802   5.19995
 Alpha virt. eigenvalues --    5.20618   5.20903   5.21026   5.21925   5.22653
 Alpha virt. eigenvalues --    5.23018   5.24342   5.24848   5.25170   5.25816
 Alpha virt. eigenvalues --    5.26024   5.28048   5.28318   5.28622   5.29591
 Alpha virt. eigenvalues --    5.30339   5.30616   5.33647   5.33851   5.35081
 Alpha virt. eigenvalues --    5.37408   5.38297   5.38641   5.38993   5.39747
 Alpha virt. eigenvalues --    5.40646   5.40917   5.42513   5.44386   5.45427
 Alpha virt. eigenvalues --    5.46229   5.48057   5.48109   5.48804   5.49059
 Alpha virt. eigenvalues --    5.49607   5.50720   5.51142   5.51504   5.51904
 Alpha virt. eigenvalues --    5.52783   5.57473   5.57948   5.59489   5.60213
 Alpha virt. eigenvalues --    5.61043   5.62170   5.62492   5.63729   5.63982
 Alpha virt. eigenvalues --    5.64802   5.65314   5.65581   5.67043   5.67395
 Alpha virt. eigenvalues --    5.69031   5.69491   5.72948   5.73821   5.77768
 Alpha virt. eigenvalues --    5.78440   5.79633   5.80054   5.80199   5.81535
 Alpha virt. eigenvalues --    5.84734   5.85873   5.89132   5.90375   5.93924
 Alpha virt. eigenvalues --    5.94379   5.94717   5.97083   5.99644   6.01369
 Alpha virt. eigenvalues --    6.02103   6.03324   6.03490   6.06721   6.08282
 Alpha virt. eigenvalues --    6.12083   6.13867   6.14559   6.14715   6.15362
 Alpha virt. eigenvalues --    6.15815   6.18282   6.22150   6.26198   6.28540
 Alpha virt. eigenvalues --    6.28753   6.32541   6.32617   6.33740   6.34430
 Alpha virt. eigenvalues --    6.39406   6.41696   6.43281   6.46101   6.48736
 Alpha virt. eigenvalues --    6.49418   6.52192   6.53287   6.53776   6.55990
 Alpha virt. eigenvalues --    6.61403   6.65053   6.66435   6.75566   6.75786
 Alpha virt. eigenvalues --    6.82536   6.83273   6.88589   6.93464   6.97450
 Alpha virt. eigenvalues --    7.01943   7.05195   7.11531   7.12266   7.13145
 Alpha virt. eigenvalues --    7.13297   7.15848   7.26628   7.31400   7.32118
 Alpha virt. eigenvalues --   22.34421  22.41599  22.52080  22.55152  22.57102
 Alpha virt. eigenvalues --   22.60099  22.62936  22.63098  22.64226  22.75290
 Alpha virt. eigenvalues --   22.76970  22.77573  22.80097  22.81743  22.91837
 Alpha virt. eigenvalues --   22.96620  22.97750  23.01050  23.03531  23.07504
 Alpha virt. eigenvalues --   23.10986  23.12545  23.22073  23.24121  23.31576
 Alpha virt. eigenvalues --   23.32413  23.35672  23.43801  23.46000  23.51873
 Alpha virt. eigenvalues --   23.52626  23.56916  23.58940  23.61660  23.77003
 Alpha virt. eigenvalues --   23.82423  23.82908  23.95218  32.49173  32.76989
 Alpha virt. eigenvalues --   32.96277  32.97861  33.01176  33.22858  43.93042
 Alpha virt. eigenvalues --   43.95538  44.00844  44.09708  44.20034
  Beta  occ. eigenvalues -- -256.32701 -30.07310 -25.91268 -25.90697 -25.88672
  Beta  occ. eigenvalues --  -19.26288 -19.25895 -19.18766 -19.17606 -19.16818
  Beta  occ. eigenvalues --  -14.44913 -14.38006 -14.37778 -14.37641 -14.37409
  Beta  occ. eigenvalues --  -14.36982 -10.35658 -10.34810 -10.28199 -10.26209
  Beta  occ. eigenvalues --  -10.25079 -10.24916 -10.24637 -10.24602 -10.24572
  Beta  occ. eigenvalues --  -10.24479 -10.24206 -10.23986 -10.23683 -10.23547
  Beta  occ. eigenvalues --  -10.23492 -10.23398 -10.23134 -10.23012 -10.22779
  Beta  occ. eigenvalues --  -10.22747 -10.22703 -10.22398 -10.22321 -10.22243
  Beta  occ. eigenvalues --  -10.22156 -10.22032 -10.21929 -10.21913 -10.21911
  Beta  occ. eigenvalues --  -10.21801 -10.21667 -10.21464 -10.21430 -10.21287
  Beta  occ. eigenvalues --  -10.21055 -10.20843 -10.20754 -10.20662  -3.40456
  Beta  occ. eigenvalues --   -2.16939  -2.16650  -2.13593  -1.16589  -1.16192
  Beta  occ. eigenvalues --   -1.06663  -1.03590  -1.02231  -1.01293  -0.98423
  Beta  occ. eigenvalues --   -0.97550  -0.97352  -0.96421  -0.90598  -0.84539
  Beta  occ. eigenvalues --   -0.83930  -0.83538  -0.82922  -0.82209  -0.81739
  Beta  occ. eigenvalues --   -0.81331  -0.81111  -0.79530  -0.78923  -0.77406
  Beta  occ. eigenvalues --   -0.76133  -0.75426  -0.74266  -0.73399  -0.72900
  Beta  occ. eigenvalues --   -0.72270  -0.71627  -0.70101  -0.69674  -0.69372
  Beta  occ. eigenvalues --   -0.67017  -0.66335  -0.65353  -0.65240  -0.64639
  Beta  occ. eigenvalues --   -0.62554  -0.61046  -0.59828  -0.59355  -0.57815
  Beta  occ. eigenvalues --   -0.57017  -0.56561  -0.56498  -0.55314  -0.54335
  Beta  occ. eigenvalues --   -0.53827  -0.53602  -0.52499  -0.52463  -0.51877
  Beta  occ. eigenvalues --   -0.51054  -0.50626  -0.50377  -0.49648  -0.49158
  Beta  occ. eigenvalues --   -0.48696  -0.48522  -0.48335  -0.48239  -0.48043
  Beta  occ. eigenvalues --   -0.46367  -0.46166  -0.45855  -0.45361  -0.45121
  Beta  occ. eigenvalues --   -0.44819  -0.44584  -0.44553  -0.44292  -0.44122
  Beta  occ. eigenvalues --   -0.43662  -0.43573  -0.43475  -0.43369  -0.43235
  Beta  occ. eigenvalues --   -0.43009  -0.42862  -0.42623  -0.42525  -0.42219
  Beta  occ. eigenvalues --   -0.41711  -0.41392  -0.41154  -0.40988  -0.40662
  Beta  occ. eigenvalues --   -0.40015  -0.39537  -0.39397  -0.39247  -0.39132
  Beta  occ. eigenvalues --   -0.38930  -0.38502  -0.38094  -0.38019  -0.37785
  Beta  occ. eigenvalues --   -0.37173  -0.36826  -0.36623  -0.36378  -0.36082
  Beta  occ. eigenvalues --   -0.35702  -0.35506  -0.35370  -0.33692  -0.33046
  Beta  occ. eigenvalues --   -0.32734  -0.32719  -0.31789  -0.31735  -0.31552
  Beta  occ. eigenvalues --   -0.30764  -0.29767  -0.28723  -0.28602  -0.28333
  Beta  occ. eigenvalues --   -0.27259  -0.26919  -0.25860  -0.25258  -0.24825
  Beta  occ. eigenvalues --   -0.23947  -0.23340  -0.20523  -0.19298  -0.19042
  Beta  occ. eigenvalues --   -0.18479
  Beta virt. eigenvalues --   -0.08152  -0.07390  -0.04961  -0.04846  -0.02144
  Beta virt. eigenvalues --   -0.01852  -0.01406  -0.00015   0.00327   0.00903
  Beta virt. eigenvalues --    0.01945   0.02235   0.03145   0.03561   0.04434
  Beta virt. eigenvalues --    0.04546   0.04846   0.05022   0.05215   0.05620
  Beta virt. eigenvalues --    0.05852   0.06169   0.06707   0.07027   0.07529
  Beta virt. eigenvalues --    0.07858   0.08068   0.08504   0.08804   0.08966
  Beta virt. eigenvalues --    0.09417   0.09449   0.09803   0.10009   0.10245
  Beta virt. eigenvalues --    0.10660   0.11174   0.11332   0.11672   0.11839
  Beta virt. eigenvalues --    0.12134   0.12331   0.12835   0.13053   0.13128
  Beta virt. eigenvalues --    0.13387   0.13463   0.13742   0.13901   0.14068
  Beta virt. eigenvalues --    0.14381   0.14464   0.14574   0.14866   0.14893
  Beta virt. eigenvalues --    0.15110   0.15377   0.15546   0.15945   0.16196
  Beta virt. eigenvalues --    0.16310   0.16447   0.16622   0.17065   0.17365
  Beta virt. eigenvalues --    0.17503   0.17744   0.17893   0.18150   0.18412
  Beta virt. eigenvalues --    0.18761   0.18856   0.19054   0.19344   0.19488
  Beta virt. eigenvalues --    0.19911   0.20036   0.20143   0.20237   0.20487
  Beta virt. eigenvalues --    0.20842   0.20983   0.21189   0.21798   0.22004
  Beta virt. eigenvalues --    0.22183   0.22380   0.22533   0.22828   0.23018
  Beta virt. eigenvalues --    0.23181   0.23474   0.24036   0.24178   0.24232
  Beta virt. eigenvalues --    0.24556   0.24821   0.24928   0.25035   0.25526
  Beta virt. eigenvalues --    0.25722   0.26003   0.26238   0.26459   0.26793
  Beta virt. eigenvalues --    0.27014   0.27499   0.27749   0.27864   0.27910
  Beta virt. eigenvalues --    0.28023   0.28216   0.28628   0.28666   0.29013
  Beta virt. eigenvalues --    0.29292   0.29527   0.29997   0.30170   0.30279
  Beta virt. eigenvalues --    0.30441   0.30661   0.30962   0.31168   0.31364
  Beta virt. eigenvalues --    0.31586   0.31773   0.31941   0.32070   0.32376
  Beta virt. eigenvalues --    0.32779   0.32985   0.33224   0.33748   0.33883
  Beta virt. eigenvalues --    0.33991   0.34257   0.34603   0.34996   0.35111
  Beta virt. eigenvalues --    0.35335   0.35563   0.35872   0.36107   0.36235
  Beta virt. eigenvalues --    0.36396   0.36797   0.36933   0.37250   0.37622
  Beta virt. eigenvalues --    0.37746   0.37945   0.38243   0.38323   0.38655
  Beta virt. eigenvalues --    0.38836   0.38945   0.39176   0.39252   0.39384
  Beta virt. eigenvalues --    0.39601   0.39969   0.40167   0.40362   0.40601
  Beta virt. eigenvalues --    0.40735   0.40975   0.41461   0.41547   0.41627
  Beta virt. eigenvalues --    0.41778   0.41837   0.42319   0.42544   0.42641
  Beta virt. eigenvalues --    0.42807   0.43138   0.43255   0.43331   0.43638
  Beta virt. eigenvalues --    0.43739   0.43863   0.44068   0.44286   0.44611
  Beta virt. eigenvalues --    0.44668   0.44906   0.45103   0.45241   0.45348
  Beta virt. eigenvalues --    0.45516   0.45716   0.46084   0.46253   0.46512
  Beta virt. eigenvalues --    0.46610   0.46812   0.47038   0.47138   0.47344
  Beta virt. eigenvalues --    0.47397   0.47617   0.47668   0.48021   0.48152
  Beta virt. eigenvalues --    0.48323   0.48571   0.48836   0.49043   0.49225
  Beta virt. eigenvalues --    0.49484   0.49542   0.49711   0.49953   0.50112
  Beta virt. eigenvalues --    0.50306   0.50448   0.50727   0.50992   0.51160
  Beta virt. eigenvalues --    0.51417   0.51534   0.51694   0.51833   0.52147
  Beta virt. eigenvalues --    0.52222   0.52410   0.52509   0.52827   0.53149
  Beta virt. eigenvalues --    0.53309   0.53512   0.53816   0.54148   0.54274
  Beta virt. eigenvalues --    0.54348   0.54607   0.55027   0.55304   0.55411
  Beta virt. eigenvalues --    0.55577   0.55927   0.56003   0.56221   0.56668
  Beta virt. eigenvalues --    0.56731   0.57100   0.57340   0.57559   0.57791
  Beta virt. eigenvalues --    0.58120   0.58378   0.58822   0.59162   0.59275
  Beta virt. eigenvalues --    0.59460   0.59740   0.59890   0.60157   0.60560
  Beta virt. eigenvalues --    0.60616   0.60894   0.61145   0.61316   0.61710
  Beta virt. eigenvalues --    0.61941   0.62217   0.62429   0.62479   0.62841
  Beta virt. eigenvalues --    0.63353   0.63488   0.63698   0.63946   0.64297
  Beta virt. eigenvalues --    0.64499   0.64758   0.64906   0.65090   0.65439
  Beta virt. eigenvalues --    0.65816   0.66231   0.66581   0.66707   0.66751
  Beta virt. eigenvalues --    0.66934   0.67273   0.67560   0.67721   0.67784
  Beta virt. eigenvalues --    0.68172   0.68425   0.68589   0.68829   0.69214
  Beta virt. eigenvalues --    0.69602   0.69960   0.70035   0.70460   0.70818
  Beta virt. eigenvalues --    0.70977   0.71410   0.71546   0.71860   0.71960
  Beta virt. eigenvalues --    0.72198   0.72650   0.72866   0.73075   0.73423
  Beta virt. eigenvalues --    0.73648   0.74021   0.74117   0.74615   0.74846
  Beta virt. eigenvalues --    0.75258   0.75362   0.76072   0.76265   0.76590
  Beta virt. eigenvalues --    0.76787   0.77256   0.77380   0.77781   0.78210
  Beta virt. eigenvalues --    0.78286   0.78430   0.78911   0.79039   0.79305
  Beta virt. eigenvalues --    0.79740   0.79874   0.80085   0.80252   0.80752
  Beta virt. eigenvalues --    0.81515   0.81725   0.82032   0.82388   0.82860
  Beta virt. eigenvalues --    0.82888   0.83237   0.83522   0.83731   0.83877
  Beta virt. eigenvalues --    0.84304   0.84611   0.84968   0.85371   0.85503
  Beta virt. eigenvalues --    0.85967   0.86280   0.86823   0.86861   0.87313
  Beta virt. eigenvalues --    0.87716   0.87815   0.87985   0.88434   0.88651
  Beta virt. eigenvalues --    0.89143   0.89438   0.89694   0.90039   0.90344
  Beta virt. eigenvalues --    0.90409   0.91029   0.91112   0.91408   0.91900
  Beta virt. eigenvalues --    0.92124   0.92168   0.92635   0.92952   0.93311
  Beta virt. eigenvalues --    0.93625   0.93836   0.94016   0.94410   0.94704
  Beta virt. eigenvalues --    0.95086   0.95161   0.95621   0.95814   0.96293
  Beta virt. eigenvalues --    0.96379   0.96791   0.96901   0.97400   0.97607
  Beta virt. eigenvalues --    0.97794   0.97957   0.98463   0.98515   0.98652
  Beta virt. eigenvalues --    0.99247   0.99625   0.99697   1.00271   1.00391
  Beta virt. eigenvalues --    1.00547   1.00839   1.01151   1.01583   1.01682
  Beta virt. eigenvalues --    1.02081   1.02407   1.02885   1.03352   1.03482
  Beta virt. eigenvalues --    1.04097   1.04132   1.04474   1.04821   1.05309
  Beta virt. eigenvalues --    1.05485   1.05782   1.06227   1.06584   1.06846
  Beta virt. eigenvalues --    1.07302   1.07596   1.08065   1.08327   1.08839
  Beta virt. eigenvalues --    1.08866   1.09277   1.09557   1.09796   1.10057
  Beta virt. eigenvalues --    1.10374   1.10789   1.11000   1.11493   1.12196
  Beta virt. eigenvalues --    1.12291   1.12528   1.12751   1.13489   1.13841
  Beta virt. eigenvalues --    1.13864   1.14143   1.14503   1.15049   1.15611
  Beta virt. eigenvalues --    1.15849   1.16126   1.16553   1.16832   1.17202
  Beta virt. eigenvalues --    1.17286   1.17991   1.18067   1.18605   1.18774
  Beta virt. eigenvalues --    1.18819   1.19741   1.20398   1.20794   1.20861
  Beta virt. eigenvalues --    1.21342   1.21400   1.21806   1.21992   1.22113
  Beta virt. eigenvalues --    1.22917   1.23614   1.23931   1.24007   1.24567
  Beta virt. eigenvalues --    1.24786   1.25805   1.26025   1.26264   1.26629
  Beta virt. eigenvalues --    1.26755   1.27678   1.27732   1.28001   1.28187
  Beta virt. eigenvalues --    1.28429   1.28860   1.29390   1.29795   1.30612
  Beta virt. eigenvalues --    1.30728   1.30898   1.31118   1.31613   1.32056
  Beta virt. eigenvalues --    1.32148   1.32358   1.33081   1.33635   1.33982
  Beta virt. eigenvalues --    1.34204   1.34766   1.35187   1.35697   1.36057
  Beta virt. eigenvalues --    1.36256   1.36529   1.36978   1.37047   1.37603
  Beta virt. eigenvalues --    1.38013   1.38136   1.39097   1.39476   1.39848
  Beta virt. eigenvalues --    1.40243   1.40511   1.41674   1.41840   1.42557
  Beta virt. eigenvalues --    1.42732   1.43353   1.43560   1.43805   1.43937
  Beta virt. eigenvalues --    1.44457   1.45227   1.45636   1.46125   1.46538
  Beta virt. eigenvalues --    1.46856   1.47301   1.47417   1.47625   1.48257
  Beta virt. eigenvalues --    1.48429   1.48688   1.49185   1.49282   1.49470
  Beta virt. eigenvalues --    1.49691   1.50177   1.50481   1.50627   1.51147
  Beta virt. eigenvalues --    1.51565   1.52006   1.52233   1.52476   1.52565
  Beta virt. eigenvalues --    1.52642   1.52939   1.53115   1.53488   1.53740
  Beta virt. eigenvalues --    1.53896   1.54324   1.54867   1.55148   1.55370
  Beta virt. eigenvalues --    1.55624   1.55819   1.56198   1.56376   1.56825
  Beta virt. eigenvalues --    1.57259   1.57546   1.57672   1.58111   1.58396
  Beta virt. eigenvalues --    1.58472   1.58831   1.59205   1.59453   1.60130
  Beta virt. eigenvalues --    1.60338   1.60564   1.60760   1.61268   1.61417
  Beta virt. eigenvalues --    1.61458   1.61798   1.62011   1.62284   1.62432
  Beta virt. eigenvalues --    1.62588   1.62956   1.63237   1.63419   1.63610
  Beta virt. eigenvalues --    1.63869   1.64121   1.64407   1.64730   1.64817
  Beta virt. eigenvalues --    1.65508   1.65791   1.65963   1.66350   1.66592
  Beta virt. eigenvalues --    1.66815   1.67120   1.67325   1.67465   1.68138
  Beta virt. eigenvalues --    1.68255   1.68670   1.69099   1.69542   1.69942
  Beta virt. eigenvalues --    1.70009   1.70496   1.70786   1.71088   1.71371
  Beta virt. eigenvalues --    1.71719   1.71955   1.72615   1.72848   1.72986
  Beta virt. eigenvalues --    1.73071   1.73706   1.73909   1.74410   1.74582
  Beta virt. eigenvalues --    1.74665   1.75130   1.75498   1.75672   1.75791
  Beta virt. eigenvalues --    1.76504   1.76767   1.77233   1.77485   1.78052
  Beta virt. eigenvalues --    1.78443   1.78960   1.79156   1.79445   1.79491
  Beta virt. eigenvalues --    1.80158   1.80839   1.81674   1.82084   1.82246
  Beta virt. eigenvalues --    1.82484   1.82862   1.83549   1.83763   1.84067
  Beta virt. eigenvalues --    1.84466   1.85052   1.85245   1.85554   1.85822
  Beta virt. eigenvalues --    1.86226   1.86373   1.87107   1.87297   1.87930
  Beta virt. eigenvalues --    1.88284   1.88566   1.88657   1.89011   1.89555
  Beta virt. eigenvalues --    1.90064   1.90365   1.90510   1.91066   1.91509
  Beta virt. eigenvalues --    1.91532   1.91950   1.92462   1.93104   1.93595
  Beta virt. eigenvalues --    1.93973   1.94508   1.94736   1.95082   1.95318
  Beta virt. eigenvalues --    1.95960   1.96285   1.96475   1.97183   1.97463
  Beta virt. eigenvalues --    1.97909   1.98206   1.98393   1.98871   1.99229
  Beta virt. eigenvalues --    1.99751   2.00065   2.00247   2.00520   2.00824
  Beta virt. eigenvalues --    2.01153   2.01648   2.02077   2.02341   2.02565
  Beta virt. eigenvalues --    2.02896   2.03811   2.04165   2.04368   2.04708
  Beta virt. eigenvalues --    2.04923   2.05282   2.06012   2.06187   2.06546
  Beta virt. eigenvalues --    2.07041   2.07458   2.07908   2.08277   2.08588
  Beta virt. eigenvalues --    2.08732   2.09221   2.09927   2.10087   2.10299
  Beta virt. eigenvalues --    2.10789   2.11203   2.11742   2.11752   2.12252
  Beta virt. eigenvalues --    2.12788   2.13117   2.13532   2.13674   2.14344
  Beta virt. eigenvalues --    2.14542   2.14946   2.15340   2.16057   2.16467
  Beta virt. eigenvalues --    2.16622   2.17310   2.17592   2.17797   2.18469
  Beta virt. eigenvalues --    2.19103   2.19293   2.19375   2.19671   2.20001
  Beta virt. eigenvalues --    2.20591   2.21179   2.21261   2.21603   2.21684
  Beta virt. eigenvalues --    2.22344   2.22525   2.23367   2.23589   2.23931
  Beta virt. eigenvalues --    2.24463   2.24711   2.25405   2.25585   2.26040
[...]
  1603. RY*(   2) H  72                  0.00008     1.70712   
  1604. RY*(   3) H  72                  0.00004     2.16696   
  1605. RY*(   4) H  72                  0.00002     2.07974   
  1606. RY*(   5) H  72                  0.00000     2.98271   
  1607. RY*(   1) H  73                  0.00036     1.23670   
  1608. RY*(   2) H  73                  0.00009     1.98619   
  1609. RY*(   3) H  73                  0.00004     1.66050   
  1610. RY*(   4) H  73                  0.00003     2.17121   
  1611. RY*(   5) H  73                  0.00000     3.04259   
  1612. RY*(   1) H  74                  0.00049     1.33866   
  1613. RY*(   2) H  74                  0.00010     1.58934   
  1614. RY*(   3) H  74                  0.00005     2.61882   
  1615. RY*(   4) H  74                  0.00006     2.15142   
  1616. RY*(   5) H  74                  0.00000     3.08844   
  1617. RY*(   1) H  75                  0.00047     1.19610   
  1618. RY*(   2) H  75                  0.00015     1.59249   
  1619. RY*(   3) H  75                  0.00007     2.00063   
  1620. RY*(   4) H  75                  0.00003     2.45810   
  1621. RY*(   5) H  75                  0.00000     3.02237   
  1622. RY*(   1) H  76                  0.00033     1.38270   
  1623. RY*(   2) H  76                  0.00014     1.15187   
  1624. RY*(   3) H  76                  0.00007     2.15036   
  1625. RY*(   4) H  76                  0.00002     2.50799   
  1626. RY*(   5) H  76                  0.00000     3.03885   
  1627. RY*(   1) H  77                  0.00033     1.07296   
  1628. RY*(   2) H  77                  0.00008     1.70522   
  1629. RY*(   3) H  77                  0.00004     2.15633   
  1630. RY*(   4) H  77                  0.00002     1.98813   
  1631. RY*(   5) H  77                  0.00000     3.01563   
  1632. RY*(   1) H  78                  0.00027     1.09575   
  1633. RY*(   2) H  78                  0.00010     1.80937   
  1634. RY*(   3) H  78                  0.00003     1.94613   
  1635. RY*(   4) H  78                  0.00002     2.19474   
  1636. RY*(   5) H  78                  0.00000     2.93298   
  1637. RY*(   1) H  79                  0.00028     1.21090   
  1638. RY*(   2) H  79                  0.00007     1.73548   
  1639. RY*(   3) H  79                  0.00003     2.18575   
  1640. RY*(   4) H  79                  0.00001     1.90840   
  1641. RY*(   5) H  79                  0.00000     3.04691   
  1642. RY*(   1) H  80                  0.00024     1.92453   
  1643. RY*(   2) H  80                  0.00007     1.92581   
  1644. RY*(   3) H  80                  0.00003     2.09587   
  1645. RY*(   4) H  80                  0.00003     2.19949   
  1646. RY*(   5) H  80                  0.00000     3.08157   
  1647. RY*(   1) H  81                  0.00023     1.84580   
  1648. RY*(   2) H  81                  0.00013     0.78993   
  1649. RY*(   3) H  81                  0.00002     2.42678   
  1650. RY*(   4) H  81                  0.00001     2.36119   
  1651. RY*(   5) H  81                  0.00002     2.73894   
  1652. RY*(   1) H  82                  0.00022     1.85117   
  1653. RY*(   2) H  82                  0.00013     0.79761   
  1654. RY*(   3) H  82                  0.00002     2.47432   
  1655. RY*(   4) H  82                  0.00002     2.27156   
  1656. RY*(   5) H  82                  0.00001     2.80060   
  1711. BD*(   1) C   8 - C  13          0.01077     0.56375   
  1712. BD*(   2) C   8 - C  13          0.22006     0.04269  1783(v),1731(v),1745(r)
                                                    379(g),1716(r),513(g)
  1713. BD*(   1) C   8 - C  43          0.01045     0.60438   
  1714. BD*(   1) C   8 - H  67          0.00710     0.45564   
  1715. BD*(   1) C   9 - C  16          0.01061     0.60144   
  1716. BD*(   2) C   9 - C  16          0.19936     0.04884  1731(v),1749(v),405(g)
                                                    1712(r),591(g),1710(r)
  1717. BD*(   1) C   9 - C  24          0.00984     0.56773   
  1718. BD*(   1) C   9 - H  68          0.00711     0.44640   
  1719. BD*(   1) C  10 - C  27          0.01049     0.56725   
  1720. BD*(   1) C  10 - C  32          0.00986     0.57180   
  1721. BD*(   2) C  10 - C  32          0.20534     0.04764  1761(r),1770(v),1767(v)
                                                    431(g),1007(g)
  1722. BD*(   1) C  10 - H  70          0.00588     0.45286   
  1723. BD*(   1) C  11 - C  35          0.01105     0.57595   
  1724. BD*(   1) C  11 - C  40          0.01091     0.60682   
  1725. BD*(   2) C  11 - C  40          0.19185     0.05680  1786(v),1767(v),1783(v)
                                                    457(g),1215(g)
  1726. BD*(   1) C  11 - H  69          0.00678     0.45280   
  1727. BD*(   1) N  12 - C  13          0.01272     0.48778   
  1728. BD*(   1) N  12 - C  16          0.01507     0.46573   
  1729. BD*(   1) C  13 - C  14          0.01796     0.46254   
  1730. BD*(   1) C  14 - C  15          0.01162     0.59616   
  1731. BD*(   2) C  14 - C  15          0.13897     0.05820  1716(v),1712(v),1738(v)
                                                    1745(r),1736(v),1740(v)
                                                    1735(v),563(g)
  1732. BD*(   1) C  14 - C  18          0.01107     0.42079   
  1733. BD*(   1) C  15 - C  16          0.01615     0.52152   
  1734. BD*(   1) C  15 - C  17          0.00945     0.38810   
  1735. BD*(   1) C  17 - H  64          0.00382     0.40157   
  1736. BD*(   1) C  17 - H  65          0.00502     0.39320   
  1737. BD*(   1) C  17 - H  66          0.00339     0.40529   
  1738. BD*(   1) C  18 - C  19          0.00917     0.31432   
  1739. BD*(   1) C  18 - H  54          0.00666     0.41200   
  1740. BD*(   1) C  18 - H  55          0.00732     0.40534   
  1741. BD*(   1) C  19 - C  20          0.03791     0.35003   
  1742. BD*(   1) C  19 - H  52          0.00503     0.39228   
  1743. BD*(   1) C  19 - H  53          0.00614     0.38742   
  1744. BD*(   1) C  20 - O  21          0.02775     0.51509   
  1745. BD*(   2) C  20 - O  21          0.07955     0.04363   
  1746. BD*(   1) C  20 - O  22          0.03916     0.45888   
  1747. BD*(   1) O  22 - H  51          0.00760     0.37569   
  1748. BD*(   1) N  23 - C  24          0.01339     0.46665   
  1749. BD*(   2) N  23 - C  24          0.30378     0.00516  1716(v),1753(v),172(r)
                                                    797(g),177(r),769(g),405(v)
                                                    176(r),1707(r),173(r),171(r)
  1750. BD*(   1) N  23 - C  27          0.01211     0.52205   
  1751. BD*(   1) C  24 - C  25          0.01732     0.46498   
  1752. BD*(   1) C  25 - C  26          0.01079     0.65656   
  1753. BD*(   2) C  25 - C  26          0.12346     0.07983  1761(v),1749(v),1758(v)
                                                    1762(v),1757(v),825(g)
  1754. BD*(   1) C  25 - C  28          0.00932     0.40690   
  1755. BD*(   1) C  26 - C  27          0.01941     0.48868   
  1756. BD*(   1) C  26 - C  29          0.01405     0.42025   
  1757. BD*(   1) C  28 - H  71          0.00343     0.41020   
  1758. BD*(   1) C  28 - H  72          0.00549     0.40869   
  1759. BD*(   1) C  28 - H  73          0.00392     0.42571   
  1760. BD*(   1) C  29 - C  30          0.00263     0.58852   
  1761. BD*(   2) C  29 - C  30          0.02875     0.04767   
  1762. BD*(   1) C  29 - H  74          0.00941     0.44596   
  1763. BD*(   1) C  30 - H  75          0.00434     0.44422   
  1764. BD*(   1) C  30 - H  76          0.00428     0.44478   
  1765. BD*(   1) N  31 - C  32          0.01414     0.47495   
  1766. BD*(   1) N  31 - C  35          0.01247     0.54652   
  1767. BD*(   2) N  31 - C  35          0.25373     0.02511  1725(v),1721(v),1770(v)
                                                    177(r),1083(g),457(v),977(g)
                                                    172(r),176(r),173(r)
  1768. BD*(   1) C  32 - C  33          0.01627     0.50874   
  1769. BD*(   1) C  33 - C  34          0.01036     0.62704   
  1770. BD*(   2) C  33 - C  34          0.14229     0.07460  1721(v),1767(v),187(v)
                                                    1774(v),1057(g),1031(g)
                                                    1775(v)
  1771. BD*(   1) C  33 - C  36          0.00856     0.41022   
  1772. BD*(   1) C  34 - C  35          0.01587     0.49625   
  1773. BD*(   1) C  34 - C  37          0.01063     0.43860   
  1774. BD*(   1) C  36 - H  77          0.00380     0.41254   
  1775. BD*(   1) C  36 - H  78          0.00299     0.41231   
  1776. BD*(   1) C  36 - H  79          0.00269     0.42274   
  1777. BD*(   1) C  37 - C  38          0.00249     0.62637   
  1778. BD*(   1) C  37 - H  80          0.00385     0.44815   
  1779. BD*(   1) C  38 - H  81          0.00274     0.44616   
  1780. BD*(   1) C  38 - H  82          0.00266     0.44383   
  1781. BD*(   1) N  39 - C  40          0.01360     0.53032   
  1782. BD*(   1) N  39 - C  43          0.01385     0.50289   
  1783. BD*(   2) N  39 - C  43          0.31969     0.00967  1712(v),1786(v),1725(v)
                                                    1291(g),1185(g),379(v)
                                                    176(r),1292(g),1189(g)
                                                    171(r),173(r),1707(r)
                                                    1804(r),172(r)
  1784. BD*(   1) C  40 - C  41          0.01653     0.53066   
  1785. BD*(   1) C  41 - C  42          0.01099     0.58528   
  1786. BD*(   2) C  41 - C  42          0.12414     0.06558  1725(v),1783(v),1793(v)
                                                    1790(v)
  1787. BD*(   1) C  41 - C  44          0.00848     0.40759   
  1788. BD*(   1) C  42 - C  43          0.01681     0.50249   
  1789. BD*(   1) C  42 - C  45          0.01044     0.41638   
  1790. BD*(   1) C  44 - H  61          0.00541     0.40659   
  1791. BD*(   1) C  44 - H  62          0.00403     0.40910   
  1792. BD*(   1) C  44 - H  63          0.00351     0.41209   
  1793. BD*(   1) C  45 - C  46          0.01009     0.32891   
  1794. BD*(   1) C  45 - H  59          0.00680     0.41490   
  1795. BD*(   1) C  45 - H  60          0.00669     0.41776   
  1796. BD*(   1) C  46 - C  47          0.02948     0.36895   
  1797. BD*(   1) C  46 - H  57          0.00477     0.40628   
  1798. BD*(   1) C  46 - H  58          0.00587     0.39092   
  1799. BD*(   1) C  47 - O  48          0.03532     0.48554   
  1800. BD*(   1) C  47 - O  49          0.02685     0.51157   
  1801. BD*(   2) C  47 - O  49          0.10178     0.03581  1800(g),1802(v),1798(v)
                                                    1793(v)
  1802. BD*(   1) O  48 - H  56          0.00675     0.38294   
       -------------------------------
              Total Lewis  143.55934  ( 97.4282%)
        Valence non-Lewis    3.49717  (  2.3734%)
        Rydberg non-Lewis    0.29233  (  0.1984%)
       -------------------------------
            Total unit  3  147.34885  (100.0000%)
           Charge unit  3    0.65115

 Molecular unit  4  (H2O)
   107. BD (   1) O  50 - H  89          0.99638    -0.73782  176(r),1804(g),354(r),172(r)
                                                    177(r),175(r),357(r),352(r)
                                                    353(r),326(r),770(r),173(r)
                                                    358(r),774(r),360(r),983(r)
                                                    356(r)
   108. BD (   1) O  50 - H  90          0.91619    -0.73724  176(r),172(r),177(r),173(r)
                                                    1804(g),175(r),1689(v)
                                                    356(r),1187(r),358(r)
                                                    1728(r),1781(r),1782(r)
                                                    1188(r),1765(r),484(r)
                                                    1727(r),486(r),1766(r)
                                                    375(r),362(r),485(r),1750(r)
                                                    978(r),1748(r),326(r),360(r)
                                                    361(r),355(r),1783(r),328(r)
                                                    980(r)
   166. CR (   1) O  50                  0.99993   -18.96343  176(r),177(r),172(r),1692(v)
                                                    175(r),174(r),356(r)
   194. LP (   1) O  50                  0.99140    -0.32044  175(r),1687(v),176(r),177(r)
                                                    1693(v),171(r),355(r)
                                                    1783(r),354(r),327(r)
                                                    1185(r),483(r),359(r)
                                                    1188(r),486(r),353(r)
   195. LP (   2) O  50                  0.98086    -0.58393  176(r),177(r),174(r),175(r)
                                                    1688(v),1694(v),1693(v)
                                                    172(r),978(r),360(r),362(r)
                                                    1186(r),1767(r),353(r)
                                                    357(r),770(r),328(r),173(r)
                                                    771(r)
  1471. RY*(   1) O  50                  0.00121     0.73723   
  1472. RY*(   2) O  50                  0.00051     0.99423   
  1473. RY*(   3) O  50                  0.00024     1.26235   
  1474. RY*(   4) O  50                  0.00010     1.22978   
  1475. RY*(   5) O  50                  0.00002     2.28683   
  1476. RY*(   6) O  50                  0.00001     3.47331   
  1477. RY*(   7) O  50                  0.00000     2.94931   
  1478. RY*(   8) O  50                  0.00001     4.90996   
  1479. RY*(   9) O  50                  0.00001     2.52893   
  1480. RY*(  10) O  50                  0.00000     3.31290   
  1481. RY*(  11) O  50                  0.00000     6.30825   
  1482. RY*(  12) O  50                  0.00001     2.51666   
  1483. RY*(  13) O  50                  0.00000     6.56054   
  1484. RY*(  14) O  50                  0.00000    42.81162   
  1485. RY*(  15) O  50                  0.00000     6.51983   
  1486. RY*(  16) O  50                  0.00000     2.17916   
  1487. RY*(  17) O  50                  0.00000     6.37507   
  1488. RY*(  18) O  50                  0.00000     2.56934   
  1489. RY*(  19) O  50                  0.00000     6.63917   
  1490. RY*(  20) O  50                  0.00000     5.49779   
  1491. RY*(  21) O  50                  0.00000     5.65890   
  1492. RY*(  22) O  50                  0.00000     5.49989   
  1493. RY*(  23) O  50                  0.00000     5.59506   
  1494. RY*(  24) O  50                  0.00000     5.43462   
  1495. RY*(  25) O  50                  0.00000     5.31266   
  1496. RY*(  26) O  50                  0.00000     5.25443   
  1687. RY*(   1) H  89                  0.00063     2.02194   
  1688. RY*(   2) H  89                  0.00035     1.71473   
  1689. RY*(   3) H  89                  0.00021     2.27825   
  1690. RY*(   4) H  89                  0.00010     1.19939   
  1691. RY*(   5) H  89                  0.00000     2.95633   
  1692. RY*(   1) H  90                  0.00147     2.57181   
  1693. RY*(   2) H  90                  0.00072     2.42371   
  1694. RY*(   3) H  90                  0.00069     2.66996   
  1695. RY*(   4) H  90                  0.00023     2.53864   
  1696. RY*(   5) H  90                  0.00005     3.72579   
  1803. BD*(   1) O  50 - H  89          0.00143     0.47931   
  1804. BD*(   1) O  50 - H  90          0.02007     0.49011   
       -------------------------------
              Total Lewis    4.88475  ( 99.4285%)
        Valence non-Lewis    0.02150  (  0.4377%)
        Rydberg non-Lewis    0.00658  (  0.1339%)
       -------------------------------
            Total unit  4    4.91283  (100.0000%)
           Charge unit  4    0.08717
 1\1\GINC-NODE660\SP\UPBE1PBE\def2TZVP\C38H40Fe1N6O5(5)\ZHARTOVSKA\05-D
 ec-2022\0\\# PBE1PBE/def2TZVP empiricaldispersion=GD3BJ int=(grid=ultr
 afine) geom=check pop=nbo guess=read\\1jp9_II_Q\\0,5\C,0,9.522,29.638,
 2.62\C,0,10.701,29.479,3.525\N,0,10.928,30.315001,4.596\C,0,11.748,28.
 622,3.487\C,0,12.066,29.983,5.177\N,0,12.584,28.959,4.524\Fe,0,14.627,
 28.121,4.795\C,0,15.882,31.27,5.037\C,0,13.895,28.174999,8.147\C,0,13.
 451,24.923,4.61\C,0,15.452,28.044001,1.547\N,0,14.83,29.443001,6.281\C
 ,0,15.369,30.707001,6.203\C,0,15.333,31.365999,7.516\C,0,14.77,30.465,
 8.37\C,0,14.467,29.298,7.619\C,0,14.5,30.634001,9.847\C,0,15.824,32.73
 8998,7.794\C,0,14.651,33.764999,7.933\C,0,13.796,33.793999,6.697\O,0,1
 4.247,34.201,5.615\O,0,12.599,33.380001,6.81\N,0,13.821,26.812,6.079\C
 ,0,13.594,27.017,7.439\C,0,12.987,25.812,8.025\C,0,12.861,24.917999,7.
 054\C,0,13.387,25.547001,5.855\C,0,12.617,25.700001,9.478\C,0,12.304,2
 3.518,7.133\C,0,12.6540801,22.70642624,8.16030667\N,0,14.473,26.757999
 ,3.339\C,0,13.959,25.471001,3.438\C,0,14.045,24.795,2.175\C,0,14.614,2
 5.679001,1.327\C,0,14.865,26.896,2.065\C,0,13.587,23.384001,1.94\C,0,1
 4.988,25.563999,-0.121\C,0,14.75710306,24.40873409,-0.79078849\N,0,15.
 491,29.417,3.511\C,0,15.748,29.212,2.197\C,0,16.368999,30.343,1.609\C,
 0,16.5,31.271999,2.617\C,0,15.943,30.679001,3.806\C,0,16.795,30.461,0.
 175\C,0,17.118,32.632999,2.493\C,0,18.642,32.530998,2.813\C,0,19.36599
 9,33.835999,2.726\O,0,19.007,34.765999,1.962\O,0,20.375999,33.960999,3
 .469\O,0,16.577,27.254999,5.015\H,0,12.42773767,32.46873619,7.05872807
 \H,0,15.05783496,34.74052909,8.09951234\H,0,14.04467787,33.49123506,8.
 77104939\H,0,16.46300377,33.04820937,6.99339865\H,0,16.38663965,32.729
 14598,8.70407668\H,0,19.66649899,35.30504101,1.51917409\H,0,18.7569704
 5,32.14291317,3.80349077\H,0,19.08986648,31.84622738,2.12350394\H,0,16
 .98497857,32.9972961,1.49575734\H,0,16.65086745,33.30285626,3.18435984
 \H,0,17.73396066,29.96600286,0.03997886\H,0,16.05854743,30.00668329,-0
 .45439172\H,0,16.89625405,31.49445434,-0.08310801\H,0,15.29585509,31.1
 9277466,10.29341536\H,0,13.576676,31.15727991,9.98320567\H,0,14.436265
 55,29.67162828,10.31033213\H,0,16.26716287,32.2654204,5.11241742\H,0,1
 3.6594945,28.18790866,9.19068122\H,0,15.70486129,28.01094827,0.5078327
 \H,0,13.07184509,23.92417932,4.55084936\H,0,13.37601483,26.15982111,10
 .07579758\H,0,11.68244467,26.19286683,9.64708466\H,0,12.52922975,24.66
 76109,9.74514615\H,0,11.63258535,23.16594001,6.37791316\H,0,13.6199893
 6,22.80021075,8.6109992\H,0,11.96457782,21.97186115,8.52072414\H,0,14.
 31028302,22.70328447,2.33797824\H,0,12.64619789,23.22885584,2.42551145
 \H,0,13.47824045,23.21466873,0.88909661\H,0,15.43710319,26.39410167,-0
 .62511891\H,0,15.50942398,23.64848343,-0.82132006\H,0,13.82247793,24.2
 5684461,-1.28909107\H,0,12.49555452,30.46228499,6.03179168\H,0,10.3249
 6967,31.05742484,4.88782402\H,0,11.8966582,27.83092054,2.78202196\H,0,
 9.77772733,29.29838558,1.63808067\H,0,8.70363214,29.05990456,2.9954726
 5\H,0,9.24067974,30.66952645,2.57862267\H,0,17.42833133,27.69865988,5.
 015\H,0,15.87493541,27.90975491,5.015\\Version=ES64L-G16RevA.03\State=
 5-A\HF=-3438.5399542\S2=6.086238\S2-1=0.\S2A=6.002073\RMSD=1.228e-09\D
 ipole=-2.2820171,0.3544951,-0.1622066\Quadrupole=-5.1551021,-13.549139
 7,18.7042418,-2.6240651,-9.9571378,1.3413787\PG=C01 [X(C38H40Fe1N6O5)]
 \\@


 WHEN HAVING A MEETING OF THE MINDS,
 MAKE SURE YOU HAVE THE EQUIPMENT FOR IT.
 Job cpu time:       0 days  2 hours 29 minutes 49.3 seconds.
 Elapsed time:       0 days  0 hours 37 minutes 34.7 seconds.
 File lengths (MBytes):  RWF=   2965 Int=      0 D2E=      0 Chk=    250 Scr=      1
 Normal termination of Gaussian 16 at Mon Dec  5 12:46:50 2022.
