 Entering Gaussian System, Link 0=g16
 Input=/net/homes/chemie/zhartovska/work/BioModel/Konrad/451c/451c05/451c05.com
 Output=/net/homes/chemie/zhartovska/work/BioModel/Konrad/451c/451c05/451c05.log
 Initial command:
 /afs/math/software/gaussian/g16.A03/g16/l1.exe "/scratch/zhartovska_gaussian.gj1ILwS/Gau-14524.inp" -scrdir="/scratch/zhartovska_gaussian.gj1ILwS/"
 Entering Link 1 = /afs/math/software/gaussian/g16.A03/g16/l1.exe PID=     14525.
  
 Copyright (c) 1988,1990,1992,1993,1995,1998,2003,2009,2016,
            Gaussian, Inc.  All Rights Reserved.
  
 This is part of the Gaussian(R) 16 program.  It is based on
 the Gaussian(R) 09 system (copyright 2009, Gaussian, Inc.),
 the Gaussian(R) 03 system (copyright 2003, Gaussian, Inc.),
 the Gaussian(R) 98 system (copyright 1998, Gaussian, Inc.),
 the Gaussian(R) 94 system (copyright 1995, Gaussian, Inc.),
 the Gaussian 92(TM) system (copyright 1992, Gaussian, Inc.),
 the Gaussian 90(TM) system (copyright 1990, Gaussian, Inc.),
 the Gaussian 88(TM) system (copyright 1988, Gaussian, Inc.),
 the Gaussian 86(TM) system (copyright 1986, Carnegie Mellon
 University), and the Gaussian 82(TM) system (copyright 1983,
 Carnegie Mellon University). Gaussian is a federally registered
 trademark of Gaussian, Inc.
  
 This software contains proprietary and confidential information,
 including trade secrets, belonging to Gaussian, Inc.
  
 This software is provided under written license and may be
 used, copied, transmitted, or stored only in accord with that
 written license.
  
 The following legend is applicable only to US Government
 contracts under FAR:
  
                    RESTRICTED RIGHTS LEGEND
  
 Use, reproduction and disclosure by the US Government is
 subject to restrictions as set forth in subparagraphs (a)
 and (c) of the Commercial Computer Software - Restricted
 Rights clause in FAR 52.227-19.
  
 Gaussian, Inc.
 340 Quinnipiac St., Bldg. 40, Wallingford CT 06492
  
  
 ---------------------------------------------------------------
 Warning -- This program may not be used in any manner that
 competes with the business of Gaussian, Inc. or will provide
 assistance to any competitor of Gaussian, Inc.  The licensee
 of this program is prohibited from giving any competitor of
 Gaussian, Inc. access to this program.  By using this program,
 the user acknowledges that Gaussian, Inc. is engaged in the
 business of creating and licensing software in the field of
 computational chemistry and represents and warrants to the
 licensee that it is not a competitor of Gaussian, Inc. and that
 it will not use this program in any manner prohibited above.
 ---------------------------------------------------------------
  

 Cite this work as:
 Gaussian 16, Revision A.03,
 M. J. Frisch, G. W. Trucks, H. B. Schlegel, G. E. Scuseria, 
 M. A. Robb, J. R. Cheeseman, G. Scalmani, V. Barone, 
 G. A. Petersson, H. Nakatsuji, X. Li, M. Caricato, A. V. Marenich, 
 J. Bloino, B. G. Janesko, R. Gomperts, B. Mennucci, H. P. Hratchian, 
 J. V. Ortiz, A. F. Izmaylov, J. L. Sonnenberg, D. Williams-Young, 
 F. Ding, F. Lipparini, F. Egidi, J. Goings, B. Peng, A. Petrone, 
 T. Henderson, D. Ranasinghe, V. G. Zakrzewski, J. Gao, N. Rega, 
 G. Zheng, W. Liang, M. Hada, M. Ehara, K. Toyota, R. Fukuda, 
 J. Hasegawa, M. Ishida, T. Nakajima, Y. Honda, O. Kitao, H. Nakai, 
 T. Vreven, K. Throssell, J. A. Montgomery, Jr., J. E. Peralta, 
 F. Ogliaro, M. J. Bearpark, J. J. Heyd, E. N. Brothers, K. N. Kudin, 
 V. N. Staroverov, T. A. Keith, R. Kobayashi, J. Normand, 
 K. Raghavachari, A. P. Rendell, J. C. Burant, S. S. Iyengar, 
 J. Tomasi, M. Cossi, J. M. Millam, M. Klene, C. Adamo, R. Cammi, 
 J. W. Ochterski, R. L. Martin, K. Morokuma, O. Farkas, 
 J. B. Foresman, and D. J. Fox, Gaussian, Inc., Wallingford CT, 2016.
 
 ******************************************
 Gaussian 16:  ES64L-G16RevA.03 25-Dec-2016
                 7-Feb-2023 
 ******************************************
 %nprocs=12
 Will use up to   12 processors via shared memory.
 %mem=16GB
 %oldchk=451c_II_S.chk
 %chk=451c_II_Q.chk
 Copying data from "451c_II_S.chk" to current chk file "451c_II_Q.chk"
 IOpt=  2 FromEx=T IUOpen= 4 IOptOp= 5 NList=   0 IFRang= 0 IUIn= 4 IUOut= 2.
 ----------------------------------------------------------------------
 # PBE1PBE/def2TZVP empiricaldispersion=GD3BJ scf=maxcycle=999 geom=che
 ck pop=nbo
 ----------------------------------------------------------------------
 1/29=2,38=1,172=1/1;
 2/12=2,40=1/2;
 3/5=44,7=101,11=2,14=-4,25=1,30=1,74=-13,124=41/1,2,3;
 4//1;
 5/5=2,7=999,38=5/2;
 6/7=2,8=2,9=2,10=2,28=1,40=1/1,7;
 99/5=1,9=1/99;
 ---------
 451c_II_Q
 ---------
 Structure from the checkpoint file:  "451c_II_Q.chk"
 Charge =  0 Multiplicity = 5
 Z-Matrix found in chk file.
 C,0,10.502,-8.068,15.869
 C,0,10.644,-9.486,16.396999
 N,0,11.619,-10.33,15.982
 C,0,9.793,-10.187,17.233
 C,0,11.389,-11.544,16.547001
 N,0,10.269,-11.46,17.323999
 C,0,9.895,-15.821,21.142
 C,0,8.597,-15.027,20.951
 S,0,8.145,-14.71,19.221001
 C,0,8.329,-16.290001,18.364
 C,0,11.705,-15.239,17.132999
 C,0,7.601,-13.454,15.352
 C,0,6.884,-11.032,19.466
 C,0,11.276,-12.321,20.959999
 C,0,10.634,-14.991,16.299
 C,0,10.451,-15.547,15.05
 C,0,9.297,-14.993,14.516
 C,0,8.779,-14.157,15.475
 C,0,8.679,-15.258,13.158
 C,0,11.329,-16.591,14.424
 C,0,10.903,-17.937,14.962
 C,0,11.76,-19.039,14.369
 O,0,12.509,-18.781,13.431
 O,0,11.265,-20.229,14.446
 C,0,7.048,-12.619,16.299999
 C,0,5.816,-11.979,16.18
 C,0,5.558,-11.35,17.403
 C,0,6.695,-11.546,18.198999
 C,0,4.912,-12.026,14.967
 C,0,4.299,-10.621,17.829
 C,0,3.091,-11.541,17.981001
 C,0,8.016,-11.19,20.250999
 C,0,8.243,-10.559,21.468
 C,0,9.57,-10.805,21.808001
 C,0,10.044,-11.718,20.896999
 C,0,7.266,-9.649,22.190001
 C,0,10.391,-10.166,22.92
 C,0,9.85,-10.474,24.312
 C,0,11.754,-13.25,20.069
 C,0,12.959,-13.93,20.212
 C,0,13.04,-14.833,19.16
 C,0,11.929,-14.616,18.347
 C,0,13.966,-13.748,21.33
 C,0,14.127,-15.851,18.915001
 C,0,13.727,-17.250999,19.351999
 C,0,14.825,-18.245001,18.978001
 O,0,14.505,-19.417999,18.767
 O,0,16.094999,-17.969999,19.198999
 N,0,9.61,-14.148,16.551001
 N,0,7.581,-12.332,17.521
 N,0,9.124,-11.898,19.917
 N,0,11.12,-13.676,18.927999
 Fe,0,9.397,-12.981,18.23
 H,0,9.23443055,-16.76417537,18.68062943
 H,0,7.4962115,-16.9205846,18.59579223
 H,0,8.36532102,-16.12090472,17.30807044
 H,0,10.66213132,-15.16873672,21.50388693
 H,0,9.73164255,-16.60665613,21.84978442
 H,0,10.19688693,-16.24160921,20.20559615
 H,0,7.79908784,-15.56925158,21.41381682
 H,0,8.70098794,-14.0861734,21.44993067
 H,0,7.70503554,-8.68113452,22.3140341
 H,0,6.36781518,-9.56218931,21.61499845
 H,0,7.03642536,-10.06218306,23.14993602
 H,0,6.08208089,-10.45802097,19.88117926
 H,0,5.39967071,-12.56130365,14.17926446
 H,0,3.99827207,-12.52089681,15.22210472
 H,0,4.69897139,-11.02902635,14.6420964
 H,0,7.06380432,-13.56644227,14.43348079
 H,0,9.33123925,-15.88367787,12.58527741
 H,0,7.7358462,-15.74719698,13.28467761
 H,0,8.53354272,-14.33024252,12.64515671
 H,0,12.35129376,-16.40557373,14.67979791
 H,0,11.21231458,-16.57240396,13.36054398
 H,0,11.00868497,-17.94146342,16.02675855
 H,0,9.87826077,-18.11085632,14.7078672
 H,0,11.84883582,-20.98946987,14.49520687
 H,0,15.18347621,-20.08643921,18.64675977
 H,0,13.581641,-17.26438732,20.411995
 H,0,12.81561389,-17.52844571,18.86486588
 H,0,15.00273178,-15.55772414,19.45535562
 H,0,14.35511447,-15.86762966,17.86973202
 H,0,14.85590986,-13.30058808,20.93912532
 H,0,13.55003991,-13.11405414,22.08497672
 H,0,14.20297489,-14.70086891,21.75518671
 H,0,12.41809323,-15.9707945,16.81539099
 H,0,11.91684595,-12.04392394,21.77082902
 H,0,3.23371846,-12.58725552,18.15386174
 H,0,2.10127342,-11.13981689,17.91471814
 H,0,4.26112046,-9.56634418,18.00553962
 H,0,10.52655614,-10.65308743,25.12138216
 H,0,8.79382302,-10.51103682,24.47938717
 H,0,11.25738165,-9.56354509,22.74299457
 H,0,11.33850395,-7.8347268,15.2439042
 H,0,9.59884518,-7.98772513,15.30087385
 H,0,10.46867457,-7.38319317,16.69047978
 H,0,8.92146944,-9.80030693,17.71859546
 H,0,12.37438377,-10.10014517,15.36835343
 H,0,11.98632049,-12.42056651,16.40650409
 Recover connectivity data from disk.
 Stoichiometry    C41H46FeN6O4S(5)
 Framework group  C1[X(C41H46FeN6O4S)]
 Deg. of freedom   291
 Full point group                 C1      NOp   1
 Largest Abelian subgroup         C1      NOp   1
 Largest concise Abelian subgroup C1      NOp   1
                         Standard orientation:                         
 ---------------------------------------------------------------------
 Center     Atomic      Atomic             Coordinates (Angstroms)
 Number     Number       Type             X           Y           Z
 ---------------------------------------------------------------------
      1          6           0        3.393295   -0.854867    4.988401
      2          6           0        2.363275   -0.508978    3.925814
      3          7           0        1.034173   -0.453374    4.181899
      4          6           0        2.548730   -0.333957    2.565861
      5          6           0        0.390107   -0.245561    3.003801
      6          7           0        1.318737   -0.164601    2.005665
      7          6           0       -0.804237    2.327292   -2.792125
      8          6           0        0.522934    1.585453   -2.992157
      9         16           0        0.588841   -0.071685   -2.252399
     10          6           0       -0.945281   -0.892485   -2.739703
     11          6           0       -2.464636   -0.039004    0.573976
     12          6           0        0.876162   -3.466805    0.035230
     13          6           0        4.205148   -0.072686   -0.803207
     14          6           0        0.997857    3.324169    0.362075
     15          6           0       -1.853709   -1.271821    0.468959
     16          6           0       -2.489721   -2.489576    0.592193
     17          6           0       -1.519140   -3.475070    0.489427
     18          6           0       -0.327823   -2.833874    0.251662
     19          6           0       -1.702937   -4.976351    0.582639
     20          6           0       -3.967911   -2.687218    0.761274
     21          6           0       -4.603178   -2.620754   -0.607907
     22          6           0       -6.104652   -2.808629   -0.504068
     23          8           0       -6.593533   -3.177315    0.560110
     24          8           0       -6.698363   -3.148107   -1.599201
     25          6           0        2.084675   -2.853297   -0.219407
     26          6           0        3.273456   -3.519626   -0.510320
     27          6           0        4.220326   -2.545216   -0.844828
     28          6           0        3.600102   -1.303616   -0.648485
     29          6           0        3.462952   -5.021208   -0.521973
     30          6           0        5.633203   -2.753981   -1.352955
     31          6           0        5.688020   -3.369498   -2.748270
     32          6           0        3.614044    1.161679   -0.580603
     33          6           0        4.272903    2.384609   -0.614192
     34          6           0        3.384640    3.334519   -0.118506
     35          6           0        2.173060    2.701405    0.020806
     36          6           0        5.732350    2.595123   -0.974208
     37          6           0        3.669916    4.780095    0.265985
     38          6           0        4.113733    5.634418   -0.916541
     39          6           0       -0.223163    2.708062    0.484248
     40          6           0       -1.420507    3.374793    0.722392
     41          6           0       -2.427300    2.418638    0.693964
     42          6           0       -1.810867    1.178847    0.534883
     43          6           0       -1.592616    4.866560    0.927591
     44          6           0       -3.911939    2.654871    0.827976
     45          6           0       -4.629756    2.643062   -0.512010
     46          6           0       -6.135750    2.779124   -0.295250
     47          8           0       -6.894364    2.290104   -1.136802
     48          8           0       -6.623440    3.662712    0.552568
     49          7           0       -0.538125   -1.490692    0.259041
     50          7           0        2.300544   -1.509329   -0.286124
     51          7           0        2.330468    1.371782   -0.194892
     52          7           0       -0.464508    1.361805    0.363168
     53         26           0        0.909356   -0.042011    0.078999
     54          1           0       -1.763205   -0.210477   -2.635950
     55          1           0       -0.872090   -1.209195   -3.759133
     56          1           0       -1.109041   -1.743854   -2.112604
     57          1           0       -0.669468    3.113354   -2.078793
     58          1           0       -1.124585    2.742921   -3.724610
     59          1           0       -1.544673    1.643206   -2.433402
     60          1           0        0.702093    1.492746   -4.042969
     61          1           0        1.306711    2.176152   -2.565931
     62          1           0        6.241528    3.047782   -0.149139
     63          1           0        6.184250    1.651374   -1.197867
     64          1           0        5.800092    3.234614   -1.829405
     65          1           0        5.225619   -0.070834   -1.124974
     66          1           0        2.562912   -5.496855   -0.192445
     67          1           0        3.693658   -5.343888   -1.515729
     68          1           0        4.266252   -5.284430    0.134018
     69          1           0        0.873560   -4.536307    0.067760
     70          1           0       -2.714403   -5.195672    0.854182
     71          1           0       -1.483388   -5.422079   -0.365002
     72          1           0       -1.040800   -5.371360    1.324557
     73          1           0       -4.367881   -1.914633    1.384200
     74          1           0       -4.157510   -3.643312    1.202677
     75          1           0       -4.395937   -1.667575   -1.047679
     76          1           0       -4.192507   -3.391793   -1.225764
     77          1           0       -7.612299   -2.894853   -1.748141
     78          1           0       -7.837832    2.461083   -1.089534
     79          1           0       -4.281471    3.459997   -1.108848
     80          1           0       -4.425214    1.721909   -1.016530
     81          1           0       -4.069573    3.604252    1.295657
     82          1           0       -4.328473    1.889910    1.449455
     83          1           0       -1.880250    5.056404    1.940570
     84          1           0       -0.668352    5.364114    0.720043
     85          1           0       -2.350754    5.232324    0.267027
     86          1           0       -3.527649   -0.024263    0.695167
     87          1           0        1.036798    4.377121    0.548292
     88          1           0        4.849851   -3.277349   -3.406967
     89          1           0        6.564623   -3.893226   -3.067919
     90          1           0        6.505240   -2.495488   -0.789365
     91          1           0        3.783256    6.648875   -0.997553
     92          1           0        4.755637    5.219442   -1.665309
     93          1           0        3.569396    5.157137    1.262295
     94          1           0        2.913945   -0.916826    5.943013
     95          1           0        3.844928   -1.796211    4.754308
     96          1           0        4.146208   -0.095090    5.016005
     97          1           0        3.485807   -0.332006    2.049349
     98          1           0        0.603325   -0.548463    5.079300
     99          1           0       -0.669075   -0.159584    2.878737
 ---------------------------------------------------------------------
 Rotational constants (GHZ):           0.0685786           0.0444421           0.0343044
 Standard basis: def2TZVP (5D, 7F)
 There are  2206 symmetry adapted cartesian basis functions of A   symmetry.
 There are  1939 symmetry adapted basis functions of A   symmetry.
  1939 basis functions,  3140 primitive gaussians,  2206 cartesian basis functions
   206 alpha electrons      202 beta electrons
       nuclear repulsion energy      8941.1845041630 Hartrees.
 NAtoms=   99 NActive=   99 NUniq=   99 SFac= 1.00D+00 NAtFMM=   60 NAOKFM=T Big=T
 Integral buffers will be    131072 words long.
 Raffenetti 2 integral format.
 Two-electron integral symmetry is turned on.
 Nuclear repulsion after empirical dispersion term =     8941.0342898896 Hartrees.
 One-electron integrals computed using PRISM.
   1 Symmetry operations used in ECPInt.
 ECPInt:  NShTT=  299151 NPrTT=  925475 LenC2=  220991 LenP2D=  442747.
 LDataN:  DoStor=T MaxTD1= 6 Len=  172
 NBasis=  1939 RedAO= T EigKep=  2.33D-06  NBF=  1939
 NBsUse=  1939 1.00D-06 EigRej= -1.00D+00 NBFU=  1939
 ExpMin= 4.20D-02 ExpMax= 3.01D+05 ExpMxC= 2.91D+03 IAcc=3 IRadAn=         5 AccDes= 0.00D+00
 Harris functional with IExCor= 1009 and IRadAn=       5 diagonalized for initial guess.
 HarFok:  IExCor= 1009 AccDes= 0.00D+00 IRadAn=         5 IDoV= 1 UseB2=F ITyADJ=14
 ICtDFT=  3500011 ScaDFX=  1.000000  1.000000  1.000000  1.000000
 FoFCou: FMM=F IPFlag=           0 FMFlag=      100000 FMFlg1=        2001
         NFxFlg=           0 DoJE=T BraDBF=F KetDBF=T FulRan=T
         wScrn=  0.000000 ICntrl=       500 IOpCl=  0 I1Cent=   200000004 NGrid=           0
         NMat0=    1 NMatS0=      1 NMatT0=    0 NMatD0=    1 NMtDS0=    0 NMtDT0=    0
 Petite list used in FoFCou.
 Initial guess <Sx>= 0.0000 <Sy>= 0.0000 <Sz>= 2.0000 <S**2>= 6.0000 S= 2.0000
 Requested convergence on RMS density matrix=1.00D-08 within 999 cycles.
 Requested convergence on MAX density matrix=1.00D-06.
 Requested convergence on             energy=1.00D-06.
 No special actions if energy rises.
 EnCoef did     7 forward-backward iterations
 EnCoef did   100 forward-backward iterations
 EnCoef did     6 forward-backward iterations
 EnCoef did   100 forward-backward iterations
 EnCoef did    12 forward-backward iterations
 EnCoef did     3 forward-backward iterations
 Restarting incremental Fock formation.
 Restarting incremental Fock formation.
 Restarting incremental Fock formation.
 SCF Done:  E(UPBE1PBE) =  -3879.30396124     A.U. after   70 cycles
            NFock= 70  Conv=0.21D-08     -V/T= 2.0030
 <Sx>= 0.0000 <Sy>= 0.0000 <Sz>= 2.0000 <S**2>= 6.0897 S= 2.0179
 <L.S>= 0.000000000000E+00
 Annihilation of the first spin contaminant:
 S**2 before annihilation     6.0897,   after     6.0026

 **********************************************************************

            Population analysis using the SCF density.

 **********************************************************************

 Orbital symmetries:
 Alpha Orbitals:
       Occupied  (A) (A) (A) (A) (A) (A) (A) (A) (A) (A) (A) (A)
                 (A) (A) (A) (A) (A) (A) (A) (A) (A) (A) (A) (A)
                 (A) (A) (A) (A) (A) (A) (A) (A) (A) (A) (A) (A)
                 (A) (A) (A) (A) (A) (A) (A) (A) (A) (A) (A) (A)
                 (A) (A) (A) (A) (A) (A) (A) (A) (A) (A) (A) (A)
                 (A) (A) (A) (A) (A) (A) (A) (A) (A) (A) (A) (A)
                 (A) (A) (A) (A) (A) (A) (A) (A) (A) (A) (A) (A)
                 (A) (A) (A) (A) (A) (A) (A) (A) (A) (A) (A) (A)
                 (A) (A) (A) (A) (A) (A) (A) (A) (A) (A) (A) (A)
                 (A) (A) (A) (A) (A) (A) (A) (A) (A) (A) (A) (A)
                 (A) (A) (A) (A) (A) (A) (A) (A) (A) (A) (A) (A)
                 (A) (A) (A) (A) (A) (A) (A) (A) (A) (A) (A) (A)
                 (A) (A) (A) (A) (A) (A) (A) (A) (A) (A) (A) (A)
                 (A) (A) (A) (A) (A) (A) (A) (A) (A) (A) (A) (A)
                 (A) (A) (A) (A) (A) (A) (A) (A) (A) (A) (A) (A)
                 (A) (A) (A) (A) (A) (A) (A) (A) (A) (A) (A) (A)
                 (A) (A) (A) (A) (A) (A) (A) (A) (A) (A) (A) (A)
                 (A) (A)
       Virtual   (A) (A) (A) (A) (A) (A) (A) (A) (A) (A) (A) (A)
                 (A) (A) (A) (A) (A) (A) (A) (A) (A) (A) (A) (A)
                 (A) (A) (A) (A) (A) (A) (A) (A) (A) (A) (A) (A)
                 (A) (A) (A) (A) (A) (A) (A) (A) (A) (A) (A) (A)
                 (A) (A) (A) (A) (A) (A) (A) (A) (A) (A) (A) (A)
                 (A) (A) (A) (A) (A) (A) (A) (A) (A) (A) (A) (A)
                 (A) (A) (A) (A) (A) (A) (A) (A) (A) (A) (A) (A)
                 (A) (A) (A) (A) (A) (A) (A) (A) (A) (A) (A) (A)
                 (A) (A) (A) (A) (A) (A) (A) (A) (A) (A) (A) (A)
                 (A) (A) (A) (A) (A) (A) (A) (A) (A) (A) (A) (A)
                 (A) (A) (A) (A) (A) (A) (A) (A) (A) (A) (A) (A)
                 (A) (A) (A) (A) (A) (A) (A) (A) (A) (A) (A) (A)
                 (A) (A) (A) (A) (A) (A) (A) (A) (A) (A) (A) (A)
                 (A) (A) (A) (A) (A) (A) (A) (A) (A) (A) (A) (A)
                 (A) (A) (A) (A) (A) (A) (A) (A) (A) (A) (A) (A)
                 (A) (A) (A) (A) (A) (A) (A) (A) (A) (A) (A) (A)
                 (A) (A) (A) (A) (A) (A) (A) (A) (A) (A) (A) (A)
                 (A) (A) (A) (A) (A) (A) (A) (A) (A) (A) (A) (A)
                 (A) (A) (A) (A) (A) (A) (A) (A) (A) (A) (A) (A)
                 (A) (A) (A) (A) (A) (A) (A) (A) (A) (A) (A) (A)
                 (A) (A) (A) (A) (A) (A) (A) (A) (A) (A) (A) (A)
                 (A) (A) (A) (A) (A) (A) (A) (A) (A) (A) (A) (A)
                 (A) (A) (A) (A) (A) (A) (A) (A) (A) (A) (A) (A)
                 (A) (A) (A) (A) (A) (A) (A) (A) (A) (A) (A) (A)
                 (A) (A) (A) (A) (A) (A) (A) (A) (A) (A) (A) (A)
                 (A) (A) (A) (A) (A) (A) (A) (A) (A) (A) (A) (A)
                 (A) (A) (A) (A) (A) (A) (A) (A) (A) (A) (A) (A)
                 (A) (A) (A) (A) (A) (A) (A) (A) (A) (A) (A) (A)
                 (A) (A) (A) (A) (A) (A) (A) (A) (A) (A) (A) (A)
                 (A) (A) (A) (A) (A) (A) (A) (A) (A) (A) (A) (A)
                 (A) (A) (A) (A) (A) (A) (A) (A) (A) (A) (A) (A)
                 (A) (A) (A) (A) (A) (A) (A) (A) (A) (A) (A) (A)
                 (A) (A) (A) (A) (A) (A) (A) (A) (A) (A) (A) (A)
                 (A) (A) (A) (A) (A) (A) (A) (A) (A) (A) (A) (A)
                 (A) (A) (A) (A) (A) (A) (A) (A) (A) (A) (A) (A)
                 (A) (A) (A) (A) (A) (A) (A) (A) (A) (A) (A) (A)
                 (A) (A) (A) (A) (A) (A) (A) (A) (A) (A) (A) (A)
                 (A) (A) (A) (A) (A) (A) (A) (A) (A) (A) (A) (A)
                 (A) (A) (A) (A) (A) (A) (A) (A) (A) (A) (A) (A)
                 (A) (A) (A) (A) (A) (A) (A) (A) (A) (A) (A) (A)
                 (A) (A) (A) (A) (A) (A) (A) (A) (A) (A) (A) (A)
                 (A) (A) (A) (A) (A) (A) (A) (A) (A) (A) (A) (A)
                 (A) (A) (A) (A) (A) (A) (A) (A) (A) (A) (A) (A)
                 (A) (A) (A) (A) (A) (A) (A) (A) (A) (A) (A) (A)
                 (A) (A) (A) (A) (A) (A) (A) (A) (A) (A) (A) (A)
                 (A) (A) (A) (A) (A) (A) (A) (A) (A) (A) (A) (A)
                 (A) (A) (A) (A) (A) (A) (A) (A) (A) (A) (A) (A)
                 (A) (A) (A) (A) (A) (A) (A) (A) (A) (A) (A) (A)
                 (A) (A) (A) (A) (A) (A) (A) (A) (A) (A) (A) (A)
                 (A) (A) (A) (A) (A) (A) (A) (A) (A) (A) (A) (A)
                 (A) (A) (A) (A) (A) (A) (A) (A) (A) (A) (A) (A)
                 (A) (A) (A) (A) (A) (A) (A) (A) (A) (A) (A) (A)
                 (A) (A) (A) (A) (A) (A) (A) (A) (A) (A) (A) (A)
                 (A) (A) (A) (A) (A) (A) (A) (A) (A) (A) (A) (A)
                 (A) (A) (A) (A) (A) (A) (A) (A) (A) (A) (A) (A)
                 (A) (A) (A) (A) (A) (A) (A) (A) (A) (A) (A) (A)
                 (A) (A) (A) (A) (A) (A) (A) (A) (A) (A) (A) (A)
                 (A) (A) (A) (A) (A) (A) (A) (A) (A) (A) (A) (A)
                 (A) (A) (A) (A) (A) (A) (A) (A) (A) (A) (A) (A)
                 (A) (A) (A) (A) (A) (A) (A) (A) (A) (A) (A) (A)
                 (A) (A) (A) (A) (A) (A) (A) (A) (A) (A) (A) (A)
                 (A) (A) (A) (A) (A) (A) (A) (A) (A) (A) (A) (A)
                 (A) (A) (A) (A) (A) (A) (A) (A) (A) (A) (A) (A)
                 (A) (A) (A) (A) (A) (A) (A) (A) (A) (A) (A) (A)
                 (A) (A) (A) (A) (A) (A) (A) (A) (A) (A) (A) (A)
                 (A) (A) (A) (A) (A) (A) (A) (A) (A) (A) (A) (A)
                 (A) (A) (A) (A) (A) (A) (A) (A) (A) (A) (A) (A)
                 (A) (A) (A) (A) (A) (A) (A) (A) (A) (A) (A) (A)
                 (A) (A) (A) (A) (A) (A) (A) (A) (A) (A) (A) (A)
                 (A) (A) (A) (A) (A) (A) (A) (A) (A) (A) (A) (A)
                 (A) (A) (A) (A) (A) (A) (A) (A) (A) (A) (A) (A)
                 (A) (A) (A) (A) (A) (A) (A) (A) (A) (A) (A) (A)
                 (A) (A) (A) (A) (A) (A) (A) (A) (A) (A) (A) (A)
                 (A) (A) (A) (A) (A) (A) (A) (A) (A) (A) (A) (A)
                 (A) (A) (A) (A) (A) (A) (A) (A) (A) (A) (A) (A)
                 (A) (A) (A) (A) (A) (A) (A) (A) (A) (A) (A) (A)
                 (A) (A) (A) (A) (A) (A) (A) (A) (A) (A) (A) (A)
                 (A) (A) (A) (A) (A) (A) (A) (A) (A) (A) (A) (A)
                 (A) (A) (A) (A) (A) (A) (A) (A) (A) (A) (A) (A)
                 (A) (A) (A) (A) (A) (A) (A) (A) (A) (A) (A) (A)
                 (A) (A) (A) (A) (A) (A) (A) (A) (A) (A) (A) (A)
                 (A) (A) (A) (A) (A) (A) (A) (A) (A) (A) (A) (A)
                 (A) (A) (A) (A) (A) (A) (A) (A) (A) (A) (A) (A)
                 (A) (A) (A) (A) (A) (A) (A) (A) (A) (A) (A) (A)
                 (A) (A) (A) (A) (A) (A) (A) (A) (A) (A) (A) (A)
                 (A) (A) (A) (A) (A) (A) (A) (A) (A) (A) (A) (A)
                 (A) (A) (A) (A) (A) (A) (A) (A) (A) (A) (A) (A)
                 (A) (A) (A) (A) (A) (A) (A) (A) (A) (A) (A) (A)
                 (A) (A) (A) (A) (A) (A) (A) (A) (A) (A) (A) (A)
                 (A) (A) (A) (A) (A) (A) (A) (A) (A) (A) (A) (A)
                 (A) (A) (A) (A) (A) (A) (A) (A) (A) (A) (A) (A)
                 (A) (A) (A) (A) (A) (A) (A) (A) (A) (A) (A) (A)
                 (A) (A) (A) (A) (A) (A) (A) (A) (A) (A) (A) (A)
                 (A) (A) (A) (A) (A) (A) (A) (A) (A) (A) (A) (A)
                 (A) (A) (A) (A) (A) (A) (A) (A) (A) (A) (A) (A)
                 (A) (A) (A) (A) (A) (A) (A) (A) (A) (A) (A) (A)
                 (A) (A) (A) (A) (A) (A) (A) (A) (A) (A) (A) (A)
                 (A) (A) (A) (A) (A) (A) (A) (A) (A) (A) (A) (A)
                 (A) (A) (A) (A) (A) (A) (A) (A) (A) (A) (A) (A)
                 (A) (A) (A) (A) (A) (A) (A) (A) (A) (A) (A) (A)
                 (A) (A) (A) (A) (A) (A) (A) (A) (A) (A) (A) (A)
                 (A) (A) (A) (A) (A) (A) (A) (A) (A) (A) (A) (A)
                 (A) (A) (A) (A) (A) (A) (A) (A) (A) (A) (A) (A)
                 (A) (A) (A) (A) (A) (A) (A) (A) (A) (A) (A) (A)
                 (A) (A) (A) (A) (A) (A) (A) (A) (A) (A) (A) (A)
                 (A) (A) (A) (A) (A) (A) (A) (A) (A) (A) (A) (A)
                 (A) (A) (A) (A) (A) (A) (A) (A) (A) (A) (A) (A)
                 (A) (A) (A) (A) (A) (A) (A) (A) (A) (A) (A) (A)
                 (A) (A) (A) (A) (A) (A) (A) (A) (A) (A) (A) (A)
                 (A) (A) (A) (A) (A) (A) (A) (A) (A) (A) (A) (A)
                 (A) (A) (A) (A) (A) (A) (A) (A) (A) (A) (A) (A)
                 (A) (A) (A) (A) (A) (A) (A) (A) (A) (A) (A) (A)
                 (A) (A) (A) (A) (A) (A) (A) (A) (A) (A) (A) (A)
                 (A) (A) (A) (A) (A) (A) (A) (A) (A) (A) (A) (A)
                 (A) (A) (A) (A) (A) (A) (A) (A) (A) (A) (A) (A)
                 (A) (A) (A) (A) (A) (A) (A) (A) (A) (A) (A) (A)
                 (A) (A) (A) (A) (A) (A) (A) (A) (A) (A) (A) (A)
                 (A) (A) (A) (A) (A) (A) (A) (A) (A) (A) (A) (A)
                 (A) (A) (A) (A) (A) (A) (A) (A) (A) (A) (A) (A)
                 (A) (A) (A) (A) (A) (A) (A) (A) (A) (A) (A) (A)
                 (A) (A) (A) (A) (A) (A) (A) (A) (A) (A) (A) (A)
                 (A) (A) (A) (A) (A) (A) (A) (A) (A) (A) (A) (A)
                 (A) (A) (A) (A) (A) (A) (A) (A) (A) (A) (A) (A)
                 (A) (A) (A) (A) (A) (A) (A) (A) (A) (A) (A) (A)
                 (A) (A) (A) (A) (A) (A) (A) (A) (A) (A) (A) (A)
                 (A) (A) (A) (A) (A) (A) (A) (A) (A) (A) (A) (A)
                 (A) (A) (A) (A) (A) (A) (A) (A) (A) (A) (A) (A)
                 (A) (A) (A) (A) (A) (A) (A) (A) (A) (A) (A) (A)
                 (A) (A) (A) (A) (A) (A) (A) (A) (A) (A) (A) (A)
                 (A) (A) (A) (A) (A) (A) (A) (A) (A) (A) (A) (A)
                 (A) (A) (A) (A) (A) (A) (A) (A) (A) (A) (A) (A)
                 (A) (A) (A) (A) (A) (A) (A) (A) (A) (A) (A) (A)
                 (A) (A) (A) (A) (A) (A) (A) (A) (A) (A) (A) (A)
                 (A) (A) (A) (A) (A) (A) (A) (A) (A) (A) (A) (A)
                 (A) (A) (A) (A) (A) (A) (A) (A) (A) (A) (A) (A)
                 (A) (A) (A) (A) (A) (A) (A) (A) (A) (A) (A) (A)
                 (A) (A) (A) (A) (A) (A) (A) (A) (A) (A) (A) (A)
                 (A) (A) (A) (A) (A) (A) (A) (A) (A) (A) (A) (A)
                 (A) (A) (A) (A) (A) (A) (A) (A) (A) (A) (A) (A)
                 (A) (A) (A) (A) (A) (A) (A) (A) (A) (A) (A) (A)
                 (A) (A) (A) (A) (A) (A) (A) (A) (A) (A) (A) (A)
                 (A) (A) (A) (A) (A) (A) (A) (A) (A) (A) (A) (A)
                 (A) (A) (A) (A) (A) (A) (A) (A) (A) (A) (A) (A)
                 (A) (A) (A) (A) (A) (A) (A) (A) (A) (A) (A) (A)
                 (A) (A) (A) (A) (A)
 Beta  Orbitals:
       Occupied  (A) (A) (A) (A) (A) (A) (A) (A) (A) (A) (A) (A)
                 (A) (A) (A) (A) (A) (A) (A) (A) (A) (A) (A) (A)
                 (A) (A) (A) (A) (A) (A) (A) (A) (A) (A) (A) (A)
                 (A) (A) (A) (A) (A) (A) (A) (A) (A) (A) (A) (A)
                 (A) (A) (A) (A) (A) (A) (A) (A) (A) (A) (A) (A)
                 (A) (A) (A) (A) (A) (A) (A) (A) (A) (A) (A) (A)
                 (A) (A) (A) (A) (A) (A) (A) (A) (A) (A) (A) (A)
                 (A) (A) (A) (A) (A) (A) (A) (A) (A) (A) (A) (A)
                 (A) (A) (A) (A) (A) (A) (A) (A) (A) (A) (A) (A)
                 (A) (A) (A) (A) (A) (A) (A) (A) (A) (A) (A) (A)
                 (A) (A) (A) (A) (A) (A) (A) (A) (A) (A) (A) (A)
                 (A) (A) (A) (A) (A) (A) (A) (A) (A) (A) (A) (A)
                 (A) (A) (A) (A) (A) (A) (A) (A) (A) (A) (A) (A)
                 (A) (A) (A) (A) (A) (A) (A) (A) (A) (A) (A) (A)
                 (A) (A) (A) (A) (A) (A) (A) (A) (A) (A) (A) (A)
                 (A) (A) (A) (A) (A) (A) (A) (A) (A) (A) (A) (A)
                 (A) (A) (A) (A) (A) (A) (A) (A) (A) (A)
       Virtual   (A) (A) (A) (A) (A) (A) (A) (A) (A) (A) (A) (A)
                 (A) (A) (A) (A) (A) (A) (A) (A) (A) (A) (A) (A)
                 (A) (A) (A) (A) (A) (A) (A) (A) (A) (A) (A) (A)
                 (A) (A) (A) (A) (A) (A) (A) (A) (A) (A) (A) (A)
                 (A) (A) (A) (A) (A) (A) (A) (A) (A) (A) (A) (A)
                 (A) (A) (A) (A) (A) (A) (A) (A) (A) (A) (A) (A)
                 (A) (A) (A) (A) (A) (A) (A) (A) (A) (A) (A) (A)
                 (A) (A) (A) (A) (A) (A) (A) (A) (A) (A) (A) (A)
                 (A) (A) (A) (A) (A) (A) (A) (A) (A) (A) (A) (A)
                 (A) (A) (A) (A) (A) (A) (A) (A) (A) (A) (A) (A)
                 (A) (A) (A) (A) (A) (A) (A) (A) (A) (A) (A) (A)
                 (A) (A) (A) (A) (A) (A) (A) (A) (A) (A) (A) (A)
                 (A) (A) (A) (A) (A) (A) (A) (A) (A) (A) (A) (A)
                 (A) (A) (A) (A) (A) (A) (A) (A) (A) (A) (A) (A)
                 (A) (A) (A) (A) (A) (A) (A) (A) (A) (A) (A) (A)
                 (A) (A) (A) (A) (A) (A) (A) (A) (A) (A) (A) (A)
                 (A) (A) (A) (A) (A) (A) (A) (A) (A) (A) (A) (A)
                 (A) (A) (A) (A) (A) (A) (A) (A) (A) (A) (A) (A)
                 (A) (A) (A) (A) (A) (A) (A) (A) (A) (A) (A) (A)
                 (A) (A) (A) (A) (A) (A) (A) (A) (A) (A) (A) (A)
                 (A) (A) (A) (A) (A) (A) (A) (A) (A) (A) (A) (A)
                 (A) (A) (A) (A) (A) (A) (A) (A) (A) (A) (A) (A)
                 (A) (A) (A) (A) (A) (A) (A) (A) (A) (A) (A) (A)
                 (A) (A) (A) (A) (A) (A) (A) (A) (A) (A) (A) (A)
                 (A) (A) (A) (A) (A) (A) (A) (A) (A) (A) (A) (A)
                 (A) (A) (A) (A) (A) (A) (A) (A) (A) (A) (A) (A)
                 (A) (A) (A) (A) (A) (A) (A) (A) (A) (A) (A) (A)
                 (A) (A) (A) (A) (A) (A) (A) (A) (A) (A) (A) (A)
                 (A) (A) (A) (A) (A) (A) (A) (A) (A) (A) (A) (A)
                 (A) (A) (A) (A) (A) (A) (A) (A) (A) (A) (A) (A)
                 (A) (A) (A) (A) (A) (A) (A) (A) (A) (A) (A) (A)
                 (A) (A) (A) (A) (A) (A) (A) (A) (A) (A) (A) (A)
                 (A) (A) (A) (A) (A) (A) (A) (A) (A) (A) (A) (A)
                 (A) (A) (A) (A) (A) (A) (A) (A) (A) (A) (A) (A)
                 (A) (A) (A) (A) (A) (A) (A) (A) (A) (A) (A) (A)
                 (A) (A) (A) (A) (A) (A) (A) (A) (A) (A) (A) (A)
                 (A) (A) (A) (A) (A) (A) (A) (A) (A) (A) (A) (A)
                 (A) (A) (A) (A) (A) (A) (A) (A) (A) (A) (A) (A)
                 (A) (A) (A) (A) (A) (A) (A) (A) (A) (A) (A) (A)
                 (A) (A) (A) (A) (A) (A) (A) (A) (A) (A) (A) (A)
                 (A) (A) (A) (A) (A) (A) (A) (A) (A) (A) (A) (A)
                 (A) (A) (A) (A) (A) (A) (A) (A) (A) (A) (A) (A)
                 (A) (A) (A) (A) (A) (A) (A) (A) (A) (A) (A) (A)
                 (A) (A) (A) (A) (A) (A) (A) (A) (A) (A) (A) (A)
                 (A) (A) (A) (A) (A) (A) (A) (A) (A) (A) (A) (A)
                 (A) (A) (A) (A) (A) (A) (A) (A) (A) (A) (A) (A)
                 (A) (A) (A) (A) (A) (A) (A) (A) (A) (A) (A) (A)
                 (A) (A) (A) (A) (A) (A) (A) (A) (A) (A) (A) (A)
                 (A) (A) (A) (A) (A) (A) (A) (A) (A) (A) (A) (A)
                 (A) (A) (A) (A) (A) (A) (A) (A) (A) (A) (A) (A)
                 (A) (A) (A) (A) (A) (A) (A) (A) (A) (A) (A) (A)
                 (A) (A) (A) (A) (A) (A) (A) (A) (A) (A) (A) (A)
                 (A) (A) (A) (A) (A) (A) (A) (A) (A) (A) (A) (A)
                 (A) (A) (A) (A) (A) (A) (A) (A) (A) (A) (A) (A)
                 (A) (A) (A) (A) (A) (A) (A) (A) (A) (A) (A) (A)
                 (A) (A) (A) (A) (A) (A) (A) (A) (A) (A) (A) (A)
                 (A) (A) (A) (A) (A) (A) (A) (A) (A) (A) (A) (A)
                 (A) (A) (A) (A) (A) (A) (A) (A) (A) (A) (A) (A)
                 (A) (A) (A) (A) (A) (A) (A) (A) (A) (A) (A) (A)
                 (A) (A) (A) (A) (A) (A) (A) (A) (A) (A) (A) (A)
                 (A) (A) (A) (A) (A) (A) (A) (A) (A) (A) (A) (A)
                 (A) (A) (A) (A) (A) (A) (A) (A) (A) (A) (A) (A)
                 (A) (A) (A) (A) (A) (A) (A) (A) (A) (A) (A) (A)
                 (A) (A) (A) (A) (A) (A) (A) (A) (A) (A) (A) (A)
                 (A) (A) (A) (A) (A) (A) (A) (A) (A) (A) (A) (A)
                 (A) (A) (A) (A) (A) (A) (A) (A) (A) (A) (A) (A)
                 (A) (A) (A) (A) (A) (A) (A) (A) (A) (A) (A) (A)
                 (A) (A) (A) (A) (A) (A) (A) (A) (A) (A) (A) (A)
                 (A) (A) (A) (A) (A) (A) (A) (A) (A) (A) (A) (A)
                 (A) (A) (A) (A) (A) (A) (A) (A) (A) (A) (A) (A)
                 (A) (A) (A) (A) (A) (A) (A) (A) (A) (A) (A) (A)
                 (A) (A) (A) (A) (A) (A) (A) (A) (A) (A) (A) (A)
                 (A) (A) (A) (A) (A) (A) (A) (A) (A) (A) (A) (A)
                 (A) (A) (A) (A) (A) (A) (A) (A) (A) (A) (A) (A)
                 (A) (A) (A) (A) (A) (A) (A) (A) (A) (A) (A) (A)
                 (A) (A) (A) (A) (A) (A) (A) (A) (A) (A) (A) (A)
                 (A) (A) (A) (A) (A) (A) (A) (A) (A) (A) (A) (A)
                 (A) (A) (A) (A) (A) (A) (A) (A) (A) (A) (A) (A)
                 (A) (A) (A) (A) (A) (A) (A) (A) (A) (A) (A) (A)
                 (A) (A) (A) (A) (A) (A) (A) (A) (A) (A) (A) (A)
                 (A) (A) (A) (A) (A) (A) (A) (A) (A) (A) (A) (A)
                 (A) (A) (A) (A) (A) (A) (A) (A) (A) (A) (A) (A)
                 (A) (A) (A) (A) (A) (A) (A) (A) (A) (A) (A) (A)
                 (A) (A) (A) (A) (A) (A) (A) (A) (A) (A) (A) (A)
                 (A) (A) (A) (A) (A) (A) (A) (A) (A) (A) (A) (A)
                 (A) (A) (A) (A) (A) (A) (A) (A) (A) (A) (A) (A)
                 (A) (A) (A) (A) (A) (A) (A) (A) (A) (A) (A) (A)
                 (A) (A) (A) (A) (A) (A) (A) (A) (A) (A) (A) (A)
                 (A) (A) (A) (A) (A) (A) (A) (A) (A) (A) (A) (A)
                 (A) (A) (A) (A) (A) (A) (A) (A) (A) (A) (A) (A)
                 (A) (A) (A) (A) (A) (A) (A) (A) (A) (A) (A) (A)
                 (A) (A) (A) (A) (A) (A) (A) (A) (A) (A) (A) (A)
                 (A) (A) (A) (A) (A) (A) (A) (A) (A) (A) (A) (A)
                 (A) (A) (A) (A) (A) (A) (A) (A) (A) (A) (A) (A)
                 (A) (A) (A) (A) (A) (A) (A) (A) (A) (A) (A) (A)
                 (A) (A) (A) (A) (A) (A) (A) (A) (A) (A) (A) (A)
                 (A) (A) (A) (A) (A) (A) (A) (A) (A) (A) (A) (A)
                 (A) (A) (A) (A) (A) (A) (A) (A) (A) (A) (A) (A)
                 (A) (A) (A) (A) (A) (A) (A) (A) (A) (A) (A) (A)
                 (A) (A) (A) (A) (A) (A) (A) (A) (A) (A) (A) (A)
                 (A) (A) (A) (A) (A) (A) (A) (A) (A) (A) (A) (A)
                 (A) (A) (A) (A) (A) (A) (A) (A) (A) (A) (A) (A)
                 (A) (A) (A) (A) (A) (A) (A) (A) (A) (A) (A) (A)
                 (A) (A) (A) (A) (A) (A) (A) (A) (A) (A) (A) (A)
                 (A) (A) (A) (A) (A) (A) (A) (A) (A) (A) (A) (A)
                 (A) (A) (A) (A) (A) (A) (A) (A) (A) (A) (A) (A)
                 (A) (A) (A) (A) (A) (A) (A) (A) (A) (A) (A) (A)
                 (A) (A) (A) (A) (A) (A) (A) (A) (A) (A) (A) (A)
                 (A) (A) (A) (A) (A) (A) (A) (A) (A) (A) (A) (A)
                 (A) (A) (A) (A) (A) (A) (A) (A) (A) (A) (A) (A)
                 (A) (A) (A) (A) (A) (A) (A) (A) (A) (A) (A) (A)
                 (A) (A) (A) (A) (A) (A) (A) (A) (A) (A) (A) (A)
                 (A) (A) (A) (A) (A) (A) (A) (A) (A) (A) (A) (A)
                 (A) (A) (A) (A) (A) (A) (A) (A) (A) (A) (A) (A)
                 (A) (A) (A) (A) (A) (A) (A) (A) (A) (A) (A) (A)
                 (A) (A) (A) (A) (A) (A) (A) (A) (A) (A) (A) (A)
                 (A) (A) (A) (A) (A) (A) (A) (A) (A) (A) (A) (A)
                 (A) (A) (A) (A) (A) (A) (A) (A) (A) (A) (A) (A)
                 (A) (A) (A) (A) (A) (A) (A) (A) (A) (A) (A) (A)
                 (A) (A) (A) (A) (A) (A) (A) (A) (A) (A) (A) (A)
                 (A) (A) (A) (A) (A) (A) (A) (A) (A) (A) (A) (A)
                 (A) (A) (A) (A) (A) (A) (A) (A) (A) (A) (A) (A)
                 (A) (A) (A) (A) (A) (A) (A) (A) (A) (A) (A) (A)
                 (A) (A) (A) (A) (A) (A) (A) (A) (A) (A) (A) (A)
                 (A) (A) (A) (A) (A) (A) (A) (A) (A) (A) (A) (A)
                 (A) (A) (A) (A) (A) (A) (A) (A) (A) (A) (A) (A)
                 (A) (A) (A) (A) (A) (A) (A) (A) (A) (A) (A) (A)
                 (A) (A) (A) (A) (A) (A) (A) (A) (A) (A) (A) (A)
                 (A) (A) (A) (A) (A) (A) (A) (A) (A) (A) (A) (A)
                 (A) (A) (A) (A) (A) (A) (A) (A) (A) (A) (A) (A)
                 (A) (A) (A) (A) (A) (A) (A) (A) (A) (A) (A) (A)
                 (A) (A) (A) (A) (A) (A) (A) (A) (A) (A) (A) (A)
                 (A) (A) (A) (A) (A) (A) (A) (A) (A) (A) (A) (A)
                 (A) (A) (A) (A) (A) (A) (A) (A) (A) (A) (A) (A)
                 (A) (A) (A) (A) (A) (A) (A) (A) (A) (A) (A) (A)
                 (A) (A) (A) (A) (A) (A) (A) (A) (A) (A) (A) (A)
                 (A) (A) (A) (A) (A) (A) (A) (A) (A) (A) (A) (A)
                 (A) (A) (A) (A) (A) (A) (A) (A) (A) (A) (A) (A)
                 (A) (A) (A) (A) (A) (A) (A) (A) (A) (A) (A) (A)
                 (A) (A) (A) (A) (A) (A) (A) (A) (A) (A) (A) (A)
                 (A) (A) (A) (A) (A) (A) (A) (A) (A) (A) (A) (A)
                 (A) (A) (A) (A) (A) (A) (A) (A) (A) (A) (A) (A)
                 (A) (A) (A) (A) (A) (A) (A) (A) (A) (A) (A) (A)
                 (A) (A) (A) (A) (A) (A) (A) (A) (A) (A) (A) (A)
                 (A) (A) (A) (A) (A) (A) (A) (A) (A)
 The electronic state is 5-A.
 Alpha  occ. eigenvalues -- -256.39680 -89.01917 -30.20392 -26.03744 -26.01722
 Alpha  occ. eigenvalues --  -26.01602 -19.27831 -19.25103 -19.18331 -19.17122
 Alpha  occ. eigenvalues --  -14.46665 -14.40489 -14.36849 -14.36441 -14.36237
 Alpha  occ. eigenvalues --  -14.36201 -10.35959 -10.34989 -10.29929 -10.27441
 Alpha  occ. eigenvalues --  -10.26052 -10.24815 -10.24796 -10.24273 -10.24074
 Alpha  occ. eigenvalues --  -10.23824 -10.23746 -10.23697 -10.23364 -10.23311
 Alpha  occ. eigenvalues --  -10.23266 -10.23000 -10.22988 -10.22973 -10.22852
 Alpha  occ. eigenvalues --  -10.22828 -10.22784 -10.22377 -10.21726 -10.21703
 Alpha  occ. eigenvalues --  -10.21530 -10.21468 -10.21433 -10.21242 -10.21131
 Alpha  occ. eigenvalues --  -10.20991 -10.20874 -10.20845 -10.20795 -10.20751
 Alpha  occ. eigenvalues --  -10.20643 -10.20133 -10.20092 -10.20071 -10.20062
 Alpha  occ. eigenvalues --  -10.19758 -10.19360  -7.99895  -5.93532  -5.93246
 Alpha  occ. eigenvalues --   -5.92739  -3.59859  -2.39637  -2.33769  -2.33675
 Alpha  occ. eigenvalues --   -1.18409  -1.15193  -1.06994  -1.03378  -0.98823
 Alpha  occ. eigenvalues --   -0.98769  -0.98158  -0.97347  -0.96725  -0.92687
 Alpha  occ. eigenvalues --   -0.84143  -0.83757  -0.83616  -0.83182  -0.81598
 Alpha  occ. eigenvalues --   -0.81304  -0.81133  -0.80879  -0.80383  -0.79185
 Alpha  occ. eigenvalues --   -0.78518  -0.76420  -0.76225  -0.75141  -0.74502
 Alpha  occ. eigenvalues --   -0.73743  -0.73211  -0.72911  -0.71407  -0.70411
 Alpha  occ. eigenvalues --   -0.70057  -0.69385  -0.69182  -0.68291  -0.66896
 Alpha  occ. eigenvalues --   -0.66298  -0.65695  -0.64361  -0.63384  -0.63276
 Alpha  occ. eigenvalues --   -0.62003  -0.61092  -0.60304  -0.58648  -0.58054
 Alpha  occ. eigenvalues --   -0.57356  -0.56439  -0.55213  -0.54775  -0.53470
 Alpha  occ. eigenvalues --   -0.52721  -0.52107  -0.51911  -0.51490  -0.51089
 Alpha  occ. eigenvalues --   -0.50938  -0.50571  -0.50237  -0.49546  -0.48902
 Alpha  occ. eigenvalues --   -0.48875  -0.48717  -0.48597  -0.48260  -0.47805
 Alpha  occ. eigenvalues --   -0.47500  -0.46654  -0.46113  -0.45840  -0.45603
 Alpha  occ. eigenvalues --   -0.45264  -0.45006  -0.44986  -0.44786  -0.44525
 Alpha  occ. eigenvalues --   -0.44072  -0.43986  -0.43763  -0.43408  -0.43153
 Alpha  occ. eigenvalues --   -0.43044  -0.42880  -0.42672  -0.42149  -0.42131
 Alpha  occ. eigenvalues --   -0.42069  -0.41616  -0.41452  -0.41163  -0.40811
 Alpha  occ. eigenvalues --   -0.40728  -0.40560  -0.40368  -0.40146  -0.39992
 Alpha  occ. eigenvalues --   -0.39453  -0.39335  -0.39009  -0.38835  -0.38584
 Alpha  occ. eigenvalues --   -0.38192  -0.38129  -0.37941  -0.37800  -0.37650
 Alpha  occ. eigenvalues --   -0.37596  -0.37104  -0.36928  -0.36889  -0.36659
 Alpha  occ. eigenvalues --   -0.36388  -0.36151  -0.35911  -0.35443  -0.35034
 Alpha  occ. eigenvalues --   -0.34735  -0.33800  -0.33511  -0.32998  -0.32706
 Alpha  occ. eigenvalues --   -0.32643  -0.31880  -0.30875  -0.30734  -0.29957
 Alpha  occ. eigenvalues --   -0.28737  -0.28434  -0.28117  -0.27164  -0.26728
 Alpha  occ. eigenvalues --   -0.25637  -0.24864  -0.24129  -0.23180  -0.22843
 Alpha  occ. eigenvalues --   -0.22313  -0.21544  -0.20161  -0.19822  -0.19487
 Alpha  occ. eigenvalues --   -0.11729
 Alpha virt. eigenvalues --   -0.07160  -0.06888  -0.04831  -0.03315  -0.01778
 Alpha virt. eigenvalues --   -0.01282  -0.00992   0.00168   0.01759   0.02214
 Alpha virt. eigenvalues --    0.03272   0.03445   0.03828   0.04478   0.04917
 Alpha virt. eigenvalues --    0.05241   0.05359   0.05746   0.06119   0.06200
 Alpha virt. eigenvalues --    0.06724   0.06905   0.07525   0.07772   0.07852
 Alpha virt. eigenvalues --    0.07951   0.08321   0.08592   0.08742   0.08954
 Alpha virt. eigenvalues --    0.09375   0.09758   0.09971   0.10040   0.10256
 Alpha virt. eigenvalues --    0.10748   0.10988   0.11229   0.11455   0.11775
 Alpha virt. eigenvalues --    0.12064   0.12248   0.12518   0.12669   0.12966
 Alpha virt. eigenvalues --    0.13216   0.13494   0.13510   0.13740   0.13944
 Alpha virt. eigenvalues --    0.14127   0.14286   0.14530   0.14806   0.14857
 Alpha virt. eigenvalues --    0.14918   0.15178   0.15468   0.15655   0.15883
 Alpha virt. eigenvalues --    0.16083   0.16385   0.16426   0.16701   0.16843
 Alpha virt. eigenvalues --    0.17049   0.17190   0.17554   0.17826   0.18058
 Alpha virt. eigenvalues --    0.18114   0.18357   0.18714   0.18804   0.18922
 Alpha virt. eigenvalues --    0.19178   0.19394   0.19630   0.19707   0.19984
 Alpha virt. eigenvalues --    0.20239   0.20396   0.20465   0.20628   0.20877
 Alpha virt. eigenvalues --    0.21109   0.21439   0.21595   0.22003   0.22239
 Alpha virt. eigenvalues --    0.22322   0.22543   0.22773   0.23036   0.23090
 Alpha virt. eigenvalues --    0.23218   0.23535   0.23806   0.24016   0.24309
 Alpha virt. eigenvalues --    0.24534   0.24764   0.25133   0.25226   0.25295
 Alpha virt. eigenvalues --    0.25426   0.25590   0.25611   0.25964   0.26079
 Alpha virt. eigenvalues --    0.26321   0.26763   0.26870   0.27218   0.27496
 Alpha virt. eigenvalues --    0.27564   0.27901   0.28098   0.28281   0.28462
 Alpha virt. eigenvalues --    0.28708   0.28791   0.29219   0.29442   0.29707
 Alpha virt. eigenvalues --    0.29811   0.30034   0.30369   0.30503   0.30736
 Alpha virt. eigenvalues --    0.31040   0.31385   0.31548   0.31760   0.31788
 Alpha virt. eigenvalues --    0.32067   0.32433   0.32531   0.32661   0.32898
 Alpha virt. eigenvalues --    0.33131   0.33482   0.33572   0.33811   0.33878
 Alpha virt. eigenvalues --    0.34153   0.34333   0.34465   0.34564   0.35043
 Alpha virt. eigenvalues --    0.35071   0.35662   0.35771   0.36179   0.36292
 Alpha virt. eigenvalues --    0.36453   0.36635   0.36833   0.37163   0.37379
 Alpha virt. eigenvalues --    0.37466   0.37599   0.37828   0.37970   0.38294
 Alpha virt. eigenvalues --    0.38589   0.38659   0.38894   0.39116   0.39436
 Alpha virt. eigenvalues --    0.39586   0.39793   0.39928   0.40408   0.40664
 Alpha virt. eigenvalues --    0.40768   0.40907   0.40965   0.41140   0.41319
 Alpha virt. eigenvalues --    0.41480   0.41784   0.41996   0.42206   0.42374
 Alpha virt. eigenvalues --    0.42572   0.42613   0.42799   0.43168   0.43244
 Alpha virt. eigenvalues --    0.43371   0.43642   0.43670   0.43918   0.43999
 Alpha virt. eigenvalues --    0.44259   0.44292   0.44574   0.44790   0.44968
 Alpha virt. eigenvalues --    0.45111   0.45319   0.45368   0.45621   0.45740
 Alpha virt. eigenvalues --    0.45857   0.46016   0.46041   0.46157   0.46293
 Alpha virt. eigenvalues --    0.46461   0.46536   0.46852   0.46935   0.47300
 Alpha virt. eigenvalues --    0.47342   0.47481   0.47622   0.47721   0.47867
 Alpha virt. eigenvalues --    0.48058   0.48248   0.48683   0.48807   0.49102
 Alpha virt. eigenvalues --    0.49291   0.49417   0.49527   0.49701   0.50104
 Alpha virt. eigenvalues --    0.50268   0.50300   0.50517   0.50772   0.50862
 Alpha virt. eigenvalues --    0.51029   0.51179   0.51280   0.51434   0.51538
 Alpha virt. eigenvalues --    0.51648   0.51825   0.52087   0.52239   0.52303
 Alpha virt. eigenvalues --    0.52430   0.52566   0.52799   0.52960   0.53029
 Alpha virt. eigenvalues --    0.53520   0.53771   0.53944   0.54191   0.54361
 Alpha virt. eigenvalues --    0.54457   0.54549   0.54793   0.55002   0.55032
 Alpha virt. eigenvalues --    0.55502   0.55627   0.55759   0.56052   0.56178
 Alpha virt. eigenvalues --    0.56440   0.56520   0.56745   0.57089   0.57161
 Alpha virt. eigenvalues --    0.57487   0.57550   0.57942   0.58237   0.58486
 Alpha virt. eigenvalues --    0.58698   0.58965   0.59273   0.59454   0.59589
 Alpha virt. eigenvalues --    0.59936   0.60234   0.60555   0.60911   0.61130
 Alpha virt. eigenvalues --    0.61295   0.61780   0.62026   0.62309   0.62412
 Alpha virt. eigenvalues --    0.62649   0.63053   0.63264   0.63372   0.63755
 Alpha virt. eigenvalues --    0.63875   0.64268   0.64444   0.64823   0.64992
 Alpha virt. eigenvalues --    0.65116   0.65388   0.65965   0.66061   0.66180
 Alpha virt. eigenvalues --    0.66710   0.66848   0.67216   0.67469   0.67793
 Alpha virt. eigenvalues --    0.68204   0.68489   0.68586   0.69078   0.69132
 Alpha virt. eigenvalues --    0.69312   0.69534   0.69901   0.70100   0.70401
 Alpha virt. eigenvalues --    0.70859   0.70941   0.71199   0.71631   0.71818
 Alpha virt. eigenvalues --    0.71860   0.72105   0.72367   0.72554   0.73052
 Alpha virt. eigenvalues --    0.73123   0.73482   0.73595   0.74040   0.74296
 Alpha virt. eigenvalues --    0.74407   0.74751   0.75087   0.75396   0.75883
 Alpha virt. eigenvalues --    0.76417   0.76654   0.76998   0.77045   0.77136
 Alpha virt. eigenvalues --    0.77408   0.77844   0.77897   0.78371   0.78556
 Alpha virt. eigenvalues --    0.78764   0.79162   0.79398   0.79678   0.80190
 Alpha virt. eigenvalues --    0.80362   0.80451   0.80818   0.81307   0.81485
 Alpha virt. eigenvalues --    0.81967   0.82140   0.82298   0.82851   0.83091
 Alpha virt. eigenvalues --    0.83304   0.83596   0.83832   0.83933   0.84291
 Alpha virt. eigenvalues --    0.84677   0.84852   0.85129   0.85697   0.85774
 Alpha virt. eigenvalues --    0.86041   0.86317   0.86962   0.87182   0.87458
 Alpha virt. eigenvalues --    0.87812   0.87915   0.88487   0.88570   0.88886
 Alpha virt. eigenvalues --    0.88989   0.89229   0.89727   0.90053   0.90142
 Alpha virt. eigenvalues --    0.90576   0.90699   0.91298   0.91564   0.91726
 Alpha virt. eigenvalues --    0.91875   0.92412   0.92643   0.92878   0.93321
 Alpha virt. eigenvalues --    0.93344   0.93882   0.94037   0.94101   0.94576
 Alpha virt. eigenvalues --    0.94647   0.94908   0.95148   0.95217   0.95321
 Alpha virt. eigenvalues --    0.95984   0.96233   0.96323   0.96415   0.97038
 Alpha virt. eigenvalues --    0.97153   0.97370   0.97632   0.97699   0.97984
 Alpha virt. eigenvalues --    0.98600   0.98636   0.98848   0.99181   0.99427
 Alpha virt. eigenvalues --    1.00008   1.00196   1.00297   1.00633   1.00856
 Alpha virt. eigenvalues --    1.01049   1.01315   1.01371   1.01647   1.02302
 Alpha virt. eigenvalues --    1.02405   1.02708   1.03064   1.03221   1.03256
 Alpha virt. eigenvalues --    1.03883   1.04038   1.04222   1.04606   1.05101
 Alpha virt. eigenvalues --    1.05290   1.05381   1.05717   1.05874   1.06223
 Alpha virt. eigenvalues --    1.06297   1.06514   1.06606   1.06920   1.07382
 Alpha virt. eigenvalues --    1.07530   1.07781   1.08256   1.08408   1.08802
 Alpha virt. eigenvalues --    1.09041   1.09348   1.09441   1.09860   1.10133
 Alpha virt. eigenvalues --    1.10325   1.10783   1.11346   1.11465   1.12070
 Alpha virt. eigenvalues --    1.12337   1.12832   1.13272   1.13684   1.13880
 Alpha virt. eigenvalues --    1.14084   1.14470   1.14588   1.14894   1.15149
 Alpha virt. eigenvalues --    1.15431   1.15771   1.16008   1.16283   1.16582
 Alpha virt. eigenvalues --    1.16766   1.17309   1.17543   1.17587   1.18134
 Alpha virt. eigenvalues --    1.18818   1.18922   1.19123   1.19358   1.20112
 Alpha virt. eigenvalues --    1.20276   1.20597   1.20614   1.21344   1.21903
 Alpha virt. eigenvalues --    1.22332   1.22398   1.22847   1.23231   1.23533
 Alpha virt. eigenvalues --    1.24094   1.24366   1.24846   1.25303   1.25670
 Alpha virt. eigenvalues --    1.26202   1.26574   1.26705   1.26910   1.27614
 Alpha virt. eigenvalues --    1.27967   1.28223   1.28653   1.29066   1.29365
 Alpha virt. eigenvalues --    1.29707   1.29975   1.30368   1.30646   1.30896
 Alpha virt. eigenvalues --    1.31104   1.31405   1.31623   1.32036   1.32323
 Alpha virt. eigenvalues --    1.32658   1.32928   1.33294   1.33395   1.33714
 Alpha virt. eigenvalues --    1.33859   1.34249   1.34731   1.34938   1.35061
 Alpha virt. eigenvalues --    1.35161   1.35712   1.36420   1.36753   1.37148
 Alpha virt. eigenvalues --    1.37232   1.37808   1.38288   1.39071   1.39659
 Alpha virt. eigenvalues --    1.39833   1.40206   1.40680   1.41238   1.41845
 Alpha virt. eigenvalues --    1.42330   1.42678   1.42890   1.43392   1.43628
 Alpha virt. eigenvalues --    1.44169   1.44924   1.45162   1.45956   1.46665
 Alpha virt. eigenvalues --    1.46893   1.46920   1.47167   1.47420   1.48260
 Alpha virt. eigenvalues --    1.48353   1.48594   1.48959   1.49108   1.49440
 Alpha virt. eigenvalues --    1.49693   1.49843   1.50159   1.50481   1.50819
 Alpha virt. eigenvalues --    1.51051   1.51483   1.51833   1.52127   1.52256
 Alpha virt. eigenvalues --    1.52568   1.52615   1.52984   1.53154   1.53522
 Alpha virt. eigenvalues --    1.53629   1.53774   1.54103   1.54440   1.54658
 Alpha virt. eigenvalues --    1.55189   1.55370   1.55617   1.55902   1.56216
 Alpha virt. eigenvalues --    1.56337   1.56764   1.56981   1.57107   1.57373
 Alpha virt. eigenvalues --    1.57752   1.57915   1.58160   1.58297   1.58373
 Alpha virt. eigenvalues --    1.58662   1.59041   1.59175   1.59359   1.59602
 Alpha virt. eigenvalues --    1.59839   1.60137   1.60675   1.60751   1.61252
 Alpha virt. eigenvalues --    1.61378   1.61591   1.62001   1.62171   1.62711
 Alpha virt. eigenvalues --    1.62822   1.62981   1.63208   1.63569   1.63664
 Alpha virt. eigenvalues --    1.64057   1.64168   1.64638   1.64702   1.64926
 Alpha virt. eigenvalues --    1.65351   1.65645   1.65869   1.66164   1.66504
 Alpha virt. eigenvalues --    1.66713   1.66826   1.67111   1.67323   1.67636
 Alpha virt. eigenvalues --    1.67900   1.68145   1.68276   1.68663   1.68863
 Alpha virt. eigenvalues --    1.69013   1.69693   1.69993   1.70065   1.70683
 Alpha virt. eigenvalues --    1.70894   1.71463   1.71555   1.71762   1.72104
 Alpha virt. eigenvalues --    1.72373   1.72611   1.73124   1.73403   1.73583
 Alpha virt. eigenvalues --    1.73750   1.74191   1.74493   1.74762   1.75350
 Alpha virt. eigenvalues --    1.75494   1.75901   1.76123   1.76301   1.76440
 Alpha virt. eigenvalues --    1.76980   1.77231   1.77556   1.77887   1.78148
 Alpha virt. eigenvalues --    1.78312   1.78780   1.79054   1.79185   1.79693
 Alpha virt. eigenvalues --    1.80004   1.80309   1.81025   1.81131   1.81449
 Alpha virt. eigenvalues --    1.81614   1.82493   1.82978   1.83179   1.83604
 Alpha virt. eigenvalues --    1.83680   1.83888   1.84360   1.84724   1.84982
 Alpha virt. eigenvalues --    1.85218   1.85477   1.85805   1.86312   1.86404
 Alpha virt. eigenvalues --    1.86828   1.87492   1.87914   1.88548   1.88808
 Alpha virt. eigenvalues --    1.89090   1.89432   1.89978   1.90111   1.90280
 Alpha virt. eigenvalues --    1.90704   1.90994   1.91096   1.91834   1.92313
 Alpha virt. eigenvalues --    1.92556   1.92903   1.93300   1.93434   1.93720
 Alpha virt. eigenvalues --    1.94172   1.94699   1.94786   1.95047   1.95451
 Alpha virt. eigenvalues --    1.95561   1.95727   1.96153   1.96469   1.96657
 Alpha virt. eigenvalues --    1.97058   1.97298   1.97737   1.97973   1.98335
 Alpha virt. eigenvalues --    1.98680   1.98827   1.99014   1.99255   1.99790
 Alpha virt. eigenvalues --    2.00027   2.00400   2.00833   2.01071   2.01141
 Alpha virt. eigenvalues --    2.01720   2.02154   2.02297   2.02819   2.03192
 Alpha virt. eigenvalues --    2.03475   2.04119   2.04291   2.04698   2.04915
 Alpha virt. eigenvalues --    2.05049   2.05359   2.05836   2.06322   2.06558
 Alpha virt. eigenvalues --    2.07001   2.07700   2.08204   2.08440   2.08582
 Alpha virt. eigenvalues --    2.08773   2.09272   2.09982   2.10356   2.10602
 Alpha virt. eigenvalues --    2.11155   2.11277   2.11440   2.11706   2.11773
 Alpha virt. eigenvalues --    2.12518   2.12701   2.13178   2.13570   2.13839
 Alpha virt. eigenvalues --    2.14035   2.14306   2.14549   2.14801   2.14964
 Alpha virt. eigenvalues --    2.15292   2.15686   2.15879   2.16283   2.16603
 Alpha virt. eigenvalues --    2.16893   2.17187   2.17421   2.17678   2.18793
 Alpha virt. eigenvalues --    2.19254   2.19513   2.19747   2.20207   2.20307
 Alpha virt. eigenvalues --    2.20744   2.20905   2.21220   2.21564   2.22119
 Alpha virt. eigenvalues --    2.22329   2.22385   2.22625   2.23159   2.23397
 Alpha virt. eigenvalues --    2.23680   2.23909   2.24146   2.24635   2.25011
 Alpha virt. eigenvalues --    2.25315   2.25718   2.26053   2.26555   2.27836
 Alpha virt. eigenvalues --    2.28006   2.28254   2.28507   2.28688   2.28783
 Alpha virt. eigenvalues --    2.29305   2.30012   2.30368   2.30866   2.31057
 Alpha virt. eigenvalues --    2.31345   2.31625   2.32034   2.32705   2.32894
 Alpha virt. eigenvalues --    2.33246   2.33495   2.33542   2.34102   2.34404
 Alpha virt. eigenvalues --    2.34619   2.34975   2.35488   2.35713   2.35901
 Alpha virt. eigenvalues --    2.36574   2.36932   2.37110   2.37676   2.37809
 Alpha virt. eigenvalues --    2.38244   2.38801   2.38946   2.39147   2.39639
 Alpha virt. eigenvalues --    2.40040   2.40116   2.40376   2.40870   2.41127
 Alpha virt. eigenvalues --    2.41168   2.41687   2.41997   2.42495   2.43019
 Alpha virt. eigenvalues --    2.43470   2.43739   2.44436   2.44574   2.45003
 Alpha virt. eigenvalues --    2.45487   2.45588   2.46008   2.46592   2.47070
 Alpha virt. eigenvalues --    2.47286   2.47413   2.48067   2.48483   2.48949
 Alpha virt. eigenvalues --    2.49230   2.49462   2.50070   2.50380   2.51024
 Alpha virt. eigenvalues --    2.51343   2.51958   2.52251   2.52847   2.53107
 Alpha virt. eigenvalues --    2.53454   2.53726   2.53839   2.54275   2.55064
 Alpha virt. eigenvalues --    2.55390   2.55553   2.55716   2.55985   2.56279
 Alpha virt. eigenvalues --    2.56487   2.56727   2.57270   2.57501   2.57703
 Alpha virt. eigenvalues --    2.58055   2.58232   2.58327   2.58694   2.58998
 Alpha virt. eigenvalues --    2.59285   2.59599   2.59956   2.60104   2.60426
 Alpha virt. eigenvalues --    2.60866   2.61260   2.61440   2.61479   2.61871
 Alpha virt. eigenvalues --    2.62475   2.62698   2.63106   2.63283   2.63637
 Alpha virt. eigenvalues --    2.63950   2.64144   2.64458   2.64464   2.65116
 Alpha virt. eigenvalues --    2.65301   2.65730   2.65995   2.66149   2.66224
 Alpha virt. eigenvalues --    2.66757   2.66906   2.67105   2.67483   2.68062
 Alpha virt. eigenvalues --    2.68224   2.68459   2.68877   2.68960   2.69242
 Alpha virt. eigenvalues --    2.69569   2.69980   2.70321   2.70535   2.70726
 Alpha virt. eigenvalues --    2.71364   2.71502   2.71738   2.71911   2.72385
 Alpha virt. eigenvalues --    2.72694   2.72988   2.73154   2.73238   2.73805
 Alpha virt. eigenvalues --    2.74124   2.74333   2.74505   2.75101   2.75925
 Alpha virt. eigenvalues --    2.76029   2.76484   2.76623   2.77197   2.77664
 Alpha virt. eigenvalues --    2.77827   2.78039   2.78323   2.78571   2.78797
 Alpha virt. eigenvalues --    2.79098   2.79205   2.79342   2.79682   2.80112
 Alpha virt. eigenvalues --    2.80426   2.80921   2.81082   2.81767   2.81975
 Alpha virt. eigenvalues --    2.82320   2.82444   2.82717   2.83121   2.83797
 Alpha virt. eigenvalues --    2.83988   2.84271   2.84376   2.84759   2.85221
 Alpha virt. eigenvalues --    2.85604   2.86248   2.86389   2.86845   2.86947
 Alpha virt. eigenvalues --    2.87412   2.87626   2.88118   2.88465   2.88534
 Alpha virt. eigenvalues --    2.89489   2.89597   2.89960   2.90554   2.91041
 Alpha virt. eigenvalues --    2.91316   2.91510   2.91853   2.92079   2.92292
 Alpha virt. eigenvalues --    2.93194   2.93574   2.93933   2.94145   2.94300
 Alpha virt. eigenvalues --    2.94590   2.94952   2.95410   2.95558   2.96022
 Alpha virt. eigenvalues --    2.96075   2.96460   2.96633   2.97245   2.97662
 Alpha virt. eigenvalues --    2.97810   2.97892   2.98217   2.98511   2.98785
 Alpha virt. eigenvalues --    2.99369   2.99542   2.99627   2.99766   3.00048
 Alpha virt. eigenvalues --    3.00618   3.01004   3.01013   3.01184   3.01584
 Alpha virt. eigenvalues --    3.01739   3.02225   3.02683   3.02878   3.03098
 Alpha virt. eigenvalues --    3.03258   3.03685   3.04111   3.04226   3.04621
 Alpha virt. eigenvalues --    3.05064   3.05348   3.05554   3.05639   3.06306
 Alpha virt. eigenvalues --    3.06729   3.07211   3.07296   3.07467   3.07776
 Alpha virt. eigenvalues --    3.08273   3.08551   3.08620   3.08821   3.09214
 Alpha virt. eigenvalues --    3.09457   3.09771   3.10136   3.10496   3.10526
 Alpha virt. eigenvalues --    3.11080   3.11231   3.11577   3.11883   3.12016
 Alpha virt. eigenvalues --    3.12397   3.12481   3.12643   3.13007   3.13076
 Alpha virt. eigenvalues --    3.13728   3.13923   3.14299   3.14559   3.14719
 Alpha virt. eigenvalues --    3.15038   3.15204   3.15289   3.15418   3.15993
 Alpha virt. eigenvalues --    3.16211   3.16374   3.16828   3.16899   3.17318
 Alpha virt. eigenvalues --    3.17754   3.17896   3.18026   3.18129   3.18515
 Alpha virt. eigenvalues --    3.18793   3.18919   3.19160   3.19397   3.19771
 Alpha virt. eigenvalues --    3.20318   3.20588   3.20929   3.21060   3.21175
 Alpha virt. eigenvalues --    3.21563   3.21904   3.22096   3.22273   3.22450
 Alpha virt. eigenvalues --    3.22799   3.22980   3.23140   3.23665   3.23923
 Alpha virt. eigenvalues --    3.24201   3.24399   3.24737   3.25032   3.25237
 Alpha virt. eigenvalues --    3.25435   3.25468   3.25621   3.26443   3.26513
 Alpha virt. eigenvalues --    3.26886   3.27042   3.27070   3.27287   3.27600
 Alpha virt. eigenvalues --    3.27761   3.28055   3.28307   3.28402   3.28786
 Alpha virt. eigenvalues --    3.29073   3.29341   3.29459   3.29579   3.30236
 Alpha virt. eigenvalues --    3.30450   3.30455   3.30994   3.31141   3.31348
 Alpha virt. eigenvalues --    3.31480   3.31756   3.32098   3.32314   3.32598
 Alpha virt. eigenvalues --    3.32669   3.33217   3.33391   3.33548   3.33771
 Alpha virt. eigenvalues --    3.33917   3.34392   3.34868   3.34967   3.35324
 Alpha virt. eigenvalues --    3.35612   3.35903   3.35932   3.36285   3.36409
 Alpha virt. eigenvalues --    3.36659   3.36895   3.37120   3.37334   3.37695
 Alpha virt. eigenvalues --    3.37788   3.37976   3.38307   3.38450   3.38547
 Alpha virt. eigenvalues --    3.39084   3.39153   3.39444   3.39639   3.39814
 Alpha virt. eigenvalues --    3.40088   3.40465   3.40854   3.40948   3.41074
 Alpha virt. eigenvalues --    3.41717   3.41848   3.42099   3.42380   3.42729
 Alpha virt. eigenvalues --    3.42898   3.43153   3.43349   3.43940   3.44198
 Alpha virt. eigenvalues --    3.44565   3.44974   3.45242   3.45431   3.45495
 Alpha virt. eigenvalues --    3.45798   3.46124   3.46472   3.46728   3.46752
 Alpha virt. eigenvalues --    3.47015   3.47316   3.47814   3.47946   3.48421
 Alpha virt. eigenvalues --    3.48862   3.49171   3.49333   3.49919   3.50116
 Alpha virt. eigenvalues --    3.50519   3.50630   3.50831   3.51197   3.51484
 Alpha virt. eigenvalues --    3.51580   3.51782   3.52206   3.52732   3.52985
 Alpha virt. eigenvalues --    3.53274   3.53768   3.53983   3.54087   3.54211
 Alpha virt. eigenvalues --    3.54783   3.54882   3.55454   3.55833   3.56223
 Alpha virt. eigenvalues --    3.56687   3.56891   3.57229   3.57510   3.57689
 Alpha virt. eigenvalues --    3.58166   3.58446   3.58945   3.59217   3.59531
 Alpha virt. eigenvalues --    3.59836   3.60188   3.60520   3.61151   3.61519
 Alpha virt. eigenvalues --    3.61540   3.62102   3.62322   3.62745   3.63011
 Alpha virt. eigenvalues --    3.63492   3.63712   3.64119   3.65044   3.65197
 Alpha virt. eigenvalues --    3.65422   3.65861   3.65976   3.66348   3.66570
 Alpha virt. eigenvalues --    3.67172   3.67369   3.67815   3.68521   3.68816
 Alpha virt. eigenvalues --    3.69008   3.69440   3.69802   3.70239   3.70673
 Alpha virt. eigenvalues --    3.70923   3.71396   3.71609   3.72270   3.72702
 Alpha virt. eigenvalues --    3.73071   3.73276   3.73858   3.74515   3.74537
 Alpha virt. eigenvalues --    3.74973   3.75076   3.75414   3.75816   3.76034
 Alpha virt. eigenvalues --    3.76446   3.76606   3.77148   3.77455   3.77664
 Alpha virt. eigenvalues --    3.78002   3.78476   3.78519   3.79392   3.79487
 Alpha virt. eigenvalues --    3.79941   3.80164   3.80976   3.81433   3.82377
 Alpha virt. eigenvalues --    3.82683   3.83344   3.83713   3.84240   3.84607
 Alpha virt. eigenvalues --    3.84836   3.85555   3.86021   3.86264   3.86988
 Alpha virt. eigenvalues --    3.87357   3.87779   3.88101   3.88156   3.88345
 Alpha virt. eigenvalues --    3.88827   3.89282   3.89570   3.90060   3.90351
 Alpha virt. eigenvalues --    3.90863   3.91093   3.91214   3.91814   3.91969
 Alpha virt. eigenvalues --    3.92231   3.92797   3.93063   3.93396   3.94339
 Alpha virt. eigenvalues --    3.95062   3.95439   3.95623   3.95942   3.96559
 Alpha virt. eigenvalues --    3.96736   3.97284   3.97667   3.98792   3.98913
 Alpha virt. eigenvalues --    3.99333   3.99582   4.00161   4.00899   4.01337
 Alpha virt. eigenvalues --    4.01389   4.02001   4.03075   4.03242   4.03957
 Alpha virt. eigenvalues --    4.04296   4.04655   4.05242   4.06331   4.06614
 Alpha virt. eigenvalues --    4.07379   4.07553   4.07913   4.08216   4.08789
 Alpha virt. eigenvalues --    4.09494   4.09772   4.09999   4.10145   4.10853
 Alpha virt. eigenvalues --    4.11294   4.11822   4.12700   4.12960   4.13375
 Alpha virt. eigenvalues --    4.14349   4.14966   4.15685   4.16421   4.16910
 Alpha virt. eigenvalues --    4.17130   4.18329   4.18962   4.19317   4.19698
 Alpha virt. eigenvalues --    4.19971   4.20294   4.20891   4.21892   4.22317
 Alpha virt. eigenvalues --    4.22580   4.23708   4.23900   4.24259   4.24977
 Alpha virt. eigenvalues --    4.25268   4.25505   4.25838   4.26101   4.27134
 Alpha virt. eigenvalues --    4.27342   4.27966   4.28480   4.28913   4.28940
 Alpha virt. eigenvalues --    4.29238   4.29828   4.30199   4.31174   4.31544
 Alpha virt. eigenvalues --    4.31951   4.32035   4.32488   4.33302   4.34340
 Alpha virt. eigenvalues --    4.35335   4.35849   4.36207   4.36481   4.37205
 Alpha virt. eigenvalues --    4.37290   4.37754   4.38357   4.39208   4.39922
 Alpha virt. eigenvalues --    4.40342   4.40531   4.41525   4.41670   4.42002
 Alpha virt. eigenvalues --    4.42126   4.42627   4.42954   4.43262   4.43704
 Alpha virt. eigenvalues --    4.43970   4.45089   4.45373   4.45938   4.46261
 Alpha virt. eigenvalues --    4.46661   4.47634   4.48515   4.48663   4.49333
 Alpha virt. eigenvalues --    4.49799   4.51113   4.51921   4.52027   4.52314
 Alpha virt. eigenvalues --    4.53025   4.53308   4.53857   4.54142   4.55339
 Alpha virt. eigenvalues --    4.56187   4.57154   4.57921   4.58264   4.58407
 Alpha virt. eigenvalues --    4.59633   4.60088   4.60933   4.61142   4.61279
 Alpha virt. eigenvalues --    4.61760   4.62674   4.63000   4.63097   4.64258
 Alpha virt. eigenvalues --    4.65517   4.66395   4.66776   4.67006   4.68356
 Alpha virt. eigenvalues --    4.68927   4.69702   4.70545   4.71054   4.71273
 Alpha virt. eigenvalues --    4.71859   4.72356   4.73014   4.73254   4.73910
 Alpha virt. eigenvalues --    4.74166   4.74961   4.75264   4.76063   4.76547
 Alpha virt. eigenvalues --    4.77006   4.77232   4.77942   4.79241   4.79826
 Alpha virt. eigenvalues --    4.80416   4.80524   4.81088   4.82138   4.82910
 Alpha virt. eigenvalues --    4.84188   4.84932   4.85733   4.85769   4.86665
 Alpha virt. eigenvalues --    4.87263   4.88161   4.88899   4.89443   4.90785
 Alpha virt. eigenvalues --    4.91578   4.91889   4.92521   4.93040   4.94424
 Alpha virt. eigenvalues --    4.95654   4.96661   4.97261   4.97746   4.98579
 Alpha virt. eigenvalues --    4.98866   4.99234   4.99513   5.00834   5.01438
 Alpha virt. eigenvalues --    5.02090   5.02306   5.03774   5.04252   5.05018
 Alpha virt. eigenvalues --    5.06103   5.06318   5.07687   5.08842   5.10052
 Alpha virt. eigenvalues --    5.10295   5.10737   5.11777   5.12042   5.12418
 Alpha virt. eigenvalues --    5.13555   5.14401   5.15435   5.16449   5.18158
 Alpha virt. eigenvalues --    5.18713   5.20201   5.20902   5.21071   5.21472
 Alpha virt. eigenvalues --    5.21919   5.22179   5.22888   5.23215   5.24505
 Alpha virt. eigenvalues --    5.24775   5.27543   5.27904   5.27993   5.28915
 Alpha virt. eigenvalues --    5.30261   5.31853   5.32164   5.32766   5.33224
 Alpha virt. eigenvalues --    5.34461   5.35060   5.37898   5.38001   5.39162
 Alpha virt. eigenvalues --    5.39493   5.40016   5.41709   5.42383   5.42632
 Alpha virt. eigenvalues --    5.43406   5.44179   5.45567   5.47141   5.49060
 Alpha virt. eigenvalues --    5.50080   5.50658   5.52103   5.52292   5.52930
 Alpha virt. eigenvalues --    5.54338   5.55188   5.55485   5.55927   5.56329
 Alpha virt. eigenvalues --    5.57668   5.60727   5.61848   5.63206   5.63396
 Alpha virt. eigenvalues --    5.63910   5.66038   5.66861   5.67869   5.68620
 Alpha virt. eigenvalues --    5.68948   5.71005   5.73582   5.74233   5.76282
 Alpha virt. eigenvalues --    5.76770   5.78732   5.79018   5.80930   5.84281
 Alpha virt. eigenvalues --    5.88650   5.90790   5.91822   5.93828   5.97403
 Alpha virt. eigenvalues --    5.98549   6.00684   6.01591   6.02370   6.03315
 Alpha virt. eigenvalues --    6.04471   6.06547   6.06824   6.07268   6.07617
 Alpha virt. eigenvalues --    6.08617   6.14838   6.14965   6.15962   6.16849
 Alpha virt. eigenvalues --    6.17975   6.20145   6.22004   6.27931   6.29366
 Alpha virt. eigenvalues --    6.33423   6.33608   6.35552   6.38639   6.39648
 Alpha virt. eigenvalues --    6.42193   6.43679   6.47547   6.50079   6.50280
 Alpha virt. eigenvalues --    6.51418   6.54210   6.64644   6.64856   6.70244
 Alpha virt. eigenvalues --    6.74767   6.82046   6.86076   6.86112   6.93863
 Alpha virt. eigenvalues --    6.95815   6.99123   7.06823   7.07957   7.09882
 Alpha virt. eigenvalues --    7.14546   7.28754   7.32326   9.29503   9.50708
 Alpha virt. eigenvalues --    9.61705  20.14420  22.19740  22.23189  22.41831
 Alpha virt. eigenvalues --   22.43401  22.50498  22.51214  22.57480  22.58786
 Alpha virt. eigenvalues --   22.60450  22.61906  22.63667  22.65171  22.66650
 Alpha virt. eigenvalues --   22.69496  22.77647  22.77964  22.80972  22.97915
 Alpha virt. eigenvalues --   22.99090  23.01010  23.04607  23.05251  23.07604
 Alpha virt. eigenvalues --   23.14312  23.14887  23.23996  23.25788  23.31671
 Alpha virt. eigenvalues --   23.38374  23.40754  23.41591  23.46712  23.48098
 Alpha virt. eigenvalues --   23.51213  23.56984  23.59076  23.66806  23.77268
 Alpha virt. eigenvalues --   23.87240  23.90612  24.01916  32.45075  32.81815
 Alpha virt. eigenvalues --   33.03143  33.09304  33.14844  33.19523  43.91335
 Alpha virt. eigenvalues --   43.92639  43.94616  43.96932
  Beta  occ. eigenvalues -- -256.39582 -89.01831 -30.14115 -25.97596 -25.97277
  Beta  occ. eigenvalues --  -25.96372 -19.27830 -19.25101 -19.18330 -19.17122
  Beta  occ. eigenvalues --  -14.46652 -14.40229 -14.36847 -14.36418 -14.36234
  Beta  occ. eigenvalues --  -14.36173 -10.35958 -10.34986 -10.29897 -10.27433
  Beta  occ. eigenvalues --  -10.26141 -10.24878 -10.24786 -10.24176 -10.24066
  Beta  occ. eigenvalues --  -10.23821 -10.23783 -10.23731 -10.23410 -10.23356
  Beta  occ. eigenvalues --  -10.23341 -10.23047 -10.22918 -10.22838 -10.22804
  Beta  occ. eigenvalues --  -10.22681 -10.22610 -10.22203 -10.21743 -10.21740
  Beta  occ. eigenvalues --  -10.21595 -10.21547 -10.21530 -10.21375 -10.21143
  Beta  occ. eigenvalues --  -10.20908 -10.20844 -10.20803 -10.20750 -10.20580
  Beta  occ. eigenvalues --  -10.20444 -10.20146 -10.20068 -10.20061 -10.19905
  Beta  occ. eigenvalues --  -10.19368 -10.18932  -7.99799  -5.93470  -5.93138
  Beta  occ. eigenvalues --   -5.92562  -3.44768  -2.21049  -2.20417  -2.17025
  Beta  occ. eigenvalues --   -1.18407  -1.15188  -1.06864  -1.03376  -0.98817
  Beta  occ. eigenvalues --   -0.98603  -0.97980  -0.97200  -0.96573  -0.92398
  Beta  occ. eigenvalues --   -0.83944  -0.83533  -0.83507  -0.83027  -0.81549
  Beta  occ. eigenvalues --   -0.81149  -0.81028  -0.80626  -0.80261  -0.79116
  Beta  occ. eigenvalues --   -0.78356  -0.76330  -0.76092  -0.74845  -0.74318
  Beta  occ. eigenvalues --   -0.73677  -0.73131  -0.72811  -0.71288  -0.70340
  Beta  occ. eigenvalues --   -0.69942  -0.69312  -0.69096  -0.68147  -0.66650
  Beta  occ. eigenvalues --   -0.65886  -0.65723  -0.64277  -0.63339  -0.63182
  Beta  occ. eigenvalues --   -0.61919  -0.61011  -0.60062  -0.58508  -0.57799
  Beta  occ. eigenvalues --   -0.57220  -0.56316  -0.55130  -0.54726  -0.53360
  Beta  occ. eigenvalues --   -0.52675  -0.52041  -0.51831  -0.51356  -0.51033
  Beta  occ. eigenvalues --   -0.50928  -0.50537  -0.50180  -0.49295  -0.48784
  Beta  occ. eigenvalues --   -0.48728  -0.48540  -0.48437  -0.48161  -0.47660
  Beta  occ. eigenvalues --   -0.47326  -0.46539  -0.45658  -0.45449  -0.45343
  Beta  occ. eigenvalues --   -0.45012  -0.44806  -0.44633  -0.44296  -0.44147
  Beta  occ. eigenvalues --   -0.43821  -0.43667  -0.43576  -0.43273  -0.43109
  Beta  occ. eigenvalues --   -0.42923  -0.42798  -0.42466  -0.42081  -0.41988
  Beta  occ. eigenvalues --   -0.41435  -0.41380  -0.41124  -0.40843  -0.40456
  Beta  occ. eigenvalues --   -0.40419  -0.40116  -0.39786  -0.39552  -0.39277
  Beta  occ. eigenvalues --   -0.39188  -0.38840  -0.38688  -0.38474  -0.38020
  Beta  occ. eigenvalues --   -0.37861  -0.37792  -0.37634  -0.37550  -0.36990
  Beta  occ. eigenvalues --   -0.36537  -0.36379  -0.36304  -0.36068  -0.35718
  Beta  occ. eigenvalues --   -0.35276  -0.35013  -0.34820  -0.34677  -0.33476
  Beta  occ. eigenvalues --   -0.32851  -0.32723  -0.32321  -0.31988  -0.30934
  Beta  occ. eigenvalues --   -0.30753  -0.30352  -0.28350  -0.27936  -0.27378
  Beta  occ. eigenvalues --   -0.27131  -0.25824  -0.25445  -0.25195  -0.24902
  Beta  occ. eigenvalues --   -0.23882  -0.22682  -0.22636  -0.21976  -0.21130
  Beta  occ. eigenvalues --   -0.19004  -0.17993
  Beta virt. eigenvalues --   -0.08616  -0.07478  -0.05111  -0.04698  -0.03912
  Beta virt. eigenvalues --   -0.02814  -0.01711  -0.00985  -0.00053   0.00270
  Beta virt. eigenvalues --    0.00839   0.01896   0.01952   0.02275   0.03538
  Beta virt. eigenvalues --    0.03649   0.03849   0.04625   0.04965   0.05494
  Beta virt. eigenvalues --    0.05620   0.05806   0.06451   0.06766   0.06859
  Beta virt. eigenvalues --    0.07077   0.07825   0.07914   0.08213   0.08316
  Beta virt. eigenvalues --    0.08572   0.08665   0.08957   0.09214   0.09531
  Beta virt. eigenvalues --    0.09856   0.10174   0.10200   0.10428   0.10897
  Beta virt. eigenvalues --    0.11105   0.11413   0.11625   0.11926   0.12187
  Beta virt. eigenvalues --    0.12363   0.12688   0.12795   0.13108   0.13332
  Beta virt. eigenvalues --    0.13557   0.13630   0.13819   0.14096   0.14386
  Beta virt. eigenvalues --    0.14392   0.14696   0.14917   0.14972   0.15165
  Beta virt. eigenvalues --    0.15384   0.15745   0.15855   0.16112   0.16261
  Beta virt. eigenvalues --    0.16470   0.16524   0.16759   0.17013   0.17120
  Beta virt. eigenvalues --    0.17378   0.17604   0.17907   0.18148   0.18283
  Beta virt. eigenvalues --    0.18453   0.18838   0.18916   0.18995   0.19374
  Beta virt. eigenvalues --    0.19474   0.19714   0.19899   0.20055   0.20317
  Beta virt. eigenvalues --    0.20451   0.20651   0.20743   0.20922   0.21244
  Beta virt. eigenvalues --    0.21548   0.21658   0.22151   0.22355   0.22462
  Beta virt. eigenvalues --    0.22674   0.22896   0.23164   0.23219   0.23354
  Beta virt. eigenvalues --    0.23744   0.23913   0.24127   0.24431   0.24629
  Beta virt. eigenvalues --    0.24882   0.25269   0.25394   0.25432   0.25598
  Beta virt. eigenvalues --    0.25725   0.25808   0.26063   0.26233   0.26437
  Beta virt. eigenvalues --    0.26872   0.26953   0.27359   0.27615   0.27715
  Beta virt. eigenvalues --    0.27999   0.28265   0.28398   0.28689   0.28827
  Beta virt. eigenvalues --    0.28985   0.29426   0.29668   0.29861   0.29955
  Beta virt. eigenvalues --    0.30330   0.30587   0.30615   0.30904   0.31232
  Beta virt. eigenvalues --    0.31577   0.31716   0.31874   0.31997   0.32155
  Beta virt. eigenvalues --    0.32586   0.32626   0.32802   0.33023   0.33263
  Beta virt. eigenvalues --    0.33616   0.33741   0.33923   0.33982   0.34230
  Beta virt. eigenvalues --    0.34468   0.34609   0.34655   0.35138   0.35240
  Beta virt. eigenvalues --    0.35815   0.35894   0.36345   0.36427   0.36571
  Beta virt. eigenvalues --    0.36776   0.36959   0.37252   0.37473   0.37663
  Beta virt. eigenvalues --    0.37710   0.37944   0.38118   0.38463   0.38711
  Beta virt. eigenvalues --    0.38808   0.39096   0.39263   0.39560   0.39683
  Beta virt. eigenvalues --    0.39938   0.40182   0.40496   0.40910   0.40953
  Beta virt. eigenvalues --    0.41106   0.41262   0.41316   0.41524   0.41629
  Beta virt. eigenvalues --    0.41999   0.42157   0.42379   0.42491   0.42674
  Beta virt. eigenvalues --    0.42864   0.42992   0.43281   0.43394   0.43489
  Beta virt. eigenvalues --    0.43780   0.43953   0.44019   0.44265   0.44360
  Beta virt. eigenvalues --    0.44423   0.44782   0.44932   0.45134   0.45198
  Beta virt. eigenvalues --    0.45442   0.45470   0.45782   0.45883   0.45942
  Beta virt. eigenvalues --    0.46086   0.46152   0.46271   0.46392   0.46554
  Beta virt. eigenvalues --    0.46642   0.46974   0.47065   0.47403   0.47476
  Beta virt. eigenvalues --    0.47591   0.47725   0.47805   0.47940   0.48188
  Beta virt. eigenvalues --    0.48347   0.48821   0.48909   0.49187   0.49397
  Beta virt. eigenvalues --    0.49543   0.49661   0.49887   0.50194   0.50350
  Beta virt. eigenvalues --    0.50412   0.50596   0.50896   0.50970   0.51119
  Beta virt. eigenvalues --    0.51316   0.51398   0.51540   0.51656   0.51751
  Beta virt. eigenvalues --    0.51972   0.52195   0.52349   0.52450   0.52524
  Beta virt. eigenvalues --    0.52695   0.52888   0.53054   0.53084   0.53640
  Beta virt. eigenvalues --    0.53885   0.54044   0.54304   0.54425   0.54574
  Beta virt. eigenvalues --    0.54810   0.54914   0.55093   0.55171   0.55628
  Beta virt. eigenvalues --    0.55721   0.55910   0.56158   0.56375   0.56543
  Beta virt. eigenvalues --    0.56636   0.56831   0.57176   0.57251   0.57640
  Beta virt. eigenvalues --    0.57713   0.58066   0.58362   0.58588   0.58830
  Beta virt. eigenvalues --    0.59097   0.59417   0.59609   0.59684   0.60090
  Beta virt. eigenvalues --    0.60360   0.60746   0.61025   0.61269   0.61435
  Beta virt. eigenvalues --    0.61892   0.62129   0.62424   0.62589   0.62771
  Beta virt. eigenvalues --    0.63177   0.63383   0.63513   0.63896   0.64020
  Beta virt. eigenvalues --    0.64433   0.64547   0.65013   0.65100   0.65389
  Beta virt. eigenvalues --    0.65628   0.66080   0.66199   0.66329   0.66886
  Beta virt. eigenvalues --    0.67031   0.67353   0.67617   0.67927   0.68338
  Beta virt. eigenvalues --    0.68701   0.68786   0.69242   0.69277   0.69451
  Beta virt. eigenvalues --    0.69655   0.70070   0.70252   0.70606   0.71019
  Beta virt. eigenvalues --    0.71203   0.71388   0.71821   0.72005   0.72020
  Beta virt. eigenvalues --    0.72267   0.72479   0.72695   0.73245   0.73294
  Beta virt. eigenvalues --    0.73599   0.73731   0.74199   0.74428   0.74703
  Beta virt. eigenvalues --    0.74899   0.75246   0.75576   0.76063   0.76589
  Beta virt. eigenvalues --    0.76847   0.77089   0.77219   0.77320   0.77586
  Beta virt. eigenvalues --    0.78001   0.78062   0.78522   0.78752   0.79002
  Beta virt. eigenvalues --    0.79374   0.79540   0.79877   0.80362   0.80468
  Beta virt. eigenvalues --    0.80593   0.80941   0.81485   0.81633   0.82094
  Beta virt. eigenvalues --    0.82313   0.82457   0.82990   0.83203   0.83481
  Beta virt. eigenvalues --    0.83733   0.84019   0.84083   0.84393   0.84826
  Beta virt. eigenvalues --    0.85056   0.85310   0.85876   0.85968   0.86180
  Beta virt. eigenvalues --    0.86492   0.87088   0.87335   0.87632   0.87926
  Beta virt. eigenvalues --    0.88088   0.88606   0.88740   0.89017   0.89121
[...]
  1680. RY*(   4) H  72                  0.00003     2.14030   
  1681. RY*(   5) H  72                  0.00000     2.97340   
  1682. RY*(   1) H  73                  0.00064     0.62708   
  1683. RY*(   2) H  73                  0.00008     2.33556   
  1684. RY*(   3) H  73                  0.00008     2.74376   
  1685. RY*(   4) H  73                  0.00006     2.49223   
  1686. RY*(   5) H  73                  0.00000     3.05965   
  1687. RY*(   1) H  74                  0.00034     1.85596   
  1688. RY*(   2) H  74                  0.00007     2.76206   
  1689. RY*(   3) H  74                  0.00007     2.47254   
  1690. RY*(   4) H  74                  0.00002     1.36793   
  1691. RY*(   5) H  74                  0.00001     2.97894   
  1692. RY*(   1) H  75                  0.00041     1.37404   
  1693. RY*(   2) H  75                  0.00008     1.98628   
  1694. RY*(   3) H  75                  0.00005     2.21274   
  1695. RY*(   4) H  75                  0.00004     2.38846   
  1696. RY*(   5) H  75                  0.00000     3.13863   
  1697. RY*(   1) H  76                  0.00035     1.36068   
  1698. RY*(   2) H  76                  0.00006     1.43617   
  1699. RY*(   3) H  76                  0.00006     2.49469   
  1700. RY*(   4) H  76                  0.00004     2.25243   
  1701. RY*(   5) H  76                  0.00001     3.08476   
  1702. RY*(   1) H  77                  0.00066     0.70675   
  1703. RY*(   2) H  77                  0.00036     2.09586   
  1704. RY*(   3) H  77                  0.00024     1.95660   
  1705. RY*(   4) H  77                  0.00013     2.19253   
  1706. RY*(   5) H  77                  0.00000     3.24050   
  1707. RY*(   1) H  78                  0.00100     0.85687   
  1708. RY*(   2) H  78                  0.00027     2.10312   
  1709. RY*(   3) H  78                  0.00023     1.78076   
  1710. RY*(   4) H  78                  0.00010     2.11239   
  1711. RY*(   5) H  78                  0.00001     3.26181   
  1712. RY*(   1) H  79                  0.00032     1.34788   
  1713. RY*(   2) H  79                  0.00009     2.02343   
  1714. RY*(   3) H  79                  0.00004     1.80242   
  1715. RY*(   4) H  79                  0.00004     2.35939   
  1716. RY*(   5) H  79                  0.00000     3.02367   
  1717. RY*(   1) H  80                  0.00043     1.33839   
  1718. RY*(   2) H  80                  0.00006     1.63181   
  1719. RY*(   3) H  80                  0.00007     2.51519   
  1720. RY*(   4) H  80                  0.00003     2.38830   
  1721. RY*(   5) H  80                  0.00001     3.13469   
  1722. RY*(   1) H  81                  0.00034     1.83481   
  1723. RY*(   2) H  81                  0.00007     2.75699   
  1724. RY*(   3) H  81                  0.00006     2.45614   
  1725. RY*(   4) H  81                  0.00003     1.38255   
  1726. RY*(   5) H  81                  0.00001     3.00492   
  1727. RY*(   1) H  82                  0.00068     0.59236   
  1728. RY*(   2) H  82                  0.00008     2.33691   
  1729. RY*(   3) H  82                  0.00008     2.73162   
  1730. RY*(   4) H  82                  0.00007     2.48432   
  1731. RY*(   5) H  82                  0.00000     3.05296   
  1732. RY*(   1) H  83                  0.00045     1.06912   
  1733. RY*(   2) H  83                  0.00008     1.69475   
  1734. RY*(   3) H  83                  0.00003     2.16527   
  1735. RY*(   4) H  83                  0.00002     2.05099   
  1736. RY*(   5) H  83                  0.00000     2.98895   
  1737. RY*(   1) H  84                  0.00025     1.41609   
  1738. RY*(   2) H  84                  0.00009     1.94351   
  1739. RY*(   3) H  84                  0.00003     2.14888   
  1740. RY*(   4) H  84                  0.00001     2.25963   
  1741. RY*(   5) H  84                  0.00000     2.46964   
  1742. RY*(   1) H  85                  0.00038     1.06584   
  1743. RY*(   2) H  85                  0.00008     1.81147   
  1744. RY*(   3) H  85                  0.00002     2.06849   
  1745. RY*(   4) H  85                  0.00003     2.22398   
  1746. RY*(   5) H  85                  0.00000     2.86823   
  1747. RY*(   1) H  86                  0.00062     0.76819   
  1748. RY*(   2) H  86                  0.00014     2.22502   
  1749. RY*(   3) H  86                  0.00012     2.28281   
  1750. RY*(   4) H  86                  0.00005     3.12260   
  1751. RY*(   5) H  86                  0.00000     3.31840   
  1752. RY*(   1) H  87                  0.00100     0.67977   
  1753. RY*(   2) H  87                  0.00015     2.14680   
  1754. RY*(   3) H  87                  0.00013     2.28025   
  1755. RY*(   4) H  87                  0.00005     3.11968   
  1756. RY*(   5) H  87                  0.00001     3.25353   
  1757. RY*(   1) H  88                  0.00031     1.35213   
  1758. RY*(   2) H  88                  0.00007     1.68379   
  1759. RY*(   3) H  88                  0.00006     1.94711   
  1760. RY*(   4) H  88                  0.00001     1.68213   
  1761. RY*(   5) H  88                  0.00001     2.84673   
  1762. RY*(   1) H  89                  0.00028     1.28366   
  1763. RY*(   2) H  89                  0.00009     1.62069   
  1764. RY*(   3) H  89                  0.00006     1.64745   
  1765. RY*(   4) H  89                  0.00000     2.75897   
  1766. RY*(   5) H  89                  0.00001     2.13139   
  1767. RY*(   1) H  90                  0.00034     1.25616   
  1768. RY*(   2) H  90                  0.00014     1.34378   
  1769. RY*(   3) H  90                  0.00007     1.96346   
  1770. RY*(   4) H  90                  0.00005     2.29116   
  1771. RY*(   5) H  90                  0.00002     3.01874   
  1772. RY*(   1) H  91                  0.00036     1.20280   
  1773. RY*(   2) H  91                  0.00009     1.75384   
  1774. RY*(   3) H  91                  0.00003     1.82026   
  1775. RY*(   4) H  91                  0.00001     2.83691   
  1776. RY*(   5) H  91                  0.00001     1.78371   
  1777. RY*(   1) H  92                  0.00049     0.95130   
  1778. RY*(   2) H  92                  0.00006     1.61062   
  1779. RY*(   3) H  92                  0.00007     2.10120   
  1780. RY*(   4) H  92                  0.00004     2.26519   
  1781. RY*(   5) H  92                  0.00001     2.67450   
  1782. RY*(   1) H  93                  0.00039     1.51544   
  1783. RY*(   2) H  93                  0.00012     1.03593   
  1784. RY*(   3) H  93                  0.00008     1.99002   
  1785. RY*(   4) H  93                  0.00005     2.27464   
  1786. RY*(   5) H  93                  0.00002     3.00217   
  1831. BD*(   1) C   7 - C   8          0.00770     0.34700   
  1832. BD*(   1) C   7 - H  57          0.00331     0.42887   
  1833. BD*(   1) C   7 - H  58          0.00278     0.41294   
  1834. BD*(   1) C   7 - H  59          0.00458     0.42485   
  1835. BD*(   1) C   8 - S   9          0.01799     0.17617   
  1836. BD*(   1) C   8 - H  60          0.00859     0.39461   
  1837. BD*(   1) C   8 - H  61          0.00519     0.41368   
  1838. BD*(   1) S   9 - C  10          0.01133     0.17597   
  1839. BD*(   1) S   9 -Fe  53          0.04510     0.31539   
  1840. BD*(   1) C  10 - H  54          0.00794     0.39977   
  1841. BD*(   1) C  10 - H  55          0.00620     0.39630   
  1842. BD*(   1) C  10 - H  56          0.00326     0.41274   
  1843. BD*(   1) C  11 - C  15          0.01182     0.59819   
  1844. BD*(   1) C  11 - C  42          0.01126     0.59240   
  1845. BD*(   1) C  11 - H  86          0.00705     0.46008   
  1846. BD*(   1) C  12 - C  18          0.01161     0.59789   
  1847. BD*(   2) C  12 - C  18          0.20627     0.05964  1861(v),1881(v),1859(v)
                                                    495(g),654(g)
  1848. BD*(   1) C  12 - C  25          0.01097     0.59373   
  1849. BD*(   1) C  12 - H  69          0.00675     0.45701   
  1850. BD*(   1) C  13 - C  28          0.01062     0.60309   
  1851. BD*(   1) C  13 - C  32          0.01096     0.59289   
  1852. BD*(   1) C  13 - H  65          0.00700     0.47037   
  1853. BD*(   1) C  14 - C  35          0.01164     0.60160   
  1854. BD*(   1) C  14 - C  39          0.01112     0.60022   
  1855. BD*(   2) C  14 - C  39          0.20664     0.05851  1916(v),198(v),1921(v)
                                                    1200(g),548(g),547(g)
  1856. BD*(   1) C  14 - H  87          0.00722     0.45853   
  1857. BD*(   1) C  15 - C  16          0.01587     0.59418   
  1858. BD*(   1) C  15 - N  49          0.01513     0.54446   
  1859. BD*(   2) C  15 - N  49          0.34001     0.01826  191(v),1861(v),1847(v)
                                                    206(v),575(g),1921(r)
                                                    1458(g),1898(r),204(v)
                                                    469(v),1827(r),1830(r)
  1860. BD*(   1) C  16 - C  17          0.01216     0.57918   
  1861. BD*(   2) C  16 - C  17          0.14011     0.07461  1847(v),1859(v),1869(v)
                                                    1867(v),1868(v)
  1862. BD*(   1) C  16 - C  20          0.01206     0.43026   
  1863. BD*(   1) C  17 - C  18          0.01541     0.58594   
  1864. BD*(   1) C  17 - C  19          0.00905     0.39737   
  1865. BD*(   1) C  18 - N  49          0.01557     0.53030   
  1866. BD*(   1) C  19 - H  70          0.00296     0.42103   
  1867. BD*(   1) C  19 - H  71          0.00478     0.41223   
  1868. BD*(   1) C  19 - H  72          0.00456     0.41281   
  1869. BD*(   1) C  20 - C  21          0.00642     0.37846   
  1870. BD*(   1) C  20 - H  73          0.00719     0.42109   
  1871. BD*(   1) C  20 - H  74          0.00668     0.42694   
  1872. BD*(   1) C  21 - C  22          0.03645     0.34293   
  1873. BD*(   1) C  21 - H  75          0.00676     0.39303   
  1874. BD*(   1) C  21 - H  76          0.00608     0.39576   
  1875. BD*(   1) C  22 - O  23          0.01547     0.58157   
  1876. BD*(   2) C  22 - O  23          0.09667     0.00350   
  1877. BD*(   1) C  22 - O  24          0.03991     0.43010   
  1878. BD*(   1) O  24 - H  77          0.00630     0.39088   
  1879. BD*(   1) C  25 - C  26          0.01514     0.57058   
  1880. BD*(   1) C  25 - N  50          0.01502     0.52679   
  1881. BD*(   2) C  25 - N  50          0.31413     0.02739  1847(v),1883(v),197(v)
                                                    834(g),205(v),1484(g),204(v)
                                                    206(v)
  1882. BD*(   1) C  26 - C  27          0.01325     0.56439   
  1883. BD*(   2) C  26 - C  27          0.14109     0.07212  1881(v),197(v),1892(v)
                                                    1893(v),1891(v),1889(v)
                                                    1890(v),1900(r)
  1884. BD*(   1) C  26 - C  29          0.00825     0.40572   
  1885. BD*(   1) C  27 - C  28          0.01857     0.56052   
  1886. BD*(   1) C  27 - C  30          0.01055     0.41297   
  1887. BD*(   1) C  28 - N  50          0.01496     0.52420   
  1888. BD*(   1) C  29 - H  66          0.00293     0.42589   
  1889. BD*(   1) C  29 - H  67          0.00451     0.42261   
  1890. BD*(   1) C  29 - H  68          0.00426     0.42017   
  1891. BD*(   1) C  30 - C  31          0.00253     0.37152   
  1892. BD*(   2) C  30 - C  31          0.01907     0.01852   
  1893. BD*(   1) C  30 - H  90          0.00730     0.46414   
  1894. BD*(   1) C  31 - H  88          0.00207     0.45505   
  1895. BD*(   1) C  31 - H  89          0.00279     0.45590   
  1896. BD*(   1) C  32 - C  33          0.01478     0.57831   
  1897. BD*(   1) C  32 - N  51          0.01514     0.53309   
  1898. BD*(   2) C  32 - N  51          0.34914     0.01710  192(v),1900(v),198(v),206(v)
                                                    205(v),1510(g),1016(g)
                                                    1859(r),1015(g),522(v)
                                                    204(v),1827(r)
  1899. BD*(   1) C  33 - C  34          0.01348     0.57289   
  1900. BD*(   2) C  33 - C  34          0.14755     0.07200  1898(v),198(v),1909(v)
                                                    1907(v),1905(v),1910(v)
                                                    1908(v),1883(r)
  1901. BD*(   1) C  33 - C  36          0.00845     0.40198   
  1902. BD*(   1) C  34 - C  35          0.01607     0.59376   
  1903. BD*(   1) C  34 - C  37          0.01070     0.39414   
  1904. BD*(   1) C  35 - N  51          0.01560     0.53291   
  1905. BD*(   1) C  36 - H  62          0.00411     0.42060   
  1906. BD*(   1) C  36 - H  63          0.00284     0.42996   
  1907. BD*(   1) C  36 - H  64          0.00450     0.41746   
  1908. BD*(   1) C  37 - C  38          0.00339     0.34504   
  1909. BD*(   2) C  37 - C  38          0.01506     0.01960   
  1910. BD*(   1) C  37 - H  93          0.00596     0.44982   
  1911. BD*(   1) C  38 - H  91          0.00235     0.44143   
  1912. BD*(   1) C  38 - H  92          0.00229     0.43983   
  1913. BD*(   1) C  39 - C  40          0.01522     0.57264   
  1914. BD*(   1) C  39 - N  52          0.01638     0.50617   
  1915. BD*(   1) C  40 - C  41          0.01158     0.58001   
  1916. BD*(   2) C  40 - C  41          0.13942     0.07081  1855(v),1921(v),1925(v)
                                                    1922(v),1924(v),1927(v)
  1917. BD*(   1) C  40 - C  43          0.00863     0.39817   
  1918. BD*(   1) C  41 - C  42          0.01540     0.57025   
  1919. BD*(   1) C  41 - C  44          0.01170     0.41836   
  1920. BD*(   1) C  42 - N  52          0.01576     0.51044   
  1921. BD*(   2) C  42 - N  52          0.34983     0.01044  191(v),1916(v),1855(v)
                                                    205(v),1276(g),1536(g)
                                                    1859(r),469(v),1827(r)
  1922. BD*(   1) C  43 - H  83          0.00490     0.41227   
  1923. BD*(   1) C  43 - H  84          0.00289     0.42044   
  1924. BD*(   1) C  43 - H  85          0.00387     0.41352   
  1925. BD*(   1) C  44 - C  45          0.00669     0.36420   
  1926. BD*(   1) C  44 - H  81          0.00620     0.42840   
  1927. BD*(   1) C  44 - H  82          0.00696     0.41381   
  1928. BD*(   1) C  45 - C  46          0.03013     0.32598   
  1929. BD*(   1) C  45 - H  79          0.00591     0.40413   
  1930. BD*(   1) C  45 - H  80          0.00674     0.39379   
  1931. BD*(   1) C  46 - O  47          0.02894     0.51416   
  1932. BD*(   1) C  46 - O  48          0.02238     0.42861   
  1933. BD*(   2) C  46 - O  48          0.12609     0.01625  1932(g),1929(v),1380(g)
  1934. BD*(   1) O  47 - H  78          0.00809     0.37427   
  1935. BD*(   1) N  49 -Fe  53          0.03048     0.38015   
  1936. BD*(   1) N  50 -Fe  53          0.03533     0.41541   
  1937. BD*(   1) N  51 -Fe  53          0.03126     0.39125   
  1938. BD*(   1) N  52 -Fe  53          0.03233     3.93326   
       -------------------------------
              Total Lewis  175.33909  ( 97.2895%)
        Valence non-Lewis    4.53003  (  2.5136%)
        Rydberg non-Lewis    0.35502  (  0.1970%)
       -------------------------------
            Total unit  2  180.22414  (100.0000%)
           Charge unit  2    1.77586
 1\1\GINC-NODE583\SP\UPBE1PBE\def2TZVP\C41H46Fe1N6O4S1(5)\ZHARTOVSKA\09
 -Feb-2023\0\\# PBE1PBE/def2TZVP empiricaldispersion=GD3BJ scf=maxcycle
 =999 geom=check pop=nbo\\451c_II_Q\\0,5\C,0,10.502,-8.068,15.869\C,0,1
 0.644,-9.486,16.396999\N,0,11.619,-10.33,15.982\C,0,9.793,-10.187,17.2
 33\C,0,11.389,-11.544,16.547001\N,0,10.269,-11.46,17.323999\C,0,9.895,
 -15.821,21.142\C,0,8.597,-15.027,20.951\S,0,8.145,-14.71,19.221001\C,0
 ,8.329,-16.290001,18.364\C,0,11.705,-15.239,17.132999\C,0,7.601,-13.45
 4,15.352\C,0,6.884,-11.032,19.466\C,0,11.276,-12.321,20.959999\C,0,10.
 634,-14.991,16.299\C,0,10.451,-15.547,15.05\C,0,9.297,-14.993,14.516\C
 ,0,8.779,-14.157,15.475\C,0,8.679,-15.258,13.158\C,0,11.329,-16.591,14
 .424\C,0,10.903,-17.937,14.962\C,0,11.76,-19.039,14.369\O,0,12.509,-18
 .781,13.431\O,0,11.265,-20.229,14.446\C,0,7.048,-12.619,16.299999\C,0,
 5.816,-11.979,16.18\C,0,5.558,-11.35,17.403\C,0,6.695,-11.546,18.19899
 9\C,0,4.912,-12.026,14.967\C,0,4.299,-10.621,17.829\C,0,3.091,-11.541,
 17.981001\C,0,8.016,-11.19,20.250999\C,0,8.243,-10.559,21.468\C,0,9.57
 ,-10.805,21.808001\C,0,10.044,-11.718,20.896999\C,0,7.266,-9.649,22.19
 0001\C,0,10.391,-10.166,22.92\C,0,9.85,-10.474,24.312\C,0,11.754,-13.2
 5,20.069\C,0,12.959,-13.93,20.212\C,0,13.04,-14.833,19.16\C,0,11.929,-
 14.616,18.347\C,0,13.966,-13.748,21.33\C,0,14.127,-15.851,18.915001\C,
 0,13.727,-17.250999,19.351999\C,0,14.825,-18.245001,18.978001\O,0,14.5
 05,-19.417999,18.767\O,0,16.094999,-17.969999,19.198999\N,0,9.61,-14.1
 48,16.551001\N,0,7.581,-12.332,17.521\N,0,9.124,-11.898,19.917\N,0,11.
 12,-13.676,18.927999\Fe,0,9.397,-12.981,18.23\H,0,9.23443055,-16.76417
 537,18.68062943\H,0,7.4962115,-16.9205846,18.59579223\H,0,8.36532102,-
 16.12090472,17.30807044\H,0,10.66213132,-15.16873672,21.50388693\H,0,9
 .73164255,-16.60665613,21.84978442\H,0,10.19688693,-16.24160921,20.205
 59615\H,0,7.79908784,-15.56925158,21.41381682\H,0,8.70098794,-14.08617
 34,21.44993067\H,0,7.70503554,-8.68113452,22.3140341\H,0,6.36781518,-9
 .56218931,21.61499845\H,0,7.03642536,-10.06218306,23.14993602\H,0,6.08
 208089,-10.45802097,19.88117926\H,0,5.39967071,-12.56130365,14.1792644
 6\H,0,3.99827207,-12.52089681,15.22210472\H,0,4.69897139,-11.02902635,
 14.6420964\H,0,7.06380432,-13.56644227,14.43348079\H,0,9.33123925,-15.
 88367787,12.58527741\H,0,7.7358462,-15.74719698,13.28467761\H,0,8.5335
 4272,-14.33024252,12.64515671\H,0,12.35129376,-16.40557373,14.67979791
 \H,0,11.21231458,-16.57240396,13.36054398\H,0,11.00868497,-17.94146342
 ,16.02675855\H,0,9.87826077,-18.11085632,14.7078672\H,0,11.84883582,-2
 0.98946987,14.49520687\H,0,15.18347621,-20.08643921,18.64675977\H,0,13
 .581641,-17.26438732,20.411995\H,0,12.81561389,-17.52844571,18.8648658
 8\H,0,15.00273178,-15.55772414,19.45535562\H,0,14.35511447,-15.8676296
 6,17.86973202\H,0,14.85590986,-13.30058808,20.93912532\H,0,13.55003991
 ,-13.11405414,22.08497672\H,0,14.20297489,-14.70086891,21.75518671\H,0
 ,12.41809323,-15.9707945,16.81539099\H,0,11.91684595,-12.04392394,21.7
 7082902\H,0,3.23371846,-12.58725552,18.15386174\H,0,2.10127342,-11.139
 81689,17.91471814\H,0,4.26112046,-9.56634418,18.00553962\H,0,10.526556
 14,-10.65308743,25.12138216\H,0,8.79382302,-10.51103682,24.47938717\H,
 0,11.25738165,-9.56354509,22.74299457\H,0,11.33850395,-7.8347268,15.24
 39042\H,0,9.59884518,-7.98772513,15.30087385\H,0,10.46867457,-7.383193
 17,16.69047978\H,0,8.92146944,-9.80030693,17.71859546\H,0,12.37438377,
 -10.10014517,15.36835343\H,0,11.98632049,-12.42056651,16.40650409\\Ver
 sion=ES64L-G16RevA.03\State=5-A\HF=-3879.3039612\S2=6.089659\S2-1=0.\S
 2A=6.00263\RMSD=2.110e-09\Dipole=0.0857185,0.3793485,-0.256291\Quadrup
 ole=-26.5960484,33.1796561,-6.5836077,11.8987522,-0.0032519,-15.148619
 3\PG=C01 [X(C41H46Fe1N6O4S1)]\\@


 WHEN A MATHEMATICIAN ENGAGED IN INVESTIGATING
 PHYSICAL ACTIONS AND RESULTS HAS ARRIVED AT HIS
 CONCLUSIONS, MAY THEY NOT BE EXPRESSED IN COMMON
 LANGUAGE AS FULLY, CLEARLY, AND DEFINITELY AS IN
 MATHEMATICAL FORMULAE?
           - LETTER FROM M. FARADAY TO J.C. MAXWELL, 1857.
 Job cpu time:       6 days 14 hours 45 minutes 31.3 seconds.
 Elapsed time:       1 days 15 hours 52 minutes 45.0 seconds.
 File lengths (MBytes):  RWF=   3452 Int=      0 D2E=      0 Chk=    303 Scr=      1
 Normal termination of Gaussian 16 at Thu Feb  9 11:58:51 2023.
