 Entering Gaussian System, Link 0=g16
 Input=/net/homes/chemie/zhartovska/work/BioModel/Konrad/451c/451c12/451c16/451c16.com
 Output=/net/homes/chemie/zhartovska/work/BioModel/Konrad/451c/451c12/451c16/451c16.log
 Initial command:
 /afs/math/software/gaussian/g16.A03/g16/l1.exe "/scratch/zhartovska_gaussian.DPoLVXH/Gau-12328.inp" -scrdir="/scratch/zhartovska_gaussian.DPoLVXH/"
 Entering Link 1 = /afs/math/software/gaussian/g16.A03/g16/l1.exe PID=     12329.
  
 Copyright (c) 1988,1990,1992,1993,1995,1998,2003,2009,2016,
            Gaussian, Inc.  All Rights Reserved.
  
 This is part of the Gaussian(R) 16 program.  It is based on
 the Gaussian(R) 09 system (copyright 2009, Gaussian, Inc.),
 the Gaussian(R) 03 system (copyright 2003, Gaussian, Inc.),
 the Gaussian(R) 98 system (copyright 1998, Gaussian, Inc.),
 the Gaussian(R) 94 system (copyright 1995, Gaussian, Inc.),
 the Gaussian 92(TM) system (copyright 1992, Gaussian, Inc.),
 the Gaussian 90(TM) system (copyright 1990, Gaussian, Inc.),
 the Gaussian 88(TM) system (copyright 1988, Gaussian, Inc.),
 the Gaussian 86(TM) system (copyright 1986, Carnegie Mellon
 University), and the Gaussian 82(TM) system (copyright 1983,
 Carnegie Mellon University). Gaussian is a federally registered
 trademark of Gaussian, Inc.
  
 This software contains proprietary and confidential information,
 including trade secrets, belonging to Gaussian, Inc.
  
 This software is provided under written license and may be
 used, copied, transmitted, or stored only in accord with that
 written license.
  
 The following legend is applicable only to US Government
 contracts under FAR:
  
                    RESTRICTED RIGHTS LEGEND
  
 Use, reproduction and disclosure by the US Government is
 subject to restrictions as set forth in subparagraphs (a)
 and (c) of the Commercial Computer Software - Restricted
 Rights clause in FAR 52.227-19.
  
 Gaussian, Inc.
 340 Quinnipiac St., Bldg. 40, Wallingford CT 06492
  
  
 ---------------------------------------------------------------
 Warning -- This program may not be used in any manner that
 competes with the business of Gaussian, Inc. or will provide
 assistance to any competitor of Gaussian, Inc.  The licensee
 of this program is prohibited from giving any competitor of
 Gaussian, Inc. access to this program.  By using this program,
 the user acknowledges that Gaussian, Inc. is engaged in the
 business of creating and licensing software in the field of
 computational chemistry and represents and warrants to the
 licensee that it is not a competitor of Gaussian, Inc. and that
 it will not use this program in any manner prohibited above.
 ---------------------------------------------------------------
  

 Cite this work as:
 Gaussian 16, Revision A.03,
 M. J. Frisch, G. W. Trucks, H. B. Schlegel, G. E. Scuseria, 
 M. A. Robb, J. R. Cheeseman, G. Scalmani, V. Barone, 
 G. A. Petersson, H. Nakatsuji, X. Li, M. Caricato, A. V. Marenich, 
 J. Bloino, B. G. Janesko, R. Gomperts, B. Mennucci, H. P. Hratchian, 
 J. V. Ortiz, A. F. Izmaylov, J. L. Sonnenberg, D. Williams-Young, 
 F. Ding, F. Lipparini, F. Egidi, J. Goings, B. Peng, A. Petrone, 
 T. Henderson, D. Ranasinghe, V. G. Zakrzewski, J. Gao, N. Rega, 
 G. Zheng, W. Liang, M. Hada, M. Ehara, K. Toyota, R. Fukuda, 
 J. Hasegawa, M. Ishida, T. Nakajima, Y. Honda, O. Kitao, H. Nakai, 
 T. Vreven, K. Throssell, J. A. Montgomery, Jr., J. E. Peralta, 
 F. Ogliaro, M. J. Bearpark, J. J. Heyd, E. N. Brothers, K. N. Kudin, 
 V. N. Staroverov, T. A. Keith, R. Kobayashi, J. Normand, 
 K. Raghavachari, A. P. Rendell, J. C. Burant, S. S. Iyengar, 
 J. Tomasi, M. Cossi, J. M. Millam, M. Klene, C. Adamo, R. Cammi, 
 J. W. Ochterski, R. L. Martin, K. Morokuma, O. Farkas, 
 J. B. Foresman, and D. J. Fox, Gaussian, Inc., Wallingford CT, 2016.
 
 ******************************************
 Gaussian 16:  ES64L-G16RevA.03 25-Dec-2016
                18-Feb-2023 
 ******************************************
 %nprocs=12
 Will use up to   12 processors via shared memory.
 %mem=16GB
 %oldchk=451c_III_D.chk
 %chk=451c_III_H.chk
 Copying data from "451c_III_D.chk" to current chk file "451c_III_H.chk"
 IOpt=  2 FromEx=T IUOpen= 4 IOptOp= 5 NList=   0 IFRang= 0 IUIn= 4 IUOut= 2.
 ----------------------------------------------------------------------
 # PBE1PBE/def2TZVP empiricaldispersion=GD3BJ scf=maxcycle=999 geom=che
 ck pop=nbo
 ----------------------------------------------------------------------
 1/29=2,38=1,172=1/1;
 2/12=2,40=1/2;
 3/5=44,7=101,11=2,14=-4,25=1,30=1,74=-13,124=41/1,2,3;
 4//1;
 5/5=2,7=999,38=5/2;
 6/7=2,8=2,9=2,10=2,28=1,40=1/1,7;
 99/5=1,9=1/99;
 ----------
 451c_III_H
 ----------
 Structure from the checkpoint file:  "451c_III_H.chk"
 Charge =  1 Multiplicity = 6
 Z-Matrix found in chk file.
 C,0,10.502,-8.068,15.869
 C,0,10.644,-9.486,16.396999
 N,0,11.619,-10.33,15.982
 C,0,9.793,-10.187,17.233
 C,0,11.389,-11.544,16.547001
 N,0,10.269,-11.46,17.323999
 C,0,9.895,-15.821,21.142
 C,0,8.597,-15.027,20.951
 S,0,8.145,-14.71,19.221001
 C,0,8.329,-16.290001,18.364
 C,0,11.705,-15.239,17.132999
 C,0,7.601,-13.454,15.352
 C,0,6.884,-11.032,19.466
 C,0,11.276,-12.321,20.959999
 C,0,10.634,-14.991,16.299
 C,0,10.451,-15.547,15.05
 C,0,9.297,-14.993,14.516
 C,0,8.779,-14.157,15.475
 C,0,8.679,-15.258,13.158
 C,0,11.329,-16.591,14.424
 C,0,10.903,-17.937,14.962
 C,0,11.76,-19.039,14.369
 O,0,12.509,-18.781,13.431
 O,0,11.265,-20.229,14.446
 C,0,7.048,-12.619,16.299999
 C,0,5.816,-11.979,16.18
 C,0,5.558,-11.35,17.403
 C,0,6.695,-11.546,18.198999
 C,0,4.912,-12.026,14.967
 C,0,4.299,-10.621,17.829
 C,0,3.091,-11.541,17.981001
 C,0,8.016,-11.19,20.250999
 C,0,8.243,-10.559,21.468
 C,0,9.57,-10.805,21.808001
 C,0,10.044,-11.718,20.896999
 C,0,7.266,-9.649,22.190001
 C,0,10.391,-10.166,22.92
 C,0,9.85,-10.474,24.312
 C,0,11.754,-13.25,20.069
 C,0,12.959,-13.93,20.212
 C,0,13.04,-14.833,19.16
 C,0,11.929,-14.616,18.347
 C,0,13.966,-13.748,21.33
 C,0,14.127,-15.851,18.915001
 C,0,13.727,-17.250999,19.351999
 C,0,14.825,-18.245001,18.978001
 O,0,14.505,-19.417999,18.767
 O,0,16.094999,-17.969999,19.198999
 N,0,9.61,-14.148,16.551001
 N,0,7.581,-12.332,17.521
 N,0,9.124,-11.898,19.917
 N,0,11.12,-13.676,18.927999
 Fe,0,9.397,-12.981,18.23
 H,0,9.23443055,-16.76417537,18.68062943
 H,0,7.4962115,-16.9205846,18.59579223
 H,0,8.36532102,-16.12090472,17.30807044
 H,0,10.66213132,-15.16873672,21.50388693
 H,0,9.73164255,-16.60665613,21.84978442
 H,0,10.19688693,-16.24160921,20.20559615
 H,0,7.79908784,-15.56925158,21.41381682
 H,0,8.70098794,-14.0861734,21.44993067
 H,0,7.70503554,-8.68113452,22.3140341
 H,0,6.36781518,-9.56218931,21.61499845
 H,0,7.03642536,-10.06218306,23.14993602
 H,0,6.08208089,-10.45802097,19.88117926
 H,0,5.39967071,-12.56130365,14.17926446
 H,0,3.99827207,-12.52089681,15.22210472
 H,0,4.69897139,-11.02902635,14.6420964
 H,0,7.06380432,-13.56644227,14.43348079
 H,0,9.33123925,-15.88367787,12.58527741
 H,0,7.7358462,-15.74719698,13.28467761
 H,0,8.53354272,-14.33024252,12.64515671
 H,0,12.35129376,-16.40557373,14.67979791
 H,0,11.21231458,-16.57240396,13.36054398
 H,0,11.00868497,-17.94146342,16.02675855
 H,0,9.87826077,-18.11085632,14.7078672
 H,0,11.84883582,-20.98946987,14.49520687
 H,0,15.18347621,-20.08643921,18.64675977
 H,0,13.581641,-17.26438732,20.411995
 H,0,12.81561389,-17.52844571,18.86486588
 H,0,15.00273178,-15.55772414,19.45535562
 H,0,14.35511447,-15.86762966,17.86973202
 H,0,14.85590986,-13.30058808,20.93912532
 H,0,13.55003991,-13.11405414,22.08497672
 H,0,14.20297489,-14.70086891,21.75518671
 H,0,12.41809323,-15.9707945,16.81539099
 H,0,11.91684595,-12.04392394,21.77082902
 H,0,3.23371846,-12.58725552,18.15386174
 H,0,2.10127342,-11.13981689,17.91471814
 H,0,4.26112046,-9.56634418,18.00553962
 H,0,10.52655614,-10.65308743,25.12138216
 H,0,8.79382302,-10.51103682,24.47938717
 H,0,11.25738165,-9.56354509,22.74299457
 H,0,11.33850395,-7.8347268,15.2439042
 H,0,9.59884518,-7.98772513,15.30087385
 H,0,10.46867457,-7.38319317,16.69047978
 H,0,8.92146944,-9.80030693,17.71859546
 H,0,12.37438377,-10.10014517,15.36835343
 H,0,11.98632049,-12.42056651,16.40650409
 Recover connectivity data from disk.
 Stoichiometry    C41H46FeN6O4S(1+,6)
 Framework group  C1[X(C41H46FeN6O4S)]
 Deg. of freedom   291
 Full point group                 C1      NOp   1
 Largest Abelian subgroup         C1      NOp   1
 Largest concise Abelian subgroup C1      NOp   1
                         Standard orientation:                         
 ---------------------------------------------------------------------
 Center     Atomic      Atomic             Coordinates (Angstroms)
 Number     Number       Type             X           Y           Z
 ---------------------------------------------------------------------
      1          6           0        3.393295   -0.854867    4.988401
      2          6           0        2.363275   -0.508978    3.925814
      3          7           0        1.034173   -0.453374    4.181899
      4          6           0        2.548730   -0.333957    2.565861
      5          6           0        0.390107   -0.245561    3.003801
      6          7           0        1.318737   -0.164601    2.005665
      7          6           0       -0.804237    2.327292   -2.792125
      8          6           0        0.522934    1.585453   -2.992157
      9         16           0        0.588841   -0.071685   -2.252399
     10          6           0       -0.945281   -0.892485   -2.739703
     11          6           0       -2.464636   -0.039004    0.573976
     12          6           0        0.876162   -3.466805    0.035230
     13          6           0        4.205148   -0.072686   -0.803207
     14          6           0        0.997857    3.324169    0.362075
     15          6           0       -1.853709   -1.271821    0.468959
     16          6           0       -2.489721   -2.489576    0.592193
     17          6           0       -1.519140   -3.475070    0.489427
     18          6           0       -0.327823   -2.833874    0.251662
     19          6           0       -1.702937   -4.976351    0.582639
     20          6           0       -3.967911   -2.687218    0.761274
     21          6           0       -4.603178   -2.620754   -0.607907
     22          6           0       -6.104652   -2.808629   -0.504068
     23          8           0       -6.593533   -3.177315    0.560110
     24          8           0       -6.698363   -3.148107   -1.599201
     25          6           0        2.084675   -2.853297   -0.219407
     26          6           0        3.273456   -3.519626   -0.510320
     27          6           0        4.220326   -2.545216   -0.844828
     28          6           0        3.600102   -1.303616   -0.648485
     29          6           0        3.462952   -5.021208   -0.521973
     30          6           0        5.633203   -2.753981   -1.352955
     31          6           0        5.688020   -3.369498   -2.748270
     32          6           0        3.614044    1.161679   -0.580603
     33          6           0        4.272903    2.384609   -0.614192
     34          6           0        3.384640    3.334519   -0.118506
     35          6           0        2.173060    2.701405    0.020806
     36          6           0        5.732350    2.595123   -0.974208
     37          6           0        3.669916    4.780095    0.265985
     38          6           0        4.113733    5.634418   -0.916541
     39          6           0       -0.223163    2.708062    0.484248
     40          6           0       -1.420507    3.374793    0.722392
     41          6           0       -2.427300    2.418638    0.693964
     42          6           0       -1.810867    1.178847    0.534883
     43          6           0       -1.592616    4.866560    0.927591
     44          6           0       -3.911939    2.654871    0.827976
     45          6           0       -4.629756    2.643062   -0.512010
     46          6           0       -6.135750    2.779124   -0.295250
     47          8           0       -6.894364    2.290104   -1.136802
     48          8           0       -6.623440    3.662712    0.552568
     49          7           0       -0.538125   -1.490692    0.259041
     50          7           0        2.300544   -1.509329   -0.286124
     51          7           0        2.330468    1.371782   -0.194892
     52          7           0       -0.464508    1.361805    0.363168
     53         26           0        0.909356   -0.042011    0.078999
     54          1           0       -1.763205   -0.210477   -2.635950
     55          1           0       -0.872090   -1.209195   -3.759133
     56          1           0       -1.109041   -1.743854   -2.112604
     57          1           0       -0.669468    3.113354   -2.078793
     58          1           0       -1.124585    2.742921   -3.724610
     59          1           0       -1.544673    1.643206   -2.433402
     60          1           0        0.702093    1.492746   -4.042969
     61          1           0        1.306711    2.176152   -2.565931
     62          1           0        6.241528    3.047782   -0.149139
     63          1           0        6.184250    1.651374   -1.197867
     64          1           0        5.800092    3.234614   -1.829405
     65          1           0        5.225619   -0.070834   -1.124974
     66          1           0        2.562912   -5.496855   -0.192445
     67          1           0        3.693658   -5.343888   -1.515729
     68          1           0        4.266252   -5.284430    0.134018
     69          1           0        0.873560   -4.536307    0.067760
     70          1           0       -2.714403   -5.195672    0.854182
     71          1           0       -1.483388   -5.422079   -0.365002
     72          1           0       -1.040800   -5.371360    1.324557
     73          1           0       -4.367881   -1.914633    1.384200
     74          1           0       -4.157510   -3.643312    1.202677
     75          1           0       -4.395937   -1.667575   -1.047679
     76          1           0       -4.192507   -3.391793   -1.225764
     77          1           0       -7.612299   -2.894853   -1.748141
     78          1           0       -7.837832    2.461083   -1.089534
     79          1           0       -4.281471    3.459997   -1.108848
     80          1           0       -4.425214    1.721909   -1.016530
     81          1           0       -4.069573    3.604252    1.295657
     82          1           0       -4.328473    1.889910    1.449455
     83          1           0       -1.880250    5.056404    1.940570
     84          1           0       -0.668352    5.364114    0.720043
     85          1           0       -2.350754    5.232324    0.267027
     86          1           0       -3.527649   -0.024263    0.695167
     87          1           0        1.036798    4.377121    0.548292
     88          1           0        4.849851   -3.277349   -3.406967
     89          1           0        6.564623   -3.893226   -3.067919
     90          1           0        6.505240   -2.495488   -0.789365
     91          1           0        3.783256    6.648875   -0.997553
     92          1           0        4.755637    5.219442   -1.665309
     93          1           0        3.569396    5.157137    1.262295
     94          1           0        2.913945   -0.916826    5.943013
     95          1           0        3.844928   -1.796211    4.754308
     96          1           0        4.146208   -0.095090    5.016005
     97          1           0        3.485807   -0.332006    2.049349
     98          1           0        0.603325   -0.548463    5.079300
     99          1           0       -0.669075   -0.159584    2.878737
 ---------------------------------------------------------------------
 Rotational constants (GHZ):           0.0685786           0.0444421           0.0343044
 Standard basis: def2TZVP (5D, 7F)
 There are  2206 symmetry adapted cartesian basis functions of A   symmetry.
 There are  1939 symmetry adapted basis functions of A   symmetry.
  1939 basis functions,  3140 primitive gaussians,  2206 cartesian basis functions
   206 alpha electrons      201 beta electrons
       nuclear repulsion energy      8941.1845041630 Hartrees.
 NAtoms=   99 NActive=   99 NUniq=   99 SFac= 1.00D+00 NAtFMM=   60 NAOKFM=T Big=T
 Integral buffers will be    131072 words long.
 Raffenetti 2 integral format.
 Two-electron integral symmetry is turned on.
 Nuclear repulsion after empirical dispersion term =     8941.0342898896 Hartrees.
 One-electron integrals computed using PRISM.
   1 Symmetry operations used in ECPInt.
 ECPInt:  NShTT=  299151 NPrTT=  925475 LenC2=  220991 LenP2D=  442747.
 LDataN:  DoStor=T MaxTD1= 6 Len=  172
 NBasis=  1939 RedAO= T EigKep=  2.33D-06  NBF=  1939
 NBsUse=  1939 1.00D-06 EigRej= -1.00D+00 NBFU=  1939
 ExpMin= 4.20D-02 ExpMax= 3.01D+05 ExpMxC= 2.91D+03 IAcc=3 IRadAn=         5 AccDes= 0.00D+00
 Harris functional with IExCor= 1009 and IRadAn=       5 diagonalized for initial guess.
 HarFok:  IExCor= 1009 AccDes= 0.00D+00 IRadAn=         5 IDoV= 1 UseB2=F ITyADJ=14
 ICtDFT=  3500011 ScaDFX=  1.000000  1.000000  1.000000  1.000000
 FoFCou: FMM=F IPFlag=           0 FMFlag=      100000 FMFlg1=        2001
         NFxFlg=           0 DoJE=T BraDBF=F KetDBF=T FulRan=T
         wScrn=  0.000000 ICntrl=       500 IOpCl=  0 I1Cent=   200000004 NGrid=           0
         NMat0=    1 NMatS0=      1 NMatT0=    0 NMatD0=    1 NMtDS0=    0 NMtDT0=    0
 Petite list used in FoFCou.
 Initial guess <Sx>= 0.0000 <Sy>= 0.0000 <Sz>= 2.5000 <S**2>= 8.7500 S= 2.5000
 Requested convergence on RMS density matrix=1.00D-08 within 999 cycles.
 Requested convergence on MAX density matrix=1.00D-06.
 Requested convergence on             energy=1.00D-06.
 No special actions if energy rises.
 EnCoef did   100 forward-backward iterations
 EnCoef did     8 forward-backward iterations
 Restarting incremental Fock formation.
 Restarting incremental Fock formation.
 SCF Done:  E(UPBE1PBE) =  -3879.15074287     A.U. after   45 cycles
            NFock= 45  Conv=0.20D-08     -V/T= 2.0029
 <Sx>= 0.0000 <Sy>= 0.0000 <Sz>= 2.5000 <S**2>= 8.7647 S= 2.5024
 <L.S>= 0.000000000000E+00
 Annihilation of the first spin contaminant:
 S**2 before annihilation     8.7647,   after     8.7501

 **********************************************************************

            Population analysis using the SCF density.

 **********************************************************************

 Orbital symmetries:
 Alpha Orbitals:
       Occupied  (A) (A) (A) (A) (A) (A) (A) (A) (A) (A) (A) (A)
                 (A) (A) (A) (A) (A) (A) (A) (A) (A) (A) (A) (A)
                 (A) (A) (A) (A) (A) (A) (A) (A) (A) (A) (A) (A)
                 (A) (A) (A) (A) (A) (A) (A) (A) (A) (A) (A) (A)
                 (A) (A) (A) (A) (A) (A) (A) (A) (A) (A) (A) (A)
                 (A) (A) (A) (A) (A) (A) (A) (A) (A) (A) (A) (A)
                 (A) (A) (A) (A) (A) (A) (A) (A) (A) (A) (A) (A)
                 (A) (A) (A) (A) (A) (A) (A) (A) (A) (A) (A) (A)
                 (A) (A) (A) (A) (A) (A) (A) (A) (A) (A) (A) (A)
                 (A) (A) (A) (A) (A) (A) (A) (A) (A) (A) (A) (A)
                 (A) (A) (A) (A) (A) (A) (A) (A) (A) (A) (A) (A)
                 (A) (A) (A) (A) (A) (A) (A) (A) (A) (A) (A) (A)
                 (A) (A) (A) (A) (A) (A) (A) (A) (A) (A) (A) (A)
                 (A) (A) (A) (A) (A) (A) (A) (A) (A) (A) (A) (A)
                 (A) (A) (A) (A) (A) (A) (A) (A) (A) (A) (A) (A)
                 (A) (A) (A) (A) (A) (A) (A) (A) (A) (A) (A) (A)
                 (A) (A) (A) (A) (A) (A) (A) (A) (A) (A) (A) (A)
                 (A) (A)
       Virtual   (A) (A) (A) (A) (A) (A) (A) (A) (A) (A) (A) (A)
                 (A) (A) (A) (A) (A) (A) (A) (A) (A) (A) (A) (A)
                 (A) (A) (A) (A) (A) (A) (A) (A) (A) (A) (A) (A)
                 (A) (A) (A) (A) (A) (A) (A) (A) (A) (A) (A) (A)
                 (A) (A) (A) (A) (A) (A) (A) (A) (A) (A) (A) (A)
                 (A) (A) (A) (A) (A) (A) (A) (A) (A) (A) (A) (A)
                 (A) (A) (A) (A) (A) (A) (A) (A) (A) (A) (A) (A)
                 (A) (A) (A) (A) (A) (A) (A) (A) (A) (A) (A) (A)
                 (A) (A) (A) (A) (A) (A) (A) (A) (A) (A) (A) (A)
                 (A) (A) (A) (A) (A) (A) (A) (A) (A) (A) (A) (A)
                 (A) (A) (A) (A) (A) (A) (A) (A) (A) (A) (A) (A)
                 (A) (A) (A) (A) (A) (A) (A) (A) (A) (A) (A) (A)
                 (A) (A) (A) (A) (A) (A) (A) (A) (A) (A) (A) (A)
                 (A) (A) (A) (A) (A) (A) (A) (A) (A) (A) (A) (A)
                 (A) (A) (A) (A) (A) (A) (A) (A) (A) (A) (A) (A)
                 (A) (A) (A) (A) (A) (A) (A) (A) (A) (A) (A) (A)
                 (A) (A) (A) (A) (A) (A) (A) (A) (A) (A) (A) (A)
                 (A) (A) (A) (A) (A) (A) (A) (A) (A) (A) (A) (A)
                 (A) (A) (A) (A) (A) (A) (A) (A) (A) (A) (A) (A)
                 (A) (A) (A) (A) (A) (A) (A) (A) (A) (A) (A) (A)
                 (A) (A) (A) (A) (A) (A) (A) (A) (A) (A) (A) (A)
                 (A) (A) (A) (A) (A) (A) (A) (A) (A) (A) (A) (A)
                 (A) (A) (A) (A) (A) (A) (A) (A) (A) (A) (A) (A)
                 (A) (A) (A) (A) (A) (A) (A) (A) (A) (A) (A) (A)
                 (A) (A) (A) (A) (A) (A) (A) (A) (A) (A) (A) (A)
                 (A) (A) (A) (A) (A) (A) (A) (A) (A) (A) (A) (A)
                 (A) (A) (A) (A) (A) (A) (A) (A) (A) (A) (A) (A)
                 (A) (A) (A) (A) (A) (A) (A) (A) (A) (A) (A) (A)
                 (A) (A) (A) (A) (A) (A) (A) (A) (A) (A) (A) (A)
                 (A) (A) (A) (A) (A) (A) (A) (A) (A) (A) (A) (A)
                 (A) (A) (A) (A) (A) (A) (A) (A) (A) (A) (A) (A)
                 (A) (A) (A) (A) (A) (A) (A) (A) (A) (A) (A) (A)
                 (A) (A) (A) (A) (A) (A) (A) (A) (A) (A) (A) (A)
                 (A) (A) (A) (A) (A) (A) (A) (A) (A) (A) (A) (A)
                 (A) (A) (A) (A) (A) (A) (A) (A) (A) (A) (A) (A)
                 (A) (A) (A) (A) (A) (A) (A) (A) (A) (A) (A) (A)
                 (A) (A) (A) (A) (A) (A) (A) (A) (A) (A) (A) (A)
                 (A) (A) (A) (A) (A) (A) (A) (A) (A) (A) (A) (A)
                 (A) (A) (A) (A) (A) (A) (A) (A) (A) (A) (A) (A)
                 (A) (A) (A) (A) (A) (A) (A) (A) (A) (A) (A) (A)
                 (A) (A) (A) (A) (A) (A) (A) (A) (A) (A) (A) (A)
                 (A) (A) (A) (A) (A) (A) (A) (A) (A) (A) (A) (A)
                 (A) (A) (A) (A) (A) (A) (A) (A) (A) (A) (A) (A)
                 (A) (A) (A) (A) (A) (A) (A) (A) (A) (A) (A) (A)
                 (A) (A) (A) (A) (A) (A) (A) (A) (A) (A) (A) (A)
                 (A) (A) (A) (A) (A) (A) (A) (A) (A) (A) (A) (A)
                 (A) (A) (A) (A) (A) (A) (A) (A) (A) (A) (A) (A)
                 (A) (A) (A) (A) (A) (A) (A) (A) (A) (A) (A) (A)
                 (A) (A) (A) (A) (A) (A) (A) (A) (A) (A) (A) (A)
                 (A) (A) (A) (A) (A) (A) (A) (A) (A) (A) (A) (A)
                 (A) (A) (A) (A) (A) (A) (A) (A) (A) (A) (A) (A)
                 (A) (A) (A) (A) (A) (A) (A) (A) (A) (A) (A) (A)
                 (A) (A) (A) (A) (A) (A) (A) (A) (A) (A) (A) (A)
                 (A) (A) (A) (A) (A) (A) (A) (A) (A) (A) (A) (A)
                 (A) (A) (A) (A) (A) (A) (A) (A) (A) (A) (A) (A)
                 (A) (A) (A) (A) (A) (A) (A) (A) (A) (A) (A) (A)
                 (A) (A) (A) (A) (A) (A) (A) (A) (A) (A) (A) (A)
                 (A) (A) (A) (A) (A) (A) (A) (A) (A) (A) (A) (A)
                 (A) (A) (A) (A) (A) (A) (A) (A) (A) (A) (A) (A)
                 (A) (A) (A) (A) (A) (A) (A) (A) (A) (A) (A) (A)
                 (A) (A) (A) (A) (A) (A) (A) (A) (A) (A) (A) (A)
                 (A) (A) (A) (A) (A) (A) (A) (A) (A) (A) (A) (A)
                 (A) (A) (A) (A) (A) (A) (A) (A) (A) (A) (A) (A)
                 (A) (A) (A) (A) (A) (A) (A) (A) (A) (A) (A) (A)
                 (A) (A) (A) (A) (A) (A) (A) (A) (A) (A) (A) (A)
                 (A) (A) (A) (A) (A) (A) (A) (A) (A) (A) (A) (A)
                 (A) (A) (A) (A) (A) (A) (A) (A) (A) (A) (A) (A)
                 (A) (A) (A) (A) (A) (A) (A) (A) (A) (A) (A) (A)
                 (A) (A) (A) (A) (A) (A) (A) (A) (A) (A) (A) (A)
                 (A) (A) (A) (A) (A) (A) (A) (A) (A) (A) (A) (A)
                 (A) (A) (A) (A) (A) (A) (A) (A) (A) (A) (A) (A)
                 (A) (A) (A) (A) (A) (A) (A) (A) (A) (A) (A) (A)
                 (A) (A) (A) (A) (A) (A) (A) (A) (A) (A) (A) (A)
                 (A) (A) (A) (A) (A) (A) (A) (A) (A) (A) (A) (A)
                 (A) (A) (A) (A) (A) (A) (A) (A) (A) (A) (A) (A)
                 (A) (A) (A) (A) (A) (A) (A) (A) (A) (A) (A) (A)
                 (A) (A) (A) (A) (A) (A) (A) (A) (A) (A) (A) (A)
                 (A) (A) (A) (A) (A) (A) (A) (A) (A) (A) (A) (A)
                 (A) (A) (A) (A) (A) (A) (A) (A) (A) (A) (A) (A)
                 (A) (A) (A) (A) (A) (A) (A) (A) (A) (A) (A) (A)
                 (A) (A) (A) (A) (A) (A) (A) (A) (A) (A) (A) (A)
                 (A) (A) (A) (A) (A) (A) (A) (A) (A) (A) (A) (A)
                 (A) (A) (A) (A) (A) (A) (A) (A) (A) (A) (A) (A)
                 (A) (A) (A) (A) (A) (A) (A) (A) (A) (A) (A) (A)
                 (A) (A) (A) (A) (A) (A) (A) (A) (A) (A) (A) (A)
                 (A) (A) (A) (A) (A) (A) (A) (A) (A) (A) (A) (A)
                 (A) (A) (A) (A) (A) (A) (A) (A) (A) (A) (A) (A)
                 (A) (A) (A) (A) (A) (A) (A) (A) (A) (A) (A) (A)
                 (A) (A) (A) (A) (A) (A) (A) (A) (A) (A) (A) (A)
                 (A) (A) (A) (A) (A) (A) (A) (A) (A) (A) (A) (A)
                 (A) (A) (A) (A) (A) (A) (A) (A) (A) (A) (A) (A)
                 (A) (A) (A) (A) (A) (A) (A) (A) (A) (A) (A) (A)
                 (A) (A) (A) (A) (A) (A) (A) (A) (A) (A) (A) (A)
                 (A) (A) (A) (A) (A) (A) (A) (A) (A) (A) (A) (A)
                 (A) (A) (A) (A) (A) (A) (A) (A) (A) (A) (A) (A)
                 (A) (A) (A) (A) (A) (A) (A) (A) (A) (A) (A) (A)
                 (A) (A) (A) (A) (A) (A) (A) (A) (A) (A) (A) (A)
                 (A) (A) (A) (A) (A) (A) (A) (A) (A) (A) (A) (A)
                 (A) (A) (A) (A) (A) (A) (A) (A) (A) (A) (A) (A)
                 (A) (A) (A) (A) (A) (A) (A) (A) (A) (A) (A) (A)
                 (A) (A) (A) (A) (A) (A) (A) (A) (A) (A) (A) (A)
                 (A) (A) (A) (A) (A) (A) (A) (A) (A) (A) (A) (A)
                 (A) (A) (A) (A) (A) (A) (A) (A) (A) (A) (A) (A)
                 (A) (A) (A) (A) (A) (A) (A) (A) (A) (A) (A) (A)
                 (A) (A) (A) (A) (A) (A) (A) (A) (A) (A) (A) (A)
                 (A) (A) (A) (A) (A) (A) (A) (A) (A) (A) (A) (A)
                 (A) (A) (A) (A) (A) (A) (A) (A) (A) (A) (A) (A)
                 (A) (A) (A) (A) (A) (A) (A) (A) (A) (A) (A) (A)
                 (A) (A) (A) (A) (A) (A) (A) (A) (A) (A) (A) (A)
                 (A) (A) (A) (A) (A) (A) (A) (A) (A) (A) (A) (A)
                 (A) (A) (A) (A) (A) (A) (A) (A) (A) (A) (A) (A)
                 (A) (A) (A) (A) (A) (A) (A) (A) (A) (A) (A) (A)
                 (A) (A) (A) (A) (A) (A) (A) (A) (A) (A) (A) (A)
                 (A) (A) (A) (A) (A) (A) (A) (A) (A) (A) (A) (A)
                 (A) (A) (A) (A) (A) (A) (A) (A) (A) (A) (A) (A)
                 (A) (A) (A) (A) (A) (A) (A) (A) (A) (A) (A) (A)
                 (A) (A) (A) (A) (A) (A) (A) (A) (A) (A) (A) (A)
                 (A) (A) (A) (A) (A) (A) (A) (A) (A) (A) (A) (A)
                 (A) (A) (A) (A) (A) (A) (A) (A) (A) (A) (A) (A)
                 (A) (A) (A) (A) (A) (A) (A) (A) (A) (A) (A) (A)
                 (A) (A) (A) (A) (A) (A) (A) (A) (A) (A) (A) (A)
                 (A) (A) (A) (A) (A) (A) (A) (A) (A) (A) (A) (A)
                 (A) (A) (A) (A) (A) (A) (A) (A) (A) (A) (A) (A)
                 (A) (A) (A) (A) (A) (A) (A) (A) (A) (A) (A) (A)
                 (A) (A) (A) (A) (A) (A) (A) (A) (A) (A) (A) (A)
                 (A) (A) (A) (A) (A) (A) (A) (A) (A) (A) (A) (A)
                 (A) (A) (A) (A) (A) (A) (A) (A) (A) (A) (A) (A)
                 (A) (A) (A) (A) (A) (A) (A) (A) (A) (A) (A) (A)
                 (A) (A) (A) (A) (A) (A) (A) (A) (A) (A) (A) (A)
                 (A) (A) (A) (A) (A) (A) (A) (A) (A) (A) (A) (A)
                 (A) (A) (A) (A) (A) (A) (A) (A) (A) (A) (A) (A)
                 (A) (A) (A) (A) (A) (A) (A) (A) (A) (A) (A) (A)
                 (A) (A) (A) (A) (A) (A) (A) (A) (A) (A) (A) (A)
                 (A) (A) (A) (A) (A) (A) (A) (A) (A) (A) (A) (A)
                 (A) (A) (A) (A) (A) (A) (A) (A) (A) (A) (A) (A)
                 (A) (A) (A) (A) (A) (A) (A) (A) (A) (A) (A) (A)
                 (A) (A) (A) (A) (A) (A) (A) (A) (A) (A) (A) (A)
                 (A) (A) (A) (A) (A) (A) (A) (A) (A) (A) (A) (A)
                 (A) (A) (A) (A) (A) (A) (A) (A) (A) (A) (A) (A)
                 (A) (A) (A) (A) (A) (A) (A) (A) (A) (A) (A) (A)
                 (A) (A) (A) (A) (A) (A) (A) (A) (A) (A) (A) (A)
                 (A) (A) (A) (A) (A) (A) (A) (A) (A) (A) (A) (A)
                 (A) (A) (A) (A) (A) (A) (A) (A) (A) (A) (A) (A)
                 (A) (A) (A) (A) (A) (A) (A) (A) (A) (A) (A) (A)
                 (A) (A) (A) (A) (A)
 Beta  Orbitals:
       Occupied  (A) (A) (A) (A) (A) (A) (A) (A) (A) (A) (A) (A)
                 (A) (A) (A) (A) (A) (A) (A) (A) (A) (A) (A) (A)
                 (A) (A) (A) (A) (A) (A) (A) (A) (A) (A) (A) (A)
                 (A) (A) (A) (A) (A) (A) (A) (A) (A) (A) (A) (A)
                 (A) (A) (A) (A) (A) (A) (A) (A) (A) (A) (A) (A)
                 (A) (A) (A) (A) (A) (A) (A) (A) (A) (A) (A) (A)
                 (A) (A) (A) (A) (A) (A) (A) (A) (A) (A) (A) (A)
                 (A) (A) (A) (A) (A) (A) (A) (A) (A) (A) (A) (A)
                 (A) (A) (A) (A) (A) (A) (A) (A) (A) (A) (A) (A)
                 (A) (A) (A) (A) (A) (A) (A) (A) (A) (A) (A) (A)
                 (A) (A) (A) (A) (A) (A) (A) (A) (A) (A) (A) (A)
                 (A) (A) (A) (A) (A) (A) (A) (A) (A) (A) (A) (A)
                 (A) (A) (A) (A) (A) (A) (A) (A) (A) (A) (A) (A)
                 (A) (A) (A) (A) (A) (A) (A) (A) (A) (A) (A) (A)
                 (A) (A) (A) (A) (A) (A) (A) (A) (A) (A) (A) (A)
                 (A) (A) (A) (A) (A) (A) (A) (A) (A) (A) (A) (A)
                 (A) (A) (A) (A) (A) (A) (A) (A) (A)
       Virtual   (A) (A) (A) (A) (A) (A) (A) (A) (A) (A) (A) (A)
                 (A) (A) (A) (A) (A) (A) (A) (A) (A) (A) (A) (A)
                 (A) (A) (A) (A) (A) (A) (A) (A) (A) (A) (A) (A)
                 (A) (A) (A) (A) (A) (A) (A) (A) (A) (A) (A) (A)
                 (A) (A) (A) (A) (A) (A) (A) (A) (A) (A) (A) (A)
                 (A) (A) (A) (A) (A) (A) (A) (A) (A) (A) (A) (A)
                 (A) (A) (A) (A) (A) (A) (A) (A) (A) (A) (A) (A)
                 (A) (A) (A) (A) (A) (A) (A) (A) (A) (A) (A) (A)
                 (A) (A) (A) (A) (A) (A) (A) (A) (A) (A) (A) (A)
                 (A) (A) (A) (A) (A) (A) (A) (A) (A) (A) (A) (A)
                 (A) (A) (A) (A) (A) (A) (A) (A) (A) (A) (A) (A)
                 (A) (A) (A) (A) (A) (A) (A) (A) (A) (A) (A) (A)
                 (A) (A) (A) (A) (A) (A) (A) (A) (A) (A) (A) (A)
                 (A) (A) (A) (A) (A) (A) (A) (A) (A) (A) (A) (A)
                 (A) (A) (A) (A) (A) (A) (A) (A) (A) (A) (A) (A)
                 (A) (A) (A) (A) (A) (A) (A) (A) (A) (A) (A) (A)
                 (A) (A) (A) (A) (A) (A) (A) (A) (A) (A) (A) (A)
                 (A) (A) (A) (A) (A) (A) (A) (A) (A) (A) (A) (A)
                 (A) (A) (A) (A) (A) (A) (A) (A) (A) (A) (A) (A)
                 (A) (A) (A) (A) (A) (A) (A) (A) (A) (A) (A) (A)
                 (A) (A) (A) (A) (A) (A) (A) (A) (A) (A) (A) (A)
                 (A) (A) (A) (A) (A) (A) (A) (A) (A) (A) (A) (A)
                 (A) (A) (A) (A) (A) (A) (A) (A) (A) (A) (A) (A)
                 (A) (A) (A) (A) (A) (A) (A) (A) (A) (A) (A) (A)
                 (A) (A) (A) (A) (A) (A) (A) (A) (A) (A) (A) (A)
                 (A) (A) (A) (A) (A) (A) (A) (A) (A) (A) (A) (A)
                 (A) (A) (A) (A) (A) (A) (A) (A) (A) (A) (A) (A)
                 (A) (A) (A) (A) (A) (A) (A) (A) (A) (A) (A) (A)
                 (A) (A) (A) (A) (A) (A) (A) (A) (A) (A) (A) (A)
                 (A) (A) (A) (A) (A) (A) (A) (A) (A) (A) (A) (A)
                 (A) (A) (A) (A) (A) (A) (A) (A) (A) (A) (A) (A)
                 (A) (A) (A) (A) (A) (A) (A) (A) (A) (A) (A) (A)
                 (A) (A) (A) (A) (A) (A) (A) (A) (A) (A) (A) (A)
                 (A) (A) (A) (A) (A) (A) (A) (A) (A) (A) (A) (A)
                 (A) (A) (A) (A) (A) (A) (A) (A) (A) (A) (A) (A)
                 (A) (A) (A) (A) (A) (A) (A) (A) (A) (A) (A) (A)
                 (A) (A) (A) (A) (A) (A) (A) (A) (A) (A) (A) (A)
                 (A) (A) (A) (A) (A) (A) (A) (A) (A) (A) (A) (A)
                 (A) (A) (A) (A) (A) (A) (A) (A) (A) (A) (A) (A)
                 (A) (A) (A) (A) (A) (A) (A) (A) (A) (A) (A) (A)
                 (A) (A) (A) (A) (A) (A) (A) (A) (A) (A) (A) (A)
                 (A) (A) (A) (A) (A) (A) (A) (A) (A) (A) (A) (A)
                 (A) (A) (A) (A) (A) (A) (A) (A) (A) (A) (A) (A)
                 (A) (A) (A) (A) (A) (A) (A) (A) (A) (A) (A) (A)
                 (A) (A) (A) (A) (A) (A) (A) (A) (A) (A) (A) (A)
                 (A) (A) (A) (A) (A) (A) (A) (A) (A) (A) (A) (A)
                 (A) (A) (A) (A) (A) (A) (A) (A) (A) (A) (A) (A)
                 (A) (A) (A) (A) (A) (A) (A) (A) (A) (A) (A) (A)
                 (A) (A) (A) (A) (A) (A) (A) (A) (A) (A) (A) (A)
                 (A) (A) (A) (A) (A) (A) (A) (A) (A) (A) (A) (A)
                 (A) (A) (A) (A) (A) (A) (A) (A) (A) (A) (A) (A)
                 (A) (A) (A) (A) (A) (A) (A) (A) (A) (A) (A) (A)
                 (A) (A) (A) (A) (A) (A) (A) (A) (A) (A) (A) (A)
                 (A) (A) (A) (A) (A) (A) (A) (A) (A) (A) (A) (A)
                 (A) (A) (A) (A) (A) (A) (A) (A) (A) (A) (A) (A)
                 (A) (A) (A) (A) (A) (A) (A) (A) (A) (A) (A) (A)
                 (A) (A) (A) (A) (A) (A) (A) (A) (A) (A) (A) (A)
                 (A) (A) (A) (A) (A) (A) (A) (A) (A) (A) (A) (A)
                 (A) (A) (A) (A) (A) (A) (A) (A) (A) (A) (A) (A)
                 (A) (A) (A) (A) (A) (A) (A) (A) (A) (A) (A) (A)
                 (A) (A) (A) (A) (A) (A) (A) (A) (A) (A) (A) (A)
                 (A) (A) (A) (A) (A) (A) (A) (A) (A) (A) (A) (A)
                 (A) (A) (A) (A) (A) (A) (A) (A) (A) (A) (A) (A)
                 (A) (A) (A) (A) (A) (A) (A) (A) (A) (A) (A) (A)
                 (A) (A) (A) (A) (A) (A) (A) (A) (A) (A) (A) (A)
                 (A) (A) (A) (A) (A) (A) (A) (A) (A) (A) (A) (A)
                 (A) (A) (A) (A) (A) (A) (A) (A) (A) (A) (A) (A)
                 (A) (A) (A) (A) (A) (A) (A) (A) (A) (A) (A) (A)
                 (A) (A) (A) (A) (A) (A) (A) (A) (A) (A) (A) (A)
                 (A) (A) (A) (A) (A) (A) (A) (A) (A) (A) (A) (A)
                 (A) (A) (A) (A) (A) (A) (A) (A) (A) (A) (A) (A)
                 (A) (A) (A) (A) (A) (A) (A) (A) (A) (A) (A) (A)
                 (A) (A) (A) (A) (A) (A) (A) (A) (A) (A) (A) (A)
                 (A) (A) (A) (A) (A) (A) (A) (A) (A) (A) (A) (A)
                 (A) (A) (A) (A) (A) (A) (A) (A) (A) (A) (A) (A)
                 (A) (A) (A) (A) (A) (A) (A) (A) (A) (A) (A) (A)
                 (A) (A) (A) (A) (A) (A) (A) (A) (A) (A) (A) (A)
                 (A) (A) (A) (A) (A) (A) (A) (A) (A) (A) (A) (A)
                 (A) (A) (A) (A) (A) (A) (A) (A) (A) (A) (A) (A)
                 (A) (A) (A) (A) (A) (A) (A) (A) (A) (A) (A) (A)
                 (A) (A) (A) (A) (A) (A) (A) (A) (A) (A) (A) (A)
                 (A) (A) (A) (A) (A) (A) (A) (A) (A) (A) (A) (A)
                 (A) (A) (A) (A) (A) (A) (A) (A) (A) (A) (A) (A)
                 (A) (A) (A) (A) (A) (A) (A) (A) (A) (A) (A) (A)
                 (A) (A) (A) (A) (A) (A) (A) (A) (A) (A) (A) (A)
                 (A) (A) (A) (A) (A) (A) (A) (A) (A) (A) (A) (A)
                 (A) (A) (A) (A) (A) (A) (A) (A) (A) (A) (A) (A)
                 (A) (A) (A) (A) (A) (A) (A) (A) (A) (A) (A) (A)
                 (A) (A) (A) (A) (A) (A) (A) (A) (A) (A) (A) (A)
                 (A) (A) (A) (A) (A) (A) (A) (A) (A) (A) (A) (A)
                 (A) (A) (A) (A) (A) (A) (A) (A) (A) (A) (A) (A)
                 (A) (A) (A) (A) (A) (A) (A) (A) (A) (A) (A) (A)
                 (A) (A) (A) (A) (A) (A) (A) (A) (A) (A) (A) (A)
                 (A) (A) (A) (A) (A) (A) (A) (A) (A) (A) (A) (A)
                 (A) (A) (A) (A) (A) (A) (A) (A) (A) (A) (A) (A)
                 (A) (A) (A) (A) (A) (A) (A) (A) (A) (A) (A) (A)
                 (A) (A) (A) (A) (A) (A) (A) (A) (A) (A) (A) (A)
                 (A) (A) (A) (A) (A) (A) (A) (A) (A) (A) (A) (A)
                 (A) (A) (A) (A) (A) (A) (A) (A) (A) (A) (A) (A)
                 (A) (A) (A) (A) (A) (A) (A) (A) (A) (A) (A) (A)
                 (A) (A) (A) (A) (A) (A) (A) (A) (A) (A) (A) (A)
                 (A) (A) (A) (A) (A) (A) (A) (A) (A) (A) (A) (A)
                 (A) (A) (A) (A) (A) (A) (A) (A) (A) (A) (A) (A)
                 (A) (A) (A) (A) (A) (A) (A) (A) (A) (A) (A) (A)
                 (A) (A) (A) (A) (A) (A) (A) (A) (A) (A) (A) (A)
                 (A) (A) (A) (A) (A) (A) (A) (A) (A) (A) (A) (A)
                 (A) (A) (A) (A) (A) (A) (A) (A) (A) (A) (A) (A)
                 (A) (A) (A) (A) (A) (A) (A) (A) (A) (A) (A) (A)
                 (A) (A) (A) (A) (A) (A) (A) (A) (A) (A) (A) (A)
                 (A) (A) (A) (A) (A) (A) (A) (A) (A) (A) (A) (A)
                 (A) (A) (A) (A) (A) (A) (A) (A) (A) (A) (A) (A)
                 (A) (A) (A) (A) (A) (A) (A) (A) (A) (A) (A) (A)
                 (A) (A) (A) (A) (A) (A) (A) (A) (A) (A) (A) (A)
                 (A) (A) (A) (A) (A) (A) (A) (A) (A) (A) (A) (A)
                 (A) (A) (A) (A) (A) (A) (A) (A) (A) (A) (A) (A)
                 (A) (A) (A) (A) (A) (A) (A) (A) (A) (A) (A) (A)
                 (A) (A) (A) (A) (A) (A) (A) (A) (A) (A) (A) (A)
                 (A) (A) (A) (A) (A) (A) (A) (A) (A) (A) (A) (A)
                 (A) (A) (A) (A) (A) (A) (A) (A) (A) (A) (A) (A)
                 (A) (A) (A) (A) (A) (A) (A) (A) (A) (A) (A) (A)
                 (A) (A) (A) (A) (A) (A) (A) (A) (A) (A) (A) (A)
                 (A) (A) (A) (A) (A) (A) (A) (A) (A) (A) (A) (A)
                 (A) (A) (A) (A) (A) (A) (A) (A) (A) (A) (A) (A)
                 (A) (A) (A) (A) (A) (A) (A) (A) (A) (A) (A) (A)
                 (A) (A) (A) (A) (A) (A) (A) (A) (A) (A) (A) (A)
                 (A) (A) (A) (A) (A) (A) (A) (A) (A) (A) (A) (A)
                 (A) (A) (A) (A) (A) (A) (A) (A) (A) (A) (A) (A)
                 (A) (A) (A) (A) (A) (A) (A) (A) (A) (A) (A) (A)
                 (A) (A) (A) (A) (A) (A) (A) (A) (A) (A) (A) (A)
                 (A) (A) (A) (A) (A) (A) (A) (A) (A) (A) (A) (A)
                 (A) (A) (A) (A) (A) (A) (A) (A) (A) (A) (A) (A)
                 (A) (A) (A) (A) (A) (A) (A) (A) (A) (A) (A) (A)
                 (A) (A) (A) (A) (A) (A) (A) (A) (A) (A) (A) (A)
                 (A) (A) (A) (A) (A) (A) (A) (A) (A) (A) (A) (A)
                 (A) (A) (A) (A) (A) (A) (A) (A) (A) (A) (A) (A)
                 (A) (A) (A) (A) (A) (A) (A) (A) (A) (A) (A) (A)
                 (A) (A) (A) (A) (A) (A) (A) (A) (A) (A) (A) (A)
                 (A) (A) (A) (A) (A) (A) (A) (A) (A) (A) (A) (A)
                 (A) (A) (A) (A) (A) (A) (A) (A) (A) (A) (A) (A)
                 (A) (A) (A) (A) (A) (A) (A) (A) (A) (A) (A) (A)
                 (A) (A) (A) (A) (A) (A) (A) (A) (A) (A) (A) (A)
                 (A) (A) (A) (A) (A) (A) (A) (A) (A) (A) (A) (A)
                 (A) (A) (A) (A) (A) (A) (A) (A) (A) (A) (A) (A)
                 (A) (A) (A) (A) (A) (A) (A) (A) (A) (A) (A) (A)
                 (A) (A) (A) (A) (A) (A) (A) (A) (A) (A)
 The electronic state is 6-A.
 Alpha  occ. eigenvalues -- -256.53793 -89.12493 -30.36582 -26.18250 -26.18225
 Alpha  occ. eigenvalues --  -26.18158 -19.34874 -19.32181 -19.25760 -19.24404
 Alpha  occ. eigenvalues --  -14.56037 -14.50735 -14.47200 -14.47045 -14.46726
 Alpha  occ. eigenvalues --  -14.46671 -10.43396 -10.42583 -10.39782 -10.36820
 Alpha  occ. eigenvalues --  -10.35139 -10.34988 -10.34786 -10.34708 -10.34645
 Alpha  occ. eigenvalues --  -10.34629 -10.34541 -10.34431 -10.34426 -10.34222
 Alpha  occ. eigenvalues --  -10.34095 -10.33936 -10.33422 -10.33331 -10.32669
 Alpha  occ. eigenvalues --  -10.32637 -10.32432 -10.32405 -10.32361 -10.32283
 Alpha  occ. eigenvalues --  -10.32266 -10.32241 -10.32199 -10.32192 -10.32180
 Alpha  occ. eigenvalues --  -10.31884 -10.31858 -10.31722 -10.31490 -10.31419
 Alpha  occ. eigenvalues --  -10.31001 -10.30490 -10.30007 -10.29955 -10.29793
 Alpha  occ. eigenvalues --  -10.29543 -10.29297  -8.10480  -6.04100  -6.03835
 Alpha  occ. eigenvalues --   -6.03356  -3.79224  -2.55358  -2.55334  -2.55194
 Alpha  occ. eigenvalues --   -1.25492  -1.22361  -1.16593  -1.10725  -1.10180
 Alpha  occ. eigenvalues --   -1.09569  -1.08655  -1.08044  -1.06058  -1.02538
 Alpha  occ. eigenvalues --   -0.95112  -0.93954  -0.93388  -0.93203  -0.92459
 Alpha  occ. eigenvalues --   -0.92086  -0.91655  -0.90886  -0.90584  -0.89067
 Alpha  occ. eigenvalues --   -0.88354  -0.86575  -0.86360  -0.86200  -0.84234
 Alpha  occ. eigenvalues --   -0.83266  -0.82362  -0.82080  -0.81257  -0.80178
 Alpha  occ. eigenvalues --   -0.79567  -0.79426  -0.78372  -0.78195  -0.76806
 Alpha  occ. eigenvalues --   -0.76670  -0.76473  -0.73423  -0.72874  -0.72000
 Alpha  occ. eigenvalues --   -0.71611  -0.70823  -0.70293  -0.69841  -0.69390
 Alpha  occ. eigenvalues --   -0.67141  -0.66739  -0.65834  -0.65310  -0.63897
 Alpha  occ. eigenvalues --   -0.62753  -0.62596  -0.62565  -0.61928  -0.60811
 Alpha  occ. eigenvalues --   -0.59980  -0.59666  -0.59242  -0.59209  -0.59119
 Alpha  occ. eigenvalues --   -0.58860  -0.58744  -0.58289  -0.57646  -0.57516
 Alpha  occ. eigenvalues --   -0.57420  -0.56720  -0.56552  -0.56247  -0.55738
 Alpha  occ. eigenvalues --   -0.55681  -0.55471  -0.55049  -0.54934  -0.54754
 Alpha  occ. eigenvalues --   -0.54561  -0.54132  -0.54004  -0.53693  -0.53603
 Alpha  occ. eigenvalues --   -0.53555  -0.53301  -0.53003  -0.52925  -0.52393
 Alpha  occ. eigenvalues --   -0.52123  -0.51858  -0.51699  -0.51476  -0.51255
 Alpha  occ. eigenvalues --   -0.51086  -0.50748  -0.50704  -0.50457  -0.50386
 Alpha  occ. eigenvalues --   -0.50087  -0.49844  -0.49806  -0.49604  -0.49304
 Alpha  occ. eigenvalues --   -0.48956  -0.48902  -0.48315  -0.48030  -0.47939
 Alpha  occ. eigenvalues --   -0.47736  -0.47442  -0.47150  -0.47127  -0.46812
 Alpha  occ. eigenvalues --   -0.46368  -0.46020  -0.45867  -0.45772  -0.45555
 Alpha  occ. eigenvalues --   -0.44828  -0.44113  -0.44074  -0.44035  -0.43733
 Alpha  occ. eigenvalues --   -0.43500  -0.42765  -0.41408  -0.40146  -0.39232
 Alpha  occ. eigenvalues --   -0.39078  -0.37962  -0.37856  -0.35789  -0.35743
 Alpha  occ. eigenvalues --   -0.34669  -0.34420  -0.34159  -0.33715  -0.33263
 Alpha  occ. eigenvalues --   -0.32753  -0.32172  -0.31923  -0.31421  -0.30303
 Alpha  occ. eigenvalues --   -0.29803
 Alpha virt. eigenvalues --   -0.18533  -0.18200  -0.14039  -0.12680  -0.11045
 Alpha virt. eigenvalues --   -0.09655  -0.09295  -0.08564  -0.06780  -0.06224
 Alpha virt. eigenvalues --   -0.06084  -0.04975  -0.04694  -0.04418  -0.03945
 Alpha virt. eigenvalues --   -0.03649  -0.03138  -0.03000  -0.02631  -0.02402
 Alpha virt. eigenvalues --   -0.02140  -0.01867  -0.01710  -0.01676  -0.01236
 Alpha virt. eigenvalues --   -0.01063  -0.00607  -0.00370  -0.00121   0.00154
 Alpha virt. eigenvalues --    0.00502   0.00592   0.01014   0.01114   0.01442
 Alpha virt. eigenvalues --    0.01968   0.02181   0.02413   0.02595   0.02875
 Alpha virt. eigenvalues --    0.03275   0.03433   0.03664   0.03775   0.04154
 Alpha virt. eigenvalues --    0.04294   0.04556   0.04647   0.05086   0.05157
 Alpha virt. eigenvalues --    0.05285   0.05476   0.05681   0.05903   0.05988
 Alpha virt. eigenvalues --    0.06134   0.06386   0.06503   0.06673   0.07157
 Alpha virt. eigenvalues --    0.07209   0.07376   0.07562   0.07672   0.07928
 Alpha virt. eigenvalues --    0.08344   0.08520   0.08596   0.08801   0.09116
 Alpha virt. eigenvalues --    0.09307   0.09464   0.09564   0.09613   0.09822
 Alpha virt. eigenvalues --    0.09938   0.10405   0.10578   0.10885   0.11092
 Alpha virt. eigenvalues --    0.11204   0.11279   0.11647   0.11895   0.12170
 Alpha virt. eigenvalues --    0.12284   0.12693   0.12841   0.12864   0.12961
 Alpha virt. eigenvalues --    0.13108   0.13369   0.13544   0.13708   0.14029
 Alpha virt. eigenvalues --    0.14124   0.14192   0.14572   0.14880   0.15036
 Alpha virt. eigenvalues --    0.15312   0.15493   0.15609   0.15723   0.15875
 Alpha virt. eigenvalues --    0.16096   0.16220   0.16585   0.16956   0.17113
 Alpha virt. eigenvalues --    0.17202   0.17528   0.17926   0.18028   0.18283
 Alpha virt. eigenvalues --    0.18495   0.18781   0.18918   0.19036   0.19226
 Alpha virt. eigenvalues --    0.19479   0.19772   0.19919   0.20005   0.20309
 Alpha virt. eigenvalues --    0.20642   0.20714   0.21031   0.21173   0.21492
 Alpha virt. eigenvalues --    0.21660   0.22126   0.22175   0.22422   0.22598
 Alpha virt. eigenvalues --    0.22843   0.23154   0.23260   0.23329   0.23653
 Alpha virt. eigenvalues --    0.23851   0.23922   0.24069   0.24313   0.24667
 Alpha virt. eigenvalues --    0.24806   0.24897   0.25068   0.25260   0.25408
 Alpha virt. eigenvalues --    0.25900   0.26224   0.26499   0.26611   0.26954
 Alpha virt. eigenvalues --    0.27141   0.27221   0.27573   0.27636   0.27811
 Alpha virt. eigenvalues --    0.28333   0.28441   0.28509   0.28630   0.28920
 Alpha virt. eigenvalues --    0.29132   0.29341   0.29709   0.29795   0.30029
 Alpha virt. eigenvalues --    0.30213   0.30344   0.30740   0.30879   0.31229
 Alpha virt. eigenvalues --    0.31430   0.31500   0.31679   0.31800   0.32004
 Alpha virt. eigenvalues --    0.32119   0.32507   0.32782   0.32907   0.33133
 Alpha virt. eigenvalues --    0.33332   0.33491   0.33790   0.33947   0.34070
 Alpha virt. eigenvalues --    0.34293   0.34361   0.34437   0.34721   0.34879
 Alpha virt. eigenvalues --    0.35077   0.35362   0.35426   0.35638   0.35987
 Alpha virt. eigenvalues --    0.36075   0.36216   0.36331   0.36513   0.36685
 Alpha virt. eigenvalues --    0.36841   0.36981   0.37131   0.37264   0.37419
 Alpha virt. eigenvalues --    0.37558   0.37822   0.37988   0.38052   0.38267
 Alpha virt. eigenvalues --    0.38528   0.38583   0.38710   0.38853   0.38956
 Alpha virt. eigenvalues --    0.39143   0.39536   0.39734   0.39823   0.40003
 Alpha virt. eigenvalues --    0.40166   0.40306   0.40515   0.40649   0.40908
 Alpha virt. eigenvalues --    0.41008   0.41236   0.41515   0.41721   0.41829
 Alpha virt. eigenvalues --    0.42045   0.42205   0.42249   0.42302   0.42489
 Alpha virt. eigenvalues --    0.42840   0.43022   0.43059   0.43113   0.43265
 Alpha virt. eigenvalues --    0.43653   0.43742   0.43784   0.43964   0.44322
 Alpha virt. eigenvalues --    0.44384   0.44546   0.44813   0.44956   0.45118
 Alpha virt. eigenvalues --    0.45222   0.45503   0.45694   0.45838   0.45922
 Alpha virt. eigenvalues --    0.46148   0.46447   0.46689   0.46723   0.46898
 Alpha virt. eigenvalues --    0.47004   0.47098   0.47410   0.47927   0.47955
 Alpha virt. eigenvalues --    0.48293   0.48318   0.48640   0.48738   0.49174
 Alpha virt. eigenvalues --    0.49394   0.49653   0.49903   0.50069   0.50251
 Alpha virt. eigenvalues --    0.50697   0.50915   0.51020   0.51217   0.51606
 Alpha virt. eigenvalues --    0.51911   0.52121   0.52558   0.52839   0.53013
 Alpha virt. eigenvalues --    0.53258   0.53410   0.53658   0.53943   0.54208
 Alpha virt. eigenvalues --    0.54276   0.54598   0.54887   0.54964   0.55364
 Alpha virt. eigenvalues --    0.55747   0.55993   0.56092   0.56389   0.56606
 Alpha virt. eigenvalues --    0.56785   0.57237   0.57351   0.57980   0.58172
 Alpha virt. eigenvalues --    0.58370   0.58614   0.58803   0.59226   0.59573
 Alpha virt. eigenvalues --    0.59803   0.59931   0.60178   0.60257   0.60549
 Alpha virt. eigenvalues --    0.60857   0.61275   0.61415   0.61655   0.61761
 Alpha virt. eigenvalues --    0.62190   0.62553   0.62673   0.62905   0.63004
 Alpha virt. eigenvalues --    0.63504   0.63659   0.64071   0.64330   0.64568
 Alpha virt. eigenvalues --    0.64649   0.64938   0.65454   0.65666   0.66193
 Alpha virt. eigenvalues --    0.66575   0.66729   0.67303   0.67351   0.67475
 Alpha virt. eigenvalues --    0.67803   0.67896   0.68203   0.68500   0.68765
 Alpha virt. eigenvalues --    0.68892   0.69350   0.69598   0.69832   0.70442
 Alpha virt. eigenvalues --    0.70523   0.70827   0.71413   0.71729   0.71928
 Alpha virt. eigenvalues --    0.72360   0.72498   0.72779   0.73196   0.73301
 Alpha virt. eigenvalues --    0.73852   0.74110   0.74395   0.74552   0.74950
 Alpha virt. eigenvalues --    0.75019   0.75331   0.75427   0.75964   0.76114
 Alpha virt. eigenvalues --    0.76285   0.76504   0.77294   0.77480   0.77762
 Alpha virt. eigenvalues --    0.77976   0.78501   0.78857   0.78964   0.79266
 Alpha virt. eigenvalues --    0.79616   0.79680   0.80005   0.80399   0.80621
 Alpha virt. eigenvalues --    0.80923   0.81021   0.81508   0.82057   0.82305
 Alpha virt. eigenvalues --    0.82390   0.83027   0.83123   0.83430   0.83483
 Alpha virt. eigenvalues --    0.83751   0.84205   0.84453   0.84625   0.84850
 Alpha virt. eigenvalues --    0.85125   0.85177   0.85366   0.85715   0.85844
 Alpha virt. eigenvalues --    0.86563   0.86787   0.86958   0.87103   0.87278
 Alpha virt. eigenvalues --    0.87637   0.87820   0.87985   0.88198   0.88276
 Alpha virt. eigenvalues --    0.88789   0.89179   0.89304   0.89595   0.89923
 Alpha virt. eigenvalues --    0.90318   0.90468   0.90772   0.90896   0.91250
 Alpha virt. eigenvalues --    0.91477   0.91544   0.91782   0.92267   0.92635
 Alpha virt. eigenvalues --    0.92944   0.93209   0.93314   0.93486   0.93663
 Alpha virt. eigenvalues --    0.94290   0.94378   0.94600   0.94904   0.95342
 Alpha virt. eigenvalues --    0.95583   0.95882   0.96004   0.96189   0.96522
 Alpha virt. eigenvalues --    0.96845   0.96977   0.97050   0.97154   0.97862
 Alpha virt. eigenvalues --    0.97926   0.98162   0.98358   0.98637   0.98843
 Alpha virt. eigenvalues --    0.99401   0.99641   1.00038   1.00205   1.00569
 Alpha virt. eigenvalues --    1.00818   1.01092   1.01668   1.01791   1.02236
 Alpha virt. eigenvalues --    1.02641   1.02979   1.03259   1.03911   1.04090
 Alpha virt. eigenvalues --    1.04466   1.04507   1.04817   1.05192   1.05393
 Alpha virt. eigenvalues --    1.05666   1.06003   1.06345   1.06665   1.06764
 Alpha virt. eigenvalues --    1.07213   1.07522   1.07800   1.07852   1.08270
 Alpha virt. eigenvalues --    1.08949   1.09096   1.09329   1.09491   1.10250
 Alpha virt. eigenvalues --    1.10423   1.10724   1.10905   1.11586   1.12150
 Alpha virt. eigenvalues --    1.12463   1.12548   1.12875   1.13155   1.13573
 Alpha virt. eigenvalues --    1.14348   1.14694   1.14896   1.15481   1.15706
 Alpha virt. eigenvalues --    1.16274   1.16474   1.16825   1.17084   1.17731
 Alpha virt. eigenvalues --    1.18033   1.18312   1.18849   1.19171   1.19342
 Alpha virt. eigenvalues --    1.20004   1.20222   1.20523   1.20745   1.20863
 Alpha virt. eigenvalues --    1.21164   1.21557   1.21583   1.21803   1.22224
 Alpha virt. eigenvalues --    1.22632   1.23222   1.23275   1.23435   1.23983
 Alpha virt. eigenvalues --    1.24111   1.24647   1.24746   1.24876   1.25519
 Alpha virt. eigenvalues --    1.25793   1.26230   1.26709   1.27092   1.27535
 Alpha virt. eigenvalues --    1.27853   1.28161   1.28545   1.28636   1.29534
 Alpha virt. eigenvalues --    1.29769   1.30491   1.30731   1.31271   1.31690
 Alpha virt. eigenvalues --    1.32600   1.32845   1.33078   1.33297   1.33856
 Alpha virt. eigenvalues --    1.34455   1.34887   1.35433   1.36282   1.36614
 Alpha virt. eigenvalues --    1.36911   1.37128   1.37327   1.37684   1.38253
 Alpha virt. eigenvalues --    1.38662   1.38935   1.39202   1.39282   1.39529
 Alpha virt. eigenvalues --    1.39837   1.40212   1.40440   1.40609   1.40819
 Alpha virt. eigenvalues --    1.41361   1.41602   1.41995   1.42321   1.42604
 Alpha virt. eigenvalues --    1.42718   1.43295   1.43760   1.43991   1.44272
 Alpha virt. eigenvalues --    1.44400   1.44460   1.44738   1.45145   1.45276
 Alpha virt. eigenvalues --    1.45588   1.45999   1.46153   1.46309   1.46675
 Alpha virt. eigenvalues --    1.46979   1.47199   1.47461   1.47729   1.48058
 Alpha virt. eigenvalues --    1.48136   1.48214   1.48490   1.48806   1.48947
 Alpha virt. eigenvalues --    1.49122   1.49566   1.49615   1.49839   1.50127
 Alpha virt. eigenvalues --    1.50453   1.50820   1.51209   1.51288   1.51728
 Alpha virt. eigenvalues --    1.51972   1.52141   1.52305   1.52471   1.52894
 Alpha virt. eigenvalues --    1.53049   1.53225   1.53788   1.53945   1.54112
 Alpha virt. eigenvalues --    1.54350   1.54726   1.54949   1.55160   1.55459
 Alpha virt. eigenvalues --    1.55575   1.56199   1.56391   1.56651   1.56830
 Alpha virt. eigenvalues --    1.57030   1.57272   1.57580   1.57759   1.57900
 Alpha virt. eigenvalues --    1.58122   1.58309   1.58822   1.59188   1.59265
 Alpha virt. eigenvalues --    1.59504   1.59898   1.60369   1.60397   1.60962
 Alpha virt. eigenvalues --    1.61316   1.61634   1.61837   1.62094   1.62487
 Alpha virt. eigenvalues --    1.62902   1.63049   1.63463   1.63523   1.63813
 Alpha virt. eigenvalues --    1.63909   1.64336   1.64747   1.65001   1.65400
 Alpha virt. eigenvalues --    1.65618   1.66068   1.66130   1.66252   1.66752
 Alpha virt. eigenvalues --    1.67295   1.67408   1.67718   1.67870   1.68273
 Alpha virt. eigenvalues --    1.68325   1.69084   1.69335   1.69680   1.69971
 Alpha virt. eigenvalues --    1.70109   1.70818   1.71202   1.71254   1.71974
 Alpha virt. eigenvalues --    1.72310   1.72618   1.73029   1.73248   1.73634
 Alpha virt. eigenvalues --    1.73935   1.74206   1.74870   1.75023   1.75507
 Alpha virt. eigenvalues --    1.75597   1.76020   1.76402   1.76686   1.76850
 Alpha virt. eigenvalues --    1.77324   1.77527   1.78134   1.78409   1.79031
 Alpha virt. eigenvalues --    1.79273   1.79640   1.80222   1.80396   1.80742
 Alpha virt. eigenvalues --    1.80762   1.81063   1.81471   1.82153   1.82253
 Alpha virt. eigenvalues --    1.82687   1.83295   1.83717   1.83797   1.84385
 Alpha virt. eigenvalues --    1.84701   1.84790   1.85189   1.85395   1.85607
 Alpha virt. eigenvalues --    1.85882   1.86278   1.86639   1.86960   1.87351
 Alpha virt. eigenvalues --    1.87446   1.87625   1.87841   1.88391   1.88687
 Alpha virt. eigenvalues --    1.88938   1.89160   1.89560   1.89804   1.90511
 Alpha virt. eigenvalues --    1.90615   1.90737   1.91183   1.91283   1.91722
 Alpha virt. eigenvalues --    1.91930   1.92386   1.92465   1.93185   1.93344
 Alpha virt. eigenvalues --    1.93911   1.94057   1.94489   1.94668   1.94956
 Alpha virt. eigenvalues --    1.95044   1.95779   1.96004   1.96505   1.96873
 Alpha virt. eigenvalues --    1.97250   1.97674   1.98267   1.98536   1.98692
 Alpha virt. eigenvalues --    1.98947   1.99585   2.00143   2.00209   2.00599
 Alpha virt. eigenvalues --    2.01053   2.01435   2.01670   2.01843   2.02093
 Alpha virt. eigenvalues --    2.02626   2.02823   2.03197   2.03726   2.03964
 Alpha virt. eigenvalues --    2.04131   2.04347   2.04724   2.04956   2.05103
 Alpha virt. eigenvalues --    2.05641   2.05650   2.06550   2.06755   2.06790
 Alpha virt. eigenvalues --    2.06976   2.07019   2.07636   2.08004   2.08956
 Alpha virt. eigenvalues --    2.09464   2.09672   2.10146   2.10267   2.10437
 Alpha virt. eigenvalues --    2.10906   2.11207   2.11587   2.11884   2.11978
 Alpha virt. eigenvalues --    2.12456   2.12593   2.12958   2.13379   2.13593
 Alpha virt. eigenvalues --    2.14150   2.14203   2.14677   2.14857   2.15088
 Alpha virt. eigenvalues --    2.15326   2.16230   2.16645   2.17061   2.17926
 Alpha virt. eigenvalues --    2.18180   2.18305   2.18664   2.18820   2.19487
 Alpha virt. eigenvalues --    2.19662   2.20420   2.20764   2.20928   2.21162
 Alpha virt. eigenvalues --    2.21484   2.22562   2.22914   2.23075   2.23190
 Alpha virt. eigenvalues --    2.23356   2.23916   2.24186   2.24423   2.24529
 Alpha virt. eigenvalues --    2.24979   2.25322   2.25542   2.26163   2.26376
 Alpha virt. eigenvalues --    2.26673   2.26892   2.27019   2.27912   2.28526
 Alpha virt. eigenvalues --    2.29086   2.29311   2.29358   2.29787   2.30172
 Alpha virt. eigenvalues --    2.30400   2.30417   2.30726   2.31240   2.31456
 Alpha virt. eigenvalues --    2.31691   2.32089   2.32550   2.32727   2.33146
 Alpha virt. eigenvalues --    2.33854   2.33974   2.34640   2.34692   2.35130
 Alpha virt. eigenvalues --    2.35737   2.36047   2.36367   2.36657   2.37069
 Alpha virt. eigenvalues --    2.37276   2.37644   2.37937   2.38771   2.38994
 Alpha virt. eigenvalues --    2.39076   2.39347   2.39803   2.40229   2.40840
 Alpha virt. eigenvalues --    2.41465   2.41939   2.42388   2.42758   2.43146
 Alpha virt. eigenvalues --    2.43638   2.43792   2.44097   2.44603   2.44957
 Alpha virt. eigenvalues --    2.45493   2.45674   2.46053   2.46267   2.46412
 Alpha virt. eigenvalues --    2.46690   2.46877   2.47610   2.47968   2.48235
 Alpha virt. eigenvalues --    2.48569   2.48621   2.49081   2.49383   2.49419
 Alpha virt. eigenvalues --    2.49524   2.49820   2.50246   2.50468   2.50664
 Alpha virt. eigenvalues --    2.50994   2.51334   2.51686   2.51833   2.52511
 Alpha virt. eigenvalues --    2.52699   2.53200   2.53383   2.53549   2.54091
 Alpha virt. eigenvalues --    2.54246   2.54625   2.54746   2.54884   2.55323
 Alpha virt. eigenvalues --    2.55736   2.55965   2.56287   2.56383   2.56473
 Alpha virt. eigenvalues --    2.56967   2.57269   2.57754   2.57896   2.58146
 Alpha virt. eigenvalues --    2.58697   2.58808   2.59113   2.59251   2.59526
 Alpha virt. eigenvalues --    2.59768   2.60283   2.60444   2.60830   2.61103
 Alpha virt. eigenvalues --    2.61252   2.61701   2.62016   2.62407   2.62592
 Alpha virt. eigenvalues --    2.62878   2.63128   2.63351   2.63804   2.63961
 Alpha virt. eigenvalues --    2.64360   2.64593   2.64903   2.65631   2.66171
 Alpha virt. eigenvalues --    2.66235   2.66535   2.66760   2.67276   2.67761
 Alpha virt. eigenvalues --    2.68048   2.68255   2.68515   2.68766   2.68867
 Alpha virt. eigenvalues --    2.69305   2.69738   2.70017   2.70261   2.70482
 Alpha virt. eigenvalues --    2.70739   2.71021   2.71197   2.71695   2.71963
 Alpha virt. eigenvalues --    2.72201   2.72498   2.72757   2.73315   2.73605
 Alpha virt. eigenvalues --    2.73874   2.74321   2.74483   2.74850   2.75422
 Alpha virt. eigenvalues --    2.75601   2.76317   2.76529   2.76904   2.77168
 Alpha virt. eigenvalues --    2.77577   2.77815   2.78027   2.78304   2.78732
 Alpha virt. eigenvalues --    2.79215   2.79536   2.79954   2.80388   2.80750
 Alpha virt. eigenvalues --    2.81267   2.81491   2.81777   2.81936   2.82529
 Alpha virt. eigenvalues --    2.82998   2.83480   2.83846   2.84006   2.84111
 Alpha virt. eigenvalues --    2.85028   2.85200   2.85588   2.85749   2.85835
 Alpha virt. eigenvalues --    2.86101   2.86296   2.86705   2.87140   2.87685
 Alpha virt. eigenvalues --    2.88162   2.88449   2.88618   2.88957   2.89153
 Alpha virt. eigenvalues --    2.89547   2.89577   2.89917   2.90072   2.90298
 Alpha virt. eigenvalues --    2.90674   2.90942   2.90981   2.91500   2.91818
 Alpha virt. eigenvalues --    2.92247   2.92495   2.92879   2.92973   2.93124
 Alpha virt. eigenvalues --    2.93457   2.94024   2.94094   2.94444   2.94770
 Alpha virt. eigenvalues --    2.95124   2.95215   2.95355   2.95665   2.96271
 Alpha virt. eigenvalues --    2.96945   2.96998   2.97141   2.97560   2.97957
 Alpha virt. eigenvalues --    2.98175   2.98403   2.98633   2.98833   2.99106
 Alpha virt. eigenvalues --    2.99675   2.99829   3.00211   3.00419   3.00518
 Alpha virt. eigenvalues --    3.01178   3.01305   3.01573   3.01731   3.01930
 Alpha virt. eigenvalues --    3.02469   3.02689   3.02812   3.03078   3.03146
 Alpha virt. eigenvalues --    3.03969   3.04238   3.04376   3.04594   3.04901
 Alpha virt. eigenvalues --    3.05414   3.05634   3.05781   3.06013   3.06186
 Alpha virt. eigenvalues --    3.06524   3.06666   3.07132   3.07342   3.07435
 Alpha virt. eigenvalues --    3.07831   3.07898   3.07967   3.08474   3.08672
 Alpha virt. eigenvalues --    3.08859   3.09142   3.09358   3.09549   3.09890
 Alpha virt. eigenvalues --    3.10269   3.10631   3.10960   3.11262   3.11310
 Alpha virt. eigenvalues --    3.11726   3.11979   3.12125   3.12286   3.12634
 Alpha virt. eigenvalues --    3.12793   3.12991   3.13120   3.13767   3.14066
 Alpha virt. eigenvalues --    3.14309   3.14579   3.14779   3.15156   3.15275
 Alpha virt. eigenvalues --    3.15410   3.15657   3.15831   3.16409   3.16480
 Alpha virt. eigenvalues --    3.17052   3.17092   3.17293   3.17515   3.17636
 Alpha virt. eigenvalues --    3.17964   3.18248   3.18483   3.18797   3.18825
 Alpha virt. eigenvalues --    3.19048   3.19234   3.19418   3.19472   3.20235
 Alpha virt. eigenvalues --    3.20415   3.20632   3.21051   3.21152   3.21303
 Alpha virt. eigenvalues --    3.21510   3.21870   3.22151   3.22415   3.22738
 Alpha virt. eigenvalues --    3.22853   3.23309   3.23380   3.23458   3.23725
 Alpha virt. eigenvalues --    3.23914   3.24605   3.24897   3.24965   3.25457
 Alpha virt. eigenvalues --    3.25648   3.25861   3.26041   3.26419   3.26526
 Alpha virt. eigenvalues --    3.26810   3.26945   3.27366   3.27674   3.27839
 Alpha virt. eigenvalues --    3.27958   3.28170   3.28369   3.28687   3.28868
 Alpha virt. eigenvalues --    3.29057   3.29329   3.29414   3.29613   3.30070
 Alpha virt. eigenvalues --    3.30187   3.30510   3.30668   3.30914   3.31219
 Alpha virt. eigenvalues --    3.31685   3.32004   3.32144   3.32386   3.32744
 Alpha virt. eigenvalues --    3.32941   3.33346   3.33429   3.34003   3.34273
 Alpha virt. eigenvalues --    3.34670   3.34929   3.35343   3.35379   3.35546
 Alpha virt. eigenvalues --    3.35922   3.36111   3.36528   3.36854   3.36945
 Alpha virt. eigenvalues --    3.36998   3.37364   3.37875   3.38019   3.38397
 Alpha virt. eigenvalues --    3.38754   3.39010   3.39232   3.39975   3.40173
 Alpha virt. eigenvalues --    3.40564   3.40870   3.40950   3.41357   3.41825
 Alpha virt. eigenvalues --    3.41887   3.42193   3.42347   3.42630   3.43108
 Alpha virt. eigenvalues --    3.43197   3.43831   3.43936   3.44292   3.44409
 Alpha virt. eigenvalues --    3.44531   3.45079   3.45220   3.46235   3.46478
 Alpha virt. eigenvalues --    3.46663   3.46825   3.47065   3.47566   3.47803
 Alpha virt. eigenvalues --    3.48122   3.48543   3.48832   3.49050   3.49527
 Alpha virt. eigenvalues --    3.49795   3.49996   3.50377   3.50901   3.51540
 Alpha virt. eigenvalues --    3.51641   3.52042   3.52101   3.52553   3.53122
 Alpha virt. eigenvalues --    3.53412   3.53510   3.54160   3.54633   3.54962
 Alpha virt. eigenvalues --    3.55258   3.55479   3.55732   3.56125   3.56485
 Alpha virt. eigenvalues --    3.56853   3.57361   3.57526   3.58294   3.58526
 Alpha virt. eigenvalues --    3.58807   3.59230   3.59561   3.59891   3.60258
 Alpha virt. eigenvalues --    3.60871   3.61151   3.61600   3.62095   3.62429
 Alpha virt. eigenvalues --    3.63117   3.63168   3.63810   3.64145   3.64572
 Alpha virt. eigenvalues --    3.64880   3.65161   3.65210   3.65671   3.65821
 Alpha virt. eigenvalues --    3.65965   3.66281   3.66831   3.67120   3.67488
 Alpha virt. eigenvalues --    3.67585   3.68036   3.68486   3.69055   3.69414
 Alpha virt. eigenvalues --    3.69628   3.69915   3.70979   3.71174   3.72119
 Alpha virt. eigenvalues --    3.72686   3.73300   3.73375   3.74094   3.74424
 Alpha virt. eigenvalues --    3.74612   3.75072   3.75626   3.75994   3.76731
 Alpha virt. eigenvalues --    3.77214   3.77383   3.77854   3.78203   3.78440
 Alpha virt. eigenvalues --    3.79089   3.79166   3.79872   3.80062   3.80551
 Alpha virt. eigenvalues --    3.80793   3.80842   3.81344   3.81851   3.81990
 Alpha virt. eigenvalues --    3.82339   3.82422   3.82951   3.83124   3.83759
 Alpha virt. eigenvalues --    3.84731   3.84855   3.85084   3.85810   3.85980
 Alpha virt. eigenvalues --    3.86318   3.86942   3.87533   3.87879   3.88522
 Alpha virt. eigenvalues --    3.89012   3.89087   3.89401   3.89915   3.90613
 Alpha virt. eigenvalues --    3.90791   3.91091   3.91413   3.92374   3.92787
 Alpha virt. eigenvalues --    3.93073   3.93142   3.93561   3.94312   3.95463
 Alpha virt. eigenvalues --    3.96129   3.96385   3.97099   3.97487   3.98216
 Alpha virt. eigenvalues --    3.98556   3.99271   3.99338   3.99848   4.00486
 Alpha virt. eigenvalues --    4.01303   4.01783   4.02005   4.02612   4.02929
 Alpha virt. eigenvalues --    4.03585   4.04284   4.04650   4.05250   4.06115
 Alpha virt. eigenvalues --    4.06778   4.08031   4.08378   4.08650   4.08987
 Alpha virt. eigenvalues --    4.09572   4.09962   4.10252   4.11287   4.11312
 Alpha virt. eigenvalues --    4.11787   4.12704   4.13062   4.13513   4.13608
 Alpha virt. eigenvalues --    4.14156   4.14541   4.15173   4.15535   4.16299
 Alpha virt. eigenvalues --    4.16625   4.17296   4.17569   4.17871   4.18440
 Alpha virt. eigenvalues --    4.18601   4.19036   4.19535   4.19859   4.20613
 Alpha virt. eigenvalues --    4.21036   4.21517   4.21950   4.22648   4.23266
 Alpha virt. eigenvalues --    4.24611   4.25525   4.25880   4.26066   4.26759
 Alpha virt. eigenvalues --    4.27225   4.27553   4.29018   4.29699   4.29921
 Alpha virt. eigenvalues --    4.30281   4.30714   4.31320   4.31467   4.31922
 Alpha virt. eigenvalues --    4.32396   4.32872   4.33210   4.33410   4.33938
 Alpha virt. eigenvalues --    4.34400   4.34799   4.35437   4.35510   4.35628
 Alpha virt. eigenvalues --    4.36512   4.36921   4.37822   4.38823   4.39268
 Alpha virt. eigenvalues --    4.39477   4.40516   4.41316   4.41698   4.42094
 Alpha virt. eigenvalues --    4.42458   4.43480   4.43787   4.44482   4.45078
 Alpha virt. eigenvalues --    4.46140   4.47223   4.47563   4.48064   4.48346
 Alpha virt. eigenvalues --    4.49855   4.50097   4.50994   4.51138   4.51288
 Alpha virt. eigenvalues --    4.51711   4.52573   4.53022   4.53513   4.53855
 Alpha virt. eigenvalues --    4.55287   4.56316   4.56899   4.57094   4.58168
 Alpha virt. eigenvalues --    4.58888   4.59045   4.60067   4.60679   4.61100
 Alpha virt. eigenvalues --    4.61550   4.62329   4.63191   4.63423   4.63994
 Alpha virt. eigenvalues --    4.64025   4.64698   4.65177   4.65781   4.66210
 Alpha virt. eigenvalues --    4.66350   4.67056   4.67389   4.69121   4.69889
 Alpha virt. eigenvalues --    4.70565   4.70762   4.71520   4.72092   4.72708
 Alpha virt. eigenvalues --    4.73855   4.74542   4.75078   4.75519   4.76172
 Alpha virt. eigenvalues --    4.76982   4.77216   4.77849   4.79149   4.79921
 Alpha virt. eigenvalues --    4.80480   4.81204   4.82212   4.82504   4.84087
 Alpha virt. eigenvalues --    4.84984   4.85955   4.86630   4.87157   4.87842
 Alpha virt. eigenvalues --    4.88260   4.88549   4.89231   4.89956   4.91160
 Alpha virt. eigenvalues --    4.91992   4.92507   4.93329   4.93903   4.94290
 Alpha virt. eigenvalues --    4.95166   4.95305   4.97006   4.97900   4.99097
 Alpha virt. eigenvalues --    4.99332   4.99865   5.01274   5.01520   5.01955
 Alpha virt. eigenvalues --    5.02762   5.03699   5.05890   5.07838   5.08259
 Alpha virt. eigenvalues --    5.08555   5.10307   5.10882   5.11678   5.12052
 Alpha virt. eigenvalues --    5.12826   5.13350   5.13789   5.13986   5.14917
 Alpha virt. eigenvalues --    5.16104   5.16886   5.17433   5.18423   5.20049
 Alpha virt. eigenvalues --    5.20621   5.20904   5.21363   5.22513   5.23380
 Alpha virt. eigenvalues --    5.24492   5.24952   5.26928   5.27465   5.28670
 Alpha virt. eigenvalues --    5.29083   5.30841   5.31276   5.31610   5.31881
 Alpha virt. eigenvalues --    5.32349   5.33323   5.34932   5.36155   5.37999
 Alpha virt. eigenvalues --    5.40114   5.40851   5.41395   5.41930   5.43248
 Alpha virt. eigenvalues --    5.43545   5.44896   5.45185   5.48158   5.48940
 Alpha virt. eigenvalues --    5.49838   5.50516   5.50956   5.52455   5.52915
 Alpha virt. eigenvalues --    5.54867   5.55938   5.56677   5.56959   5.57805
 Alpha virt. eigenvalues --    5.58074   5.60092   5.62900   5.63522   5.65446
 Alpha virt. eigenvalues --    5.67454   5.69094   5.69879   5.71748   5.73260
 Alpha virt. eigenvalues --    5.77862   5.79459   5.84549   5.86313   5.86667
 Alpha virt. eigenvalues --    5.87467   5.89780   5.90466   5.91038   5.93051
 Alpha virt. eigenvalues --    5.93776   5.95783   5.96045   5.99280   6.00288
 Alpha virt. eigenvalues --    6.01045   6.03576   6.05232   6.05678   6.06477
 Alpha virt. eigenvalues --    6.07654   6.08728   6.14682   6.16644   6.17906
 Alpha virt. eigenvalues --    6.26099   6.26469   6.28093   6.28597   6.30833
 Alpha virt. eigenvalues --    6.31616   6.36527   6.38916   6.40442   6.42824
 Alpha virt. eigenvalues --    6.44226   6.46934   6.57516   6.57722   6.63061
 Alpha virt. eigenvalues --    6.67733   6.74896   6.78807   6.78925   6.86764
 Alpha virt. eigenvalues --    6.88693   6.91881   6.99673   7.00687   7.02750
 Alpha virt. eigenvalues --    7.07297   7.21654   7.25274   9.18872   9.40070
 Alpha virt. eigenvalues --    9.51153  20.03854  22.10631  22.13821  22.32628
 Alpha virt. eigenvalues --   22.34068  22.41271  22.42368  22.47977  22.49238
 Alpha virt. eigenvalues --   22.51189  22.52621  22.54041  22.55812  22.57780
 Alpha virt. eigenvalues --   22.60781  22.68032  22.68593  22.71513  22.87249
 Alpha virt. eigenvalues --   22.87838  22.90487  22.92894  22.93842  22.96442
 Alpha virt. eigenvalues --   23.02405  23.03550  23.12449  23.16134  23.23944
 Alpha virt. eigenvalues --   23.27307  23.30043  23.33263  23.35820  23.36871
 Alpha virt. eigenvalues --   23.40032  23.45961  23.47840  23.55430  23.65965
 Alpha virt. eigenvalues --   23.75879  23.79115  23.90443  32.35723  32.71506
 Alpha virt. eigenvalues --   32.92580  32.98762  33.04294  33.08996  43.84121
 Alpha virt. eigenvalues --   43.85431  43.87543  43.89637
  Beta  occ. eigenvalues -- -256.53648 -89.12396 -30.26841 -26.10048 -26.10026
  Beta  occ. eigenvalues --  -26.09990 -19.34873 -19.32181 -19.25760 -19.24404
  Beta  occ. eigenvalues --  -14.56024 -14.50443 -14.46870 -14.46715 -14.46405
  Beta  occ. eigenvalues --  -14.46372 -10.43396 -10.42582 -10.39754 -10.36807
  Beta  occ. eigenvalues --  -10.35026 -10.34969 -10.34771 -10.34686 -10.34623
  Beta  occ. eigenvalues --  -10.34615 -10.34526 -10.34427 -10.34412 -10.34207
  Beta  occ. eigenvalues --  -10.34111 -10.33931 -10.33528 -10.33327 -10.32673
  Beta  occ. eigenvalues --  -10.32616 -10.32432 -10.32384 -10.32362 -10.32281
  Beta  occ. eigenvalues --  -10.32241 -10.32197 -10.32189 -10.32171 -10.32151
  Beta  occ. eigenvalues --  -10.31882 -10.31822 -10.31696 -10.31488 -10.31391
  Beta  occ. eigenvalues --  -10.31000 -10.30488 -10.30005 -10.29954 -10.29792
  Beta  occ. eigenvalues --  -10.29540 -10.29295  -8.10376  -6.04032  -6.03707
  Beta  occ. eigenvalues --   -6.03155  -3.56074  -2.30666  -2.30345  -2.30291
  Beta  occ. eigenvalues --   -1.25491  -1.22361  -1.16445  -1.10724  -1.09825
  Beta  occ. eigenvalues --   -1.09222  -1.08308  -1.07694  -1.06058  -1.02209
  Beta  occ. eigenvalues --   -0.95060  -0.93704  -0.93298  -0.93053  -0.92390
  Beta  occ. eigenvalues --   -0.91977  -0.91390  -0.90684  -0.90530  -0.88959
  Beta  occ. eigenvalues --   -0.88240  -0.86523  -0.86285  -0.86116  -0.84192
  Beta  occ. eigenvalues --   -0.83216  -0.82298  -0.81998  -0.81165  -0.80044
  Beta  occ. eigenvalues --   -0.79403  -0.79329  -0.78241  -0.78020  -0.76736
  Beta  occ. eigenvalues --   -0.76596  -0.76154  -0.73340  -0.72754  -0.71955
  Beta  occ. eigenvalues --   -0.71531  -0.70720  -0.69992  -0.69772  -0.69087
  Beta  occ. eigenvalues --   -0.66982  -0.66551  -0.65671  -0.65177  -0.63370
  Beta  occ. eigenvalues --   -0.62609  -0.62436  -0.62324  -0.60730  -0.60301
  Beta  occ. eigenvalues --   -0.59192  -0.59072  -0.58937  -0.58831  -0.58429
  Beta  occ. eigenvalues --   -0.58375  -0.58175  -0.57988  -0.57263  -0.57103
  Beta  occ. eigenvalues --   -0.56515  -0.56159  -0.55739  -0.55585  -0.55036
  Beta  occ. eigenvalues --   -0.54785  -0.54619  -0.54128  -0.54066  -0.53858
  Beta  occ. eigenvalues --   -0.53500  -0.53382  -0.53174  -0.52985  -0.52725
  Beta  occ. eigenvalues --   -0.52415  -0.52210  -0.51791  -0.51581  -0.51461
  Beta  occ. eigenvalues --   -0.51103  -0.51065  -0.50817  -0.50673  -0.50564
  Beta  occ. eigenvalues --   -0.50070  -0.50040  -0.49791  -0.49594  -0.49286
  Beta  occ. eigenvalues --   -0.49012  -0.48638  -0.48273  -0.47941  -0.47888
  Beta  occ. eigenvalues --   -0.47731  -0.47416  -0.47271  -0.47000  -0.46935
  Beta  occ. eigenvalues --   -0.46452  -0.46251  -0.46208  -0.45953  -0.45807
  Beta  occ. eigenvalues --   -0.45266  -0.45180  -0.44149  -0.44043  -0.43790
  Beta  occ. eigenvalues --   -0.43617  -0.43223  -0.43074  -0.41560  -0.40911
  Beta  occ. eigenvalues --   -0.40144  -0.39224  -0.39000  -0.37956  -0.36481
  Beta  occ. eigenvalues --   -0.35798  -0.35624  -0.34640  -0.34413  -0.33952
  Beta  occ. eigenvalues --   -0.33256  -0.33037  -0.32222  -0.31430  -0.30277
  Beta  occ. eigenvalues --   -0.29639
  Beta virt. eigenvalues --   -0.19960  -0.19898  -0.17577  -0.16566  -0.16364
  Beta virt. eigenvalues --   -0.14078  -0.12598  -0.11517  -0.10983  -0.09813
  Beta virt. eigenvalues --   -0.09290  -0.08971  -0.08558  -0.06632  -0.06139
  Beta virt. eigenvalues --   -0.05759  -0.04599  -0.04452  -0.04204  -0.03767
  Beta virt. eigenvalues --   -0.03566  -0.03059  -0.02818  -0.02504  -0.02197
  Beta virt. eigenvalues --   -0.02063  -0.01697  -0.01618  -0.01554  -0.01166
  Beta virt. eigenvalues --   -0.00940  -0.00538  -0.00310  -0.00096   0.00202
  Beta virt. eigenvalues --    0.00553   0.00665   0.01080   0.01242   0.01540
  Beta virt. eigenvalues --    0.02012   0.02242   0.02476   0.02670   0.02966
  Beta virt. eigenvalues --    0.03364   0.03648   0.03721   0.03822   0.04306
  Beta virt. eigenvalues --    0.04335   0.04663   0.04774   0.05130   0.05237
  Beta virt. eigenvalues --    0.05352   0.05527   0.05749   0.05994   0.06079
  Beta virt. eigenvalues --    0.06173   0.06463   0.06545   0.06744   0.07207
  Beta virt. eigenvalues --    0.07318   0.07438   0.07678   0.07735   0.07982
  Beta virt. eigenvalues --    0.08376   0.08558   0.08696   0.08853   0.09201
  Beta virt. eigenvalues --    0.09377   0.09504   0.09675   0.09767   0.09954
  Beta virt. eigenvalues --    0.10092   0.10615   0.10689   0.10920   0.11188
  Beta virt. eigenvalues --    0.11296   0.11357   0.11694   0.11972   0.12231
  Beta virt. eigenvalues --    0.12346   0.12816   0.12897   0.12918   0.13066
  Beta virt. eigenvalues --    0.13205   0.13494   0.13689   0.13951   0.14128
  Beta virt. eigenvalues --    0.14222   0.14414   0.14684   0.15003   0.15251
  Beta virt. eigenvalues --    0.15613   0.15785   0.15801   0.15930   0.16087
  Beta virt. eigenvalues --    0.16199   0.16318   0.16709   0.17031   0.17206
  Beta virt. eigenvalues --    0.17327   0.17727   0.17999   0.18144   0.18454
  Beta virt. eigenvalues --    0.18669   0.18882   0.19096   0.19252   0.19505
  Beta virt. eigenvalues --    0.19685   0.19849   0.20078   0.20222   0.20367
  Beta virt. eigenvalues --    0.20822   0.20850   0.21177   0.21342   0.21646
  Beta virt. eigenvalues --    0.21841   0.22246   0.22400   0.22570   0.22739
  Beta virt. eigenvalues --    0.22933   0.23265   0.23333   0.23396   0.23786
  Beta virt. eigenvalues --    0.23964   0.24053   0.24186   0.24465   0.24720
  Beta virt. eigenvalues --    0.24871   0.25108   0.25151   0.25408   0.25554
  Beta virt. eigenvalues --    0.26162   0.26384   0.26582   0.26816   0.27122
  Beta virt. eigenvalues --    0.27268   0.27331   0.27692   0.27734   0.28107
  Beta virt. eigenvalues --    0.28457   0.28586   0.28643   0.28717   0.29123
  Beta virt. eigenvalues --    0.29327   0.29578   0.29856   0.29910   0.30317
  Beta virt. eigenvalues --    0.30416   0.30609   0.30838   0.31150   0.31395
  Beta virt. eigenvalues --    0.31566   0.31613   0.31808   0.31935   0.32150
  Beta virt. eigenvalues --    0.32264   0.32651   0.32887   0.32973   0.33296
  Beta virt. eigenvalues --    0.33470   0.33607   0.33896   0.34038   0.34309
  Beta virt. eigenvalues --    0.34366   0.34518   0.34572   0.34931   0.35011
  Beta virt. eigenvalues --    0.35197   0.35488   0.35541   0.35751   0.36087
  Beta virt. eigenvalues --    0.36192   0.36352   0.36436   0.36587   0.36808
  Beta virt. eigenvalues --    0.36945   0.37066   0.37183   0.37334   0.37489
  Beta virt. eigenvalues --    0.37633   0.37873   0.38084   0.38151   0.38344
  Beta virt. eigenvalues --    0.38577   0.38664   0.38772   0.38912   0.39016
  Beta virt. eigenvalues --    0.39196   0.39561   0.39795   0.39867   0.40084
  Beta virt. eigenvalues --    0.40276   0.40396   0.40581   0.40770   0.41029
  Beta virt. eigenvalues --    0.41092   0.41318   0.41611   0.41833   0.41882
  Beta virt. eigenvalues --    0.42130   0.42293   0.42334   0.42379   0.42587
  Beta virt. eigenvalues --    0.42961   0.43119   0.43142   0.43239   0.43342
  Beta virt. eigenvalues --    0.43722   0.43828   0.43868   0.44033   0.44380
  Beta virt. eigenvalues --    0.44490   0.44694   0.45009   0.45102   0.45209
  Beta virt. eigenvalues --    0.45289   0.45633   0.45788   0.45950   0.45996
  Beta virt. eigenvalues --    0.46301   0.46528   0.46768   0.46789   0.46995
  Beta virt. eigenvalues --    0.47085   0.47241   0.47480   0.48013   0.48078
  Beta virt. eigenvalues --    0.48362   0.48485   0.48749   0.48846   0.49259
  Beta virt. eigenvalues --    0.49462   0.49724   0.49986   0.50140   0.50438
  Beta virt. eigenvalues --    0.50819   0.51037   0.51197   0.51312   0.51729
  Beta virt. eigenvalues --    0.52038   0.52240   0.52673   0.53061   0.53102
  Beta virt. eigenvalues --    0.53309   0.53535   0.53814   0.54033   0.54294
  Beta virt. eigenvalues --    0.54412   0.54711   0.55022   0.55190   0.55651
  Beta virt. eigenvalues --    0.55832   0.56111   0.56197   0.56582   0.56794
  Beta virt. eigenvalues --    0.56907   0.57408   0.57514   0.58095   0.58252
  Beta virt. eigenvalues --    0.58471   0.58843   0.58960   0.59434   0.59777
  Beta virt. eigenvalues --    0.59913   0.60002   0.60301   0.60440   0.60766
  Beta virt. eigenvalues --    0.60984   0.61409   0.61537   0.61812   0.61920
  Beta virt. eigenvalues --    0.62338   0.62674   0.62854   0.63013   0.63174
  Beta virt. eigenvalues --    0.63705   0.63804   0.64195   0.64455   0.64703
  Beta virt. eigenvalues --    0.64908   0.65013   0.65613   0.65834   0.66394
  Beta virt. eigenvalues --    0.66700   0.66907   0.67366   0.67501   0.67723
  Beta virt. eigenvalues --    0.67973   0.68033   0.68341   0.68707   0.68894
  Beta virt. eigenvalues --    0.69122   0.69507   0.69776   0.69971   0.70559
  Beta virt. eigenvalues --    0.70620   0.70932   0.71547   0.71898   0.72009
  Beta virt. eigenvalues --    0.72495   0.72565   0.72888   0.73302   0.73385
  Beta virt. eigenvalues --    0.74001   0.74242   0.74492   0.74617   0.75077
  Beta virt. eigenvalues --    0.75118   0.75444   0.75664   0.76092   0.76283
  Beta virt. eigenvalues --    0.76388   0.76671   0.77390   0.77697   0.77866
  Beta virt. eigenvalues --    0.78073   0.78582   0.78944   0.79039   0.79346
  Beta virt. eigenvalues --    0.79684   0.79769   0.80109   0.80497   0.80717
  Beta virt. eigenvalues --    0.81061   0.81088   0.81693   0.82209   0.82426
[...]
    37 C(13)  Bbb    -0.0477    -6.400    -2.284    -2.135  0.2396  0.9694  0.0535
              Bcc     0.1110    14.893     5.314     4.968  0.9519 -0.2454  0.1834
 
              Baa    -0.1148   -15.400    -5.495    -5.137  0.8020  0.2990  0.5171
    38 C(13)  Bbb     0.0536     7.196     2.568     2.400 -0.5883  0.5454  0.5971
              Bcc     0.0611     8.204     2.927     2.736  0.1035  0.7831 -0.6133
 
              Baa    -0.0301    -4.032    -1.439    -1.345  0.9191  0.2980 -0.2577
    39 C(13)  Bbb    -0.0271    -3.637    -1.298    -1.213  0.2821 -0.0412  0.9585
              Bcc     0.0572     7.669     2.737     2.558 -0.2750  0.9537  0.1219
 
              Baa    -0.0183    -2.451    -0.874    -0.817  0.7915  0.6110  0.0129
    40 C(13)  Bbb     0.0028     0.369     0.132     0.123  0.0628 -0.1024  0.9928
              Bcc     0.0155     2.081     0.743     0.694 -0.6079  0.7849  0.1194
 
              Baa    -0.0212    -2.844    -1.015    -0.949  0.6463  0.7622  0.0363
    41 C(13)  Bbb     0.0077     1.029     0.367     0.343  0.3395 -0.3299  0.8808
              Bcc     0.0135     1.815     0.648     0.605  0.6833 -0.5570 -0.4720
 
              Baa    -0.0299    -4.010    -1.431    -1.338 -0.0664 -0.6000  0.7972
    42 C(13)  Bbb    -0.0286    -3.840    -1.370    -1.281  0.3303  0.7407  0.5850
              Bcc     0.0585     7.850     2.801     2.619  0.9415 -0.3022 -0.1490
 
              Baa    -0.0052    -0.697    -0.249    -0.232  0.8876  0.4131 -0.2037
    43 C(13)  Bbb    -0.0047    -0.635    -0.227    -0.212  0.2431 -0.0445  0.9690
              Bcc     0.0099     1.332     0.475     0.444 -0.3912  0.9096  0.1400
 
              Baa    -0.0053    -0.709    -0.253    -0.236  0.4214  0.9048 -0.0620
    44 C(13)  Bbb    -0.0050    -0.669    -0.239    -0.223  0.1527 -0.0034  0.9883
              Bcc     0.0103     1.377     0.492     0.459  0.8939 -0.4259 -0.1395
 
              Baa    -0.0039    -0.518    -0.185    -0.173  0.4236  0.7990 -0.4268
    45 C(13)  Bbb    -0.0026    -0.353    -0.126    -0.118 -0.0101  0.4753  0.8797
              Bcc     0.0065     0.871     0.311     0.290  0.9058 -0.3683  0.2094
 
              Baa    -0.0018    -0.239    -0.085    -0.080  0.2241  0.6845  0.6937
    46 C(13)  Bbb    -0.0017    -0.234    -0.083    -0.078 -0.2679 -0.6411  0.7191
              Bcc     0.0035     0.473     0.169     0.158  0.9370 -0.3470  0.0397
 
              Baa    -0.0014     0.100     0.036     0.033 -0.1430  0.0473  0.9886
    47 O(17)  Bbb    -0.0013     0.095     0.034     0.032  0.2609  0.9653 -0.0084
              Bcc     0.0027    -0.195    -0.069    -0.065  0.9547 -0.2567  0.1504
 
              Baa    -0.0014     0.103     0.037     0.034 -0.2695 -0.6650  0.6965
    48 O(17)  Bbb    -0.0012     0.086     0.031     0.029  0.3050  0.6271  0.7167
              Bcc     0.0026    -0.190    -0.068    -0.063  0.9134 -0.4056 -0.0338
 
              Baa    -0.1849    -7.130    -2.544    -2.378 -0.7010  0.7105  0.0612
    49 N(14)  Bbb    -0.1220    -4.706    -1.679    -1.570  0.1161  0.0290  0.9928
              Bcc     0.3069    11.835     4.223     3.948  0.7036  0.7031 -0.1028
 
              Baa    -0.1735    -6.693    -2.388    -2.233  0.6672  0.6994 -0.2563
    50 N(14)  Bbb    -0.1267    -4.885    -1.743    -1.630  0.2985  0.0643  0.9523
              Bcc     0.3002    11.578     4.131     3.862 -0.6825  0.7118  0.1659
 
              Baa    -0.1919    -7.402    -2.641    -2.469 -0.6500  0.7060  0.2813
    51 N(14)  Bbb    -0.1031    -3.975    -1.418    -1.326  0.2574 -0.1437  0.9556
              Bcc     0.2950    11.378     4.060     3.795  0.7150  0.6935 -0.0883
 
              Baa    -0.1917    -7.395    -2.639    -2.467  0.7181  0.6959 -0.0050
    52 N(14)  Bbb    -0.1139    -4.394    -1.568    -1.466  0.1093 -0.1057  0.9884
              Bcc     0.3057    11.789     4.207     3.932 -0.6873  0.7103  0.1520
 
              Baa    -0.1541    -2.669    -0.952    -0.890  0.1907 -0.0359  0.9810
    53 Fe(57) Bbb     0.0604     1.046     0.373     0.349  0.6336  0.7678 -0.0951
              Bcc     0.0938     1.623     0.579     0.541  0.7498 -0.6397 -0.1692
 
              Baa    -0.0128    -6.843    -2.442    -2.282  0.1242  0.9729 -0.1949
    54 H(1)   Bbb    -0.0119    -6.356    -2.268    -2.120 -0.6825  0.2264  0.6950
              Bcc     0.0247    13.198     4.709     4.402  0.7203  0.0467  0.6921
 
              Baa    -0.0095    -5.086    -1.815    -1.696 -0.4136  0.9040 -0.1078
    55 H(1)   Bbb    -0.0074    -3.960    -1.413    -1.321  0.8124  0.3130 -0.4921
              Bcc     0.0170     9.045     3.228     3.017  0.4111  0.2911  0.8639
 
              Baa    -0.0181    -9.639    -3.439    -3.215  0.7402 -0.6499 -0.1722
    56 H(1)   Bbb    -0.0152    -8.107    -2.893    -2.704 -0.3304 -0.5746  0.7488
              Bcc     0.0333    17.746     6.332     5.920  0.5856  0.4974  0.6401
 
              Baa    -0.0102    -5.467    -1.951    -1.824  0.8358  0.5246  0.1620
    57 H(1)   Bbb    -0.0093    -4.951    -1.767    -1.652 -0.4006  0.3810  0.8333
              Bcc     0.0195    10.418     3.717     3.475 -0.3754  0.7613 -0.5286
 
              Baa    -0.0056    -2.976    -1.062    -0.993  0.7467  0.6597  0.0853
    58 H(1)   Bbb    -0.0051    -2.728    -0.973    -0.910 -0.5301  0.5128  0.6753
              Bcc     0.0107     5.704     2.035     1.903  0.4018 -0.5495  0.7326
 
              Baa    -0.0123    -6.571    -2.345    -2.192  0.6265  0.7733 -0.0971
    59 H(1)   Bbb    -0.0110    -5.860    -2.091    -1.955 -0.4513  0.4615  0.7638
              Bcc     0.0233    12.431     4.436     4.146  0.6355 -0.4347  0.6381
 
              Baa    -0.0095    -5.069    -1.809    -1.691  0.9976  0.0691 -0.0072
    60 H(1)   Bbb    -0.0073    -3.873    -1.382    -1.292 -0.0618  0.9303  0.3616
              Bcc     0.0168     8.943     3.191     2.983  0.0317 -0.3603  0.9323
 
              Baa    -0.0172    -9.169    -3.272    -3.058  0.8019 -0.5095 -0.3120
    61 H(1)   Bbb    -0.0147    -7.844    -2.799    -2.616  0.5867  0.5731  0.5722
              Bcc     0.0319    17.013     6.071     5.675 -0.1127 -0.6419  0.7585
 
              Baa    -0.0039    -2.104    -0.751    -0.702  0.2913 -0.5504  0.7824
    62 H(1)   Bbb    -0.0029    -1.558    -0.556    -0.520 -0.3247  0.7124  0.6221
              Bcc     0.0069     3.662     1.307     1.222  0.8998  0.4353 -0.0288
 
              Baa    -0.0044    -2.341    -0.835    -0.781  0.3062 -0.3199  0.8966
    63 H(1)   Bbb    -0.0037    -2.001    -0.714    -0.667 -0.1394  0.9166  0.3746
              Bcc     0.0081     4.342     1.549     1.448  0.9417  0.2397 -0.2361
 
              Baa    -0.0039    -2.068    -0.738    -0.690 -0.5291  0.8485  0.0087
    64 H(1)   Bbb    -0.0031    -1.671    -0.596    -0.557  0.3136  0.1860  0.9312
              Bcc     0.0070     3.739     1.334     1.247  0.7885  0.4954 -0.3645
 
              Baa    -0.0084    -4.468    -1.594    -1.490  0.2644 -0.1189  0.9571
    65 H(1)   Bbb    -0.0073    -3.889    -1.388    -1.297  0.0419  0.9929  0.1118
              Bcc     0.0157     8.357     2.982     2.788  0.9635 -0.0106 -0.2675
 
              Baa    -0.0041    -2.203    -0.786    -0.735  0.3153  0.0497  0.9477
    66 H(1)   Bbb    -0.0037    -1.964    -0.701    -0.655  0.9112  0.2632 -0.3169
              Bcc     0.0078     4.168     1.487     1.390 -0.2652  0.9635  0.0377
 
              Baa    -0.0033    -1.754    -0.626    -0.585  0.7928  0.2155  0.5701
    67 H(1)   Bbb    -0.0030    -1.625    -0.580    -0.542 -0.4325 -0.4601  0.7754
              Bcc     0.0063     3.379     1.206     1.127 -0.4294  0.8613  0.2716
 
              Baa    -0.0032    -1.710    -0.610    -0.570 -0.6396 -0.3755  0.6708
    68 H(1)   Bbb    -0.0031    -1.652    -0.589    -0.551  0.5547  0.3787  0.7409
              Bcc     0.0063     3.362     1.200     1.121 -0.5323  0.8459 -0.0339
 
              Baa    -0.0082    -4.401    -1.570    -1.468  0.2105 -0.0052  0.9776
    69 H(1)   Bbb    -0.0073    -3.870    -1.381    -1.291  0.9776 -0.0055 -0.2105
              Bcc     0.0155     8.271     2.951     2.759  0.0065  1.0000  0.0039
 
              Baa    -0.0032    -1.690    -0.603    -0.564  0.2033  0.0124  0.9790
    70 H(1)   Bbb    -0.0029    -1.563    -0.558    -0.522  0.8049 -0.5715 -0.1599
              Bcc     0.0061     3.253     1.161     1.085  0.5575  0.8205 -0.1262
 
              Baa    -0.0038    -2.028    -0.724    -0.677  0.6022 -0.3203  0.7312
    71 H(1)   Bbb    -0.0034    -1.832    -0.654    -0.611  0.7039 -0.2191 -0.6757
              Bcc     0.0072     3.860     1.377     1.288  0.3766  0.9216  0.0935
 
              Baa    -0.0040    -2.122    -0.757    -0.708 -0.2491  0.3061  0.9188
    72 H(1)   Bbb    -0.0036    -1.901    -0.678    -0.634  0.9201 -0.2214  0.3232
              Bcc     0.0075     4.023     1.435     1.342  0.3023  0.9259 -0.2265
 
              Baa    -0.0041    -2.194    -0.783    -0.732  0.2980 -0.1815  0.9371
    73 H(1)   Bbb    -0.0036    -1.939    -0.692    -0.647 -0.2329  0.9383  0.2558
              Bcc     0.0077     4.133     1.475     1.378  0.9257  0.2945 -0.2374
 
              Baa    -0.0032    -1.708    -0.609    -0.570  0.0521  0.2509  0.9666
    74 H(1)   Bbb    -0.0030    -1.592    -0.568    -0.531 -0.5878  0.7902 -0.1734
              Bcc     0.0062     3.300     1.177     1.101  0.8074  0.5591 -0.1886
 
              Baa    -0.0041    -2.213    -0.790    -0.738 -0.3261  0.5292  0.7833
    75 H(1)   Bbb    -0.0038    -2.019    -0.720    -0.673 -0.1018  0.8041 -0.5857
              Bcc     0.0079     4.232     1.510     1.412  0.9398  0.2707  0.2084
 
              Baa    -0.0031    -1.674    -0.597    -0.558 -0.5021  0.8514 -0.1518
    76 H(1)   Bbb    -0.0030    -1.598    -0.570    -0.533 -0.2798  0.0061  0.9600
              Bcc     0.0061     3.272     1.168     1.091  0.8183  0.5245  0.2352
 
              Baa    -0.0010    -0.520    -0.185    -0.173 -0.2423  0.0964  0.9654
    77 H(1)   Bbb    -0.0010    -0.511    -0.182    -0.171 -0.2750  0.9474 -0.1637
              Bcc     0.0019     1.031     0.368     0.344  0.9304  0.3051  0.2030
 
              Baa    -0.0010    -0.520    -0.186    -0.173 -0.2260 -0.3659  0.9028
    78 H(1)   Bbb    -0.0010    -0.512    -0.183    -0.171  0.1924  0.8918  0.4096
              Bcc     0.0019     1.032     0.368     0.344  0.9549 -0.2663  0.1311
 
              Baa    -0.0030    -1.584    -0.565    -0.529  0.5156  0.8439  0.1483
    79 H(1)   Bbb    -0.0028    -1.516    -0.541    -0.506 -0.2645 -0.0079  0.9644
              Bcc     0.0058     3.100     1.106     1.034  0.8150 -0.5364  0.2191
 
              Baa    -0.0041    -2.172    -0.775    -0.724 -0.3405 -0.5790  0.7408
    80 H(1)   Bbb    -0.0036    -1.932    -0.689    -0.644  0.0940  0.7630  0.6395
              Bcc     0.0077     4.104     1.464     1.369  0.9355 -0.2874  0.2054
 
              Baa    -0.0033    -1.779    -0.635    -0.594  0.0491 -0.2714  0.9612
    81 H(1)   Bbb    -0.0030    -1.623    -0.579    -0.542  0.5980  0.7788  0.1893
              Bcc     0.0064     3.403     1.214     1.135  0.8000 -0.5655 -0.2005
 
              Baa    -0.0042    -2.235    -0.797    -0.745  0.2921  0.1163  0.9493
    82 H(1)   Bbb    -0.0036    -1.946    -0.694    -0.649  0.2522  0.9481 -0.1938
              Bcc     0.0078     4.181     1.492     1.395  0.9225 -0.2960 -0.2476
 
              Baa    -0.0034    -1.817    -0.648    -0.606  0.7591  0.1414  0.6354
    83 H(1)   Bbb    -0.0034    -1.802    -0.643    -0.601 -0.4856 -0.5270  0.6974
              Bcc     0.0068     3.619     1.291     1.207 -0.4335  0.8380  0.3314
 
              Baa    -0.0044    -2.341    -0.835    -0.781  0.0334 -0.1030  0.9941
    84 H(1)   Bbb    -0.0036    -1.946    -0.694    -0.649  0.9670  0.2547 -0.0061
              Bcc     0.0080     4.287     1.530     1.430 -0.2526  0.9615  0.1081
 
              Baa    -0.0034    -1.813    -0.647    -0.605 -0.4061 -0.2502  0.8789
    85 H(1)   Bbb    -0.0031    -1.673    -0.597    -0.558  0.7569  0.4469  0.4769
              Bcc     0.0065     3.487     1.244     1.163 -0.5121  0.8589  0.0079
 
              Baa    -0.0084    -4.503    -1.607    -1.502  0.1385 -0.0295  0.9899
    86 H(1)   Bbb    -0.0070    -3.716    -1.326    -1.239  0.0065  0.9996  0.0289
              Bcc     0.0154     8.219     2.933     2.741  0.9903 -0.0025 -0.1386
 
              Baa    -0.0095    -5.057    -1.804    -1.687  0.0929 -0.1132  0.9892
    87 H(1)   Bbb    -0.0060    -3.185    -1.136    -1.062  0.9945 -0.0381 -0.0978
              Bcc     0.0154     8.241     2.941     2.749  0.0487  0.9928  0.1090
 
              Baa    -0.0031    -1.652    -0.590    -0.551  0.4245  0.8593 -0.2854
    88 H(1)   Bbb    -0.0025    -1.333    -0.476    -0.445  0.6188 -0.0452  0.7843
              Bcc     0.0056     2.985     1.065     0.996  0.6610 -0.5095 -0.5509
 
              Baa    -0.0025    -1.328    -0.474    -0.443  0.5169  0.1607  0.8409
    89 H(1)   Bbb    -0.0017    -0.899    -0.321    -0.300  0.3604  0.8501 -0.3840
              Bcc     0.0042     2.227     0.795     0.743  0.7765 -0.5015 -0.3814
 
              Baa    -0.0034    -1.801    -0.643    -0.601  0.4063  0.9131  0.0343
    90 H(1)   Bbb    -0.0031    -1.664    -0.594    -0.555  0.1560 -0.1063  0.9820
              Bcc     0.0065     3.465     1.236     1.156  0.9003 -0.3937 -0.1856
 
              Baa    -0.0065    -3.490    -1.245    -1.164 -0.6799  0.7250 -0.1102
    91 H(1)   Bbb    -0.0012    -0.627    -0.224    -0.209  0.4895  0.5605  0.6680
              Bcc     0.0077     4.117     1.469     1.373 -0.5461 -0.4002  0.7360
 
              Baa    -0.0089    -4.766    -1.701    -1.590 -0.5628  0.5127  0.6484
    92 H(1)   Bbb    -0.0023    -1.247    -0.445    -0.416  0.7815  0.0746  0.6194
              Bcc     0.0113     6.013     2.146     2.006  0.2692  0.8553 -0.4427
 
              Baa    -0.0066    -3.513    -1.254    -1.172  0.0066  0.7314 -0.6819
    93 H(1)   Bbb    -0.0018    -0.967    -0.345    -0.323  0.9751 -0.1559 -0.1579
              Bcc     0.0084     4.480     1.599     1.494  0.2218  0.6639  0.7142
 
              Baa    -0.0032    -1.704    -0.608    -0.568  0.1412  0.9846  0.1034
    94 H(1)   Bbb    -0.0029    -1.543    -0.551    -0.515  0.9355 -0.0985 -0.3394
              Bcc     0.0061     3.247     1.159     1.083  0.3240 -0.1447  0.9349
 
              Baa    -0.0039    -2.077    -0.741    -0.693  0.7219  0.6607 -0.2057
    95 H(1)   Bbb    -0.0036    -1.915    -0.683    -0.639 -0.4602  0.6803  0.5704
              Bcc     0.0075     3.992     1.424     1.332  0.5169 -0.3171  0.7952
 
              Baa    -0.0037    -1.977    -0.706    -0.660 -0.4980  0.7967  0.3425
    96 H(1)   Bbb    -0.0034    -1.826    -0.652    -0.609  0.6586  0.6044 -0.4483
              Bcc     0.0071     3.804     1.357     1.269  0.5641 -0.0023  0.8257
 
              Baa    -0.0201   -10.734    -3.830    -3.580  0.1094  0.9940  0.0067
    97 H(1)   Bbb    -0.0191   -10.198    -3.639    -3.402 -0.5931  0.0598  0.8029
              Bcc     0.0392    20.931     7.469     6.982  0.7977 -0.0918  0.5961
 
              Baa    -0.0061    -3.246    -1.158    -1.083  0.1288  0.9851  0.1137
    98 H(1)   Bbb    -0.0057    -3.063    -1.093    -1.022  0.9873 -0.1382  0.0787
              Bcc     0.0118     6.309     2.251     2.104 -0.0932 -0.1021  0.9904
 
              Baa    -0.0206   -11.016    -3.931    -3.674  0.0090  0.9988  0.0472
    99 H(1)   Bbb    -0.0191   -10.202    -3.640    -3.403  0.8591 -0.0319  0.5107
              Bcc     0.0398    21.217     7.571     7.077 -0.5116 -0.0360  0.8584
 

 ---------------------------------------------------------------------------------

 1\1\GINC-NODE573\SP\UPBE1PBE\def2TZVP\C41H46Fe1N6O4S1(1+,6)\ZHARTOVSKA
 \20-Feb-2023\0\\# PBE1PBE/def2TZVP empiricaldispersion=GD3BJ int=(grid
 =ultrafine) geom=check guess=read scrf=(smd,solvent=Chloroform)\\451c_
 III_H_solv\\1,6\C,0,10.502,-8.068,15.869\C,0,10.644,-9.486,16.396999\N
 ,0,11.619,-10.33,15.982\C,0,9.793,-10.187,17.233\C,0,11.389,-11.544,16
 .547001\N,0,10.269,-11.46,17.323999\C,0,9.895,-15.821,21.142\C,0,8.597
 ,-15.027,20.951\S,0,8.145,-14.71,19.221001\C,0,8.329,-16.290001,18.364
 \C,0,11.705,-15.239,17.132999\C,0,7.601,-13.454,15.352\C,0,6.884,-11.0
 32,19.466\C,0,11.276,-12.321,20.959999\C,0,10.634,-14.991,16.299\C,0,1
 0.451,-15.547,15.05\C,0,9.297,-14.993,14.516\C,0,8.779,-14.157,15.475\
 C,0,8.679,-15.258,13.158\C,0,11.329,-16.591,14.424\C,0,10.903,-17.937,
 14.962\C,0,11.76,-19.039,14.369\O,0,12.509,-18.781,13.431\O,0,11.265,-
 20.229,14.446\C,0,7.048,-12.619,16.299999\C,0,5.816,-11.979,16.18\C,0,
 5.558,-11.35,17.403\C,0,6.695,-11.546,18.198999\C,0,4.912,-12.026,14.9
 67\C,0,4.299,-10.621,17.829\C,0,3.091,-11.541,17.981001\C,0,8.016,-11.
 19,20.250999\C,0,8.243,-10.559,21.468\C,0,9.57,-10.805,21.808001\C,0,1
 0.044,-11.718,20.896999\C,0,7.266,-9.649,22.190001\C,0,10.391,-10.166,
 22.92\C,0,9.85,-10.474,24.312\C,0,11.754,-13.25,20.069\C,0,12.959,-13.
 93,20.212\C,0,13.04,-14.833,19.16\C,0,11.929,-14.616,18.347\C,0,13.966
 ,-13.748,21.33\C,0,14.127,-15.851,18.915001\C,0,13.727,-17.250999,19.3
 51999\C,0,14.825,-18.245001,18.978001\O,0,14.505,-19.417999,18.767\O,0
 ,16.094999,-17.969999,19.198999\N,0,9.61,-14.148,16.551001\N,0,7.581,-
 12.332,17.521\N,0,9.124,-11.898,19.917\N,0,11.12,-13.676,18.927999\Fe,
 0,9.397,-12.981,18.23\H,0,9.23443055,-16.76417537,18.68062943\H,0,7.49
 62115,-16.9205846,18.59579223\H,0,8.36532102,-16.12090472,17.30807044\
 H,0,10.66213132,-15.16873672,21.50388693\H,0,9.73164255,-16.60665613,2
 1.84978442\H,0,10.19688693,-16.24160921,20.20559615\H,0,7.79908784,-15
 .56925158,21.41381682\H,0,8.70098794,-14.0861734,21.44993067\H,0,7.705
 03554,-8.68113452,22.3140341\H,0,6.36781518,-9.56218931,21.61499845\H,
 0,7.03642536,-10.06218306,23.14993602\H,0,6.08208089,-10.45802097,19.8
 8117926\H,0,5.39967071,-12.56130365,14.17926446\H,0,3.99827207,-12.520
 89681,15.22210472\H,0,4.69897139,-11.02902635,14.6420964\H,0,7.0638043
 2,-13.56644227,14.43348079\H,0,9.33123925,-15.88367787,12.58527741\H,0
 ,7.7358462,-15.74719698,13.28467761\H,0,8.53354272,-14.33024252,12.645
 15671\H,0,12.35129376,-16.40557373,14.67979791\H,0,11.21231458,-16.572
 40396,13.36054398\H,0,11.00868497,-17.94146342,16.02675855\H,0,9.87826
 077,-18.11085632,14.7078672\H,0,11.84883582,-20.98946987,14.49520687\H
 ,0,15.18347621,-20.08643921,18.64675977\H,0,13.581641,-17.26438732,20.
 411995\H,0,12.81561389,-17.52844571,18.86486588\H,0,15.00273178,-15.55
 772414,19.45535562\H,0,14.35511447,-15.86762966,17.86973202\H,0,14.855
 90986,-13.30058808,20.93912532\H,0,13.55003991,-13.11405414,22.0849767
 2\H,0,14.20297489,-14.70086891,21.75518671\H,0,12.41809323,-15.9707945
 ,16.81539099\H,0,11.91684595,-12.04392394,21.77082902\H,0,3.23371846,-
 12.58725552,18.15386174\H,0,2.10127342,-11.13981689,17.91471814\H,0,4.
 26112046,-9.56634418,18.00553962\H,0,10.52655614,-10.65308743,25.12138
 216\H,0,8.79382302,-10.51103682,24.47938717\H,0,11.25738165,-9.5635450
 9,22.74299457\H,0,11.33850395,-7.8347268,15.2439042\H,0,9.59884518,-7.
 98772513,15.30087385\H,0,10.46867457,-7.38319317,16.69047978\H,0,8.921
 46944,-9.80030693,17.71859546\H,0,12.37438377,-10.10014517,15.36835343
 \H,0,11.98632049,-12.42056651,16.40650409\\Version=ES64L-G16RevA.03\St
 ate=6-A\HF=-3879.2487762\S2=8.769542\S2-1=0.\S2A=8.750099\RMSD=2.546e-
 09\Dipole=-0.7960187,1.2377865,0.1288203\Quadrupole=-28.3325896,34.719
 4392,-6.3868496,0.5482686,2.4623582,-6.873464\PG=C01 [X(C41H46Fe1N6O4S
 1)]\\@


 KINETICS       FACT
 ---------  =  -------
 MECHANISM     FICTION
 Job cpu time:       2 days 18 hours  5 minutes  0.4 seconds.
 Elapsed time:       0 days 16 hours 34 minutes 22.1 seconds.
 File lengths (MBytes):  RWF=   4283 Int=      0 D2E=      0 Chk=    291 Scr=      1
 Normal termination of Gaussian 16 at Mon Feb 20 13:20:34 2023.
