 Entering Gaussian System, Link 0=g16
 Input=/net/homes/chemie/zhartovska/work/BioModel/Konrad/1ycc/1ycc12/1ycc12.com
 Output=/net/homes/chemie/zhartovska/work/BioModel/Konrad/1ycc/1ycc12/1ycc12.log
 Initial command:
 /afs/math/software/gaussian/g16.A03/g16/l1.exe "/scratch/zhartovska_gaussian.RVwOkMt/Gau-17561.inp" -scrdir="/scratch/zhartovska_gaussian.RVwOkMt/"
 Entering Link 1 = /afs/math/software/gaussian/g16.A03/g16/l1.exe PID=     17562.
  
 Copyright (c) 1988,1990,1992,1993,1995,1998,2003,2009,2016,
            Gaussian, Inc.  All Rights Reserved.
  
 This is part of the Gaussian(R) 16 program.  It is based on
 the Gaussian(R) 09 system (copyright 2009, Gaussian, Inc.),
 the Gaussian(R) 03 system (copyright 2003, Gaussian, Inc.),
 the Gaussian(R) 98 system (copyright 1998, Gaussian, Inc.),
 the Gaussian(R) 94 system (copyright 1995, Gaussian, Inc.),
 the Gaussian 92(TM) system (copyright 1992, Gaussian, Inc.),
 the Gaussian 90(TM) system (copyright 1990, Gaussian, Inc.),
 the Gaussian 88(TM) system (copyright 1988, Gaussian, Inc.),
 the Gaussian 86(TM) system (copyright 1986, Carnegie Mellon
 University), and the Gaussian 82(TM) system (copyright 1983,
 Carnegie Mellon University). Gaussian is a federally registered
 trademark of Gaussian, Inc.
  
 This software contains proprietary and confidential information,
 including trade secrets, belonging to Gaussian, Inc.
  
 This software is provided under written license and may be
 used, copied, transmitted, or stored only in accord with that
 written license.
  
 The following legend is applicable only to US Government
 contracts under FAR:
  
                    RESTRICTED RIGHTS LEGEND
  
 Use, reproduction and disclosure by the US Government is
 subject to restrictions as set forth in subparagraphs (a)
 and (c) of the Commercial Computer Software - Restricted
 Rights clause in FAR 52.227-19.
  
 Gaussian, Inc.
 340 Quinnipiac St., Bldg. 40, Wallingford CT 06492
  
  
 ---------------------------------------------------------------
 Warning -- This program may not be used in any manner that
 competes with the business of Gaussian, Inc. or will provide
 assistance to any competitor of Gaussian, Inc.  The licensee
 of this program is prohibited from giving any competitor of
 Gaussian, Inc. access to this program.  By using this program,
 the user acknowledges that Gaussian, Inc. is engaged in the
 business of creating and licensing software in the field of
 computational chemistry and represents and warrants to the
 licensee that it is not a competitor of Gaussian, Inc. and that
 it will not use this program in any manner prohibited above.
 ---------------------------------------------------------------
  

 Cite this work as:
 Gaussian 16, Revision A.03,
 M. J. Frisch, G. W. Trucks, H. B. Schlegel, G. E. Scuseria, 
 M. A. Robb, J. R. Cheeseman, G. Scalmani, V. Barone, 
 G. A. Petersson, H. Nakatsuji, X. Li, M. Caricato, A. V. Marenich, 
 J. Bloino, B. G. Janesko, R. Gomperts, B. Mennucci, H. P. Hratchian, 
 J. V. Ortiz, A. F. Izmaylov, J. L. Sonnenberg, D. Williams-Young, 
 F. Ding, F. Lipparini, F. Egidi, J. Goings, B. Peng, A. Petrone, 
 T. Henderson, D. Ranasinghe, V. G. Zakrzewski, J. Gao, N. Rega, 
 G. Zheng, W. Liang, M. Hada, M. Ehara, K. Toyota, R. Fukuda, 
 J. Hasegawa, M. Ishida, T. Nakajima, Y. Honda, O. Kitao, H. Nakai, 
 T. Vreven, K. Throssell, J. A. Montgomery, Jr., J. E. Peralta, 
 F. Ogliaro, M. J. Bearpark, J. J. Heyd, E. N. Brothers, K. N. Kudin, 
 V. N. Staroverov, T. A. Keith, R. Kobayashi, J. Normand, 
 K. Raghavachari, A. P. Rendell, J. C. Burant, S. S. Iyengar, 
 J. Tomasi, M. Cossi, J. M. Millam, M. Klene, C. Adamo, R. Cammi, 
 J. W. Ochterski, R. L. Martin, K. Morokuma, O. Farkas, 
 J. B. Foresman, and D. J. Fox, Gaussian, Inc., Wallingford CT, 2016.
 
 ******************************************
 Gaussian 16:  ES64L-G16RevA.03 25-Dec-2016
                 5-Feb-2023 
 ******************************************
 %nprocs=12
 Will use up to   12 processors via shared memory.
 %mem=16GB
 %oldchk=1ycc_II_S.chk
 %chk=1ycc_III_D.chk
 Copying data from "1ycc_II_S.chk" to current chk file "1ycc_III_D.chk"
 IOpt=  2 FromEx=T IUOpen= 4 IOptOp= 5 NList=   0 IFRang= 0 IUIn= 4 IUOut= 2.
 ----------------------------------------------------------------------
 # PBE1PBE/def2TZVP empiricaldispersion=GD3BJ scf=maxcycle=999 geom=che
 ck pop=nbo
 ----------------------------------------------------------------------
 1/29=2,38=1,172=1/1;
 2/12=2,40=1/2;
 3/5=44,7=101,11=2,14=-4,25=1,30=1,74=-13,124=41/1,2,3;
 4//1;
 5/5=2,7=999,38=5/2;
 6/7=2,8=2,9=2,10=2,28=1,40=1/1,7;
 99/5=1,9=1/99;
 ----------
 1ycc_III_D
 ----------
 Structure from the checkpoint file:  "1ycc_III_D.chk"
 Charge =  1 Multiplicity = 2
 Z-Matrix found in chk file.
 C,0,5.463,25.841999,12.545
 C,0,5.09,24.429001,12.906
 N,0,5.995,23.507999,13.296
 C,0,3.868,23.788,12.857
 C,0,5.407,22.427999,13.522
 N,0,4.073,22.504,13.233
 C,0,1.017,17.952,15.599
 C,0,0.423,18.792999,14.441
 S,0,1.482,19.034,13.122
 C,0,0.274,19.322001,11.825
 Fe,0,2.804,20.976999,13.203
 C,0,5.106,18.702,14.237
 C,0,3.97,20.650999,10.03
 C,0,0.209,22.809,12.141
 C,0,2.105,21.733999,16.357
 N,0,4.231,19.906,12.368
 C,0,5.101,19.025999,12.888
 C,0,5.794,18.232,11.845
 C,0,5.473,18.82,10.692
 C,0,4.516,19.811001,10.917
 C,0,5.975,18.374001,9.266
 C,0,6.81,17.181999,12.193
 C,0,8.215,17.854,12.326
 C,0,9.431,16.948,12.446
 O,0,10.497,17.561001,12.574
 O,0,9.302,15.705,12.427
 N,0,2.192,21.629,11.411
 C,0,2.942,21.559999,10.243
 C,0,2.153,22.254999,9.23
 C,0,1.049,22.82,9.779
 C,0,1.152,22.441999,11.163
 C,0,2.678,22.417999,7.757
 C,0,-0.025,23.701,9.197
 C,0,-1.172,22.933001,8.52
 N,0,1.422,22.066,14.13
 C,0,0.391,22.773001,13.59
 C,0,-0.404,23.540001,14.466
 C,0,0.103,23.198999,15.669
 C,0,1.283,22.361,15.466
 C,0,-1.58,24.417,14.163
 C,0,-0.143,23.797001,17.089001
 C,0,-1.643,23.796,17.461
 N,0,3.478,20.351,14.983
 C,0,3.057,20.792,16.232
 C,0,3.746,20.112,17.228001
 C,0,4.57,19.231001,16.638
 C,0,4.345,19.327,15.198
 C,0,3.526,20.275,18.801001
 C,0,5.424,18.169001,17.375
 C,0,4.819,16.785999,17.313999
 C,0,5.321,15.74,18.292
 O,0,6.473,15.913,18.774
 O,0,4.596,14.724,18.384001
 H,0,0.68046294,19.01420003,10.88428408
 H,0,-0.61234423,18.75939254,12.03179854
 H,0,0.03405936,20.36402419,11.78606222
 H,0,1.96063536,18.36334997,15.89096491
 H,0,0.34681324,17.96974911,16.43292726
 H,0,1.1537243,16.94216859,15.27273784
 H,0,-0.45667684,18.3005477,14.08244684
 H,0,0.14212403,19.75017058,14.82808042
 H,0,-1.77888455,24.29788824,18.39617035
 H,0,-2.19947498,24.30245174,16.70024891
 H,0,-1.98917977,22.78696696,17.5441378
 H,0,0.63305126,24.16349202,17.72800709
 H,0,-1.31885193,25.1093683,13.39013014
 H,0,-2.40115952,23.81282767,13.83808027
 H,0,-1.86000572,24.95524469,15.04435659
 H,0,-0.74098206,23.15021394,11.78602518
 H,0,-0.8563212,21.93235959,8.31032486
 H,0,-2.01985347,22.9102236,9.17232329
 H,0,-1.43808734,23.42192598,7.60618935
 H,0,0.00744812,24.76918877,9.25010248
 H,0,3.62060311,21.92154698,7.65732663
 H,0,1.97359283,21.98571993,7.07740796
 H,0,2.79709797,23.45766134,7.53380079
 H,0,4.37317986,20.61845275,9.03940081
 H,0,6.91675167,17.87473027,9.35944801
 H,0,5.2604366,17.70861473,8.82832403
 H,0,6.08859413,19.23589185,8.6421887
 H,0,6.83882637,16.44189973,11.42078104
 H,0,6.54451304,16.72069432,13.12123201
 H,0,8.35865398,18.47804214,11.46877486
 H,0,8.19293536,18.48370402,13.19080403
 H,0,11.33198087,17.09728629,12.47717229
 H,0,5.74906731,17.90749723,14.5534329
 H,0,6.39662109,18.13958351,16.92997998
 H,0,5.52229877,18.45718672,18.40076135
 H,0,3.76413348,16.8874416,17.46187064
 H,0,4.97662942,16.4071392,16.32580964
 H,0,4.99562263,13.85468693,18.46271918
 H,0,4.3421737,20.82553562,19.22013228
 H,0,2.61153731,20.80072029,18.98065668
 H,0,3.4768555,19.30797891,19.25636352
 H,0,1.96228785,22.05997595,17.36609478
 H,0,5.88991195,21.5497298,13.89661883
 H,0,6.97834083,23.66394844,13.38938403
 H,0,2.93305948,24.22495218,12.57440663
 H,0,6.39778341,25.84219033,12.02434663
 H,0,4.70497094,26.26167429,11.91717471
 H,0,5.55137718,26.42650321,13.43687684
 Recover connectivity data from disk.
 Stoichiometry    C41H48FeN6O4S(1+,2)
 Framework group  C1[X(C41H48FeN6O4S)]
 Deg. of freedom   297
 Full point group                 C1      NOp   1
 Largest Abelian subgroup         C1      NOp   1
 Largest concise Abelian subgroup C1      NOp   1
                         Standard orientation:                         
 ---------------------------------------------------------------------
 Center     Atomic      Atomic             Coordinates (Angstroms)
 Number     Number       Type             X           Y           Z
 ---------------------------------------------------------------------
      1          6           0        2.468053   -1.856172    4.947966
      2          6           0        1.666425   -1.350076    3.778661
      3          7           0        0.317816   -1.358164    3.755049
      4          6           0        2.081531   -0.875037    2.550414
      5          6           0       -0.074217   -0.890456    2.663821
      6          7           0        0.969297   -0.598287    1.830413
      7          6           0       -0.714350    2.898424   -2.707884
      8          6           0        0.599624    2.080160   -2.778552
      9         16           0        0.437218    0.436133   -2.342520
     10          6           0        1.839321   -0.243717   -3.234893
     11         26           0        0.816983   -0.072263   -0.078276
     12          6           0       -2.580619   -0.055763   -0.075910
     13          6           0        0.757676   -3.436856   -0.536266
     14          6           0        4.125144    0.014980   -0.594566
     15          6           0        0.853608    3.073536    0.976226
     16          7           0       -0.619487   -1.408880   -0.253213
     17          6           0       -1.955818   -1.284882   -0.229828
     18          6           0       -2.645860   -2.509009   -0.702994
     19          6           0       -1.688306   -3.432487   -0.795038
     20          6           0       -0.441805   -2.844899   -0.572476
     21          6           0       -1.900671   -4.930640   -1.236441
     22          6           0       -4.143698   -2.599479   -0.767465
     23          6           0       -4.687493   -3.074947    0.618723
     24          6           0       -6.156339   -3.458294    0.715814
     25          8           0       -6.507938   -3.796065    1.851948
     26          8           0       -6.895881   -3.401976   -0.290146
     27          7           0        2.206568   -1.456222   -0.484016
     28          6           0        2.001049   -2.829273   -0.420940
     29          6           0        3.306174   -3.432146   -0.675712
     30          6           0        4.269967   -2.482026   -0.764130
     31          6           0        3.531936   -1.261085   -0.580928
     32          6           0        3.500322   -4.992310   -0.664877
     33          6           0        5.764094   -2.577358   -0.928013
     34          6           0        6.231394   -2.702312   -2.387389
     35          7           0        2.207380    1.328924    0.163900
     36          6           0        3.543131    1.256615   -0.090955
     37          6           0        4.334408    2.371910    0.252100
     38          6           0        3.401044    3.259365    0.654339
     39          6           0        2.099018    2.596381    0.686443
     40          6           0        5.811506    2.572728    0.104562
     41          6           0        3.543194    4.642936    1.361482
     42          6           0        4.449739    5.606273    0.562394
     43          7           0       -0.593690    1.274532    0.380739
     44          6           0       -0.386635    2.578135    0.816021
     45          6           0       -1.608700    3.207002    1.016576
     46          6           0       -2.581773    2.341366    0.689408
     47          6           0       -1.933053    1.124877    0.206958
     48          6           0       -1.821529    4.725724    1.460971
     49          6           0       -4.094221    2.672155    0.631007
     50          6           0       -4.591709    2.890939   -0.778631
     51          6           0       -5.926610    3.587227   -0.967910
     52          8           0       -6.737528    3.542358   -0.003672
     53          8           0       -6.142557    3.989235   -2.133287
     54          1           0        1.638988   -1.263201   -3.490666
     55          1           0        2.002328    0.322647   -4.127955
     56          1           0        2.712130   -0.195707   -2.617804
     57          1           0       -1.167102    2.763892   -1.747771
     58          1           0       -0.497249    3.935402   -2.857693
     59          1           0       -1.386035    2.561011   -3.469390
     60          1           0        0.974556    2.128807   -3.779532
     61          1           0        1.315696    2.533772   -2.125577
     62          1           0        4.598017    6.504839    1.124080
     63          1           0        5.395010    5.138740    0.381354
     64          1           0        3.983845    5.842214   -0.371509
     65          1           0        3.070185    4.894379    2.287731
     66          1           0        6.329698    1.750415    0.551976
     67          1           0        6.061759    2.629332   -0.934221
     68          1           0        6.098151    3.481879    0.590544
     69          1           0        5.105330    0.082893   -1.018267
     70          1           0        5.409389   -3.008503   -3.000131
     71          1           0        6.596432   -1.755683   -2.727302
     72          1           0        7.013583   -3.429713   -2.450395
     73          1           0        6.441859   -2.559651   -0.100232
     74          1           0        2.557399   -5.467879   -0.492743
     75          1           0        3.892759   -5.309454   -1.608441
     76          1           0        4.182938   -5.261382    0.113927
     77          1           0        0.758953   -4.504696   -0.604211
     78          1           0       -2.902786   -5.230290   -1.010887
     79          1           0       -1.730031   -5.019969   -2.288963
     80          1           0       -1.213359   -5.558679   -0.709119
     81          1           0       -4.427717   -3.301525   -1.523351
     82          1           0       -4.550689   -1.637841   -1.000942
     83          1           0       -4.110003   -3.923863    0.919968
     84          1           0       -4.509784   -2.289813    1.323622
     85          1           0       -7.356689   -4.224710    1.984181
     86          1           0       -3.644532   -0.023550   -0.185235
     87          1           0       -4.641098    1.862760    1.067705
     88          1           0       -4.275324    3.558850    1.201860
     89          1           0       -3.851657    3.463405   -1.297771
     90          1           0       -4.656432    1.933161   -1.251254
     91          1           0       -7.020015    3.908066   -2.514180
     92          1           0       -2.132571    4.757676    2.484265
     93          1           0       -0.902078    5.261788    1.350764
     94          1           0       -2.572564    5.175481    0.845696
     95          1           0        0.866502    4.044939    1.424678
     96          1           0       -1.102927   -0.737269    2.412446
     97          1           0       -0.273508   -1.685654    4.491993
     98          1           0        3.093956   -0.749136    2.227852
     99          1           0        1.989380   -2.719007    5.361836
    100          1           0        3.452225   -2.117500    4.619312
    101          1           0        2.532357   -1.091747    5.693901
 ---------------------------------------------------------------------
 Rotational constants (GHZ):           0.0644588           0.0442100           0.0333013
 Standard basis: def2TZVP (5D, 7F)
 There are  2218 symmetry adapted cartesian basis functions of A   symmetry.
 There are  1951 symmetry adapted basis functions of A   symmetry.
  1951 basis functions,  3156 primitive gaussians,  2218 cartesian basis functions
   205 alpha electrons      204 beta electrons
       nuclear repulsion energy      8950.5179038720 Hartrees.
 NAtoms=  101 NActive=  101 NUniq=  101 SFac= 1.00D+00 NAtFMM=   60 NAOKFM=T Big=T
 Integral buffers will be    131072 words long.
 Raffenetti 2 integral format.
 Two-electron integral symmetry is turned on.
 Nuclear repulsion after empirical dispersion term =     8950.3687961280 Hartrees.
 One-electron integrals computed using PRISM.
   1 Symmetry operations used in ECPInt.
 ECPInt:  NShTT=  305371 NPrTT=  941867 LenC2=  223193 LenP2D=  445466.
 LDataN:  DoStor=T MaxTD1= 6 Len=  172
 NBasis=  1951 RedAO= T EigKep=  4.27D-06  NBF=  1951
 NBsUse=  1951 1.00D-06 EigRej= -1.00D+00 NBFU=  1951
 ExpMin= 4.20D-02 ExpMax= 3.01D+05 ExpMxC= 2.91D+03 IAcc=3 IRadAn=         5 AccDes= 0.00D+00
 Harris functional with IExCor= 1009 and IRadAn=       5 diagonalized for initial guess.
 HarFok:  IExCor= 1009 AccDes= 0.00D+00 IRadAn=         5 IDoV= 1 UseB2=F ITyADJ=14
 ICtDFT=  3500011 ScaDFX=  1.000000  1.000000  1.000000  1.000000
 FoFCou: FMM=F IPFlag=           0 FMFlag=      100000 FMFlg1=        2001
         NFxFlg=           0 DoJE=T BraDBF=F KetDBF=T FulRan=T
         wScrn=  0.000000 ICntrl=       500 IOpCl=  0 I1Cent=   200000004 NGrid=           0
         NMat0=    1 NMatS0=      1 NMatT0=    0 NMatD0=    1 NMtDS0=    0 NMtDT0=    0
 Petite list used in FoFCou.
 Initial guess <Sx>= 0.0000 <Sy>= 0.0000 <Sz>= 0.5000 <S**2>= 0.7500 S= 0.5000
 Requested convergence on RMS density matrix=1.00D-08 within 999 cycles.
 Requested convergence on MAX density matrix=1.00D-06.
 Requested convergence on             energy=1.00D-06.
 No special actions if energy rises.
 EnCoef did    25 forward-backward iterations
 EnCoef did   100 forward-backward iterations
 EnCoef did   100 forward-backward iterations
 EnCoef did     6 forward-backward iterations
 EnCoef did     4 forward-backward iterations
 EnCoef did     3 forward-backward iterations
 EnCoef did     4 forward-backward iterations
 EnCoef did    13 forward-backward iterations
 Restarting incremental Fock formation.
 Restarting incremental Fock formation.
 Restarting incremental Fock formation.
 SCF Done:  E(UPBE1PBE) =  -3880.36379827     A.U. after   70 cycles
            NFock= 70  Conv=0.15D-08     -V/T= 2.0031
 <Sx>= 0.0000 <Sy>= 0.0000 <Sz>= 0.5000 <S**2>= 1.8295 S= 0.9421
 <L.S>= 0.000000000000E+00
 Annihilation of the first spin contaminant:
 S**2 before annihilation     1.8295,   after     1.0403
 Hyperfine terms turned off by default for NAtoms > 100.

 **********************************************************************

            Population analysis using the SCF density.

 **********************************************************************

 Orbital symmetries:
 Alpha Orbitals:
       Occupied  (A) (A) (A) (A) (A) (A) (A) (A) (A) (A) (A) (A)
                 (A) (A) (A) (A) (A) (A) (A) (A) (A) (A) (A) (A)
                 (A) (A) (A) (A) (A) (A) (A) (A) (A) (A) (A) (A)
                 (A) (A) (A) (A) (A) (A) (A) (A) (A) (A) (A) (A)
                 (A) (A) (A) (A) (A) (A) (A) (A) (A) (A) (A) (A)
                 (A) (A) (A) (A) (A) (A) (A) (A) (A) (A) (A) (A)
                 (A) (A) (A) (A) (A) (A) (A) (A) (A) (A) (A) (A)
                 (A) (A) (A) (A) (A) (A) (A) (A) (A) (A) (A) (A)
                 (A) (A) (A) (A) (A) (A) (A) (A) (A) (A) (A) (A)
                 (A) (A) (A) (A) (A) (A) (A) (A) (A) (A) (A) (A)
                 (A) (A) (A) (A) (A) (A) (A) (A) (A) (A) (A) (A)
                 (A) (A) (A) (A) (A) (A) (A) (A) (A) (A) (A) (A)
                 (A) (A) (A) (A) (A) (A) (A) (A) (A) (A) (A) (A)
                 (A) (A) (A) (A) (A) (A) (A) (A) (A) (A) (A) (A)
                 (A) (A) (A) (A) (A) (A) (A) (A) (A) (A) (A) (A)
                 (A) (A) (A) (A) (A) (A) (A) (A) (A) (A) (A) (A)
                 (A) (A) (A) (A) (A) (A) (A) (A) (A) (A) (A) (A)
                 (A)
       Virtual   (A) (A) (A) (A) (A) (A) (A) (A) (A) (A) (A) (A)
                 (A) (A) (A) (A) (A) (A) (A) (A) (A) (A) (A) (A)
                 (A) (A) (A) (A) (A) (A) (A) (A) (A) (A) (A) (A)
                 (A) (A) (A) (A) (A) (A) (A) (A) (A) (A) (A) (A)
                 (A) (A) (A) (A) (A) (A) (A) (A) (A) (A) (A) (A)
                 (A) (A) (A) (A) (A) (A) (A) (A) (A) (A) (A) (A)
                 (A) (A) (A) (A) (A) (A) (A) (A) (A) (A) (A) (A)
                 (A) (A) (A) (A) (A) (A) (A) (A) (A) (A) (A) (A)
                 (A) (A) (A) (A) (A) (A) (A) (A) (A) (A) (A) (A)
                 (A) (A) (A) (A) (A) (A) (A) (A) (A) (A) (A) (A)
                 (A) (A) (A) (A) (A) (A) (A) (A) (A) (A) (A) (A)
                 (A) (A) (A) (A) (A) (A) (A) (A) (A) (A) (A) (A)
                 (A) (A) (A) (A) (A) (A) (A) (A) (A) (A) (A) (A)
                 (A) (A) (A) (A) (A) (A) (A) (A) (A) (A) (A) (A)
                 (A) (A) (A) (A) (A) (A) (A) (A) (A) (A) (A) (A)
                 (A) (A) (A) (A) (A) (A) (A) (A) (A) (A) (A) (A)
                 (A) (A) (A) (A) (A) (A) (A) (A) (A) (A) (A) (A)
                 (A) (A) (A) (A) (A) (A) (A) (A) (A) (A) (A) (A)
                 (A) (A) (A) (A) (A) (A) (A) (A) (A) (A) (A) (A)
                 (A) (A) (A) (A) (A) (A) (A) (A) (A) (A) (A) (A)
                 (A) (A) (A) (A) (A) (A) (A) (A) (A) (A) (A) (A)
                 (A) (A) (A) (A) (A) (A) (A) (A) (A) (A) (A) (A)
                 (A) (A) (A) (A) (A) (A) (A) (A) (A) (A) (A) (A)
                 (A) (A) (A) (A) (A) (A) (A) (A) (A) (A) (A) (A)
                 (A) (A) (A) (A) (A) (A) (A) (A) (A) (A) (A) (A)
                 (A) (A) (A) (A) (A) (A) (A) (A) (A) (A) (A) (A)
                 (A) (A) (A) (A) (A) (A) (A) (A) (A) (A) (A) (A)
                 (A) (A) (A) (A) (A) (A) (A) (A) (A) (A) (A) (A)
                 (A) (A) (A) (A) (A) (A) (A) (A) (A) (A) (A) (A)
                 (A) (A) (A) (A) (A) (A) (A) (A) (A) (A) (A) (A)
                 (A) (A) (A) (A) (A) (A) (A) (A) (A) (A) (A) (A)
                 (A) (A) (A) (A) (A) (A) (A) (A) (A) (A) (A) (A)
                 (A) (A) (A) (A) (A) (A) (A) (A) (A) (A) (A) (A)
                 (A) (A) (A) (A) (A) (A) (A) (A) (A) (A) (A) (A)
                 (A) (A) (A) (A) (A) (A) (A) (A) (A) (A) (A) (A)
                 (A) (A) (A) (A) (A) (A) (A) (A) (A) (A) (A) (A)
                 (A) (A) (A) (A) (A) (A) (A) (A) (A) (A) (A) (A)
                 (A) (A) (A) (A) (A) (A) (A) (A) (A) (A) (A) (A)
                 (A) (A) (A) (A) (A) (A) (A) (A) (A) (A) (A) (A)
                 (A) (A) (A) (A) (A) (A) (A) (A) (A) (A) (A) (A)
                 (A) (A) (A) (A) (A) (A) (A) (A) (A) (A) (A) (A)
                 (A) (A) (A) (A) (A) (A) (A) (A) (A) (A) (A) (A)
                 (A) (A) (A) (A) (A) (A) (A) (A) (A) (A) (A) (A)
                 (A) (A) (A) (A) (A) (A) (A) (A) (A) (A) (A) (A)
                 (A) (A) (A) (A) (A) (A) (A) (A) (A) (A) (A) (A)
                 (A) (A) (A) (A) (A) (A) (A) (A) (A) (A) (A) (A)
                 (A) (A) (A) (A) (A) (A) (A) (A) (A) (A) (A) (A)
                 (A) (A) (A) (A) (A) (A) (A) (A) (A) (A) (A) (A)
                 (A) (A) (A) (A) (A) (A) (A) (A) (A) (A) (A) (A)
                 (A) (A) (A) (A) (A) (A) (A) (A) (A) (A) (A) (A)
                 (A) (A) (A) (A) (A) (A) (A) (A) (A) (A) (A) (A)
                 (A) (A) (A) (A) (A) (A) (A) (A) (A) (A) (A) (A)
                 (A) (A) (A) (A) (A) (A) (A) (A) (A) (A) (A) (A)
                 (A) (A) (A) (A) (A) (A) (A) (A) (A) (A) (A) (A)
                 (A) (A) (A) (A) (A) (A) (A) (A) (A) (A) (A) (A)
                 (A) (A) (A) (A) (A) (A) (A) (A) (A) (A) (A) (A)
                 (A) (A) (A) (A) (A) (A) (A) (A) (A) (A) (A) (A)
                 (A) (A) (A) (A) (A) (A) (A) (A) (A) (A) (A) (A)
                 (A) (A) (A) (A) (A) (A) (A) (A) (A) (A) (A) (A)
                 (A) (A) (A) (A) (A) (A) (A) (A) (A) (A) (A) (A)
                 (A) (A) (A) (A) (A) (A) (A) (A) (A) (A) (A) (A)
                 (A) (A) (A) (A) (A) (A) (A) (A) (A) (A) (A) (A)
                 (A) (A) (A) (A) (A) (A) (A) (A) (A) (A) (A) (A)
                 (A) (A) (A) (A) (A) (A) (A) (A) (A) (A) (A) (A)
                 (A) (A) (A) (A) (A) (A) (A) (A) (A) (A) (A) (A)
                 (A) (A) (A) (A) (A) (A) (A) (A) (A) (A) (A) (A)
                 (A) (A) (A) (A) (A) (A) (A) (A) (A) (A) (A) (A)
                 (A) (A) (A) (A) (A) (A) (A) (A) (A) (A) (A) (A)
                 (A) (A) (A) (A) (A) (A) (A) (A) (A) (A) (A) (A)
                 (A) (A) (A) (A) (A) (A) (A) (A) (A) (A) (A) (A)
                 (A) (A) (A) (A) (A) (A) (A) (A) (A) (A) (A) (A)
                 (A) (A) (A) (A) (A) (A) (A) (A) (A) (A) (A) (A)
                 (A) (A) (A) (A) (A) (A) (A) (A) (A) (A) (A) (A)
                 (A) (A) (A) (A) (A) (A) (A) (A) (A) (A) (A) (A)
                 (A) (A) (A) (A) (A) (A) (A) (A) (A) (A) (A) (A)
                 (A) (A) (A) (A) (A) (A) (A) (A) (A) (A) (A) (A)
                 (A) (A) (A) (A) (A) (A) (A) (A) (A) (A) (A) (A)
                 (A) (A) (A) (A) (A) (A) (A) (A) (A) (A) (A) (A)
                 (A) (A) (A) (A) (A) (A) (A) (A) (A) (A) (A) (A)
                 (A) (A) (A) (A) (A) (A) (A) (A) (A) (A) (A) (A)
                 (A) (A) (A) (A) (A) (A) (A) (A) (A) (A) (A) (A)
                 (A) (A) (A) (A) (A) (A) (A) (A) (A) (A) (A) (A)
                 (A) (A) (A) (A) (A) (A) (A) (A) (A) (A) (A) (A)
                 (A) (A) (A) (A) (A) (A) (A) (A) (A) (A) (A) (A)
                 (A) (A) (A) (A) (A) (A) (A) (A) (A) (A) (A) (A)
                 (A) (A) (A) (A) (A) (A) (A) (A) (A) (A) (A) (A)
                 (A) (A) (A) (A) (A) (A) (A) (A) (A) (A) (A) (A)
                 (A) (A) (A) (A) (A) (A) (A) (A) (A) (A) (A) (A)
                 (A) (A) (A) (A) (A) (A) (A) (A) (A) (A) (A) (A)
                 (A) (A) (A) (A) (A) (A) (A) (A) (A) (A) (A) (A)
                 (A) (A) (A) (A) (A) (A) (A) (A) (A) (A) (A) (A)
                 (A) (A) (A) (A) (A) (A) (A) (A) (A) (A) (A) (A)
                 (A) (A) (A) (A) (A) (A) (A) (A) (A) (A) (A) (A)
                 (A) (A) (A) (A) (A) (A) (A) (A) (A) (A) (A) (A)
                 (A) (A) (A) (A) (A) (A) (A) (A) (A) (A) (A) (A)
                 (A) (A) (A) (A) (A) (A) (A) (A) (A) (A) (A) (A)
                 (A) (A) (A) (A) (A) (A) (A) (A) (A) (A) (A) (A)
                 (A) (A) (A) (A) (A) (A) (A) (A) (A) (A) (A) (A)
                 (A) (A) (A) (A) (A) (A) (A) (A) (A) (A) (A) (A)
                 (A) (A) (A) (A) (A) (A) (A) (A) (A) (A) (A) (A)
                 (A) (A) (A) (A) (A) (A) (A) (A) (A) (A) (A) (A)
                 (A) (A) (A) (A) (A) (A) (A) (A) (A) (A) (A) (A)
                 (A) (A) (A) (A) (A) (A) (A) (A) (A) (A) (A) (A)
                 (A) (A) (A) (A) (A) (A) (A) (A) (A) (A) (A) (A)
                 (A) (A) (A) (A) (A) (A) (A) (A) (A) (A) (A) (A)
                 (A) (A) (A) (A) (A) (A) (A) (A) (A) (A) (A) (A)
                 (A) (A) (A) (A) (A) (A) (A) (A) (A) (A) (A) (A)
                 (A) (A) (A) (A) (A) (A) (A) (A) (A) (A) (A) (A)
                 (A) (A) (A) (A) (A) (A) (A) (A) (A) (A) (A) (A)
                 (A) (A) (A) (A) (A) (A) (A) (A) (A) (A) (A) (A)
                 (A) (A) (A) (A) (A) (A) (A) (A) (A) (A) (A) (A)
                 (A) (A) (A) (A) (A) (A) (A) (A) (A) (A) (A) (A)
                 (A) (A) (A) (A) (A) (A) (A) (A) (A) (A) (A) (A)
                 (A) (A) (A) (A) (A) (A) (A) (A) (A) (A) (A) (A)
                 (A) (A) (A) (A) (A) (A) (A) (A) (A) (A) (A) (A)
                 (A) (A) (A) (A) (A) (A) (A) (A) (A) (A) (A) (A)
                 (A) (A) (A) (A) (A) (A) (A) (A) (A) (A) (A) (A)
                 (A) (A) (A) (A) (A) (A) (A) (A) (A) (A) (A) (A)
                 (A) (A) (A) (A) (A) (A) (A) (A) (A) (A) (A) (A)
                 (A) (A) (A) (A) (A) (A) (A) (A) (A) (A) (A) (A)
                 (A) (A) (A) (A) (A) (A) (A) (A) (A) (A) (A) (A)
                 (A) (A) (A) (A) (A) (A) (A) (A) (A) (A) (A) (A)
                 (A) (A) (A) (A) (A) (A) (A) (A) (A) (A) (A) (A)
                 (A) (A) (A) (A) (A) (A) (A) (A) (A) (A) (A) (A)
                 (A) (A) (A) (A) (A) (A) (A) (A) (A) (A) (A) (A)
                 (A) (A) (A) (A) (A) (A) (A) (A) (A) (A) (A) (A)
                 (A) (A) (A) (A) (A) (A) (A) (A) (A) (A) (A) (A)
                 (A) (A) (A) (A) (A) (A) (A) (A) (A) (A) (A) (A)
                 (A) (A) (A) (A) (A) (A) (A) (A) (A) (A) (A) (A)
                 (A) (A) (A) (A) (A) (A) (A) (A) (A) (A) (A) (A)
                 (A) (A) (A) (A) (A) (A) (A) (A) (A) (A) (A) (A)
                 (A) (A) (A) (A) (A) (A) (A) (A) (A) (A) (A) (A)
                 (A) (A) (A) (A) (A) (A) (A) (A) (A) (A) (A) (A)
                 (A) (A) (A) (A) (A) (A) (A) (A) (A) (A) (A) (A)
                 (A) (A) (A) (A) (A) (A) (A) (A) (A) (A) (A) (A)
                 (A) (A) (A) (A) (A) (A) (A) (A) (A) (A) (A) (A)
                 (A) (A) (A) (A) (A) (A) (A) (A) (A) (A) (A) (A)
                 (A) (A) (A) (A) (A) (A) (A) (A) (A) (A) (A) (A)
                 (A) (A) (A) (A) (A) (A) (A) (A) (A) (A) (A) (A)
                 (A) (A) (A) (A) (A) (A) (A) (A) (A) (A) (A) (A)
                 (A) (A) (A) (A) (A) (A) (A) (A) (A) (A) (A) (A)
                 (A) (A) (A) (A) (A) (A) (A) (A) (A) (A) (A) (A)
                 (A) (A) (A) (A) (A) (A) (A) (A) (A) (A) (A) (A)
                 (A) (A) (A) (A) (A) (A) (A) (A) (A) (A) (A) (A)
                 (A) (A) (A) (A) (A) (A) (A) (A) (A) (A) (A) (A)
                 (A) (A) (A) (A) (A) (A)
 Beta  Orbitals:
       Occupied  (A) (A) (A) (A) (A) (A) (A) (A) (A) (A) (A) (A)
                 (A) (A) (A) (A) (A) (A) (A) (A) (A) (A) (A) (A)
                 (A) (A) (A) (A) (A) (A) (A) (A) (A) (A) (A) (A)
                 (A) (A) (A) (A) (A) (A) (A) (A) (A) (A) (A) (A)
                 (A) (A) (A) (A) (A) (A) (A) (A) (A) (A) (A) (A)
                 (A) (A) (A) (A) (A) (A) (A) (A) (A) (A) (A) (A)
                 (A) (A) (A) (A) (A) (A) (A) (A) (A) (A) (A) (A)
                 (A) (A) (A) (A) (A) (A) (A) (A) (A) (A) (A) (A)
                 (A) (A) (A) (A) (A) (A) (A) (A) (A) (A) (A) (A)
                 (A) (A) (A) (A) (A) (A) (A) (A) (A) (A) (A) (A)
                 (A) (A) (A) (A) (A) (A) (A) (A) (A) (A) (A) (A)
                 (A) (A) (A) (A) (A) (A) (A) (A) (A) (A) (A) (A)
                 (A) (A) (A) (A) (A) (A) (A) (A) (A) (A) (A) (A)
                 (A) (A) (A) (A) (A) (A) (A) (A) (A) (A) (A) (A)
                 (A) (A) (A) (A) (A) (A) (A) (A) (A) (A) (A) (A)
                 (A) (A) (A) (A) (A) (A) (A) (A) (A) (A) (A) (A)
                 (A) (A) (A) (A) (A) (A) (A) (A) (A) (A) (A) (A)
       Virtual   (A) (A) (A) (A) (A) (A) (A) (A) (A) (A) (A) (A)
                 (A) (A) (A) (A) (A) (A) (A) (A) (A) (A) (A) (A)
                 (A) (A) (A) (A) (A) (A) (A) (A) (A) (A) (A) (A)
                 (A) (A) (A) (A) (A) (A) (A) (A) (A) (A) (A) (A)
                 (A) (A) (A) (A) (A) (A) (A) (A) (A) (A) (A) (A)
                 (A) (A) (A) (A) (A) (A) (A) (A) (A) (A) (A) (A)
                 (A) (A) (A) (A) (A) (A) (A) (A) (A) (A) (A) (A)
                 (A) (A) (A) (A) (A) (A) (A) (A) (A) (A) (A) (A)
                 (A) (A) (A) (A) (A) (A) (A) (A) (A) (A) (A) (A)
                 (A) (A) (A) (A) (A) (A) (A) (A) (A) (A) (A) (A)
                 (A) (A) (A) (A) (A) (A) (A) (A) (A) (A) (A) (A)
                 (A) (A) (A) (A) (A) (A) (A) (A) (A) (A) (A) (A)
                 (A) (A) (A) (A) (A) (A) (A) (A) (A) (A) (A) (A)
                 (A) (A) (A) (A) (A) (A) (A) (A) (A) (A) (A) (A)
                 (A) (A) (A) (A) (A) (A) (A) (A) (A) (A) (A) (A)
                 (A) (A) (A) (A) (A) (A) (A) (A) (A) (A) (A) (A)
                 (A) (A) (A) (A) (A) (A) (A) (A) (A) (A) (A) (A)
                 (A) (A) (A) (A) (A) (A) (A) (A) (A) (A) (A) (A)
                 (A) (A) (A) (A) (A) (A) (A) (A) (A) (A) (A) (A)
                 (A) (A) (A) (A) (A) (A) (A) (A) (A) (A) (A) (A)
                 (A) (A) (A) (A) (A) (A) (A) (A) (A) (A) (A) (A)
                 (A) (A) (A) (A) (A) (A) (A) (A) (A) (A) (A) (A)
                 (A) (A) (A) (A) (A) (A) (A) (A) (A) (A) (A) (A)
                 (A) (A) (A) (A) (A) (A) (A) (A) (A) (A) (A) (A)
                 (A) (A) (A) (A) (A) (A) (A) (A) (A) (A) (A) (A)
                 (A) (A) (A) (A) (A) (A) (A) (A) (A) (A) (A) (A)
                 (A) (A) (A) (A) (A) (A) (A) (A) (A) (A) (A) (A)
                 (A) (A) (A) (A) (A) (A) (A) (A) (A) (A) (A) (A)
                 (A) (A) (A) (A) (A) (A) (A) (A) (A) (A) (A) (A)
                 (A) (A) (A) (A) (A) (A) (A) (A) (A) (A) (A) (A)
                 (A) (A) (A) (A) (A) (A) (A) (A) (A) (A) (A) (A)
                 (A) (A) (A) (A) (A) (A) (A) (A) (A) (A) (A) (A)
                 (A) (A) (A) (A) (A) (A) (A) (A) (A) (A) (A) (A)
                 (A) (A) (A) (A) (A) (A) (A) (A) (A) (A) (A) (A)
                 (A) (A) (A) (A) (A) (A) (A) (A) (A) (A) (A) (A)
                 (A) (A) (A) (A) (A) (A) (A) (A) (A) (A) (A) (A)
                 (A) (A) (A) (A) (A) (A) (A) (A) (A) (A) (A) (A)
                 (A) (A) (A) (A) (A) (A) (A) (A) (A) (A) (A) (A)
                 (A) (A) (A) (A) (A) (A) (A) (A) (A) (A) (A) (A)
                 (A) (A) (A) (A) (A) (A) (A) (A) (A) (A) (A) (A)
                 (A) (A) (A) (A) (A) (A) (A) (A) (A) (A) (A) (A)
                 (A) (A) (A) (A) (A) (A) (A) (A) (A) (A) (A) (A)
                 (A) (A) (A) (A) (A) (A) (A) (A) (A) (A) (A) (A)
                 (A) (A) (A) (A) (A) (A) (A) (A) (A) (A) (A) (A)
                 (A) (A) (A) (A) (A) (A) (A) (A) (A) (A) (A) (A)
                 (A) (A) (A) (A) (A) (A) (A) (A) (A) (A) (A) (A)
                 (A) (A) (A) (A) (A) (A) (A) (A) (A) (A) (A) (A)
                 (A) (A) (A) (A) (A) (A) (A) (A) (A) (A) (A) (A)
                 (A) (A) (A) (A) (A) (A) (A) (A) (A) (A) (A) (A)
                 (A) (A) (A) (A) (A) (A) (A) (A) (A) (A) (A) (A)
                 (A) (A) (A) (A) (A) (A) (A) (A) (A) (A) (A) (A)
                 (A) (A) (A) (A) (A) (A) (A) (A) (A) (A) (A) (A)
                 (A) (A) (A) (A) (A) (A) (A) (A) (A) (A) (A) (A)
                 (A) (A) (A) (A) (A) (A) (A) (A) (A) (A) (A) (A)
                 (A) (A) (A) (A) (A) (A) (A) (A) (A) (A) (A) (A)
                 (A) (A) (A) (A) (A) (A) (A) (A) (A) (A) (A) (A)
                 (A) (A) (A) (A) (A) (A) (A) (A) (A) (A) (A) (A)
                 (A) (A) (A) (A) (A) (A) (A) (A) (A) (A) (A) (A)
                 (A) (A) (A) (A) (A) (A) (A) (A) (A) (A) (A) (A)
                 (A) (A) (A) (A) (A) (A) (A) (A) (A) (A) (A) (A)
                 (A) (A) (A) (A) (A) (A) (A) (A) (A) (A) (A) (A)
                 (A) (A) (A) (A) (A) (A) (A) (A) (A) (A) (A) (A)
                 (A) (A) (A) (A) (A) (A) (A) (A) (A) (A) (A) (A)
                 (A) (A) (A) (A) (A) (A) (A) (A) (A) (A) (A) (A)
                 (A) (A) (A) (A) (A) (A) (A) (A) (A) (A) (A) (A)
                 (A) (A) (A) (A) (A) (A) (A) (A) (A) (A) (A) (A)
                 (A) (A) (A) (A) (A) (A) (A) (A) (A) (A) (A) (A)
                 (A) (A) (A) (A) (A) (A) (A) (A) (A) (A) (A) (A)
                 (A) (A) (A) (A) (A) (A) (A) (A) (A) (A) (A) (A)
                 (A) (A) (A) (A) (A) (A) (A) (A) (A) (A) (A) (A)
                 (A) (A) (A) (A) (A) (A) (A) (A) (A) (A) (A) (A)
                 (A) (A) (A) (A) (A) (A) (A) (A) (A) (A) (A) (A)
                 (A) (A) (A) (A) (A) (A) (A) (A) (A) (A) (A) (A)
                 (A) (A) (A) (A) (A) (A) (A) (A) (A) (A) (A) (A)
                 (A) (A) (A) (A) (A) (A) (A) (A) (A) (A) (A) (A)
                 (A) (A) (A) (A) (A) (A) (A) (A) (A) (A) (A) (A)
                 (A) (A) (A) (A) (A) (A) (A) (A) (A) (A) (A) (A)
                 (A) (A) (A) (A) (A) (A) (A) (A) (A) (A) (A) (A)
                 (A) (A) (A) (A) (A) (A) (A) (A) (A) (A) (A) (A)
                 (A) (A) (A) (A) (A) (A) (A) (A) (A) (A) (A) (A)
                 (A) (A) (A) (A) (A) (A) (A) (A) (A) (A) (A) (A)
                 (A) (A) (A) (A) (A) (A) (A) (A) (A) (A) (A) (A)
                 (A) (A) (A) (A) (A) (A) (A) (A) (A) (A) (A) (A)
                 (A) (A) (A) (A) (A) (A) (A) (A) (A) (A) (A) (A)
                 (A) (A) (A) (A) (A) (A) (A) (A) (A) (A) (A) (A)
                 (A) (A) (A) (A) (A) (A) (A) (A) (A) (A) (A) (A)
                 (A) (A) (A) (A) (A) (A) (A) (A) (A) (A) (A) (A)
                 (A) (A) (A) (A) (A) (A) (A) (A) (A) (A) (A) (A)
                 (A) (A) (A) (A) (A) (A) (A) (A) (A) (A) (A) (A)
                 (A) (A) (A) (A) (A) (A) (A) (A) (A) (A) (A) (A)
                 (A) (A) (A) (A) (A) (A) (A) (A) (A) (A) (A) (A)
                 (A) (A) (A) (A) (A) (A) (A) (A) (A) (A) (A) (A)
                 (A) (A) (A) (A) (A) (A) (A) (A) (A) (A) (A) (A)
                 (A) (A) (A) (A) (A) (A) (A) (A) (A) (A) (A) (A)
                 (A) (A) (A) (A) (A) (A) (A) (A) (A) (A) (A) (A)
                 (A) (A) (A) (A) (A) (A) (A) (A) (A) (A) (A) (A)
                 (A) (A) (A) (A) (A) (A) (A) (A) (A) (A) (A) (A)
                 (A) (A) (A) (A) (A) (A) (A) (A) (A) (A) (A) (A)
                 (A) (A) (A) (A) (A) (A) (A) (A) (A) (A) (A) (A)
                 (A) (A) (A) (A) (A) (A) (A) (A) (A) (A) (A) (A)
                 (A) (A) (A) (A) (A) (A) (A) (A) (A) (A) (A) (A)
                 (A) (A) (A) (A) (A) (A) (A) (A) (A) (A) (A) (A)
                 (A) (A) (A) (A) (A) (A) (A) (A) (A) (A) (A) (A)
                 (A) (A) (A) (A) (A) (A) (A) (A) (A) (A) (A) (A)
                 (A) (A) (A) (A) (A) (A) (A) (A) (A) (A) (A) (A)
                 (A) (A) (A) (A) (A) (A) (A) (A) (A) (A) (A) (A)
                 (A) (A) (A) (A) (A) (A) (A) (A) (A) (A) (A) (A)
                 (A) (A) (A) (A) (A) (A) (A) (A) (A) (A) (A) (A)
                 (A) (A) (A) (A) (A) (A) (A) (A) (A) (A) (A) (A)
                 (A) (A) (A) (A) (A) (A) (A) (A) (A) (A) (A) (A)
                 (A) (A) (A) (A) (A) (A) (A) (A) (A) (A) (A) (A)
                 (A) (A) (A) (A) (A) (A) (A) (A) (A) (A) (A) (A)
                 (A) (A) (A) (A) (A) (A) (A) (A) (A) (A) (A) (A)
                 (A) (A) (A) (A) (A) (A) (A) (A) (A) (A) (A) (A)
                 (A) (A) (A) (A) (A) (A) (A) (A) (A) (A) (A) (A)
                 (A) (A) (A) (A) (A) (A) (A) (A) (A) (A) (A) (A)
                 (A) (A) (A) (A) (A) (A) (A) (A) (A) (A) (A) (A)
                 (A) (A) (A) (A) (A) (A) (A) (A) (A) (A) (A) (A)
                 (A) (A) (A) (A) (A) (A) (A) (A) (A) (A) (A) (A)
                 (A) (A) (A) (A) (A) (A) (A) (A) (A) (A) (A) (A)
                 (A) (A) (A) (A) (A) (A) (A) (A) (A) (A) (A) (A)
                 (A) (A) (A) (A) (A) (A) (A) (A) (A) (A) (A) (A)
                 (A) (A) (A) (A) (A) (A) (A) (A) (A) (A) (A) (A)
                 (A) (A) (A) (A) (A) (A) (A) (A) (A) (A) (A) (A)
                 (A) (A) (A) (A) (A) (A) (A) (A) (A) (A) (A) (A)
                 (A) (A) (A) (A) (A) (A) (A) (A) (A) (A) (A) (A)
                 (A) (A) (A) (A) (A) (A) (A) (A) (A) (A) (A) (A)
                 (A) (A) (A) (A) (A) (A) (A) (A) (A) (A) (A) (A)
                 (A) (A) (A) (A) (A) (A) (A) (A) (A) (A) (A) (A)
                 (A) (A) (A) (A) (A) (A) (A) (A) (A) (A) (A) (A)
                 (A) (A) (A) (A) (A) (A) (A) (A) (A) (A) (A) (A)
                 (A) (A) (A) (A) (A) (A) (A) (A) (A) (A) (A) (A)
                 (A) (A) (A) (A) (A) (A) (A) (A) (A) (A) (A) (A)
                 (A) (A) (A) (A) (A) (A) (A) (A) (A) (A) (A) (A)
                 (A) (A) (A) (A) (A) (A) (A) (A) (A) (A) (A) (A)
                 (A) (A) (A) (A) (A) (A) (A) (A) (A) (A) (A) (A)
                 (A) (A) (A) (A) (A) (A) (A) (A) (A) (A) (A) (A)
                 (A) (A) (A) (A) (A) (A) (A) (A) (A) (A) (A) (A)
                 (A) (A) (A) (A) (A) (A) (A) (A) (A) (A) (A) (A)
                 (A) (A) (A) (A) (A) (A) (A) (A) (A) (A) (A) (A)
                 (A) (A) (A) (A) (A) (A) (A) (A) (A) (A) (A) (A)
                 (A) (A) (A) (A) (A) (A) (A) (A) (A) (A) (A) (A)
                 (A) (A) (A) (A) (A) (A) (A) (A) (A) (A) (A) (A)
                 (A) (A) (A) (A) (A) (A) (A) (A) (A) (A) (A) (A)
                 (A) (A) (A) (A) (A) (A) (A) (A) (A) (A) (A) (A)
                 (A) (A) (A) (A) (A) (A) (A)
 The electronic state is 2-A.
 Alpha  occ. eigenvalues -- -256.50323 -89.14162 -30.29056 -26.12339 -26.11582
 Alpha  occ. eigenvalues --  -26.10162 -19.34154 -19.33708 -19.24697 -19.24540
 Alpha  occ. eigenvalues --  -14.55763 -14.50987 -14.48563 -14.48482 -14.48201
 Alpha  occ. eigenvalues --  -14.48011 -10.42360 -10.42308 -10.38527 -10.36002
 Alpha  occ. eigenvalues --  -10.35423 -10.35341 -10.34987 -10.34973 -10.34810
 Alpha  occ. eigenvalues --  -10.34807 -10.34803 -10.34370 -10.34141 -10.33631
 Alpha  occ. eigenvalues --  -10.33029 -10.33004 -10.32911 -10.32561 -10.32445
 Alpha  occ. eigenvalues --  -10.32232 -10.32206 -10.32083 -10.31942 -10.31935
 Alpha  occ. eigenvalues --  -10.31837 -10.31761 -10.31623 -10.31597 -10.31421
 Alpha  occ. eigenvalues --  -10.31291 -10.31020 -10.30929 -10.30365 -10.30307
 Alpha  occ. eigenvalues --  -10.30240 -10.30186 -10.30069 -10.29790 -10.29596
 Alpha  occ. eigenvalues --  -10.29049 -10.28934  -8.12109  -6.05714  -6.05428
 Alpha  occ. eigenvalues --   -6.04990  -3.64667  -2.42269  -2.40651  -2.37636
 Alpha  occ. eigenvalues --   -1.25025  -1.23850  -1.19401  -1.09405  -1.09131
 Alpha  occ. eigenvalues --   -1.09047  -1.08038  -1.07892  -1.06474  -1.02976
 Alpha  occ. eigenvalues --   -0.96176  -0.94071  -0.92792  -0.92500  -0.91773
 Alpha  occ. eigenvalues --   -0.91525  -0.91334  -0.90942  -0.90505  -0.87944
 Alpha  occ. eigenvalues --   -0.87252  -0.86422  -0.85929  -0.85393  -0.84502
 Alpha  occ. eigenvalues --   -0.83018  -0.81973  -0.81836  -0.81310  -0.80599
 Alpha  occ. eigenvalues --   -0.79336  -0.79137  -0.78539  -0.77928  -0.77040
 Alpha  occ. eigenvalues --   -0.76213  -0.75391  -0.73958  -0.72980  -0.72269
 Alpha  occ. eigenvalues --   -0.72144  -0.70835  -0.70524  -0.69205  -0.67803
 Alpha  occ. eigenvalues --   -0.67159  -0.65608  -0.64903  -0.64076  -0.63324
 Alpha  occ. eigenvalues --   -0.62419  -0.61523  -0.61161  -0.59908  -0.59643
 Alpha  occ. eigenvalues --   -0.59563  -0.59170  -0.59026  -0.58689  -0.58451
 Alpha  occ. eigenvalues --   -0.58304  -0.58183  -0.57675  -0.56995  -0.56755
 Alpha  occ. eigenvalues --   -0.56340  -0.55747  -0.55462  -0.55044  -0.54593
 Alpha  occ. eigenvalues --   -0.54509  -0.54216  -0.54004  -0.53765  -0.53623
 Alpha  occ. eigenvalues --   -0.53299  -0.53261  -0.53025  -0.52854  -0.52473
 Alpha  occ. eigenvalues --   -0.52447  -0.51821  -0.51714  -0.51566  -0.51420
 Alpha  occ. eigenvalues --   -0.51353  -0.50937  -0.50663  -0.50530  -0.50226
 Alpha  occ. eigenvalues --   -0.49632  -0.49512  -0.49360  -0.49079  -0.48928
 Alpha  occ. eigenvalues --   -0.48719  -0.48382  -0.48190  -0.48044  -0.47743
 Alpha  occ. eigenvalues --   -0.47651  -0.47418  -0.47356  -0.47095  -0.46805
 Alpha  occ. eigenvalues --   -0.46562  -0.46336  -0.46199  -0.46097  -0.45920
 Alpha  occ. eigenvalues --   -0.45495  -0.45296  -0.45122  -0.44759  -0.44243
 Alpha  occ. eigenvalues --   -0.44029  -0.43716  -0.43289  -0.43021  -0.42826
 Alpha  occ. eigenvalues --   -0.42512  -0.42099  -0.41111  -0.39842  -0.39624
 Alpha  occ. eigenvalues --   -0.39605  -0.39243  -0.38348  -0.37578  -0.36739
 Alpha  occ. eigenvalues --   -0.35147  -0.34797  -0.34592  -0.34252  -0.33836
 Alpha  occ. eigenvalues --   -0.33421  -0.33320  -0.30039  -0.29465  -0.28847
 Alpha virt. eigenvalues --   -0.18075  -0.17172  -0.16079  -0.13278  -0.12881
 Alpha virt. eigenvalues --   -0.10092  -0.08035  -0.07240  -0.06801  -0.06387
 Alpha virt. eigenvalues --   -0.06051  -0.05354  -0.05190  -0.05037  -0.04447
 Alpha virt. eigenvalues --   -0.03595  -0.03578  -0.03384  -0.02803  -0.02509
 Alpha virt. eigenvalues --   -0.02339  -0.01998  -0.01912  -0.01691  -0.01341
 Alpha virt. eigenvalues --   -0.01065  -0.00824  -0.00647  -0.00537  -0.00250
 Alpha virt. eigenvalues --    0.00222   0.00611   0.00639   0.01025   0.01336
 Alpha virt. eigenvalues --    0.01821   0.01917   0.02357   0.02365   0.02534
 Alpha virt. eigenvalues --    0.02950   0.03148   0.03283   0.03665   0.03909
 Alpha virt. eigenvalues --    0.04037   0.04247   0.04455   0.04553   0.04621
 Alpha virt. eigenvalues --    0.04814   0.04966   0.05242   0.05511   0.05716
 Alpha virt. eigenvalues --    0.06043   0.06049   0.06285   0.06373   0.06423
 Alpha virt. eigenvalues --    0.06716   0.06959   0.07185   0.07247   0.07499
 Alpha virt. eigenvalues --    0.07688   0.07821   0.07974   0.08084   0.08159
 Alpha virt. eigenvalues --    0.08300   0.08624   0.08798   0.09148   0.09357
 Alpha virt. eigenvalues --    0.09494   0.09658   0.10007   0.10143   0.10488
 Alpha virt. eigenvalues --    0.10881   0.10943   0.11197   0.11487   0.11677
 Alpha virt. eigenvalues --    0.11762   0.12043   0.12196   0.12419   0.12621
 Alpha virt. eigenvalues --    0.12677   0.13392   0.13425   0.13525   0.13595
 Alpha virt. eigenvalues --    0.13833   0.13939   0.14089   0.14479   0.14543
 Alpha virt. eigenvalues --    0.14710   0.14770   0.15124   0.15163   0.15385
 Alpha virt. eigenvalues --    0.15552   0.15832   0.16184   0.16324   0.16437
 Alpha virt. eigenvalues --    0.16676   0.16716   0.17000   0.17208   0.17384
 Alpha virt. eigenvalues --    0.17471   0.17600   0.17753   0.18087   0.18483
 Alpha virt. eigenvalues --    0.18641   0.18709   0.19067   0.19305   0.19486
 Alpha virt. eigenvalues --    0.19603   0.19861   0.20028   0.20241   0.20437
 Alpha virt. eigenvalues --    0.20710   0.20834   0.21427   0.21614   0.21647
 Alpha virt. eigenvalues --    0.21893   0.22043   0.22263   0.22784   0.22798
 Alpha virt. eigenvalues --    0.22977   0.23346   0.23462   0.23686   0.23741
 Alpha virt. eigenvalues --    0.24144   0.24159   0.24592   0.24798   0.25138
 Alpha virt. eigenvalues --    0.25423   0.25507   0.25759   0.25842   0.26131
 Alpha virt. eigenvalues --    0.26627   0.26923   0.27063   0.27372   0.27685
 Alpha virt. eigenvalues --    0.27750   0.27909   0.28037   0.28169   0.28668
 Alpha virt. eigenvalues --    0.28766   0.28986   0.29224   0.29359   0.29586
 Alpha virt. eigenvalues --    0.29740   0.30159   0.30238   0.30433   0.30614
 Alpha virt. eigenvalues --    0.30896   0.31153   0.31248   0.31405   0.31660
 Alpha virt. eigenvalues --    0.31808   0.31950   0.32138   0.32346   0.32534
 Alpha virt. eigenvalues --    0.32557   0.33012   0.33146   0.33294   0.33493
 Alpha virt. eigenvalues --    0.33772   0.33787   0.33904   0.34245   0.34567
 Alpha virt. eigenvalues --    0.34665   0.35089   0.35174   0.35214   0.35312
 Alpha virt. eigenvalues --    0.35482   0.35652   0.35784   0.36150   0.36254
 Alpha virt. eigenvalues --    0.36303   0.36532   0.36789   0.37025   0.37037
 Alpha virt. eigenvalues --    0.37248   0.37389   0.37524   0.37721   0.37890
 Alpha virt. eigenvalues --    0.38071   0.38102   0.38352   0.38506   0.38636
 Alpha virt. eigenvalues --    0.38746   0.38972   0.39044   0.39178   0.39698
 Alpha virt. eigenvalues --    0.39844   0.40003   0.40055   0.40289   0.40331
 Alpha virt. eigenvalues --    0.40639   0.40733   0.40819   0.41080   0.41156
 Alpha virt. eigenvalues --    0.41289   0.41482   0.41604   0.41699   0.42005
 Alpha virt. eigenvalues --    0.42138   0.42248   0.42367   0.42535   0.42612
 Alpha virt. eigenvalues --    0.42880   0.43108   0.43162   0.43356   0.43545
 Alpha virt. eigenvalues --    0.43712   0.44003   0.44056   0.44199   0.44355
 Alpha virt. eigenvalues --    0.44522   0.44694   0.44772   0.44938   0.45291
 Alpha virt. eigenvalues --    0.45478   0.45710   0.45833   0.46253   0.46356
 Alpha virt. eigenvalues --    0.46414   0.46710   0.46972   0.47100   0.47298
 Alpha virt. eigenvalues --    0.47501   0.47673   0.47920   0.48207   0.48452
 Alpha virt. eigenvalues --    0.48709   0.48727   0.49118   0.49209   0.49432
 Alpha virt. eigenvalues --    0.49675   0.49975   0.50040   0.50517   0.50834
 Alpha virt. eigenvalues --    0.51045   0.51107   0.51311   0.51600   0.51663
 Alpha virt. eigenvalues --    0.51835   0.52046   0.52220   0.52401   0.52754
 Alpha virt. eigenvalues --    0.52910   0.53034   0.53357   0.53722   0.53816
 Alpha virt. eigenvalues --    0.54192   0.54350   0.54528   0.54787   0.55241
 Alpha virt. eigenvalues --    0.55488   0.55609   0.55899   0.56204   0.56296
 Alpha virt. eigenvalues --    0.56590   0.56736   0.57217   0.57586   0.58167
 Alpha virt. eigenvalues --    0.58320   0.58542   0.58733   0.59105   0.59277
 Alpha virt. eigenvalues --    0.59524   0.59773   0.59985   0.60290   0.60693
 Alpha virt. eigenvalues --    0.60899   0.61161   0.61579   0.61718   0.61834
 Alpha virt. eigenvalues --    0.62333   0.62775   0.62968   0.63165   0.63446
 Alpha virt. eigenvalues --    0.63884   0.64142   0.64213   0.64629   0.64947
 Alpha virt. eigenvalues --    0.65050   0.65443   0.65598   0.66102   0.66400
 Alpha virt. eigenvalues --    0.66472   0.66762   0.67077   0.67369   0.67567
 Alpha virt. eigenvalues --    0.68085   0.68177   0.68268   0.68496   0.68834
 Alpha virt. eigenvalues --    0.69458   0.69756   0.69850   0.70228   0.70340
 Alpha virt. eigenvalues --    0.70505   0.70638   0.71051   0.71591   0.71993
 Alpha virt. eigenvalues --    0.72148   0.72346   0.72495   0.72700   0.73010
 Alpha virt. eigenvalues --    0.73654   0.74001   0.74096   0.74322   0.74558
 Alpha virt. eigenvalues --    0.74965   0.75353   0.75623   0.75771   0.76156
 Alpha virt. eigenvalues --    0.76891   0.76989   0.77174   0.77574   0.77734
 Alpha virt. eigenvalues --    0.78098   0.78244   0.78437   0.78861   0.79045
 Alpha virt. eigenvalues --    0.79161   0.79429   0.79658   0.79959   0.80462
 Alpha virt. eigenvalues --    0.80760   0.80972   0.81236   0.81391   0.81838
 Alpha virt. eigenvalues --    0.81913   0.82200   0.82453   0.82618   0.82691
 Alpha virt. eigenvalues --    0.83046   0.83522   0.83542   0.83805   0.83994
 Alpha virt. eigenvalues --    0.84276   0.84920   0.85114   0.85216   0.85673
 Alpha virt. eigenvalues --    0.86070   0.86335   0.86770   0.86960   0.87174
 Alpha virt. eigenvalues --    0.87435   0.87755   0.87815   0.88141   0.88326
 Alpha virt. eigenvalues --    0.88604   0.88935   0.89065   0.89346   0.89886
 Alpha virt. eigenvalues --    0.90198   0.90398   0.90652   0.90795   0.91017
 Alpha virt. eigenvalues --    0.91304   0.91362   0.91906   0.92223   0.92240
 Alpha virt. eigenvalues --    0.92628   0.93039   0.93177   0.93476   0.93670
 Alpha virt. eigenvalues --    0.93991   0.94259   0.94693   0.94928   0.95157
 Alpha virt. eigenvalues --    0.95446   0.96096   0.96174   0.96212   0.96281
 Alpha virt. eigenvalues --    0.96748   0.97246   0.97352   0.97726   0.97953
 Alpha virt. eigenvalues --    0.98385   0.98660   0.98750   0.99160   0.99287
 Alpha virt. eigenvalues --    0.99407   0.99906   1.00219   1.00426   1.00575
 Alpha virt. eigenvalues --    1.01165   1.01298   1.01773   1.02039   1.02259
 Alpha virt. eigenvalues --    1.02641   1.02984   1.03158   1.03390   1.03686
 Alpha virt. eigenvalues --    1.04164   1.04491   1.04765   1.05074   1.05541
 Alpha virt. eigenvalues --    1.05706   1.05942   1.06202   1.06776   1.06999
 Alpha virt. eigenvalues --    1.07195   1.07390   1.07608   1.08518   1.08713
 Alpha virt. eigenvalues --    1.08902   1.09168   1.09818   1.10123   1.10399
 Alpha virt. eigenvalues --    1.10923   1.11229   1.11335   1.11651   1.11777
 Alpha virt. eigenvalues --    1.12148   1.12459   1.12934   1.13054   1.13526
 Alpha virt. eigenvalues --    1.13686   1.14298   1.14538   1.15153   1.15430
 Alpha virt. eigenvalues --    1.15622   1.16186   1.16380   1.16681   1.17149
 Alpha virt. eigenvalues --    1.17316   1.17770   1.18050   1.18303   1.18592
 Alpha virt. eigenvalues --    1.18880   1.19306   1.19650   1.20345   1.20719
 Alpha virt. eigenvalues --    1.21156   1.21418   1.21621   1.22035   1.22081
 Alpha virt. eigenvalues --    1.22834   1.23283   1.23422   1.23997   1.24148
 Alpha virt. eigenvalues --    1.24259   1.25140   1.25174   1.25389   1.26276
 Alpha virt. eigenvalues --    1.26402   1.26504   1.26847   1.27195   1.27485
 Alpha virt. eigenvalues --    1.27656   1.28238   1.28921   1.29399   1.29470
 Alpha virt. eigenvalues --    1.30019   1.30724   1.30965   1.31517   1.31699
 Alpha virt. eigenvalues --    1.32019   1.32248   1.33166   1.33429   1.33724
 Alpha virt. eigenvalues --    1.34335   1.34517   1.35410   1.36042   1.36315
 Alpha virt. eigenvalues --    1.36535   1.37255   1.37949   1.38027   1.38088
 Alpha virt. eigenvalues --    1.38460   1.38756   1.39253   1.39356   1.39754
 Alpha virt. eigenvalues --    1.39942   1.40229   1.40501   1.40738   1.41250
 Alpha virt. eigenvalues --    1.41335   1.41890   1.42132   1.42349   1.42559
 Alpha virt. eigenvalues --    1.42879   1.43095   1.43242   1.43503   1.44104
 Alpha virt. eigenvalues --    1.44369   1.44484   1.44847   1.45084   1.45370
 Alpha virt. eigenvalues --    1.45564   1.45671   1.46140   1.46245   1.46338
 Alpha virt. eigenvalues --    1.46851   1.46906   1.47439   1.47622   1.47721
 Alpha virt. eigenvalues --    1.47975   1.48229   1.48427   1.48497   1.48823
 Alpha virt. eigenvalues --    1.49137   1.49341   1.49499   1.49867   1.50063
 Alpha virt. eigenvalues --    1.50360   1.50539   1.50765   1.50875   1.51298
 Alpha virt. eigenvalues --    1.51520   1.51644   1.52209   1.52384   1.52641
 Alpha virt. eigenvalues --    1.52884   1.52909   1.53087   1.53582   1.53802
 Alpha virt. eigenvalues --    1.54242   1.54332   1.54397   1.54677   1.54969
 Alpha virt. eigenvalues --    1.55353   1.55586   1.55815   1.56047   1.56372
 Alpha virt. eigenvalues --    1.56594   1.56810   1.57034   1.57400   1.57593
 Alpha virt. eigenvalues --    1.57810   1.57920   1.58082   1.58559   1.58926
 Alpha virt. eigenvalues --    1.59060   1.59179   1.59433   1.59535   1.59801
 Alpha virt. eigenvalues --    1.60016   1.60243   1.60616   1.60834   1.61164
 Alpha virt. eigenvalues --    1.61246   1.61450   1.62112   1.62318   1.62576
 Alpha virt. eigenvalues --    1.62904   1.63301   1.63374   1.63910   1.64007
 Alpha virt. eigenvalues --    1.64159   1.64661   1.64728   1.65082   1.65332
 Alpha virt. eigenvalues --    1.65667   1.65881   1.66293   1.66474   1.66897
 Alpha virt. eigenvalues --    1.67243   1.67356   1.68064   1.68660   1.68953
 Alpha virt. eigenvalues --    1.69403   1.69659   1.70562   1.70673   1.71041
 Alpha virt. eigenvalues --    1.71338   1.71696   1.72114   1.72532   1.72725
 Alpha virt. eigenvalues --    1.73164   1.73838   1.73976   1.74568   1.74902
 Alpha virt. eigenvalues --    1.75220   1.75548   1.75894   1.76336   1.76914
 Alpha virt. eigenvalues --    1.77290   1.77631   1.78276   1.78356   1.78590
 Alpha virt. eigenvalues --    1.78732   1.79160   1.79595   1.79837   1.80047
 Alpha virt. eigenvalues --    1.80164   1.80682   1.81307   1.81687   1.82087
 Alpha virt. eigenvalues --    1.82171   1.82602   1.82780   1.83199   1.83380
 Alpha virt. eigenvalues --    1.83989   1.84246   1.84718   1.84936   1.85189
 Alpha virt. eigenvalues --    1.85259   1.85684   1.85997   1.86417   1.86491
 Alpha virt. eigenvalues --    1.86834   1.87390   1.87453   1.87727   1.88130
 Alpha virt. eigenvalues --    1.88513   1.88557   1.88760   1.89746   1.89774
 Alpha virt. eigenvalues --    1.90275   1.90426   1.90664   1.91031   1.91440
 Alpha virt. eigenvalues --    1.91582   1.92041   1.92062   1.92284   1.92862
 Alpha virt. eigenvalues --    1.93298   1.93734   1.93901   1.94208   1.94526
 Alpha virt. eigenvalues --    1.95047   1.95533   1.95819   1.96250   1.96673
 Alpha virt. eigenvalues --    1.96962   1.97106   1.97902   1.98270   1.98426
 Alpha virt. eigenvalues --    1.98601   1.99062   1.99266   1.99653   1.99781
 Alpha virt. eigenvalues --    2.00157   2.00737   2.00931   2.01606   2.01800
 Alpha virt. eigenvalues --    2.01870   2.02089   2.02678   2.02908   2.03085
 Alpha virt. eigenvalues --    2.03366   2.03667   2.04102   2.04256   2.04866
 Alpha virt. eigenvalues --    2.05088   2.05277   2.05577   2.05845   2.06233
 Alpha virt. eigenvalues --    2.06585   2.06693   2.07215   2.07378   2.07815
 Alpha virt. eigenvalues --    2.08032   2.08592   2.09045   2.09240   2.09671
 Alpha virt. eigenvalues --    2.09898   2.10026   2.10462   2.10800   2.11210
 Alpha virt. eigenvalues --    2.11704   2.11930   2.12254   2.12426   2.12686
 Alpha virt. eigenvalues --    2.13346   2.13595   2.13931   2.14322   2.14571
 Alpha virt. eigenvalues --    2.15051   2.15172   2.15450   2.16002   2.16153
 Alpha virt. eigenvalues --    2.16462   2.16730   2.17270   2.17769   2.18097
 Alpha virt. eigenvalues --    2.18644   2.18752   2.19206   2.19664   2.19872
 Alpha virt. eigenvalues --    2.19992   2.20824   2.21177   2.21394   2.22339
 Alpha virt. eigenvalues --    2.22725   2.23096   2.23148   2.23647   2.23859
 Alpha virt. eigenvalues --    2.24468   2.24539   2.24934   2.25202   2.25728
 Alpha virt. eigenvalues --    2.25924   2.26257   2.26433   2.26902   2.27264
 Alpha virt. eigenvalues --    2.27294   2.27883   2.28187   2.28308   2.28887
 Alpha virt. eigenvalues --    2.28976   2.29791   2.30061   2.30262   2.30725
 Alpha virt. eigenvalues --    2.30882   2.31014   2.31444   2.31773   2.31959
 Alpha virt. eigenvalues --    2.32400   2.32542   2.33048   2.33621   2.33735
 Alpha virt. eigenvalues --    2.34071   2.34601   2.34904   2.35052   2.35217
 Alpha virt. eigenvalues --    2.35923   2.36049   2.36502   2.36601   2.36847
 Alpha virt. eigenvalues --    2.37412   2.37907   2.38135   2.38268   2.38587
 Alpha virt. eigenvalues --    2.38970   2.39178   2.39306   2.39745   2.40081
 Alpha virt. eigenvalues --    2.40985   2.41470   2.41774   2.42025   2.42682
 Alpha virt. eigenvalues --    2.43021   2.43327   2.43911   2.44117   2.44519
 Alpha virt. eigenvalues --    2.45207   2.45580   2.45870   2.46143   2.46581
 Alpha virt. eigenvalues --    2.46928   2.47166   2.47259   2.47871   2.48062
 Alpha virt. eigenvalues --    2.48448   2.48712   2.48871   2.49048   2.49289
 Alpha virt. eigenvalues --    2.49433   2.49757   2.50087   2.50514   2.50880
 Alpha virt. eigenvalues --    2.51114   2.51488   2.51675   2.51737   2.51789
 Alpha virt. eigenvalues --    2.52234   2.52861   2.53313   2.53544   2.53964
 Alpha virt. eigenvalues --    2.54223   2.54580   2.54865   2.55132   2.55271
 Alpha virt. eigenvalues --    2.55665   2.55834   2.55955   2.56441   2.56899
 Alpha virt. eigenvalues --    2.56922   2.57159   2.57421   2.57719   2.58350
 Alpha virt. eigenvalues --    2.58650   2.58922   2.58942   2.59358   2.59445
 Alpha virt. eigenvalues --    2.59639   2.59993   2.60656   2.60883   2.61535
 Alpha virt. eigenvalues --    2.61740   2.62206   2.62717   2.63096   2.63278
 Alpha virt. eigenvalues --    2.63482   2.63795   2.63946   2.64293   2.64485
 Alpha virt. eigenvalues --    2.64874   2.65045   2.65392   2.65461   2.66049
 Alpha virt. eigenvalues --    2.66242   2.66508   2.66694   2.67016   2.67213
 Alpha virt. eigenvalues --    2.67573   2.68132   2.68268   2.68649   2.69053
 Alpha virt. eigenvalues --    2.69352   2.69813   2.70298   2.70699   2.70997
 Alpha virt. eigenvalues --    2.71141   2.71385   2.71780   2.71992   2.72590
 Alpha virt. eigenvalues --    2.72743   2.73091   2.73408   2.73518   2.74182
 Alpha virt. eigenvalues --    2.74336   2.74716   2.74791   2.75391   2.75581
 Alpha virt. eigenvalues --    2.75669   2.76251   2.76467   2.76852   2.77094
 Alpha virt. eigenvalues --    2.77439   2.77693   2.78128   2.78372   2.78767
 Alpha virt. eigenvalues --    2.79213   2.79451   2.79515   2.79804   2.80096
 Alpha virt. eigenvalues --    2.80293   2.80628   2.81347   2.81480   2.81717
 Alpha virt. eigenvalues --    2.82139   2.82233   2.82430   2.83160   2.83585
 Alpha virt. eigenvalues --    2.83649   2.84370   2.84473   2.84533   2.84838
 Alpha virt. eigenvalues --    2.85192   2.85418   2.85866   2.86006   2.86231
 Alpha virt. eigenvalues --    2.86790   2.87110   2.87414   2.87480   2.87936
 Alpha virt. eigenvalues --    2.88299   2.88531   2.89015   2.89237   2.89623
 Alpha virt. eigenvalues --    2.89783   2.90285   2.90591   2.91090   2.91272
 Alpha virt. eigenvalues --    2.91689   2.92103   2.92212   2.92609   2.92665
 Alpha virt. eigenvalues --    2.93162   2.93537   2.93964   2.94466   2.95200
 Alpha virt. eigenvalues --    2.95248   2.95521   2.95601   2.96010   2.96453
 Alpha virt. eigenvalues --    2.96627   2.96718   2.97016   2.97526   2.97880
 Alpha virt. eigenvalues --    2.97974   2.98317   2.98736   2.99175   2.99402
 Alpha virt. eigenvalues --    2.99572   2.99889   3.00185   3.00417   3.00616
 Alpha virt. eigenvalues --    3.01057   3.01123   3.01444   3.02274   3.02306
 Alpha virt. eigenvalues --    3.02697   3.02736   3.03049   3.03477   3.03756
 Alpha virt. eigenvalues --    3.04162   3.04320   3.04522   3.04839   3.05158
 Alpha virt. eigenvalues --    3.05365   3.05607   3.05922   3.06386   3.06736
 Alpha virt. eigenvalues --    3.06786   3.06949   3.07096   3.07283   3.07480
 Alpha virt. eigenvalues --    3.08174   3.08617   3.08665   3.08880   3.09078
 Alpha virt. eigenvalues --    3.09513   3.09675   3.09849   3.10206   3.10375
 Alpha virt. eigenvalues --    3.10597   3.10868   3.11127   3.11362   3.11727
 Alpha virt. eigenvalues --    3.11961   3.12100   3.12502   3.12700   3.13082
 Alpha virt. eigenvalues --    3.13281   3.13548   3.13614   3.14133   3.14408
 Alpha virt. eigenvalues --    3.14492   3.14952   3.15253   3.15467   3.15536
 Alpha virt. eigenvalues --    3.15947   3.16244   3.16575   3.16715   3.16964
 Alpha virt. eigenvalues --    3.17006   3.17404   3.17687   3.18201   3.18376
 Alpha virt. eigenvalues --    3.18631   3.18700   3.18903   3.19146   3.19419
 Alpha virt. eigenvalues --    3.19675   3.19902   3.20235   3.20333   3.20726
 Alpha virt. eigenvalues --    3.21079   3.21290   3.21443   3.21576   3.21755
 Alpha virt. eigenvalues --    3.22367   3.22568   3.22922   3.23052   3.23185
 Alpha virt. eigenvalues --    3.23918   3.23979   3.24273   3.24380   3.24715
 Alpha virt. eigenvalues --    3.24839   3.25125   3.25381   3.25549   3.25800
 Alpha virt. eigenvalues --    3.25916   3.26078   3.26781   3.26881   3.26973
 Alpha virt. eigenvalues --    3.27293   3.27833   3.27915   3.28024   3.28208
 Alpha virt. eigenvalues --    3.28432   3.28693   3.28865   3.29030   3.29387
 Alpha virt. eigenvalues --    3.29447   3.29874   3.29967   3.30297   3.30666
 Alpha virt. eigenvalues --    3.30710   3.31157   3.31265   3.31730   3.32057
 Alpha virt. eigenvalues --    3.32224   3.32649   3.32675   3.32886   3.32982
 Alpha virt. eigenvalues --    3.33205   3.33358   3.33678   3.34105   3.34516
 Alpha virt. eigenvalues --    3.34747   3.35231   3.35379   3.35734   3.35897
 Alpha virt. eigenvalues --    3.36228   3.36492   3.36782   3.37406   3.37526
 Alpha virt. eigenvalues --    3.37746   3.38065   3.38227   3.38336   3.38671
 Alpha virt. eigenvalues --    3.38790   3.39263   3.39572   3.39935   3.39991
 Alpha virt. eigenvalues --    3.40163   3.40495   3.40674   3.40854   3.41170
 Alpha virt. eigenvalues --    3.41494   3.41731   3.42039   3.42488   3.42845
 Alpha virt. eigenvalues --    3.43096   3.43278   3.43486   3.43562   3.43760
 Alpha virt. eigenvalues --    3.44395   3.44778   3.44833   3.45334   3.45697
 Alpha virt. eigenvalues --    3.45938   3.46212   3.46480   3.46780   3.47112
 Alpha virt. eigenvalues --    3.47717   3.48048   3.48664   3.48753   3.48904
 Alpha virt. eigenvalues --    3.49402   3.49528   3.50116   3.50286   3.50342
 Alpha virt. eigenvalues --    3.50948   3.51384   3.51692   3.52285   3.52460
 Alpha virt. eigenvalues --    3.52836   3.53038   3.53549   3.53920   3.54104
 Alpha virt. eigenvalues --    3.54655   3.55220   3.55532   3.55702   3.56150
 Alpha virt. eigenvalues --    3.56565   3.56943   3.57744   3.58037   3.58259
 Alpha virt. eigenvalues --    3.58609   3.58798   3.59711   3.59905   3.60257
 Alpha virt. eigenvalues --    3.60486   3.61065   3.61444   3.61631   3.62232
 Alpha virt. eigenvalues --    3.62296   3.62555   3.63015   3.63286   3.63570
 Alpha virt. eigenvalues --    3.64072   3.64196   3.64551   3.64952   3.65190
 Alpha virt. eigenvalues --    3.65283   3.65771   3.66096   3.66513   3.67021
 Alpha virt. eigenvalues --    3.67235   3.67949   3.68004   3.68155   3.68963
 Alpha virt. eigenvalues --    3.69318   3.69696   3.70228   3.70414   3.70794
 Alpha virt. eigenvalues --    3.71281   3.71845   3.72036   3.72451   3.73294
 Alpha virt. eigenvalues --    3.74214   3.74318   3.74649   3.75019   3.75523
 Alpha virt. eigenvalues --    3.76063   3.76277   3.76459   3.76525   3.77128
 Alpha virt. eigenvalues --    3.77506   3.77833   3.78444   3.78974   3.79404
 Alpha virt. eigenvalues --    3.79795   3.80091   3.80215   3.80849   3.80966
 Alpha virt. eigenvalues --    3.81147   3.81677   3.82455   3.83056   3.83376
 Alpha virt. eigenvalues --    3.83786   3.83946   3.84373   3.84892   3.85483
 Alpha virt. eigenvalues --    3.85752   3.86386   3.86705   3.87002   3.87681
 Alpha virt. eigenvalues --    3.87842   3.88173   3.88608   3.88792   3.89525
 Alpha virt. eigenvalues --    3.89815   3.90276   3.90921   3.91371   3.91786
 Alpha virt. eigenvalues --    3.92073   3.92461   3.92895   3.92965   3.94359
 Alpha virt. eigenvalues --    3.94774   3.95443   3.95676   3.96125   3.96592
 Alpha virt. eigenvalues --    3.97472   3.97989   3.98099   3.99274   3.99759
 Alpha virt. eigenvalues --    4.00135   4.00459   4.01022   4.01392   4.02054
 Alpha virt. eigenvalues --    4.02324   4.03522   4.03826   4.03979   4.04866
 Alpha virt. eigenvalues --    4.05221   4.05593   4.05629   4.06490   4.07220
 Alpha virt. eigenvalues --    4.07783   4.08847   4.10013   4.10383   4.10740
 Alpha virt. eigenvalues --    4.11036   4.11841   4.11997   4.12675   4.13305
 Alpha virt. eigenvalues --    4.13497   4.13888   4.15008   4.15553   4.15801
 Alpha virt. eigenvalues --    4.15967   4.16414   4.16779   4.17675   4.18108
 Alpha virt. eigenvalues --    4.18694   4.19646   4.19861   4.20298   4.21147
 Alpha virt. eigenvalues --    4.21570   4.22005   4.22170   4.22877   4.23694
 Alpha virt. eigenvalues --    4.24120   4.24490   4.25174   4.25736   4.26177
 Alpha virt. eigenvalues --    4.27187   4.27626   4.27923   4.28430   4.28840
 Alpha virt. eigenvalues --    4.29115   4.29316   4.29505   4.29786   4.30134
 Alpha virt. eigenvalues --    4.30625   4.31096   4.31558   4.31693   4.32631
 Alpha virt. eigenvalues --    4.32965   4.33313   4.33524   4.34012   4.35176
 Alpha virt. eigenvalues --    4.35329   4.35674   4.35837   4.36764   4.37079
 Alpha virt. eigenvalues --    4.37416   4.38248   4.38519   4.39158   4.39394
 Alpha virt. eigenvalues --    4.40304   4.40511   4.40937   4.41228   4.42116
 Alpha virt. eigenvalues --    4.42639   4.43123   4.43652   4.44185   4.44968
 Alpha virt. eigenvalues --    4.45846   4.46214   4.46465   4.47566   4.48414
 Alpha virt. eigenvalues --    4.49265   4.49847   4.50107   4.51019   4.51112
 Alpha virt. eigenvalues --    4.51642   4.51670   4.52423   4.52703   4.53908
 Alpha virt. eigenvalues --    4.54351   4.54805   4.56045   4.56171   4.57083
 Alpha virt. eigenvalues --    4.57235   4.57506   4.59020   4.59693   4.59952
 Alpha virt. eigenvalues --    4.61643   4.62331   4.62687   4.63495   4.63884
 Alpha virt. eigenvalues --    4.64759   4.65158   4.66294   4.66677   4.66999
 Alpha virt. eigenvalues --    4.67493   4.68686   4.69247   4.69755   4.70951
 Alpha virt. eigenvalues --    4.71954   4.72392   4.72678   4.73630   4.74025
 Alpha virt. eigenvalues --    4.74289   4.75301   4.75794   4.76076   4.76418
 Alpha virt. eigenvalues --    4.77106   4.78020   4.78433   4.79318   4.79834
 Alpha virt. eigenvalues --    4.80381   4.80844   4.82089   4.82707   4.84414
 Alpha virt. eigenvalues --    4.84840   4.85926   4.86592   4.87052   4.87341
 Alpha virt. eigenvalues --    4.87745   4.88532   4.88948   4.89514   4.90291
 Alpha virt. eigenvalues --    4.91252   4.91684   4.92397   4.94381   4.94899
 Alpha virt. eigenvalues --    4.95421   4.96535   4.97167   4.97964   4.98403
 Alpha virt. eigenvalues --    5.00620   5.01178   5.01653   5.02886   5.03645
 Alpha virt. eigenvalues --    5.04363   5.05640   5.06028   5.08077   5.09105
 Alpha virt. eigenvalues --    5.09599   5.10416   5.10562   5.10941   5.12266
 Alpha virt. eigenvalues --    5.13063   5.13572   5.14175   5.14656   5.15133
 Alpha virt. eigenvalues --    5.15772   5.15841   5.17347   5.17978   5.18506
 Alpha virt. eigenvalues --    5.20058   5.21756   5.22191   5.23120   5.24733
 Alpha virt. eigenvalues --    5.25297   5.25818   5.26531   5.26994   5.27603
 Alpha virt. eigenvalues --    5.28466   5.30208   5.31638   5.33960   5.34000
 Alpha virt. eigenvalues --    5.35424   5.36107   5.38041   5.38404   5.39514
 Alpha virt. eigenvalues --    5.40909   5.41112   5.41740   5.42617   5.44459
 Alpha virt. eigenvalues --    5.44914   5.47307   5.47998   5.48504   5.50151
 Alpha virt. eigenvalues --    5.50652   5.51733   5.51917   5.52655   5.53250
 Alpha virt. eigenvalues --    5.54184   5.55951   5.56209   5.56507   5.57582
 Alpha virt. eigenvalues --    5.59565   5.62275   5.64278   5.67436   5.68706
 Alpha virt. eigenvalues --    5.71161   5.71787   5.72871   5.73736   5.75554
 Alpha virt. eigenvalues --    5.79566   5.80597   5.83686   5.85241   5.87376
 Alpha virt. eigenvalues --    5.88660   5.89781   5.90662   5.92191   5.96211
 Alpha virt. eigenvalues --    5.97754   5.99995   6.00281   6.01746   6.03963
 Alpha virt. eigenvalues --    6.05419   6.05905   6.06708   6.09684   6.09890
 Alpha virt. eigenvalues --    6.11469   6.14614   6.17453   6.19442   6.23598
 Alpha virt. eigenvalues --    6.24183   6.24493   6.27276   6.28347   6.34845
 Alpha virt. eigenvalues --    6.35733   6.37890   6.39714   6.44269   6.46286
 Alpha virt. eigenvalues --    6.56918   6.60859   6.66791   6.67048   6.73858
 Alpha virt. eigenvalues --    6.77281   6.82570   6.84198   6.94222   6.95733
 Alpha virt. eigenvalues --    7.04756   7.06036   7.17249   7.17692   7.24503
 Alpha virt. eigenvalues --    7.28245   9.20984   9.42943   9.55219  20.30681
 Alpha virt. eigenvalues --   22.26834  22.32797  22.38569  22.39842  22.39931
 Alpha virt. eigenvalues --   22.42279  22.42793  22.43061  22.43636  22.49977
 Alpha virt. eigenvalues --   22.52030  22.54077  22.55482  22.58962  22.64357
 Alpha virt. eigenvalues --   22.66616  22.74938  22.78657  22.79112  22.81615
 Alpha virt. eigenvalues --   22.86179  22.91482  22.92579  23.01868  23.08463
 Alpha virt. eigenvalues --   23.09204  23.12595  23.17607  23.21400  23.25441
 Alpha virt. eigenvalues --   23.30438  23.33799  23.40757  23.42665  23.45036
 Alpha virt. eigenvalues --   23.49036  23.53410  23.56319  23.62505  23.66384
 Alpha virt. eigenvalues --   23.79999  32.42335  32.77471  32.84499  32.94089
 Alpha virt. eigenvalues --   32.97170  33.08174  43.86288  43.87007  43.88035
 Alpha virt. eigenvalues --   43.88745
  Beta  occ. eigenvalues -- -256.50288 -89.14188 -30.26807 -26.09876 -26.09597
  Beta  occ. eigenvalues --  -26.08945 -19.34154 -19.33708 -19.24697 -19.24540
  Beta  occ. eigenvalues --  -14.55764 -14.51065 -14.48603 -14.48600 -14.48295
  Beta  occ. eigenvalues --  -14.48043 -10.42360 -10.42308 -10.38522 -10.36006
  Beta  occ. eigenvalues --  -10.35355 -10.35312 -10.35013 -10.34957 -10.34859
  Beta  occ. eigenvalues --  -10.34832 -10.34683 -10.34368 -10.34148 -10.33631
  Beta  occ. eigenvalues --  -10.33399 -10.33021 -10.32800 -10.32515 -10.32462
  Beta  occ. eigenvalues --  -10.32430 -10.32183 -10.32086 -10.32034 -10.31851
  Beta  occ. eigenvalues --  -10.31748 -10.31624 -10.31607 -10.31397 -10.31360
  Beta  occ. eigenvalues --  -10.31287 -10.31022 -10.30938 -10.30365 -10.30306
  Beta  occ. eigenvalues --  -10.30241 -10.30175 -10.30069 -10.29790 -10.29600
  Beta  occ. eigenvalues --  -10.29126 -10.28858  -8.12134  -6.05732  -6.05465
  Beta  occ. eigenvalues --   -6.05051  -3.59142  -2.34459  -2.34371  -2.33903
  Beta  occ. eigenvalues --   -1.25024  -1.23850  -1.19418  -1.09405  -1.09195
  Beta  occ. eigenvalues --   -1.09048  -1.08044  -1.07939  -1.06481  -1.03033
  Beta  occ. eigenvalues --   -0.96243  -0.94076  -0.92822  -0.92668  -0.91872
  Beta  occ. eigenvalues --   -0.91340  -0.91332  -0.90594  -0.90437  -0.88021
  Beta  occ. eigenvalues --   -0.87235  -0.86431  -0.86007  -0.85526  -0.84406
  Beta  occ. eigenvalues --   -0.83056  -0.81983  -0.81867  -0.81310  -0.80541
  Beta  occ. eigenvalues --   -0.79340  -0.79147  -0.78546  -0.77952  -0.77068
  Beta  occ. eigenvalues --   -0.76240  -0.75391  -0.73958  -0.72800  -0.72304
  Beta  occ. eigenvalues --   -0.71851  -0.70924  -0.70683  -0.69228  -0.67792
  Beta  occ. eigenvalues --   -0.67148  -0.65704  -0.64683  -0.64277  -0.63402
  Beta  occ. eigenvalues --   -0.62476  -0.61491  -0.61068  -0.59768  -0.59671
  Beta  occ. eigenvalues --   -0.59577  -0.59172  -0.58972  -0.58685  -0.58473
  Beta  occ. eigenvalues --   -0.58289  -0.58120  -0.57761  -0.56958  -0.56734
  Beta  occ. eigenvalues --   -0.56341  -0.55730  -0.55460  -0.54950  -0.54621
  Beta  occ. eigenvalues --   -0.54475  -0.54076  -0.53953  -0.53950  -0.53637
  Beta  occ. eigenvalues --   -0.53396  -0.53278  -0.53140  -0.52869  -0.52466
  Beta  occ. eigenvalues --   -0.52360  -0.51806  -0.51622  -0.51517  -0.51419
  Beta  occ. eigenvalues --   -0.50825  -0.50734  -0.50591  -0.50362  -0.49913
  Beta  occ. eigenvalues --   -0.49898  -0.49566  -0.49403  -0.49202  -0.48895
  Beta  occ. eigenvalues --   -0.48702  -0.48461  -0.48204  -0.47730  -0.47628
  Beta  occ. eigenvalues --   -0.47546  -0.47406  -0.47283  -0.47003  -0.46747
  Beta  occ. eigenvalues --   -0.46583  -0.46288  -0.46039  -0.45991  -0.45895
  Beta  occ. eigenvalues --   -0.45252  -0.44919  -0.44745  -0.44206  -0.44170
  Beta  occ. eigenvalues --   -0.43880  -0.43259  -0.43072  -0.42891  -0.42524
  Beta  occ. eigenvalues --   -0.42265  -0.40996  -0.39625  -0.39607  -0.39314
  Beta  occ. eigenvalues --   -0.38205  -0.37814  -0.37475  -0.35936  -0.35576
  Beta  occ. eigenvalues --   -0.35014  -0.34602  -0.34402  -0.33979  -0.33467
  Beta  occ. eigenvalues --   -0.32980  -0.30080  -0.29387  -0.27913
  Beta virt. eigenvalues --   -0.19651  -0.16559  -0.15878  -0.13534  -0.12577
  Beta virt. eigenvalues --   -0.10694  -0.10104  -0.08026  -0.07240  -0.06789
  Beta virt. eigenvalues --   -0.06359  -0.06071  -0.05338  -0.05191  -0.05060
  Beta virt. eigenvalues --   -0.04443  -0.03596  -0.03470  -0.03396  -0.02691
  Beta virt. eigenvalues --   -0.02535  -0.02338  -0.02010  -0.01891  -0.01648
  Beta virt. eigenvalues --   -0.01369  -0.01104  -0.00801  -0.00607  -0.00499
  Beta virt. eigenvalues --   -0.00251   0.00244   0.00514   0.00654   0.00999
  Beta virt. eigenvalues --    0.01242   0.01936   0.01984   0.02324   0.02412
  Beta virt. eigenvalues --    0.02635   0.02825   0.03170   0.03328   0.03712
  Beta virt. eigenvalues --    0.03923   0.04037   0.04261   0.04393   0.04549
  Beta virt. eigenvalues --    0.04693   0.04903   0.05080   0.05238   0.05488
  Beta virt. eigenvalues --    0.05810   0.05992   0.06055   0.06295   0.06374
  Beta virt. eigenvalues --    0.06424   0.06745   0.06926   0.07115   0.07370
  Beta virt. eigenvalues --    0.07462   0.07665   0.07922   0.07987   0.08113
  Beta virt. eigenvalues --    0.08175   0.08292   0.08669   0.08779   0.09116
  Beta virt. eigenvalues --    0.09243   0.09479   0.09781   0.10016   0.10138
  Beta virt. eigenvalues --    0.10402   0.10904   0.11003   0.11094   0.11531
  Beta virt. eigenvalues --    0.11581   0.11795   0.12036   0.12099   0.12390
  Beta virt. eigenvalues --    0.12621   0.12742   0.13143   0.13350   0.13441
  Beta virt. eigenvalues --    0.13647   0.13803   0.13880   0.14139   0.14443
  Beta virt. eigenvalues --    0.14632   0.14784   0.14840   0.15167   0.15206
  Beta virt. eigenvalues --    0.15351   0.15512   0.15802   0.16177   0.16346
  Beta virt. eigenvalues --    0.16523   0.16722   0.16863   0.16998   0.17223
  Beta virt. eigenvalues --    0.17394   0.17404   0.17673   0.17856   0.18110
  Beta virt. eigenvalues --    0.18461   0.18706   0.18934   0.19245   0.19491
  Beta virt. eigenvalues --    0.19551   0.19599   0.19879   0.19981   0.20157
  Beta virt. eigenvalues --    0.20340   0.20687   0.20850   0.21423   0.21564
  Beta virt. eigenvalues --    0.21603   0.22059   0.22169   0.22479   0.22616
  Beta virt. eigenvalues --    0.22707   0.22934   0.23363   0.23634   0.23704
  Beta virt. eigenvalues --    0.23839   0.24156   0.24293   0.24683   0.24697
  Beta virt. eigenvalues --    0.24958   0.25262   0.25495   0.25774   0.25846
  Beta virt. eigenvalues --    0.26068   0.26579   0.26773   0.27071   0.27394
  Beta virt. eigenvalues --    0.27717   0.27831   0.27956   0.28222   0.28322
  Beta virt. eigenvalues --    0.28618   0.28796   0.28975   0.29221   0.29330
  Beta virt. eigenvalues --    0.29628   0.29797   0.30106   0.30222   0.30513
  Beta virt. eigenvalues --    0.30571   0.30825   0.31110   0.31366   0.31438
  Beta virt. eigenvalues --    0.31677   0.31750   0.31892   0.32318   0.32356
  Beta virt. eigenvalues --    0.32506   0.32645   0.33036   0.33216   0.33366
  Beta virt. eigenvalues --    0.33584   0.33611   0.33826   0.34009   0.34129
  Beta virt. eigenvalues --    0.34584   0.34654   0.35128   0.35170   0.35240
  Beta virt. eigenvalues --    0.35426   0.35490   0.35703   0.35953   0.36209
  Beta virt. eigenvalues --    0.36355   0.36479   0.36604   0.36846   0.37041
  Beta virt. eigenvalues --    0.37061   0.37300   0.37468   0.37548   0.37862
  Beta virt. eigenvalues --    0.37998   0.38070   0.38146   0.38295   0.38560
  Beta virt. eigenvalues --    0.38620   0.38763   0.39040   0.39088   0.39167
  Beta virt. eigenvalues --    0.39725   0.39874   0.39986   0.40070   0.40201
  Beta virt. eigenvalues --    0.40367   0.40682   0.40762   0.40857   0.41108
  Beta virt. eigenvalues --    0.41206   0.41262   0.41489   0.41581   0.41703
  Beta virt. eigenvalues --    0.42054   0.42188   0.42246   0.42450   0.42587
  Beta virt. eigenvalues --    0.42611   0.42846   0.43099   0.43280   0.43365
  Beta virt. eigenvalues --    0.43566   0.43868   0.43950   0.44118   0.44133
  Beta virt. eigenvalues --    0.44354   0.44486   0.44695   0.44856   0.45014
  Beta virt. eigenvalues --    0.45331   0.45495   0.45724   0.45993   0.46277
  Beta virt. eigenvalues --    0.46344   0.46398   0.46695   0.46949   0.47197
  Beta virt. eigenvalues --    0.47346   0.47635   0.47674   0.47927   0.48263
  Beta virt. eigenvalues --    0.48397   0.48687   0.48740   0.49158   0.49250
  Beta virt. eigenvalues --    0.49329   0.49686   0.49967   0.50101   0.50516
  Beta virt. eigenvalues --    0.50802   0.51032   0.51074   0.51288   0.51550
  Beta virt. eigenvalues --    0.51658   0.51857   0.52049   0.52147   0.52366
  Beta virt. eigenvalues --    0.52721   0.52819   0.52980   0.53351   0.53756
  Beta virt. eigenvalues --    0.53848   0.54137   0.54383   0.54522   0.54855
  Beta virt. eigenvalues --    0.55357   0.55526   0.55609   0.55918   0.56172
  Beta virt. eigenvalues --    0.56314   0.56658   0.56791   0.57297   0.57632
  Beta virt. eigenvalues --    0.58242   0.58303   0.58624   0.58796   0.59210
  Beta virt. eigenvalues --    0.59236   0.59536   0.59905   0.59999   0.60302
  Beta virt. eigenvalues --    0.60692   0.60986   0.61104   0.61537   0.61805
  Beta virt. eigenvalues --    0.61997   0.62366   0.62824   0.63004   0.63250
  Beta virt. eigenvalues --    0.63544   0.63931   0.64108   0.64228   0.64641
  Beta virt. eigenvalues --    0.65011   0.65158   0.65455   0.65805   0.66139
  Beta virt. eigenvalues --    0.66428   0.66569   0.66770   0.67103   0.67363
[...]
  1734. RY*(   2) H  83                  0.00006     2.06605   
  1735. RY*(   3) H  83                  0.00004     1.73903   
  1736. RY*(   4) H  83                  0.00005     2.28290   
  1737. RY*(   5) H  83                  0.00001     2.97765   
  1738. RY*(   1) H  84                  0.00036     1.28809   
  1739. RY*(   2) H  84                  0.00007     2.21881   
  1740. RY*(   3) H  84                  0.00004     1.56728   
  1741. RY*(   4) H  84                  0.00005     2.26113   
  1742. RY*(   5) H  84                  0.00001     2.98040   
  1743. RY*(   1) H  85                  0.00077     0.77650   
  1744. RY*(   2) H  85                  0.00029     2.04110   
  1745. RY*(   3) H  85                  0.00022     1.75000   
  1746. RY*(   4) H  85                  0.00011     2.07228   
  1747. RY*(   5) H  85                  0.00000     3.22148   
  1748. RY*(   1) H  86                  0.00091     0.60546   
  1749. RY*(   2) H  86                  0.00013     2.18967   
  1750. RY*(   3) H  86                  0.00012     2.17251   
  1751. RY*(   4) H  86                  0.00006     2.96176   
  1752. RY*(   5) H  86                  0.00000     3.12914   
  1753. RY*(   1) H  87                  0.00033     1.64146   
  1754. RY*(   2) H  87                  0.00008     2.64728   
  1755. RY*(   3) H  87                  0.00004     1.50228   
  1756. RY*(   4) H  87                  0.00005     2.40220   
  1757. RY*(   5) H  87                  0.00000     2.78669   
  1758. RY*(   1) H  88                  0.00032     1.74033   
  1759. RY*(   2) H  88                  0.00007     2.71173   
  1760. RY*(   3) H  88                  0.00006     2.31240   
  1761. RY*(   4) H  88                  0.00003     1.27047   
  1762. RY*(   5) H  88                  0.00001     2.88500   
  1763. RY*(   1) H  89                  0.00037     1.32235   
  1764. RY*(   2) H  89                  0.00007     1.77817   
  1765. RY*(   3) H  89                  0.00005     2.30769   
  1766. RY*(   4) H  89                  0.00003     2.15009   
  1767. RY*(   5) H  89                  0.00001     3.04679   
  1768. RY*(   1) H  90                  0.00030     1.44737   
  1769. RY*(   2) H  90                  0.00008     1.90216   
  1770. RY*(   3) H  90                  0.00004     1.78668   
  1771. RY*(   4) H  90                  0.00005     2.35281   
  1772. RY*(   5) H  90                  0.00000     3.01209   
  1773. RY*(   1) H  91                  0.00066     0.76270   
  1774. RY*(   2) H  91                  0.00031     2.01165   
  1775. RY*(   3) H  91                  0.00022     1.78577   
  1776. RY*(   4) H  91                  0.00012     2.10133   
  1777. RY*(   5) H  91                  0.00000     3.20855   
  1778. RY*(   1) H  92                  0.00029     1.02966   
  1779. RY*(   2) H  92                  0.00007     1.66549   
  1780. RY*(   3) H  92                  0.00004     2.06722   
  1781. RY*(   4) H  92                  0.00002     1.86606   
  1782. RY*(   5) H  92                  0.00000     2.83918   
  1783. RY*(   1) H  93                  0.00019     1.24535   
  1784. RY*(   2) H  93                  0.00009     1.82062   
  1785. RY*(   3) H  93                  0.00004     2.06417   
  1786. RY*(   4) H  93                  0.00002     1.71997   
  1787. RY*(   5) H  93                  0.00000     2.79494   
  1788. RY*(   1) H  94                  0.00025     1.06420   
  1789. RY*(   2) H  94                  0.00008     1.78656   
  1790. RY*(   3) H  94                  0.00003     2.10187   
  1791. RY*(   4) H  94                  0.00002     1.80690   
  1792. RY*(   5) H  94                  0.00000     2.83205   
  1793. RY*(   1) H  95                  0.00121     0.59947   
  1794. RY*(   2) H  95                  0.00012     2.10660   
  1795. RY*(   3) H  95                  0.00012     2.20187   
  1796. RY*(   4) H  95                  0.00005     3.09526   
  1797. RY*(   5) H  95                  0.00000     3.12123   
  1798. RY*(   1) H  96                  0.00043     0.56724   
  1799. RY*(   2) H  96                  0.00016     2.30870   
  1800. RY*(   3) H  96                  0.00008     2.18446   
  1801. RY*(   4) H  96                  0.00001     3.05541   
  1802. RY*(   5) H  96                  0.00002     2.55303   
  1803. RY*(   1) H  97                  0.00027     2.09009   
  1804. RY*(   2) H  97                  0.00020     2.13191   
  1805. RY*(   3) H  97                  0.00009     2.43466   
  1806. RY*(   4) H  97                  0.00007     1.23577   
  1807. RY*(   5) H  97                  0.00001     3.02109   
  1808. RY*(   1) H  98                  0.00025     0.56770   
  1809. RY*(   2) H  98                  0.00017     2.26992   
  1810. RY*(   3) H  98                  0.00012     2.18145   
  1811. RY*(   4) H  98                  0.00003     2.61678   
  1812. RY*(   5) H  98                  0.00001     3.02492   
  1813. RY*(   1) H  99                  0.00025     1.20951   
  1814. RY*(   2) H  99                  0.00006     1.65305   
  1815. RY*(   3) H  99                  0.00004     1.67623   
  1816. RY*(   4) H  99                  0.00003     1.89843   
  1817. RY*(   5) H  99                  0.00000     2.81509   
  1818. RY*(   1) H 100                  0.00012     1.34910   
  1819. RY*(   2) H 100                  0.00007     1.78160   
  1820. RY*(   3) H 100                  0.00003     2.00520   
  1821. RY*(   4) H 100                  0.00000     2.84464   
  1822. RY*(   5) H 100                  0.00001     1.33714   
  1823. RY*(   1) H 101                  0.00031     1.18758   
  1824. RY*(   2) H 101                  0.00007     1.72164   
  1825. RY*(   3) H 101                  0.00002     1.76583   
  1826. RY*(   4) H 101                  0.00003     1.75926   
  1827. RY*(   5) H 101                  0.00000     2.84344   
  1828. BD*(   1) C   1 - C   2          0.00644     0.28331   
  1829. BD*(   1) C   1 - H  99          0.00321     0.30527   
  1830. BD*(   1) C   1 - H 100          0.00184     0.31314   
  1831. BD*(   1) C   1 - H 101          0.00546     0.30893   
  1832. BD*(   1) C   2 - N   3          0.01420     0.35733   
  1833. BD*(   2) C   2 - N   3          0.38052    -0.14549  1838(v),190(v),1831(v)
                                                    259(g),234(g),1829(v),239(g)
  1834. BD*(   1) C   2 - C   4          0.00989     0.44274   
  1835. BD*(   1) N   3 - C   5          0.00804     0.50544   
  1836. BD*(   1) N   3 - H  97          0.00870     0.27125   
  1837. BD*(   1) C   4 - N   6          0.00789     0.39217   
  1838. BD*(   2) C   4 - N   6          0.31636    -0.11744  1833(v),190(v),285(g),286(g)
                                                    337(g),341(g)
  1839. BD*(   1) C   4 - H  98          0.00666     0.32695   
  1840. BD*(   1) C   5 - N   6          0.01032     0.35381   
  1841. BD*(   1) C   5 - H  96          0.00855     0.28866   
  1842. BD*(   1) N   6 -Fe  11          0.03878     0.27318   
  1843. BD*(   1) C   7 - C   8          0.00556     0.23315   
  1844. BD*(   1) C   7 - H  57          0.00366     0.34116   
  1845. BD*(   1) C   7 - H  58          0.00261     0.32407   
  1846. BD*(   1) C   7 - H  59          0.00331     0.32301   
  1847. BD*(   1) C   8 - S   9          0.01267     0.13325   
  1848. BD*(   1) C   8 - H  60          0.00911     0.27797   
  1849. BD*(   1) C   8 - H  61          0.01272     0.29717   
  1850. BD*(   1) S   9 - C  10          0.00897     0.07186   
  1851. BD*(   1) S   9 -Fe  11          0.03032     0.24713   
  1852. BD*(   1) C  10 - H  54          0.00396     0.30098   
  1853. BD*(   1) C  10 - H  55          0.00481     0.29587   
  1854. BD*(   1) C  10 - H  56          0.00857     0.31656   
  1855. BD*(   1)Fe  11 - N  16          0.03463     0.32245   
  1856. BD*(   1)Fe  11 - N  27          0.03251     0.30065   
  1857. BD*(   1)Fe  11 - N  35          0.03170     0.29223   
  1858. BD*(   1)Fe  11 - N  43          0.03284     0.30069   
  1859. BD*(   1) C  12 - C  17          0.01192     0.47188   
  1860. BD*(   2) C  12 - C  17          0.20691    -0.05611  1879(v),202(v),496(g)
                                                    1864(r),630(g)
  1861. BD*(   1) C  12 - C  47          0.01104     0.48940   
  1862. BD*(   1) C  12 - H  86          0.00732     0.35653   
  1863. BD*(   1) C  13 - C  20          0.00981     0.54468   
  1864. BD*(   2) C  13 - C  20          0.17938    -0.04120  1879(v),1897(v),523(g)
                                                    1860(r),708(g),706(g)
  1865. BD*(   1) C  13 - C  28          0.00996     0.46487   
  1866. BD*(   1) C  13 - H  77          0.00837     0.34930   
  1867. BD*(   1) C  14 - C  31          0.01069     0.43838   
  1868. BD*(   2) C  14 - C  31          0.20787    -0.06299  1914(v),1901(v),1897(v)
                                                    548(g),994(g),1898(g)
  1869. BD*(   1) C  14 - C  36          0.01323     0.37275   
  1870. BD*(   1) C  14 - H  69          0.00484     0.36421   
  1871. BD*(   1) C  15 - C  39          0.01083     0.50896   
  1872. BD*(   2) C  15 - C  39          0.19238    -0.04474  1918(v),1931(v),1914(v)
                                                    575(g),1202(g)
  1873. BD*(   1) C  15 - C  44          0.01166     0.54198   
  1874. BD*(   1) C  15 - H  95          0.00904     0.35426   
  1875. BD*(   1) N  16 - C  17          0.01183     0.42983   
  1876. BD*(   1) N  16 - C  20          0.02103     0.25758   
  1877. BD*(   1) C  17 - C  18          0.02005     0.35106   
  1878. BD*(   1) C  18 - C  19          0.01034     0.54773   
  1879. BD*(   2) C  18 - C  19          0.11513    -0.02187  1864(v),1860(v),1886(v)
                                                    1884(v)
  1880. BD*(   1) C  18 - C  22          0.00985     0.32203   
  1881. BD*(   1) C  19 - C  20          0.01370     0.45695   
  1882. BD*(   1) C  19 - C  21          0.01098     0.24083   
  1883. BD*(   1) C  21 - H  78          0.00185     0.33037   
  1884. BD*(   1) C  21 - H  79          0.00342     0.32796   
  1885. BD*(   1) C  21 - H  80          0.00222     0.32580   
  1886. BD*(   1) C  22 - C  23          0.00722     0.24486   
  1887. BD*(   1) C  22 - H  81          0.00610     0.33943   
  1888. BD*(   1) C  22 - H  82          0.00583     0.33236   
  1889. BD*(   1) C  23 - C  24          0.03721     0.26667   
  1890. BD*(   1) C  23 - H  83          0.00537     0.31086   
  1891. BD*(   1) C  23 - H  84          0.00557     0.31041   
  1892. BD*(   1) C  24 - O  25          0.03461     0.44652   
  1893. BD*(   1) C  24 - O  26          0.01655     0.48415   
  1894. BD*(   2) C  24 - O  26          0.12286    -0.06819  1891(v),1890(v),810(g)
                                                    821(g)
  1895. BD*(   1) O  25 - H  85          0.00734     0.31293   
  1896. BD*(   1) N  27 - C  28          0.01545     0.36801   
  1897. BD*(   2) N  27 - C  28          0.33659    -0.10962  1864(v),1868(v),1901(v)
                                                    913(g),194(v),886(g),916(g)
                                                    1865(g)
  1898. BD*(   1) N  27 - C  31          0.01384     0.43249   
  1899. BD*(   1) C  28 - C  29          0.01459     0.37619   
  1900. BD*(   1) C  29 - C  30          0.00861     0.51270   
  1901. BD*(   2) C  29 - C  30          0.11792    -0.02503  1868(v),1897(v),1908(v)
                                                    1909(v),1907(v),1906(v)
  1902. BD*(   1) C  29 - C  32          0.00972     0.25165   
  1903. BD*(   1) C  30 - C  31          0.01674     0.40225   
  1904. BD*(   1) C  30 - C  33          0.00974     0.33914   
  1905. BD*(   1) C  32 - H  74          0.00192     0.33400   
  1906. BD*(   1) C  32 - H  75          0.00322     0.33173   
  1907. BD*(   1) C  32 - H  76          0.00312     0.33317   
  1908. BD*(   1) C  33 - C  34          0.00345     0.29007   
  1909. BD*(   1) C  33 - H  73          0.00671     0.36714   
  1910. BD*(   1) C  34 - H  70          0.00234     0.33209   
  1911. BD*(   1) C  34 - H  71          0.00079     0.33065   
  1912. BD*(   1) C  34 - H  72          0.00189     0.33487   
  1913. BD*(   1) N  35 - C  36          0.01317     0.39869   
  1914. BD*(   2) N  35 - C  36          0.31048    -0.09687  1868(v),1918(v),1872(v)
                                                    194(v),1122(g),1121(g)
                                                    1095(g),1098(g)
  1915. BD*(   1) N  35 - C  39          0.01617     0.38478   
  1916. BD*(   1) C  36 - C  37          0.01680     0.42899   
  1917. BD*(   1) C  37 - C  38          0.01422     0.51533   
  1918. BD*(   2) C  37 - C  38          0.15153    -0.03372  1872(v),1914(v),1923(v)
                                                    1926(v),1922(v),1925(v)
  1919. BD*(   1) C  37 - C  40          0.00835     0.31218   
  1920. BD*(   1) C  38 - C  39          0.01915     0.37334   
  1921. BD*(   1) C  38 - C  41          0.01318     0.26057   
  1922. BD*(   1) C  40 - H  66          0.00401     0.32482   
  1923. BD*(   1) C  40 - H  67          0.00448     0.31996   
  1924. BD*(   1) C  40 - H  68          0.00305     0.33633   
  1925. BD*(   1) C  41 - C  42          0.00262     0.26043   
  1926. BD*(   1) C  41 - H  65          0.00513     0.35269   
  1927. BD*(   1) C  42 - H  62          0.00279     0.33822   
  1928. BD*(   1) C  42 - H  63          0.00968     0.33707   
  1929. BD*(   1) C  42 - H  64          0.01056     0.32629   
  1930. BD*(   1) N  43 - C  44          0.01814     0.37707   
  1931. BD*(   2) N  43 - C  44          0.34943    -0.10257  1872(v),1935(v),202(v)
                                                    194(v),1329(g),1303(g)
                                                    575(v),1330(g),1331(g)
  1932. BD*(   1) N  43 - C  47          0.01406     0.41515   
  1933. BD*(   1) C  44 - C  45          0.01496     0.47234   
  1934. BD*(   1) C  45 - C  46          0.00896     0.53657   
  1935. BD*(   2) C  45 - C  46          0.11895    -0.02139  1931(v),202(v),1942(v)
                                                    1939(v)
  1936. BD*(   1) C  45 - C  48          0.01030     0.22809   
  1937. BD*(   1) C  46 - C  47          0.01871     0.37877   
  1938. BD*(   1) C  46 - C  49          0.01130     0.28503   
  1939. BD*(   1) C  48 - H  92          0.00305     0.33316   
  1940. BD*(   1) C  48 - H  93          0.00184     0.33589   
  1941. BD*(   1) C  48 - H  94          0.00225     0.33393   
  1942. BD*(   1) C  49 - C  50          0.00655     0.30139   
  1943. BD*(   1) C  49 - H  87          0.00668     0.33822   
  1944. BD*(   1) C  49 - H  88          0.00557     0.34318   
  1945. BD*(   1) C  50 - C  51          0.03645     0.27353   
  1946. BD*(   1) C  50 - H  89          0.00697     0.31852   
  1947. BD*(   1) C  50 - H  90          0.00598     0.31285   
  1948. BD*(   1) C  51 - O  52          0.02160     0.44919   
  1949. BD*(   2) C  51 - O  52          0.11002    -0.05701  1948(g),1947(v),1951(v)
                                                    1946(v),1512(g)
  1950. BD*(   1) C  51 - O  53          0.03497     0.42085   
  1951. BD*(   1) O  53 - H  91          0.00721     0.31529   
       -------------------------------
              Total Lewis  199.00180  ( 97.5499%)
        Valence non-Lewis    4.60807  (  2.2589%)
        Rydberg non-Lewis    0.39012  (  0.1912%)
       -------------------------------
            Total unit  1  204.00000  (100.0000%)
           Charge unit  1    1.00000
 1\1\GINC-NODE678\SP\UPBE1PBE\def2TZVP\C41H48Fe1N6O4S1(1+,2)\ZHARTOVSKA
 \07-Feb-2023\0\\# PBE1PBE/def2TZVP empiricaldispersion=GD3BJ scf=maxcy
 cle=999 geom=check pop=nbo\\1ycc_III_D\\1,2\C,0,5.463,25.841999,12.545
 \C,0,5.09,24.429001,12.906\N,0,5.995,23.507999,13.296\C,0,3.868,23.788
 ,12.857\C,0,5.407,22.427999,13.522\N,0,4.073,22.504,13.233\C,0,1.017,1
 7.952,15.599\C,0,0.423,18.792999,14.441\S,0,1.482,19.034,13.122\C,0,0.
 274,19.322001,11.825\Fe,0,2.804,20.976999,13.203\C,0,5.106,18.702,14.2
 37\C,0,3.97,20.650999,10.03\C,0,0.209,22.809,12.141\C,0,2.105,21.73399
 9,16.357\N,0,4.231,19.906,12.368\C,0,5.101,19.025999,12.888\C,0,5.794,
 18.232,11.845\C,0,5.473,18.82,10.692\C,0,4.516,19.811001,10.917\C,0,5.
 975,18.374001,9.266\C,0,6.81,17.181999,12.193\C,0,8.215,17.854,12.326\
 C,0,9.431,16.948,12.446\O,0,10.497,17.561001,12.574\O,0,9.302,15.705,1
 2.427\N,0,2.192,21.629,11.411\C,0,2.942,21.559999,10.243\C,0,2.153,22.
 254999,9.23\C,0,1.049,22.82,9.779\C,0,1.152,22.441999,11.163\C,0,2.678
 ,22.417999,7.757\C,0,-0.025,23.701,9.197\C,0,-1.172,22.933001,8.52\N,0
 ,1.422,22.066,14.13\C,0,0.391,22.773001,13.59\C,0,-0.404,23.540001,14.
 466\C,0,0.103,23.198999,15.669\C,0,1.283,22.361,15.466\C,0,-1.58,24.41
 7,14.163\C,0,-0.143,23.797001,17.089001\C,0,-1.643,23.796,17.461\N,0,3
 .478,20.351,14.983\C,0,3.057,20.792,16.232\C,0,3.746,20.112,17.228001\
 C,0,4.57,19.231001,16.638\C,0,4.345,19.327,15.198\C,0,3.526,20.275,18.
 801001\C,0,5.424,18.169001,17.375\C,0,4.819,16.785999,17.313999\C,0,5.
 321,15.74,18.292\O,0,6.473,15.913,18.774\O,0,4.596,14.724,18.384001\H,
 0,0.68046294,19.01420003,10.88428408\H,0,-0.61234423,18.75939254,12.03
 179854\H,0,0.03405936,20.36402419,11.78606222\H,0,1.96063536,18.363349
 97,15.89096491\H,0,0.34681324,17.96974911,16.43292726\H,0,1.1537243,16
 .94216859,15.27273784\H,0,-0.45667684,18.3005477,14.08244684\H,0,0.142
 12403,19.75017058,14.82808042\H,0,-1.77888455,24.29788824,18.39617035\
 H,0,-2.19947498,24.30245174,16.70024891\H,0,-1.98917977,22.78696696,17
 .5441378\H,0,0.63305126,24.16349202,17.72800709\H,0,-1.31885193,25.109
 3683,13.39013014\H,0,-2.40115952,23.81282767,13.83808027\H,0,-1.860005
 72,24.95524469,15.04435659\H,0,-0.74098206,23.15021394,11.78602518\H,0
 ,-0.8563212,21.93235959,8.31032486\H,0,-2.01985347,22.9102236,9.172323
 29\H,0,-1.43808734,23.42192598,7.60618935\H,0,0.00744812,24.76918877,9
 .25010248\H,0,3.62060311,21.92154698,7.65732663\H,0,1.97359283,21.9857
 1993,7.07740796\H,0,2.79709797,23.45766134,7.53380079\H,0,4.37317986,2
 0.61845275,9.03940081\H,0,6.91675167,17.87473027,9.35944801\H,0,5.2604
 366,17.70861473,8.82832403\H,0,6.08859413,19.23589185,8.6421887\H,0,6.
 83882637,16.44189973,11.42078104\H,0,6.54451304,16.72069432,13.1212320
 1\H,0,8.35865398,18.47804214,11.46877486\H,0,8.19293536,18.48370402,13
 .19080403\H,0,11.33198087,17.09728629,12.47717229\H,0,5.74906731,17.90
 749723,14.5534329\H,0,6.39662109,18.13958351,16.92997998\H,0,5.5222987
 7,18.45718672,18.40076135\H,0,3.76413348,16.8874416,17.46187064\H,0,4.
 97662942,16.4071392,16.32580964\H,0,4.99562263,13.85468693,18.46271918
 \H,0,4.3421737,20.82553562,19.22013228\H,0,2.61153731,20.80072029,18.9
 8065668\H,0,3.4768555,19.30797891,19.25636352\H,0,1.96228785,22.059975
 95,17.36609478\H,0,5.88991195,21.5497298,13.89661883\H,0,6.97834083,23
 .66394844,13.38938403\H,0,2.93305948,24.22495218,12.57440663\H,0,6.397
 78341,25.84219033,12.02434663\H,0,4.70497094,26.26167429,11.91717471\H
 ,0,5.55137718,26.42650321,13.43687684\\Version=ES64L-G16RevA.03\State=
 2-A\HF=-3880.3637983\S2=1.829511\S2-1=0.\S2A=1.040329\RMSD=1.475e-09\D
 ipole=-0.5762609,2.3437147,-1.1726592\Quadrupole=14.840508,-3.9392,-10
 .9013081,4.6334771,-13.0606779,-7.4504271\PG=C01 [X(C41H48Fe1N6O4S1)]\
 \@


 HOW IS IT THAT THE SKY FEEDS THE STARS?

                           -- LUCRETIUS
 Job cpu time:       6 days  6 hours 32 minutes  6.3 seconds.
 Elapsed time:       1 days 13 hours 45 minutes 10.3 seconds.
 File lengths (MBytes):  RWF=   3495 Int=      0 D2E=      0 Chk=    292 Scr=      1
 Normal termination of Gaussian 16 at Tue Feb  7 01:21:47 2023.
