 Entering Gaussian System, Link 0=g16
 Input=/net/homes/chemie/zhartovska/work/BioModel/Konrad/1ycc/1ycc12/1ycc16/1ycc16.com
 Output=/net/homes/chemie/zhartovska/work/BioModel/Konrad/1ycc/1ycc12/1ycc16/1ycc16.log
 Initial command:
 /afs/math/software/gaussian/g16.A03/g16/l1.exe "/scratch/zhartovska_gaussian.ubNXQMp/Gau-18178.inp" -scrdir="/scratch/zhartovska_gaussian.ubNXQMp/"
 Entering Link 1 = /afs/math/software/gaussian/g16.A03/g16/l1.exe PID=     18179.
  
 Copyright (c) 1988,1990,1992,1993,1995,1998,2003,2009,2016,
            Gaussian, Inc.  All Rights Reserved.
  
 This is part of the Gaussian(R) 16 program.  It is based on
 the Gaussian(R) 09 system (copyright 2009, Gaussian, Inc.),
 the Gaussian(R) 03 system (copyright 2003, Gaussian, Inc.),
 the Gaussian(R) 98 system (copyright 1998, Gaussian, Inc.),
 the Gaussian(R) 94 system (copyright 1995, Gaussian, Inc.),
 the Gaussian 92(TM) system (copyright 1992, Gaussian, Inc.),
 the Gaussian 90(TM) system (copyright 1990, Gaussian, Inc.),
 the Gaussian 88(TM) system (copyright 1988, Gaussian, Inc.),
 the Gaussian 86(TM) system (copyright 1986, Carnegie Mellon
 University), and the Gaussian 82(TM) system (copyright 1983,
 Carnegie Mellon University). Gaussian is a federally registered
 trademark of Gaussian, Inc.
  
 This software contains proprietary and confidential information,
 including trade secrets, belonging to Gaussian, Inc.
  
 This software is provided under written license and may be
 used, copied, transmitted, or stored only in accord with that
 written license.
  
 The following legend is applicable only to US Government
 contracts under FAR:
  
                    RESTRICTED RIGHTS LEGEND
  
 Use, reproduction and disclosure by the US Government is
 subject to restrictions as set forth in subparagraphs (a)
 and (c) of the Commercial Computer Software - Restricted
 Rights clause in FAR 52.227-19.
  
 Gaussian, Inc.
 340 Quinnipiac St., Bldg. 40, Wallingford CT 06492
  
  
 ---------------------------------------------------------------
 Warning -- This program may not be used in any manner that
 competes with the business of Gaussian, Inc. or will provide
 assistance to any competitor of Gaussian, Inc.  The licensee
 of this program is prohibited from giving any competitor of
 Gaussian, Inc. access to this program.  By using this program,
 the user acknowledges that Gaussian, Inc. is engaged in the
 business of creating and licensing software in the field of
 computational chemistry and represents and warrants to the
 licensee that it is not a competitor of Gaussian, Inc. and that
 it will not use this program in any manner prohibited above.
 ---------------------------------------------------------------
  

 Cite this work as:
 Gaussian 16, Revision A.03,
 M. J. Frisch, G. W. Trucks, H. B. Schlegel, G. E. Scuseria, 
 M. A. Robb, J. R. Cheeseman, G. Scalmani, V. Barone, 
 G. A. Petersson, H. Nakatsuji, X. Li, M. Caricato, A. V. Marenich, 
 J. Bloino, B. G. Janesko, R. Gomperts, B. Mennucci, H. P. Hratchian, 
 J. V. Ortiz, A. F. Izmaylov, J. L. Sonnenberg, D. Williams-Young, 
 F. Ding, F. Lipparini, F. Egidi, J. Goings, B. Peng, A. Petrone, 
 T. Henderson, D. Ranasinghe, V. G. Zakrzewski, J. Gao, N. Rega, 
 G. Zheng, W. Liang, M. Hada, M. Ehara, K. Toyota, R. Fukuda, 
 J. Hasegawa, M. Ishida, T. Nakajima, Y. Honda, O. Kitao, H. Nakai, 
 T. Vreven, K. Throssell, J. A. Montgomery, Jr., J. E. Peralta, 
 F. Ogliaro, M. J. Bearpark, J. J. Heyd, E. N. Brothers, K. N. Kudin, 
 V. N. Staroverov, T. A. Keith, R. Kobayashi, J. Normand, 
 K. Raghavachari, A. P. Rendell, J. C. Burant, S. S. Iyengar, 
 J. Tomasi, M. Cossi, J. M. Millam, M. Klene, C. Adamo, R. Cammi, 
 J. W. Ochterski, R. L. Martin, K. Morokuma, O. Farkas, 
 J. B. Foresman, and D. J. Fox, Gaussian, Inc., Wallingford CT, 2016.
 
 ******************************************
 Gaussian 16:  ES64L-G16RevA.03 25-Dec-2016
                 7-Feb-2023 
 ******************************************
 %nprocs=12
 Will use up to   12 processors via shared memory.
 %mem=16GB
 %oldchk=1ycc_III_D.chk
 %chk=1ycc_III_H.chk
 Copying data from "1ycc_III_D.chk" to current chk file "1ycc_III_H.chk"
 IOpt=  2 FromEx=T IUOpen= 4 IOptOp= 5 NList=   0 IFRang= 0 IUIn= 4 IUOut= 2.
 ----------------------------------------------------------------------
 # PBE1PBE/def2TZVP empiricaldispersion=GD3BJ scf=maxcycle=999 geom=che
 ck pop=nbo
 ----------------------------------------------------------------------
 1/29=2,38=1,172=1/1;
 2/12=2,40=1/2;
 3/5=44,7=101,11=2,14=-4,25=1,30=1,74=-13,124=41/1,2,3;
 4//1;
 5/5=2,7=999,38=5/2;
 6/7=2,8=2,9=2,10=2,28=1,40=1/1,7;
 99/5=1,9=1/99;
 ----------
 1ycc_III_H
 ----------
 Structure from the checkpoint file:  "1ycc_III_H.chk"
 Charge =  1 Multiplicity = 6
 Z-Matrix found in chk file.
 C,0,5.463,25.841999,12.545
 C,0,5.09,24.429001,12.906
 N,0,5.995,23.507999,13.296
 C,0,3.868,23.788,12.857
 C,0,5.407,22.427999,13.522
 N,0,4.073,22.504,13.233
 C,0,1.017,17.952,15.599
 C,0,0.423,18.792999,14.441
 S,0,1.482,19.034,13.122
 C,0,0.274,19.322001,11.825
 Fe,0,2.804,20.976999,13.203
 C,0,5.106,18.702,14.237
 C,0,3.97,20.650999,10.03
 C,0,0.209,22.809,12.141
 C,0,2.105,21.733999,16.357
 N,0,4.231,19.906,12.368
 C,0,5.101,19.025999,12.888
 C,0,5.794,18.232,11.845
 C,0,5.473,18.82,10.692
 C,0,4.516,19.811001,10.917
 C,0,5.975,18.374001,9.266
 C,0,6.81,17.181999,12.193
 C,0,8.215,17.854,12.326
 C,0,9.431,16.948,12.446
 O,0,10.497,17.561001,12.574
 O,0,9.302,15.705,12.427
 N,0,2.192,21.629,11.411
 C,0,2.942,21.559999,10.243
 C,0,2.153,22.254999,9.23
 C,0,1.049,22.82,9.779
 C,0,1.152,22.441999,11.163
 C,0,2.678,22.417999,7.757
 C,0,-0.025,23.701,9.197
 C,0,-1.172,22.933001,8.52
 N,0,1.422,22.066,14.13
 C,0,0.391,22.773001,13.59
 C,0,-0.404,23.540001,14.466
 C,0,0.103,23.198999,15.669
 C,0,1.283,22.361,15.466
 C,0,-1.58,24.417,14.163
 C,0,-0.143,23.797001,17.089001
 C,0,-1.643,23.796,17.461
 N,0,3.478,20.351,14.983
 C,0,3.057,20.792,16.232
 C,0,3.746,20.112,17.228001
 C,0,4.57,19.231001,16.638
 C,0,4.345,19.327,15.198
 C,0,3.526,20.275,18.801001
 C,0,5.424,18.169001,17.375
 C,0,4.819,16.785999,17.313999
 C,0,5.321,15.74,18.292
 O,0,6.473,15.913,18.774
 O,0,4.596,14.724,18.384001
 H,0,0.68046294,19.01420003,10.88428408
 H,0,-0.61234423,18.75939254,12.03179854
 H,0,0.03405936,20.36402419,11.78606222
 H,0,1.96063536,18.36334997,15.89096491
 H,0,0.34681324,17.96974911,16.43292726
 H,0,1.1537243,16.94216859,15.27273784
 H,0,-0.45667684,18.3005477,14.08244684
 H,0,0.14212403,19.75017058,14.82808042
 H,0,-1.77888455,24.29788824,18.39617035
 H,0,-2.19947498,24.30245174,16.70024891
 H,0,-1.98917977,22.78696696,17.5441378
 H,0,0.63305126,24.16349202,17.72800709
 H,0,-1.31885193,25.1093683,13.39013014
 H,0,-2.40115952,23.81282767,13.83808027
 H,0,-1.86000572,24.95524469,15.04435659
 H,0,-0.74098206,23.15021394,11.78602518
 H,0,-0.8563212,21.93235959,8.31032486
 H,0,-2.01985347,22.9102236,9.17232329
 H,0,-1.43808734,23.42192598,7.60618935
 H,0,0.00744812,24.76918877,9.25010248
 H,0,3.62060311,21.92154698,7.65732663
 H,0,1.97359283,21.98571993,7.07740796
 H,0,2.79709797,23.45766134,7.53380079
 H,0,4.37317986,20.61845275,9.03940081
 H,0,6.91675167,17.87473027,9.35944801
 H,0,5.2604366,17.70861473,8.82832403
 H,0,6.08859413,19.23589185,8.6421887
 H,0,6.83882637,16.44189973,11.42078104
 H,0,6.54451304,16.72069432,13.12123201
 H,0,8.35865398,18.47804214,11.46877486
 H,0,8.19293536,18.48370402,13.19080403
 H,0,11.33198087,17.09728629,12.47717229
 H,0,5.74906731,17.90749723,14.5534329
 H,0,6.39662109,18.13958351,16.92997998
 H,0,5.52229877,18.45718672,18.40076135
 H,0,3.76413348,16.8874416,17.46187064
 H,0,4.97662942,16.4071392,16.32580964
 H,0,4.99562263,13.85468693,18.46271918
 H,0,4.3421737,20.82553562,19.22013228
 H,0,2.61153731,20.80072029,18.98065668
 H,0,3.4768555,19.30797891,19.25636352
 H,0,1.96228785,22.05997595,17.36609478
 H,0,5.88991195,21.5497298,13.89661883
 H,0,6.97834083,23.66394844,13.38938403
 H,0,2.93305948,24.22495218,12.57440663
 H,0,6.39778341,25.84219033,12.02434663
 H,0,4.70497094,26.26167429,11.91717471
 H,0,5.55137718,26.42650321,13.43687684
 Recover connectivity data from disk.
 Stoichiometry    C41H48FeN6O4S(1+,6)
 Framework group  C1[X(C41H48FeN6O4S)]
 Deg. of freedom   297
 Full point group                 C1      NOp   1
 Largest Abelian subgroup         C1      NOp   1
 Largest concise Abelian subgroup C1      NOp   1
                         Standard orientation:                         
 ---------------------------------------------------------------------
 Center     Atomic      Atomic             Coordinates (Angstroms)
 Number     Number       Type             X           Y           Z
 ---------------------------------------------------------------------
      1          6           0        2.468053   -1.856172    4.947966
      2          6           0        1.666425   -1.350076    3.778661
      3          7           0        0.317816   -1.358164    3.755049
      4          6           0        2.081531   -0.875037    2.550414
      5          6           0       -0.074217   -0.890456    2.663821
      6          7           0        0.969297   -0.598287    1.830413
      7          6           0       -0.714350    2.898424   -2.707884
      8          6           0        0.599624    2.080160   -2.778552
      9         16           0        0.437218    0.436133   -2.342520
     10          6           0        1.839321   -0.243717   -3.234893
     11         26           0        0.816983   -0.072263   -0.078276
     12          6           0       -2.580619   -0.055763   -0.075910
     13          6           0        0.757676   -3.436856   -0.536266
     14          6           0        4.125144    0.014980   -0.594566
     15          6           0        0.853608    3.073536    0.976226
     16          7           0       -0.619487   -1.408880   -0.253213
     17          6           0       -1.955818   -1.284882   -0.229828
     18          6           0       -2.645860   -2.509009   -0.702994
     19          6           0       -1.688306   -3.432487   -0.795038
     20          6           0       -0.441805   -2.844899   -0.572476
     21          6           0       -1.900671   -4.930640   -1.236441
     22          6           0       -4.143698   -2.599479   -0.767465
     23          6           0       -4.687493   -3.074947    0.618723
     24          6           0       -6.156339   -3.458294    0.715814
     25          8           0       -6.507938   -3.796065    1.851948
     26          8           0       -6.895881   -3.401976   -0.290146
     27          7           0        2.206568   -1.456222   -0.484016
     28          6           0        2.001049   -2.829273   -0.420940
     29          6           0        3.306174   -3.432146   -0.675712
     30          6           0        4.269967   -2.482026   -0.764130
     31          6           0        3.531936   -1.261085   -0.580928
     32          6           0        3.500322   -4.992310   -0.664877
     33          6           0        5.764094   -2.577358   -0.928013
     34          6           0        6.231394   -2.702312   -2.387389
     35          7           0        2.207380    1.328924    0.163900
     36          6           0        3.543131    1.256615   -0.090955
     37          6           0        4.334408    2.371910    0.252100
     38          6           0        3.401044    3.259365    0.654339
     39          6           0        2.099018    2.596381    0.686443
     40          6           0        5.811506    2.572728    0.104562
     41          6           0        3.543194    4.642936    1.361482
     42          6           0        4.449739    5.606273    0.562394
     43          7           0       -0.593690    1.274532    0.380739
     44          6           0       -0.386635    2.578135    0.816021
     45          6           0       -1.608700    3.207002    1.016576
     46          6           0       -2.581773    2.341366    0.689408
     47          6           0       -1.933053    1.124877    0.206958
     48          6           0       -1.821529    4.725724    1.460971
     49          6           0       -4.094221    2.672155    0.631007
     50          6           0       -4.591709    2.890939   -0.778631
     51          6           0       -5.926610    3.587227   -0.967910
     52          8           0       -6.737528    3.542358   -0.003672
     53          8           0       -6.142557    3.989235   -2.133287
     54          1           0        1.638988   -1.263201   -3.490666
     55          1           0        2.002328    0.322647   -4.127955
     56          1           0        2.712130   -0.195707   -2.617804
     57          1           0       -1.167102    2.763892   -1.747771
     58          1           0       -0.497249    3.935402   -2.857693
     59          1           0       -1.386035    2.561011   -3.469390
     60          1           0        0.974556    2.128807   -3.779532
     61          1           0        1.315696    2.533772   -2.125577
     62          1           0        4.598017    6.504839    1.124080
     63          1           0        5.395010    5.138740    0.381354
     64          1           0        3.983845    5.842214   -0.371509
     65          1           0        3.070185    4.894379    2.287731
     66          1           0        6.329698    1.750415    0.551976
     67          1           0        6.061759    2.629332   -0.934221
     68          1           0        6.098151    3.481879    0.590544
     69          1           0        5.105330    0.082893   -1.018267
     70          1           0        5.409389   -3.008503   -3.000131
     71          1           0        6.596432   -1.755683   -2.727302
     72          1           0        7.013583   -3.429713   -2.450395
     73          1           0        6.441859   -2.559651   -0.100232
     74          1           0        2.557399   -5.467879   -0.492743
     75          1           0        3.892759   -5.309454   -1.608441
     76          1           0        4.182938   -5.261382    0.113927
     77          1           0        0.758953   -4.504696   -0.604211
     78          1           0       -2.902786   -5.230290   -1.010887
     79          1           0       -1.730031   -5.019969   -2.288963
     80          1           0       -1.213359   -5.558679   -0.709119
     81          1           0       -4.427717   -3.301525   -1.523351
     82          1           0       -4.550689   -1.637841   -1.000942
     83          1           0       -4.110003   -3.923863    0.919968
     84          1           0       -4.509784   -2.289813    1.323622
     85          1           0       -7.356689   -4.224710    1.984181
     86          1           0       -3.644532   -0.023550   -0.185235
     87          1           0       -4.641098    1.862760    1.067705
     88          1           0       -4.275324    3.558850    1.201860
     89          1           0       -3.851657    3.463405   -1.297771
     90          1           0       -4.656432    1.933161   -1.251254
     91          1           0       -7.020015    3.908066   -2.514180
     92          1           0       -2.132571    4.757676    2.484265
     93          1           0       -0.902078    5.261788    1.350764
     94          1           0       -2.572564    5.175481    0.845696
     95          1           0        0.866502    4.044939    1.424678
     96          1           0       -1.102927   -0.737269    2.412446
     97          1           0       -0.273508   -1.685654    4.491993
     98          1           0        3.093956   -0.749136    2.227852
     99          1           0        1.989380   -2.719007    5.361836
    100          1           0        3.452225   -2.117500    4.619312
    101          1           0        2.532357   -1.091747    5.693901
 ---------------------------------------------------------------------
 Rotational constants (GHZ):           0.0644588           0.0442100           0.0333013
 Standard basis: def2TZVP (5D, 7F)
 There are  2218 symmetry adapted cartesian basis functions of A   symmetry.
 There are  1951 symmetry adapted basis functions of A   symmetry.
  1951 basis functions,  3156 primitive gaussians,  2218 cartesian basis functions
   207 alpha electrons      202 beta electrons
       nuclear repulsion energy      8950.5179038720 Hartrees.
 NAtoms=  101 NActive=  101 NUniq=  101 SFac= 1.00D+00 NAtFMM=   60 NAOKFM=T Big=T
 Integral buffers will be    131072 words long.
 Raffenetti 2 integral format.
 Two-electron integral symmetry is turned on.
 Nuclear repulsion after empirical dispersion term =     8950.3687961280 Hartrees.
 One-electron integrals computed using PRISM.
   1 Symmetry operations used in ECPInt.
 ECPInt:  NShTT=  305371 NPrTT=  941867 LenC2=  223193 LenP2D=  445466.
 LDataN:  DoStor=T MaxTD1= 6 Len=  172
 NBasis=  1951 RedAO= T EigKep=  4.27D-06  NBF=  1951
 NBsUse=  1951 1.00D-06 EigRej= -1.00D+00 NBFU=  1951
 ExpMin= 4.20D-02 ExpMax= 3.01D+05 ExpMxC= 2.91D+03 IAcc=3 IRadAn=         5 AccDes= 0.00D+00
 Harris functional with IExCor= 1009 and IRadAn=       5 diagonalized for initial guess.
 HarFok:  IExCor= 1009 AccDes= 0.00D+00 IRadAn=         5 IDoV= 1 UseB2=F ITyADJ=14
 ICtDFT=  3500011 ScaDFX=  1.000000  1.000000  1.000000  1.000000
 FoFCou: FMM=F IPFlag=           0 FMFlag=      100000 FMFlg1=        2001
         NFxFlg=           0 DoJE=T BraDBF=F KetDBF=T FulRan=T
         wScrn=  0.000000 ICntrl=       500 IOpCl=  0 I1Cent=   200000004 NGrid=           0
         NMat0=    1 NMatS0=      1 NMatT0=    0 NMatD0=    1 NMtDS0=    0 NMtDT0=    0
 Petite list used in FoFCou.
 Initial guess <Sx>= 0.0000 <Sy>= 0.0000 <Sz>= 2.5000 <S**2>= 8.7500 S= 2.5000
 Requested convergence on RMS density matrix=1.00D-08 within 999 cycles.
 Requested convergence on MAX density matrix=1.00D-06.
 Requested convergence on             energy=1.00D-06.
 No special actions if energy rises.
 EnCoef did     8 forward-backward iterations
 EnCoef did   100 forward-backward iterations
 EnCoef did    15 forward-backward iterations
 EnCoef did    13 forward-backward iterations
 EnCoef did     7 forward-backward iterations
 EnCoef did     7 forward-backward iterations
 Restarting incremental Fock formation.
 Restarting incremental Fock formation.
 Restarting incremental Fock formation.
 SCF Done:  E(UPBE1PBE) =  -3880.33228799     A.U. after   69 cycles
            NFock= 69  Conv=0.22D-08     -V/T= 2.0029
 <Sx>= 0.0000 <Sy>= 0.0000 <Sz>= 2.5000 <S**2>= 8.8333 S= 2.5138
 <L.S>= 0.000000000000E+00
 Annihilation of the first spin contaminant:
 S**2 before annihilation     8.8333,   after     8.7516
 Hyperfine terms turned off by default for NAtoms > 100.

 **********************************************************************

            Population analysis using the SCF density.

 **********************************************************************

 Orbital symmetries:
 Alpha Orbitals:
       Occupied  (A) (A) (A) (A) (A) (A) (A) (A) (A) (A) (A) (A)
                 (A) (A) (A) (A) (A) (A) (A) (A) (A) (A) (A) (A)
                 (A) (A) (A) (A) (A) (A) (A) (A) (A) (A) (A) (A)
                 (A) (A) (A) (A) (A) (A) (A) (A) (A) (A) (A) (A)
                 (A) (A) (A) (A) (A) (A) (A) (A) (A) (A) (A) (A)
                 (A) (A) (A) (A) (A) (A) (A) (A) (A) (A) (A) (A)
                 (A) (A) (A) (A) (A) (A) (A) (A) (A) (A) (A) (A)
                 (A) (A) (A) (A) (A) (A) (A) (A) (A) (A) (A) (A)
                 (A) (A) (A) (A) (A) (A) (A) (A) (A) (A) (A) (A)
                 (A) (A) (A) (A) (A) (A) (A) (A) (A) (A) (A) (A)
                 (A) (A) (A) (A) (A) (A) (A) (A) (A) (A) (A) (A)
                 (A) (A) (A) (A) (A) (A) (A) (A) (A) (A) (A) (A)
                 (A) (A) (A) (A) (A) (A) (A) (A) (A) (A) (A) (A)
                 (A) (A) (A) (A) (A) (A) (A) (A) (A) (A) (A) (A)
                 (A) (A) (A) (A) (A) (A) (A) (A) (A) (A) (A) (A)
                 (A) (A) (A) (A) (A) (A) (A) (A) (A) (A) (A) (A)
                 (A) (A) (A) (A) (A) (A) (A) (A) (A) (A) (A) (A)
                 (A) (A) (A)
       Virtual   (A) (A) (A) (A) (A) (A) (A) (A) (A) (A) (A) (A)
                 (A) (A) (A) (A) (A) (A) (A) (A) (A) (A) (A) (A)
                 (A) (A) (A) (A) (A) (A) (A) (A) (A) (A) (A) (A)
                 (A) (A) (A) (A) (A) (A) (A) (A) (A) (A) (A) (A)
                 (A) (A) (A) (A) (A) (A) (A) (A) (A) (A) (A) (A)
                 (A) (A) (A) (A) (A) (A) (A) (A) (A) (A) (A) (A)
                 (A) (A) (A) (A) (A) (A) (A) (A) (A) (A) (A) (A)
                 (A) (A) (A) (A) (A) (A) (A) (A) (A) (A) (A) (A)
                 (A) (A) (A) (A) (A) (A) (A) (A) (A) (A) (A) (A)
                 (A) (A) (A) (A) (A) (A) (A) (A) (A) (A) (A) (A)
                 (A) (A) (A) (A) (A) (A) (A) (A) (A) (A) (A) (A)
                 (A) (A) (A) (A) (A) (A) (A) (A) (A) (A) (A) (A)
                 (A) (A) (A) (A) (A) (A) (A) (A) (A) (A) (A) (A)
                 (A) (A) (A) (A) (A) (A) (A) (A) (A) (A) (A) (A)
                 (A) (A) (A) (A) (A) (A) (A) (A) (A) (A) (A) (A)
                 (A) (A) (A) (A) (A) (A) (A) (A) (A) (A) (A) (A)
                 (A) (A) (A) (A) (A) (A) (A) (A) (A) (A) (A) (A)
                 (A) (A) (A) (A) (A) (A) (A) (A) (A) (A) (A) (A)
                 (A) (A) (A) (A) (A) (A) (A) (A) (A) (A) (A) (A)
                 (A) (A) (A) (A) (A) (A) (A) (A) (A) (A) (A) (A)
                 (A) (A) (A) (A) (A) (A) (A) (A) (A) (A) (A) (A)
                 (A) (A) (A) (A) (A) (A) (A) (A) (A) (A) (A) (A)
                 (A) (A) (A) (A) (A) (A) (A) (A) (A) (A) (A) (A)
                 (A) (A) (A) (A) (A) (A) (A) (A) (A) (A) (A) (A)
                 (A) (A) (A) (A) (A) (A) (A) (A) (A) (A) (A) (A)
                 (A) (A) (A) (A) (A) (A) (A) (A) (A) (A) (A) (A)
                 (A) (A) (A) (A) (A) (A) (A) (A) (A) (A) (A) (A)
                 (A) (A) (A) (A) (A) (A) (A) (A) (A) (A) (A) (A)
                 (A) (A) (A) (A) (A) (A) (A) (A) (A) (A) (A) (A)
                 (A) (A) (A) (A) (A) (A) (A) (A) (A) (A) (A) (A)
                 (A) (A) (A) (A) (A) (A) (A) (A) (A) (A) (A) (A)
                 (A) (A) (A) (A) (A) (A) (A) (A) (A) (A) (A) (A)
                 (A) (A) (A) (A) (A) (A) (A) (A) (A) (A) (A) (A)
                 (A) (A) (A) (A) (A) (A) (A) (A) (A) (A) (A) (A)
                 (A) (A) (A) (A) (A) (A) (A) (A) (A) (A) (A) (A)
                 (A) (A) (A) (A) (A) (A) (A) (A) (A) (A) (A) (A)
                 (A) (A) (A) (A) (A) (A) (A) (A) (A) (A) (A) (A)
                 (A) (A) (A) (A) (A) (A) (A) (A) (A) (A) (A) (A)
                 (A) (A) (A) (A) (A) (A) (A) (A) (A) (A) (A) (A)
                 (A) (A) (A) (A) (A) (A) (A) (A) (A) (A) (A) (A)
                 (A) (A) (A) (A) (A) (A) (A) (A) (A) (A) (A) (A)
                 (A) (A) (A) (A) (A) (A) (A) (A) (A) (A) (A) (A)
                 (A) (A) (A) (A) (A) (A) (A) (A) (A) (A) (A) (A)
                 (A) (A) (A) (A) (A) (A) (A) (A) (A) (A) (A) (A)
                 (A) (A) (A) (A) (A) (A) (A) (A) (A) (A) (A) (A)
                 (A) (A) (A) (A) (A) (A) (A) (A) (A) (A) (A) (A)
                 (A) (A) (A) (A) (A) (A) (A) (A) (A) (A) (A) (A)
                 (A) (A) (A) (A) (A) (A) (A) (A) (A) (A) (A) (A)
                 (A) (A) (A) (A) (A) (A) (A) (A) (A) (A) (A) (A)
                 (A) (A) (A) (A) (A) (A) (A) (A) (A) (A) (A) (A)
                 (A) (A) (A) (A) (A) (A) (A) (A) (A) (A) (A) (A)
                 (A) (A) (A) (A) (A) (A) (A) (A) (A) (A) (A) (A)
                 (A) (A) (A) (A) (A) (A) (A) (A) (A) (A) (A) (A)
                 (A) (A) (A) (A) (A) (A) (A) (A) (A) (A) (A) (A)
                 (A) (A) (A) (A) (A) (A) (A) (A) (A) (A) (A) (A)
                 (A) (A) (A) (A) (A) (A) (A) (A) (A) (A) (A) (A)
                 (A) (A) (A) (A) (A) (A) (A) (A) (A) (A) (A) (A)
                 (A) (A) (A) (A) (A) (A) (A) (A) (A) (A) (A) (A)
                 (A) (A) (A) (A) (A) (A) (A) (A) (A) (A) (A) (A)
                 (A) (A) (A) (A) (A) (A) (A) (A) (A) (A) (A) (A)
                 (A) (A) (A) (A) (A) (A) (A) (A) (A) (A) (A) (A)
                 (A) (A) (A) (A) (A) (A) (A) (A) (A) (A) (A) (A)
                 (A) (A) (A) (A) (A) (A) (A) (A) (A) (A) (A) (A)
                 (A) (A) (A) (A) (A) (A) (A) (A) (A) (A) (A) (A)
                 (A) (A) (A) (A) (A) (A) (A) (A) (A) (A) (A) (A)
                 (A) (A) (A) (A) (A) (A) (A) (A) (A) (A) (A) (A)
                 (A) (A) (A) (A) (A) (A) (A) (A) (A) (A) (A) (A)
                 (A) (A) (A) (A) (A) (A) (A) (A) (A) (A) (A) (A)
                 (A) (A) (A) (A) (A) (A) (A) (A) (A) (A) (A) (A)
                 (A) (A) (A) (A) (A) (A) (A) (A) (A) (A) (A) (A)
                 (A) (A) (A) (A) (A) (A) (A) (A) (A) (A) (A) (A)
                 (A) (A) (A) (A) (A) (A) (A) (A) (A) (A) (A) (A)
                 (A) (A) (A) (A) (A) (A) (A) (A) (A) (A) (A) (A)
                 (A) (A) (A) (A) (A) (A) (A) (A) (A) (A) (A) (A)
                 (A) (A) (A) (A) (A) (A) (A) (A) (A) (A) (A) (A)
                 (A) (A) (A) (A) (A) (A) (A) (A) (A) (A) (A) (A)
                 (A) (A) (A) (A) (A) (A) (A) (A) (A) (A) (A) (A)
                 (A) (A) (A) (A) (A) (A) (A) (A) (A) (A) (A) (A)
                 (A) (A) (A) (A) (A) (A) (A) (A) (A) (A) (A) (A)
                 (A) (A) (A) (A) (A) (A) (A) (A) (A) (A) (A) (A)
                 (A) (A) (A) (A) (A) (A) (A) (A) (A) (A) (A) (A)
                 (A) (A) (A) (A) (A) (A) (A) (A) (A) (A) (A) (A)
                 (A) (A) (A) (A) (A) (A) (A) (A) (A) (A) (A) (A)
                 (A) (A) (A) (A) (A) (A) (A) (A) (A) (A) (A) (A)
                 (A) (A) (A) (A) (A) (A) (A) (A) (A) (A) (A) (A)
                 (A) (A) (A) (A) (A) (A) (A) (A) (A) (A) (A) (A)
                 (A) (A) (A) (A) (A) (A) (A) (A) (A) (A) (A) (A)
                 (A) (A) (A) (A) (A) (A) (A) (A) (A) (A) (A) (A)
                 (A) (A) (A) (A) (A) (A) (A) (A) (A) (A) (A) (A)
                 (A) (A) (A) (A) (A) (A) (A) (A) (A) (A) (A) (A)
                 (A) (A) (A) (A) (A) (A) (A) (A) (A) (A) (A) (A)
                 (A) (A) (A) (A) (A) (A) (A) (A) (A) (A) (A) (A)
                 (A) (A) (A) (A) (A) (A) (A) (A) (A) (A) (A) (A)
                 (A) (A) (A) (A) (A) (A) (A) (A) (A) (A) (A) (A)
                 (A) (A) (A) (A) (A) (A) (A) (A) (A) (A) (A) (A)
                 (A) (A) (A) (A) (A) (A) (A) (A) (A) (A) (A) (A)
                 (A) (A) (A) (A) (A) (A) (A) (A) (A) (A) (A) (A)
                 (A) (A) (A) (A) (A) (A) (A) (A) (A) (A) (A) (A)
                 (A) (A) (A) (A) (A) (A) (A) (A) (A) (A) (A) (A)
                 (A) (A) (A) (A) (A) (A) (A) (A) (A) (A) (A) (A)
                 (A) (A) (A) (A) (A) (A) (A) (A) (A) (A) (A) (A)
                 (A) (A) (A) (A) (A) (A) (A) (A) (A) (A) (A) (A)
                 (A) (A) (A) (A) (A) (A) (A) (A) (A) (A) (A) (A)
                 (A) (A) (A) (A) (A) (A) (A) (A) (A) (A) (A) (A)
                 (A) (A) (A) (A) (A) (A) (A) (A) (A) (A) (A) (A)
                 (A) (A) (A) (A) (A) (A) (A) (A) (A) (A) (A) (A)
                 (A) (A) (A) (A) (A) (A) (A) (A) (A) (A) (A) (A)
                 (A) (A) (A) (A) (A) (A) (A) (A) (A) (A) (A) (A)
                 (A) (A) (A) (A) (A) (A) (A) (A) (A) (A) (A) (A)
                 (A) (A) (A) (A) (A) (A) (A) (A) (A) (A) (A) (A)
                 (A) (A) (A) (A) (A) (A) (A) (A) (A) (A) (A) (A)
                 (A) (A) (A) (A) (A) (A) (A) (A) (A) (A) (A) (A)
                 (A) (A) (A) (A) (A) (A) (A) (A) (A) (A) (A) (A)
                 (A) (A) (A) (A) (A) (A) (A) (A) (A) (A) (A) (A)
                 (A) (A) (A) (A) (A) (A) (A) (A) (A) (A) (A) (A)
                 (A) (A) (A) (A) (A) (A) (A) (A) (A) (A) (A) (A)
                 (A) (A) (A) (A) (A) (A) (A) (A) (A) (A) (A) (A)
                 (A) (A) (A) (A) (A) (A) (A) (A) (A) (A) (A) (A)
                 (A) (A) (A) (A) (A) (A) (A) (A) (A) (A) (A) (A)
                 (A) (A) (A) (A) (A) (A) (A) (A) (A) (A) (A) (A)
                 (A) (A) (A) (A) (A) (A) (A) (A) (A) (A) (A) (A)
                 (A) (A) (A) (A) (A) (A) (A) (A) (A) (A) (A) (A)
                 (A) (A) (A) (A) (A) (A) (A) (A) (A) (A) (A) (A)
                 (A) (A) (A) (A) (A) (A) (A) (A) (A) (A) (A) (A)
                 (A) (A) (A) (A) (A) (A) (A) (A) (A) (A) (A) (A)
                 (A) (A) (A) (A) (A) (A) (A) (A) (A) (A) (A) (A)
                 (A) (A) (A) (A) (A) (A) (A) (A) (A) (A) (A) (A)
                 (A) (A) (A) (A) (A) (A) (A) (A) (A) (A) (A) (A)
                 (A) (A) (A) (A) (A) (A) (A) (A) (A) (A) (A) (A)
                 (A) (A) (A) (A) (A) (A) (A) (A) (A) (A) (A) (A)
                 (A) (A) (A) (A) (A) (A) (A) (A) (A) (A) (A) (A)
                 (A) (A) (A) (A) (A) (A) (A) (A) (A) (A) (A) (A)
                 (A) (A) (A) (A) (A) (A) (A) (A) (A) (A) (A) (A)
                 (A) (A) (A) (A) (A) (A) (A) (A) (A) (A) (A) (A)
                 (A) (A) (A) (A) (A) (A) (A) (A) (A) (A) (A) (A)
                 (A) (A) (A) (A) (A) (A) (A) (A) (A) (A) (A) (A)
                 (A) (A) (A) (A) (A) (A) (A) (A) (A) (A) (A) (A)
                 (A) (A) (A) (A) (A) (A) (A) (A) (A) (A) (A) (A)
                 (A) (A) (A) (A) (A) (A) (A) (A) (A) (A) (A) (A)
                 (A) (A) (A) (A) (A) (A) (A) (A) (A) (A) (A) (A)
                 (A) (A) (A) (A) (A) (A) (A) (A) (A) (A) (A) (A)
                 (A) (A) (A) (A) (A) (A) (A) (A) (A) (A) (A) (A)
                 (A) (A) (A) (A) (A) (A) (A) (A) (A) (A) (A) (A)
                 (A) (A) (A) (A) (A) (A) (A) (A) (A) (A) (A) (A)
                 (A) (A) (A) (A) (A) (A) (A) (A) (A) (A) (A) (A)
                 (A) (A) (A) (A)
 Beta  Orbitals:
       Occupied  (A) (A) (A) (A) (A) (A) (A) (A) (A) (A) (A) (A)
                 (A) (A) (A) (A) (A) (A) (A) (A) (A) (A) (A) (A)
                 (A) (A) (A) (A) (A) (A) (A) (A) (A) (A) (A) (A)
                 (A) (A) (A) (A) (A) (A) (A) (A) (A) (A) (A) (A)
                 (A) (A) (A) (A) (A) (A) (A) (A) (A) (A) (A) (A)
                 (A) (A) (A) (A) (A) (A) (A) (A) (A) (A) (A) (A)
                 (A) (A) (A) (A) (A) (A) (A) (A) (A) (A) (A) (A)
                 (A) (A) (A) (A) (A) (A) (A) (A) (A) (A) (A) (A)
                 (A) (A) (A) (A) (A) (A) (A) (A) (A) (A) (A) (A)
                 (A) (A) (A) (A) (A) (A) (A) (A) (A) (A) (A) (A)
                 (A) (A) (A) (A) (A) (A) (A) (A) (A) (A) (A) (A)
                 (A) (A) (A) (A) (A) (A) (A) (A) (A) (A) (A) (A)
                 (A) (A) (A) (A) (A) (A) (A) (A) (A) (A) (A) (A)
                 (A) (A) (A) (A) (A) (A) (A) (A) (A) (A) (A) (A)
                 (A) (A) (A) (A) (A) (A) (A) (A) (A) (A) (A) (A)
                 (A) (A) (A) (A) (A) (A) (A) (A) (A) (A) (A) (A)
                 (A) (A) (A) (A) (A) (A) (A) (A) (A) (A)
       Virtual   (A) (A) (A) (A) (A) (A) (A) (A) (A) (A) (A) (A)
                 (A) (A) (A) (A) (A) (A) (A) (A) (A) (A) (A) (A)
                 (A) (A) (A) (A) (A) (A) (A) (A) (A) (A) (A) (A)
                 (A) (A) (A) (A) (A) (A) (A) (A) (A) (A) (A) (A)
                 (A) (A) (A) (A) (A) (A) (A) (A) (A) (A) (A) (A)
                 (A) (A) (A) (A) (A) (A) (A) (A) (A) (A) (A) (A)
                 (A) (A) (A) (A) (A) (A) (A) (A) (A) (A) (A) (A)
                 (A) (A) (A) (A) (A) (A) (A) (A) (A) (A) (A) (A)
                 (A) (A) (A) (A) (A) (A) (A) (A) (A) (A) (A) (A)
                 (A) (A) (A) (A) (A) (A) (A) (A) (A) (A) (A) (A)
                 (A) (A) (A) (A) (A) (A) (A) (A) (A) (A) (A) (A)
                 (A) (A) (A) (A) (A) (A) (A) (A) (A) (A) (A) (A)
                 (A) (A) (A) (A) (A) (A) (A) (A) (A) (A) (A) (A)
                 (A) (A) (A) (A) (A) (A) (A) (A) (A) (A) (A) (A)
                 (A) (A) (A) (A) (A) (A) (A) (A) (A) (A) (A) (A)
                 (A) (A) (A) (A) (A) (A) (A) (A) (A) (A) (A) (A)
                 (A) (A) (A) (A) (A) (A) (A) (A) (A) (A) (A) (A)
                 (A) (A) (A) (A) (A) (A) (A) (A) (A) (A) (A) (A)
                 (A) (A) (A) (A) (A) (A) (A) (A) (A) (A) (A) (A)
                 (A) (A) (A) (A) (A) (A) (A) (A) (A) (A) (A) (A)
                 (A) (A) (A) (A) (A) (A) (A) (A) (A) (A) (A) (A)
                 (A) (A) (A) (A) (A) (A) (A) (A) (A) (A) (A) (A)
                 (A) (A) (A) (A) (A) (A) (A) (A) (A) (A) (A) (A)
                 (A) (A) (A) (A) (A) (A) (A) (A) (A) (A) (A) (A)
                 (A) (A) (A) (A) (A) (A) (A) (A) (A) (A) (A) (A)
                 (A) (A) (A) (A) (A) (A) (A) (A) (A) (A) (A) (A)
                 (A) (A) (A) (A) (A) (A) (A) (A) (A) (A) (A) (A)
                 (A) (A) (A) (A) (A) (A) (A) (A) (A) (A) (A) (A)
                 (A) (A) (A) (A) (A) (A) (A) (A) (A) (A) (A) (A)
                 (A) (A) (A) (A) (A) (A) (A) (A) (A) (A) (A) (A)
                 (A) (A) (A) (A) (A) (A) (A) (A) (A) (A) (A) (A)
                 (A) (A) (A) (A) (A) (A) (A) (A) (A) (A) (A) (A)
                 (A) (A) (A) (A) (A) (A) (A) (A) (A) (A) (A) (A)
                 (A) (A) (A) (A) (A) (A) (A) (A) (A) (A) (A) (A)
                 (A) (A) (A) (A) (A) (A) (A) (A) (A) (A) (A) (A)
                 (A) (A) (A) (A) (A) (A) (A) (A) (A) (A) (A) (A)
                 (A) (A) (A) (A) (A) (A) (A) (A) (A) (A) (A) (A)
                 (A) (A) (A) (A) (A) (A) (A) (A) (A) (A) (A) (A)
                 (A) (A) (A) (A) (A) (A) (A) (A) (A) (A) (A) (A)
                 (A) (A) (A) (A) (A) (A) (A) (A) (A) (A) (A) (A)
                 (A) (A) (A) (A) (A) (A) (A) (A) (A) (A) (A) (A)
                 (A) (A) (A) (A) (A) (A) (A) (A) (A) (A) (A) (A)
                 (A) (A) (A) (A) (A) (A) (A) (A) (A) (A) (A) (A)
                 (A) (A) (A) (A) (A) (A) (A) (A) (A) (A) (A) (A)
                 (A) (A) (A) (A) (A) (A) (A) (A) (A) (A) (A) (A)
                 (A) (A) (A) (A) (A) (A) (A) (A) (A) (A) (A) (A)
                 (A) (A) (A) (A) (A) (A) (A) (A) (A) (A) (A) (A)
                 (A) (A) (A) (A) (A) (A) (A) (A) (A) (A) (A) (A)
                 (A) (A) (A) (A) (A) (A) (A) (A) (A) (A) (A) (A)
                 (A) (A) (A) (A) (A) (A) (A) (A) (A) (A) (A) (A)
                 (A) (A) (A) (A) (A) (A) (A) (A) (A) (A) (A) (A)
                 (A) (A) (A) (A) (A) (A) (A) (A) (A) (A) (A) (A)
                 (A) (A) (A) (A) (A) (A) (A) (A) (A) (A) (A) (A)
                 (A) (A) (A) (A) (A) (A) (A) (A) (A) (A) (A) (A)
                 (A) (A) (A) (A) (A) (A) (A) (A) (A) (A) (A) (A)
                 (A) (A) (A) (A) (A) (A) (A) (A) (A) (A) (A) (A)
                 (A) (A) (A) (A) (A) (A) (A) (A) (A) (A) (A) (A)
                 (A) (A) (A) (A) (A) (A) (A) (A) (A) (A) (A) (A)
                 (A) (A) (A) (A) (A) (A) (A) (A) (A) (A) (A) (A)
                 (A) (A) (A) (A) (A) (A) (A) (A) (A) (A) (A) (A)
                 (A) (A) (A) (A) (A) (A) (A) (A) (A) (A) (A) (A)
                 (A) (A) (A) (A) (A) (A) (A) (A) (A) (A) (A) (A)
                 (A) (A) (A) (A) (A) (A) (A) (A) (A) (A) (A) (A)
                 (A) (A) (A) (A) (A) (A) (A) (A) (A) (A) (A) (A)
                 (A) (A) (A) (A) (A) (A) (A) (A) (A) (A) (A) (A)
                 (A) (A) (A) (A) (A) (A) (A) (A) (A) (A) (A) (A)
                 (A) (A) (A) (A) (A) (A) (A) (A) (A) (A) (A) (A)
                 (A) (A) (A) (A) (A) (A) (A) (A) (A) (A) (A) (A)
                 (A) (A) (A) (A) (A) (A) (A) (A) (A) (A) (A) (A)
                 (A) (A) (A) (A) (A) (A) (A) (A) (A) (A) (A) (A)
                 (A) (A) (A) (A) (A) (A) (A) (A) (A) (A) (A) (A)
                 (A) (A) (A) (A) (A) (A) (A) (A) (A) (A) (A) (A)
                 (A) (A) (A) (A) (A) (A) (A) (A) (A) (A) (A) (A)
                 (A) (A) (A) (A) (A) (A) (A) (A) (A) (A) (A) (A)
                 (A) (A) (A) (A) (A) (A) (A) (A) (A) (A) (A) (A)
                 (A) (A) (A) (A) (A) (A) (A) (A) (A) (A) (A) (A)
                 (A) (A) (A) (A) (A) (A) (A) (A) (A) (A) (A) (A)
                 (A) (A) (A) (A) (A) (A) (A) (A) (A) (A) (A) (A)
                 (A) (A) (A) (A) (A) (A) (A) (A) (A) (A) (A) (A)
                 (A) (A) (A) (A) (A) (A) (A) (A) (A) (A) (A) (A)
                 (A) (A) (A) (A) (A) (A) (A) (A) (A) (A) (A) (A)
                 (A) (A) (A) (A) (A) (A) (A) (A) (A) (A) (A) (A)
                 (A) (A) (A) (A) (A) (A) (A) (A) (A) (A) (A) (A)
                 (A) (A) (A) (A) (A) (A) (A) (A) (A) (A) (A) (A)
                 (A) (A) (A) (A) (A) (A) (A) (A) (A) (A) (A) (A)
                 (A) (A) (A) (A) (A) (A) (A) (A) (A) (A) (A) (A)
                 (A) (A) (A) (A) (A) (A) (A) (A) (A) (A) (A) (A)
                 (A) (A) (A) (A) (A) (A) (A) (A) (A) (A) (A) (A)
                 (A) (A) (A) (A) (A) (A) (A) (A) (A) (A) (A) (A)
                 (A) (A) (A) (A) (A) (A) (A) (A) (A) (A) (A) (A)
                 (A) (A) (A) (A) (A) (A) (A) (A) (A) (A) (A) (A)
                 (A) (A) (A) (A) (A) (A) (A) (A) (A) (A) (A) (A)
                 (A) (A) (A) (A) (A) (A) (A) (A) (A) (A) (A) (A)
                 (A) (A) (A) (A) (A) (A) (A) (A) (A) (A) (A) (A)
                 (A) (A) (A) (A) (A) (A) (A) (A) (A) (A) (A) (A)
                 (A) (A) (A) (A) (A) (A) (A) (A) (A) (A) (A) (A)
                 (A) (A) (A) (A) (A) (A) (A) (A) (A) (A) (A) (A)
                 (A) (A) (A) (A) (A) (A) (A) (A) (A) (A) (A) (A)
                 (A) (A) (A) (A) (A) (A) (A) (A) (A) (A) (A) (A)
                 (A) (A) (A) (A) (A) (A) (A) (A) (A) (A) (A) (A)
                 (A) (A) (A) (A) (A) (A) (A) (A) (A) (A) (A) (A)
                 (A) (A) (A) (A) (A) (A) (A) (A) (A) (A) (A) (A)
                 (A) (A) (A) (A) (A) (A) (A) (A) (A) (A) (A) (A)
                 (A) (A) (A) (A) (A) (A) (A) (A) (A) (A) (A) (A)
                 (A) (A) (A) (A) (A) (A) (A) (A) (A) (A) (A) (A)
                 (A) (A) (A) (A) (A) (A) (A) (A) (A) (A) (A) (A)
                 (A) (A) (A) (A) (A) (A) (A) (A) (A) (A) (A) (A)
                 (A) (A) (A) (A) (A) (A) (A) (A) (A) (A) (A) (A)
                 (A) (A) (A) (A) (A) (A) (A) (A) (A) (A) (A) (A)
                 (A) (A) (A) (A) (A) (A) (A) (A) (A) (A) (A) (A)
                 (A) (A) (A) (A) (A) (A) (A) (A) (A) (A) (A) (A)
                 (A) (A) (A) (A) (A) (A) (A) (A) (A) (A) (A) (A)
                 (A) (A) (A) (A) (A) (A) (A) (A) (A) (A) (A) (A)
                 (A) (A) (A) (A) (A) (A) (A) (A) (A) (A) (A) (A)
                 (A) (A) (A) (A) (A) (A) (A) (A) (A) (A) (A) (A)
                 (A) (A) (A) (A) (A) (A) (A) (A) (A) (A) (A) (A)
                 (A) (A) (A) (A) (A) (A) (A) (A) (A) (A) (A) (A)
                 (A) (A) (A) (A) (A) (A) (A) (A) (A) (A) (A) (A)
                 (A) (A) (A) (A) (A) (A) (A) (A) (A) (A) (A) (A)
                 (A) (A) (A) (A) (A) (A) (A) (A) (A) (A) (A) (A)
                 (A) (A) (A) (A) (A) (A) (A) (A) (A) (A) (A) (A)
                 (A) (A) (A) (A) (A) (A) (A) (A) (A) (A) (A) (A)
                 (A) (A) (A) (A) (A) (A) (A) (A) (A) (A) (A) (A)
                 (A) (A) (A) (A) (A) (A) (A) (A) (A) (A) (A) (A)
                 (A) (A) (A) (A) (A) (A) (A) (A) (A) (A) (A) (A)
                 (A) (A) (A) (A) (A) (A) (A) (A) (A) (A) (A) (A)
                 (A) (A) (A) (A) (A) (A) (A) (A) (A) (A) (A) (A)
                 (A) (A) (A) (A) (A) (A) (A) (A) (A) (A) (A) (A)
                 (A) (A) (A) (A) (A) (A) (A) (A) (A) (A) (A) (A)
                 (A) (A) (A) (A) (A) (A) (A) (A) (A) (A) (A) (A)
                 (A) (A) (A) (A) (A) (A) (A) (A) (A) (A) (A) (A)
                 (A) (A) (A) (A) (A) (A) (A) (A) (A) (A) (A) (A)
                 (A) (A) (A) (A) (A) (A) (A) (A) (A) (A) (A) (A)
                 (A) (A) (A) (A) (A) (A) (A) (A) (A) (A) (A) (A)
                 (A) (A) (A) (A) (A) (A) (A) (A) (A) (A) (A) (A)
                 (A) (A) (A) (A) (A) (A) (A) (A) (A) (A) (A) (A)
                 (A) (A) (A) (A) (A) (A) (A) (A) (A) (A) (A) (A)
                 (A) (A) (A) (A) (A) (A) (A) (A) (A) (A) (A) (A)
                 (A) (A) (A) (A) (A) (A) (A) (A) (A) (A) (A) (A)
                 (A) (A) (A) (A) (A) (A) (A) (A) (A) (A) (A) (A)
                 (A) (A) (A) (A) (A) (A) (A) (A) (A) (A) (A) (A)
                 (A) (A) (A) (A) (A) (A) (A) (A) (A) (A) (A) (A)
                 (A) (A) (A) (A) (A) (A) (A) (A) (A) (A) (A) (A)
                 (A) (A) (A) (A) (A) (A) (A) (A) (A) (A) (A) (A)
                 (A) (A) (A) (A) (A) (A) (A) (A) (A) (A) (A) (A)
                 (A) (A) (A) (A) (A) (A) (A) (A) (A)
 The electronic state is 6-A.
 Alpha  occ. eigenvalues -- -256.51428 -89.11057 -30.32344 -26.16482 -26.13687
 Alpha  occ. eigenvalues --  -26.12679 -19.34251 -19.33787 -19.24804 -19.24652
 Alpha  occ. eigenvalues --  -14.54863 -14.49273 -14.49245 -14.49061 -14.48744
 Alpha  occ. eigenvalues --  -14.48492 -10.42477 -10.42427 -10.37380 -10.35998
 Alpha  occ. eigenvalues --  -10.35929 -10.35660 -10.35622 -10.35565 -10.35434
 Alpha  occ. eigenvalues --  -10.35425 -10.35167 -10.34929 -10.33800 -10.33368
 Alpha  occ. eigenvalues --  -10.33283 -10.33239 -10.33078 -10.32962 -10.32827
 Alpha  occ. eigenvalues --  -10.32570 -10.32469 -10.32462 -10.32414 -10.32341
 Alpha  occ. eigenvalues --  -10.32280 -10.32081 -10.31993 -10.31889 -10.31450
 Alpha  occ. eigenvalues --  -10.31435 -10.31243 -10.31080 -10.30636 -10.30529
 Alpha  occ. eigenvalues --  -10.30461 -10.30432 -10.30382 -10.29939 -10.29284
 Alpha  occ. eigenvalues --  -10.29106 -10.29105  -8.09235  -6.02851  -6.02562
 Alpha  occ. eigenvalues --   -6.02112  -3.71921  -2.51768  -2.46093  -2.45428
 Alpha  occ. eigenvalues --   -1.25125  -1.23935  -1.18407  -1.09900  -1.09515
 Alpha  occ. eigenvalues --   -1.09158  -1.08801  -1.08628  -1.07135  -1.01914
 Alpha  occ. eigenvalues --   -0.94776  -0.94621  -0.93263  -0.93113  -0.92333
 Alpha  occ. eigenvalues --   -0.92066  -0.91588  -0.91068  -0.90578  -0.88373
 Alpha  occ. eigenvalues --   -0.87592  -0.86594  -0.86117  -0.85517  -0.85377
 Alpha  occ. eigenvalues --   -0.83584  -0.82233  -0.81661  -0.81242  -0.80983
 Alpha  occ. eigenvalues --   -0.79708  -0.79510  -0.78819  -0.76963  -0.76756
 Alpha  occ. eigenvalues --   -0.76221  -0.75876  -0.73380  -0.73124  -0.72658
 Alpha  occ. eigenvalues --   -0.72550  -0.72171  -0.69790  -0.69734  -0.68574
 Alpha  occ. eigenvalues --   -0.66508  -0.66163  -0.65458  -0.65008  -0.64216
 Alpha  occ. eigenvalues --   -0.63031  -0.62156  -0.61747  -0.60489  -0.60165
 Alpha  occ. eigenvalues --   -0.59249  -0.59075  -0.58800  -0.58753  -0.58598
 Alpha  occ. eigenvalues --   -0.58501  -0.58166  -0.57877  -0.57168  -0.56879
 Alpha  occ. eigenvalues --   -0.56317  -0.56064  -0.55453  -0.55186  -0.54829
 Alpha  occ. eigenvalues --   -0.54640  -0.54423  -0.54181  -0.53946  -0.53844
 Alpha  occ. eigenvalues --   -0.53738  -0.53557  -0.53361  -0.53060  -0.52777
 Alpha  occ. eigenvalues --   -0.52485  -0.52328  -0.52166  -0.52035  -0.51905
 Alpha  occ. eigenvalues --   -0.51735  -0.51350  -0.51166  -0.51133  -0.50929
 Alpha  occ. eigenvalues --   -0.50691  -0.50281  -0.50180  -0.49876  -0.49753
 Alpha  occ. eigenvalues --   -0.49420  -0.49232  -0.49093  -0.49030  -0.48554
 Alpha  occ. eigenvalues --   -0.48524  -0.48184  -0.47751  -0.47636  -0.47306
 Alpha  occ. eigenvalues --   -0.47225  -0.47001  -0.46818  -0.46698  -0.46508
 Alpha  occ. eigenvalues --   -0.45990  -0.45802  -0.45404  -0.45235  -0.44706
 Alpha  occ. eigenvalues --   -0.44629  -0.44514  -0.43996  -0.43735  -0.43603
 Alpha  occ. eigenvalues --   -0.43132  -0.42914  -0.42613  -0.42075  -0.40223
 Alpha  occ. eigenvalues --   -0.39734  -0.39708  -0.39058  -0.38114  -0.37089
 Alpha  occ. eigenvalues --   -0.36222  -0.35101  -0.34868  -0.34519  -0.34437
 Alpha  occ. eigenvalues --   -0.34055  -0.32928  -0.30706  -0.30417  -0.30035
 Alpha  occ. eigenvalues --   -0.28996  -0.28312
 Alpha virt. eigenvalues --   -0.19998  -0.18614  -0.16981  -0.11157  -0.07368
 Alpha virt. eigenvalues --   -0.07307  -0.06622  -0.06507  -0.05809  -0.05337
 Alpha virt. eigenvalues --   -0.05031  -0.04745  -0.04475  -0.03845  -0.03738
 Alpha virt. eigenvalues --   -0.03484  -0.02974  -0.02507  -0.02277  -0.02099
 Alpha virt. eigenvalues --   -0.01886  -0.01746  -0.01562  -0.01119  -0.00907
 Alpha virt. eigenvalues --   -0.00723  -0.00551  -0.00006   0.00168   0.00396
 Alpha virt. eigenvalues --    0.00589   0.00924   0.01305   0.01637   0.01773
 Alpha virt. eigenvalues --    0.02143   0.02315   0.02506   0.02582   0.03075
 Alpha virt. eigenvalues --    0.03213   0.03631   0.03836   0.04018   0.04172
 Alpha virt. eigenvalues --    0.04254   0.04434   0.04547   0.04652   0.04844
 Alpha virt. eigenvalues --    0.05243   0.05398   0.05637   0.05886   0.05965
 Alpha virt. eigenvalues --    0.06184   0.06328   0.06556   0.06638   0.06912
 Alpha virt. eigenvalues --    0.07097   0.07169   0.07310   0.07623   0.07698
 Alpha virt. eigenvalues --    0.07895   0.08055   0.08103   0.08356   0.08491
 Alpha virt. eigenvalues --    0.08692   0.08987   0.09118   0.09236   0.09549
 Alpha virt. eigenvalues --    0.09945   0.10049   0.10256   0.10771   0.10876
 Alpha virt. eigenvalues --    0.11110   0.11314   0.11493   0.11647   0.11874
 Alpha virt. eigenvalues --    0.12036   0.12212   0.12464   0.12568   0.12823
 Alpha virt. eigenvalues --    0.13143   0.13265   0.13435   0.13610   0.13868
 Alpha virt. eigenvalues --    0.14011   0.14334   0.14444   0.14492   0.14703
 Alpha virt. eigenvalues --    0.15035   0.15066   0.15313   0.15408   0.15695
 Alpha virt. eigenvalues --    0.15994   0.16207   0.16338   0.16485   0.16617
 Alpha virt. eigenvalues --    0.16705   0.17116   0.17207   0.17387   0.17466
 Alpha virt. eigenvalues --    0.17736   0.18108   0.18239   0.18423   0.18547
 Alpha virt. eigenvalues --    0.18955   0.19122   0.19144   0.19425   0.19621
 Alpha virt. eigenvalues --    0.19838   0.20096   0.20179   0.20537   0.20583
 Alpha virt. eigenvalues --    0.21221   0.21404   0.21502   0.21642   0.21873
 Alpha virt. eigenvalues --    0.21969   0.22396   0.22554   0.22788   0.23180
 Alpha virt. eigenvalues --    0.23345   0.23526   0.23610   0.23901   0.24075
 Alpha virt. eigenvalues --    0.24294   0.24425   0.24649   0.25114   0.25379
 Alpha virt. eigenvalues --    0.25637   0.25803   0.25838   0.26417   0.26503
 Alpha virt. eigenvalues --    0.26964   0.27148   0.27484   0.27625   0.27728
 Alpha virt. eigenvalues --    0.27885   0.28049   0.28397   0.28553   0.28904
 Alpha virt. eigenvalues --    0.29183   0.29262   0.29381   0.29544   0.29874
 Alpha virt. eigenvalues --    0.29984   0.30158   0.30401   0.30653   0.30903
 Alpha virt. eigenvalues --    0.30984   0.31109   0.31462   0.31576   0.31816
 Alpha virt. eigenvalues --    0.32031   0.32171   0.32290   0.32466   0.32956
 Alpha virt. eigenvalues --    0.33002   0.33218   0.33291   0.33461   0.33678
 Alpha virt. eigenvalues --    0.33724   0.33812   0.34367   0.34419   0.34979
 Alpha virt. eigenvalues --    0.35028   0.35135   0.35265   0.35304   0.35565
 Alpha virt. eigenvalues --    0.35641   0.36001   0.36101   0.36298   0.36391
 Alpha virt. eigenvalues --    0.36685   0.36843   0.36957   0.37121   0.37255
 Alpha virt. eigenvalues --    0.37475   0.37586   0.37860   0.37983   0.38032
 Alpha virt. eigenvalues --    0.38155   0.38317   0.38541   0.38592   0.38884
 Alpha virt. eigenvalues --    0.38955   0.39038   0.39478   0.39754   0.39885
 Alpha virt. eigenvalues --    0.39942   0.40190   0.40303   0.40545   0.40663
 Alpha virt. eigenvalues --    0.40831   0.40952   0.41046   0.41187   0.41362
 Alpha virt. eigenvalues --    0.41487   0.41671   0.41895   0.42043   0.42098
 Alpha virt. eigenvalues --    0.42258   0.42387   0.42542   0.42705   0.42959
 Alpha virt. eigenvalues --    0.43092   0.43187   0.43447   0.43617   0.43847
 Alpha virt. eigenvalues --    0.43929   0.44082   0.44261   0.44534   0.44582
 Alpha virt. eigenvalues --    0.44723   0.45008   0.45225   0.45348   0.45630
 Alpha virt. eigenvalues --    0.45670   0.46007   0.46099   0.46308   0.46497
 Alpha virt. eigenvalues --    0.46682   0.46961   0.47238   0.47402   0.47548
 Alpha virt. eigenvalues --    0.47871   0.48088   0.48287   0.48501   0.48644
 Alpha virt. eigenvalues --    0.48970   0.49150   0.49192   0.49567   0.49781
 Alpha virt. eigenvalues --    0.49877   0.50520   0.50676   0.50839   0.50951
 Alpha virt. eigenvalues --    0.51083   0.51427   0.51463   0.51694   0.51843
 Alpha virt. eigenvalues --    0.52090   0.52357   0.52531   0.52597   0.52931
 Alpha virt. eigenvalues --    0.53125   0.53508   0.53534   0.53965   0.54152
 Alpha virt. eigenvalues --    0.54357   0.54598   0.55044   0.55347   0.55395
 Alpha virt. eigenvalues --    0.55730   0.56078   0.56158   0.56411   0.56557
 Alpha virt. eigenvalues --    0.57233   0.57427   0.57989   0.58146   0.58430
 Alpha virt. eigenvalues --    0.58647   0.58922   0.59081   0.59354   0.59633
 Alpha virt. eigenvalues --    0.59835   0.60140   0.60390   0.60702   0.60926
 Alpha virt. eigenvalues --    0.61370   0.61519   0.61671   0.62099   0.62559
 Alpha virt. eigenvalues --    0.62747   0.62982   0.63200   0.63610   0.64092
 Alpha virt. eigenvalues --    0.64121   0.64433   0.64732   0.64899   0.65223
 Alpha virt. eigenvalues --    0.65308   0.65871   0.66189   0.66444   0.66623
 Alpha virt. eigenvalues --    0.66939   0.67292   0.67409   0.67880   0.67972
 Alpha virt. eigenvalues --    0.68042   0.68384   0.68630   0.69396   0.69562
 Alpha virt. eigenvalues --    0.69872   0.70062   0.70271   0.70366   0.70549
 Alpha virt. eigenvalues --    0.70888   0.71477   0.71820   0.71963   0.72258
 Alpha virt. eigenvalues --    0.72394   0.72591   0.72844   0.73568   0.73902
 Alpha virt. eigenvalues --    0.74017   0.74260   0.74458   0.74782   0.75151
 Alpha virt. eigenvalues --    0.75485   0.75802   0.76103   0.76725   0.76804
 Alpha virt. eigenvalues --    0.77044   0.77420   0.77572   0.77976   0.78143
 Alpha virt. eigenvalues --    0.78272   0.78659   0.78856   0.79050   0.79217
 Alpha virt. eigenvalues --    0.79494   0.79709   0.80271   0.80629   0.80804
 Alpha virt. eigenvalues --    0.81092   0.81387   0.81611   0.81740   0.81998
 Alpha virt. eigenvalues --    0.82266   0.82451   0.82667   0.82998   0.83385
 Alpha virt. eigenvalues --    0.83464   0.83668   0.83936   0.83993   0.84754
 Alpha virt. eigenvalues --    0.84923   0.85111   0.85499   0.85794   0.86185
 Alpha virt. eigenvalues --    0.86420   0.86726   0.86946   0.87236   0.87316
 Alpha virt. eigenvalues --    0.87664   0.87976   0.88174   0.88403   0.88667
 Alpha virt. eigenvalues --    0.89014   0.89329   0.89653   0.89977   0.90155
 Alpha virt. eigenvalues --    0.90357   0.90407   0.90606   0.91044   0.91291
 Alpha virt. eigenvalues --    0.91583   0.91884   0.92123   0.92331   0.92895
 Alpha virt. eigenvalues --    0.92994   0.93313   0.93485   0.93816   0.94055
 Alpha virt. eigenvalues --    0.94466   0.94739   0.94896   0.95150   0.95824
 Alpha virt. eigenvalues --    0.95915   0.96042   0.96092   0.96598   0.96983
 Alpha virt. eigenvalues --    0.97094   0.97329   0.97551   0.98067   0.98365
 Alpha virt. eigenvalues --    0.98627   0.98910   0.99096   0.99217   0.99662
 Alpha virt. eigenvalues --    0.99908   1.00231   1.00403   1.01043   1.01071
 Alpha virt. eigenvalues --    1.01733   1.01913   1.02018   1.02367   1.02694
 Alpha virt. eigenvalues --    1.03022   1.03207   1.03490   1.03929   1.04223
 Alpha virt. eigenvalues --    1.04631   1.04806   1.05309   1.05496   1.05750
 Alpha virt. eigenvalues --    1.05983   1.06565   1.06902   1.06979   1.07211
 Alpha virt. eigenvalues --    1.07505   1.08203   1.08436   1.08717   1.08928
 Alpha virt. eigenvalues --    1.09592   1.09868   1.10234   1.10741   1.10893
 Alpha virt. eigenvalues --    1.10985   1.11507   1.11724   1.11967   1.12058
 Alpha virt. eigenvalues --    1.12382   1.12823   1.13267   1.13453   1.14086
 Alpha virt. eigenvalues --    1.14204   1.14881   1.15253   1.15411   1.15782
 Alpha virt. eigenvalues --    1.16127   1.16526   1.16720   1.17008   1.17326
 Alpha virt. eigenvalues --    1.17714   1.18146   1.18265   1.18519   1.19060
 Alpha virt. eigenvalues --    1.19512   1.20129   1.20430   1.20866   1.21165
 Alpha virt. eigenvalues --    1.21329   1.21742   1.21857   1.22590   1.22965
 Alpha virt. eigenvalues --    1.23169   1.23633   1.23815   1.24154   1.24804
 Alpha virt. eigenvalues --    1.24963   1.25052   1.25855   1.26057   1.26181
 Alpha virt. eigenvalues --    1.26709   1.26918   1.27253   1.27621   1.27999
 Alpha virt. eigenvalues --    1.28759   1.28968   1.29300   1.29651   1.30339
 Alpha virt. eigenvalues --    1.30752   1.31329   1.31580   1.31847   1.31865
 Alpha virt. eigenvalues --    1.32813   1.33090   1.33395   1.34117   1.34277
 Alpha virt. eigenvalues --    1.35099   1.35644   1.36015   1.36292   1.36963
 Alpha virt. eigenvalues --    1.37713   1.37799   1.37860   1.38232   1.38410
 Alpha virt. eigenvalues --    1.38941   1.39065   1.39560   1.39646   1.39996
 Alpha virt. eigenvalues --    1.40184   1.40320   1.40958   1.41196   1.41666
 Alpha virt. eigenvalues --    1.41701   1.42184   1.42362   1.42472   1.42662
 Alpha virt. eigenvalues --    1.43017   1.43270   1.43835   1.44054   1.44439
 Alpha virt. eigenvalues --    1.44664   1.44922   1.45250   1.45401   1.45465
 Alpha virt. eigenvalues --    1.45710   1.46154   1.46312   1.46534   1.46719
 Alpha virt. eigenvalues --    1.47123   1.47434   1.47504   1.47830   1.47986
 Alpha virt. eigenvalues --    1.48109   1.48308   1.48553   1.48900   1.49076
 Alpha virt. eigenvalues --    1.49397   1.49636   1.49821   1.50222   1.50324
 Alpha virt. eigenvalues --    1.50628   1.50706   1.51172   1.51434   1.51507
 Alpha virt. eigenvalues --    1.51989   1.52153   1.52508   1.52739   1.52777
 Alpha virt. eigenvalues --    1.52916   1.53403   1.53679   1.54099   1.54163
 Alpha virt. eigenvalues --    1.54339   1.54615   1.54672   1.55363   1.55518
 Alpha virt. eigenvalues --    1.55574   1.56037   1.56241   1.56381   1.56524
 Alpha virt. eigenvalues --    1.56900   1.57316   1.57441   1.57671   1.57951
 Alpha virt. eigenvalues --    1.58091   1.58386   1.58811   1.58923   1.59006
 Alpha virt. eigenvalues --    1.59316   1.59543   1.59695   1.59918   1.60057
 Alpha virt. eigenvalues --    1.60498   1.60744   1.61055   1.61226   1.61499
 Alpha virt. eigenvalues --    1.62169   1.62316   1.62361   1.62750   1.62947
 Alpha virt. eigenvalues --    1.63102   1.63841   1.64094   1.64244   1.64492
 Alpha virt. eigenvalues --    1.64553   1.64990   1.65247   1.65579   1.65660
 Alpha virt. eigenvalues --    1.66297   1.66440   1.66732   1.67155   1.67221
 Alpha virt. eigenvalues --    1.67575   1.68445   1.68671   1.69490   1.69692
 Alpha virt. eigenvalues --    1.70142   1.70551   1.70997   1.71105   1.71663
 Alpha virt. eigenvalues --    1.72137   1.72361   1.72629   1.73070   1.73635
 Alpha virt. eigenvalues --    1.73951   1.74629   1.74789   1.75193   1.75332
 Alpha virt. eigenvalues --    1.75675   1.76184   1.76861   1.77109   1.77542
 Alpha virt. eigenvalues --    1.78001   1.78232   1.78340   1.78615   1.79123
 Alpha virt. eigenvalues --    1.79490   1.79603   1.79768   1.80090   1.80487
 Alpha virt. eigenvalues --    1.81165   1.81597   1.81857   1.82175   1.82475
 Alpha virt. eigenvalues --    1.82594   1.82926   1.83272   1.83914   1.84115
 Alpha virt. eigenvalues --    1.84503   1.84762   1.85037   1.85218   1.85711
 Alpha virt. eigenvalues --    1.85796   1.86216   1.86373   1.86646   1.87285
 Alpha virt. eigenvalues --    1.87411   1.87616   1.87967   1.88313   1.88419
 Alpha virt. eigenvalues --    1.88601   1.89487   1.89620   1.90122   1.90346
 Alpha virt. eigenvalues --    1.90536   1.90763   1.91100   1.91449   1.91856
 Alpha virt. eigenvalues --    1.91901   1.92213   1.92663   1.93135   1.93412
 Alpha virt. eigenvalues --    1.93716   1.93985   1.94481   1.94886   1.95333
 Alpha virt. eigenvalues --    1.95634   1.95982   1.96456   1.96608   1.97035
 Alpha virt. eigenvalues --    1.97614   1.97841   1.98160   1.98372   1.98726
 Alpha virt. eigenvalues --    1.99138   1.99458   1.99707   2.00004   2.00558
 Alpha virt. eigenvalues --    2.00815   2.01338   2.01499   2.01559   2.01931
 Alpha virt. eigenvalues --    2.02665   2.02774   2.02944   2.03293   2.03517
 Alpha virt. eigenvalues --    2.04006   2.04199   2.04597   2.04933   2.05113
 Alpha virt. eigenvalues --    2.05533   2.05806   2.06013   2.06383   2.06616
 Alpha virt. eigenvalues --    2.06990   2.07227   2.07609   2.07818   2.08450
 Alpha virt. eigenvalues --    2.08935   2.09237   2.09555   2.09704   2.09956
 Alpha virt. eigenvalues --    2.10274   2.10496   2.11137   2.11499   2.11789
 Alpha virt. eigenvalues --    2.12067   2.12157   2.12502   2.13112   2.13332
 Alpha virt. eigenvalues --    2.13813   2.14053   2.14497   2.14787   2.15042
 Alpha virt. eigenvalues --    2.15460   2.15752   2.16103   2.16367   2.16501
 Alpha virt. eigenvalues --    2.17143   2.17598   2.17948   2.18410   2.18717
 Alpha virt. eigenvalues --    2.18973   2.19538   2.19582   2.19760   2.20612
 Alpha virt. eigenvalues --    2.21042   2.21229   2.22289   2.22583   2.22940
 Alpha virt. eigenvalues --    2.23015   2.23482   2.23604   2.24247   2.24479
 Alpha virt. eigenvalues --    2.24882   2.24905   2.25496   2.25864   2.26001
 Alpha virt. eigenvalues --    2.26164   2.26733   2.26948   2.27104   2.27536
 Alpha virt. eigenvalues --    2.27957   2.28177   2.28429   2.28917   2.29515
 Alpha virt. eigenvalues --    2.29796   2.29966   2.30135   2.30564   2.30756
 Alpha virt. eigenvalues --    2.31374   2.31606   2.31765   2.32126   2.32336
 Alpha virt. eigenvalues --    2.32797   2.33285   2.33511   2.33923   2.34335
 Alpha virt. eigenvalues --    2.34799   2.35010   2.35263   2.35630   2.35847
 Alpha virt. eigenvalues --    2.36434   2.36449   2.36748   2.37236   2.37640
 Alpha virt. eigenvalues --    2.37841   2.38275   2.38534   2.38719   2.38794
 Alpha virt. eigenvalues --    2.39158   2.39614   2.39931   2.40752   2.41497
 Alpha virt. eigenvalues --    2.41645   2.41836   2.42458   2.42850   2.43227
 Alpha virt. eigenvalues --    2.43749   2.43849   2.44465   2.45170   2.45313
 Alpha virt. eigenvalues --    2.45772   2.45803   2.45979   2.46655   2.46699
 Alpha virt. eigenvalues --    2.47172   2.47775   2.48131   2.48208   2.48546
 Alpha virt. eigenvalues --    2.48705   2.48903   2.49175   2.49412   2.49519
 Alpha virt. eigenvalues --    2.50086   2.50339   2.50750   2.50915   2.51243
 Alpha virt. eigenvalues --    2.51387   2.51541   2.51665   2.51899   2.52520
 Alpha virt. eigenvalues --    2.53127   2.53147   2.53531   2.53973   2.54339
 Alpha virt. eigenvalues --    2.54725   2.54942   2.55351   2.55450   2.55627
 Alpha virt. eigenvalues --    2.55811   2.56204   2.56684   2.56886   2.57216
 Alpha virt. eigenvalues --    2.57321   2.57566   2.58034   2.58468   2.58700
 Alpha virt. eigenvalues --    2.58862   2.59228   2.59321   2.59567   2.59754
 Alpha virt. eigenvalues --    2.60132   2.60483   2.61183   2.61462   2.62150
 Alpha virt. eigenvalues --    2.62397   2.62804   2.63135   2.63161   2.63496
 Alpha virt. eigenvalues --    2.63631   2.63991   2.64293   2.64719   2.64843
 Alpha virt. eigenvalues --    2.65180   2.65429   2.65773   2.66210   2.66435
 Alpha virt. eigenvalues --    2.66571   2.66712   2.67160   2.67475   2.67988
 Alpha virt. eigenvalues --    2.68063   2.68517   2.68776   2.69131   2.69622
 Alpha virt. eigenvalues --    2.70031   2.70499   2.70655   2.70899   2.71170
 Alpha virt. eigenvalues --    2.71533   2.71591   2.72392   2.72649   2.72842
 Alpha virt. eigenvalues --    2.73050   2.73206   2.73833   2.74044   2.74469
 Alpha virt. eigenvalues --    2.74678   2.74892   2.75385   2.75548   2.75880
 Alpha virt. eigenvalues --    2.76169   2.76626   2.76884   2.77303   2.77485
 Alpha virt. eigenvalues --    2.77741   2.78070   2.78612   2.79007   2.79237
 Alpha virt. eigenvalues --    2.79418   2.79472   2.79880   2.80005   2.80423
 Alpha virt. eigenvalues --    2.81090   2.81245   2.81476   2.81905   2.81960
 Alpha virt. eigenvalues --    2.82276   2.82984   2.83135   2.83283   2.84084
 Alpha virt. eigenvalues --    2.84224   2.84464   2.84700   2.85052   2.85214
 Alpha virt. eigenvalues --    2.85612   2.85788   2.85964   2.86572   2.86966
 Alpha virt. eigenvalues --    2.87188   2.87215   2.87638   2.87882   2.88320
 Alpha virt. eigenvalues --    2.88732   2.88919   2.89333   2.89560   2.89964
 Alpha virt. eigenvalues --    2.90197   2.90797   2.90939   2.91437   2.91789
 Alpha virt. eigenvalues --    2.92039   2.92131   2.92338   2.92897   2.93382
 Alpha virt. eigenvalues --    2.93933   2.94241   2.94822   2.95058   2.95096
 Alpha virt. eigenvalues --    2.95568   2.95709   2.96338   2.96464   2.96495
 Alpha virt. eigenvalues --    2.96858   2.97100   2.97417   2.97691   2.97994
 Alpha virt. eigenvalues --    2.98432   2.98900   2.98946   2.99040   2.99632
 Alpha virt. eigenvalues --    2.99861   3.00194   3.00493   3.00752   3.01008
 Alpha virt. eigenvalues --    3.01135   3.01758   3.02104   3.02339   3.02461
 Alpha virt. eigenvalues --    3.02615   3.03194   3.03551   3.03780   3.04172
 Alpha virt. eigenvalues --    3.04286   3.04478   3.04953   3.05160   3.05422
 Alpha virt. eigenvalues --    3.05708   3.05854   3.06469   3.06652   3.06784
 Alpha virt. eigenvalues --    3.07031   3.07095   3.07427   3.08030   3.08181
 Alpha virt. eigenvalues --    3.08434   3.08579   3.09007   3.09157   3.09509
 Alpha virt. eigenvalues --    3.09676   3.09988   3.10156   3.10449   3.10572
 Alpha virt. eigenvalues --    3.10653   3.11138   3.11478   3.11714   3.11758
 Alpha virt. eigenvalues --    3.12132   3.12537   3.12716   3.13009   3.13197
 Alpha virt. eigenvalues --    3.13305   3.13767   3.14223   3.14375   3.14693
 Alpha virt. eigenvalues --    3.14812   3.15250   3.15258   3.15589   3.15970
 Alpha virt. eigenvalues --    3.16346   3.16421   3.16731   3.17025   3.17198
 Alpha virt. eigenvalues --    3.17429   3.17775   3.18198   3.18518   3.18628
 Alpha virt. eigenvalues --    3.18728   3.18847   3.19180   3.19397   3.19720
 Alpha virt. eigenvalues --    3.19994   3.20140   3.20423   3.20707   3.20952
 Alpha virt. eigenvalues --    3.21180   3.21392   3.21450   3.22102   3.22419
 Alpha virt. eigenvalues --    3.22620   3.22754   3.22892   3.23565   3.23676
 Alpha virt. eigenvalues --    3.23902   3.24212   3.24424   3.24649   3.24951
 Alpha virt. eigenvalues --    3.24998   3.25217   3.25346   3.25494   3.25964
 Alpha virt. eigenvalues --    3.26566   3.26702   3.26825   3.27126   3.27574
 Alpha virt. eigenvalues --    3.27715   3.27805   3.27970   3.28113   3.28468
 Alpha virt. eigenvalues --    3.28669   3.28699   3.28996   3.29055   3.29619
 Alpha virt. eigenvalues --    3.29724   3.30074   3.30302   3.30564   3.30889
 Alpha virt. eigenvalues --    3.31114   3.31563   3.31655   3.32014   3.32411
 Alpha virt. eigenvalues --    3.32495   3.32658   3.32804   3.33039   3.33078
 Alpha virt. eigenvalues --    3.33684   3.33963   3.34231   3.34566   3.34804
 Alpha virt. eigenvalues --    3.35054   3.35321   3.35607   3.36019   3.36263
 Alpha virt. eigenvalues --    3.36432   3.36967   3.37166   3.37443   3.37719
 Alpha virt. eigenvalues --    3.37827   3.38006   3.38237   3.38612   3.39022
 Alpha virt. eigenvalues --    3.39187   3.39570   3.39730   3.39839   3.40310
 Alpha virt. eigenvalues --    3.40401   3.40640   3.41161   3.41245   3.41523
 Alpha virt. eigenvalues --    3.41776   3.42246   3.42499   3.42748   3.42871
 Alpha virt. eigenvalues --    3.43156   3.43247   3.43661   3.44100   3.44315
 Alpha virt. eigenvalues --    3.44687   3.44895   3.45213   3.45678   3.45795
 Alpha virt. eigenvalues --    3.46358   3.46688   3.46873   3.47689   3.47902
 Alpha virt. eigenvalues --    3.48344   3.48612   3.48702   3.48973   3.49216
 Alpha virt. eigenvalues --    3.50009   3.50123   3.50442   3.50877   3.50981
 Alpha virt. eigenvalues --    3.51523   3.51979   3.52525   3.52761   3.52986
 Alpha virt. eigenvalues --    3.53374   3.53743   3.54378   3.54665   3.55080
 Alpha virt. eigenvalues --    3.55157   3.55320   3.55728   3.56331   3.56562
 Alpha virt. eigenvalues --    3.57389   3.57747   3.57989   3.58352   3.58472
 Alpha virt. eigenvalues --    3.59449   3.59934   3.60027   3.60089   3.60760
 Alpha virt. eigenvalues --    3.61146   3.61335   3.61915   3.62063   3.62423
 Alpha virt. eigenvalues --    3.62959   3.63084   3.63540   3.63852   3.63976
 Alpha virt. eigenvalues --    3.64320   3.64682   3.64996   3.65193   3.65325
 Alpha virt. eigenvalues --    3.65877   3.66126   3.66687   3.67256   3.67448
 Alpha virt. eigenvalues --    3.67669   3.67815   3.68597   3.68946   3.69220
 Alpha virt. eigenvalues --    3.69746   3.70104   3.70438   3.70734   3.71373
 Alpha virt. eigenvalues --    3.71711   3.72135   3.72928   3.73623   3.73826
 Alpha virt. eigenvalues --    3.74099   3.74844   3.75224   3.75719   3.76136
 Alpha virt. eigenvalues --    3.76263   3.76722   3.76826   3.77123   3.77449
 Alpha virt. eigenvalues --    3.78104   3.78735   3.78980   3.79429   3.79487
 Alpha virt. eigenvalues --    3.79686   3.80083   3.80422   3.80489   3.81438
 Alpha virt. eigenvalues --    3.82023   3.82396   3.83004   3.83461   3.83604
 Alpha virt. eigenvalues --    3.84074   3.84466   3.84974   3.85262   3.85951
 Alpha virt. eigenvalues --    3.86217   3.86702   3.87030   3.87607   3.87740
 Alpha virt. eigenvalues --    3.87967   3.88247   3.88788   3.89388   3.89801
 Alpha virt. eigenvalues --    3.90237   3.90569   3.91144   3.91667   3.91974
 Alpha virt. eigenvalues --    3.92269   3.92846   3.93753   3.94229   3.94701
 Alpha virt. eigenvalues --    3.94959   3.95052   3.95665   3.95886   3.96863
 Alpha virt. eigenvalues --    3.97437   3.97837   3.98689   3.99522   3.99778
 Alpha virt. eigenvalues --    4.00276   4.00990   4.01135   4.01623   4.02903
 Alpha virt. eigenvalues --    4.03200   4.03538   4.03983   4.04410   4.04716
 Alpha virt. eigenvalues --    4.05081   4.06138   4.06491   4.06886   4.08306
 Alpha virt. eigenvalues --    4.08955   4.09566   4.09787   4.10181   4.10944
 Alpha virt. eigenvalues --    4.11187   4.11686   4.12290   4.12645   4.13088
 Alpha virt. eigenvalues --    4.13823   4.14769   4.14866   4.15146   4.15577
 Alpha virt. eigenvalues --    4.15909   4.16905   4.17258   4.17795   4.18371
 Alpha virt. eigenvalues --    4.19067   4.19187   4.20098   4.20660   4.20956
 Alpha virt. eigenvalues --    4.21243   4.22068   4.23181   4.23455   4.23961
 Alpha virt. eigenvalues --    4.24729   4.25856   4.25941   4.26806   4.27198
 Alpha virt. eigenvalues --    4.27353   4.28088   4.28422   4.28588   4.28996
 Alpha virt. eigenvalues --    4.29293   4.29338   4.29939   4.30620   4.30772
 Alpha virt. eigenvalues --    4.31141   4.31699   4.32327   4.32588   4.32653
 Alpha virt. eigenvalues --    4.33142   4.33623   4.34432   4.34785   4.34955
 Alpha virt. eigenvalues --    4.35329   4.36124   4.36493   4.37135   4.37585
 Alpha virt. eigenvalues --    4.38114   4.38779   4.39297   4.39742   4.40365
 Alpha virt. eigenvalues --    4.40632   4.40956   4.41845   4.42365   4.42952
 Alpha virt. eigenvalues --    4.43314   4.43785   4.44539   4.45409   4.45726
 Alpha virt. eigenvalues --    4.45952   4.47259   4.47963   4.48997   4.49432
 Alpha virt. eigenvalues --    4.49921   4.50710   4.50997   4.51304   4.51931
 Alpha virt. eigenvalues --    4.52152   4.52495   4.53555   4.54099   4.54365
 Alpha virt. eigenvalues --    4.55507   4.55947   4.56519   4.56758   4.57596
 Alpha virt. eigenvalues --    4.58483   4.59213   4.59516   4.61275   4.61839
 Alpha virt. eigenvalues --    4.62805   4.63177   4.63655   4.64454   4.65346
 Alpha virt. eigenvalues --    4.66164   4.66210   4.66871   4.67212   4.68093
 Alpha virt. eigenvalues --    4.68770   4.69326   4.70621   4.71444   4.72280
 Alpha virt. eigenvalues --    4.72676   4.73414   4.73819   4.73930   4.74732
 Alpha virt. eigenvalues --    4.75321   4.76045   4.76243   4.76442   4.77925
 Alpha virt. eigenvalues --    4.78434   4.78775   4.79573   4.79950   4.81261
 Alpha virt. eigenvalues --    4.81724   4.82335   4.84197   4.84519   4.85767
 Alpha virt. eigenvalues --    4.86230   4.86369   4.87094   4.87180   4.88355
 Alpha virt. eigenvalues --    4.88891   4.89261   4.89937   4.90648   4.91177
 Alpha virt. eigenvalues --    4.91975   4.93679   4.94218   4.94847   4.95976
 Alpha virt. eigenvalues --    4.96940   4.97454   4.98167   5.00318   5.00810
 Alpha virt. eigenvalues --    5.01441   5.02877   5.03446   5.03810   5.05387
 Alpha virt. eigenvalues --    5.05565   5.07730   5.08866   5.09386   5.09999
 Alpha virt. eigenvalues --    5.10069   5.10808   5.11816   5.12900   5.13234
 Alpha virt. eigenvalues --    5.14064   5.14752   5.14907   5.15292   5.15687
 Alpha virt. eigenvalues --    5.17180   5.17913   5.17977   5.19664   5.21353
 Alpha virt. eigenvalues --    5.21760   5.22540   5.24558   5.24895   5.25572
 Alpha virt. eigenvalues --    5.25892   5.26661   5.27562   5.27781   5.30606
 Alpha virt. eigenvalues --    5.31841   5.33276   5.34115   5.34721   5.35641
 Alpha virt. eigenvalues --    5.37717   5.37858   5.39480   5.40770   5.40941
 Alpha virt. eigenvalues --    5.41288   5.42074   5.44036   5.45093   5.46858
 Alpha virt. eigenvalues --    5.47588   5.48340   5.49535   5.50359   5.51565
 Alpha virt. eigenvalues --    5.51776   5.52561   5.53127   5.53918   5.55337
 Alpha virt. eigenvalues --    5.56025   5.56365   5.57141   5.60103   5.62243
 Alpha virt. eigenvalues --    5.64383   5.66843   5.68264   5.71052   5.71578
 Alpha virt. eigenvalues --    5.72836   5.73578   5.74966   5.78956   5.79869
 Alpha virt. eigenvalues --    5.82906   5.84508   5.86768   5.88074   5.89693
 Alpha virt. eigenvalues --    5.90676   5.91689   5.96081   5.96886   5.99884
 Alpha virt. eigenvalues --    6.00164   6.00721   6.03341   6.04748   6.05693
 Alpha virt. eigenvalues --    6.06582   6.09410   6.09575   6.10855   6.15182
 Alpha virt. eigenvalues --    6.16599   6.18727   6.23498   6.23586   6.24235
 Alpha virt. eigenvalues --    6.27171   6.28253   6.34759   6.35633   6.37791
 Alpha virt. eigenvalues --    6.39609   6.44161   6.46189   6.56833   6.60759
 Alpha virt. eigenvalues --    6.66693   6.66964   6.73761   6.77177   6.82467
 Alpha virt. eigenvalues --    6.84106   6.94126   6.95629   7.04661   7.05932
 Alpha virt. eigenvalues --    7.17149   7.17584   7.24423   7.28148   9.23509
 Alpha virt. eigenvalues --    9.45420   9.57713  20.33269  22.25074  22.32440
 Alpha virt. eigenvalues --   22.39357  22.39604  22.39861  22.42385  22.42800
 Alpha virt. eigenvalues --   22.42926  22.44410  22.50983  22.51703  22.53780
 Alpha virt. eigenvalues --   22.55319  22.58771  22.64114  22.66362  22.74695
 Alpha virt. eigenvalues --   22.78230  22.79413  22.81375  22.85730  22.90988
 Alpha virt. eigenvalues --   22.92119  23.01385  23.08234  23.09309  23.12525
 Alpha virt. eigenvalues --   23.17086  23.20922  23.26118  23.30106  23.33259
 Alpha virt. eigenvalues --   23.40272  23.42138  23.44914  23.48544  23.52936
 Alpha virt. eigenvalues --   23.56129  23.61896  23.65803  23.79314  32.43233
 Alpha virt. eigenvalues --   32.79478  32.83720  32.93314  32.96353  33.07742
 Alpha virt. eigenvalues --   43.86185  43.86901  43.87953  43.88641
  Beta  occ. eigenvalues -- -256.51329 -89.10968 -30.25893 -26.10402 -26.09240
  Beta  occ. eigenvalues --  -26.06946 -19.34251 -19.33787 -19.24804 -19.24652
  Beta  occ. eigenvalues --  -14.54860 -14.49320 -14.49286 -14.49094 -14.48799
  Beta  occ. eigenvalues --  -14.48190 -10.42477 -10.42427 -10.37386 -10.35999
  Beta  occ. eigenvalues --  -10.35975 -10.35632 -10.35551 -10.35546 -10.35419
  Beta  occ. eigenvalues --  -10.35360 -10.35158 -10.34906 -10.33455 -10.33365
  Beta  occ. eigenvalues --  -10.33006 -10.32882 -10.32595 -10.32562 -10.32544
  Beta  occ. eigenvalues --  -10.32466 -10.32421 -10.32351 -10.32341 -10.32265
  Beta  occ. eigenvalues --  -10.32084 -10.31995 -10.31923 -10.31737 -10.31447
  Beta  occ. eigenvalues --  -10.31431 -10.31245 -10.31077 -10.30635 -10.30530
  Beta  occ. eigenvalues --  -10.30459 -10.30444 -10.30382 -10.29939 -10.29359
  Beta  occ. eigenvalues --  -10.29181 -10.29104  -8.09141  -6.02787  -6.02453
  Beta  occ. eigenvalues --   -6.01921  -3.56413  -2.32899  -2.32331  -2.28109
  Beta  occ. eigenvalues --   -1.25124  -1.23934  -1.18324  -1.09837  -1.09515
  Beta  occ. eigenvalues --   -1.09157  -1.08755  -1.08584  -1.07125  -1.01611
  Beta  occ. eigenvalues --   -0.94624  -0.94474  -0.93149  -0.92915  -0.92182
  Beta  occ. eigenvalues --   -0.91741  -0.91096  -0.90848  -0.90548  -0.88284
  Beta  occ. eigenvalues --   -0.87565  -0.86010  -0.85576  -0.85320  -0.84369
  Beta  occ. eigenvalues --   -0.83259  -0.82191  -0.81640  -0.81184  -0.80909
  Beta  occ. eigenvalues --   -0.79690  -0.79496  -0.78816  -0.76851  -0.76645
  Beta  occ. eigenvalues --   -0.75995  -0.75820  -0.73073  -0.72895  -0.72436
  Beta  occ. eigenvalues --   -0.71280  -0.70923  -0.69621  -0.69498  -0.68309
  Beta  occ. eigenvalues --   -0.66403  -0.65940  -0.65065  -0.64380  -0.63691
  Beta  occ. eigenvalues --   -0.62917  -0.61933  -0.61556  -0.60063  -0.59985
  Beta  occ. eigenvalues --   -0.59176  -0.58973  -0.58743  -0.58682  -0.58447
  Beta  occ. eigenvalues --   -0.58424  -0.58056  -0.57406  -0.57126  -0.56713
  Beta  occ. eigenvalues --   -0.56179  -0.55573  -0.55175  -0.54810  -0.54573
  Beta  occ. eigenvalues --   -0.54204  -0.53964  -0.53678  -0.53632  -0.53555
  Beta  occ. eigenvalues --   -0.53477  -0.53220  -0.52993  -0.52733  -0.52297
  Beta  occ. eigenvalues --   -0.52069  -0.51927  -0.51860  -0.51798  -0.51225
  Beta  occ. eigenvalues --   -0.51042  -0.50875  -0.50753  -0.50474  -0.50158
  Beta  occ. eigenvalues --   -0.49843  -0.49750  -0.49518  -0.49334  -0.49058
  Beta  occ. eigenvalues --   -0.48785  -0.48491  -0.48159  -0.47898  -0.47818
  Beta  occ. eigenvalues --   -0.47678  -0.47235  -0.47114  -0.46884  -0.46693
  Beta  occ. eigenvalues --   -0.46519  -0.46334  -0.46159  -0.45719  -0.45292
  Beta  occ. eigenvalues --   -0.45135  -0.44965  -0.44753  -0.44334  -0.43971
  Beta  occ. eigenvalues --   -0.43702  -0.43327  -0.43103  -0.42995  -0.42817
  Beta  occ. eigenvalues --   -0.42172  -0.41408  -0.39733  -0.39709  -0.39355
  Beta  occ. eigenvalues --   -0.37971  -0.37378  -0.36082  -0.35235  -0.34981
  Beta  occ. eigenvalues --   -0.34691  -0.34423  -0.33957  -0.32979  -0.32263
  Beta  occ. eigenvalues --   -0.29774  -0.29380
  Beta virt. eigenvalues --   -0.19615  -0.18066  -0.17575  -0.15673  -0.13463
  Beta virt. eigenvalues --   -0.13072  -0.12085  -0.10410  -0.08073  -0.07322
  Beta virt. eigenvalues --   -0.07088  -0.06447  -0.06321  -0.05582  -0.05284
  Beta virt. eigenvalues --   -0.04870  -0.04640  -0.04424  -0.03617  -0.03591
  Beta virt. eigenvalues --   -0.03309  -0.02767  -0.02444  -0.02134  -0.02041
  Beta virt. eigenvalues --   -0.01776  -0.01642  -0.01325  -0.01035  -0.00733
  Beta virt. eigenvalues --   -0.00484  -0.00357   0.00128   0.00333   0.00573
  Beta virt. eigenvalues --    0.00716   0.01084   0.01497   0.01792   0.02097
  Beta virt. eigenvalues --    0.02310   0.02453   0.02720   0.02815   0.03269
  Beta virt. eigenvalues --    0.03390   0.03746   0.04059   0.04088   0.04253
  Beta virt. eigenvalues --    0.04455   0.04640   0.04707   0.04836   0.05031
  Beta virt. eigenvalues --    0.05307   0.05492   0.05743   0.06002   0.06165
  Beta virt. eigenvalues --    0.06243   0.06488   0.06732   0.06734   0.07003
  Beta virt. eigenvalues --    0.07275   0.07305   0.07543   0.07773   0.07842
  Beta virt. eigenvalues --    0.08012   0.08129   0.08202   0.08570   0.08592
  Beta virt. eigenvalues --    0.08790   0.09271   0.09337   0.09387   0.09762
  Beta virt. eigenvalues --    0.10060   0.10143   0.10442   0.10950   0.11095
  Beta virt. eigenvalues --    0.11244   0.11575   0.11653   0.11734   0.12069
  Beta virt. eigenvalues --    0.12161   0.12398   0.12651   0.12737   0.13238
  Beta virt. eigenvalues --    0.13425   0.13480   0.13595   0.13830   0.14070
  Beta virt. eigenvalues --    0.14250   0.14537   0.14652   0.14884   0.14941
  Beta virt. eigenvalues --    0.15149   0.15301   0.15470   0.15572   0.15854
  Beta virt. eigenvalues --    0.16044   0.16376   0.16585   0.16787   0.16857
  Beta virt. eigenvalues --    0.16910   0.17324   0.17438   0.17568   0.17811
  Beta virt. eigenvalues --    0.18148   0.18209   0.18641   0.18832   0.19063
  Beta virt. eigenvalues --    0.19309   0.19467   0.19532   0.19644   0.19957
  Beta virt. eigenvalues --    0.20131   0.20232   0.20474   0.20761   0.20871
  Beta virt. eigenvalues --    0.21545   0.21694   0.21881   0.22149   0.22368
  Beta virt. eigenvalues --    0.22402   0.22713   0.22808   0.22976   0.23414
  Beta virt. eigenvalues --    0.23651   0.23796   0.23958   0.24222   0.24347
  Beta virt. eigenvalues --    0.24553   0.24673   0.25204   0.25493   0.25531
  Beta virt. eigenvalues --    0.25753   0.26017   0.26115   0.26641   0.26846
  Beta virt. eigenvalues --    0.27185   0.27361   0.27684   0.27894   0.27995
  Beta virt. eigenvalues --    0.28183   0.28223   0.28632   0.28742   0.29088
  Beta virt. eigenvalues --    0.29296   0.29379   0.29612   0.29832   0.30169
  Beta virt. eigenvalues --    0.30181   0.30428   0.30696   0.30922   0.31113
  Beta virt. eigenvalues --    0.31355   0.31434   0.31761   0.31841   0.31969
  Beta virt. eigenvalues --    0.32253   0.32445   0.32575   0.32664   0.33109
  Beta virt. eigenvalues --    0.33236   0.33412   0.33590   0.33735   0.33860
  Beta virt. eigenvalues --    0.33994   0.34269   0.34533   0.34638   0.35133
  Beta virt. eigenvalues --    0.35247   0.35285   0.35428   0.35507   0.35769
  Beta virt. eigenvalues --    0.36014   0.36200   0.36347   0.36553   0.36673
  Beta virt. eigenvalues --    0.36832   0.37019   0.37084   0.37284   0.37494
  Beta virt. eigenvalues --    0.37643   0.37809   0.38056   0.38108   0.38225
  Beta virt. eigenvalues --    0.38321   0.38509   0.38676   0.38746   0.39019
  Beta virt. eigenvalues --    0.39083   0.39218   0.39615   0.39870   0.40036
  Beta virt. eigenvalues --    0.40080   0.40351   0.40454   0.40715   0.40805
  Beta virt. eigenvalues --    0.40936   0.41054   0.41231   0.41301   0.41505
  Beta virt. eigenvalues --    0.41679   0.41829   0.42039   0.42191   0.42251
  Beta virt. eigenvalues --    0.42447   0.42602   0.42683   0.42801   0.43172
  Beta virt. eigenvalues --    0.43253   0.43390   0.43634   0.43911   0.43949
  Beta virt. eigenvalues --    0.44069   0.44281   0.44462   0.44637   0.44743
  Beta virt. eigenvalues --    0.44918   0.45097   0.45378   0.45452   0.45794
  Beta virt. eigenvalues --    0.45913   0.46272   0.46323   0.46416   0.46767
  Beta virt. eigenvalues --    0.46979   0.47184   0.47437   0.47582   0.47691
  Beta virt. eigenvalues --    0.47966   0.48272   0.48478   0.48718   0.48744
  Beta virt. eigenvalues --    0.49118   0.49317   0.49387   0.49779   0.49900
  Beta virt. eigenvalues --    0.50074   0.50600   0.50849   0.50949   0.51133
  Beta virt. eigenvalues --    0.51255   0.51630   0.51660   0.51836   0.52063
  Beta virt. eigenvalues --    0.52211   0.52495   0.52722   0.52776   0.53088
  Beta virt. eigenvalues --    0.53313   0.53636   0.53862   0.54213   0.54361
  Beta virt. eigenvalues --    0.54560   0.54812   0.55278   0.55454   0.55563
  Beta virt. eigenvalues --    0.55880   0.56288   0.56352   0.56652   0.56783
  Beta virt. eigenvalues --    0.57395   0.57551   0.58254   0.58432   0.58591
  Beta virt. eigenvalues --    0.58812   0.59113   0.59241   0.59509   0.59800
  Beta virt. eigenvalues --    0.59959   0.60282   0.60583   0.60867   0.61260
  Beta virt. eigenvalues --    0.61548   0.61747   0.61971   0.62306   0.62759
  Beta virt. eigenvalues --    0.62901   0.63206   0.63499   0.63786   0.64249
  Beta virt. eigenvalues --    0.64275   0.64645   0.65029   0.65111   0.65409
  Beta virt. eigenvalues --    0.65678   0.66086   0.66405   0.66639   0.66832
  Beta virt. eigenvalues --    0.67055   0.67434   0.67636   0.68081   0.68150
[...]
  1733. RY*(   1) H  83                  0.00033     1.16092   
  1734. RY*(   2) H  83                  0.00006     2.10707   
  1735. RY*(   3) H  83                  0.00004     1.71386   
  1736. RY*(   4) H  83                  0.00005     2.27603   
  1737. RY*(   5) H  83                  0.00001     2.97349   
  1738. RY*(   1) H  84                  0.00035     1.28880   
  1739. RY*(   2) H  84                  0.00007     2.22260   
  1740. RY*(   3) H  84                  0.00004     1.56311   
  1741. RY*(   4) H  84                  0.00005     2.25965   
  1742. RY*(   5) H  84                  0.00001     2.97849   
  1743. RY*(   1) H  85                  0.00076     0.77697   
  1744. RY*(   2) H  85                  0.00029     2.04022   
  1745. RY*(   3) H  85                  0.00022     1.74868   
  1746. RY*(   4) H  85                  0.00011     2.07100   
  1747. RY*(   5) H  85                  0.00000     3.22099   
  1748. RY*(   1) H  86                  0.00088     0.60472   
  1749. RY*(   2) H  86                  0.00013     2.18730   
  1750. RY*(   3) H  86                  0.00012     2.17280   
  1751. RY*(   4) H  86                  0.00006     2.95237   
  1752. RY*(   5) H  86                  0.00000     3.11813   
  1753. RY*(   1) H  87                  0.00033     1.63819   
  1754. RY*(   2) H  87                  0.00008     2.63838   
  1755. RY*(   3) H  87                  0.00004     1.50528   
  1756. RY*(   4) H  87                  0.00005     2.39857   
  1757. RY*(   5) H  87                  0.00000     2.78535   
  1758. RY*(   1) H  88                  0.00032     1.73943   
  1759. RY*(   2) H  88                  0.00007     2.70763   
  1760. RY*(   3) H  88                  0.00006     2.30915   
  1761. RY*(   4) H  88                  0.00003     1.26920   
  1762. RY*(   5) H  88                  0.00001     2.88293   
  1763. RY*(   1) H  89                  0.00036     1.33645   
  1764. RY*(   2) H  89                  0.00007     1.75021   
  1765. RY*(   3) H  89                  0.00005     2.31447   
  1766. RY*(   4) H  89                  0.00003     2.15640   
  1767. RY*(   5) H  89                  0.00001     3.04588   
  1768. RY*(   1) H  90                  0.00030     1.45069   
  1769. RY*(   2) H  90                  0.00008     1.90084   
  1770. RY*(   3) H  90                  0.00004     1.78222   
  1771. RY*(   4) H  90                  0.00005     2.35252   
  1772. RY*(   5) H  90                  0.00000     3.01053   
  1773. RY*(   1) H  91                  0.00065     0.76416   
  1774. RY*(   2) H  91                  0.00031     2.00937   
  1775. RY*(   3) H  91                  0.00022     1.78579   
  1776. RY*(   4) H  91                  0.00012     2.10040   
  1777. RY*(   5) H  91                  0.00000     3.20838   
  1778. RY*(   1) H  92                  0.00028     1.04547   
  1779. RY*(   2) H  92                  0.00007     1.66325   
  1780. RY*(   3) H  92                  0.00004     2.06506   
  1781. RY*(   4) H  92                  0.00001     1.76377   
  1782. RY*(   5) H  92                  0.00000     2.92386   
  1783. RY*(   1) H  93                  0.00019     1.24533   
  1784. RY*(   2) H  93                  0.00009     1.82447   
  1785. RY*(   3) H  93                  0.00004     2.06214   
  1786. RY*(   4) H  93                  0.00002     1.71922   
  1787. RY*(   5) H  93                  0.00000     2.78896   
  1788. RY*(   1) H  94                  0.00025     1.07095   
  1789. RY*(   2) H  94                  0.00008     1.78611   
  1790. RY*(   3) H  94                  0.00003     2.09880   
  1791. RY*(   4) H  94                  0.00002     1.79459   
  1792. RY*(   5) H  94                  0.00000     2.83104   
  1793. RY*(   1) H  95                  0.00073     0.60215   
  1794. RY*(   2) H  95                  0.00013     2.17120   
  1795. RY*(   3) H  95                  0.00010     2.15751   
  1796. RY*(   4) H  95                  0.00004     3.07787   
  1797. RY*(   5) H  95                  0.00000     3.09961   
  1798. RY*(   1) H  96                  0.00039     0.58402   
  1799. RY*(   2) H  96                  0.00014     2.33211   
  1800. RY*(   3) H  96                  0.00009     2.18627   
  1801. RY*(   4) H  96                  0.00001     3.05997   
  1802. RY*(   5) H  96                  0.00002     2.55727   
  1803. RY*(   1) H  97                  0.00030     2.10449   
  1804. RY*(   2) H  97                  0.00019     2.11077   
  1805. RY*(   3) H  97                  0.00010     2.10927   
  1806. RY*(   4) H  97                  0.00008     1.54667   
  1807. RY*(   5) H  97                  0.00000     3.07135   
  1808. RY*(   1) H  98                  0.00021     0.72485   
  1809. RY*(   2) H  98                  0.00015     2.27474   
  1810. RY*(   3) H  98                  0.00012     2.05141   
  1811. RY*(   4) H  98                  0.00003     2.64044   
  1812. RY*(   5) H  98                  0.00000     3.06700   
  1813. RY*(   1) H  99                  0.00030     0.90487   
  1814. RY*(   2) H  99                  0.00008     1.71950   
  1815. RY*(   3) H  99                  0.00003     1.80668   
  1816. RY*(   4) H  99                  0.00003     2.04929   
  1817. RY*(   5) H  99                  0.00000     2.84007   
  1818. RY*(   1) H 100                  0.00014     1.07345   
  1819. RY*(   2) H 100                  0.00008     1.79312   
  1820. RY*(   3) H 100                  0.00003     2.00356   
  1821. RY*(   4) H 100                  0.00002     1.61267   
  1822. RY*(   5) H 100                  0.00000     2.89307   
  1823. RY*(   1) H 101                  0.00040     0.82649   
  1824. RY*(   2) H 101                  0.00008     1.67200   
  1825. RY*(   3) H 101                  0.00003     1.95557   
  1826. RY*(   4) H 101                  0.00003     0.98060   
  1827. RY*(   5) H 101                  0.00000     3.00286   
  1828. BD*(   1) C   1 - C   2          0.00659     0.29101   
  1829. BD*(   1) C   1 - H  99          0.00327     0.31084   
  1830. BD*(   1) C   1 - H 100          0.00188     0.31800   
  1831. BD*(   1) C   1 - H 101          0.00559     0.31753   
  1832. BD*(   1) C   2 - N   3          0.01411     0.36616   
  1833. BD*(   2) C   2 - N   3          0.37906    -0.13681  1838(v),189(v),1831(v)
                                                    260(g),235(g),1829(v),208(v)
                                                    1827(r),1950(r),240(g)
  1834. BD*(   1) C   2 - C   4          0.01007     0.45114   
  1835. BD*(   1) N   3 - C   5          0.00836     0.51621   
  1836. BD*(   1) N   3 - H  97          0.00891     0.27866   
  1837. BD*(   1) C   4 - N   6          0.00815     0.40900   
  1838. BD*(   2) C   4 - N   6          0.30829    -0.10353  1833(v),189(v),1931(r)
                                                    286(g),287(g),1913(r),338(g)
  1839. BD*(   1) C   4 - H  98          0.00663     0.33159   
  1840. BD*(   1) C   5 - N   6          0.01083     0.37237   
  1841. BD*(   1) C   5 - H  96          0.00844     0.29441   
  1842. BD*(   1) N   6 -Fe  11          0.02927     0.28899   
  1843. BD*(   1) C   7 - C   8          0.00549     0.24187   
  1844. BD*(   1) C   7 - H  57          0.00379     0.34504   
  1845. BD*(   1) C   7 - H  58          0.00274     0.32982   
  1846. BD*(   1) C   7 - H  59          0.00342     0.32978   
  1847. BD*(   1) C   8 - S   9          0.01145     0.15750   
  1848. BD*(   1) C   8 - H  60          0.00877     0.30381   
  1849. BD*(   1) C   8 - H  61          0.01285     0.31102   
  1850. BD*(   1) S   9 - C  10          0.00825     0.09217   
  1851. BD*(   1) S   9 -Fe  11          0.02451     0.26843   
  1852. BD*(   1) C  10 - H  54          0.00391     0.30920   
  1853. BD*(   1) C  10 - H  55          0.00477     0.30657   
  1854. BD*(   1) C  10 - H  56          0.00827     0.32380   
  1855. BD*(   1)Fe  11 - N  16          0.03205     0.31580   
  1856. BD*(   1)Fe  11 - N  27          0.03122     0.29717   
  1857. BD*(   1)Fe  11 - N  35          0.02922     0.29214   
  1858. BD*(   1)Fe  11 - N  43          0.03180     0.29366   
  1859. BD*(   1) C  12 - C  17          0.01167     0.46634   
  1860. BD*(   2) C  12 - C  17          0.21067    -0.06099  1931(v),1878(v),497(g)
                                                    1864(r),631(g)
  1861. BD*(   1) C  12 - C  47          0.01078     0.48385   
  1862. BD*(   1) C  12 - H  86          0.00693     0.35168   
  1863. BD*(   1) C  13 - C  20          0.00979     0.53839   
  1864. BD*(   2) C  13 - C  20          0.16878    -0.04465  1878(v),1896(v),523(g)
                                                    1860(r),705(g),708(g)
  1865. BD*(   1) C  13 - C  28          0.00987     0.45970   
  1866. BD*(   1) C  13 - H  77          0.00795     0.34414   
  1867. BD*(   1) C  14 - C  31          0.01049     0.43410   
  1868. BD*(   1) C  14 - C  36          0.01287     0.36852   
  1869. BD*(   1) C  14 - H  69          0.00440     0.36095   
  1870. BD*(   1) C  15 - C  39          0.01073     0.50414   
  1871. BD*(   1) C  15 - C  44          0.01151     0.53594   
  1872. BD*(   2) C  15 - C  44          0.18265    -0.04102  1934(v),202(v),1931(v)
                                                    1332(g),576(g),575(g)
  1873. BD*(   1) C  15 - H  95          0.00762     0.34826   
  1874. BD*(   1) N  16 - C  17          0.01257     0.42002   
  1875. BD*(   1) N  16 - C  20          0.02078     0.24863   
  1876. BD*(   1) C  17 - C  18          0.01973     0.34673   
  1877. BD*(   1) C  18 - C  19          0.01044     0.53881   
  1878. BD*(   2) C  18 - C  19          0.11065    -0.02465  1864(v),1860(v),1885(v)
                                                    1883(v)
  1879. BD*(   1) C  18 - C  22          0.00980     0.31875   
  1880. BD*(   1) C  19 - C  20          0.01373     0.44699   
  1881. BD*(   1) C  19 - C  21          0.01079     0.23690   
  1882. BD*(   1) C  21 - H  78          0.00182     0.32801   
  1883. BD*(   1) C  21 - H  79          0.00337     0.32583   
  1884. BD*(   1) C  21 - H  80          0.00217     0.32327   
  1885. BD*(   1) C  22 - C  23          0.00719     0.24294   
  1886. BD*(   1) C  22 - H  81          0.00607     0.33745   
  1887. BD*(   1) C  22 - H  82          0.00581     0.33023   
  1888. BD*(   1) C  23 - C  24          0.03722     0.26523   
  1889. BD*(   1) C  23 - H  83          0.00536     0.30938   
  1890. BD*(   1) C  23 - H  84          0.00556     0.30895   
  1891. BD*(   1) C  24 - O  25          0.03460     0.44544   
  1892. BD*(   1) C  24 - O  26          0.01656     0.48301   
  1893. BD*(   2) C  24 - O  26          0.12292    -0.06934  1890(v),1889(v),810(g)
                                                    821(g)
  1894. BD*(   1) O  25 - H  85          0.00732     0.31211   
  1895. BD*(   1) N  27 - C  28          0.01583     0.35829   
  1896. BD*(   2) N  27 - C  28          0.33451    -0.11409  1864(v),1900(v),192(v)
                                                    913(g),886(g),193(v),915(g)
                                                    890(g),1865(g)
  1897. BD*(   1) N  27 - C  31          0.01436     0.42511   
  1898. BD*(   1) C  28 - C  29          0.01447     0.37088   
  1899. BD*(   1) C  29 - C  30          0.00855     0.50812   
  1900. BD*(   2) C  29 - C  30          0.12278    -0.03006  1896(v),1907(v),1908(v)
                                                    1906(v),1905(v)
  1901. BD*(   1) C  29 - C  32          0.00949     0.24752   
  1902. BD*(   1) C  30 - C  31          0.01628     0.39734   
  1903. BD*(   1) C  30 - C  33          0.00967     0.33518   
  1904. BD*(   1) C  32 - H  74          0.00187     0.33081   
  1905. BD*(   1) C  32 - H  75          0.00321     0.32875   
  1906. BD*(   1) C  32 - H  76          0.00310     0.33020   
  1907. BD*(   1) C  33 - C  34          0.00337     0.28712   
  1908. BD*(   1) C  33 - H  73          0.00664     0.36411   
  1909. BD*(   1) C  34 - H  70          0.00232     0.33020   
  1910. BD*(   1) C  34 - H  71          0.00079     0.32865   
  1911. BD*(   1) C  34 - H  72          0.00186     0.33276   
  1912. BD*(   1) N  35 - C  36          0.01297     0.39085   
  1913. BD*(   2) N  35 - C  36          0.32535    -0.10624  194(v),1917(v),202(v),192(v)
                                                    1121(g),1094(g),1838(r)
                                                    1098(g),1122(g),1851(v)
  1914. BD*(   1) N  35 - C  39          0.01641     0.37673   
  1915. BD*(   1) C  36 - C  37          0.01636     0.42772   
  1916. BD*(   1) C  37 - C  38          0.01016     0.51137   
  1917. BD*(   2) C  37 - C  38          0.13278    -0.03195  1913(v),203(v),202(v)
                                                    1922(v),1921(v)
  1918. BD*(   1) C  37 - C  40          0.00829     0.31148   
  1919. BD*(   1) C  38 - C  39          0.01480     0.36769   
  1920. BD*(   1) C  38 - C  41          0.01197     0.27631   
  1921. BD*(   1) C  40 - H  66          0.00358     0.32275   
  1922. BD*(   1) C  40 - H  67          0.00375     0.31900   
  1923. BD*(   1) C  40 - H  68          0.00304     0.33433   
  1924. BD*(   1) C  41 - C  42          0.00242     0.27853   
  1925. BD*(   1) C  41 - H  65          0.00499     0.36816   
  1926. BD*(   1) C  42 - H  62          0.00281     0.33549   
  1927. BD*(   1) C  42 - H  63          0.00281     0.34003   
  1928. BD*(   1) C  42 - H  64          0.00125     0.33137   
  1929. BD*(   1) N  43 - C  44          0.01813     0.36800   
  1930. BD*(   1) N  43 - C  47          0.01461     0.40651   
  1931. BD*(   2) N  43 - C  47          0.31655    -0.10091  1860(v),1934(v),1872(v)
                                                    1838(r),192(v),1408(g)
                                                    1302(g),497(v),193(v)
  1932. BD*(   1) C  44 - C  45          0.01479     0.46740   
  1933. BD*(   1) C  45 - C  46          0.00893     0.53219   
  1934. BD*(   2) C  45 - C  46          0.11207    -0.02298  1872(v),1931(v),1941(v)
                                                    1938(v)
  1935. BD*(   1) C  45 - C  48          0.01006     0.22704   
  1936. BD*(   1) C  46 - C  47          0.01823     0.37620   
  1937. BD*(   1) C  46 - C  49          0.01119     0.28282   
  1938. BD*(   1) C  48 - H  92          0.00296     0.33242   
  1939. BD*(   1) C  48 - H  93          0.00181     0.33303   
  1940. BD*(   1) C  48 - H  94          0.00221     0.33179   
  1941. BD*(   1) C  49 - C  50          0.00644     0.30116   
  1942. BD*(   1) C  49 - H  87          0.00666     0.33947   
  1943. BD*(   1) C  49 - H  88          0.00556     0.34258   
  1944. BD*(   1) C  50 - C  51          0.03643     0.27643   
  1945. BD*(   1) C  50 - H  89          0.00693     0.31801   
  1946. BD*(   1) C  50 - H  90          0.00595     0.38186   
  1947. BD*(   1) C  51 - O  52          0.02159     0.52792   
  1948. BD*(   2) C  51 - O  52          0.11018    -0.04879  1950(v),1947(g),1945(v)
                                                    1949(g),1512(g)
  1949. BD*(   1) C  51 - O  53          0.03492     0.69066   
  1950. BD*(   1) O  53 - H  91          0.00718     4.58655   
       -------------------------------
              Total Lewis  196.74055  ( 97.3963%)
        Valence non-Lewis    4.88434  (  2.4180%)
        Rydberg non-Lewis    0.37511  (  0.1857%)
       -------------------------------
            Total unit  1  202.00000  (100.0000%)
           Charge unit  1    3.00000
 1\1\GINC-NODE529\SP\UPBE1PBE\def2TZVP\C41H48Fe1N6O4S1(1+,6)\ZHARTOVSKA
 \09-Feb-2023\0\\# PBE1PBE/def2TZVP empiricaldispersion=GD3BJ scf=maxcy
 cle=999 geom=check pop=nbo\\1ycc_III_H\\1,6\C,0,5.463,25.841999,12.545
 \C,0,5.09,24.429001,12.906\N,0,5.995,23.507999,13.296\C,0,3.868,23.788
 ,12.857\C,0,5.407,22.427999,13.522\N,0,4.073,22.504,13.233\C,0,1.017,1
 7.952,15.599\C,0,0.423,18.792999,14.441\S,0,1.482,19.034,13.122\C,0,0.
 274,19.322001,11.825\Fe,0,2.804,20.976999,13.203\C,0,5.106,18.702,14.2
 37\C,0,3.97,20.650999,10.03\C,0,0.209,22.809,12.141\C,0,2.105,21.73399
 9,16.357\N,0,4.231,19.906,12.368\C,0,5.101,19.025999,12.888\C,0,5.794,
 18.232,11.845\C,0,5.473,18.82,10.692\C,0,4.516,19.811001,10.917\C,0,5.
 975,18.374001,9.266\C,0,6.81,17.181999,12.193\C,0,8.215,17.854,12.326\
 C,0,9.431,16.948,12.446\O,0,10.497,17.561001,12.574\O,0,9.302,15.705,1
 2.427\N,0,2.192,21.629,11.411\C,0,2.942,21.559999,10.243\C,0,2.153,22.
 254999,9.23\C,0,1.049,22.82,9.779\C,0,1.152,22.441999,11.163\C,0,2.678
 ,22.417999,7.757\C,0,-0.025,23.701,9.197\C,0,-1.172,22.933001,8.52\N,0
 ,1.422,22.066,14.13\C,0,0.391,22.773001,13.59\C,0,-0.404,23.540001,14.
 466\C,0,0.103,23.198999,15.669\C,0,1.283,22.361,15.466\C,0,-1.58,24.41
 7,14.163\C,0,-0.143,23.797001,17.089001\C,0,-1.643,23.796,17.461\N,0,3
 .478,20.351,14.983\C,0,3.057,20.792,16.232\C,0,3.746,20.112,17.228001\
 C,0,4.57,19.231001,16.638\C,0,4.345,19.327,15.198\C,0,3.526,20.275,18.
 801001\C,0,5.424,18.169001,17.375\C,0,4.819,16.785999,17.313999\C,0,5.
 321,15.74,18.292\O,0,6.473,15.913,18.774\O,0,4.596,14.724,18.384001\H,
 0,0.68046294,19.01420003,10.88428408\H,0,-0.61234423,18.75939254,12.03
 179854\H,0,0.03405936,20.36402419,11.78606222\H,0,1.96063536,18.363349
 97,15.89096491\H,0,0.34681324,17.96974911,16.43292726\H,0,1.1537243,16
 .94216859,15.27273784\H,0,-0.45667684,18.3005477,14.08244684\H,0,0.142
 12403,19.75017058,14.82808042\H,0,-1.77888455,24.29788824,18.39617035\
 H,0,-2.19947498,24.30245174,16.70024891\H,0,-1.98917977,22.78696696,17
 .5441378\H,0,0.63305126,24.16349202,17.72800709\H,0,-1.31885193,25.109
 3683,13.39013014\H,0,-2.40115952,23.81282767,13.83808027\H,0,-1.860005
 72,24.95524469,15.04435659\H,0,-0.74098206,23.15021394,11.78602518\H,0
 ,-0.8563212,21.93235959,8.31032486\H,0,-2.01985347,22.9102236,9.172323
 29\H,0,-1.43808734,23.42192598,7.60618935\H,0,0.00744812,24.76918877,9
 .25010248\H,0,3.62060311,21.92154698,7.65732663\H,0,1.97359283,21.9857
 1993,7.07740796\H,0,2.79709797,23.45766134,7.53380079\H,0,4.37317986,2
 0.61845275,9.03940081\H,0,6.91675167,17.87473027,9.35944801\H,0,5.2604
 366,17.70861473,8.82832403\H,0,6.08859413,19.23589185,8.6421887\H,0,6.
 83882637,16.44189973,11.42078104\H,0,6.54451304,16.72069432,13.1212320
 1\H,0,8.35865398,18.47804214,11.46877486\H,0,8.19293536,18.48370402,13
 .19080403\H,0,11.33198087,17.09728629,12.47717229\H,0,5.74906731,17.90
 749723,14.5534329\H,0,6.39662109,18.13958351,16.92997998\H,0,5.5222987
 7,18.45718672,18.40076135\H,0,3.76413348,16.8874416,17.46187064\H,0,4.
 97662942,16.4071392,16.32580964\H,0,4.99562263,13.85468693,18.46271918
 \H,0,4.3421737,20.82553562,19.22013228\H,0,2.61153731,20.80072029,18.9
 8065668\H,0,3.4768555,19.30797891,19.25636352\H,0,1.96228785,22.059975
 95,17.36609478\H,0,5.88991195,21.5497298,13.89661883\H,0,6.97834083,23
 .66394844,13.38938403\H,0,2.93305948,24.22495218,12.57440663\H,0,6.397
 78341,25.84219033,12.02434663\H,0,4.70497094,26.26167429,11.91717471\H
 ,0,5.55137718,26.42650321,13.43687684\\Version=ES64L-G16RevA.03\State=
 6-A\HF=-3880.332288\S2=8.833256\S2-1=0.\S2A=8.75164\RMSD=2.220e-09\Dip
 ole=-0.507904,2.4501649,-1.1652402\Quadrupole=13.7361011,-6.2047782,-7
 .531323,-0.3067962,-13.0993798,-7.6492861\PG=C01 [X(C41H48Fe1N6O4S1)]\
 \@


 IN THE WOODS WE RETURN TO REASON AND FAITH.

                                 -- EMERSON
 Job cpu time:       5 days 15 hours 27 minutes 44.3 seconds.
 Elapsed time:       1 days  9 hours 57 minutes 13.9 seconds.
 File lengths (MBytes):  RWF=   3495 Int=      0 D2E=      0 Chk=    292 Scr=      1
 Normal termination of Gaussian 16 at Thu Feb  9 04:50:20 2023.
