 Entering Gaussian System, Link 0=g16
 Input=/net/work/kleich/bench/splitthejobs/451c/451c12/451c12.com
 Output=/net/work/kleich/bench/splitthejobs/451c/451c12/451c12.log
 Initial command:
 /afs/math/software/gaussian/g16.A03/g16/l1.exe "/scratch/kleich_gaussian.Chtpkjv/Gau-21794.inp" -scrdir="/scratch/kleich_gaussian.Chtpkjv/"
 Entering Link 1 = /afs/math/software/gaussian/g16.A03/g16/l1.exe PID=     21795.
  
 Copyright (c) 1988,1990,1992,1993,1995,1998,2003,2009,2016,
            Gaussian, Inc.  All Rights Reserved.
  
 This is part of the Gaussian(R) 16 program.  It is based on
 the Gaussian(R) 09 system (copyright 2009, Gaussian, Inc.),
 the Gaussian(R) 03 system (copyright 2003, Gaussian, Inc.),
 the Gaussian(R) 98 system (copyright 1998, Gaussian, Inc.),
 the Gaussian(R) 94 system (copyright 1995, Gaussian, Inc.),
 the Gaussian 92(TM) system (copyright 1992, Gaussian, Inc.),
 the Gaussian 90(TM) system (copyright 1990, Gaussian, Inc.),
 the Gaussian 88(TM) system (copyright 1988, Gaussian, Inc.),
 the Gaussian 86(TM) system (copyright 1986, Carnegie Mellon
 University), and the Gaussian 82(TM) system (copyright 1983,
 Carnegie Mellon University). Gaussian is a federally registered
 trademark of Gaussian, Inc.
  
 This software contains proprietary and confidential information,
 including trade secrets, belonging to Gaussian, Inc.
  
 This software is provided under written license and may be
 used, copied, transmitted, or stored only in accord with that
 written license.
  
 The following legend is applicable only to US Government
 contracts under FAR:
  
                    RESTRICTED RIGHTS LEGEND
  
 Use, reproduction and disclosure by the US Government is
 subject to restrictions as set forth in subparagraphs (a)
 and (c) of the Commercial Computer Software - Restricted
 Rights clause in FAR 52.227-19.
  
 Gaussian, Inc.
 340 Quinnipiac St., Bldg. 40, Wallingford CT 06492
  
  
 ---------------------------------------------------------------
 Warning -- This program may not be used in any manner that
 competes with the business of Gaussian, Inc. or will provide
 assistance to any competitor of Gaussian, Inc.  The licensee
 of this program is prohibited from giving any competitor of
 Gaussian, Inc. access to this program.  By using this program,
 the user acknowledges that Gaussian, Inc. is engaged in the
 business of creating and licensing software in the field of
 computational chemistry and represents and warrants to the
 licensee that it is not a competitor of Gaussian, Inc. and that
 it will not use this program in any manner prohibited above.
 ---------------------------------------------------------------
  

 Cite this work as:
 Gaussian 16, Revision A.03,
 M. J. Frisch, G. W. Trucks, H. B. Schlegel, G. E. Scuseria, 
 M. A. Robb, J. R. Cheeseman, G. Scalmani, V. Barone, 
 G. A. Petersson, H. Nakatsuji, X. Li, M. Caricato, A. V. Marenich, 
 J. Bloino, B. G. Janesko, R. Gomperts, B. Mennucci, H. P. Hratchian, 
 J. V. Ortiz, A. F. Izmaylov, J. L. Sonnenberg, D. Williams-Young, 
 F. Ding, F. Lipparini, F. Egidi, J. Goings, B. Peng, A. Petrone, 
 T. Henderson, D. Ranasinghe, V. G. Zakrzewski, J. Gao, N. Rega, 
 G. Zheng, W. Liang, M. Hada, M. Ehara, K. Toyota, R. Fukuda, 
 J. Hasegawa, M. Ishida, T. Nakajima, Y. Honda, O. Kitao, H. Nakai, 
 T. Vreven, K. Throssell, J. A. Montgomery, Jr., J. E. Peralta, 
 F. Ogliaro, M. J. Bearpark, J. J. Heyd, E. N. Brothers, K. N. Kudin, 
 V. N. Staroverov, T. A. Keith, R. Kobayashi, J. Normand, 
 K. Raghavachari, A. P. Rendell, J. C. Burant, S. S. Iyengar, 
 J. Tomasi, M. Cossi, J. M. Millam, M. Klene, C. Adamo, R. Cammi, 
 J. W. Ochterski, R. L. Martin, K. Morokuma, O. Farkas, 
 J. B. Foresman, and D. J. Fox, Gaussian, Inc., Wallingford CT, 2016.
 
 ******************************************
 Gaussian 16:  ES64L-G16RevA.03 25-Dec-2016
                19-Sep-2022 
 ******************************************
 %nprocs=12
 Will use up to   12 processors via shared memory.
 %mem=16GB
 %oldchk=451c_II_S.chk
 %chk=451c_III_D.chk
 Copying data from "451c_II_S.chk" to current chk file "451c_III_D.chk"
 IOpt=  2 FromEx=T IUOpen= 4 IOptOp= 5 NList=   0 IFRang= 0 IUIn= 4 IUOut= 2.
 ----------------------------------------------------------------------
 # PBE1PBE/def2TZVP empiricaldispersion=GD3BJ int=(grid=ultrafine) geom
 =check pop=nbo
 ----------------------------------------------------------------------
 1/29=2,38=1,172=1/1;
 2/12=2,40=1/2;
 3/5=44,7=101,11=2,14=-4,25=1,30=1,74=-13,75=-5,124=41/1,2,3;
 4//1;
 5/5=2,38=5/2;
 6/7=2,8=2,9=2,10=2,28=1,40=1/1,7;
 99/5=1,9=1/99;
 ----------
 451c_III_D
 ----------
 Structure from the checkpoint file:  "451c_III_D.chk"
 Charge =  1 Multiplicity = 2
 Z-Matrix found in chk file.
 C,0,10.502,-8.068,15.869
 C,0,10.644,-9.486,16.397
 N,0,11.619,-10.33,15.982
 C,0,9.793,-10.187,17.233
 C,0,11.389,-11.544,16.547
 N,0,10.269,-11.46,17.324
 C,0,9.895,-15.821,21.142
 C,0,8.597,-15.027,20.951
 S,0,8.145,-14.71,19.221
 C,0,8.329,-16.29,18.364
 C,0,11.705,-15.239,17.133
 C,0,7.601,-13.454,15.352
 C,0,6.884,-11.032,19.466
 C,0,11.276,-12.321,20.96
 C,0,10.634,-14.991,16.299
 C,0,10.451,-15.547,15.05
 C,0,9.297,-14.993,14.516
 C,0,8.779,-14.157,15.475
 C,0,8.679,-15.258,13.158
 C,0,11.329,-16.591,14.424
 C,0,10.903,-17.937,14.962
 C,0,11.76,-19.039,14.369
 O,0,12.509,-18.781,13.431
 O,0,11.265,-20.229,14.446
 C,0,7.048,-12.619,16.3
 C,0,5.816,-11.979,16.18
 C,0,5.558,-11.35,17.403
 C,0,6.695,-11.546,18.199
 C,0,4.912,-12.026,14.967
 C,0,4.299,-10.621,17.829
 C,0,3.091,-11.541,17.981
 C,0,8.016,-11.19,20.251
 C,0,8.243,-10.559,21.468
 C,0,9.57,-10.805,21.808
 C,0,10.044,-11.718,20.897
 C,0,7.266,-9.649,22.19
 C,0,10.391,-10.166,22.92
 C,0,9.85,-10.474,24.312
 C,0,11.754,-13.25,20.069
 C,0,12.959,-13.93,20.212
 C,0,13.04,-14.833,19.16
 C,0,11.929,-14.616,18.347
 C,0,13.966,-13.748,21.33
 C,0,14.127,-15.851,18.915
 C,0,13.727,-17.251,19.352
 C,0,14.825,-18.245,18.978
 O,0,14.505,-19.418,18.767
 O,0,16.095,-17.97,19.199
 N,0,9.61,-14.148,16.551
 N,0,7.581,-12.332,17.521
 N,0,9.124,-11.898,19.917
 N,0,11.12,-13.676,18.928
 Fe,0,9.397,-12.981,18.23
 H,0,10.46839937,-7.38321688,16.69048833
 H,0,11.33864153,-7.83463157,15.24412391
 H,0,9.59898282,-7.98779688,15.30064498
 H,0,8.9214689,-9.80030703,17.71859457
 H,0,11.98631983,-12.42056673,16.40650162
 H,0,9.93600409,-16.20256592,22.14081235
 H,0,9.92062521,-16.63493896,20.44792023
 H,0,10.7340315,-15.17949718,20.97053491
 H,0,8.78164574,-14.06499607,21.38152804
 H,0,7.81889627,-15.64813452,21.34297768
 H,0,8.16163485,-16.56876805,17.34459955
 H,0,7.26503222,-16.18494868,18.32114241
 H,0,9.11663949,-15.73815759,17.89496483
 H,0,12.41809298,-15.97079501,16.8153926
 H,0,7.06380432,-13.56644186,14.43348074
 H,0,6.082081,-10.45802045,19.88117875
 H,0,11.91684591,-12.04392441,21.77083021
 H,0,8.01519655,-14.45755894,12.90589072
 H,0,8.13331632,-16.17791224,13.18784625
 H,0,9.45211529,-15.3256462,12.42137477
 H,0,12.32555659,-16.41399773,14.77105211
 H,0,11.11994637,-16.59058764,13.37462094
 H,0,9.90576196,-18.10397519,14.61194919
 H,0,11.10614254,-17.9240994,16.01246022
 H,0,4.00909843,-12.54388128,15.21492686
 H,0,4.67779859,-11.02876108,14.65786535
 H,0,5.41001715,-12.53858445,14.17067337
 H,0,4.06080585,-9.9526977,17.02804084
 H,0,4.49931467,-10.23464658,18.80649939
 H,0,2.96060595,-11.79086025,19.01321473
 H,0,2.21532461,-11.04222675,17.62139208
 H,0,3.25006128,-12.43498544,17.41497038
 H,0,7.47253986,-9.66521916,23.23975151
 H,0,7.37008572,-8.64989614,21.82141128
 H,0,6.26665029,-9.99039139,22.01780223
 H,0,10.29013206,-9.10857362,22.79125564
 H,0,11.35824964,-10.62097146,22.87173917
 H,0,10.66240104,-10.52973498,25.00611682
 H,0,9.17663336,-9.69866705,24.61255978
 H,0,9.33134476,-11.40972222,24.29409274
 H,0,14.37868432,-14.69855006,21.596545
 H,0,14.75007586,-13.09821715,21.00150755
 H,0,13.48016448,-13.31874393,22.1812362
 H,0,14.35511297,-15.86763035,17.8697307
 H,0,12.86341159,-17.51692048,18.77893686
 H,0,13.67629946,-17.23670871,20.42070258
 H,0,13.46058197,-18.81464202,13.55331092
 H,0,15.18347647,-20.08644009,18.64676056
 H,0,12.37438365,-10.10014482,15.3683534
 H,0,15.00273251,-15.55772375,19.45535324
 Recover connectivity data from disk.
 Stoichiometry    C41H50FeN6O4S(1+,2)
 Framework group  C1[X(C41H50FeN6O4S)]
 Deg. of freedom   303
 Full point group                 C1      NOp   1
 Largest Abelian subgroup         C1      NOp   1
 Largest concise Abelian subgroup C1      NOp   1
                         Standard orientation:                         
 ---------------------------------------------------------------------
 Center     Atomic      Atomic             Coordinates (Angstroms)
 Number     Number       Type             X           Y           Z
 ---------------------------------------------------------------------
      1          6           0        3.279414   -0.858909    5.033445
      2          6           0        2.263317   -0.513617    3.957345
      3          7           0        0.931154   -0.455993    4.196525
      4          6           0        2.466145   -0.341152    2.599547
      5          6           0        0.302271   -0.249437    3.010033
      6          7           0        1.243531   -0.171292    2.023571
      7          6           0       -0.815655    2.314888   -2.804885
      8          6           0        0.513037    1.571128   -2.986873
      9         16           0        0.567587   -0.084816   -2.243525
     10          6           0       -0.961251   -0.904624   -2.748773
     11          6           0       -2.521303   -0.043649    0.543992
     12          6           0        0.821877   -3.476345    0.053321
     13          6           0        4.165297   -0.087634   -0.748767
     14          6           0        0.947664    3.315032    0.370128
     15          6           0       -1.910592   -1.277372    0.448798
     16          6           0       -2.549586   -2.494156    0.566059
     17          6           0       -1.578979   -3.480980    0.477237
     18          6           0       -0.383977   -2.841611    0.253451
     19          6           0       -1.765758   -4.981878    0.570674
     20          6           0       -4.030032   -2.689748    0.716789
     21          6           0       -4.647874   -2.624878   -0.660418
     22          6           0       -6.150766   -2.810787   -0.575235
     23          8           0       -6.653495   -3.177065    0.483308
     24          8           0       -6.731009   -3.151437   -1.677202
     25          6           0        2.034253   -2.864713   -0.187073
     26          6           0        3.225804   -3.532955   -0.461812
     27          6           0        4.178005   -2.560248   -0.785988
     28          6           0        3.556855   -1.317575   -0.599608
     29          6           0        3.413613   -5.034779   -0.468515
     30          6           0        5.596933   -2.771567   -1.275871
     31          6           0        5.668621   -3.389542   -2.669332
     32          6           0        3.572926    1.147815   -0.535748
     33          6           0        4.233638    2.369899   -0.563091
     34          6           0        3.340337    3.321715   -0.080280
     35          6           0        2.126328    2.690284    0.044791
     36          6           0        5.697770    2.578058   -0.904999
     37          6           0        3.622486    4.767608    0.305323
     38          6           0        4.082238    5.619372   -0.872953
     39          6           0       -0.275548    2.700588    0.477915
     40          6           0       -1.474995    3.369151    0.699780
     41          6           0       -2.482507    2.414148    0.660263
     42          6           0       -1.865616    1.173353    0.511090
     43          6           0       -1.647875    4.861472    0.900252
     44          6           0       -3.968433    2.652376    0.775108
     45          6           0       -4.669282    2.639124   -0.573818
     46          6           0       -6.177727    2.777348   -0.376329
     47          8           0       -6.926245    2.287789   -1.226566
     48          8           0       -6.675016    3.662972    0.463755
     49          7           0       -0.592729   -1.498170    0.255888
     50          7           0        2.252575   -1.521120   -0.253342
     51          7           0        2.284836    1.360106   -0.166639
     52          7           0       -0.516975    1.354414    0.356085
     53         26           0        0.858666   -0.051523    0.091682
     54          1           0        4.032987   -0.100123    5.069080
     55          1           0        2.788017   -0.918391    5.982071
     56          1           0        3.732629   -1.801320    4.806822
     57          1           0        3.409672   -0.341204    2.094911
     58          1           0       -0.755142   -0.162415    2.871454
     59          1           0       -0.864810    3.131286   -3.494796
     60          1           0       -1.628297    1.643438   -2.988374
     61          1           0       -0.880934    2.688887   -1.804503
     62          1           0        1.241560    2.148850   -2.457355
     63          1           0        0.615232    1.417401   -4.040830
     64          1           0       -1.339888   -1.885677   -2.551115
     65          1           0       -0.253990   -1.485470   -3.303119
     66          1           0       -1.141785   -0.819347   -1.697566
     67          1           0       -3.585742   -0.027435    0.651719
     68          1           0        0.817569   -4.545786    0.087636
     69          1           0        5.189753   -0.087549   -1.057620
     70          1           0        0.985525    4.368254    0.555030
     71          1           0       -0.829382   -5.443964    0.804292
     72          1           0       -2.124175   -5.355668   -0.365658
     73          1           0       -2.475601   -5.205791    1.339365
     74          1           0       -4.403726   -1.853238    1.269511
     75          1           0       -4.180857   -3.683636    1.083311
     76          1           0       -4.266994   -3.463041   -1.205682
     77          1           0       -4.483166   -1.631542   -1.022434
     78          1           0        3.630719   -5.362636   -1.463641
     79          1           0        4.225324   -5.295606    0.178010
     80          1           0        2.517569   -5.507816   -0.124654
     81          1           0        6.033121   -3.489363   -0.612992
     82          1           0        6.025906   -1.795348   -1.364629
     83          1           0        5.830646   -2.618653   -3.393471
     84          1           0        6.476313   -4.090306   -2.707602
     85          1           0        4.749171   -3.892971   -2.883972
     86          1           0        5.838276    3.569001   -1.283402
     87          1           0        6.291947    2.444651   -0.025194
     88          1           0        5.995208    1.867259   -1.647424
     89          1           0        4.447073    4.736077    0.986470
     90          1           0        2.685259    5.178009    0.618495
     91          1           0        3.735100    6.623282   -0.744265
     92          1           0        5.151166    5.614958   -0.920638
     93          1           0        3.683057    5.217562   -1.780754
     94          1           0       -2.542829    5.185681    0.411534
     95          1           0       -1.715297    5.075349    1.946488
     96          1           0       -0.807548    5.376937    0.484263
     97          1           0       -4.393709    1.888978    1.392574
     98          1           0       -4.502184    1.670912   -0.997544
     99          1           0       -4.346190    3.514965   -1.096709
    100          1           0       -7.218388   -2.579392    0.978567
    101          1           0       -7.870027    2.459973   -1.191511
    102          1           0        0.488891   -0.549029    5.088572
    103          1           0       -4.130811    3.602745    1.239147
 ---------------------------------------------------------------------
 Rotational constants (GHZ):           0.0678581           0.0440914           0.0339213
 Standard basis: def2TZVP (5D, 7F)
 There are  2230 symmetry adapted cartesian basis functions of A   symmetry.
 There are  1963 symmetry adapted basis functions of A   symmetry.
  1963 basis functions,  3172 primitive gaussians,  2230 cartesian basis functions
   206 alpha electrons      205 beta electrons
       nuclear repulsion energy      9097.1378532609 Hartrees.
 NAtoms=  103 NActive=  103 NUniq=  103 SFac= 1.00D+00 NAtFMM=   60 NAOKFM=T Big=T
 Integral buffers will be    131072 words long.
 Raffenetti 2 integral format.
 Two-electron integral symmetry is turned on.
 Nuclear repulsion after empirical dispersion term =     9096.9836719200 Hartrees.
 One-electron integrals computed using PRISM.
   1 Symmetry operations used in ECPInt.
 ECPInt:  NShTT=  311655 NPrTT=  958403 LenC2=  229438 LenP2D=  457812.
 LDataN:  DoStor=T MaxTD1= 6 Len=  172
 NBasis=  1963 RedAO= T EigKep=  2.24D-06  NBF=  1963
 NBsUse=  1963 1.00D-06 EigRej= -1.00D+00 NBFU=  1963
 ExpMin= 4.20D-02 ExpMax= 3.01D+05 ExpMxC= 2.91D+03 IAcc=3 IRadAn=         5 AccDes= 0.00D+00
 Harris functional with IExCor= 1009 and IRadAn=       5 diagonalized for initial guess.
 HarFok:  IExCor= 1009 AccDes= 0.00D+00 IRadAn=         5 IDoV= 1 UseB2=F ITyADJ=14
 ICtDFT=  3500011 ScaDFX=  1.000000  1.000000  1.000000  1.000000
 FoFCou: FMM=F IPFlag=           0 FMFlag=      100000 FMFlg1=        2001
         NFxFlg=           0 DoJE=T BraDBF=F KetDBF=T FulRan=T
         wScrn=  0.000000 ICntrl=       500 IOpCl=  0 I1Cent=   200000004 NGrid=           0
         NMat0=    1 NMatS0=      1 NMatT0=    0 NMatD0=    1 NMtDS0=    0 NMtDT0=    0
 Petite list used in FoFCou.
 Initial guess <Sx>= 0.0000 <Sy>= 0.0000 <Sz>= 0.5000 <S**2>= 0.7500 S= 0.5000
 Requested convergence on RMS density matrix=1.00D-08 within 128 cycles.
 Requested convergence on MAX density matrix=1.00D-06.
 Requested convergence on             energy=1.00D-06.
 No special actions if energy rises.
 EnCoef did    18 forward-backward iterations
 EnCoef did   100 forward-backward iterations
 EnCoef did    11 forward-backward iterations
 EnCoef did     2 forward-backward iterations
 Restarting incremental Fock formation.
 Restarting incremental Fock formation.
 Restarting incremental Fock formation.
 Restarting incremental Fock formation.
 SCF Done:  E(UPBE1PBE) =  -3881.47188688     A.U. after   86 cycles
            NFock= 86  Conv=0.26D-08     -V/T= 2.0028
 <Sx>= 0.0000 <Sy>= 0.0000 <Sz>= 0.5000 <S**2>= 0.7901 S= 0.5199
 <L.S>= 0.000000000000E+00
 Annihilation of the first spin contaminant:
 S**2 before annihilation     0.7901,   after     0.7507
 Hyperfine terms turned off by default for NAtoms > 100.

 **********************************************************************

            Population analysis using the SCF density.

 **********************************************************************

 Orbital symmetries:
 Alpha Orbitals:
       Occupied  (A) (A) (A) (A) (A) (A) (A) (A) (A) (A) (A) (A)
                 (A) (A) (A) (A) (A) (A) (A) (A) (A) (A) (A) (A)
                 (A) (A) (A) (A) (A) (A) (A) (A) (A) (A) (A) (A)
                 (A) (A) (A) (A) (A) (A) (A) (A) (A) (A) (A) (A)
                 (A) (A) (A) (A) (A) (A) (A) (A) (A) (A) (A) (A)
                 (A) (A) (A) (A) (A) (A) (A) (A) (A) (A) (A) (A)
                 (A) (A) (A) (A) (A) (A) (A) (A) (A) (A) (A) (A)
                 (A) (A) (A) (A) (A) (A) (A) (A) (A) (A) (A) (A)
                 (A) (A) (A) (A) (A) (A) (A) (A) (A) (A) (A) (A)
                 (A) (A) (A) (A) (A) (A) (A) (A) (A) (A) (A) (A)
                 (A) (A) (A) (A) (A) (A) (A) (A) (A) (A) (A) (A)
                 (A) (A) (A) (A) (A) (A) (A) (A) (A) (A) (A) (A)
                 (A) (A) (A) (A) (A) (A) (A) (A) (A) (A) (A) (A)
                 (A) (A) (A) (A) (A) (A) (A) (A) (A) (A) (A) (A)
                 (A) (A) (A) (A) (A) (A) (A) (A) (A) (A) (A) (A)
                 (A) (A) (A) (A) (A) (A) (A) (A) (A) (A) (A) (A)
                 (A) (A) (A) (A) (A) (A) (A) (A) (A) (A) (A) (A)
                 (A) (A)
       Virtual   (A) (A) (A) (A) (A) (A) (A) (A) (A) (A) (A) (A)
                 (A) (A) (A) (A) (A) (A) (A) (A) (A) (A) (A) (A)
                 (A) (A) (A) (A) (A) (A) (A) (A) (A) (A) (A) (A)
                 (A) (A) (A) (A) (A) (A) (A) (A) (A) (A) (A) (A)
                 (A) (A) (A) (A) (A) (A) (A) (A) (A) (A) (A) (A)
                 (A) (A) (A) (A) (A) (A) (A) (A) (A) (A) (A) (A)
                 (A) (A) (A) (A) (A) (A) (A) (A) (A) (A) (A) (A)
                 (A) (A) (A) (A) (A) (A) (A) (A) (A) (A) (A) (A)
                 (A) (A) (A) (A) (A) (A) (A) (A) (A) (A) (A) (A)
                 (A) (A) (A) (A) (A) (A) (A) (A) (A) (A) (A) (A)
                 (A) (A) (A) (A) (A) (A) (A) (A) (A) (A) (A) (A)
                 (A) (A) (A) (A) (A) (A) (A) (A) (A) (A) (A) (A)
                 (A) (A) (A) (A) (A) (A) (A) (A) (A) (A) (A) (A)
                 (A) (A) (A) (A) (A) (A) (A) (A) (A) (A) (A) (A)
                 (A) (A) (A) (A) (A) (A) (A) (A) (A) (A) (A) (A)
                 (A) (A) (A) (A) (A) (A) (A) (A) (A) (A) (A) (A)
                 (A) (A) (A) (A) (A) (A) (A) (A) (A) (A) (A) (A)
                 (A) (A) (A) (A) (A) (A) (A) (A) (A) (A) (A) (A)
                 (A) (A) (A) (A) (A) (A) (A) (A) (A) (A) (A) (A)
                 (A) (A) (A) (A) (A) (A) (A) (A) (A) (A) (A) (A)
                 (A) (A) (A) (A) (A) (A) (A) (A) (A) (A) (A) (A)
                 (A) (A) (A) (A) (A) (A) (A) (A) (A) (A) (A) (A)
                 (A) (A) (A) (A) (A) (A) (A) (A) (A) (A) (A) (A)
                 (A) (A) (A) (A) (A) (A) (A) (A) (A) (A) (A) (A)
                 (A) (A) (A) (A) (A) (A) (A) (A) (A) (A) (A) (A)
                 (A) (A) (A) (A) (A) (A) (A) (A) (A) (A) (A) (A)
                 (A) (A) (A) (A) (A) (A) (A) (A) (A) (A) (A) (A)
                 (A) (A) (A) (A) (A) (A) (A) (A) (A) (A) (A) (A)
                 (A) (A) (A) (A) (A) (A) (A) (A) (A) (A) (A) (A)
                 (A) (A) (A) (A) (A) (A) (A) (A) (A) (A) (A) (A)
                 (A) (A) (A) (A) (A) (A) (A) (A) (A) (A) (A) (A)
                 (A) (A) (A) (A) (A) (A) (A) (A) (A) (A) (A) (A)
                 (A) (A) (A) (A) (A) (A) (A) (A) (A) (A) (A) (A)
                 (A) (A) (A) (A) (A) (A) (A) (A) (A) (A) (A) (A)
                 (A) (A) (A) (A) (A) (A) (A) (A) (A) (A) (A) (A)
                 (A) (A) (A) (A) (A) (A) (A) (A) (A) (A) (A) (A)
                 (A) (A) (A) (A) (A) (A) (A) (A) (A) (A) (A) (A)
                 (A) (A) (A) (A) (A) (A) (A) (A) (A) (A) (A) (A)
                 (A) (A) (A) (A) (A) (A) (A) (A) (A) (A) (A) (A)
                 (A) (A) (A) (A) (A) (A) (A) (A) (A) (A) (A) (A)
                 (A) (A) (A) (A) (A) (A) (A) (A) (A) (A) (A) (A)
                 (A) (A) (A) (A) (A) (A) (A) (A) (A) (A) (A) (A)
                 (A) (A) (A) (A) (A) (A) (A) (A) (A) (A) (A) (A)
                 (A) (A) (A) (A) (A) (A) (A) (A) (A) (A) (A) (A)
                 (A) (A) (A) (A) (A) (A) (A) (A) (A) (A) (A) (A)
                 (A) (A) (A) (A) (A) (A) (A) (A) (A) (A) (A) (A)
                 (A) (A) (A) (A) (A) (A) (A) (A) (A) (A) (A) (A)
                 (A) (A) (A) (A) (A) (A) (A) (A) (A) (A) (A) (A)
                 (A) (A) (A) (A) (A) (A) (A) (A) (A) (A) (A) (A)
                 (A) (A) (A) (A) (A) (A) (A) (A) (A) (A) (A) (A)
                 (A) (A) (A) (A) (A) (A) (A) (A) (A) (A) (A) (A)
                 (A) (A) (A) (A) (A) (A) (A) (A) (A) (A) (A) (A)
                 (A) (A) (A) (A) (A) (A) (A) (A) (A) (A) (A) (A)
                 (A) (A) (A) (A) (A) (A) (A) (A) (A) (A) (A) (A)
                 (A) (A) (A) (A) (A) (A) (A) (A) (A) (A) (A) (A)
                 (A) (A) (A) (A) (A) (A) (A) (A) (A) (A) (A) (A)
                 (A) (A) (A) (A) (A) (A) (A) (A) (A) (A) (A) (A)
                 (A) (A) (A) (A) (A) (A) (A) (A) (A) (A) (A) (A)
                 (A) (A) (A) (A) (A) (A) (A) (A) (A) (A) (A) (A)
                 (A) (A) (A) (A) (A) (A) (A) (A) (A) (A) (A) (A)
                 (A) (A) (A) (A) (A) (A) (A) (A) (A) (A) (A) (A)
                 (A) (A) (A) (A) (A) (A) (A) (A) (A) (A) (A) (A)
                 (A) (A) (A) (A) (A) (A) (A) (A) (A) (A) (A) (A)
                 (A) (A) (A) (A) (A) (A) (A) (A) (A) (A) (A) (A)
                 (A) (A) (A) (A) (A) (A) (A) (A) (A) (A) (A) (A)
                 (A) (A) (A) (A) (A) (A) (A) (A) (A) (A) (A) (A)
                 (A) (A) (A) (A) (A) (A) (A) (A) (A) (A) (A) (A)
                 (A) (A) (A) (A) (A) (A) (A) (A) (A) (A) (A) (A)
                 (A) (A) (A) (A) (A) (A) (A) (A) (A) (A) (A) (A)
                 (A) (A) (A) (A) (A) (A) (A) (A) (A) (A) (A) (A)
                 (A) (A) (A) (A) (A) (A) (A) (A) (A) (A) (A) (A)
                 (A) (A) (A) (A) (A) (A) (A) (A) (A) (A) (A) (A)
                 (A) (A) (A) (A) (A) (A) (A) (A) (A) (A) (A) (A)
                 (A) (A) (A) (A) (A) (A) (A) (A) (A) (A) (A) (A)
                 (A) (A) (A) (A) (A) (A) (A) (A) (A) (A) (A) (A)
                 (A) (A) (A) (A) (A) (A) (A) (A) (A) (A) (A) (A)
                 (A) (A) (A) (A) (A) (A) (A) (A) (A) (A) (A) (A)
                 (A) (A) (A) (A) (A) (A) (A) (A) (A) (A) (A) (A)
                 (A) (A) (A) (A) (A) (A) (A) (A) (A) (A) (A) (A)
                 (A) (A) (A) (A) (A) (A) (A) (A) (A) (A) (A) (A)
                 (A) (A) (A) (A) (A) (A) (A) (A) (A) (A) (A) (A)
                 (A) (A) (A) (A) (A) (A) (A) (A) (A) (A) (A) (A)
                 (A) (A) (A) (A) (A) (A) (A) (A) (A) (A) (A) (A)
                 (A) (A) (A) (A) (A) (A) (A) (A) (A) (A) (A) (A)
                 (A) (A) (A) (A) (A) (A) (A) (A) (A) (A) (A) (A)
                 (A) (A) (A) (A) (A) (A) (A) (A) (A) (A) (A) (A)
                 (A) (A) (A) (A) (A) (A) (A) (A) (A) (A) (A) (A)
                 (A) (A) (A) (A) (A) (A) (A) (A) (A) (A) (A) (A)
                 (A) (A) (A) (A) (A) (A) (A) (A) (A) (A) (A) (A)
                 (A) (A) (A) (A) (A) (A) (A) (A) (A) (A) (A) (A)
                 (A) (A) (A) (A) (A) (A) (A) (A) (A) (A) (A) (A)
                 (A) (A) (A) (A) (A) (A) (A) (A) (A) (A) (A) (A)
                 (A) (A) (A) (A) (A) (A) (A) (A) (A) (A) (A) (A)
                 (A) (A) (A) (A) (A) (A) (A) (A) (A) (A) (A) (A)
                 (A) (A) (A) (A) (A) (A) (A) (A) (A) (A) (A) (A)
                 (A) (A) (A) (A) (A) (A) (A) (A) (A) (A) (A) (A)
                 (A) (A) (A) (A) (A) (A) (A) (A) (A) (A) (A) (A)
                 (A) (A) (A) (A) (A) (A) (A) (A) (A) (A) (A) (A)
                 (A) (A) (A) (A) (A) (A) (A) (A) (A) (A) (A) (A)
                 (A) (A) (A) (A) (A) (A) (A) (A) (A) (A) (A) (A)
                 (A) (A) (A) (A) (A) (A) (A) (A) (A) (A) (A) (A)
                 (A) (A) (A) (A) (A) (A) (A) (A) (A) (A) (A) (A)
                 (A) (A) (A) (A) (A) (A) (A) (A) (A) (A) (A) (A)
                 (A) (A) (A) (A) (A) (A) (A) (A) (A) (A) (A) (A)
                 (A) (A) (A) (A) (A) (A) (A) (A) (A) (A) (A) (A)
                 (A) (A) (A) (A) (A) (A) (A) (A) (A) (A) (A) (A)
                 (A) (A) (A) (A) (A) (A) (A) (A) (A) (A) (A) (A)
                 (A) (A) (A) (A) (A) (A) (A) (A) (A) (A) (A) (A)
                 (A) (A) (A) (A) (A) (A) (A) (A) (A) (A) (A) (A)
                 (A) (A) (A) (A) (A) (A) (A) (A) (A) (A) (A) (A)
                 (A) (A) (A) (A) (A) (A) (A) (A) (A) (A) (A) (A)
                 (A) (A) (A) (A) (A) (A) (A) (A) (A) (A) (A) (A)
                 (A) (A) (A) (A) (A) (A) (A) (A) (A) (A) (A) (A)
                 (A) (A) (A) (A) (A) (A) (A) (A) (A) (A) (A) (A)
                 (A) (A) (A) (A) (A) (A) (A) (A) (A) (A) (A) (A)
                 (A) (A) (A) (A) (A) (A) (A) (A) (A) (A) (A) (A)
                 (A) (A) (A) (A) (A) (A) (A) (A) (A) (A) (A) (A)
                 (A) (A) (A) (A) (A) (A) (A) (A) (A) (A) (A) (A)
                 (A) (A) (A) (A) (A) (A) (A) (A) (A) (A) (A) (A)
                 (A) (A) (A) (A) (A) (A) (A) (A) (A) (A) (A) (A)
                 (A) (A) (A) (A) (A) (A) (A) (A) (A) (A) (A) (A)
                 (A) (A) (A) (A) (A) (A) (A) (A) (A) (A) (A) (A)
                 (A) (A) (A) (A) (A) (A) (A) (A) (A) (A) (A) (A)
                 (A) (A) (A) (A) (A) (A) (A) (A) (A) (A) (A) (A)
                 (A) (A) (A) (A) (A) (A) (A) (A) (A) (A) (A) (A)
                 (A) (A) (A) (A) (A) (A) (A) (A) (A) (A) (A) (A)
                 (A) (A) (A) (A) (A) (A) (A) (A) (A) (A) (A) (A)
                 (A) (A) (A) (A) (A) (A) (A) (A) (A) (A) (A) (A)
                 (A) (A) (A) (A) (A) (A) (A) (A) (A) (A) (A) (A)
                 (A) (A) (A) (A) (A) (A) (A) (A) (A) (A) (A) (A)
                 (A) (A) (A) (A) (A) (A) (A) (A) (A) (A) (A) (A)
                 (A) (A) (A) (A) (A) (A) (A) (A) (A) (A) (A) (A)
                 (A) (A) (A) (A) (A) (A) (A) (A) (A) (A) (A) (A)
                 (A) (A) (A) (A) (A) (A) (A) (A) (A) (A) (A) (A)
                 (A) (A) (A) (A) (A) (A) (A) (A) (A) (A) (A) (A)
                 (A) (A) (A) (A) (A) (A) (A) (A) (A) (A) (A) (A)
                 (A) (A) (A) (A) (A) (A) (A) (A) (A) (A) (A) (A)
                 (A) (A) (A) (A) (A) (A) (A) (A) (A) (A) (A) (A)
                 (A) (A) (A) (A) (A) (A) (A) (A) (A) (A) (A) (A)
                 (A) (A) (A) (A) (A) (A) (A) (A) (A) (A) (A) (A)
                 (A) (A) (A) (A) (A) (A) (A) (A) (A) (A) (A) (A)
                 (A) (A) (A) (A) (A) (A) (A) (A) (A) (A) (A) (A)
                 (A) (A) (A) (A) (A) (A) (A) (A) (A) (A) (A) (A)
                 (A) (A) (A) (A) (A) (A) (A) (A) (A) (A) (A) (A)
                 (A) (A) (A) (A) (A) (A) (A) (A) (A) (A) (A) (A)
                 (A) (A) (A) (A) (A) (A) (A) (A) (A) (A) (A) (A)
                 (A) (A) (A) (A) (A)
 Beta  Orbitals:
       Occupied  (A) (A) (A) (A) (A) (A) (A) (A) (A) (A) (A) (A)
                 (A) (A) (A) (A) (A) (A) (A) (A) (A) (A) (A) (A)
                 (A) (A) (A) (A) (A) (A) (A) (A) (A) (A) (A) (A)
                 (A) (A) (A) (A) (A) (A) (A) (A) (A) (A) (A) (A)
                 (A) (A) (A) (A) (A) (A) (A) (A) (A) (A) (A) (A)
                 (A) (A) (A) (A) (A) (A) (A) (A) (A) (A) (A) (A)
                 (A) (A) (A) (A) (A) (A) (A) (A) (A) (A) (A) (A)
                 (A) (A) (A) (A) (A) (A) (A) (A) (A) (A) (A) (A)
                 (A) (A) (A) (A) (A) (A) (A) (A) (A) (A) (A) (A)
                 (A) (A) (A) (A) (A) (A) (A) (A) (A) (A) (A) (A)
                 (A) (A) (A) (A) (A) (A) (A) (A) (A) (A) (A) (A)
                 (A) (A) (A) (A) (A) (A) (A) (A) (A) (A) (A) (A)
                 (A) (A) (A) (A) (A) (A) (A) (A) (A) (A) (A) (A)
                 (A) (A) (A) (A) (A) (A) (A) (A) (A) (A) (A) (A)
                 (A) (A) (A) (A) (A) (A) (A) (A) (A) (A) (A) (A)
                 (A) (A) (A) (A) (A) (A) (A) (A) (A) (A) (A) (A)
                 (A) (A) (A) (A) (A) (A) (A) (A) (A) (A) (A) (A)
                 (A)
       Virtual   (A) (A) (A) (A) (A) (A) (A) (A) (A) (A) (A) (A)
                 (A) (A) (A) (A) (A) (A) (A) (A) (A) (A) (A) (A)
                 (A) (A) (A) (A) (A) (A) (A) (A) (A) (A) (A) (A)
                 (A) (A) (A) (A) (A) (A) (A) (A) (A) (A) (A) (A)
                 (A) (A) (A) (A) (A) (A) (A) (A) (A) (A) (A) (A)
                 (A) (A) (A) (A) (A) (A) (A) (A) (A) (A) (A) (A)
                 (A) (A) (A) (A) (A) (A) (A) (A) (A) (A) (A) (A)
                 (A) (A) (A) (A) (A) (A) (A) (A) (A) (A) (A) (A)
                 (A) (A) (A) (A) (A) (A) (A) (A) (A) (A) (A) (A)
                 (A) (A) (A) (A) (A) (A) (A) (A) (A) (A) (A) (A)
                 (A) (A) (A) (A) (A) (A) (A) (A) (A) (A) (A) (A)
                 (A) (A) (A) (A) (A) (A) (A) (A) (A) (A) (A) (A)
                 (A) (A) (A) (A) (A) (A) (A) (A) (A) (A) (A) (A)
                 (A) (A) (A) (A) (A) (A) (A) (A) (A) (A) (A) (A)
                 (A) (A) (A) (A) (A) (A) (A) (A) (A) (A) (A) (A)
                 (A) (A) (A) (A) (A) (A) (A) (A) (A) (A) (A) (A)
                 (A) (A) (A) (A) (A) (A) (A) (A) (A) (A) (A) (A)
                 (A) (A) (A) (A) (A) (A) (A) (A) (A) (A) (A) (A)
                 (A) (A) (A) (A) (A) (A) (A) (A) (A) (A) (A) (A)
                 (A) (A) (A) (A) (A) (A) (A) (A) (A) (A) (A) (A)
                 (A) (A) (A) (A) (A) (A) (A) (A) (A) (A) (A) (A)
                 (A) (A) (A) (A) (A) (A) (A) (A) (A) (A) (A) (A)
                 (A) (A) (A) (A) (A) (A) (A) (A) (A) (A) (A) (A)
                 (A) (A) (A) (A) (A) (A) (A) (A) (A) (A) (A) (A)
                 (A) (A) (A) (A) (A) (A) (A) (A) (A) (A) (A) (A)
                 (A) (A) (A) (A) (A) (A) (A) (A) (A) (A) (A) (A)
                 (A) (A) (A) (A) (A) (A) (A) (A) (A) (A) (A) (A)
                 (A) (A) (A) (A) (A) (A) (A) (A) (A) (A) (A) (A)
                 (A) (A) (A) (A) (A) (A) (A) (A) (A) (A) (A) (A)
                 (A) (A) (A) (A) (A) (A) (A) (A) (A) (A) (A) (A)
                 (A) (A) (A) (A) (A) (A) (A) (A) (A) (A) (A) (A)
                 (A) (A) (A) (A) (A) (A) (A) (A) (A) (A) (A) (A)
                 (A) (A) (A) (A) (A) (A) (A) (A) (A) (A) (A) (A)
                 (A) (A) (A) (A) (A) (A) (A) (A) (A) (A) (A) (A)
                 (A) (A) (A) (A) (A) (A) (A) (A) (A) (A) (A) (A)
                 (A) (A) (A) (A) (A) (A) (A) (A) (A) (A) (A) (A)
                 (A) (A) (A) (A) (A) (A) (A) (A) (A) (A) (A) (A)
                 (A) (A) (A) (A) (A) (A) (A) (A) (A) (A) (A) (A)
                 (A) (A) (A) (A) (A) (A) (A) (A) (A) (A) (A) (A)
                 (A) (A) (A) (A) (A) (A) (A) (A) (A) (A) (A) (A)
                 (A) (A) (A) (A) (A) (A) (A) (A) (A) (A) (A) (A)
                 (A) (A) (A) (A) (A) (A) (A) (A) (A) (A) (A) (A)
                 (A) (A) (A) (A) (A) (A) (A) (A) (A) (A) (A) (A)
                 (A) (A) (A) (A) (A) (A) (A) (A) (A) (A) (A) (A)
                 (A) (A) (A) (A) (A) (A) (A) (A) (A) (A) (A) (A)
                 (A) (A) (A) (A) (A) (A) (A) (A) (A) (A) (A) (A)
                 (A) (A) (A) (A) (A) (A) (A) (A) (A) (A) (A) (A)
                 (A) (A) (A) (A) (A) (A) (A) (A) (A) (A) (A) (A)
                 (A) (A) (A) (A) (A) (A) (A) (A) (A) (A) (A) (A)
                 (A) (A) (A) (A) (A) (A) (A) (A) (A) (A) (A) (A)
                 (A) (A) (A) (A) (A) (A) (A) (A) (A) (A) (A) (A)
                 (A) (A) (A) (A) (A) (A) (A) (A) (A) (A) (A) (A)
                 (A) (A) (A) (A) (A) (A) (A) (A) (A) (A) (A) (A)
                 (A) (A) (A) (A) (A) (A) (A) (A) (A) (A) (A) (A)
                 (A) (A) (A) (A) (A) (A) (A) (A) (A) (A) (A) (A)
                 (A) (A) (A) (A) (A) (A) (A) (A) (A) (A) (A) (A)
                 (A) (A) (A) (A) (A) (A) (A) (A) (A) (A) (A) (A)
                 (A) (A) (A) (A) (A) (A) (A) (A) (A) (A) (A) (A)
                 (A) (A) (A) (A) (A) (A) (A) (A) (A) (A) (A) (A)
                 (A) (A) (A) (A) (A) (A) (A) (A) (A) (A) (A) (A)
                 (A) (A) (A) (A) (A) (A) (A) (A) (A) (A) (A) (A)
                 (A) (A) (A) (A) (A) (A) (A) (A) (A) (A) (A) (A)
                 (A) (A) (A) (A) (A) (A) (A) (A) (A) (A) (A) (A)
                 (A) (A) (A) (A) (A) (A) (A) (A) (A) (A) (A) (A)
                 (A) (A) (A) (A) (A) (A) (A) (A) (A) (A) (A) (A)
                 (A) (A) (A) (A) (A) (A) (A) (A) (A) (A) (A) (A)
                 (A) (A) (A) (A) (A) (A) (A) (A) (A) (A) (A) (A)
                 (A) (A) (A) (A) (A) (A) (A) (A) (A) (A) (A) (A)
                 (A) (A) (A) (A) (A) (A) (A) (A) (A) (A) (A) (A)
                 (A) (A) (A) (A) (A) (A) (A) (A) (A) (A) (A) (A)
                 (A) (A) (A) (A) (A) (A) (A) (A) (A) (A) (A) (A)
                 (A) (A) (A) (A) (A) (A) (A) (A) (A) (A) (A) (A)
                 (A) (A) (A) (A) (A) (A) (A) (A) (A) (A) (A) (A)
                 (A) (A) (A) (A) (A) (A) (A) (A) (A) (A) (A) (A)
                 (A) (A) (A) (A) (A) (A) (A) (A) (A) (A) (A) (A)
                 (A) (A) (A) (A) (A) (A) (A) (A) (A) (A) (A) (A)
                 (A) (A) (A) (A) (A) (A) (A) (A) (A) (A) (A) (A)
                 (A) (A) (A) (A) (A) (A) (A) (A) (A) (A) (A) (A)
                 (A) (A) (A) (A) (A) (A) (A) (A) (A) (A) (A) (A)
                 (A) (A) (A) (A) (A) (A) (A) (A) (A) (A) (A) (A)
                 (A) (A) (A) (A) (A) (A) (A) (A) (A) (A) (A) (A)
                 (A) (A) (A) (A) (A) (A) (A) (A) (A) (A) (A) (A)
                 (A) (A) (A) (A) (A) (A) (A) (A) (A) (A) (A) (A)
                 (A) (A) (A) (A) (A) (A) (A) (A) (A) (A) (A) (A)
                 (A) (A) (A) (A) (A) (A) (A) (A) (A) (A) (A) (A)
                 (A) (A) (A) (A) (A) (A) (A) (A) (A) (A) (A) (A)
                 (A) (A) (A) (A) (A) (A) (A) (A) (A) (A) (A) (A)
                 (A) (A) (A) (A) (A) (A) (A) (A) (A) (A) (A) (A)
                 (A) (A) (A) (A) (A) (A) (A) (A) (A) (A) (A) (A)
                 (A) (A) (A) (A) (A) (A) (A) (A) (A) (A) (A) (A)
                 (A) (A) (A) (A) (A) (A) (A) (A) (A) (A) (A) (A)
                 (A) (A) (A) (A) (A) (A) (A) (A) (A) (A) (A) (A)
                 (A) (A) (A) (A) (A) (A) (A) (A) (A) (A) (A) (A)
                 (A) (A) (A) (A) (A) (A) (A) (A) (A) (A) (A) (A)
                 (A) (A) (A) (A) (A) (A) (A) (A) (A) (A) (A) (A)
                 (A) (A) (A) (A) (A) (A) (A) (A) (A) (A) (A) (A)
                 (A) (A) (A) (A) (A) (A) (A) (A) (A) (A) (A) (A)
                 (A) (A) (A) (A) (A) (A) (A) (A) (A) (A) (A) (A)
                 (A) (A) (A) (A) (A) (A) (A) (A) (A) (A) (A) (A)
                 (A) (A) (A) (A) (A) (A) (A) (A) (A) (A) (A) (A)
                 (A) (A) (A) (A) (A) (A) (A) (A) (A) (A) (A) (A)
                 (A) (A) (A) (A) (A) (A) (A) (A) (A) (A) (A) (A)
                 (A) (A) (A) (A) (A) (A) (A) (A) (A) (A) (A) (A)
                 (A) (A) (A) (A) (A) (A) (A) (A) (A) (A) (A) (A)
                 (A) (A) (A) (A) (A) (A) (A) (A) (A) (A) (A) (A)
                 (A) (A) (A) (A) (A) (A) (A) (A) (A) (A) (A) (A)
                 (A) (A) (A) (A) (A) (A) (A) (A) (A) (A) (A) (A)
                 (A) (A) (A) (A) (A) (A) (A) (A) (A) (A) (A) (A)
                 (A) (A) (A) (A) (A) (A) (A) (A) (A) (A) (A) (A)
                 (A) (A) (A) (A) (A) (A) (A) (A) (A) (A) (A) (A)
                 (A) (A) (A) (A) (A) (A) (A) (A) (A) (A) (A) (A)
                 (A) (A) (A) (A) (A) (A) (A) (A) (A) (A) (A) (A)
                 (A) (A) (A) (A) (A) (A) (A) (A) (A) (A) (A) (A)
                 (A) (A) (A) (A) (A) (A) (A) (A) (A) (A) (A) (A)
                 (A) (A) (A) (A) (A) (A) (A) (A) (A) (A) (A) (A)
                 (A) (A) (A) (A) (A) (A) (A) (A) (A) (A) (A) (A)
                 (A) (A) (A) (A) (A) (A) (A) (A) (A) (A) (A) (A)
                 (A) (A) (A) (A) (A) (A) (A) (A) (A) (A) (A) (A)
                 (A) (A) (A) (A) (A) (A) (A) (A) (A) (A) (A) (A)
                 (A) (A) (A) (A) (A) (A) (A) (A) (A) (A) (A) (A)
                 (A) (A) (A) (A) (A) (A) (A) (A) (A) (A) (A) (A)
                 (A) (A) (A) (A) (A) (A) (A) (A) (A) (A) (A) (A)
                 (A) (A) (A) (A) (A) (A) (A) (A) (A) (A) (A) (A)
                 (A) (A) (A) (A) (A) (A) (A) (A) (A) (A) (A) (A)
                 (A) (A) (A) (A) (A) (A) (A) (A) (A) (A) (A) (A)
                 (A) (A) (A) (A) (A) (A) (A) (A) (A) (A) (A) (A)
                 (A) (A) (A) (A) (A) (A) (A) (A) (A) (A) (A) (A)
                 (A) (A) (A) (A) (A) (A) (A) (A) (A) (A) (A) (A)
                 (A) (A) (A) (A) (A) (A) (A) (A) (A) (A) (A) (A)
                 (A) (A) (A) (A) (A) (A) (A) (A) (A) (A) (A) (A)
                 (A) (A) (A) (A) (A) (A) (A) (A) (A) (A) (A) (A)
                 (A) (A) (A) (A) (A) (A) (A) (A) (A) (A) (A) (A)
                 (A) (A) (A) (A) (A) (A) (A) (A) (A) (A) (A) (A)
                 (A) (A) (A) (A) (A) (A) (A) (A) (A) (A) (A) (A)
                 (A) (A) (A) (A) (A) (A) (A) (A) (A) (A) (A) (A)
                 (A) (A) (A) (A) (A) (A) (A) (A) (A) (A) (A) (A)
                 (A) (A) (A) (A) (A) (A) (A) (A) (A) (A) (A) (A)
                 (A) (A) (A) (A) (A) (A) (A) (A) (A) (A) (A) (A)
                 (A) (A) (A) (A) (A) (A) (A) (A) (A) (A) (A) (A)
                 (A) (A) (A) (A) (A) (A) (A) (A) (A) (A) (A) (A)
                 (A) (A) (A) (A) (A) (A) (A) (A) (A) (A) (A) (A)
                 (A) (A) (A) (A) (A) (A) (A) (A) (A) (A) (A) (A)
                 (A) (A) (A) (A) (A) (A) (A) (A) (A) (A) (A) (A)
                 (A) (A) (A) (A) (A) (A) (A) (A) (A) (A) (A) (A)
                 (A) (A) (A) (A) (A) (A) (A) (A) (A) (A) (A) (A)
                 (A) (A) (A) (A) (A) (A) (A) (A) (A) (A) (A) (A)
                 (A) (A) (A) (A) (A) (A)
 The electronic state is 2-A.
 Alpha  occ. eigenvalues -- -256.50470 -89.16913 -30.29102 -26.12351 -26.12114
 Alpha  occ. eigenvalues --  -26.09787 -19.34688 -19.33239 -19.24754 -19.24298
 Alpha  occ. eigenvalues --  -14.56457 -14.52445 -14.48907 -14.48337 -14.48101
 Alpha  occ. eigenvalues --  -14.47925 -10.43220 -10.42430 -10.40208 -10.37268
 Alpha  occ. eigenvalues --  -10.35509 -10.35124 -10.35073 -10.35005 -10.34979
 Alpha  occ. eigenvalues --  -10.34951 -10.34820 -10.34760 -10.34449 -10.34098
 Alpha  occ. eigenvalues --  -10.33240 -10.32908 -10.32825 -10.32646 -10.32569
 Alpha  occ. eigenvalues --  -10.32284 -10.32282 -10.32247 -10.32183 -10.32152
 Alpha  occ. eigenvalues --  -10.31976 -10.31827 -10.31788 -10.31368 -10.31320
 Alpha  occ. eigenvalues --  -10.31223 -10.31187 -10.30602 -10.30591 -10.30558
 Alpha  occ. eigenvalues --  -10.30326 -10.30259 -10.30172 -10.29893 -10.28499
 Alpha  occ. eigenvalues --  -10.28107 -10.28065  -8.14331  -6.08099  -6.07630
 Alpha  occ. eigenvalues --   -6.07139  -3.64709  -2.42249  -2.41662  -2.36715
 Alpha  occ. eigenvalues --   -1.25327  -1.25118  -1.17041  -1.10543  -1.09655
 Alpha  occ. eigenvalues --   -1.09039  -1.08304  -1.07455  -1.05996  -1.02907
 Alpha  occ. eigenvalues --   -0.96711  -0.95570  -0.94082  -0.93561  -0.92936
 Alpha  occ. eigenvalues --   -0.92607  -0.92135  -0.91869  -0.91001  -0.89483
 Alpha  occ. eigenvalues --   -0.88745  -0.88544  -0.87408  -0.86973  -0.86336
 Alpha  occ. eigenvalues --   -0.84600  -0.82704  -0.82439  -0.81929  -0.81080
 Alpha  occ. eigenvalues --   -0.79952  -0.79568  -0.78945  -0.78282  -0.77205
 Alpha  occ. eigenvalues --   -0.77093  -0.76683  -0.74424  -0.73456  -0.73228
 Alpha  occ. eigenvalues --   -0.72952  -0.72851  -0.70315  -0.70224  -0.69805
 Alpha  occ. eigenvalues --   -0.67553  -0.67084  -0.66177  -0.65868  -0.63984
 Alpha  occ. eigenvalues --   -0.63165  -0.63019  -0.62808  -0.62015  -0.61233
 Alpha  occ. eigenvalues --   -0.60271  -0.59894  -0.59556  -0.59463  -0.59311
 Alpha  occ. eigenvalues --   -0.59088  -0.58976  -0.58426  -0.58305  -0.57369
 Alpha  occ. eigenvalues --   -0.57193  -0.56602  -0.56429  -0.56030  -0.55774
 Alpha  occ. eigenvalues --   -0.55555  -0.55523  -0.54947  -0.54721  -0.54635
 Alpha  occ. eigenvalues --   -0.54414  -0.54327  -0.53972  -0.53752  -0.53416
 Alpha  occ. eigenvalues --   -0.53146  -0.52784  -0.52712  -0.52546  -0.52136
 Alpha  occ. eigenvalues --   -0.52039  -0.51620  -0.51471  -0.51147  -0.50882
 Alpha  occ. eigenvalues --   -0.50793  -0.50767  -0.50175  -0.50009  -0.49857
 Alpha  occ. eigenvalues --   -0.48786  -0.48699  -0.48404  -0.48263  -0.48216
 Alpha  occ. eigenvalues --   -0.47843  -0.47538  -0.47402  -0.47150  -0.47110
 Alpha  occ. eigenvalues --   -0.46879  -0.46604  -0.46377  -0.46165  -0.46063
 Alpha  occ. eigenvalues --   -0.45988  -0.45667  -0.45292  -0.44639  -0.44581
 Alpha  occ. eigenvalues --   -0.43929  -0.43856  -0.43737  -0.43617  -0.43116
 Alpha  occ. eigenvalues --   -0.42661  -0.41726  -0.41542  -0.41506  -0.39872
 Alpha  occ. eigenvalues --   -0.39627  -0.39294  -0.39071  -0.38980  -0.37914
 Alpha  occ. eigenvalues --   -0.36946  -0.34886  -0.34595  -0.34336  -0.33715
 Alpha  occ. eigenvalues --   -0.33299  -0.33183  -0.32591  -0.31383  -0.30866
 Alpha  occ. eigenvalues --   -0.30270
 Alpha virt. eigenvalues --   -0.18761  -0.18364  -0.16756  -0.14052  -0.13198
 Alpha virt. eigenvalues --   -0.12185  -0.10571  -0.09940  -0.08702  -0.07083
 Alpha virt. eigenvalues --   -0.06517  -0.06417  -0.05574  -0.05004  -0.04775
 Alpha virt. eigenvalues --   -0.04542  -0.04225  -0.03558  -0.03442  -0.03165
 Alpha virt. eigenvalues --   -0.02747  -0.02420  -0.02209  -0.02052  -0.01796
 Alpha virt. eigenvalues --   -0.01738  -0.01348  -0.00947  -0.00751  -0.00502
 Alpha virt. eigenvalues --   -0.00160   0.00012   0.00277   0.00733   0.00930
 Alpha virt. eigenvalues --    0.01210   0.01696   0.01804   0.01873   0.02383
 Alpha virt. eigenvalues --    0.02466   0.02924   0.03182   0.03368   0.03710
 Alpha virt. eigenvalues --    0.03831   0.04192   0.04276   0.04431   0.04560
 Alpha virt. eigenvalues --    0.04708   0.04966   0.05067   0.05324   0.05544
 Alpha virt. eigenvalues --    0.05702   0.06030   0.06191   0.06380   0.06485
 Alpha virt. eigenvalues --    0.06607   0.06681   0.06833   0.07063   0.07248
 Alpha virt. eigenvalues --    0.07353   0.07851   0.07928   0.08239   0.08325
 Alpha virt. eigenvalues --    0.08422   0.08666   0.08943   0.09068   0.09207
 Alpha virt. eigenvalues --    0.09425   0.09720   0.10077   0.10386   0.10431
 Alpha virt. eigenvalues --    0.10739   0.10941   0.11046   0.11162   0.11507
 Alpha virt. eigenvalues --    0.11761   0.11980   0.12042   0.12291   0.12469
 Alpha virt. eigenvalues --    0.12665   0.12868   0.12921   0.13121   0.13326
 Alpha virt. eigenvalues --    0.13458   0.13694   0.13851   0.14085   0.14390
 Alpha virt. eigenvalues --    0.14488   0.14648   0.14846   0.15034   0.15318
 Alpha virt. eigenvalues --    0.15619   0.15715   0.15737   0.15875   0.16183
 Alpha virt. eigenvalues --    0.16210   0.16381   0.16601   0.16954   0.17008
 Alpha virt. eigenvalues --    0.17271   0.17419   0.17868   0.17964   0.18074
 Alpha virt. eigenvalues --    0.18154   0.18577   0.18830   0.19188   0.19341
 Alpha virt. eigenvalues --    0.19451   0.19821   0.19959   0.20159   0.20313
 Alpha virt. eigenvalues --    0.20389   0.20725   0.21085   0.21280   0.21589
 Alpha virt. eigenvalues --    0.21668   0.21726   0.22143   0.22462   0.22709
 Alpha virt. eigenvalues --    0.22993   0.23092   0.23460   0.23644   0.23927
 Alpha virt. eigenvalues --    0.24048   0.24396   0.24458   0.24549   0.24896
 Alpha virt. eigenvalues --    0.25119   0.25371   0.25686   0.25768   0.25996
 Alpha virt. eigenvalues --    0.26294   0.26777   0.26885   0.26975   0.27322
 Alpha virt. eigenvalues --    0.27537   0.27644   0.28093   0.28323   0.28618
 Alpha virt. eigenvalues --    0.28789   0.28855   0.29175   0.29380   0.29393
 Alpha virt. eigenvalues --    0.29673   0.30070   0.30170   0.30316   0.30618
 Alpha virt. eigenvalues --    0.30739   0.30895   0.31045   0.31406   0.31747
 Alpha virt. eigenvalues --    0.31830   0.31871   0.32177   0.32287   0.32373
 Alpha virt. eigenvalues --    0.32381   0.32749   0.32891   0.32952   0.33157
 Alpha virt. eigenvalues --    0.33457   0.33701   0.33859   0.34051   0.34319
 Alpha virt. eigenvalues --    0.34662   0.34700   0.34859   0.34914   0.35014
 Alpha virt. eigenvalues --    0.35277   0.35501   0.35584   0.35665   0.35733
 Alpha virt. eigenvalues --    0.35918   0.36169   0.36274   0.36304   0.36621
 Alpha virt. eigenvalues --    0.36790   0.36918   0.37214   0.37335   0.37464
 Alpha virt. eigenvalues --    0.37686   0.37836   0.38076   0.38092   0.38368
 Alpha virt. eigenvalues --    0.38556   0.38809   0.38918   0.38966   0.39129
 Alpha virt. eigenvalues --    0.39275   0.39530   0.39559   0.39630   0.39933
 Alpha virt. eigenvalues --    0.40178   0.40265   0.40688   0.40756   0.41011
 Alpha virt. eigenvalues --    0.41318   0.41486   0.41530   0.41691   0.41845
 Alpha virt. eigenvalues --    0.41880   0.42224   0.42364   0.42583   0.42706
 Alpha virt. eigenvalues --    0.42940   0.43069   0.43148   0.43273   0.43447
 Alpha virt. eigenvalues --    0.43662   0.43808   0.44022   0.44116   0.44386
 Alpha virt. eigenvalues --    0.44486   0.44549   0.45100   0.45179   0.45321
 Alpha virt. eigenvalues --    0.45476   0.45637   0.45856   0.46119   0.46382
 Alpha virt. eigenvalues --    0.46498   0.46682   0.47075   0.47148   0.47255
 Alpha virt. eigenvalues --    0.47524   0.47543   0.47641   0.47808   0.48138
 Alpha virt. eigenvalues --    0.48525   0.48617   0.48828   0.49222   0.49408
 Alpha virt. eigenvalues --    0.49556   0.49863   0.50187   0.50292   0.50526
 Alpha virt. eigenvalues --    0.50591   0.50799   0.50908   0.51203   0.51767
 Alpha virt. eigenvalues --    0.52048   0.52303   0.52564   0.52603   0.52908
 Alpha virt. eigenvalues --    0.53126   0.53361   0.53521   0.53992   0.54140
 Alpha virt. eigenvalues --    0.54360   0.54504   0.54617   0.54807   0.55180
 Alpha virt. eigenvalues --    0.55557   0.55663   0.56139   0.56265   0.56498
 Alpha virt. eigenvalues --    0.56582   0.57231   0.57340   0.57602   0.57937
 Alpha virt. eigenvalues --    0.58088   0.58170   0.58568   0.58654   0.58911
 Alpha virt. eigenvalues --    0.59170   0.59289   0.59647   0.60032   0.60142
 Alpha virt. eigenvalues --    0.60535   0.60856   0.61111   0.61261   0.61601
 Alpha virt. eigenvalues --    0.62053   0.62152   0.62300   0.62404   0.62766
 Alpha virt. eigenvalues --    0.62877   0.62965   0.63758   0.63841   0.63981
 Alpha virt. eigenvalues --    0.64347   0.64663   0.64990   0.65294   0.65840
 Alpha virt. eigenvalues --    0.65941   0.66196   0.66402   0.66737   0.66911
 Alpha virt. eigenvalues --    0.67050   0.67252   0.67794   0.68072   0.68421
 Alpha virt. eigenvalues --    0.68822   0.68962   0.69308   0.69561   0.69875
 Alpha virt. eigenvalues --    0.70095   0.70133   0.70529   0.70816   0.71157
 Alpha virt. eigenvalues --    0.71479   0.71650   0.71906   0.72361   0.72655
 Alpha virt. eigenvalues --    0.73039   0.73217   0.73622   0.73646   0.74324
 Alpha virt. eigenvalues --    0.74371   0.74584   0.75131   0.75789   0.76083
 Alpha virt. eigenvalues --    0.76257   0.76539   0.76776   0.76990   0.77385
 Alpha virt. eigenvalues --    0.77536   0.77661   0.77920   0.78222   0.78287
 Alpha virt. eigenvalues --    0.78510   0.79066   0.79159   0.79586   0.79858
 Alpha virt. eigenvalues --    0.80186   0.80469   0.80675   0.80871   0.81068
 Alpha virt. eigenvalues --    0.81258   0.81644   0.82233   0.82645   0.82699
 Alpha virt. eigenvalues --    0.82927   0.83391   0.83572   0.83787   0.84002
 Alpha virt. eigenvalues --    0.84124   0.84674   0.84995   0.85140   0.85377
 Alpha virt. eigenvalues --    0.85579   0.85744   0.86064   0.86324   0.86432
 Alpha virt. eigenvalues --    0.86711   0.86818   0.87248   0.87325   0.87987
 Alpha virt. eigenvalues --    0.88112   0.88414   0.88578   0.88729   0.88861
 Alpha virt. eigenvalues --    0.89132   0.89540   0.89892   0.90089   0.90119
 Alpha virt. eigenvalues --    0.90370   0.90620   0.90796   0.91088   0.91668
 Alpha virt. eigenvalues --    0.91955   0.92278   0.92774   0.92871   0.93054
 Alpha virt. eigenvalues --    0.93450   0.93815   0.94109   0.94196   0.94427
 Alpha virt. eigenvalues --    0.94745   0.95109   0.95297   0.95338   0.95510
 Alpha virt. eigenvalues --    0.95945   0.96373   0.96437   0.96767   0.97077
 Alpha virt. eigenvalues --    0.97285   0.97445   0.97717   0.98031   0.98190
 Alpha virt. eigenvalues --    0.98522   0.98649   0.99297   0.99671   0.99952
 Alpha virt. eigenvalues --    1.00485   1.00595   1.00990   1.01355   1.01422
 Alpha virt. eigenvalues --    1.02037   1.02193   1.02541   1.02709   1.03051
 Alpha virt. eigenvalues --    1.03364   1.03420   1.04013   1.04102   1.04418
 Alpha virt. eigenvalues --    1.04658   1.04913   1.05411   1.05764   1.06510
 Alpha virt. eigenvalues --    1.06682   1.07104   1.07175   1.07239   1.07851
 Alpha virt. eigenvalues --    1.08079   1.08280   1.08761   1.09075   1.09188
 Alpha virt. eigenvalues --    1.09462   1.09604   1.10497   1.10744   1.11252
 Alpha virt. eigenvalues --    1.11615   1.11852   1.11996   1.12287   1.12671
 Alpha virt. eigenvalues --    1.13443   1.13607   1.13703   1.13810   1.14136
 Alpha virt. eigenvalues --    1.14408   1.14982   1.15141   1.16263   1.16534
 Alpha virt. eigenvalues --    1.16807   1.17087   1.17793   1.18031   1.18257
 Alpha virt. eigenvalues --    1.18935   1.19036   1.19214   1.19653   1.20037
 Alpha virt. eigenvalues --    1.20198   1.20868   1.21235   1.21405   1.21624
 Alpha virt. eigenvalues --    1.21718   1.22006   1.22274   1.22555   1.23245
 Alpha virt. eigenvalues --    1.23494   1.23784   1.24261   1.24593   1.25026
 Alpha virt. eigenvalues --    1.25177   1.25669   1.25791   1.26204   1.26470
 Alpha virt. eigenvalues --    1.27042   1.27354   1.27688   1.27922   1.28372
 Alpha virt. eigenvalues --    1.28968   1.29378   1.29717   1.29808   1.30477
 Alpha virt. eigenvalues --    1.30600   1.31024   1.31724   1.32289   1.32679
 Alpha virt. eigenvalues --    1.33115   1.33426   1.33627   1.34640   1.34963
 Alpha virt. eigenvalues --    1.35246   1.35750   1.35965   1.36602   1.36850
 Alpha virt. eigenvalues --    1.37178   1.37730   1.37948   1.38278   1.38469
 Alpha virt. eigenvalues --    1.39068   1.39274   1.39722   1.40040   1.40319
 Alpha virt. eigenvalues --    1.40582   1.40770   1.41248   1.41563   1.41963
 Alpha virt. eigenvalues --    1.42091   1.42411   1.42763   1.42933   1.43370
 Alpha virt. eigenvalues --    1.43673   1.43881   1.44248   1.44317   1.44800
 Alpha virt. eigenvalues --    1.44961   1.45337   1.45562   1.45756   1.45977
 Alpha virt. eigenvalues --    1.46332   1.46656   1.46713   1.47079   1.47332
 Alpha virt. eigenvalues --    1.47463   1.47633   1.47874   1.48116   1.48357
 Alpha virt. eigenvalues --    1.48751   1.49112   1.49258   1.49375   1.49840
 Alpha virt. eigenvalues --    1.50311   1.50466   1.50696   1.50797   1.51062
 Alpha virt. eigenvalues --    1.51275   1.51648   1.51889   1.52065   1.52223
 Alpha virt. eigenvalues --    1.52676   1.52740   1.52757   1.52947   1.53259
 Alpha virt. eigenvalues --    1.53486   1.53544   1.53932   1.54546   1.54745
 Alpha virt. eigenvalues --    1.54934   1.55182   1.55321   1.55710   1.55841
 Alpha virt. eigenvalues --    1.56206   1.56466   1.56784   1.57181   1.57604
 Alpha virt. eigenvalues --    1.57790   1.57993   1.58552   1.58687   1.58885
 Alpha virt. eigenvalues --    1.58912   1.59316   1.59497   1.59770   1.59934
 Alpha virt. eigenvalues --    1.59999   1.60200   1.60514   1.61017   1.61342
 Alpha virt. eigenvalues --    1.61865   1.62082   1.62374   1.62652   1.62983
 Alpha virt. eigenvalues --    1.63365   1.63521   1.63567   1.64042   1.64153
 Alpha virt. eigenvalues --    1.64429   1.64665   1.64946   1.65382   1.65578
 Alpha virt. eigenvalues --    1.65669   1.66295   1.66353   1.66645   1.67063
 Alpha virt. eigenvalues --    1.67199   1.67684   1.67956   1.68056   1.68341
 Alpha virt. eigenvalues --    1.68812   1.68983   1.69408   1.69753   1.70271
 Alpha virt. eigenvalues --    1.70508   1.70991   1.71190   1.71422   1.71698
 Alpha virt. eigenvalues --    1.72026   1.72292   1.72645   1.72867   1.73372
 Alpha virt. eigenvalues --    1.73849   1.74004   1.74362   1.74764   1.75168
 Alpha virt. eigenvalues --    1.75641   1.75807   1.76277   1.76608   1.76823
 Alpha virt. eigenvalues --    1.77145   1.77528   1.78170   1.78680   1.78954
 Alpha virt. eigenvalues --    1.79028   1.79519   1.80044   1.80277   1.80500
 Alpha virt. eigenvalues --    1.80803   1.81303   1.81475   1.82023   1.82109
 Alpha virt. eigenvalues --    1.82334   1.82551   1.83040   1.83700   1.83946
 Alpha virt. eigenvalues --    1.84142   1.84667   1.84790   1.84971   1.85172
 Alpha virt. eigenvalues --    1.85805   1.86152   1.86352   1.86703   1.87032
 Alpha virt. eigenvalues --    1.87646   1.87818   1.88084   1.88397   1.88605
 Alpha virt. eigenvalues --    1.89061   1.89198   1.89524   1.89731   1.89834
 Alpha virt. eigenvalues --    1.90226   1.90811   1.90895   1.91165   1.91396
 Alpha virt. eigenvalues --    1.91748   1.92048   1.92712   1.92857   1.93020
 Alpha virt. eigenvalues --    1.93601   1.94201   1.94227   1.94610   1.95089
 Alpha virt. eigenvalues --    1.95503   1.95590   1.96090   1.96397   1.96782
 Alpha virt. eigenvalues --    1.97013   1.97508   1.97719   1.98140   1.98625
 Alpha virt. eigenvalues --    1.99228   1.99662   1.99764   2.00188   2.00527
 Alpha virt. eigenvalues --    2.00541   2.00822   2.00995   2.01271   2.01567
 Alpha virt. eigenvalues --    2.02120   2.02426   2.02508   2.03177   2.03467
 Alpha virt. eigenvalues --    2.04012   2.04147   2.04620   2.04772   2.04873
 Alpha virt. eigenvalues --    2.05288   2.05404   2.05717   2.05973   2.06287
 Alpha virt. eigenvalues --    2.06926   2.07129   2.07554   2.07896   2.08121
 Alpha virt. eigenvalues --    2.08478   2.08592   2.09012   2.09435   2.10129
 Alpha virt. eigenvalues --    2.10351   2.10442   2.10865   2.11184   2.11683
 Alpha virt. eigenvalues --    2.11959   2.12208   2.12275   2.13058   2.13124
 Alpha virt. eigenvalues --    2.13686   2.13916   2.14254   2.14619   2.14875
 Alpha virt. eigenvalues --    2.15182   2.15753   2.16287   2.16613   2.16861
 Alpha virt. eigenvalues --    2.17350   2.17500   2.18174   2.18289   2.18838
 Alpha virt. eigenvalues --    2.18887   2.19385   2.19736   2.20158   2.20370
 Alpha virt. eigenvalues --    2.20811   2.21004   2.21387   2.21909   2.22517
 Alpha virt. eigenvalues --    2.22806   2.22880   2.23298   2.23913   2.24259
 Alpha virt. eigenvalues --    2.24481   2.24577   2.24913   2.25502   2.25885
 Alpha virt. eigenvalues --    2.26192   2.26463   2.26982   2.27490   2.27642
 Alpha virt. eigenvalues --    2.28124   2.28351   2.28803   2.28885   2.29282
 Alpha virt. eigenvalues --    2.30040   2.30198   2.30443   2.30669   2.30789
 Alpha virt. eigenvalues --    2.31050   2.31196   2.31321   2.31661   2.32090
 Alpha virt. eigenvalues --    2.32185   2.32589   2.32734   2.33065   2.33698
 Alpha virt. eigenvalues --    2.33853   2.34533   2.34953   2.35315   2.35518
 Alpha virt. eigenvalues --    2.35791   2.36202   2.36252   2.36532   2.37071
 Alpha virt. eigenvalues --    2.37591   2.37940   2.38103   2.38184   2.39349
 Alpha virt. eigenvalues --    2.39507   2.40110   2.40539   2.40758   2.41246
 Alpha virt. eigenvalues --    2.41410   2.42144   2.42463   2.42654   2.43219
 Alpha virt. eigenvalues --    2.43469   2.44171   2.44647   2.44732   2.45039
 Alpha virt. eigenvalues --    2.45065   2.45379   2.45461   2.46147   2.46314
 Alpha virt. eigenvalues --    2.46702   2.46926   2.47191   2.47367   2.47528
 Alpha virt. eigenvalues --    2.47609   2.48193   2.48479   2.48559   2.48937
 Alpha virt. eigenvalues --    2.49114   2.49253   2.49751   2.50043   2.50234
 Alpha virt. eigenvalues --    2.50769   2.50954   2.51185   2.51369   2.52140
 Alpha virt. eigenvalues --    2.52318   2.52719   2.52900   2.53230   2.53553
 Alpha virt. eigenvalues --    2.53985   2.54309   2.54524   2.54867   2.55079
 Alpha virt. eigenvalues --    2.55308   2.55843   2.56004   2.56290   2.56688
 Alpha virt. eigenvalues --    2.56867   2.57175   2.57361   2.57631   2.57744
 Alpha virt. eigenvalues --    2.58163   2.58331   2.58963   2.59161   2.59614
 Alpha virt. eigenvalues --    2.59997   2.60109   2.60523   2.60650   2.60952
 Alpha virt. eigenvalues --    2.61698   2.61970   2.62109   2.62692   2.63009
 Alpha virt. eigenvalues --    2.63246   2.63495   2.63760   2.64254   2.64582
 Alpha virt. eigenvalues --    2.64856   2.65005   2.65319   2.65396   2.66148
 Alpha virt. eigenvalues --    2.66344   2.66773   2.67006   2.67168   2.67714
 Alpha virt. eigenvalues --    2.67951   2.68426   2.68604   2.68950   2.69735
 Alpha virt. eigenvalues --    2.69802   2.70168   2.70627   2.71046   2.71286
 Alpha virt. eigenvalues --    2.71714   2.71939   2.72154   2.72488   2.72630
 Alpha virt. eigenvalues --    2.72786   2.73163   2.73505   2.73886   2.74132
 Alpha virt. eigenvalues --    2.74576   2.74704   2.75349   2.75571   2.75935
 Alpha virt. eigenvalues --    2.76216   2.76628   2.76819   2.76905   2.77659
 Alpha virt. eigenvalues --    2.77756   2.77934   2.78323   2.78703   2.79253
 Alpha virt. eigenvalues --    2.79442   2.79569   2.79700   2.79920   2.80648
 Alpha virt. eigenvalues --    2.80817   2.81383   2.81711   2.82331   2.82918
 Alpha virt. eigenvalues --    2.83220   2.83627   2.83840   2.84026   2.84716
 Alpha virt. eigenvalues --    2.84922   2.85371   2.85790   2.85917   2.86340
 Alpha virt. eigenvalues --    2.86477   2.86646   2.86871   2.87235   2.87378
 Alpha virt. eigenvalues --    2.87796   2.88035   2.88159   2.88745   2.88808
 Alpha virt. eigenvalues --    2.89116   2.89386   2.89935   2.90275   2.90342
 Alpha virt. eigenvalues --    2.90482   2.90820   2.91177   2.91374   2.91907
 Alpha virt. eigenvalues --    2.92060   2.92436   2.92726   2.93014   2.93200
 Alpha virt. eigenvalues --    2.93505   2.94079   2.94386   2.94596   2.95098
 Alpha virt. eigenvalues --    2.95220   2.95553   2.95663   2.95827   2.96094
 Alpha virt. eigenvalues --    2.96381   2.96702   2.97126   2.97191   2.97382
 Alpha virt. eigenvalues --    2.98082   2.98187   2.98447   2.98889   2.98988
 Alpha virt. eigenvalues --    2.99078   2.99419   3.00251   3.00366   3.01177
 Alpha virt. eigenvalues --    3.01272   3.01468   3.01606   3.02047   3.02156
 Alpha virt. eigenvalues --    3.02449   3.02825   3.02894   3.03280   3.03564
 Alpha virt. eigenvalues --    3.03667   3.03980   3.04207   3.04417   3.04455
 Alpha virt. eigenvalues --    3.04823   3.05140   3.05354   3.05433   3.05952
 Alpha virt. eigenvalues --    3.06202   3.06306   3.06478   3.06630   3.07018
 Alpha virt. eigenvalues --    3.07278   3.07474   3.07776   3.08426   3.08521
 Alpha virt. eigenvalues --    3.08719   3.08940   3.09109   3.09474   3.09698
 Alpha virt. eigenvalues --    3.10190   3.10291   3.10797   3.11215   3.11677
 Alpha virt. eigenvalues --    3.11820   3.11909   3.12399   3.12752   3.13179
 Alpha virt. eigenvalues --    3.13375   3.13842   3.14041   3.14263   3.14541
 Alpha virt. eigenvalues --    3.14892   3.15020   3.15064   3.15690   3.15796
 Alpha virt. eigenvalues --    3.16007   3.16172   3.16260   3.16561   3.17021
 Alpha virt. eigenvalues --    3.17078   3.17511   3.18013   3.18066   3.18266
 Alpha virt. eigenvalues --    3.18382   3.18630   3.18736   3.19225   3.19494
 Alpha virt. eigenvalues --    3.19713   3.19903   3.20122   3.20443   3.20692
 Alpha virt. eigenvalues --    3.20834   3.20941   3.21371   3.21508   3.21772
 Alpha virt. eigenvalues --    3.22010   3.22374   3.22645   3.22807   3.22991
 Alpha virt. eigenvalues --    3.23097   3.23394   3.23453   3.23900   3.23998
 Alpha virt. eigenvalues --    3.24247   3.24567   3.25079   3.25263   3.25786
 Alpha virt. eigenvalues --    3.25861   3.25966   3.26109   3.26411   3.26934
 Alpha virt. eigenvalues --    3.26952   3.27287   3.27532   3.27852   3.27993
 Alpha virt. eigenvalues --    3.28326   3.28471   3.28843   3.28947   3.29052
 Alpha virt. eigenvalues --    3.29604   3.29797   3.30105   3.30456   3.30683
 Alpha virt. eigenvalues --    3.30823   3.31043   3.31128   3.31425   3.32020
 Alpha virt. eigenvalues --    3.32188   3.32396   3.32558   3.32759   3.33093
 Alpha virt. eigenvalues --    3.33157   3.33480   3.33939   3.34163   3.34364
 Alpha virt. eigenvalues --    3.34488   3.35011   3.35140   3.35514   3.35707
 Alpha virt. eigenvalues --    3.36164   3.36239   3.36481   3.36888   3.36966
 Alpha virt. eigenvalues --    3.37637   3.37817   3.38264   3.38448   3.38677
 Alpha virt. eigenvalues --    3.39250   3.39679   3.39970   3.40404   3.40665
 Alpha virt. eigenvalues --    3.40831   3.40931   3.41357   3.41881   3.41912
 Alpha virt. eigenvalues --    3.42210   3.42404   3.42673   3.42950   3.43309
 Alpha virt. eigenvalues --    3.43820   3.44515   3.44588   3.44687   3.45114
 Alpha virt. eigenvalues --    3.45260   3.45443   3.45644   3.46170   3.46366
 Alpha virt. eigenvalues --    3.46542   3.46768   3.47026   3.47414   3.47754
 Alpha virt. eigenvalues --    3.47983   3.48466   3.48964   3.48996   3.49551
 Alpha virt. eigenvalues --    3.49788   3.50057   3.50357   3.50452   3.50949
 Alpha virt. eigenvalues --    3.51068   3.51351   3.52585   3.52821   3.53267
 Alpha virt. eigenvalues --    3.53480   3.53846   3.54207   3.54352   3.54656
 Alpha virt. eigenvalues --    3.54791   3.55372   3.55701   3.56108   3.56395
 Alpha virt. eigenvalues --    3.56759   3.57118   3.57384   3.57901   3.58409
 Alpha virt. eigenvalues --    3.58820   3.59467   3.59646   3.60137   3.60604
 Alpha virt. eigenvalues --    3.60842   3.61388   3.61475   3.61633   3.62091
 Alpha virt. eigenvalues --    3.62540   3.62823   3.63057   3.63286   3.63469
 Alpha virt. eigenvalues --    3.64427   3.64776   3.64946   3.65179   3.65682
 Alpha virt. eigenvalues --    3.65974   3.66191   3.66514   3.66845   3.66954
 Alpha virt. eigenvalues --    3.67333   3.67789   3.67991   3.68576   3.69004
 Alpha virt. eigenvalues --    3.69423   3.69482   3.69966   3.70448   3.71228
 Alpha virt. eigenvalues --    3.71781   3.72190   3.72652   3.72985   3.73209
 Alpha virt. eigenvalues --    3.73477   3.73931   3.74171   3.74296   3.75146
 Alpha virt. eigenvalues --    3.75261   3.75537   3.75834   3.76372   3.76887
 Alpha virt. eigenvalues --    3.77234   3.77622   3.78144   3.78690   3.78990
 Alpha virt. eigenvalues --    3.79090   3.79130   3.79408   3.80015   3.80317
 Alpha virt. eigenvalues --    3.81158   3.81487   3.81766   3.82004   3.82858
 Alpha virt. eigenvalues --    3.83493   3.83702   3.84003   3.84693   3.85971
 Alpha virt. eigenvalues --    3.86120   3.86504   3.86854   3.87271   3.87641
 Alpha virt. eigenvalues --    3.88419   3.88572   3.89009   3.89090   3.89839
 Alpha virt. eigenvalues --    3.90294   3.90620   3.90844   3.91447   3.91684
 Alpha virt. eigenvalues --    3.92110   3.92662   3.93051   3.93651   3.94097
 Alpha virt. eigenvalues --    3.94990   3.95653   3.96087   3.96524   3.96965
 Alpha virt. eigenvalues --    3.97453   3.97635   3.98722   3.99022   3.99124
 Alpha virt. eigenvalues --    3.99586   3.99667   4.00256   4.00595   4.00965
 Alpha virt. eigenvalues --    4.02048   4.02179   4.02992   4.03379   4.03828
 Alpha virt. eigenvalues --    4.04558   4.04614   4.05865   4.05949   4.06546
 Alpha virt. eigenvalues --    4.06672   4.07303   4.07406   4.08287   4.09080
 Alpha virt. eigenvalues --    4.09283   4.09695   4.11096   4.11426   4.11690
 Alpha virt. eigenvalues --    4.12530   4.12815   4.13400   4.13882   4.14196
 Alpha virt. eigenvalues --    4.14981   4.16017   4.16104   4.16493   4.16779
 Alpha virt. eigenvalues --    4.17538   4.17787   4.17909   4.18067   4.19010
 Alpha virt. eigenvalues --    4.19184   4.19791   4.20377   4.20978   4.21124
 Alpha virt. eigenvalues --    4.21404   4.22408   4.22623   4.22984   4.23202
 Alpha virt. eigenvalues --    4.23824   4.24453   4.25083   4.25488   4.26114
 Alpha virt. eigenvalues --    4.26865   4.27702   4.28090   4.28171   4.29214
 Alpha virt. eigenvalues --    4.29494   4.29668   4.30277   4.30749   4.32200
 Alpha virt. eigenvalues --    4.32680   4.33042   4.33301   4.33674   4.34808
 Alpha virt. eigenvalues --    4.35341   4.36338   4.36759   4.37051   4.37555
 Alpha virt. eigenvalues --    4.37978   4.38973   4.39163   4.39721   4.39953
 Alpha virt. eigenvalues --    4.40266   4.40612   4.41261   4.42103   4.42403
 Alpha virt. eigenvalues --    4.42873   4.43385   4.44191   4.44355   4.44786
 Alpha virt. eigenvalues --    4.45256   4.45664   4.46259   4.47030   4.47433
 Alpha virt. eigenvalues --    4.47742   4.48886   4.49254   4.49446   4.49987
 Alpha virt. eigenvalues --    4.50601   4.51709   4.52206   4.52636   4.53580
 Alpha virt. eigenvalues --    4.53978   4.54526   4.54873   4.56696   4.57496
 Alpha virt. eigenvalues --    4.57722   4.57979   4.58801   4.59946   4.60907
 Alpha virt. eigenvalues --    4.61233   4.61425   4.61952   4.62783   4.63154
 Alpha virt. eigenvalues --    4.63493   4.64043   4.64472   4.64738   4.65093
 Alpha virt. eigenvalues --    4.65208   4.66314   4.67519   4.68081   4.68998
 Alpha virt. eigenvalues --    4.69708   4.69896   4.70552   4.71374   4.71564
 Alpha virt. eigenvalues --    4.72113   4.72875   4.73985   4.75178   4.75526
 Alpha virt. eigenvalues --    4.75996   4.76741   4.77279   4.77488   4.78250
 Alpha virt. eigenvalues --    4.79050   4.79165   4.80066   4.80811   4.81028
 Alpha virt. eigenvalues --    4.81440   4.82509   4.83321   4.83669   4.84190
 Alpha virt. eigenvalues --    4.85964   4.86747   4.87118   4.87289   4.88452
 Alpha virt. eigenvalues --    4.88743   4.89406   4.90251   4.90519   4.92091
 Alpha virt. eigenvalues --    4.92731   4.93314   4.94475   4.94984   4.95136
 Alpha virt. eigenvalues --    4.95519   4.97254   4.98697   4.99205   4.99823
 Alpha virt. eigenvalues --    5.00342   5.01038   5.01419   5.02072   5.04108
 Alpha virt. eigenvalues --    5.04903   5.05713   5.07947   5.08332   5.08787
 Alpha virt. eigenvalues --    5.10317   5.10648   5.12110   5.12321   5.12671
 Alpha virt. eigenvalues --    5.13475   5.13913   5.14941   5.15248   5.16022
 Alpha virt. eigenvalues --    5.16766   5.16944   5.18925   5.20511   5.20731
 Alpha virt. eigenvalues --    5.21821   5.22178   5.23090   5.23787   5.24614
 Alpha virt. eigenvalues --    5.24959   5.27346   5.27972   5.28872   5.29339
 Alpha virt. eigenvalues --    5.30968   5.31382   5.32005   5.32326   5.32625
 Alpha virt. eigenvalues --    5.34095   5.34600   5.35889   5.37662   5.38308
 Alpha virt. eigenvalues --    5.40402   5.41203   5.41672   5.42280   5.43931
 Alpha virt. eigenvalues --    5.44343   5.45302   5.47545   5.48996   5.50322
 Alpha virt. eigenvalues --    5.50653   5.51298   5.52441   5.53138   5.55463
 Alpha virt. eigenvalues --    5.56821   5.57109   5.57665   5.58135   5.59557
 Alpha virt. eigenvalues --    5.60873   5.62551   5.63079   5.65210   5.67557
 Alpha virt. eigenvalues --    5.68130   5.69494   5.71896   5.73582   5.77672
 Alpha virt. eigenvalues --    5.79754   5.86735   5.86919   5.87659   5.88764
 Alpha virt. eigenvalues --    5.89626   5.90165   5.91189   5.92261   5.93389
 Alpha virt. eigenvalues --    5.94793   5.95793   5.96807   5.99434   6.01127
 Alpha virt. eigenvalues --    6.03712   6.05524   6.05856   6.07004   6.07880
 Alpha virt. eigenvalues --    6.08710   6.12307   6.16676   6.18223   6.20211
 Alpha virt. eigenvalues --    6.26647   6.28399   6.29760   6.31194   6.31842
 Alpha virt. eigenvalues --    6.35704   6.39097   6.40275   6.40540   6.44679
 Alpha virt. eigenvalues --    6.48028   6.57967   6.59866   6.62543   6.67979
 Alpha virt. eigenvalues --    6.75132   6.78564   6.79086   6.87964   6.88819
 Alpha virt. eigenvalues --    6.94390   6.99583   7.01868   7.02995   7.08243
 Alpha virt. eigenvalues --    7.15466   7.25464   9.16681   9.36136   9.50135
 Alpha virt. eigenvalues --   20.08243  22.29553  22.40546  22.41935  22.42049
 Alpha virt. eigenvalues --   22.46151  22.47301  22.48505  22.48742  22.49201
 Alpha virt. eigenvalues --   22.50304  22.56114  22.59195  22.61029  22.64344
 Alpha virt. eigenvalues --   22.67561  22.67998  22.70821  22.87989  22.89083
 Alpha virt. eigenvalues --   22.91909  22.93077  22.94336  22.96294  23.03083
 Alpha virt. eigenvalues --   23.03675  23.12350  23.15788  23.24702  23.31085
 Alpha virt. eigenvalues --   23.34630  23.35313  23.36721  23.38054  23.42786
 Alpha virt. eigenvalues --   23.45939  23.48018  23.55543  23.67664  23.76312
 Alpha virt. eigenvalues --   23.80547  23.90554  32.35446  32.70124  32.93251
 Alpha virt. eigenvalues --   32.98043  33.03442  33.08075  43.82891  43.84026
 Alpha virt. eigenvalues --   43.87722  43.91876
  Beta  occ. eigenvalues -- -256.50435 -89.16933 -30.26841 -26.09877 -26.09777
  Beta  occ. eigenvalues --  -26.08903 -19.34688 -19.33239 -19.24754 -19.24298
  Beta  occ. eigenvalues --  -14.56456 -14.52505 -14.48945 -14.48389 -14.48159
  Beta  occ. eigenvalues --  -14.47989 -10.43220 -10.42430 -10.40194 -10.37271
  Beta  occ. eigenvalues --  -10.35505 -10.35118 -10.35073 -10.35004 -10.34977
  Beta  occ. eigenvalues --  -10.34951 -10.34823 -10.34762 -10.34445 -10.34091
  Beta  occ. eigenvalues --  -10.33246 -10.32909 -10.32824 -10.32654 -10.32555
  Beta  occ. eigenvalues --  -10.32285 -10.32258 -10.32244 -10.32186 -10.32138
  Beta  occ. eigenvalues --  -10.31957 -10.31828 -10.31783 -10.31368 -10.31329
  Beta  occ. eigenvalues --  -10.31225 -10.31186 -10.30604 -10.30591 -10.30558
  Beta  occ. eigenvalues --  -10.30327 -10.30269 -10.30173 -10.29894 -10.28499
  Beta  occ. eigenvalues --  -10.28105 -10.28065  -8.14350  -6.08112  -6.07662
  Beta  occ. eigenvalues --   -6.07180  -3.59158  -2.34504  -2.34243  -2.34017
  Beta  occ. eigenvalues --   -1.25327  -1.25118  -1.17048  -1.10575  -1.09698
  Beta  occ. eigenvalues --   -1.09039  -1.08328  -1.07454  -1.05996  -1.02942
  Beta  occ. eigenvalues --   -0.96761  -0.95572  -0.94091  -0.93541  -0.92944
  Beta  occ. eigenvalues --   -0.92604  -0.92136  -0.91880  -0.91001  -0.89481
  Beta  occ. eigenvalues --   -0.88751  -0.88547  -0.87406  -0.86981  -0.86339
  Beta  occ. eigenvalues --   -0.84601  -0.82703  -0.82437  -0.81939  -0.81091
  Beta  occ. eigenvalues --   -0.79962  -0.79577  -0.78973  -0.78290  -0.77207
  Beta  occ. eigenvalues --   -0.77095  -0.76695  -0.74429  -0.73457  -0.73227
  Beta  occ. eigenvalues --   -0.72955  -0.72858  -0.70318  -0.70244  -0.69803
  Beta  occ. eigenvalues --   -0.67548  -0.67080  -0.66184  -0.65873  -0.63988
  Beta  occ. eigenvalues --   -0.63173  -0.63030  -0.62819  -0.62040  -0.61234
  Beta  occ. eigenvalues --   -0.60274  -0.59895  -0.59548  -0.59452  -0.59307
  Beta  occ. eigenvalues --   -0.59083  -0.58982  -0.58392  -0.58301  -0.57355
  Beta  occ. eigenvalues --   -0.57188  -0.56577  -0.56440  -0.56032  -0.55771
  Beta  occ. eigenvalues --   -0.55522  -0.55400  -0.54889  -0.54712  -0.54626
  Beta  occ. eigenvalues --   -0.54386  -0.54296  -0.53944  -0.53734  -0.53400
  Beta  occ. eigenvalues --   -0.53066  -0.52779  -0.52705  -0.52532  -0.52127
  Beta  occ. eigenvalues --   -0.52040  -0.51591  -0.51448  -0.51118  -0.50815
  Beta  occ. eigenvalues --   -0.50775  -0.50708  -0.50159  -0.49994  -0.49833
  Beta  occ. eigenvalues --   -0.48742  -0.48681  -0.48401  -0.48243  -0.48060
  Beta  occ. eigenvalues --   -0.47821  -0.47405  -0.47288  -0.47084  -0.46864
  Beta  occ. eigenvalues --   -0.46794  -0.46393  -0.46358  -0.46131  -0.45898
  Beta  occ. eigenvalues --   -0.45646  -0.45302  -0.44898  -0.44592  -0.44168
  Beta  occ. eigenvalues --   -0.43894  -0.43762  -0.43395  -0.43100  -0.42569
  Beta  occ. eigenvalues --   -0.41853  -0.41582  -0.41500  -0.39690  -0.39459
  Beta  occ. eigenvalues --   -0.39122  -0.37926  -0.37873  -0.37140  -0.37010
  Beta  occ. eigenvalues --   -0.34822  -0.34610  -0.34332  -0.33876  -0.33422
  Beta  occ. eigenvalues --   -0.33274  -0.32182  -0.31387  -0.30824  -0.30303
  Beta virt. eigenvalues --   -0.19889  -0.18391  -0.16530  -0.14820  -0.13374
  Beta virt. eigenvalues --   -0.12145  -0.10567  -0.10366  -0.09778  -0.08700
  Beta virt. eigenvalues --   -0.07058  -0.06515  -0.06347  -0.05552  -0.04979
  Beta virt. eigenvalues --   -0.04759  -0.04464  -0.04191  -0.03477  -0.03387
  Beta virt. eigenvalues --   -0.03157  -0.02694  -0.02372  -0.02200  -0.02011
  Beta virt. eigenvalues --   -0.01771  -0.01661  -0.01336  -0.00917  -0.00719
  Beta virt. eigenvalues --   -0.00491  -0.00153   0.00020   0.00287   0.00741
  Beta virt. eigenvalues --    0.00945   0.01221   0.01708   0.01801   0.01907
  Beta virt. eigenvalues --    0.02393   0.02487   0.02931   0.03250   0.03381
  Beta virt. eigenvalues --    0.03717   0.03846   0.04196   0.04307   0.04456
  Beta virt. eigenvalues --    0.04572   0.04718   0.04972   0.05074   0.05335
  Beta virt. eigenvalues --    0.05563   0.05710   0.06039   0.06200   0.06388
  Beta virt. eigenvalues --    0.06491   0.06613   0.06688   0.06839   0.07068
  Beta virt. eigenvalues --    0.07251   0.07374   0.07861   0.07929   0.08248
  Beta virt. eigenvalues --    0.08328   0.08424   0.08670   0.08948   0.09069
  Beta virt. eigenvalues --    0.09220   0.09430   0.09734   0.10096   0.10390
  Beta virt. eigenvalues --    0.10442   0.10741   0.10966   0.11062   0.11181
  Beta virt. eigenvalues --    0.11507   0.11769   0.12006   0.12050   0.12301
  Beta virt. eigenvalues --    0.12484   0.12704   0.12872   0.12926   0.13175
  Beta virt. eigenvalues --    0.13335   0.13469   0.13709   0.13867   0.14089
  Beta virt. eigenvalues --    0.14421   0.14521   0.14662   0.14869   0.15056
  Beta virt. eigenvalues --    0.15340   0.15649   0.15734   0.15761   0.15962
  Beta virt. eigenvalues --    0.16191   0.16232   0.16405   0.16613   0.16969
  Beta virt. eigenvalues --    0.17019   0.17285   0.17455   0.17906   0.17970
  Beta virt. eigenvalues --    0.18144   0.18165   0.18610   0.18872   0.19222
  Beta virt. eigenvalues --    0.19351   0.19505   0.19828   0.20007   0.20190
  Beta virt. eigenvalues --    0.20334   0.20413   0.20730   0.21121   0.21284
  Beta virt. eigenvalues --    0.21616   0.21697   0.21742   0.22141   0.22470
  Beta virt. eigenvalues --    0.22739   0.23031   0.23123   0.23476   0.23659
  Beta virt. eigenvalues --    0.23953   0.24065   0.24403   0.24478   0.24551
  Beta virt. eigenvalues --    0.24902   0.25127   0.25380   0.25749   0.25786
  Beta virt. eigenvalues --    0.26027   0.26319   0.26803   0.26892   0.26996
  Beta virt. eigenvalues --    0.27356   0.27550   0.27685   0.28111   0.28336
  Beta virt. eigenvalues --    0.28633   0.28790   0.28929   0.29209   0.29388
  Beta virt. eigenvalues --    0.29409   0.29698   0.30117   0.30199   0.30348
  Beta virt. eigenvalues --    0.30671   0.30793   0.30908   0.31083   0.31411
  Beta virt. eigenvalues --    0.31777   0.31856   0.31932   0.32199   0.32319
  Beta virt. eigenvalues --    0.32406   0.32421   0.32760   0.32902   0.32964
  Beta virt. eigenvalues --    0.33170   0.33469   0.33723   0.33882   0.34065
  Beta virt. eigenvalues --    0.34362   0.34683   0.34759   0.34879   0.34938
  Beta virt. eigenvalues --    0.35052   0.35292   0.35536   0.35597   0.35696
  Beta virt. eigenvalues --    0.35790   0.35936   0.36182   0.36273   0.36317
  Beta virt. eigenvalues --    0.36637   0.36811   0.36955   0.37231   0.37336
  Beta virt. eigenvalues --    0.37467   0.37692   0.37842   0.38079   0.38097
  Beta virt. eigenvalues --    0.38367   0.38576   0.38819   0.38942   0.38971
  Beta virt. eigenvalues --    0.39134   0.39277   0.39536   0.39572   0.39648
  Beta virt. eigenvalues --    0.39943   0.40197   0.40278   0.40707   0.40765
  Beta virt. eigenvalues --    0.41020   0.41332   0.41496   0.41535   0.41698
  Beta virt. eigenvalues --    0.41862   0.41907   0.42227   0.42389   0.42610
  Beta virt. eigenvalues --    0.42730   0.42944   0.43081   0.43159   0.43297
  Beta virt. eigenvalues --    0.43476   0.43677   0.43815   0.44027   0.44124
  Beta virt. eigenvalues --    0.44412   0.44513   0.44553   0.45108   0.45184
  Beta virt. eigenvalues --    0.45341   0.45487   0.45651   0.45867   0.46139
  Beta virt. eigenvalues --    0.46387   0.46509   0.46689   0.47086   0.47162
  Beta virt. eigenvalues --    0.47256   0.47524   0.47563   0.47660   0.47821
  Beta virt. eigenvalues --    0.48158   0.48538   0.48637   0.48849   0.49230
  Beta virt. eigenvalues --    0.49435   0.49565   0.49872   0.50209   0.50298
  Beta virt. eigenvalues --    0.50523   0.50601   0.50822   0.50927   0.51221
  Beta virt. eigenvalues --    0.51779   0.52055   0.52333   0.52568   0.52615
  Beta virt. eigenvalues --    0.52929   0.53174   0.53401   0.53532   0.54054
  Beta virt. eigenvalues --    0.54159   0.54370   0.54523   0.54623   0.54814
  Beta virt. eigenvalues --    0.55197   0.55568   0.55667   0.56147   0.56278
  Beta virt. eigenvalues --    0.56508   0.56603   0.57242   0.57375   0.57616
  Beta virt. eigenvalues --    0.57960   0.58125   0.58188   0.58599   0.58680
  Beta virt. eigenvalues --    0.58924   0.59222   0.59298   0.59674   0.60078
[...]
  Beta virt. eigenvalues --    3.38360   3.38470   3.38571   3.38853   3.39322
  Beta virt. eigenvalues --    3.39696   3.39915   3.39984   3.40156   3.40439
  Beta virt. eigenvalues --    3.40682   3.40900   3.41028   3.41409   3.41488
  Beta virt. eigenvalues --    3.41846   3.42249   3.42519   3.42799   3.43230
  Beta virt. eigenvalues --    3.43450   3.43691   3.43782   3.44065   3.44345
  Beta virt. eigenvalues --    3.44603   3.45264   3.45469   3.45778   3.45991
  Beta virt. eigenvalues --    3.46432   3.46702   3.47299   3.47601   3.47902
  Beta virt. eigenvalues --    3.48149   3.48409   3.48544   3.48840   3.49374
  Beta virt. eigenvalues --    3.49553   3.49574   3.49971   3.50289   3.50365
  Beta virt. eigenvalues --    3.50838   3.51267   3.52013   3.52198   3.52307
  Beta virt. eigenvalues --    3.52570   3.52718   3.53092   3.53378   3.53724
  Beta virt. eigenvalues --    3.53944   3.54142   3.54325   3.54564   3.55027
  Beta virt. eigenvalues --    3.55576   3.55943   3.56067   3.56574   3.56687
  Beta virt. eigenvalues --    3.57281   3.57401   3.57579   3.57815   3.57966
  Beta virt. eigenvalues --    3.58701   3.59054   3.59135   3.60302   3.60541
  Beta virt. eigenvalues --    3.61042   3.61207   3.61567   3.61879   3.62170
  Beta virt. eigenvalues --    3.62285   3.62505   3.62982   3.63337   3.63750
  Beta virt. eigenvalues --    3.63983   3.64450   3.64826   3.65148   3.65612
  Beta virt. eigenvalues --    3.66057   3.66682   3.67156   3.67230   3.67865
  Beta virt. eigenvalues --    3.68336   3.68615   3.68959   3.69068   3.69551
  Beta virt. eigenvalues --    3.69719   3.70191   3.70496   3.70784   3.71105
  Beta virt. eigenvalues --    3.71433   3.72213   3.72542   3.72604   3.72809
  Beta virt. eigenvalues --    3.73406   3.73820   3.74156   3.74278   3.74496
  Beta virt. eigenvalues --    3.74553   3.74958   3.75368   3.75614   3.76229
  Beta virt. eigenvalues --    3.76592   3.76967   3.77185   3.77502   3.78019
  Beta virt. eigenvalues --    3.78785   3.79372   3.79782   3.80243   3.80487
  Beta virt. eigenvalues --    3.80782   3.81090   3.81587   3.81842   3.81926
  Beta virt. eigenvalues --    3.82817   3.82984   3.83310   3.83585   3.83965
  Beta virt. eigenvalues --    3.84545   3.84876   3.85202   3.86198   3.86407
  Beta virt. eigenvalues --    3.86460   3.86716   3.87035   3.87519   3.87969
  Beta virt. eigenvalues --    3.88212   3.88690   3.89183   3.89656   3.90124
  Beta virt. eigenvalues --    3.90591   3.91163   3.91270   3.91693   3.92487
  Beta virt. eigenvalues --    3.93690   3.94153   3.94264   3.94665   3.95151
  Beta virt. eigenvalues --    3.95256   3.95827   3.96300   3.96697   3.97003
  Beta virt. eigenvalues --    3.97590   3.98190   3.98231   3.98663   3.99338
  Beta virt. eigenvalues --    3.99544   4.00293   4.00498   4.00733   4.01400
  Beta virt. eigenvalues --    4.02059   4.02888   4.03430   4.03723   4.04415
  Beta virt. eigenvalues --    4.04809   4.05177   4.05690   4.06541   4.06886
  Beta virt. eigenvalues --    4.06984   4.07676   4.07925   4.08602   4.08714
  Beta virt. eigenvalues --    4.09437   4.10279   4.10642   4.11010   4.11409
  Beta virt. eigenvalues --    4.12340   4.12665   4.13523   4.13606   4.14232
  Beta virt. eigenvalues --    4.14447   4.15041   4.15558   4.15967   4.16091
  Beta virt. eigenvalues --    4.16704   4.17147   4.17768   4.18733   4.19163
  Beta virt. eigenvalues --    4.19292   4.20274   4.20683   4.21146   4.21508
  Beta virt. eigenvalues --    4.21921   4.22896   4.23839   4.23931   4.24324
  Beta virt. eigenvalues --    4.24432   4.25240   4.25766   4.26270   4.26383
  Beta virt. eigenvalues --    4.27061   4.27452   4.27635   4.28325   4.28729
  Beta virt. eigenvalues --    4.29017   4.30026   4.30420   4.30601   4.30910
  Beta virt. eigenvalues --    4.31896   4.32135   4.32445   4.33003   4.33503
  Beta virt. eigenvalues --    4.34156   4.34876   4.35644   4.35842   4.36424
  Beta virt. eigenvalues --    4.36875   4.37361   4.37713   4.38154   4.38522
  Beta virt. eigenvalues --    4.39596   4.40474   4.40698   4.40971   4.42140
  Beta virt. eigenvalues --    4.42461   4.43149   4.43948   4.44294   4.44831
  Beta virt. eigenvalues --    4.45060   4.45613   4.45704   4.46583   4.47324
  Beta virt. eigenvalues --    4.47469   4.47987   4.48248   4.49094   4.49494
  Beta virt. eigenvalues --    4.49906   4.50547   4.50937   4.51450   4.51880
  Beta virt. eigenvalues --    4.52281   4.52810   4.53224   4.54057   4.54548
  Beta virt. eigenvalues --    4.55045   4.55394   4.56475   4.56869   4.57117
  Beta virt. eigenvalues --    4.57669   4.58523   4.59375   4.60211   4.60276
  Beta virt. eigenvalues --    4.61373   4.61806   4.62387   4.62629   4.64326
  Beta virt. eigenvalues --    4.65139   4.65300   4.65638   4.66479   4.67619
  Beta virt. eigenvalues --    4.68640   4.68966   4.69232   4.69616   4.70907
  Beta virt. eigenvalues --    4.71250   4.71504   4.71941   4.72500   4.72791
  Beta virt. eigenvalues --    4.72991   4.73165   4.74006   4.75194   4.75570
  Beta virt. eigenvalues --    4.76541   4.77422   4.78278   4.78339   4.78945
  Beta virt. eigenvalues --    4.79185   4.80149   4.80570   4.81910   4.82997
  Beta virt. eigenvalues --    4.83327   4.83747   4.84572   4.84985   4.85188
  Beta virt. eigenvalues --    4.85999   4.86711   4.86839   4.87682   4.88509
  Beta virt. eigenvalues --    4.88713   4.89100   4.90101   4.91118   4.91239
  Beta virt. eigenvalues --    4.91964   4.93870   4.94513   4.94987   4.95052
  Beta virt. eigenvalues --    4.96193   4.96655   4.97089   4.98039   4.98584
  Beta virt. eigenvalues --    5.00247   5.00585   5.01027   5.02202   5.02718
  Beta virt. eigenvalues --    5.02950   5.03181   5.04950   5.06545   5.06918
  Beta virt. eigenvalues --    5.07552   5.08086   5.08815   5.09505   5.10520
  Beta virt. eigenvalues --    5.11848   5.12567   5.13433   5.14563   5.15818
  Beta virt. eigenvalues --    5.16266   5.17992   5.18296   5.18616   5.19167
  Beta virt. eigenvalues --    5.19950   5.20386   5.20641   5.21005   5.21476
  Beta virt. eigenvalues --    5.21884   5.24158   5.24695   5.26585   5.28132
  Beta virt. eigenvalues --    5.28464   5.29076   5.29515   5.30101   5.30966
  Beta virt. eigenvalues --    5.32179   5.33081   5.35451   5.35683   5.36617
  Beta virt. eigenvalues --    5.37363   5.37987   5.38779   5.39189   5.40123
  Beta virt. eigenvalues --    5.40485   5.41283   5.41810   5.42934   5.45386
  Beta virt. eigenvalues --    5.45948   5.48528   5.48958   5.49409   5.50498
  Beta virt. eigenvalues --    5.51677   5.52186   5.53103   5.53599   5.54529
  Beta virt. eigenvalues --    5.56326   5.58059   5.59387   5.60104   5.61103
  Beta virt. eigenvalues --    5.63249   5.64596   5.65156   5.65639   5.65882
  Beta virt. eigenvalues --    5.65962   5.68410   5.70397   5.70987   5.73243
  Beta virt. eigenvalues --    5.73859   5.75265   5.77090   5.77699   5.81519
  Beta virt. eigenvalues --    5.85671   5.87445   5.92617   5.94556   5.94757
  Beta virt. eigenvalues --    5.95562   5.97315   5.98027   5.98866   5.99813
  Beta virt. eigenvalues --    6.01541   6.02101   6.02908   6.03954   6.05178
  Beta virt. eigenvalues --    6.07233   6.11364   6.13420   6.13544   6.13997
  Beta virt. eigenvalues --    6.14975   6.16590   6.18282   6.24325   6.25821
  Beta virt. eigenvalues --    6.25982   6.32432   6.35316   6.36214   6.38002
  Beta virt. eigenvalues --    6.38884   6.41839   6.45789   6.45948   6.46940
  Beta virt. eigenvalues --    6.50171   6.53811   6.63880   6.66092   6.68461
  Beta virt. eigenvalues --    6.73968   6.80734   6.83761   6.84707   6.93616
  Beta virt. eigenvalues --    6.94402   7.00175   7.05176   7.07580   7.08568
  Beta virt. eigenvalues --    7.13958   7.21720   7.31543   9.24178   9.43631
  Beta virt. eigenvalues --    9.57655  20.15751  22.37064  22.47965  22.49440
  Beta virt. eigenvalues --   22.50727  22.53978  22.54823  22.56090  22.56214
  Beta virt. eigenvalues --   22.56779  22.57586  22.63358  22.66380  22.68618
  Beta virt. eigenvalues --   22.71987  22.74999  22.76587  22.78577  22.96035
  Beta virt. eigenvalues --   22.96955  22.99820  23.00902  23.02051  23.04129
  Beta virt. eigenvalues --   23.10950  23.11503  23.20243  23.24379  23.30663
  Beta virt. eigenvalues --   23.38672  23.40633  23.42802  23.44315  23.45649
  Beta virt. eigenvalues --   23.50401  23.53603  23.55629  23.63238  23.75325
  Beta virt. eigenvalues --   23.83999  23.88244  23.98283  32.44522  32.78379
  Beta virt. eigenvalues --   33.00894  33.05689  33.11082  33.15781  43.88409
  Beta virt. eigenvalues --   43.89562  43.93759  43.98242
          Condensed to atoms (all electrons):
          Atomic-Atomic Spin Densities.
 Mulliken charges and spin densities:
               1          2
     1  C   -0.382676  -0.000308
     2  C    0.116911  -0.000797
     3  N   -0.180502   0.000476
     4  C   -0.217024   0.000906
     5  C   -0.028141   0.007106
     6  N    0.092177  -0.034585
     7  C   -0.394896   0.000059
     8  C   -0.103198   0.003330
     9  S    0.066236  -0.027609
    10  C   -0.736131  -0.003090
    11  C   -0.587932  -0.007571
    12  C   -0.538437  -0.002385
    13  C   -0.505634  -0.004357
    14  C   -0.525247  -0.006650
    15  C    0.174715   0.003674
    16  C    0.093828   0.002305
    17  C   -0.108697  -0.002604
    18  C    0.284391   0.004365
    19  C   -0.425703  -0.000283
    20  C   -0.278801  -0.000353
    21  C   -0.194466   0.000138
    22  C    0.271620   0.000067
    23  O   -0.328677   0.000002
    24  O   -0.423378   0.000035
    25  C    0.307983   0.004633
    26  C   -0.103673   0.009277
    27  C   -0.074765   0.014405
    28  C    0.270917   0.005381
    29  C   -0.402553  -0.000779
    30  C   -0.151331  -0.001216
    31  C   -0.404825   0.000674
    32  C    0.218730   0.003602
    33  C   -0.059082   0.005490
    34  C   -0.130024  -0.005178
    35  C    0.297853   0.007256
    36  C   -0.418753  -0.000554
    37  C   -0.126161  -0.000089
    38  C   -0.422570  -0.000184
    39  C    0.184058   0.004864
    40  C    0.000668   0.009097
    41  C    0.044265   0.019038
    42  C    0.293178   0.004198
    43  C   -0.430617  -0.001044
    44  C   -0.434912  -0.002361
    45  C   -0.090683   0.000849
    46  C    0.248726   0.000188
    47  O   -0.294847   0.000008
    48  O   -0.497045  -0.000024
    49  N   -0.072857  -0.030776
    50  N    0.000558  -0.042198
    51  N    0.039655  -0.035746
    52  N    0.091891  -0.036727
    53  Fe  -0.383883   1.134358
    54  H    0.161324   0.000017
    55  H    0.149080  -0.000049
    56  H    0.160704   0.000013
    57  H    0.191323  -0.000225
    58  H    0.212483  -0.000405
    59  H    0.143653   0.000453
    60  H    0.150962   0.000096
    61  H    0.115459   0.000129
    62  H    0.157893  -0.000110
    63  H    0.152400  -0.001014
    64  H    0.298705   0.000214
    65  H    0.284083   0.000887
    66  H    0.230566  -0.001389
    67  H    0.146897   0.000238
    68  H    0.140928  -0.000017
    69  H    0.146003  -0.000006
    70  H    0.140426   0.000204
    71  H    0.147554   0.000001
    72  H    0.161397  -0.000044
    73  H    0.159362  -0.000111
    74  H    0.121030   0.000053
    75  H    0.133535  -0.000048
    76  H    0.151628  -0.000012
    77  H    0.144035   0.000044
    78  H    0.155033   0.000411
    79  H    0.153220   0.000202
    80  H    0.141090  -0.000025
    81  H    0.125239   0.000452
    82  H    0.117725   0.000034
    83  H    0.133157   0.000043
    84  H    0.134546   0.000041
    85  H    0.138887  -0.000061
    86  H    0.158260   0.000002
    87  H    0.156080   0.000363
    88  H    0.149806   0.000088
    89  H    0.133222  -0.000155
    90  H    0.115021  -0.000017
    91  H    0.139557  -0.000034
    92  H    0.133717   0.000009
    93  H    0.138153   0.000000
    94  H    0.160523   0.000151
    95  H    0.165146   0.000557
    96  H    0.146617   0.000067
    97  H    0.140202   0.000476
    98  H    0.141290   0.000026
    99  H    0.162289  -0.000013
   100  H    0.393462   0.000002
   101  H    0.383435   0.000034
   102  H    0.290071   0.000014
   103  H    0.152581   0.000102
 Sum of Mulliken charges =   1.00000   1.00000
 Mulliken charges and spin densities with hydrogens summed into heavy atoms:
               1          2
     1  C    0.088432  -0.000326
     2  C    0.116911  -0.000797
     3  N    0.109569   0.000490
     4  C   -0.025701   0.000681
     5  C    0.184343   0.006700
     6  N    0.092177  -0.034585
     7  C    0.015178   0.000736
     8  C    0.207096   0.002206
     9  S    0.066236  -0.027609
    10  C    0.077223  -0.003378
    11  C   -0.441035  -0.007333
    12  C   -0.397509  -0.002402
    13  C   -0.359631  -0.004364
    14  C   -0.384821  -0.006446
    15  C    0.174715   0.003674
    16  C    0.093828   0.002305
    17  C   -0.108697  -0.002604
    18  C    0.284391   0.004365
    19  C    0.042610  -0.000437
    20  C   -0.024235  -0.000347
    21  C    0.101197   0.000170
    22  C    0.271620   0.000067
    23  O    0.064785   0.000004
    24  O   -0.423378   0.000035
    25  C    0.307983   0.004633
    26  C   -0.103673   0.009277
    27  C   -0.074765   0.014405
    28  C    0.270917   0.005381
    29  C    0.046791  -0.000192
    30  C    0.091633  -0.000730
    31  C    0.001764   0.000697
    32  C    0.218730   0.003602
    33  C   -0.059082   0.005490
    34  C   -0.130024  -0.005178
    35  C    0.297853   0.007256
    36  C    0.045393  -0.000102
    37  C    0.122082  -0.000262
    38  C   -0.011143  -0.000209
    39  C    0.184058   0.004864
    40  C    0.000668   0.009097
    41  C    0.044265   0.019038
    42  C    0.293178   0.004198
    43  C    0.041668  -0.000269
    44  C   -0.142129  -0.001784
    45  C    0.212896   0.000862
    46  C    0.248726   0.000188
    47  O    0.088588   0.000041
    48  O   -0.497045  -0.000024
    49  N   -0.072857  -0.030776
    50  N    0.000558  -0.042198
    51  N    0.039655  -0.035746
    52  N    0.091891  -0.036727
    53  Fe  -0.383883   1.134358
 Electronic spatial extent (au):  <R**2>=          33774.8729
 Charge=              1.0000 electrons
 Dipole moment (field-independent basis, Debye):
    X=              7.2061    Y=             -1.5635    Z=              8.2469  Tot=             11.0627
 Quadrupole moment (field-independent basis, Debye-Ang):
   XX=           -274.9926   YY=           -284.1270   ZZ=           -280.6242
   XY=             -2.9984   XZ=            -14.4290   YZ=            -21.8406
 Traceless Quadrupole moment (field-independent basis, Debye-Ang):
   XX=              4.9220   YY=             -4.2124   ZZ=             -0.7096
   XY=             -2.9984   XZ=            -14.4290   YZ=            -21.8406
 Octapole moment (field-independent basis, Debye-Ang**2):
  XXX=            131.4524  YYY=            -38.9464  ZZZ=            255.4144  XYY=            211.2855
  XXY=             27.1834  XXZ=            100.8062  XZZ=             86.0662  YZZ=            -15.9039
  YYZ=             -6.5089  XYZ=            140.0869
 Hexadecapole moment (field-independent basis, Debye-Ang**3):
 XXXX=         -21876.6182 YYYY=         -13951.3278 ZZZZ=          -4394.7434 XXXY=           -521.5279
 XXXZ=           -597.3816 YYYX=            104.5613 YYYZ=           -121.5174 ZZZX=            175.3695
 ZZZY=           -256.2081 XXYY=          -7195.8616 XXZZ=          -5029.9816 YYZZ=          -3448.9493
 XXYZ=          -1047.3642 YYXZ=            -42.9076 ZZXY=           -181.1104
 N-N= 9.096964769418D+03 E-N=-2.727905698921D+04  KE= 3.870501042767D+03
 1\1\GINC-NODE402\SP\UPBE1PBE\def2TZVP\C41H50Fe1N6O4S1(1+,2)\KLEICH\25-
 Sep-2022\0\\# PBE1PBE/def2TZVP empiricaldispersion=GD3BJ int=(grid=ult
 rafine) geom=check guess=read scrf=(smd,solvent=Chloroform)\\451c_III_
 D_solv\\1,2\C,0,10.502,-8.068,15.869\C,0,10.644,-9.486,16.397\N,0,11.6
 19,-10.33,15.982\C,0,9.793,-10.187,17.233\C,0,11.389,-11.544,16.547\N,
 0,10.269,-11.46,17.324\C,0,9.895,-15.821,21.142\C,0,8.597,-15.027,20.9
 51\S,0,8.145,-14.71,19.221\C,0,8.329,-16.29,18.364\C,0,11.705,-15.239,
 17.133\C,0,7.601,-13.454,15.352\C,0,6.884,-11.032,19.466\C,0,11.276,-1
 2.321,20.96\C,0,10.634,-14.991,16.299\C,0,10.451,-15.547,15.05\C,0,9.2
 97,-14.993,14.516\C,0,8.779,-14.157,15.475\C,0,8.679,-15.258,13.158\C,
 0,11.329,-16.591,14.424\C,0,10.903,-17.937,14.962\C,0,11.76,-19.039,14
 .369\O,0,12.509,-18.781,13.431\O,0,11.265,-20.229,14.446\C,0,7.048,-12
 .619,16.3\C,0,5.816,-11.979,16.18\C,0,5.558,-11.35,17.403\C,0,6.695,-1
 1.546,18.199\C,0,4.912,-12.026,14.967\C,0,4.299,-10.621,17.829\C,0,3.0
 91,-11.541,17.981\C,0,8.016,-11.19,20.251\C,0,8.243,-10.559,21.468\C,0
 ,9.57,-10.805,21.808\C,0,10.044,-11.718,20.897\C,0,7.266,-9.649,22.19\
 C,0,10.391,-10.166,22.92\C,0,9.85,-10.474,24.312\C,0,11.754,-13.25,20.
 069\C,0,12.959,-13.93,20.212\C,0,13.04,-14.833,19.16\C,0,11.929,-14.61
 6,18.347\C,0,13.966,-13.748,21.33\C,0,14.127,-15.851,18.915\C,0,13.727
 ,-17.251,19.352\C,0,14.825,-18.245,18.978\O,0,14.505,-19.418,18.767\O,
 0,16.095,-17.97,19.199\N,0,9.61,-14.148,16.551\N,0,7.581,-12.332,17.52
 1\N,0,9.124,-11.898,19.917\N,0,11.12,-13.676,18.928\Fe,0,9.397,-12.981
 ,18.23\H,0,10.46839937,-7.38321688,16.69048833\H,0,11.33864153,-7.8346
 3157,15.24412391\H,0,9.59898282,-7.98779688,15.30064498\H,0,8.9214689,
 -9.80030703,17.71859457\H,0,11.98631983,-12.42056673,16.40650162\H,0,9
 .93600409,-16.20256592,22.14081235\H,0,9.92062521,-16.63493896,20.4479
 2023\H,0,10.7340315,-15.17949718,20.97053491\H,0,8.78164574,-14.064996
 07,21.38152804\H,0,7.81889627,-15.64813452,21.34297768\H,0,8.16163485,
 -16.56876805,17.34459955\H,0,7.26503222,-16.18494868,18.32114241\H,0,9
 .11663949,-15.73815759,17.89496483\H,0,12.41809298,-15.97079501,16.815
 3926\H,0,7.06380432,-13.56644186,14.43348074\H,0,6.082081,-10.45802045
 ,19.88117875\H,0,11.91684591,-12.04392441,21.77083021\H,0,8.01519655,-
 14.45755894,12.90589072\H,0,8.13331632,-16.17791224,13.18784625\H,0,9.
 45211529,-15.3256462,12.42137477\H,0,12.32555659,-16.41399773,14.77105
 211\H,0,11.11994637,-16.59058764,13.37462094\H,0,9.90576196,-18.103975
 19,14.61194919\H,0,11.10614254,-17.9240994,16.01246022\H,0,4.00909843,
 -12.54388128,15.21492686\H,0,4.67779859,-11.02876108,14.65786535\H,0,5
 .41001715,-12.53858445,14.17067337\H,0,4.06080585,-9.9526977,17.028040
 84\H,0,4.49931467,-10.23464658,18.80649939\H,0,2.96060595,-11.79086025
 ,19.01321473\H,0,2.21532461,-11.04222675,17.62139208\H,0,3.25006128,-1
 2.43498544,17.41497038\H,0,7.47253986,-9.66521916,23.23975151\H,0,7.37
 008572,-8.64989614,21.82141128\H,0,6.26665029,-9.99039139,22.01780223\
 H,0,10.29013206,-9.10857362,22.79125564\H,0,11.35824964,-10.62097146,2
 2.87173917\H,0,10.66240104,-10.52973498,25.00611682\H,0,9.17663336,-9.
 69866705,24.61255978\H,0,9.33134476,-11.40972222,24.29409274\H,0,14.37
 868432,-14.69855006,21.596545\H,0,14.75007586,-13.09821715,21.00150755
 \H,0,13.48016448,-13.31874393,22.1812362\H,0,14.35511297,-15.86763035,
 17.8697307\H,0,12.86341159,-17.51692048,18.77893686\H,0,13.67629946,-1
 7.23670871,20.42070258\H,0,13.46058197,-18.81464202,13.55331092\H,0,15
 .18347647,-20.08644009,18.64676056\H,0,12.37438365,-10.10014482,15.368
 3534\H,0,15.00273251,-15.55772375,19.45535324\\Version=ES64L-G16RevA.0
 3\State=2-A\HF=-3881.5805424\S2=0.79141\S2-1=0.\S2A=0.750758\RMSD=1.74
 0e-09\Dipole=-0.0675748,4.1552767,-1.2932615\Quadrupole=-0.8195016,-11
 .6021505,12.421652,-10.2032109,-9.9913446,-6.8365149\PG=C01 [X(C41H50F
 e1N6O4S1)]\\@


 PATIENCE IS THE ABILITY TO IDLE YOUR MOTOR WHEN
 YOU FEEL LIKE STRIPPING YOUR GEARS.
 Job cpu time:       7 days 23 hours 48 minutes  1.6 seconds.
 Elapsed time:       2 days  0 hours 11 minutes 19.4 seconds.
 File lengths (MBytes):  RWF=   4388 Int=      0 D2E=      0 Chk=    310 Scr=      1
 Normal termination of Gaussian 16 at Sun Sep 25 08:00:38 2022.
