 Entering Gaussian System, Link 0=g16
 Input=/work/kleich/bench/splitthejobs/451c/451c12/451c16/451c16.com
 Output=/work/kleich/bench/splitthejobs/451c/451c12/451c16/451c16.log
 Initial command:
 /afs/math/software/gaussian/g16.A03/g16/l1.exe "/scratch/kleich_gaussian.vwcZt78/Gau-23192.inp" -scrdir="/scratch/kleich_gaussian.vwcZt78/"
 Entering Link 1 = /afs/math/software/gaussian/g16.A03/g16/l1.exe PID=     23193.
  
 Copyright (c) 1988,1990,1992,1993,1995,1998,2003,2009,2016,
            Gaussian, Inc.  All Rights Reserved.
  
 This is part of the Gaussian(R) 16 program.  It is based on
 the Gaussian(R) 09 system (copyright 2009, Gaussian, Inc.),
 the Gaussian(R) 03 system (copyright 2003, Gaussian, Inc.),
 the Gaussian(R) 98 system (copyright 1998, Gaussian, Inc.),
 the Gaussian(R) 94 system (copyright 1995, Gaussian, Inc.),
 the Gaussian 92(TM) system (copyright 1992, Gaussian, Inc.),
 the Gaussian 90(TM) system (copyright 1990, Gaussian, Inc.),
 the Gaussian 88(TM) system (copyright 1988, Gaussian, Inc.),
 the Gaussian 86(TM) system (copyright 1986, Carnegie Mellon
 University), and the Gaussian 82(TM) system (copyright 1983,
 Carnegie Mellon University). Gaussian is a federally registered
 trademark of Gaussian, Inc.
  
 This software contains proprietary and confidential information,
 including trade secrets, belonging to Gaussian, Inc.
  
 This software is provided under written license and may be
 used, copied, transmitted, or stored only in accord with that
 written license.
  
 The following legend is applicable only to US Government
 contracts under FAR:
  
                    RESTRICTED RIGHTS LEGEND
  
 Use, reproduction and disclosure by the US Government is
 subject to restrictions as set forth in subparagraphs (a)
 and (c) of the Commercial Computer Software - Restricted
 Rights clause in FAR 52.227-19.
  
 Gaussian, Inc.
 340 Quinnipiac St., Bldg. 40, Wallingford CT 06492
  
  
 ---------------------------------------------------------------
 Warning -- This program may not be used in any manner that
 competes with the business of Gaussian, Inc. or will provide
 assistance to any competitor of Gaussian, Inc.  The licensee
 of this program is prohibited from giving any competitor of
 Gaussian, Inc. access to this program.  By using this program,
 the user acknowledges that Gaussian, Inc. is engaged in the
 business of creating and licensing software in the field of
 computational chemistry and represents and warrants to the
 licensee that it is not a competitor of Gaussian, Inc. and that
 it will not use this program in any manner prohibited above.
 ---------------------------------------------------------------
  

 Cite this work as:
 Gaussian 16, Revision A.03,
 M. J. Frisch, G. W. Trucks, H. B. Schlegel, G. E. Scuseria, 
 M. A. Robb, J. R. Cheeseman, G. Scalmani, V. Barone, 
 G. A. Petersson, H. Nakatsuji, X. Li, M. Caricato, A. V. Marenich, 
 J. Bloino, B. G. Janesko, R. Gomperts, B. Mennucci, H. P. Hratchian, 
 J. V. Ortiz, A. F. Izmaylov, J. L. Sonnenberg, D. Williams-Young, 
 F. Ding, F. Lipparini, F. Egidi, J. Goings, B. Peng, A. Petrone, 
 T. Henderson, D. Ranasinghe, V. G. Zakrzewski, J. Gao, N. Rega, 
 G. Zheng, W. Liang, M. Hada, M. Ehara, K. Toyota, R. Fukuda, 
 J. Hasegawa, M. Ishida, T. Nakajima, Y. Honda, O. Kitao, H. Nakai, 
 T. Vreven, K. Throssell, J. A. Montgomery, Jr., J. E. Peralta, 
 F. Ogliaro, M. J. Bearpark, J. J. Heyd, E. N. Brothers, K. N. Kudin, 
 V. N. Staroverov, T. A. Keith, R. Kobayashi, J. Normand, 
 K. Raghavachari, A. P. Rendell, J. C. Burant, S. S. Iyengar, 
 J. Tomasi, M. Cossi, J. M. Millam, M. Klene, C. Adamo, R. Cammi, 
 J. W. Ochterski, R. L. Martin, K. Morokuma, O. Farkas, 
 J. B. Foresman, and D. J. Fox, Gaussian, Inc., Wallingford CT, 2016.
 
 ******************************************
 Gaussian 16:  ES64L-G16RevA.03 25-Dec-2016
                30-Sep-2022 
 ******************************************
 %nprocs=12
 Will use up to   12 processors via shared memory.
 %mem=16GB
 %oldchk=451c_III_D.chk
 %chk=451c_III_H.chk
 Copying data from "451c_III_D.chk" to current chk file "451c_III_H.chk"
 IOpt=  2 FromEx=T IUOpen= 4 IOptOp= 5 NList=   0 IFRang= 0 IUIn= 4 IUOut= 2.
 ----------------------------------------------------------------------
 # PBE1PBE/def2TZVP empiricaldispersion=GD3BJ int=(grid=ultrafine) geom
 =check pop=nbo
 ----------------------------------------------------------------------
 1/29=2,38=1,172=1/1;
 2/12=2,40=1/2;
 3/5=44,7=101,11=2,14=-4,25=1,30=1,74=-13,75=-5,124=41/1,2,3;
 4//1;
 5/5=2,38=5/2;
 6/7=2,8=2,9=2,10=2,28=1,40=1/1,7;
 99/5=1,9=1/99;
 ----------
 451c_III_H
 ----------
 Structure from the checkpoint file:  "451c_III_H.chk"
 Charge =  1 Multiplicity = 6
 Z-Matrix found in chk file.
 C,0,10.502,-8.068,15.869
 C,0,10.644,-9.486,16.397
 N,0,11.619,-10.33,15.982
 C,0,9.793,-10.187,17.233
 C,0,11.389,-11.544,16.547
 N,0,10.269,-11.46,17.324
 C,0,9.895,-15.821,21.142
 C,0,8.597,-15.027,20.951
 S,0,8.145,-14.71,19.221
 C,0,8.329,-16.29,18.364
 C,0,11.705,-15.239,17.133
 C,0,7.601,-13.454,15.352
 C,0,6.884,-11.032,19.466
 C,0,11.276,-12.321,20.96
 C,0,10.634,-14.991,16.299
 C,0,10.451,-15.547,15.05
 C,0,9.297,-14.993,14.516
 C,0,8.779,-14.157,15.475
 C,0,8.679,-15.258,13.158
 C,0,11.329,-16.591,14.424
 C,0,10.903,-17.937,14.962
 C,0,11.76,-19.039,14.369
 O,0,12.509,-18.781,13.431
 O,0,11.265,-20.229,14.446
 C,0,7.048,-12.619,16.3
 C,0,5.816,-11.979,16.18
 C,0,5.558,-11.35,17.403
 C,0,6.695,-11.546,18.199
 C,0,4.912,-12.026,14.967
 C,0,4.299,-10.621,17.829
 C,0,3.091,-11.541,17.981
 C,0,8.016,-11.19,20.251
 C,0,8.243,-10.559,21.468
 C,0,9.57,-10.805,21.808
 C,0,10.044,-11.718,20.897
 C,0,7.266,-9.649,22.19
 C,0,10.391,-10.166,22.92
 C,0,9.85,-10.474,24.312
 C,0,11.754,-13.25,20.069
 C,0,12.959,-13.93,20.212
 C,0,13.04,-14.833,19.16
 C,0,11.929,-14.616,18.347
 C,0,13.966,-13.748,21.33
 C,0,14.127,-15.851,18.915
 C,0,13.727,-17.251,19.352
 C,0,14.825,-18.245,18.978
 O,0,14.505,-19.418,18.767
 O,0,16.095,-17.97,19.199
 N,0,9.61,-14.148,16.551
 N,0,7.581,-12.332,17.521
 N,0,9.124,-11.898,19.917
 N,0,11.12,-13.676,18.928
 Fe,0,9.397,-12.981,18.23
 H,0,10.46839937,-7.38321688,16.69048833
 H,0,11.33864153,-7.83463157,15.24412391
 H,0,9.59898282,-7.98779688,15.30064498
 H,0,8.9214689,-9.80030703,17.71859457
 H,0,11.98631983,-12.42056673,16.40650162
 H,0,9.93600409,-16.20256592,22.14081235
 H,0,9.92062521,-16.63493896,20.44792023
 H,0,10.7340315,-15.17949718,20.97053491
 H,0,8.78164574,-14.06499607,21.38152804
 H,0,7.81889627,-15.64813452,21.34297768
 H,0,8.16163485,-16.56876805,17.34459955
 H,0,7.26503222,-16.18494868,18.32114241
 H,0,9.11663949,-15.73815759,17.89496483
 H,0,12.41809298,-15.97079501,16.8153926
 H,0,7.06380432,-13.56644186,14.43348074
 H,0,6.082081,-10.45802045,19.88117875
 H,0,11.91684591,-12.04392441,21.77083021
 H,0,8.01519655,-14.45755894,12.90589072
 H,0,8.13331632,-16.17791224,13.18784625
 H,0,9.45211529,-15.3256462,12.42137477
 H,0,12.32555659,-16.41399773,14.77105211
 H,0,11.11994637,-16.59058764,13.37462094
 H,0,9.90576196,-18.10397519,14.61194919
 H,0,11.10614254,-17.9240994,16.01246022
 H,0,4.00909843,-12.54388128,15.21492686
 H,0,4.67779859,-11.02876108,14.65786535
 H,0,5.41001715,-12.53858445,14.17067337
 H,0,4.06080585,-9.9526977,17.02804084
 H,0,4.49931467,-10.23464658,18.80649939
 H,0,2.96060595,-11.79086025,19.01321473
 H,0,2.21532461,-11.04222675,17.62139208
 H,0,3.25006128,-12.43498544,17.41497038
 H,0,7.47253986,-9.66521916,23.23975151
 H,0,7.37008572,-8.64989614,21.82141128
 H,0,6.26665029,-9.99039139,22.01780223
 H,0,10.29013206,-9.10857362,22.79125564
 H,0,11.35824964,-10.62097146,22.87173917
 H,0,10.66240104,-10.52973498,25.00611682
 H,0,9.17663336,-9.69866705,24.61255978
 H,0,9.33134476,-11.40972222,24.29409274
 H,0,14.37868432,-14.69855006,21.596545
 H,0,14.75007586,-13.09821715,21.00150755
 H,0,13.48016448,-13.31874393,22.1812362
 H,0,14.35511297,-15.86763035,17.8697307
 H,0,12.86341159,-17.51692048,18.77893686
 H,0,13.67629946,-17.23670871,20.42070258
 H,0,13.46058197,-18.81464202,13.55331092
 H,0,15.18347647,-20.08644009,18.64676056
 H,0,12.37438365,-10.10014482,15.3683534
 H,0,15.00273251,-15.55772375,19.45535324
 Recover connectivity data from disk.
 Stoichiometry    C41H50FeN6O4S(1+,6)
 Framework group  C1[X(C41H50FeN6O4S)]
 Deg. of freedom   303
 Full point group                 C1      NOp   1
 Largest Abelian subgroup         C1      NOp   1
 Largest concise Abelian subgroup C1      NOp   1
                         Standard orientation:                         
 ---------------------------------------------------------------------
 Center     Atomic      Atomic             Coordinates (Angstroms)
 Number     Number       Type             X           Y           Z
 ---------------------------------------------------------------------
      1          6           0        3.279414   -0.858909    5.033445
      2          6           0        2.263317   -0.513617    3.957345
      3          7           0        0.931154   -0.455993    4.196525
      4          6           0        2.466145   -0.341152    2.599547
      5          6           0        0.302271   -0.249437    3.010033
      6          7           0        1.243531   -0.171292    2.023571
      7          6           0       -0.815655    2.314888   -2.804885
      8          6           0        0.513037    1.571128   -2.986873
      9         16           0        0.567587   -0.084816   -2.243525
     10          6           0       -0.961251   -0.904624   -2.748773
     11          6           0       -2.521303   -0.043649    0.543992
     12          6           0        0.821877   -3.476345    0.053321
     13          6           0        4.165297   -0.087634   -0.748767
     14          6           0        0.947664    3.315032    0.370128
     15          6           0       -1.910592   -1.277372    0.448798
     16          6           0       -2.549586   -2.494156    0.566059
     17          6           0       -1.578979   -3.480980    0.477237
     18          6           0       -0.383977   -2.841611    0.253451
     19          6           0       -1.765758   -4.981878    0.570674
     20          6           0       -4.030032   -2.689748    0.716789
     21          6           0       -4.647874   -2.624878   -0.660418
     22          6           0       -6.150766   -2.810787   -0.575235
     23          8           0       -6.653495   -3.177065    0.483308
     24          8           0       -6.731009   -3.151437   -1.677202
     25          6           0        2.034253   -2.864713   -0.187073
     26          6           0        3.225804   -3.532955   -0.461812
     27          6           0        4.178005   -2.560248   -0.785988
     28          6           0        3.556855   -1.317575   -0.599608
     29          6           0        3.413613   -5.034779   -0.468515
     30          6           0        5.596933   -2.771567   -1.275871
     31          6           0        5.668621   -3.389542   -2.669332
     32          6           0        3.572926    1.147815   -0.535748
     33          6           0        4.233638    2.369899   -0.563091
     34          6           0        3.340337    3.321715   -0.080280
     35          6           0        2.126328    2.690284    0.044791
     36          6           0        5.697770    2.578058   -0.904999
     37          6           0        3.622486    4.767608    0.305323
     38          6           0        4.082238    5.619372   -0.872953
     39          6           0       -0.275548    2.700588    0.477915
     40          6           0       -1.474995    3.369151    0.699780
     41          6           0       -2.482507    2.414148    0.660263
     42          6           0       -1.865616    1.173353    0.511090
     43          6           0       -1.647875    4.861472    0.900252
     44          6           0       -3.968433    2.652376    0.775108
     45          6           0       -4.669282    2.639124   -0.573818
     46          6           0       -6.177727    2.777348   -0.376329
     47          8           0       -6.926245    2.287789   -1.226566
     48          8           0       -6.675016    3.662972    0.463755
     49          7           0       -0.592729   -1.498170    0.255888
     50          7           0        2.252575   -1.521120   -0.253342
     51          7           0        2.284836    1.360106   -0.166639
     52          7           0       -0.516975    1.354414    0.356085
     53         26           0        0.858666   -0.051523    0.091682
     54          1           0        4.032987   -0.100123    5.069080
     55          1           0        2.788017   -0.918391    5.982071
     56          1           0        3.732629   -1.801320    4.806822
     57          1           0        3.409672   -0.341204    2.094911
     58          1           0       -0.755142   -0.162415    2.871454
     59          1           0       -0.864810    3.131286   -3.494796
     60          1           0       -1.628297    1.643438   -2.988374
     61          1           0       -0.880934    2.688887   -1.804503
     62          1           0        1.241560    2.148850   -2.457355
     63          1           0        0.615232    1.417401   -4.040830
     64          1           0       -1.339888   -1.885677   -2.551115
     65          1           0       -0.253990   -1.485470   -3.303119
     66          1           0       -1.141785   -0.819347   -1.697566
     67          1           0       -3.585742   -0.027435    0.651719
     68          1           0        0.817569   -4.545786    0.087636
     69          1           0        5.189753   -0.087549   -1.057620
     70          1           0        0.985525    4.368254    0.555030
     71          1           0       -0.829382   -5.443964    0.804292
     72          1           0       -2.124175   -5.355668   -0.365658
     73          1           0       -2.475601   -5.205791    1.339365
     74          1           0       -4.403726   -1.853238    1.269511
     75          1           0       -4.180857   -3.683636    1.083311
     76          1           0       -4.266994   -3.463041   -1.205682
     77          1           0       -4.483166   -1.631542   -1.022434
     78          1           0        3.630719   -5.362636   -1.463641
     79          1           0        4.225324   -5.295606    0.178010
     80          1           0        2.517569   -5.507816   -0.124654
     81          1           0        6.033121   -3.489363   -0.612992
     82          1           0        6.025906   -1.795348   -1.364629
     83          1           0        5.830646   -2.618653   -3.393471
     84          1           0        6.476313   -4.090306   -2.707602
     85          1           0        4.749171   -3.892971   -2.883972
     86          1           0        5.838276    3.569001   -1.283402
     87          1           0        6.291947    2.444651   -0.025194
     88          1           0        5.995208    1.867259   -1.647424
     89          1           0        4.447073    4.736077    0.986470
     90          1           0        2.685259    5.178009    0.618495
     91          1           0        3.735100    6.623282   -0.744265
     92          1           0        5.151166    5.614958   -0.920638
     93          1           0        3.683057    5.217562   -1.780754
     94          1           0       -2.542829    5.185681    0.411534
     95          1           0       -1.715297    5.075349    1.946488
     96          1           0       -0.807548    5.376937    0.484263
     97          1           0       -4.393709    1.888978    1.392574
     98          1           0       -4.502184    1.670912   -0.997544
     99          1           0       -4.346190    3.514965   -1.096709
    100          1           0       -7.218388   -2.579392    0.978567
    101          1           0       -7.870027    2.459973   -1.191511
    102          1           0        0.488891   -0.549029    5.088572
    103          1           0       -4.130811    3.602745    1.239147
 ---------------------------------------------------------------------
 Rotational constants (GHZ):           0.0678581           0.0440914           0.0339213
 Standard basis: def2TZVP (5D, 7F)
 There are  2230 symmetry adapted cartesian basis functions of A   symmetry.
 There are  1963 symmetry adapted basis functions of A   symmetry.
  1963 basis functions,  3172 primitive gaussians,  2230 cartesian basis functions
   208 alpha electrons      203 beta electrons
       nuclear repulsion energy      9097.1378532609 Hartrees.
 NAtoms=  103 NActive=  103 NUniq=  103 SFac= 1.00D+00 NAtFMM=   60 NAOKFM=T Big=T
 Integral buffers will be    131072 words long.
 Raffenetti 2 integral format.
 Two-electron integral symmetry is turned on.
 Nuclear repulsion after empirical dispersion term =     9096.9836719200 Hartrees.
 One-electron integrals computed using PRISM.
   1 Symmetry operations used in ECPInt.
 ECPInt:  NShTT=  311655 NPrTT=  958403 LenC2=  229438 LenP2D=  457812.
 LDataN:  DoStor=T MaxTD1= 6 Len=  172
 NBasis=  1963 RedAO= T EigKep=  2.24D-06  NBF=  1963
 NBsUse=  1963 1.00D-06 EigRej= -1.00D+00 NBFU=  1963
 ExpMin= 4.20D-02 ExpMax= 3.01D+05 ExpMxC= 2.91D+03 IAcc=3 IRadAn=         5 AccDes= 0.00D+00
 Harris functional with IExCor= 1009 and IRadAn=       5 diagonalized for initial guess.
 HarFok:  IExCor= 1009 AccDes= 0.00D+00 IRadAn=         5 IDoV= 1 UseB2=F ITyADJ=14
 ICtDFT=  3500011 ScaDFX=  1.000000  1.000000  1.000000  1.000000
 FoFCou: FMM=F IPFlag=           0 FMFlag=      100000 FMFlg1=        2001
         NFxFlg=           0 DoJE=T BraDBF=F KetDBF=T FulRan=T
         wScrn=  0.000000 ICntrl=       500 IOpCl=  0 I1Cent=   200000004 NGrid=           0
         NMat0=    1 NMatS0=      1 NMatT0=    0 NMatD0=    1 NMtDS0=    0 NMtDT0=    0
 Petite list used in FoFCou.
 Initial guess <Sx>= 0.0000 <Sy>= 0.0000 <Sz>= 2.5000 <S**2>= 8.7500 S= 2.5000
 Requested convergence on RMS density matrix=1.00D-08 within 128 cycles.
 Requested convergence on MAX density matrix=1.00D-06.
 Requested convergence on             energy=1.00D-06.
 No special actions if energy rises.
 EnCoef did   100 forward-backward iterations
 EnCoef did   100 forward-backward iterations
 EnCoef did    15 forward-backward iterations
 EnCoef did     4 forward-backward iterations
 EnCoef did    10 forward-backward iterations
 Restarting incremental Fock formation.
 SCF Done:  E(UPBE1PBE) =  -3881.45804592     A.U. after   30 cycles
            NFock= 30  Conv=0.56D-08     -V/T= 2.0025
 <Sx>= 0.0000 <Sy>= 0.0000 <Sz>= 2.5000 <S**2>= 8.7611 S= 2.5018
 <L.S>= 0.000000000000E+00
 Annihilation of the first spin contaminant:
 S**2 before annihilation     8.7611,   after     8.7500
 Hyperfine terms turned off by default for NAtoms > 100.

 **********************************************************************

            Population analysis using the SCF density.

 **********************************************************************

 Orbital symmetries:
 Alpha Orbitals:
       Occupied  (A) (A) (A) (A) (A) (A) (A) (A) (A) (A) (A) (A)
                 (A) (A) (A) (A) (A) (A) (A) (A) (A) (A) (A) (A)
                 (A) (A) (A) (A) (A) (A) (A) (A) (A) (A) (A) (A)
                 (A) (A) (A) (A) (A) (A) (A) (A) (A) (A) (A) (A)
                 (A) (A) (A) (A) (A) (A) (A) (A) (A) (A) (A) (A)
                 (A) (A) (A) (A) (A) (A) (A) (A) (A) (A) (A) (A)
                 (A) (A) (A) (A) (A) (A) (A) (A) (A) (A) (A) (A)
                 (A) (A) (A) (A) (A) (A) (A) (A) (A) (A) (A) (A)
                 (A) (A) (A) (A) (A) (A) (A) (A) (A) (A) (A) (A)
                 (A) (A) (A) (A) (A) (A) (A) (A) (A) (A) (A) (A)
                 (A) (A) (A) (A) (A) (A) (A) (A) (A) (A) (A) (A)
                 (A) (A) (A) (A) (A) (A) (A) (A) (A) (A) (A) (A)
                 (A) (A) (A) (A) (A) (A) (A) (A) (A) (A) (A) (A)
                 (A) (A) (A) (A) (A) (A) (A) (A) (A) (A) (A) (A)
                 (A) (A) (A) (A) (A) (A) (A) (A) (A) (A) (A) (A)
                 (A) (A) (A) (A) (A) (A) (A) (A) (A) (A) (A) (A)
                 (A) (A) (A) (A) (A) (A) (A) (A) (A) (A) (A) (A)
                 (A) (A) (A) (A)
       Virtual   (A) (A) (A) (A) (A) (A) (A) (A) (A) (A) (A) (A)
                 (A) (A) (A) (A) (A) (A) (A) (A) (A) (A) (A) (A)
                 (A) (A) (A) (A) (A) (A) (A) (A) (A) (A) (A) (A)
                 (A) (A) (A) (A) (A) (A) (A) (A) (A) (A) (A) (A)
                 (A) (A) (A) (A) (A) (A) (A) (A) (A) (A) (A) (A)
                 (A) (A) (A) (A) (A) (A) (A) (A) (A) (A) (A) (A)
                 (A) (A) (A) (A) (A) (A) (A) (A) (A) (A) (A) (A)
                 (A) (A) (A) (A) (A) (A) (A) (A) (A) (A) (A) (A)
                 (A) (A) (A) (A) (A) (A) (A) (A) (A) (A) (A) (A)
                 (A) (A) (A) (A) (A) (A) (A) (A) (A) (A) (A) (A)
                 (A) (A) (A) (A) (A) (A) (A) (A) (A) (A) (A) (A)
                 (A) (A) (A) (A) (A) (A) (A) (A) (A) (A) (A) (A)
                 (A) (A) (A) (A) (A) (A) (A) (A) (A) (A) (A) (A)
                 (A) (A) (A) (A) (A) (A) (A) (A) (A) (A) (A) (A)
                 (A) (A) (A) (A) (A) (A) (A) (A) (A) (A) (A) (A)
                 (A) (A) (A) (A) (A) (A) (A) (A) (A) (A) (A) (A)
                 (A) (A) (A) (A) (A) (A) (A) (A) (A) (A) (A) (A)
                 (A) (A) (A) (A) (A) (A) (A) (A) (A) (A) (A) (A)
                 (A) (A) (A) (A) (A) (A) (A) (A) (A) (A) (A) (A)
                 (A) (A) (A) (A) (A) (A) (A) (A) (A) (A) (A) (A)
                 (A) (A) (A) (A) (A) (A) (A) (A) (A) (A) (A) (A)
                 (A) (A) (A) (A) (A) (A) (A) (A) (A) (A) (A) (A)
                 (A) (A) (A) (A) (A) (A) (A) (A) (A) (A) (A) (A)
                 (A) (A) (A) (A) (A) (A) (A) (A) (A) (A) (A) (A)
                 (A) (A) (A) (A) (A) (A) (A) (A) (A) (A) (A) (A)
                 (A) (A) (A) (A) (A) (A) (A) (A) (A) (A) (A) (A)
                 (A) (A) (A) (A) (A) (A) (A) (A) (A) (A) (A) (A)
                 (A) (A) (A) (A) (A) (A) (A) (A) (A) (A) (A) (A)
                 (A) (A) (A) (A) (A) (A) (A) (A) (A) (A) (A) (A)
                 (A) (A) (A) (A) (A) (A) (A) (A) (A) (A) (A) (A)
                 (A) (A) (A) (A) (A) (A) (A) (A) (A) (A) (A) (A)
                 (A) (A) (A) (A) (A) (A) (A) (A) (A) (A) (A) (A)
                 (A) (A) (A) (A) (A) (A) (A) (A) (A) (A) (A) (A)
                 (A) (A) (A) (A) (A) (A) (A) (A) (A) (A) (A) (A)
                 (A) (A) (A) (A) (A) (A) (A) (A) (A) (A) (A) (A)
                 (A) (A) (A) (A) (A) (A) (A) (A) (A) (A) (A) (A)
                 (A) (A) (A) (A) (A) (A) (A) (A) (A) (A) (A) (A)
                 (A) (A) (A) (A) (A) (A) (A) (A) (A) (A) (A) (A)
                 (A) (A) (A) (A) (A) (A) (A) (A) (A) (A) (A) (A)
                 (A) (A) (A) (A) (A) (A) (A) (A) (A) (A) (A) (A)
                 (A) (A) (A) (A) (A) (A) (A) (A) (A) (A) (A) (A)
                 (A) (A) (A) (A) (A) (A) (A) (A) (A) (A) (A) (A)
                 (A) (A) (A) (A) (A) (A) (A) (A) (A) (A) (A) (A)
                 (A) (A) (A) (A) (A) (A) (A) (A) (A) (A) (A) (A)
                 (A) (A) (A) (A) (A) (A) (A) (A) (A) (A) (A) (A)
                 (A) (A) (A) (A) (A) (A) (A) (A) (A) (A) (A) (A)
                 (A) (A) (A) (A) (A) (A) (A) (A) (A) (A) (A) (A)
                 (A) (A) (A) (A) (A) (A) (A) (A) (A) (A) (A) (A)
                 (A) (A) (A) (A) (A) (A) (A) (A) (A) (A) (A) (A)
                 (A) (A) (A) (A) (A) (A) (A) (A) (A) (A) (A) (A)
                 (A) (A) (A) (A) (A) (A) (A) (A) (A) (A) (A) (A)
                 (A) (A) (A) (A) (A) (A) (A) (A) (A) (A) (A) (A)
                 (A) (A) (A) (A) (A) (A) (A) (A) (A) (A) (A) (A)
                 (A) (A) (A) (A) (A) (A) (A) (A) (A) (A) (A) (A)
                 (A) (A) (A) (A) (A) (A) (A) (A) (A) (A) (A) (A)
                 (A) (A) (A) (A) (A) (A) (A) (A) (A) (A) (A) (A)
                 (A) (A) (A) (A) (A) (A) (A) (A) (A) (A) (A) (A)
                 (A) (A) (A) (A) (A) (A) (A) (A) (A) (A) (A) (A)
                 (A) (A) (A) (A) (A) (A) (A) (A) (A) (A) (A) (A)
                 (A) (A) (A) (A) (A) (A) (A) (A) (A) (A) (A) (A)
                 (A) (A) (A) (A) (A) (A) (A) (A) (A) (A) (A) (A)
                 (A) (A) (A) (A) (A) (A) (A) (A) (A) (A) (A) (A)
                 (A) (A) (A) (A) (A) (A) (A) (A) (A) (A) (A) (A)
                 (A) (A) (A) (A) (A) (A) (A) (A) (A) (A) (A) (A)
                 (A) (A) (A) (A) (A) (A) (A) (A) (A) (A) (A) (A)
                 (A) (A) (A) (A) (A) (A) (A) (A) (A) (A) (A) (A)
                 (A) (A) (A) (A) (A) (A) (A) (A) (A) (A) (A) (A)
                 (A) (A) (A) (A) (A) (A) (A) (A) (A) (A) (A) (A)
                 (A) (A) (A) (A) (A) (A) (A) (A) (A) (A) (A) (A)
                 (A) (A) (A) (A) (A) (A) (A) (A) (A) (A) (A) (A)
                 (A) (A) (A) (A) (A) (A) (A) (A) (A) (A) (A) (A)
                 (A) (A) (A) (A) (A) (A) (A) (A) (A) (A) (A) (A)
                 (A) (A) (A) (A) (A) (A) (A) (A) (A) (A) (A) (A)
                 (A) (A) (A) (A) (A) (A) (A) (A) (A) (A) (A) (A)
                 (A) (A) (A) (A) (A) (A) (A) (A) (A) (A) (A) (A)
                 (A) (A) (A) (A) (A) (A) (A) (A) (A) (A) (A) (A)
                 (A) (A) (A) (A) (A) (A) (A) (A) (A) (A) (A) (A)
                 (A) (A) (A) (A) (A) (A) (A) (A) (A) (A) (A) (A)
                 (A) (A) (A) (A) (A) (A) (A) (A) (A) (A) (A) (A)
                 (A) (A) (A) (A) (A) (A) (A) (A) (A) (A) (A) (A)
                 (A) (A) (A) (A) (A) (A) (A) (A) (A) (A) (A) (A)
                 (A) (A) (A) (A) (A) (A) (A) (A) (A) (A) (A) (A)
                 (A) (A) (A) (A) (A) (A) (A) (A) (A) (A) (A) (A)
                 (A) (A) (A) (A) (A) (A) (A) (A) (A) (A) (A) (A)
                 (A) (A) (A) (A) (A) (A) (A) (A) (A) (A) (A) (A)
                 (A) (A) (A) (A) (A) (A) (A) (A) (A) (A) (A) (A)
                 (A) (A) (A) (A) (A) (A) (A) (A) (A) (A) (A) (A)
                 (A) (A) (A) (A) (A) (A) (A) (A) (A) (A) (A) (A)
                 (A) (A) (A) (A) (A) (A) (A) (A) (A) (A) (A) (A)
                 (A) (A) (A) (A) (A) (A) (A) (A) (A) (A) (A) (A)
                 (A) (A) (A) (A) (A) (A) (A) (A) (A) (A) (A) (A)
                 (A) (A) (A) (A) (A) (A) (A) (A) (A) (A) (A) (A)
                 (A) (A) (A) (A) (A) (A) (A) (A) (A) (A) (A) (A)
                 (A) (A) (A) (A) (A) (A) (A) (A) (A) (A) (A) (A)
                 (A) (A) (A) (A) (A) (A) (A) (A) (A) (A) (A) (A)
                 (A) (A) (A) (A) (A) (A) (A) (A) (A) (A) (A) (A)
                 (A) (A) (A) (A) (A) (A) (A) (A) (A) (A) (A) (A)
                 (A) (A) (A) (A) (A) (A) (A) (A) (A) (A) (A) (A)
                 (A) (A) (A) (A) (A) (A) (A) (A) (A) (A) (A) (A)
                 (A) (A) (A) (A) (A) (A) (A) (A) (A) (A) (A) (A)
                 (A) (A) (A) (A) (A) (A) (A) (A) (A) (A) (A) (A)
                 (A) (A) (A) (A) (A) (A) (A) (A) (A) (A) (A) (A)
                 (A) (A) (A) (A) (A) (A) (A) (A) (A) (A) (A) (A)
                 (A) (A) (A) (A) (A) (A) (A) (A) (A) (A) (A) (A)
                 (A) (A) (A) (A) (A) (A) (A) (A) (A) (A) (A) (A)
                 (A) (A) (A) (A) (A) (A) (A) (A) (A) (A) (A) (A)
                 (A) (A) (A) (A) (A) (A) (A) (A) (A) (A) (A) (A)
                 (A) (A) (A) (A) (A) (A) (A) (A) (A) (A) (A) (A)
                 (A) (A) (A) (A) (A) (A) (A) (A) (A) (A) (A) (A)
                 (A) (A) (A) (A) (A) (A) (A) (A) (A) (A) (A) (A)
                 (A) (A) (A) (A) (A) (A) (A) (A) (A) (A) (A) (A)
                 (A) (A) (A) (A) (A) (A) (A) (A) (A) (A) (A) (A)
                 (A) (A) (A) (A) (A) (A) (A) (A) (A) (A) (A) (A)
                 (A) (A) (A) (A) (A) (A) (A) (A) (A) (A) (A) (A)
                 (A) (A) (A) (A) (A) (A) (A) (A) (A) (A) (A) (A)
                 (A) (A) (A) (A) (A) (A) (A) (A) (A) (A) (A) (A)
                 (A) (A) (A) (A) (A) (A) (A) (A) (A) (A) (A) (A)
                 (A) (A) (A) (A) (A) (A) (A) (A) (A) (A) (A) (A)
                 (A) (A) (A) (A) (A) (A) (A) (A) (A) (A) (A) (A)
                 (A) (A) (A) (A) (A) (A) (A) (A) (A) (A) (A) (A)
                 (A) (A) (A) (A) (A) (A) (A) (A) (A) (A) (A) (A)
                 (A) (A) (A) (A) (A) (A) (A) (A) (A) (A) (A) (A)
                 (A) (A) (A) (A) (A) (A) (A) (A) (A) (A) (A) (A)
                 (A) (A) (A) (A) (A) (A) (A) (A) (A) (A) (A) (A)
                 (A) (A) (A) (A) (A) (A) (A) (A) (A) (A) (A) (A)
                 (A) (A) (A) (A) (A) (A) (A) (A) (A) (A) (A) (A)
                 (A) (A) (A) (A) (A) (A) (A) (A) (A) (A) (A) (A)
                 (A) (A) (A) (A) (A) (A) (A) (A) (A) (A) (A) (A)
                 (A) (A) (A) (A) (A) (A) (A) (A) (A) (A) (A) (A)
                 (A) (A) (A) (A) (A) (A) (A) (A) (A) (A) (A) (A)
                 (A) (A) (A) (A) (A) (A) (A) (A) (A) (A) (A) (A)
                 (A) (A) (A) (A) (A) (A) (A) (A) (A) (A) (A) (A)
                 (A) (A) (A) (A) (A) (A) (A) (A) (A) (A) (A) (A)
                 (A) (A) (A) (A) (A) (A) (A) (A) (A) (A) (A) (A)
                 (A) (A) (A) (A) (A) (A) (A) (A) (A) (A) (A) (A)
                 (A) (A) (A) (A) (A) (A) (A) (A) (A) (A) (A) (A)
                 (A) (A) (A) (A) (A) (A) (A) (A) (A) (A) (A) (A)
                 (A) (A) (A) (A) (A) (A) (A) (A) (A) (A) (A) (A)
                 (A) (A) (A) (A) (A) (A) (A) (A) (A) (A) (A) (A)
                 (A) (A) (A) (A) (A) (A) (A) (A) (A) (A) (A) (A)
                 (A) (A) (A) (A) (A) (A) (A) (A) (A) (A) (A) (A)
                 (A) (A) (A) (A) (A) (A) (A) (A) (A) (A) (A) (A)
                 (A) (A) (A) (A) (A) (A) (A) (A) (A) (A) (A) (A)
                 (A) (A) (A) (A) (A) (A) (A) (A) (A) (A) (A) (A)
                 (A) (A) (A) (A) (A) (A) (A) (A) (A) (A) (A) (A)
                 (A) (A) (A) (A) (A) (A) (A) (A) (A) (A) (A) (A)
                 (A) (A) (A)
 Beta  Orbitals:
       Occupied  (A) (A) (A) (A) (A) (A) (A) (A) (A) (A) (A) (A)
                 (A) (A) (A) (A) (A) (A) (A) (A) (A) (A) (A) (A)
                 (A) (A) (A) (A) (A) (A) (A) (A) (A) (A) (A) (A)
                 (A) (A) (A) (A) (A) (A) (A) (A) (A) (A) (A) (A)
                 (A) (A) (A) (A) (A) (A) (A) (A) (A) (A) (A) (A)
                 (A) (A) (A) (A) (A) (A) (A) (A) (A) (A) (A) (A)
                 (A) (A) (A) (A) (A) (A) (A) (A) (A) (A) (A) (A)
                 (A) (A) (A) (A) (A) (A) (A) (A) (A) (A) (A) (A)
                 (A) (A) (A) (A) (A) (A) (A) (A) (A) (A) (A) (A)
                 (A) (A) (A) (A) (A) (A) (A) (A) (A) (A) (A) (A)
                 (A) (A) (A) (A) (A) (A) (A) (A) (A) (A) (A) (A)
                 (A) (A) (A) (A) (A) (A) (A) (A) (A) (A) (A) (A)
                 (A) (A) (A) (A) (A) (A) (A) (A) (A) (A) (A) (A)
                 (A) (A) (A) (A) (A) (A) (A) (A) (A) (A) (A) (A)
                 (A) (A) (A) (A) (A) (A) (A) (A) (A) (A) (A) (A)
                 (A) (A) (A) (A) (A) (A) (A) (A) (A) (A) (A) (A)
                 (A) (A) (A) (A) (A) (A) (A) (A) (A) (A) (A)
       Virtual   (A) (A) (A) (A) (A) (A) (A) (A) (A) (A) (A) (A)
                 (A) (A) (A) (A) (A) (A) (A) (A) (A) (A) (A) (A)
                 (A) (A) (A) (A) (A) (A) (A) (A) (A) (A) (A) (A)
                 (A) (A) (A) (A) (A) (A) (A) (A) (A) (A) (A) (A)
                 (A) (A) (A) (A) (A) (A) (A) (A) (A) (A) (A) (A)
                 (A) (A) (A) (A) (A) (A) (A) (A) (A) (A) (A) (A)
                 (A) (A) (A) (A) (A) (A) (A) (A) (A) (A) (A) (A)
                 (A) (A) (A) (A) (A) (A) (A) (A) (A) (A) (A) (A)
                 (A) (A) (A) (A) (A) (A) (A) (A) (A) (A) (A) (A)
                 (A) (A) (A) (A) (A) (A) (A) (A) (A) (A) (A) (A)
                 (A) (A) (A) (A) (A) (A) (A) (A) (A) (A) (A) (A)
                 (A) (A) (A) (A) (A) (A) (A) (A) (A) (A) (A) (A)
                 (A) (A) (A) (A) (A) (A) (A) (A) (A) (A) (A) (A)
                 (A) (A) (A) (A) (A) (A) (A) (A) (A) (A) (A) (A)
                 (A) (A) (A) (A) (A) (A) (A) (A) (A) (A) (A) (A)
                 (A) (A) (A) (A) (A) (A) (A) (A) (A) (A) (A) (A)
                 (A) (A) (A) (A) (A) (A) (A) (A) (A) (A) (A) (A)
                 (A) (A) (A) (A) (A) (A) (A) (A) (A) (A) (A) (A)
                 (A) (A) (A) (A) (A) (A) (A) (A) (A) (A) (A) (A)
                 (A) (A) (A) (A) (A) (A) (A) (A) (A) (A) (A) (A)
                 (A) (A) (A) (A) (A) (A) (A) (A) (A) (A) (A) (A)
                 (A) (A) (A) (A) (A) (A) (A) (A) (A) (A) (A) (A)
                 (A) (A) (A) (A) (A) (A) (A) (A) (A) (A) (A) (A)
                 (A) (A) (A) (A) (A) (A) (A) (A) (A) (A) (A) (A)
                 (A) (A) (A) (A) (A) (A) (A) (A) (A) (A) (A) (A)
                 (A) (A) (A) (A) (A) (A) (A) (A) (A) (A) (A) (A)
                 (A) (A) (A) (A) (A) (A) (A) (A) (A) (A) (A) (A)
                 (A) (A) (A) (A) (A) (A) (A) (A) (A) (A) (A) (A)
                 (A) (A) (A) (A) (A) (A) (A) (A) (A) (A) (A) (A)
                 (A) (A) (A) (A) (A) (A) (A) (A) (A) (A) (A) (A)
                 (A) (A) (A) (A) (A) (A) (A) (A) (A) (A) (A) (A)
                 (A) (A) (A) (A) (A) (A) (A) (A) (A) (A) (A) (A)
                 (A) (A) (A) (A) (A) (A) (A) (A) (A) (A) (A) (A)
                 (A) (A) (A) (A) (A) (A) (A) (A) (A) (A) (A) (A)
                 (A) (A) (A) (A) (A) (A) (A) (A) (A) (A) (A) (A)
                 (A) (A) (A) (A) (A) (A) (A) (A) (A) (A) (A) (A)
                 (A) (A) (A) (A) (A) (A) (A) (A) (A) (A) (A) (A)
                 (A) (A) (A) (A) (A) (A) (A) (A) (A) (A) (A) (A)
                 (A) (A) (A) (A) (A) (A) (A) (A) (A) (A) (A) (A)
                 (A) (A) (A) (A) (A) (A) (A) (A) (A) (A) (A) (A)
                 (A) (A) (A) (A) (A) (A) (A) (A) (A) (A) (A) (A)
                 (A) (A) (A) (A) (A) (A) (A) (A) (A) (A) (A) (A)
                 (A) (A) (A) (A) (A) (A) (A) (A) (A) (A) (A) (A)
                 (A) (A) (A) (A) (A) (A) (A) (A) (A) (A) (A) (A)
                 (A) (A) (A) (A) (A) (A) (A) (A) (A) (A) (A) (A)
                 (A) (A) (A) (A) (A) (A) (A) (A) (A) (A) (A) (A)
                 (A) (A) (A) (A) (A) (A) (A) (A) (A) (A) (A) (A)
                 (A) (A) (A) (A) (A) (A) (A) (A) (A) (A) (A) (A)
                 (A) (A) (A) (A) (A) (A) (A) (A) (A) (A) (A) (A)
                 (A) (A) (A) (A) (A) (A) (A) (A) (A) (A) (A) (A)
                 (A) (A) (A) (A) (A) (A) (A) (A) (A) (A) (A) (A)
                 (A) (A) (A) (A) (A) (A) (A) (A) (A) (A) (A) (A)
                 (A) (A) (A) (A) (A) (A) (A) (A) (A) (A) (A) (A)
                 (A) (A) (A) (A) (A) (A) (A) (A) (A) (A) (A) (A)
                 (A) (A) (A) (A) (A) (A) (A) (A) (A) (A) (A) (A)
                 (A) (A) (A) (A) (A) (A) (A) (A) (A) (A) (A) (A)
                 (A) (A) (A) (A) (A) (A) (A) (A) (A) (A) (A) (A)
                 (A) (A) (A) (A) (A) (A) (A) (A) (A) (A) (A) (A)
                 (A) (A) (A) (A) (A) (A) (A) (A) (A) (A) (A) (A)
                 (A) (A) (A) (A) (A) (A) (A) (A) (A) (A) (A) (A)
                 (A) (A) (A) (A) (A) (A) (A) (A) (A) (A) (A) (A)
                 (A) (A) (A) (A) (A) (A) (A) (A) (A) (A) (A) (A)
                 (A) (A) (A) (A) (A) (A) (A) (A) (A) (A) (A) (A)
                 (A) (A) (A) (A) (A) (A) (A) (A) (A) (A) (A) (A)
                 (A) (A) (A) (A) (A) (A) (A) (A) (A) (A) (A) (A)
                 (A) (A) (A) (A) (A) (A) (A) (A) (A) (A) (A) (A)
                 (A) (A) (A) (A) (A) (A) (A) (A) (A) (A) (A) (A)
                 (A) (A) (A) (A) (A) (A) (A) (A) (A) (A) (A) (A)
                 (A) (A) (A) (A) (A) (A) (A) (A) (A) (A) (A) (A)
                 (A) (A) (A) (A) (A) (A) (A) (A) (A) (A) (A) (A)
                 (A) (A) (A) (A) (A) (A) (A) (A) (A) (A) (A) (A)
                 (A) (A) (A) (A) (A) (A) (A) (A) (A) (A) (A) (A)
                 (A) (A) (A) (A) (A) (A) (A) (A) (A) (A) (A) (A)
                 (A) (A) (A) (A) (A) (A) (A) (A) (A) (A) (A) (A)
                 (A) (A) (A) (A) (A) (A) (A) (A) (A) (A) (A) (A)
                 (A) (A) (A) (A) (A) (A) (A) (A) (A) (A) (A) (A)
                 (A) (A) (A) (A) (A) (A) (A) (A) (A) (A) (A) (A)
                 (A) (A) (A) (A) (A) (A) (A) (A) (A) (A) (A) (A)
                 (A) (A) (A) (A) (A) (A) (A) (A) (A) (A) (A) (A)
                 (A) (A) (A) (A) (A) (A) (A) (A) (A) (A) (A) (A)
                 (A) (A) (A) (A) (A) (A) (A) (A) (A) (A) (A) (A)
                 (A) (A) (A) (A) (A) (A) (A) (A) (A) (A) (A) (A)
                 (A) (A) (A) (A) (A) (A) (A) (A) (A) (A) (A) (A)
                 (A) (A) (A) (A) (A) (A) (A) (A) (A) (A) (A) (A)
                 (A) (A) (A) (A) (A) (A) (A) (A) (A) (A) (A) (A)
                 (A) (A) (A) (A) (A) (A) (A) (A) (A) (A) (A) (A)
                 (A) (A) (A) (A) (A) (A) (A) (A) (A) (A) (A) (A)
                 (A) (A) (A) (A) (A) (A) (A) (A) (A) (A) (A) (A)
                 (A) (A) (A) (A) (A) (A) (A) (A) (A) (A) (A) (A)
                 (A) (A) (A) (A) (A) (A) (A) (A) (A) (A) (A) (A)
                 (A) (A) (A) (A) (A) (A) (A) (A) (A) (A) (A) (A)
                 (A) (A) (A) (A) (A) (A) (A) (A) (A) (A) (A) (A)
                 (A) (A) (A) (A) (A) (A) (A) (A) (A) (A) (A) (A)
                 (A) (A) (A) (A) (A) (A) (A) (A) (A) (A) (A) (A)
                 (A) (A) (A) (A) (A) (A) (A) (A) (A) (A) (A) (A)
                 (A) (A) (A) (A) (A) (A) (A) (A) (A) (A) (A) (A)
                 (A) (A) (A) (A) (A) (A) (A) (A) (A) (A) (A) (A)
                 (A) (A) (A) (A) (A) (A) (A) (A) (A) (A) (A) (A)
                 (A) (A) (A) (A) (A) (A) (A) (A) (A) (A) (A) (A)
                 (A) (A) (A) (A) (A) (A) (A) (A) (A) (A) (A) (A)
                 (A) (A) (A) (A) (A) (A) (A) (A) (A) (A) (A) (A)
                 (A) (A) (A) (A) (A) (A) (A) (A) (A) (A) (A) (A)
                 (A) (A) (A) (A) (A) (A) (A) (A) (A) (A) (A) (A)
                 (A) (A) (A) (A) (A) (A) (A) (A) (A) (A) (A) (A)
                 (A) (A) (A) (A) (A) (A) (A) (A) (A) (A) (A) (A)
                 (A) (A) (A) (A) (A) (A) (A) (A) (A) (A) (A) (A)
                 (A) (A) (A) (A) (A) (A) (A) (A) (A) (A) (A) (A)
                 (A) (A) (A) (A) (A) (A) (A) (A) (A) (A) (A) (A)
                 (A) (A) (A) (A) (A) (A) (A) (A) (A) (A) (A) (A)
                 (A) (A) (A) (A) (A) (A) (A) (A) (A) (A) (A) (A)
                 (A) (A) (A) (A) (A) (A) (A) (A) (A) (A) (A) (A)
                 (A) (A) (A) (A) (A) (A) (A) (A) (A) (A) (A) (A)
                 (A) (A) (A) (A) (A) (A) (A) (A) (A) (A) (A) (A)
                 (A) (A) (A) (A) (A) (A) (A) (A) (A) (A) (A) (A)
                 (A) (A) (A) (A) (A) (A) (A) (A) (A) (A) (A) (A)
                 (A) (A) (A) (A) (A) (A) (A) (A) (A) (A) (A) (A)
                 (A) (A) (A) (A) (A) (A) (A) (A) (A) (A) (A) (A)
                 (A) (A) (A) (A) (A) (A) (A) (A) (A) (A) (A) (A)
                 (A) (A) (A) (A) (A) (A) (A) (A) (A) (A) (A) (A)
                 (A) (A) (A) (A) (A) (A) (A) (A) (A) (A) (A) (A)
                 (A) (A) (A) (A) (A) (A) (A) (A) (A) (A) (A) (A)
                 (A) (A) (A) (A) (A) (A) (A) (A) (A) (A) (A) (A)
                 (A) (A) (A) (A) (A) (A) (A) (A) (A) (A) (A) (A)
                 (A) (A) (A) (A) (A) (A) (A) (A) (A) (A) (A) (A)
                 (A) (A) (A) (A) (A) (A) (A) (A) (A) (A) (A) (A)
                 (A) (A) (A) (A) (A) (A) (A) (A) (A) (A) (A) (A)
                 (A) (A) (A) (A) (A) (A) (A) (A) (A) (A) (A) (A)
                 (A) (A) (A) (A) (A) (A) (A) (A) (A) (A) (A) (A)
                 (A) (A) (A) (A) (A) (A) (A) (A) (A) (A) (A) (A)
                 (A) (A) (A) (A) (A) (A) (A) (A) (A) (A) (A) (A)
                 (A) (A) (A) (A) (A) (A) (A) (A) (A) (A) (A) (A)
                 (A) (A) (A) (A) (A) (A) (A) (A) (A) (A) (A) (A)
                 (A) (A) (A) (A) (A) (A) (A) (A) (A) (A) (A) (A)
                 (A) (A) (A) (A) (A) (A) (A) (A) (A) (A) (A) (A)
                 (A) (A) (A) (A) (A) (A) (A) (A) (A) (A) (A) (A)
                 (A) (A) (A) (A) (A) (A) (A) (A) (A) (A) (A) (A)
                 (A) (A) (A) (A) (A) (A) (A) (A) (A) (A) (A) (A)
                 (A) (A) (A) (A) (A) (A) (A) (A) (A) (A) (A) (A)
                 (A) (A) (A) (A) (A) (A) (A) (A) (A) (A) (A) (A)
                 (A) (A) (A) (A) (A) (A) (A) (A) (A) (A) (A) (A)
                 (A) (A) (A) (A) (A) (A) (A) (A) (A) (A) (A) (A)
                 (A) (A) (A) (A) (A) (A) (A) (A) (A) (A) (A) (A)
                 (A) (A) (A) (A) (A) (A) (A) (A) (A) (A) (A) (A)
                 (A) (A) (A) (A) (A) (A) (A) (A) (A) (A) (A) (A)
                 (A) (A) (A) (A) (A) (A) (A) (A) (A) (A) (A) (A)
                 (A) (A) (A) (A) (A) (A) (A) (A) (A) (A) (A) (A)
                 (A) (A) (A) (A) (A) (A) (A) (A)
 The electronic state is 6-A.
 Alpha  occ. eigenvalues -- -256.54107 -89.14924 -30.36880 -26.18578 -26.18513
 Alpha  occ. eigenvalues --  -26.18441 -19.34659 -19.33285 -19.24799 -19.24270
 Alpha  occ. eigenvalues --  -14.56452 -14.51139 -14.47684 -14.47589 -14.47430
 Alpha  occ. eigenvalues --  -14.46931 -10.43191 -10.42480 -10.40208 -10.37221
 Alpha  occ. eigenvalues --  -10.35477 -10.35204 -10.35147 -10.35124 -10.35007
 Alpha  occ. eigenvalues --  -10.34934 -10.34909 -10.34827 -10.34733 -10.33372
 Alpha  occ. eigenvalues --  -10.33297 -10.32978 -10.32888 -10.32740 -10.32569
 Alpha  occ. eigenvalues --  -10.32449 -10.32288 -10.32249 -10.32248 -10.32212
 Alpha  occ. eigenvalues --  -10.32159 -10.32091 -10.31952 -10.31880 -10.31477
 Alpha  occ. eigenvalues --  -10.31263 -10.31184 -10.30875 -10.30689 -10.30584
 Alpha  occ. eigenvalues --  -10.30323 -10.30163 -10.30156 -10.29645 -10.28305
 Alpha  occ. eigenvalues --  -10.28091 -10.28070  -8.12586  -6.06343  -6.05888
 Alpha  occ. eigenvalues --   -6.05399  -3.79522  -2.55714  -2.55613  -2.55459
 Alpha  occ. eigenvalues --   -1.25299  -1.25164  -1.17004  -1.10802  -1.10076
 Alpha  occ. eigenvalues --   -1.09088  -1.08423  -1.07496  -1.05969  -1.02944
 Alpha  occ. eigenvalues --   -0.96114  -0.95707  -0.94282  -0.93613  -0.93165
 Alpha  occ. eigenvalues --   -0.92692  -0.92438  -0.92066  -0.90982  -0.89609
 Alpha  occ. eigenvalues --   -0.88859  -0.88002  -0.87554  -0.87096  -0.86533
 Alpha  occ. eigenvalues --   -0.84739  -0.82805  -0.82468  -0.82140  -0.81310
 Alpha  occ. eigenvalues --   -0.80109  -0.79635  -0.78561  -0.78448  -0.77310
 Alpha  occ. eigenvalues --   -0.77225  -0.76885  -0.74544  -0.73627  -0.73276
 Alpha  occ. eigenvalues --   -0.73108  -0.72965  -0.70467  -0.70055  -0.69870
 Alpha  occ. eigenvalues --   -0.67719  -0.67217  -0.66470  -0.65966  -0.64472
 Alpha  occ. eigenvalues --   -0.63403  -0.63205  -0.62942  -0.62339  -0.61883
 Alpha  occ. eigenvalues --   -0.61312  -0.60540  -0.60014  -0.59805  -0.59622
 Alpha  occ. eigenvalues --   -0.59505  -0.59246  -0.58760  -0.58556  -0.58414
 Alpha  occ. eigenvalues --   -0.57594  -0.57506  -0.56897  -0.56711  -0.56466
 Alpha  occ. eigenvalues --   -0.56136  -0.56021  -0.55685  -0.55428  -0.55371
 Alpha  occ. eigenvalues --   -0.55147  -0.54850  -0.54750  -0.54657  -0.54184
 Alpha  occ. eigenvalues --   -0.53974  -0.53712  -0.53486  -0.53316  -0.53168
 Alpha  occ. eigenvalues --   -0.52886  -0.52510  -0.52392  -0.52217  -0.52084
 Alpha  occ. eigenvalues --   -0.51792  -0.51433  -0.51296  -0.50968  -0.50739
 Alpha  occ. eigenvalues --   -0.50549  -0.50277  -0.50156  -0.49984  -0.49890
 Alpha  occ. eigenvalues --   -0.49046  -0.48733  -0.48499  -0.48168  -0.47987
 Alpha  occ. eigenvalues --   -0.47813  -0.47233  -0.47050  -0.46940  -0.46773
 Alpha  occ. eigenvalues --   -0.46511  -0.46378  -0.46160  -0.45689  -0.45424
 Alpha  occ. eigenvalues --   -0.44952  -0.44774  -0.44542  -0.44004  -0.43782
 Alpha  occ. eigenvalues --   -0.43680  -0.43165  -0.42964  -0.42843  -0.41728
 Alpha  occ. eigenvalues --   -0.41594  -0.39742  -0.39434  -0.39168  -0.39004
 Alpha  occ. eigenvalues --   -0.37887  -0.35243  -0.34773  -0.34380  -0.34046
 Alpha  occ. eigenvalues --   -0.33754  -0.33501  -0.33271  -0.32867  -0.32316
 Alpha  occ. eigenvalues --   -0.31004  -0.30542  -0.30406
 Alpha virt. eigenvalues --   -0.18940  -0.18581  -0.13463  -0.12325  -0.10618
 Alpha virt. eigenvalues --   -0.10091  -0.08683  -0.07103  -0.06544  -0.06502
 Alpha virt. eigenvalues --   -0.05518  -0.05086  -0.04872  -0.04553  -0.04228
 Alpha virt. eigenvalues --   -0.03637  -0.03488  -0.03177  -0.02847  -0.02458
 Alpha virt. eigenvalues --   -0.02231  -0.02158  -0.01872  -0.01765  -0.01358
 Alpha virt. eigenvalues --   -0.00965  -0.00795  -0.00483  -0.00178   0.00020
 Alpha virt. eigenvalues --    0.00229   0.00623   0.00890   0.01190   0.01676
 Alpha virt. eigenvalues --    0.01766   0.01869   0.02265   0.02469   0.02928
 Alpha virt. eigenvalues --    0.03104   0.03326   0.03674   0.03720   0.04079
 Alpha virt. eigenvalues --    0.04169   0.04331   0.04527   0.04706   0.04913
 Alpha virt. eigenvalues --    0.05004   0.05289   0.05502   0.05663   0.05975
 Alpha virt. eigenvalues --    0.06116   0.06324   0.06362   0.06567   0.06669
 Alpha virt. eigenvalues --    0.06741   0.07006   0.07196   0.07331   0.07824
 Alpha virt. eigenvalues --    0.07882   0.08184   0.08295   0.08504   0.08580
 Alpha virt. eigenvalues --    0.08861   0.09011   0.09204   0.09379   0.09638
 Alpha virt. eigenvalues --    0.10044   0.10290   0.10404   0.10693   0.10861
 Alpha virt. eigenvalues --    0.11006   0.11068   0.11457   0.11662   0.11824
 Alpha virt. eigenvalues --    0.11921   0.12267   0.12389   0.12521   0.12816
 Alpha virt. eigenvalues --    0.12860   0.13014   0.13233   0.13435   0.13601
 Alpha virt. eigenvalues --    0.13727   0.14038   0.14234   0.14352   0.14558
 Alpha virt. eigenvalues --    0.14672   0.14913   0.15181   0.15370   0.15546
 Alpha virt. eigenvalues --    0.15675   0.15823   0.16117   0.16162   0.16214
 Alpha virt. eigenvalues --    0.16517   0.16770   0.16902   0.17163   0.17302
 Alpha virt. eigenvalues --    0.17679   0.17821   0.17891   0.18014   0.18452
 Alpha virt. eigenvalues --    0.18643   0.19098   0.19285   0.19403   0.19724
 Alpha virt. eigenvalues --    0.19849   0.19965   0.20222   0.20365   0.20654
 Alpha virt. eigenvalues --    0.20984   0.21144   0.21397   0.21570   0.21622
 Alpha virt. eigenvalues --    0.21984   0.22380   0.22597   0.22868   0.22967
 Alpha virt. eigenvalues --    0.23365   0.23576   0.23745   0.23914   0.24293
 Alpha virt. eigenvalues --    0.24388   0.24515   0.24810   0.25087   0.25292
 Alpha virt. eigenvalues --    0.25547   0.25686   0.25798   0.26256   0.26592
 Alpha virt. eigenvalues --    0.26688   0.26859   0.27104   0.27426   0.27451
 Alpha virt. eigenvalues --    0.27907   0.28237   0.28359   0.28539   0.28694
 Alpha virt. eigenvalues --    0.29027   0.29285   0.29327   0.29587   0.29760
 Alpha virt. eigenvalues --    0.30077   0.30209   0.30320   0.30668   0.30729
 Alpha virt. eigenvalues --    0.30890   0.31302   0.31552   0.31612   0.31740
 Alpha virt. eigenvalues --    0.32056   0.32111   0.32232   0.32304   0.32704
 Alpha virt. eigenvalues --    0.32779   0.32904   0.33075   0.33405   0.33550
 Alpha virt. eigenvalues --    0.33751   0.34018   0.34143   0.34425   0.34597
 Alpha virt. eigenvalues --    0.34679   0.34776   0.34961   0.35106   0.35375
 Alpha virt. eigenvalues --    0.35490   0.35572   0.35654   0.35855   0.36091
 Alpha virt. eigenvalues --    0.36195   0.36241   0.36590   0.36749   0.36831
 Alpha virt. eigenvalues --    0.37128   0.37282   0.37411   0.37599   0.37782
 Alpha virt. eigenvalues --    0.37957   0.38052   0.38366   0.38491   0.38746
 Alpha virt. eigenvalues --    0.38816   0.38861   0.39062   0.39233   0.39408
 Alpha virt. eigenvalues --    0.39487   0.39582   0.39880   0.40102   0.40271
 Alpha virt. eigenvalues --    0.40624   0.40641   0.41013   0.41279   0.41430
 Alpha virt. eigenvalues --    0.41459   0.41579   0.41766   0.41778   0.42212
 Alpha virt. eigenvalues --    0.42253   0.42447   0.42635   0.42856   0.42988
 Alpha virt. eigenvalues --    0.43073   0.43162   0.43342   0.43594   0.43726
 Alpha virt. eigenvalues --    0.43939   0.44063   0.44263   0.44390   0.44485
 Alpha virt. eigenvalues --    0.45055   0.45106   0.45184   0.45346   0.45569
 Alpha virt. eigenvalues --    0.45778   0.46008   0.46310   0.46422   0.46587
 Alpha virt. eigenvalues --    0.47007   0.47091   0.47232   0.47442   0.47462
 Alpha virt. eigenvalues --    0.47621   0.47686   0.48073   0.48406   0.48471
 Alpha virt. eigenvalues --    0.48755   0.49118   0.49249   0.49479   0.49763
 Alpha virt. eigenvalues --    0.50046   0.50211   0.50403   0.50505   0.50635
 Alpha virt. eigenvalues --    0.50862   0.51059   0.51647   0.51953   0.52149
 Alpha virt. eigenvalues --    0.52432   0.52505   0.52818   0.52979   0.53099
 Alpha virt. eigenvalues --    0.53465   0.53767   0.54014   0.54246   0.54427
 Alpha virt. eigenvalues --    0.54494   0.54738   0.55051   0.55377   0.55570
 Alpha virt. eigenvalues --    0.55990   0.56173   0.56390   0.56461   0.57116
 Alpha virt. eigenvalues --    0.57254   0.57489   0.57804   0.57981   0.58010
 Alpha virt. eigenvalues --    0.58395   0.58492   0.58793   0.58945   0.59165
 Alpha virt. eigenvalues --    0.59545   0.59929   0.60033   0.60422   0.60751
 Alpha virt. eigenvalues --    0.60937   0.61237   0.61560   0.61964   0.62009
 Alpha virt. eigenvalues --    0.62192   0.62316   0.62675   0.62769   0.62860
 Alpha virt. eigenvalues --    0.63610   0.63672   0.63887   0.64233   0.64549
 Alpha virt. eigenvalues --    0.64828   0.65152   0.65655   0.65776   0.66083
 Alpha virt. eigenvalues --    0.66263   0.66629   0.66774   0.66847   0.67173
 Alpha virt. eigenvalues --    0.67678   0.67943   0.68251   0.68680   0.68912
 Alpha virt. eigenvalues --    0.69209   0.69400   0.69706   0.69967   0.70097
 Alpha virt. eigenvalues --    0.70340   0.70746   0.71076   0.71321   0.71464
 Alpha virt. eigenvalues --    0.71753   0.72156   0.72577   0.72908   0.73050
 Alpha virt. eigenvalues --    0.73459   0.73510   0.74170   0.74278   0.74421
 Alpha virt. eigenvalues --    0.75084   0.75675   0.75968   0.76164   0.76400
 Alpha virt. eigenvalues --    0.76628   0.76952   0.77274   0.77430   0.77548
 Alpha virt. eigenvalues --    0.77768   0.78139   0.78189   0.78448   0.78981
 Alpha virt. eigenvalues --    0.79084   0.79410   0.79786   0.80055   0.80342
 Alpha virt. eigenvalues --    0.80568   0.80819   0.80932   0.81150   0.81482
 Alpha virt. eigenvalues --    0.82033   0.82514   0.82598   0.82799   0.83229
 Alpha virt. eigenvalues --    0.83430   0.83710   0.83882   0.83976   0.84514
 Alpha virt. eigenvalues --    0.84850   0.85000   0.85314   0.85506   0.85653
 Alpha virt. eigenvalues --    0.85963   0.86190   0.86258   0.86594   0.86714
 Alpha virt. eigenvalues --    0.87135   0.87212   0.87773   0.87997   0.88250
 Alpha virt. eigenvalues --    0.88429   0.88578   0.88718   0.89054   0.89422
 Alpha virt. eigenvalues --    0.89750   0.89968   0.89997   0.90292   0.90415
 Alpha virt. eigenvalues --    0.90655   0.90845   0.91446   0.91868   0.91969
 Alpha virt. eigenvalues --    0.92605   0.92684   0.92860   0.93216   0.93575
 Alpha virt. eigenvalues --    0.93974   0.94089   0.94296   0.94673   0.94960
 Alpha virt. eigenvalues --    0.95100   0.95211   0.95393   0.95846   0.96191
 Alpha virt. eigenvalues --    0.96268   0.96653   0.96895   0.97140   0.97338
 Alpha virt. eigenvalues --    0.97490   0.97659   0.97968   0.98399   0.98622
 Alpha virt. eigenvalues --    0.99189   0.99500   0.99767   1.00312   1.00440
 Alpha virt. eigenvalues --    1.00814   1.01002   1.01233   1.01848   1.02110
 Alpha virt. eigenvalues --    1.02398   1.02519   1.02806   1.03172   1.03242
 Alpha virt. eigenvalues --    1.03875   1.03941   1.04019   1.04516   1.04705
 Alpha virt. eigenvalues --    1.05296   1.05680   1.06260   1.06574   1.06910
 Alpha virt. eigenvalues --    1.06998   1.07086   1.07711   1.07921   1.08000
 Alpha virt. eigenvalues --    1.08511   1.08934   1.09049   1.09266   1.09496
 Alpha virt. eigenvalues --    1.10313   1.10612   1.10978   1.11524   1.11582
 Alpha virt. eigenvalues --    1.11903   1.11976   1.12626   1.13270   1.13422
 Alpha virt. eigenvalues --    1.13582   1.13680   1.13912   1.14342   1.14842
 Alpha virt. eigenvalues --    1.14937   1.15922   1.16187   1.16634   1.16986
 Alpha virt. eigenvalues --    1.17440   1.17817   1.17999   1.18538   1.18766
 Alpha virt. eigenvalues --    1.19107   1.19397   1.19828   1.19926   1.20668
 Alpha virt. eigenvalues --    1.21046   1.21195   1.21324   1.21558   1.21853
 Alpha virt. eigenvalues --    1.22075   1.22186   1.23058   1.23274   1.23477
 Alpha virt. eigenvalues --    1.23899   1.24392   1.24826   1.25010   1.25349
 Alpha virt. eigenvalues --    1.25488   1.25813   1.26137   1.26939   1.27105
 Alpha virt. eigenvalues --    1.27428   1.27524   1.28248   1.28702   1.29021
 Alpha virt. eigenvalues --    1.29368   1.29685   1.30044   1.30308   1.30660
 Alpha virt. eigenvalues --    1.31519   1.31989   1.32554   1.32941   1.33268
 Alpha virt. eigenvalues --    1.33355   1.34416   1.34642   1.35088   1.35641
 Alpha virt. eigenvalues --    1.35778   1.36204   1.36576   1.36996   1.37478
 Alpha virt. eigenvalues --    1.37744   1.37991   1.38196   1.38782   1.38911
 Alpha virt. eigenvalues --    1.39539   1.39805   1.40117   1.40274   1.40585
 Alpha virt. eigenvalues --    1.41025   1.41296   1.41705   1.41911   1.42225
 Alpha virt. eigenvalues --    1.42594   1.42675   1.43326   1.43499   1.43646
 Alpha virt. eigenvalues --    1.44100   1.44137   1.44711   1.44874   1.45060
 Alpha virt. eigenvalues --    1.45421   1.45556   1.45838   1.46291   1.46551
 Alpha virt. eigenvalues --    1.46598   1.46979   1.47197   1.47375   1.47548
 Alpha virt. eigenvalues --    1.47784   1.48008   1.48303   1.48611   1.48976
 Alpha virt. eigenvalues --    1.49202   1.49249   1.49757   1.50170   1.50433
 Alpha virt. eigenvalues --    1.50644   1.50795   1.50947   1.51151   1.51531
 Alpha virt. eigenvalues --    1.51839   1.51983   1.52148   1.52523   1.52656
 Alpha virt. eigenvalues --    1.52693   1.52790   1.53123   1.53309   1.53424
 Alpha virt. eigenvalues --    1.53797   1.54486   1.54674   1.54818   1.55093
 Alpha virt. eigenvalues --    1.55265   1.55554   1.55809   1.56116   1.56355
 Alpha virt. eigenvalues --    1.56662   1.57058   1.57559   1.57716   1.57932
 Alpha virt. eigenvalues --    1.58422   1.58555   1.58812   1.58904   1.59209
 Alpha virt. eigenvalues --    1.59397   1.59672   1.59814   1.59997   1.60174
 Alpha virt. eigenvalues --    1.60420   1.60901   1.61285   1.61768   1.62011
 Alpha virt. eigenvalues --    1.62354   1.62525   1.62941   1.63195   1.63464
 Alpha virt. eigenvalues --    1.63499   1.63962   1.64117   1.64264   1.64631
 Alpha virt. eigenvalues --    1.64861   1.65288   1.65463   1.65567   1.66185
 Alpha virt. eigenvalues --    1.66261   1.66528   1.66978   1.67149   1.67578
 Alpha virt. eigenvalues --    1.67887   1.67966   1.68260   1.68716   1.68923
 Alpha virt. eigenvalues --    1.69262   1.69681   1.70178   1.70466   1.70983
 Alpha virt. eigenvalues --    1.71085   1.71436   1.71625   1.71995   1.72190
 Alpha virt. eigenvalues --    1.72498   1.72842   1.73323   1.73857   1.73977
 Alpha virt. eigenvalues --    1.74328   1.74695   1.75039   1.75517   1.75753
 Alpha virt. eigenvalues --    1.76392   1.76464   1.76706   1.77057   1.77424
 Alpha virt. eigenvalues --    1.78135   1.78612   1.78844   1.78937   1.79439
 Alpha virt. eigenvalues --    1.80017   1.80122   1.80454   1.80715   1.81225
 Alpha virt. eigenvalues --    1.81443   1.81919   1.81972   1.82306   1.82538
 Alpha virt. eigenvalues --    1.82966   1.83637   1.83875   1.84013   1.84685
 Alpha virt. eigenvalues --    1.84742   1.84844   1.85093   1.85711   1.86086
 Alpha virt. eigenvalues --    1.86242   1.86576   1.87008   1.87526   1.87681
 Alpha virt. eigenvalues --    1.88052   1.88375   1.88454   1.88946   1.89189
 Alpha virt. eigenvalues --    1.89344   1.89619   1.89684   1.90011   1.90691
 Alpha virt. eigenvalues --    1.90829   1.91065   1.91281   1.91645   1.91871
 Alpha virt. eigenvalues --    1.92616   1.92727   1.92886   1.93535   1.94114
 Alpha virt. eigenvalues --    1.94157   1.94528   1.95000   1.95327   1.95459
 Alpha virt. eigenvalues --    1.95986   1.96269   1.96681   1.96890   1.97382
 Alpha virt. eigenvalues --    1.97659   1.98035   1.98478   1.99148   1.99541
 Alpha virt. eigenvalues --    1.99683   2.00015   2.00369   2.00386   2.00700
 Alpha virt. eigenvalues --    2.00937   2.01176   2.01466   2.01935   2.02335
 Alpha virt. eigenvalues --    2.02392   2.03032   2.03367   2.03853   2.03908
 Alpha virt. eigenvalues --    2.04429   2.04512   2.04803   2.05134   2.05294
 Alpha virt. eigenvalues --    2.05496   2.05794   2.06219   2.06765   2.06995
 Alpha virt. eigenvalues --    2.07407   2.07811   2.07944   2.08398   2.08459
 Alpha virt. eigenvalues --    2.08910   2.09294   2.10027   2.10197   2.10301
 Alpha virt. eigenvalues --    2.10735   2.11095   2.11600   2.11853   2.11958
 Alpha virt. eigenvalues --    2.12144   2.12822   2.12986   2.13473   2.13764
 Alpha virt. eigenvalues --    2.14088   2.14523   2.14720   2.15020   2.15626
 Alpha virt. eigenvalues --    2.16173   2.16551   2.16793   2.17295   2.17403
 Alpha virt. eigenvalues --    2.18055   2.18208   2.18661   2.18817   2.19332
 Alpha virt. eigenvalues --    2.19603   2.20080   2.20199   2.20728   2.20888
 Alpha virt. eigenvalues --    2.21282   2.21772   2.22339   2.22677   2.22711
 Alpha virt. eigenvalues --    2.23212   2.23824   2.24112   2.24259   2.24518
 Alpha virt. eigenvalues --    2.24828   2.25335   2.25822   2.26153   2.26411
 Alpha virt. eigenvalues --    2.26834   2.27360   2.27560   2.27842   2.28198
 Alpha virt. eigenvalues --    2.28612   2.28757   2.29268   2.29896   2.30057
 Alpha virt. eigenvalues --    2.30368   2.30655   2.30734   2.30915   2.31138
 Alpha virt. eigenvalues --    2.31243   2.31550   2.31916   2.32060   2.32534
 Alpha virt. eigenvalues --    2.32588   2.32881   2.33648   2.33829   2.34433
 Alpha virt. eigenvalues --    2.34845   2.35121   2.35385   2.35718   2.36056
 Alpha virt. eigenvalues --    2.36169   2.36362   2.36903   2.37369   2.37809
 Alpha virt. eigenvalues --    2.37935   2.38119   2.38930   2.39096   2.39903
 Alpha virt. eigenvalues --    2.40232   2.40625   2.41068   2.41251   2.42017
 Alpha virt. eigenvalues --    2.42223   2.42519   2.43038   2.43217   2.43999
 Alpha virt. eigenvalues --    2.44382   2.44633   2.44658   2.44950   2.45172
 Alpha virt. eigenvalues --    2.45438   2.45946   2.46117   2.46634   2.46776
 Alpha virt. eigenvalues --    2.47079   2.47201   2.47325   2.47452   2.48074
 Alpha virt. eigenvalues --    2.48455   2.48514   2.48848   2.48968   2.49156
 Alpha virt. eigenvalues --    2.49684   2.49956   2.50084   2.50673   2.50815
 Alpha virt. eigenvalues --    2.50979   2.51242   2.52047   2.52171   2.52530
 Alpha virt. eigenvalues --    2.52732   2.53154   2.53480   2.53805   2.54069
 Alpha virt. eigenvalues --    2.54419   2.54838   2.54960   2.55112   2.55603
 Alpha virt. eigenvalues --    2.55825   2.56174   2.56553   2.56724   2.57140
 Alpha virt. eigenvalues --    2.57249   2.57567   2.57686   2.58021   2.58307
 Alpha virt. eigenvalues --    2.58790   2.59095   2.59413   2.59894   2.60023
 Alpha virt. eigenvalues --    2.60447   2.60597   2.60945   2.61511   2.61891
 Alpha virt. eigenvalues --    2.62116   2.62592   2.62930   2.63081   2.63350
 Alpha virt. eigenvalues --    2.63644   2.64109   2.64413   2.64711   2.64839
 Alpha virt. eigenvalues --    2.65119   2.65228   2.65984   2.66184   2.66654
 Alpha virt. eigenvalues --    2.66774   2.67095   2.67608   2.67758   2.68331
 Alpha virt. eigenvalues --    2.68476   2.68693   2.69555   2.69628   2.69994
 Alpha virt. eigenvalues --    2.70552   2.70961   2.71127   2.71667   2.71857
 Alpha virt. eigenvalues --    2.72045   2.72410   2.72527   2.72642   2.73135
 Alpha virt. eigenvalues --    2.73361   2.73842   2.73954   2.74461   2.74687
 Alpha virt. eigenvalues --    2.75288   2.75506   2.75848   2.75958   2.76555
 Alpha virt. eigenvalues --    2.76723   2.76811   2.77394   2.77576   2.77867
 Alpha virt. eigenvalues --    2.78177   2.78599   2.79163   2.79284   2.79526
 Alpha virt. eigenvalues --    2.79626   2.79778   2.80488   2.80705   2.81196
 Alpha virt. eigenvalues --    2.81601   2.82131   2.82776   2.82994   2.83467
 Alpha virt. eigenvalues --    2.83552   2.83819   2.84537   2.84611   2.85220
 Alpha virt. eigenvalues --    2.85572   2.85849   2.86227   2.86367   2.86430
 Alpha virt. eigenvalues --    2.86790   2.86929   2.87277   2.87613   2.87826
 Alpha virt. eigenvalues --    2.87860   2.88502   2.88726   2.88977   2.89283
 Alpha virt. eigenvalues --    2.89713   2.90154   2.90175   2.90354   2.90541
 Alpha virt. eigenvalues --    2.91021   2.91155   2.91662   2.91926   2.92116
 Alpha virt. eigenvalues --    2.92667   2.92843   2.93059   2.93328   2.93819
 Alpha virt. eigenvalues --    2.94447   2.94502   2.94877   2.95045   2.95377
 Alpha virt. eigenvalues --    2.95464   2.95661   2.96010   2.96319   2.96486
 Alpha virt. eigenvalues --    2.97007   2.97109   2.97308   2.97971   2.98094
 Alpha virt. eigenvalues --    2.98356   2.98792   2.98855   2.98911   2.99271
 Alpha virt. eigenvalues --    3.00139   3.00279   3.01031   3.01167   3.01347
 Alpha virt. eigenvalues --    3.01447   3.01916   3.01983   3.02331   3.02745
 Alpha virt. eigenvalues --    3.02753   3.03151   3.03424   3.03556   3.03824
 Alpha virt. eigenvalues --    3.04065   3.04311   3.04334   3.04654   3.05055
 Alpha virt. eigenvalues --    3.05201   3.05333   3.05848   3.06102   3.06232
 Alpha virt. eigenvalues --    3.06404   3.06523   3.06927   3.07219   3.07437
 Alpha virt. eigenvalues --    3.07659   3.08295   3.08338   3.08655   3.08869
 Alpha virt. eigenvalues --    3.09038   3.09376   3.09539   3.10015   3.10164
 Alpha virt. eigenvalues --    3.10755   3.11109   3.11554   3.11725   3.11886
 Alpha virt. eigenvalues --    3.12258   3.12683   3.13068   3.13308   3.13756
 Alpha virt. eigenvalues --    3.13881   3.14096   3.14505   3.14755   3.14911
 Alpha virt. eigenvalues --    3.14966   3.15639   3.15702   3.15918   3.16062
 Alpha virt. eigenvalues --    3.16146   3.16561   3.16936   3.17038   3.17576
 Alpha virt. eigenvalues --    3.17871   3.17942   3.18171   3.18259   3.18494
 Alpha virt. eigenvalues --    3.18659   3.19118   3.19412   3.19553   3.19764
 Alpha virt. eigenvalues --    3.19993   3.20353   3.20557   3.20713   3.20801
 Alpha virt. eigenvalues --    3.21289   3.21344   3.21660   3.21861   3.22254
 Alpha virt. eigenvalues --    3.22545   3.22712   3.22889   3.22999   3.23305
 Alpha virt. eigenvalues --    3.23341   3.23771   3.23941   3.24133   3.24534
 Alpha virt. eigenvalues --    3.24949   3.25175   3.25702   3.25718   3.25879
 Alpha virt. eigenvalues --    3.26045   3.26282   3.26815   3.26836   3.27196
 Alpha virt. eigenvalues --    3.27415   3.27784   3.27883   3.28162   3.28374
 Alpha virt. eigenvalues --    3.28788   3.28858   3.28963   3.29442   3.29726
 Alpha virt. eigenvalues --    3.29982   3.30350   3.30584   3.30779   3.30959
 Alpha virt. eigenvalues --    3.30985   3.31333   3.31768   3.32028   3.32275
 Alpha virt. eigenvalues --    3.32484   3.32668   3.32992   3.33062   3.33389
 Alpha virt. eigenvalues --    3.33838   3.34007   3.34272   3.34375   3.34862
 Alpha virt. eigenvalues --    3.35056   3.35286   3.35624   3.36061   3.36220
 Alpha virt. eigenvalues --    3.36327   3.36798   3.36863   3.37481   3.37744
 Alpha virt. eigenvalues --    3.38084   3.38335   3.38455   3.39173   3.39529
 Alpha virt. eigenvalues --    3.39764   3.40306   3.40540   3.40819   3.40926
 Alpha virt. eigenvalues --    3.41209   3.41702   3.41746   3.42075   3.42276
 Alpha virt. eigenvalues --    3.42538   3.42839   3.43183   3.43736   3.44326
 Alpha virt. eigenvalues --    3.44519   3.44592   3.45010   3.45117   3.45317
 Alpha virt. eigenvalues --    3.45604   3.45994   3.46260   3.46396   3.46685
 Alpha virt. eigenvalues --    3.46941   3.47289   3.47601   3.47888   3.48341
 Alpha virt. eigenvalues --    3.48876   3.48928   3.49434   3.49613   3.49990
 Alpha virt. eigenvalues --    3.50265   3.50393   3.50669   3.50947   3.51111
 Alpha virt. eigenvalues --    3.52406   3.52672   3.53047   3.53251   3.53704
 Alpha virt. eigenvalues --    3.53856   3.54127   3.54469   3.54672   3.55176
 Alpha virt. eigenvalues --    3.55501   3.55922   3.56314   3.56621   3.56811
 Alpha virt. eigenvalues --    3.57120   3.57581   3.58181   3.58605   3.59230
 Alpha virt. eigenvalues --    3.59538   3.60077   3.60416   3.60758   3.61197
 Alpha virt. eigenvalues --    3.61312   3.61524   3.61912   3.62315   3.62546
 Alpha virt. eigenvalues --    3.62938   3.63156   3.63315   3.64231   3.64630
 Alpha virt. eigenvalues --    3.64729   3.65003   3.65441   3.65823   3.66000
 Alpha virt. eigenvalues --    3.66313   3.66626   3.66754   3.67100   3.67586
 Alpha virt. eigenvalues --    3.67747   3.68176   3.68649   3.69083   3.69282
 Alpha virt. eigenvalues --    3.69785   3.70270   3.70874   3.71629   3.72026
 Alpha virt. eigenvalues --    3.72330   3.72849   3.72933   3.73271   3.73835
 Alpha virt. eigenvalues --    3.73885   3.74254   3.74780   3.75121   3.75202
 Alpha virt. eigenvalues --    3.75753   3.75981   3.76630   3.76841   3.77340
 Alpha virt. eigenvalues --    3.77808   3.77923   3.78152   3.78526   3.78957
 Alpha virt. eigenvalues --    3.79026   3.79518   3.79981   3.80767   3.81050
 Alpha virt. eigenvalues --    3.81241   3.81556   3.82231   3.82991   3.83325
 Alpha virt. eigenvalues --    3.83348   3.83974   3.84693   3.85107   3.85463
 Alpha virt. eigenvalues --    3.85815   3.86460   3.86646   3.87343   3.87593
 Alpha virt. eigenvalues --    3.88185   3.88516   3.88686   3.88776   3.89155
 Alpha virt. eigenvalues --    3.90088   3.90333   3.90694   3.91323   3.91457
 Alpha virt. eigenvalues --    3.92107   3.92654   3.93150   3.93346   3.93780
 Alpha virt. eigenvalues --    3.94100   3.95336   3.95665   3.95831   3.96396
 Alpha virt. eigenvalues --    3.97151   3.97608   3.97876   3.98504   3.98736
 Alpha virt. eigenvalues --    3.99223   3.99688   4.00415   4.00624   4.01236
 Alpha virt. eigenvalues --    4.01816   4.02702   4.03310   4.03901   4.04172
 Alpha virt. eigenvalues --    4.05144   4.05324   4.05811   4.05979   4.06499
 Alpha virt. eigenvalues --    4.07361   4.07425   4.08314   4.08724   4.09056
 Alpha virt. eigenvalues --    4.10391   4.10611   4.10988   4.11313   4.12059
 Alpha virt. eigenvalues --    4.12690   4.12930   4.13328   4.13704   4.14208
 Alpha virt. eigenvalues --    4.14442   4.14816   4.15759   4.16197   4.16712
 Alpha virt. eigenvalues --    4.17100   4.17255   4.17780   4.18014   4.18920
 Alpha virt. eigenvalues --    4.19174   4.19582   4.19721   4.20389   4.20645
 Alpha virt. eigenvalues --    4.21462   4.21942   4.22781   4.23259   4.24056
 Alpha virt. eigenvalues --    4.24727   4.24978   4.25665   4.26121   4.27056
 Alpha virt. eigenvalues --    4.27528   4.28001   4.28863   4.29204   4.29459
 Alpha virt. eigenvalues --    4.29876   4.30376   4.31828   4.31942   4.32772
 Alpha virt. eigenvalues --    4.33035   4.33292   4.34042   4.34456   4.35432
 Alpha virt. eigenvalues --    4.35610   4.36602   4.36927   4.37585   4.38496
 Alpha virt. eigenvalues --    4.38947   4.39150   4.39449   4.39885   4.40022
 Alpha virt. eigenvalues --    4.40689   4.41089   4.42100   4.42266   4.43499
 Alpha virt. eigenvalues --    4.43683   4.43923   4.44428   4.44743   4.45402
 Alpha virt. eigenvalues --    4.45810   4.46797   4.47202   4.47506   4.48535
 Alpha virt. eigenvalues --    4.49071   4.49221   4.49704   4.50404   4.51455
 Alpha virt. eigenvalues --    4.52009   4.52387   4.53365   4.53792   4.54394
 Alpha virt. eigenvalues --    4.54704   4.56428   4.57317   4.57587   4.57629
 Alpha virt. eigenvalues --    4.58631   4.59665   4.60689   4.61003   4.61193
 Alpha virt. eigenvalues --    4.61768   4.62708   4.62897   4.63311   4.63895
 Alpha virt. eigenvalues --    4.64386   4.64622   4.64927   4.65083   4.66255
 Alpha virt. eigenvalues --    4.67373   4.68032   4.68777   4.69583   4.69758
 Alpha virt. eigenvalues --    4.70285   4.71237   4.71501   4.71995   4.72699
 Alpha virt. eigenvalues --    4.73651   4.75003   4.75316   4.75772   4.76587
 Alpha virt. eigenvalues --    4.77127   4.77223   4.78111   4.78596   4.78986
 Alpha virt. eigenvalues --    4.79231   4.80333   4.80861   4.81416   4.82392
 Alpha virt. eigenvalues --    4.83046   4.83397   4.83927   4.85719   4.86565
 Alpha virt. eigenvalues --    4.86929   4.87149   4.88291   4.88528   4.89178
 Alpha virt. eigenvalues --    4.89977   4.90291   4.92034   4.92538   4.93052
 Alpha virt. eigenvalues --    4.94351   4.94719   4.94942   4.95417   4.96959
 Alpha virt. eigenvalues --    4.98516   4.98863   4.99535   5.00133   5.00849
 Alpha virt. eigenvalues --    5.01315   5.01873   5.03836   5.04767   5.05416
 Alpha virt. eigenvalues --    5.07792   5.08109   5.08778   5.10081   5.10498
 Alpha virt. eigenvalues --    5.11860   5.12208   5.12430   5.13410   5.13782
 Alpha virt. eigenvalues --    5.14936   5.15197   5.15968   5.16567   5.16824
 Alpha virt. eigenvalues --    5.18587   5.19969   5.20366   5.21380   5.21865
 Alpha virt. eigenvalues --    5.22941   5.23712   5.24575   5.24883   5.27203
 Alpha virt. eigenvalues --    5.27638   5.28754   5.29155   5.30769   5.31077
 Alpha virt. eigenvalues --    5.31913   5.31981   5.32485   5.33874   5.34446
 Alpha virt. eigenvalues --    5.35817   5.37395   5.38038   5.40284   5.40987
 Alpha virt. eigenvalues --    5.41438   5.42157   5.43670   5.44202   5.45102
 Alpha virt. eigenvalues --    5.47491   5.49019   5.50048   5.50627   5.50935
 Alpha virt. eigenvalues --    5.52203   5.52780   5.55226   5.56613   5.56936
 Alpha virt. eigenvalues --    5.57463   5.57985   5.59449   5.60661   5.62394
 Alpha virt. eigenvalues --    5.62883   5.64941   5.67427   5.68083   5.69352
 Alpha virt. eigenvalues --    5.71917   5.73424   5.77452   5.79514   5.86630
 Alpha virt. eigenvalues --    5.86919   5.87301   5.88653   5.89393   5.90026
 Alpha virt. eigenvalues --    5.90833   5.92018   5.93296   5.94622   5.95571
 Alpha virt. eigenvalues --    5.96678   5.99452   6.01120   6.03216   6.05027
 Alpha virt. eigenvalues --    6.05472   6.06314   6.07817   6.08069   6.12260
 Alpha virt. eigenvalues --    6.16422   6.17869   6.20167   6.26671   6.28260
 Alpha virt. eigenvalues --    6.29711   6.30835   6.31867   6.35658   6.38893
 Alpha virt. eigenvalues --    6.40239   6.40552   6.44706   6.47985   6.57996
 Alpha virt. eigenvalues --    6.59821   6.62499   6.68008   6.75159   6.78526
 Alpha virt. eigenvalues --    6.79112   6.87923   6.88846   6.94345   6.99610
 Alpha virt. eigenvalues --    7.01826   7.03022   7.08201   7.15423   7.25493
 Alpha virt. eigenvalues --    9.18101   9.37477   9.51574  20.09735  22.30160
 Alpha virt. eigenvalues --   22.40530  22.41774  22.42031  22.46036  22.47461
 Alpha virt. eigenvalues --   22.48429  22.48747  22.49598  22.50606  22.56218
 Alpha virt. eigenvalues --   22.59122  22.60786  22.64334  22.67594  22.68057
 Alpha virt. eigenvalues --   22.70714  22.87998  22.88869  22.91822  22.92988
 Alpha virt. eigenvalues --   22.94291  22.96125  23.03007  23.03589  23.12280
 Alpha virt. eigenvalues --   23.15828  23.24725  23.30916  23.34546  23.35258
 Alpha virt. eigenvalues --   23.36629  23.37854  23.42588  23.45796  23.47830
 Alpha virt. eigenvalues --   23.55371  23.67528  23.76304  23.80299  23.90431
 Alpha virt. eigenvalues --   32.35451  32.71270  32.94016  32.98817  33.04326
 Alpha virt. eigenvalues --   33.08833  43.82894  43.84007  43.87750  43.91831
  Beta  occ. eigenvalues -- -256.53962 -89.14826 -30.27161 -26.10365 -26.10354
  Beta  occ. eigenvalues --  -26.10302 -19.34659 -19.33284 -19.24798 -19.24270
  Beta  occ. eigenvalues --  -14.56439 -14.50850 -14.47355 -14.47289 -14.47097
  Beta  occ. eigenvalues --  -14.46627 -10.43191 -10.42480 -10.40179 -10.37207
  Beta  occ. eigenvalues --  -10.35460 -10.35191 -10.35128 -10.35105 -10.34989
  Beta  occ. eigenvalues --  -10.34920 -10.34896 -10.34823 -10.34718 -10.33351
  Beta  occ. eigenvalues --  -10.33299 -10.32982 -10.32887 -10.32746 -10.32540
  Beta  occ. eigenvalues --  -10.32425 -10.32251 -10.32246 -10.32214 -10.32209
  Beta  occ. eigenvalues --  -10.32126 -10.32066 -10.31925 -10.31842 -10.31475
  Beta  occ. eigenvalues --  -10.31261 -10.31183 -10.30873 -10.30687 -10.30582
  Beta  occ. eigenvalues --  -10.30321 -10.30161 -10.30154 -10.29613 -10.28302
  Beta  occ. eigenvalues --  -10.28089 -10.28068  -8.12480  -6.06283  -6.05772
  Beta  occ. eigenvalues --   -6.05179  -3.56424  -2.31016  -2.30720  -2.30638
  Beta  occ. eigenvalues --   -1.25298  -1.25163  -1.16856  -1.10471  -1.09719
  Beta  occ. eigenvalues --   -1.08734  -1.08075  -1.07495  -1.05969  -1.02618
  Beta  occ. eigenvalues --   -0.95829  -0.95656  -0.94180  -0.93490  -0.93088
  Beta  occ. eigenvalues --   -0.92588  -0.92255  -0.91895  -0.90930  -0.89510
  Beta  occ. eigenvalues --   -0.88744  -0.87922  -0.87478  -0.87050  -0.86462
  Beta  occ. eigenvalues --   -0.84644  -0.82733  -0.82383  -0.82028  -0.81164
  Beta  occ. eigenvalues --   -0.79984  -0.79516  -0.78397  -0.78245  -0.77245
  Beta  occ. eigenvalues --   -0.77153  -0.76568  -0.74495  -0.73507  -0.73157
  Beta  occ. eigenvalues --   -0.73024  -0.72895  -0.70399  -0.69760  -0.69594
  Beta  occ. eigenvalues --   -0.67576  -0.67029  -0.66314  -0.65833  -0.64058
  Beta  occ. eigenvalues --   -0.63218  -0.63050  -0.62781  -0.61557  -0.61274
  Beta  occ. eigenvalues --   -0.60314  -0.59889  -0.59557  -0.59298  -0.59252
  Beta  occ. eigenvalues --   -0.59021  -0.58783  -0.58292  -0.58243  -0.57424
  Beta  occ. eigenvalues --   -0.57168  -0.56593  -0.56523  -0.56070  -0.55699
  Beta  occ. eigenvalues --   -0.55492  -0.55302  -0.54819  -0.54734  -0.54527
  Beta  occ. eigenvalues --   -0.54426  -0.53985  -0.53705  -0.53631  -0.53371
  Beta  occ. eigenvalues --   -0.52881  -0.52836  -0.52604  -0.52530  -0.52139
  Beta  occ. eigenvalues --   -0.52047  -0.51611  -0.51431  -0.51200  -0.50930
  Beta  occ. eigenvalues --   -0.50768  -0.50512  -0.50178  -0.49958  -0.49891
  Beta  occ. eigenvalues --   -0.48776  -0.48650  -0.48464  -0.48237  -0.47990
  Beta  occ. eigenvalues --   -0.47845  -0.47386  -0.47144  -0.46996  -0.46644
  Beta  occ. eigenvalues --   -0.46606  -0.46467  -0.46257  -0.46156  -0.45925
  Beta  occ. eigenvalues --   -0.45363  -0.45286  -0.44635  -0.44466  -0.44033
  Beta  occ. eigenvalues --   -0.43772  -0.43684  -0.43560  -0.43124  -0.42738
  Beta  occ. eigenvalues --   -0.41875  -0.41580  -0.41081  -0.39716  -0.39355
  Beta  occ. eigenvalues --   -0.39162  -0.37888  -0.36538  -0.35437  -0.34655
  Beta  occ. eigenvalues --   -0.34288  -0.34090  -0.33492  -0.33252  -0.33015
  Beta  occ. eigenvalues --   -0.30984  -0.30635  -0.30208
  Beta virt. eigenvalues --   -0.20364  -0.20296  -0.17992  -0.17007  -0.16746
  Beta virt. eigenvalues --   -0.13613  -0.12238  -0.11352  -0.10607  -0.10263
  Beta virt. eigenvalues --   -0.09379  -0.08676  -0.07014  -0.06527  -0.06191
  Beta virt. eigenvalues --   -0.05447  -0.04948  -0.04658  -0.04328  -0.03812
  Beta virt. eigenvalues --   -0.03428  -0.03357  -0.03134  -0.02731  -0.02316
  Beta virt. eigenvalues --   -0.02135  -0.02017  -0.01715  -0.01651  -0.01313
  Beta virt. eigenvalues --   -0.00902  -0.00699  -0.00430  -0.00128   0.00053
  Beta virt. eigenvalues --    0.00307   0.00690   0.00968   0.01233   0.01721
  Beta virt. eigenvalues --    0.01853   0.02023   0.02378   0.02624   0.02976
  Beta virt. eigenvalues --    0.03247   0.03385   0.03746   0.03843   0.04162
  Beta virt. eigenvalues --    0.04277   0.04407   0.04621   0.04820   0.04982
  Beta virt. eigenvalues --    0.05080   0.05334   0.05592   0.05727   0.06046
  Beta virt. eigenvalues --    0.06185   0.06391   0.06427   0.06608   0.06708
  Beta virt. eigenvalues --    0.06791   0.07052   0.07249   0.07430   0.07865
  Beta virt. eigenvalues --    0.07923   0.08240   0.08339   0.08549   0.08700
  Beta virt. eigenvalues --    0.08932   0.09046   0.09279   0.09411   0.09732
  Beta virt. eigenvalues --    0.10116   0.10429   0.10445   0.10764   0.11025
  Beta virt. eigenvalues --    0.11105   0.11195   0.11537   0.11774   0.12000
  Beta virt. eigenvalues --    0.12016   0.12335   0.12463   0.12770   0.12868
  Beta virt. eigenvalues --    0.12912   0.13225   0.13313   0.13495   0.13724
  Beta virt. eigenvalues --    0.13870   0.14067   0.14462   0.14475   0.14677
  Beta virt. eigenvalues --    0.14928   0.15057   0.15336   0.15647   0.15763
  Beta virt. eigenvalues --    0.15841   0.16023   0.16223   0.16238   0.16426
  Beta virt. eigenvalues --    0.16586   0.16918   0.17003   0.17295   0.17474
  Beta virt. eigenvalues --    0.17874   0.18064   0.18123   0.18160   0.18602
  Beta virt. eigenvalues --    0.18895   0.19263   0.19357   0.19517   0.19853
  Beta virt. eigenvalues --    0.19982   0.20208   0.20410   0.20447   0.20717
  Beta virt. eigenvalues --    0.21116   0.21250   0.21585   0.21705   0.21758
  Beta virt. eigenvalues --    0.22134   0.22487   0.22753   0.23083   0.23179
  Beta virt. eigenvalues --    0.23506   0.23680   0.24002   0.24070   0.24391
  Beta virt. eigenvalues --    0.24482   0.24641   0.24908   0.25143   0.25413
  Beta virt. eigenvalues --    0.25728   0.25794   0.25975   0.26364   0.26826
  Beta virt. eigenvalues --    0.26841   0.27016   0.27334   0.27540   0.27662
  Beta virt. eigenvalues --    0.28077   0.28326   0.28623   0.28762   0.28884
  Beta virt. eigenvalues --    0.29208   0.29357   0.29400   0.29699   0.30073
  Beta virt. eigenvalues --    0.30194   0.30313   0.30631   0.30759   0.30890
  Beta virt. eigenvalues --    0.31061   0.31381   0.31784   0.31833   0.31880
  Beta virt. eigenvalues --    0.32170   0.32295   0.32383   0.32400   0.32739
  Beta virt. eigenvalues --    0.32882   0.33016   0.33156   0.33464   0.33672
  Beta virt. eigenvalues --    0.33846   0.34105   0.34337   0.34645   0.34775
  Beta virt. eigenvalues --    0.34836   0.34911   0.35092   0.35230   0.35490
  Beta virt. eigenvalues --    0.35621   0.35739   0.35748   0.35945   0.36198
  Beta virt. eigenvalues --    0.36272   0.36327   0.36725   0.36851   0.36938
  Beta virt. eigenvalues --    0.37193   0.37327   0.37455   0.37662   0.37838
  Beta virt. eigenvalues --    0.38039   0.38129   0.38406   0.38556   0.38813
  Beta virt. eigenvalues --    0.38923   0.38930   0.39095   0.39271   0.39544
  Beta virt. eigenvalues --    0.39557   0.39658   0.39943   0.40221   0.40346
  Beta virt. eigenvalues --    0.40697   0.40726   0.41072   0.41372   0.41504
  Beta virt. eigenvalues --    0.41535   0.41687   0.41858   0.41918   0.42268
  Beta virt. eigenvalues --    0.42392   0.42607   0.42729   0.42928   0.43077
  Beta virt. eigenvalues --    0.43139   0.43285   0.43486   0.43664   0.43833
  Beta virt. eigenvalues --    0.44095   0.44132   0.44388   0.44486   0.44547
  Beta virt. eigenvalues --    0.45119   0.45163   0.45323   0.45452   0.45657
  Beta virt. eigenvalues --    0.45857   0.46088   0.46375   0.46492   0.46686
  Beta virt. eigenvalues --    0.47106   0.47178   0.47303   0.47516   0.47546
  Beta virt. eigenvalues --    0.47685   0.47812   0.48170   0.48504   0.48616
  Beta virt. eigenvalues --    0.48840   0.49222   0.49410   0.49552   0.49879
  Beta virt. eigenvalues --    0.50207   0.50297   0.50503   0.50659   0.50827
  Beta virt. eigenvalues --    0.50956   0.51195   0.51731   0.52059   0.52334
  Beta virt. eigenvalues --    0.52550   0.52616   0.52927   0.53186   0.53329
  Beta virt. eigenvalues --    0.53543   0.54004   0.54153   0.54372   0.54518
  Beta virt. eigenvalues --    0.54621   0.54812   0.55187   0.55525   0.55656
  Beta virt. eigenvalues --    0.56095   0.56276   0.56537   0.56566   0.57232
  Beta virt. eigenvalues --    0.57375   0.57614   0.57970   0.58115   0.58177
  Beta virt. eigenvalues --    0.58597   0.58658   0.58903   0.59157   0.59272
  Beta virt. eigenvalues --    0.59661   0.60073   0.60165   0.60547   0.60875
[...]
  Beta virt. eigenvalues --    3.37752   3.38009   3.38381   3.38474   3.38595
  Beta virt. eigenvalues --    3.38857   3.39343   3.39673   3.39912   3.39988
  Beta virt. eigenvalues --    3.40209   3.40473   3.40683   3.40918   3.41015
  Beta virt. eigenvalues --    3.41389   3.41501   3.41864   3.42244   3.42529
  Beta virt. eigenvalues --    3.42803   3.43270   3.43474   3.43699   3.43862
  Beta virt. eigenvalues --    3.44035   3.44355   3.44612   3.45286   3.45528
  Beta virt. eigenvalues --    3.45736   3.45996   3.46422   3.46700   3.47297
  Beta virt. eigenvalues --    3.47576   3.47910   3.48147   3.48511   3.48617
  Beta virt. eigenvalues --    3.48820   3.49360   3.49558   3.49587   3.49947
  Beta virt. eigenvalues --    3.50296   3.50356   3.50812   3.51282   3.52025
  Beta virt. eigenvalues --    3.52195   3.52334   3.52562   3.52722   3.53105
  Beta virt. eigenvalues --    3.53410   3.53699   3.53940   3.54140   3.54336
  Beta virt. eigenvalues --    3.54611   3.55078   3.55576   3.55945   3.56098
  Beta virt. eigenvalues --    3.56597   3.56751   3.57266   3.57405   3.57612
  Beta virt. eigenvalues --    3.57818   3.58001   3.58776   3.59049   3.59119
  Beta virt. eigenvalues --    3.60298   3.60580   3.61049   3.61215   3.61580
  Beta virt. eigenvalues --    3.61876   3.62170   3.62280   3.62518   3.62965
  Beta virt. eigenvalues --    3.63350   3.63841   3.64042   3.64443   3.64821
  Beta virt. eigenvalues --    3.65134   3.65630   3.66044   3.66682   3.67177
  Beta virt. eigenvalues --    3.67223   3.67957   3.68357   3.68725   3.68925
  Beta virt. eigenvalues --    3.69060   3.69580   3.69742   3.70207   3.70480
  Beta virt. eigenvalues --    3.70851   3.71096   3.71446   3.72238   3.72554
  Beta virt. eigenvalues --    3.72582   3.72807   3.73371   3.73810   3.74140
  Beta virt. eigenvalues --    3.74302   3.74484   3.74549   3.74965   3.75309
  Beta virt. eigenvalues --    3.75585   3.76223   3.76584   3.76982   3.77189
  Beta virt. eigenvalues --    3.77483   3.78002   3.78781   3.79463   3.79950
  Beta virt. eigenvalues --    3.80266   3.80603   3.80818   3.81051   3.81705
  Beta virt. eigenvalues --    3.81912   3.81940   3.82822   3.83020   3.83283
  Beta virt. eigenvalues --    3.83643   3.83983   3.84581   3.84893   3.85216
  Beta virt. eigenvalues --    3.86183   3.86374   3.86459   3.86685   3.87035
  Beta virt. eigenvalues --    3.87468   3.87942   3.88243   3.88693   3.89151
  Beta virt. eigenvalues --    3.89724   3.90188   3.90579   3.91179   3.91359
  Beta virt. eigenvalues --    3.91719   3.92505   3.93712   3.94198   3.94230
  Beta virt. eigenvalues --    3.94711   3.95129   3.95438   3.95839   3.96321
  Beta virt. eigenvalues --    3.96680   3.97069   3.97565   3.98246   3.98282
  Beta virt. eigenvalues --    3.98630   3.99470   3.99634   4.00374   4.00540
  Beta virt. eigenvalues --    4.00808   4.01346   4.02107   4.02889   4.03390
  Beta virt. eigenvalues --    4.03730   4.04413   4.04774   4.05165   4.05808
  Beta virt. eigenvalues --    4.06563   4.06937   4.07094   4.07691   4.07906
  Beta virt. eigenvalues --    4.08591   4.08764   4.09443   4.10163   4.10683
  Beta virt. eigenvalues --    4.10932   4.11392   4.12357   4.12560   4.13589
  Beta virt. eigenvalues --    4.13617   4.14384   4.14543   4.15162   4.15521
  Beta virt. eigenvalues --    4.15815   4.16086   4.16650   4.17163   4.17816
  Beta virt. eigenvalues --    4.18705   4.19149   4.19280   4.20182   4.20705
  Beta virt. eigenvalues --    4.21129   4.21479   4.21919   4.22864   4.23831
  Beta virt. eigenvalues --    4.23908   4.24285   4.24371   4.25205   4.25754
  Beta virt. eigenvalues --    4.26194   4.26317   4.27091   4.27450   4.27837
  Beta virt. eigenvalues --    4.28370   4.28723   4.29060   4.30064   4.30614
  Beta virt. eigenvalues --    4.30704   4.31008   4.31893   4.31969   4.32372
  Beta virt. eigenvalues --    4.32888   4.33627   4.34178   4.35027   4.35654
  Beta virt. eigenvalues --    4.35849   4.36460   4.36877   4.37348   4.37736
  Beta virt. eigenvalues --    4.38189   4.38526   4.39590   4.40492   4.40648
  Beta virt. eigenvalues --    4.40927   4.42173   4.42430   4.43157   4.43946
  Beta virt. eigenvalues --    4.44240   4.44802   4.45164   4.45634   4.45668
  Beta virt. eigenvalues --    4.46587   4.47282   4.47460   4.47912   4.48248
  Beta virt. eigenvalues --    4.49039   4.49482   4.49768   4.50581   4.50971
  Beta virt. eigenvalues --    4.51413   4.51823   4.52169   4.52693   4.53141
  Beta virt. eigenvalues --    4.53986   4.54488   4.55002   4.55318   4.56367
  Beta virt. eigenvalues --    4.56831   4.57094   4.57640   4.58545   4.59345
  Beta virt. eigenvalues --    4.60127   4.60326   4.61397   4.61814   4.62422
  Beta virt. eigenvalues --    4.62634   4.64291   4.65119   4.65412   4.65543
  Beta virt. eigenvalues --    4.66490   4.67608   4.68611   4.68949   4.69176
  Beta virt. eigenvalues --    4.69603   4.70907   4.71226   4.71605   4.71921
  Beta virt. eigenvalues --    4.72611   4.72897   4.73012   4.73257   4.74111
  Beta virt. eigenvalues --    4.75225   4.75571   4.76511   4.77388   4.78312
  Beta virt. eigenvalues --    4.78333   4.78963   4.79205   4.80168   4.80564
  Beta virt. eigenvalues --    4.82021   4.83130   4.83376   4.83804   4.84687
  Beta virt. eigenvalues --    4.85014   4.85194   4.86037   4.86721   4.86879
  Beta virt. eigenvalues --    4.87829   4.88569   4.88709   4.89175   4.90152
  Beta virt. eigenvalues --    4.91144   4.91261   4.92184   4.94049   4.94705
  Beta virt. eigenvalues --    4.95176   4.95279   4.96331   4.96792   4.97240
  Beta virt. eigenvalues --    4.98219   4.98688   5.00262   5.00580   5.01094
  Beta virt. eigenvalues --    5.02298   5.02844   5.03194   5.03296   5.05021
  Beta virt. eigenvalues --    5.06733   5.06958   5.07650   5.08167   5.08804
  Beta virt. eigenvalues --    5.09719   5.10671   5.11864   5.12565   5.13425
  Beta virt. eigenvalues --    5.14578   5.15874   5.16538   5.17994   5.18280
  Beta virt. eigenvalues --    5.18624   5.19195   5.20174   5.20406   5.20664
  Beta virt. eigenvalues --    5.21095   5.21504   5.21896   5.24144   5.24999
  Beta virt. eigenvalues --    5.26672   5.28138   5.28729   5.29150   5.29777
  Beta virt. eigenvalues --    5.30145   5.31199   5.32390   5.33467   5.35537
  Beta virt. eigenvalues --    5.35798   5.36971   5.37481   5.38016   5.38930
  Beta virt. eigenvalues --    5.39382   5.40283   5.40646   5.41289   5.41905
  Beta virt. eigenvalues --    5.43033   5.45534   5.46067   5.48677   5.49167
  Beta virt. eigenvalues --    5.49641   5.50574   5.51816   5.52424   5.53114
  Beta virt. eigenvalues --    5.53778   5.54554   5.56343   5.58029   5.59663
  Beta virt. eigenvalues --    5.60234   5.61402   5.63311   5.64654   5.65385
  Beta virt. eigenvalues --    5.65787   5.65980   5.66082   5.68511   5.70600
  Beta virt. eigenvalues --    5.71344   5.73511   5.73869   5.75425   5.77247
  Beta virt. eigenvalues --    5.77759   5.81782   5.85952   5.87654   5.92633
  Beta virt. eigenvalues --    5.94752   5.94783   5.95606   5.97474   5.98387
  Beta virt. eigenvalues --    5.99033   6.00035   6.01749   6.02150   6.03134
  Beta virt. eigenvalues --    6.04143   6.05204   6.07266   6.11715   6.13531
  Beta virt. eigenvalues --    6.13730   6.14343   6.15083   6.16796   6.18270
  Beta virt. eigenvalues --    6.24462   6.25894   6.26145   6.32447   6.35316
  Beta virt. eigenvalues --    6.36314   6.38019   6.38801   6.41823   6.45777
  Beta virt. eigenvalues --    6.45960   6.46934   6.50186   6.53797   6.63895
  Beta virt. eigenvalues --    6.66076   6.68445   6.73983   6.80748   6.83749
  Beta virt. eigenvalues --    6.84721   6.93602   6.94417   7.00159   7.05190
  Beta virt. eigenvalues --    7.07566   7.08582   7.13944   7.21705   7.31558
  Beta virt. eigenvalues --    9.25738   9.45053   9.59053  20.17259  22.37540
  Beta virt. eigenvalues --   22.47968  22.49326  22.50771  22.53918  22.54955
  Beta virt. eigenvalues --   22.56065  22.56231  22.57075  22.57756  22.63420
  Beta virt. eigenvalues --   22.66342  22.68480  22.71996  22.75029  22.76688
  Beta virt. eigenvalues --   22.78517  22.96054  22.96818  22.99797  23.00851
  Beta virt. eigenvalues --   23.02035  23.04021  23.10907  23.11451  23.20202
  Beta virt. eigenvalues --   23.24457  23.30677  23.38561  23.40599  23.42764
  Beta virt. eigenvalues --   23.44266  23.45514  23.50267  23.53504  23.55499
  Beta virt. eigenvalues --   23.63122  23.75239  23.84022  23.88061  23.98206
  Beta virt. eigenvalues --   32.44556  32.79951  33.02052  33.06863  33.12340
  Beta virt. eigenvalues --   33.16940  43.88413  43.89558  43.93774  43.98226
          Condensed to atoms (all electrons):
          Atomic-Atomic Spin Densities.
 Mulliken charges and spin densities:
               1          2
     1  C   -0.383259   0.001144
     2  C    0.115585   0.007586
     3  N   -0.180114   0.004008
     4  C   -0.214614   0.000777
     5  C   -0.023009   0.018782
     6  N    0.062937   0.049914
     7  C   -0.391919   0.000427
     8  C   -0.107811   0.009953
     9  S    0.010105   0.088443
    10  C   -0.743078   0.019335
    11  C   -0.589559  -0.018512
    12  C   -0.544332  -0.016033
    13  C   -0.514531  -0.018803
    14  C   -0.533320  -0.021973
    15  C    0.187010   0.014560
    16  C    0.102873   0.016688
    17  C   -0.105041   0.014505
    18  C    0.297935   0.016527
    19  C   -0.424862   0.000718
    20  C   -0.278374  -0.000127
    21  C   -0.194805   0.000594
    22  C    0.271842   0.000223
    23  O   -0.328751   0.000017
    24  O   -0.422896   0.000150
    25  C    0.319425   0.016213
    26  C   -0.102460   0.019457
    27  C   -0.075029   0.017099
    28  C    0.283146   0.017662
    29  C   -0.402497   0.000595
    30  C   -0.151363   0.000520
    31  C   -0.404755   0.000771
    32  C    0.229841   0.014993
    33  C   -0.049441   0.023412
    34  C   -0.119046   0.023615
    35  C    0.317775   0.017698
    36  C   -0.418344   0.000087
    37  C   -0.124178   0.000271
    38  C   -0.423878   0.000830
    39  C    0.198669   0.016911
    40  C    0.000234   0.017578
    41  C    0.043882   0.022232
    42  C    0.304928   0.014854
    43  C   -0.430881   0.000725
    44  C   -0.435223  -0.000700
    45  C   -0.090661   0.000833
    46  C    0.248683   0.000149
    47  O   -0.294725   0.000010
    48  O   -0.497195  -0.000003
    49  N   -0.138853   0.052711
    50  N   -0.041398   0.050279
    51  N   -0.023246   0.059851
    52  N    0.043489   0.058314
    53  Fe  -0.179825   4.346657
    54  H    0.160943   0.000137
    55  H    0.148665   0.000223
    56  H    0.160558   0.000168
    57  H    0.190124   0.000951
    58  H    0.212097  -0.000094
    59  H    0.141450   0.000650
    60  H    0.148703   0.000016
    61  H    0.112775   0.000576
    62  H    0.154310  -0.000984
    63  H    0.146247   0.003427
    64  H    0.296826  -0.001045
    65  H    0.284485  -0.001879
    66  H    0.224585   0.005011
    67  H    0.147168   0.000256
    68  H    0.141233  -0.000055
    69  H    0.146325   0.000162
    70  H    0.140853   0.000306
    71  H    0.148110   0.000061
    72  H    0.162586   0.000555
    73  H    0.159647   0.000455
    74  H    0.121657   0.000281
    75  H    0.133713   0.000339
    76  H    0.151966  -0.000012
    77  H    0.144918   0.000017
    78  H    0.155279   0.000743
    79  H    0.153063   0.000639
    80  H    0.140753  -0.000037
    81  H    0.124929   0.000500
    82  H    0.117192   0.000016
    83  H    0.133178   0.000034
    84  H    0.134402   0.000075
    85  H    0.139063  -0.000039
    86  H    0.159117   0.000514
    87  H    0.157577   0.001137
    88  H    0.151375   0.000186
    89  H    0.134306   0.000675
    90  H    0.116103  -0.000027
    91  H    0.140731   0.000256
    92  H    0.134366  -0.000032
    93  H    0.139593   0.000061
    94  H    0.160648   0.000473
    95  H    0.165079   0.000768
    96  H    0.146484   0.000059
    97  H    0.139804   0.000366
    98  H    0.141648   0.000032
    99  H    0.162330  -0.000028
   100  H    0.393539  -0.000001
   101  H    0.383375   0.000028
   102  H    0.288936   0.001098
   103  H    0.152097   0.000456
 Sum of Mulliken charges =   1.00000   5.00000
 Mulliken charges and spin densities with hydrogens summed into heavy atoms:
               1          2
     1  C    0.086908   0.001672
     2  C    0.115585   0.007586
     3  N    0.108823   0.005105
     4  C   -0.024490   0.001728
     5  C    0.189088   0.018688
     6  N    0.062937   0.049914
     7  C    0.011009   0.001670
     8  C    0.192747   0.012396
     9  S    0.010105   0.088443
    10  C    0.062819   0.021423
    11  C   -0.442392  -0.018256
    12  C   -0.403099  -0.016088
    13  C   -0.368206  -0.018640
    14  C   -0.392467  -0.021667
    15  C    0.187010   0.014560
    16  C    0.102873   0.016688
    17  C   -0.105041   0.014505
    18  C    0.297935   0.016527
    19  C    0.045481   0.001788
    20  C   -0.023004   0.000493
    21  C    0.102079   0.000599
    22  C    0.271842   0.000223
    23  O    0.064789   0.000016
    24  O   -0.422896   0.000150
    25  C    0.319425   0.016213
    26  C   -0.102460   0.019457
    27  C   -0.075029   0.017099
    28  C    0.283146   0.017662
    29  C    0.046598   0.001940
    30  C    0.090758   0.001036
    31  C    0.001889   0.000841
    32  C    0.229841   0.014993
    33  C   -0.049441   0.023412
    34  C   -0.119046   0.023615
    35  C    0.317775   0.017698
    36  C    0.049725   0.001924
    37  C    0.126231   0.000920
    38  C   -0.009187   0.001115
    39  C    0.198669   0.016911
    40  C    0.000234   0.017578
    41  C    0.043882   0.022232
    42  C    0.304928   0.014854
    43  C    0.041329   0.002025
    44  C   -0.143321   0.000122
    45  C    0.213317   0.000836
    46  C    0.248683   0.000149
    47  O    0.088650   0.000038
    48  O   -0.497195  -0.000003
    49  N   -0.138853   0.052711
    50  N   -0.041398   0.050279
    51  N   -0.023246   0.059851
    52  N    0.043489   0.058314
    53  Fe  -0.179825   4.346657
 Electronic spatial extent (au):  <R**2>=          33775.9332
 Charge=              1.0000 electrons
 Dipole moment (field-independent basis, Debye):
    X=              7.5300    Y=             -1.4281    Z=              8.8934  Tot=             11.7402
 Quadrupole moment (field-independent basis, Debye-Ang):
   XX=           -273.6343   YY=           -283.0203   ZZ=           -284.5153
   XY=             -0.6819   XZ=            -14.9180   YZ=            -21.7618
 Traceless Quadrupole moment (field-independent basis, Debye-Ang):
   XX=              6.7557   YY=             -2.6304   ZZ=             -4.1254
   XY=             -0.6819   XZ=            -14.9180   YZ=            -21.7618
 Octapole moment (field-independent basis, Debye-Ang**2):
  XXX=            136.7463  YYY=            -35.7950  ZZZ=            262.2287  XYY=            215.3572
  XXY=             33.2055  XXZ=             99.3654  XZZ=             84.2175  YZZ=            -16.3311
  YYZ=             -5.3545  XYZ=            140.0788
 Hexadecapole moment (field-independent basis, Debye-Ang**3):
 XXXX=         -21820.5103 YYYY=         -13898.9004 ZZZZ=          -4446.9956 XXXY=           -473.7372
 XXXZ=           -605.2851 YYYX=            144.7891 YYYZ=           -123.0818 ZZZX=            168.6451
 ZZZY=           -250.5215 XXYY=          -7166.4695 XXZZ=          -5034.7040 YYZZ=          -3452.8303
 XXYZ=          -1050.5695 YYXZ=            -46.3329 ZZXY=           -178.1134
 N-N= 9.096964769418D+03 E-N=-2.727884156134D+04  KE= 3.871628057335D+03
 1\1\GINC-NODE679\SP\UPBE1PBE\def2TZVP\C41H50Fe1N6O4S1(1+,6)\KLEICH\01-
 Oct-2022\0\\# PBE1PBE/def2TZVP empiricaldispersion=GD3BJ int=(grid=ult
 rafine) geom=check guess=read scrf=(smd,solvent=Chloroform)\\451c_III_
 H_solv\\1,6\C,0,10.502,-8.068,15.869\C,0,10.644,-9.486,16.397\N,0,11.6
 19,-10.33,15.982\C,0,9.793,-10.187,17.233\C,0,11.389,-11.544,16.547\N,
 0,10.269,-11.46,17.324\C,0,9.895,-15.821,21.142\C,0,8.597,-15.027,20.9
 51\S,0,8.145,-14.71,19.221\C,0,8.329,-16.29,18.364\C,0,11.705,-15.239,
 17.133\C,0,7.601,-13.454,15.352\C,0,6.884,-11.032,19.466\C,0,11.276,-1
 2.321,20.96\C,0,10.634,-14.991,16.299\C,0,10.451,-15.547,15.05\C,0,9.2
 97,-14.993,14.516\C,0,8.779,-14.157,15.475\C,0,8.679,-15.258,13.158\C,
 0,11.329,-16.591,14.424\C,0,10.903,-17.937,14.962\C,0,11.76,-19.039,14
 .369\O,0,12.509,-18.781,13.431\O,0,11.265,-20.229,14.446\C,0,7.048,-12
 .619,16.3\C,0,5.816,-11.979,16.18\C,0,5.558,-11.35,17.403\C,0,6.695,-1
 1.546,18.199\C,0,4.912,-12.026,14.967\C,0,4.299,-10.621,17.829\C,0,3.0
 91,-11.541,17.981\C,0,8.016,-11.19,20.251\C,0,8.243,-10.559,21.468\C,0
 ,9.57,-10.805,21.808\C,0,10.044,-11.718,20.897\C,0,7.266,-9.649,22.19\
 C,0,10.391,-10.166,22.92\C,0,9.85,-10.474,24.312\C,0,11.754,-13.25,20.
 069\C,0,12.959,-13.93,20.212\C,0,13.04,-14.833,19.16\C,0,11.929,-14.61
 6,18.347\C,0,13.966,-13.748,21.33\C,0,14.127,-15.851,18.915\C,0,13.727
 ,-17.251,19.352\C,0,14.825,-18.245,18.978\O,0,14.505,-19.418,18.767\O,
 0,16.095,-17.97,19.199\N,0,9.61,-14.148,16.551\N,0,7.581,-12.332,17.52
 1\N,0,9.124,-11.898,19.917\N,0,11.12,-13.676,18.928\Fe,0,9.397,-12.981
 ,18.23\H,0,10.46839937,-7.38321688,16.69048833\H,0,11.33864153,-7.8346
 3157,15.24412391\H,0,9.59898282,-7.98779688,15.30064498\H,0,8.9214689,
 -9.80030703,17.71859457\H,0,11.98631983,-12.42056673,16.40650162\H,0,9
 .93600409,-16.20256592,22.14081235\H,0,9.92062521,-16.63493896,20.4479
 2023\H,0,10.7340315,-15.17949718,20.97053491\H,0,8.78164574,-14.064996
 07,21.38152804\H,0,7.81889627,-15.64813452,21.34297768\H,0,8.16163485,
 -16.56876805,17.34459955\H,0,7.26503222,-16.18494868,18.32114241\H,0,9
 .11663949,-15.73815759,17.89496483\H,0,12.41809298,-15.97079501,16.815
 3926\H,0,7.06380432,-13.56644186,14.43348074\H,0,6.082081,-10.45802045
 ,19.88117875\H,0,11.91684591,-12.04392441,21.77083021\H,0,8.01519655,-
 14.45755894,12.90589072\H,0,8.13331632,-16.17791224,13.18784625\H,0,9.
 45211529,-15.3256462,12.42137477\H,0,12.32555659,-16.41399773,14.77105
 211\H,0,11.11994637,-16.59058764,13.37462094\H,0,9.90576196,-18.103975
 19,14.61194919\H,0,11.10614254,-17.9240994,16.01246022\H,0,4.00909843,
 -12.54388128,15.21492686\H,0,4.67779859,-11.02876108,14.65786535\H,0,5
 .41001715,-12.53858445,14.17067337\H,0,4.06080585,-9.9526977,17.028040
 84\H,0,4.49931467,-10.23464658,18.80649939\H,0,2.96060595,-11.79086025
 ,19.01321473\H,0,2.21532461,-11.04222675,17.62139208\H,0,3.25006128,-1
 2.43498544,17.41497038\H,0,7.47253986,-9.66521916,23.23975151\H,0,7.37
 008572,-8.64989614,21.82141128\H,0,6.26665029,-9.99039139,22.01780223\
 H,0,10.29013206,-9.10857362,22.79125564\H,0,11.35824964,-10.62097146,2
 2.87173917\H,0,10.66240104,-10.52973498,25.00611682\H,0,9.17663336,-9.
 69866705,24.61255978\H,0,9.33134476,-11.40972222,24.29409274\H,0,14.37
 868432,-14.69855006,21.596545\H,0,14.75007586,-13.09821715,21.00150755
 \H,0,13.48016448,-13.31874393,22.1812362\H,0,14.35511297,-15.86763035,
 17.8697307\H,0,12.86341159,-17.51692048,18.77893686\H,0,13.67629946,-1
 7.23670871,20.42070258\H,0,13.46058197,-18.81464202,13.55331092\H,0,15
 .18347647,-20.08644009,18.64676056\H,0,12.37438365,-10.10014482,15.368
 3534\H,0,15.00273251,-15.55772375,19.45535324\\Version=ES64L-G16RevA.0
 3\State=6-A\HF=-3881.5668318\S2=8.760685\S2-1=0.\S2A=8.750034\RMSD=7.1
 23e-09\Dipole=0.0373105,4.421931,-1.3341224\Quadrupole=-1.7132863,-11.
 8886197,13.601906,-11.1802606,-9.7476584,-4.4289711\PG=C01 [X(C41H50Fe
 1N6O4S1)]\\@


 You don't have to suffer to be a poet.
 Adolescence is enough suffering for anyone.
                             -- John Ciardi
 Job cpu time:       1 days 10 hours 33 minutes 45.7 seconds.
 Elapsed time:       0 days  8 hours 39 minutes 50.4 seconds.
 File lengths (MBytes):  RWF=   4388 Int=      0 D2E=      0 Chk=    298 Scr=      1
 Normal termination of Gaussian 16 at Sat Oct  1 13:41:48 2022.
