 Entering Gaussian System, Link 0=g16
 Input=/net/work/kleich/bench/splitthejobs/1f1f/1f1f01/1f1f01.com
 Output=/net/work/kleich/bench/splitthejobs/1f1f/1f1f01/1f1f01.log
 Initial command:
 /afs/math/software/gaussian/g16.A03/g16/l1.exe "/scratch/kleich_gaussian.UgetfFQ/Gau-16809.inp" -scrdir="/scratch/kleich_gaussian.UgetfFQ/"
 Entering Link 1 = /afs/math/software/gaussian/g16.A03/g16/l1.exe PID=     16810.
  
 Copyright (c) 1988,1990,1992,1993,1995,1998,2003,2009,2016,
            Gaussian, Inc.  All Rights Reserved.
  
 This is part of the Gaussian(R) 16 program.  It is based on
 the Gaussian(R) 09 system (copyright 2009, Gaussian, Inc.),
 the Gaussian(R) 03 system (copyright 2003, Gaussian, Inc.),
 the Gaussian(R) 98 system (copyright 1998, Gaussian, Inc.),
 the Gaussian(R) 94 system (copyright 1995, Gaussian, Inc.),
 the Gaussian 92(TM) system (copyright 1992, Gaussian, Inc.),
 the Gaussian 90(TM) system (copyright 1990, Gaussian, Inc.),
 the Gaussian 88(TM) system (copyright 1988, Gaussian, Inc.),
 the Gaussian 86(TM) system (copyright 1986, Carnegie Mellon
 University), and the Gaussian 82(TM) system (copyright 1983,
 Carnegie Mellon University). Gaussian is a federally registered
 trademark of Gaussian, Inc.
  
 This software contains proprietary and confidential information,
 including trade secrets, belonging to Gaussian, Inc.
  
 This software is provided under written license and may be
 used, copied, transmitted, or stored only in accord with that
 written license.
  
 The following legend is applicable only to US Government
 contracts under FAR:
  
                    RESTRICTED RIGHTS LEGEND
  
 Use, reproduction and disclosure by the US Government is
 subject to restrictions as set forth in subparagraphs (a)
 and (c) of the Commercial Computer Software - Restricted
 Rights clause in FAR 52.227-19.
  
 Gaussian, Inc.
 340 Quinnipiac St., Bldg. 40, Wallingford CT 06492
  
  
 ---------------------------------------------------------------
 Warning -- This program may not be used in any manner that
 competes with the business of Gaussian, Inc. or will provide
 assistance to any competitor of Gaussian, Inc.  The licensee
 of this program is prohibited from giving any competitor of
 Gaussian, Inc. access to this program.  By using this program,
 the user acknowledges that Gaussian, Inc. is engaged in the
 business of creating and licensing software in the field of
 computational chemistry and represents and warrants to the
 licensee that it is not a competitor of Gaussian, Inc. and that
 it will not use this program in any manner prohibited above.
 ---------------------------------------------------------------
  

 Cite this work as:
 Gaussian 16, Revision A.03,
 M. J. Frisch, G. W. Trucks, H. B. Schlegel, G. E. Scuseria, 
 M. A. Robb, J. R. Cheeseman, G. Scalmani, V. Barone, 
 G. A. Petersson, H. Nakatsuji, X. Li, M. Caricato, A. V. Marenich, 
 J. Bloino, B. G. Janesko, R. Gomperts, B. Mennucci, H. P. Hratchian, 
 J. V. Ortiz, A. F. Izmaylov, J. L. Sonnenberg, D. Williams-Young, 
 F. Ding, F. Lipparini, F. Egidi, J. Goings, B. Peng, A. Petrone, 
 T. Henderson, D. Ranasinghe, V. G. Zakrzewski, J. Gao, N. Rega, 
 G. Zheng, W. Liang, M. Hada, M. Ehara, K. Toyota, R. Fukuda, 
 J. Hasegawa, M. Ishida, T. Nakajima, Y. Honda, O. Kitao, H. Nakai, 
 T. Vreven, K. Throssell, J. A. Montgomery, Jr., J. E. Peralta, 
 F. Ogliaro, M. J. Bearpark, J. J. Heyd, E. N. Brothers, K. N. Kudin, 
 V. N. Staroverov, T. A. Keith, R. Kobayashi, J. Normand, 
 K. Raghavachari, A. P. Rendell, J. C. Burant, S. S. Iyengar, 
 J. Tomasi, M. Cossi, J. M. Millam, M. Klene, C. Adamo, R. Cammi, 
 J. W. Ochterski, R. L. Martin, K. Morokuma, O. Farkas, 
 J. B. Foresman, and D. J. Fox, Gaussian, Inc., Wallingford CT, 2016.
 
 ******************************************
 Gaussian 16:  ES64L-G16RevA.03 25-Dec-2016
                12-Sep-2022 
 ******************************************
 %nprocs=12
 Will use up to   12 processors via shared memory.
 %mem=16GB
 %chk=1f1f_II_S.chk
 ----------------------------------------------------------------------
 # PBE1PBE/def2TZVP empiricaldispersion=GD3BJ int=(grid=ultrafine) geom
 =check guess=read pop=nbo
 ----------------------------------------------------------------------
 1/29=2,38=1,172=1/1;
 2/12=2,40=1/2;
 3/5=44,7=101,11=2,14=-4,25=1,30=1,74=-13,75=-5,116=-2,124=41/1,2,3;
 4/5=1/1;
 5/5=2,38=6/2;
 6/7=2,8=2,9=2,10=2,28=1,40=1/1,7;
 99/5=1,9=1/99;
 -------------
 1f1f_II_S_nbo
 -------------
 Structure from the checkpoint file:  "1f1f_II_S.chk"
 Charge =  0 Multiplicity = 1
 Z-Matrix found in chk file.
 C,0,17.746,-1.573,14.073
 C,0,19.193,-1.82,13.766
 N,0,19.739,-3.084,13.674
 C,0,20.216,-0.957,13.561
 C,0,21.032,-2.989,13.429
 N,0,21.348,-1.709,13.356
 C,0,26.954,-1.513,11.283
 C,0,26.872,-0.44,12.354
 S,0,25.223,0.143,12.791
 C,0,25.647,1.516,13.893
 Fe,0,23.155,-0.817,13.27
 C,0,24.82,-3.613,14.279
 C,0,22.887,0.274,16.485
 C,0,21.839,2.193,12.107
 C,0,22.984,-2.09,10.08
 N,0,23.692,-1.546,15.023
 C,0,24.377,-2.734,15.277
 C,0,24.705,-2.89,16.725
 C,0,24.279,-1.703,17.32
 C,0,23.578,-0.926,16.264
 C,0,24.488,-1.268,18.793
 C,0,25.234,-4.188,17.406
 C,0,24.275,-5.336,17.098
 C,0,24.692,-6.674,17.694
 O,0,25.782,-7.178,17.357
 O,0,23.916,-7.237,18.494
 N,0,22.421,0.836,14.114
 C,0,22.338,1.097,15.49
 C,0,21.784,2.43,15.73
 C,0,21.573,3.003,14.497
 C,0,21.95,2.006,13.491
 C,0,21.418,3.053,17.081
 C,0,21.102,4.304,14.272
 C,0,21.977,5.385,14.378
 N,0,22.588,-0.09,11.473
 C,0,22.143,1.209,11.155
 C,0,21.74,1.292,9.736
 C,0,21.822,-0.001,9.23
 C,0,22.445,-0.814,10.283
 C,0,21.434,2.543,8.906
 C,0,21.411,-0.436,7.944
 C,0,22.123,-0.078,6.828
 N,0,23.773,-2.479,12.38
 C,0,23.641,-2.843,11.034
 C,0,24.376,-4.055,10.759
 C,0,24.914,-4.456,11.946
 C,0,24.528,-3.497,12.936
 C,0,24.611,-4.72,9.402
 C,0,25.836,-5.636,12.228
 C,0,27.212,-5.383,11.637
 C,0,28.251,-6.376,12.122
 O,0,28.671,-6.286,13.304
 O,0,28.641,-7.254,11.32
 H,0,17.66685698,-0.88743069,14.89069866
 H,0,17.26446035,-1.15843219,13.21209751
 H,0,17.27427527,-2.49690725,14.33524258
 H,0,20.15458612,0.11123417,13.55897442
 H,0,21.70887138,-3.80908731,13.30982811
 H,0,27.95092075,-1.89935119,11.24078886
 H,0,26.27424493,-2.30497904,11.51880126
 H,0,26.69462441,-1.09087413,10.33461503
 H,0,27.36952853,0.41091235,11.93769059
 H,0,27.25170312,-0.90019582,13.24222596
 H,0,25.07237296,2.34654736,14.24640464
 H,0,25.52401124,2.05297113,12.97570192
 H,0,24.94483245,0.99831047,14.51256298
 H,0,25.43148164,-4.43702489,14.58227081
 H,0,22.76806888,0.58942604,17.50051061
 H,0,21.50148805,3.14524249,11.75455154
 H,0,22.87834155,-2.51764769,9.1048827
 H,0,23.90825383,-0.6406395,19.43737037
 H,0,24.63248393,-0.32667414,18.3052193
 H,0,23.61949653,-1.88224725,18.90833448
 H,0,25.1929533,-4.02362619,18.46250197
 H,0,26.16581048,-4.42719282,16.93758136
 H,0,24.30982526,-5.46705355,16.03662722
 H,0,23.35228676,-5.08001763,17.5754655
 H,0,21.74558828,4.0713457,17.10462085
 H,0,20.35704278,3.01643157,17.21491238
 H,0,21.89575657,2.50632246,17.86699766
 H,0,20.68918691,4.32564604,13.28507711
 H,0,22.96546726,5.07088439,14.11500977
 H,0,21.66254758,6.16463577,13.71604249
 H,0,22.34326357,3.07149465,8.70893869
 H,0,20.98111524,2.25491936,7.98036241
 H,0,20.76392391,3.17623073,9.4490625
 H,0,21.38195438,-1.50532553,7.96847988
 H,0,23.15359438,0.04674312,7.08725734
 H,0,22.0320054,-0.84361543,6.0860748
 H,0,25.51888147,-5.28533861,9.43430332
 H,0,23.79267955,-5.3719056,9.17778865
 H,0,24.68585567,-3.96802005,8.64448909
 H,0,25.42781304,-6.47488176,11.70401451
 H,0,25.96238639,-5.67824507,13.28966936
 H,0,27.52129043,-4.42714427,12.00521089
 H,0,27.11631142,-5.54517682,10.5836993
 H,0,19.23266212,-3.94014532,13.7771365
 H,0,24.26903526,-7.75078259,19.22406407
 H,0,29.61495358,-6.27272951,13.47828578
 H,0,21.73894581,0.84220563,6.43989694
 H,0,20.40836972,-0.09071643,7.80113022
 H,0,20.30147725,4.47513151,14.96104087
 H,0,21.97423612,5.74876246,15.38426499
 Recover connectivity data from disk.
 Stoichiometry    C41H50FeN6O4S
 Framework group  C1[X(C41H50FeN6O4S)]
 Deg. of freedom   303
 Full point group                 C1      NOp   1
 Largest Abelian subgroup         C1      NOp   1
 Largest concise Abelian subgroup C1      NOp   1
                         Standard orientation:                         
 ---------------------------------------------------------------------
 Center     Atomic      Atomic             Coordinates (Angstroms)
 Number     Number       Type             X           Y           Z
 ---------------------------------------------------------------------
      1          6           0        2.701855   -1.695484    4.863536
      2          6           0        1.841605   -1.105113    3.786270
      3          7           0        0.532127   -0.721753    3.992615
      4          6           0        2.098814   -0.862301    2.479286
      5          6           0        0.020964   -0.272272    2.862315
      6          7           0        0.950442   -0.346928    1.927392
      7          6           0       -1.218963    2.618193   -2.791159
      8          6           0       -0.521306    1.394438   -3.357544
      9         16           0        0.691682    0.589624   -2.294062
     10          6           0        1.380636   -0.622806   -3.449338
     11         26           0        0.813578   -0.087145   -0.068126
     12          6           0       -2.584210   -0.337665   -0.082105
     13          6           0        1.136760   -3.430197   -0.631943
     14          6           0        4.250752    0.340541   -0.452109
     15          6           0        0.551758    3.183354    0.961997
     16          7           0       -0.458964   -1.582635   -0.260392
     17          6           0       -1.852135   -1.523186   -0.235405
     18          6           0       -2.472282   -2.848731   -0.530313
     19          6           0       -1.400338   -3.687912   -0.832274
     20          6           0       -0.162566   -2.906124   -0.573445
     21          6           0       -1.472236   -5.151343   -1.338077
     22          6           0       -3.975651   -3.214350   -0.344269
     23          6           0       -4.387828   -2.902604    1.092872
     24          6           0       -5.849598   -3.198924    1.400721
     25          8           0       -6.739810   -2.601525    0.763286
     26          8           0       -6.113064   -4.023929    2.300219
     27          7           0        2.373185   -1.295387   -0.370248
     28          6           0        2.323377   -2.688321   -0.530376
     29          6           0        3.661276   -3.227764   -0.776210
     30          6           0        4.523482   -2.156172   -0.814045
     31          6           0        3.727448   -0.955904   -0.542272
     32          6           0        4.061290   -4.702738   -0.884498
     33          6           0        5.897786   -2.224098   -1.081887
     34          6           0        6.341315   -2.343687   -2.398855
     35          7           0        2.109330    1.446176    0.153637
     36          6           0        3.489903    1.473508   -0.128891
     37          6           0        4.079909    2.769200    0.265993
     38          6           0        3.071063    3.478317    0.909414
     39          6           0        1.842803    2.691446    0.735866
     40          6           0        5.466110    3.326042   -0.074466
     41          6           0        3.201769    4.724640    1.573897
     42          6           0        3.396796    5.877769    0.857779
     43          7           0       -0.685273    1.146923    0.340273
     44          6           0       -0.621009    2.489242    0.734844
     45          6           0       -1.940199    3.075384    0.765978
     46          6           0       -2.811471    2.078727    0.439215
     47          6           0       -2.039134    0.898400    0.196110
     48          6           0       -2.308575    4.539859    1.007868
     49          6           0       -4.322616    2.151177    0.257007
     50          6           0       -4.665191    2.926687   -1.003109
     51          6           0       -6.124000    2.792947   -1.396537
     52          8           0       -6.524433    1.703436   -1.880522
     53          8           0       -6.872871    3.778529   -1.212121
     54          1           0        3.130949   -2.611725    4.515282
     55          1           0        3.482903   -1.008037    5.113095
     56          1           0        2.105483   -1.887909    5.730838
     57          1           0        3.023648   -1.038747    1.970907
     58          1           0       -0.976376    0.090723    2.726492
     59          1           0       -2.030592    2.894310   -3.431407
     60          1           0       -1.595113    2.394359   -1.814783
     61          1           0       -0.522863    3.428361   -2.728122
     62          1           0        0.035777    1.752585   -4.197955
     63          1           0       -1.295815    0.669775   -3.498607
     64          1           0        2.282956   -1.197221   -3.421687
     65          1           0        2.097706    0.162985   -3.564411
     66          1           0        1.158803   -1.266623   -2.623995
     67          1           0       -3.647242   -0.396100   -0.189107
     68          1           0        1.231547   -4.487572   -0.765632
     69          1           0        5.295289    0.474591   -0.641515
     70          1           0        0.466164    4.179782    1.342398
     71          1           0       -0.802820   -5.977574   -1.219235
     72          1           0       -0.647107   -4.799696   -1.921521
     73          1           0       -1.578317   -5.319010   -0.286633
     74          1           0       -4.055360   -4.274230   -0.467556
     75          1           0       -4.535743   -2.558459   -0.977518
     76          1           0       -4.276039   -1.844307    1.204282
     77          1           0       -3.820268   -3.568331    1.708975
     78          1           0        4.744334   -4.828211   -1.698504
     79          1           0        4.530444   -5.012811    0.025804
     80          1           0        3.188460   -5.297305   -1.056420
     81          1           0        6.344141   -1.340463   -0.675861
     82          1           0        5.644020   -1.865795   -3.054827
     83          1           0        7.299572   -1.877673   -2.496191
     84          1           0        5.498482    3.593739   -1.109932
     85          1           0        5.659564    4.191711    0.523943
     86          1           0        6.208346    2.581552    0.124830
     87          1           0        2.316148    4.863603    2.158075
     88          1           0        2.928107    5.786536   -0.099773
     89          1           0        2.968656    6.703151    1.387250
     90          1           0       -3.242245    4.756062    0.532037
     91          1           0       -2.394823    4.716915    2.059587
     92          1           0       -1.546389    5.171213    0.601218
     93          1           0       -4.702674    2.720722    1.079244
     94          1           0       -4.659971    1.148003    0.099739
     95          1           0       -4.102826    2.472886   -1.792229
     96          1           0       -4.516074    3.959185   -0.765174
     97          1           0        0.045535   -0.776223    4.864545
     98          1           0       -6.883497   -4.591118    2.220662
     99          1           0       -7.023992    1.697129   -2.700279
    100          1           0        4.445797    6.043359    0.727103
    101          1           0        4.023537    4.633865    2.253130
    102          1           0        6.285724   -3.060772   -0.539319
    103          1           0        6.420603   -3.379335   -2.655850
 ---------------------------------------------------------------------
 Rotational constants (GHZ):           0.0654751           0.0436070           0.0340354
 Standard basis: def2TZVP (5D, 7F)
 There are  2230 symmetry adapted cartesian basis functions of A   symmetry.
 There are  1963 symmetry adapted basis functions of A   symmetry.
  1963 basis functions,  3172 primitive gaussians,  2230 cartesian basis functions
   206 alpha electrons      206 beta electrons
       nuclear repulsion energy      9024.6235923229 Hartrees.
 NAtoms=  103 NActive=  103 NUniq=  103 SFac= 1.00D+00 NAtFMM=   60 NAOKFM=T Big=T
 Integral buffers will be    131072 words long.
 Raffenetti 2 integral format.
 Two-electron integral symmetry is turned on.
 Nuclear repulsion after empirical dispersion term =     9024.4711723104 Hartrees.
 One-electron integrals computed using PRISM.
   1 Symmetry operations used in ECPInt.
 ECPInt:  NShTT=  311655 NPrTT=  958403 LenC2=  228367 LenP2D=  454263.
 LDataN:  DoStor=T MaxTD1= 6 Len=  172
 NBasis=  1963 RedAO= T EigKep=  3.60D-06  NBF=  1963
 NBsUse=  1963 1.00D-06 EigRej= -1.00D+00 NBFU=  1963
 Initial guess from the checkpoint file:  "1f1f_II_S.chk"
 B after Tr=     0.000000    0.000000    0.000000
         Rot=    1.000000    0.000000    0.000000    0.000000 Ang=   0.00 deg.
 Requested convergence on RMS density matrix=1.00D-08 within 128 cycles.
 Requested convergence on MAX density matrix=1.00D-06.
 Requested convergence on             energy=1.00D-06.
 No special actions if energy rises.
 SCF Done:  E(RPBE1PBE) =  -3881.43868328     A.U. after    2 cycles
            NFock=  2  Conv=0.15D-08     -V/T= 2.0030
 Hyperfine terms turned off by default for NAtoms > 100.

 **********************************************************************

            Population analysis using the SCF density.

 **********************************************************************

 Orbital symmetries:
       Occupied  (A) (A) (A) (A) (A) (A) (A) (A) (A) (A) (A) (A)
                 (A) (A) (A) (A) (A) (A) (A) (A) (A) (A) (A) (A)
                 (A) (A) (A) (A) (A) (A) (A) (A) (A) (A) (A) (A)
                 (A) (A) (A) (A) (A) (A) (A) (A) (A) (A) (A) (A)
                 (A) (A) (A) (A) (A) (A) (A) (A) (A) (A) (A) (A)
                 (A) (A) (A) (A) (A) (A) (A) (A) (A) (A) (A) (A)
                 (A) (A) (A) (A) (A) (A) (A) (A) (A) (A) (A) (A)
                 (A) (A) (A) (A) (A) (A) (A) (A) (A) (A) (A) (A)
                 (A) (A) (A) (A) (A) (A) (A) (A) (A) (A) (A) (A)
                 (A) (A) (A) (A) (A) (A) (A) (A) (A) (A) (A) (A)
                 (A) (A) (A) (A) (A) (A) (A) (A) (A) (A) (A) (A)
                 (A) (A) (A) (A) (A) (A) (A) (A) (A) (A) (A) (A)
                 (A) (A) (A) (A) (A) (A) (A) (A) (A) (A) (A) (A)
                 (A) (A) (A) (A) (A) (A) (A) (A) (A) (A) (A) (A)
                 (A) (A) (A) (A) (A) (A) (A) (A) (A) (A) (A) (A)
                 (A) (A) (A) (A) (A) (A) (A) (A) (A) (A) (A) (A)
                 (A) (A) (A) (A) (A) (A) (A) (A) (A) (A) (A) (A)
                 (A) (A)
       Virtual   (A) (A) (A) (A) (A) (A) (A) (A) (A) (A) (A) (A)
                 (A) (A) (A) (A) (A) (A) (A) (A) (A) (A) (A) (A)
                 (A) (A) (A) (A) (A) (A) (A) (A) (A) (A) (A) (A)
                 (A) (A) (A) (A) (A) (A) (A) (A) (A) (A) (A) (A)
                 (A) (A) (A) (A) (A) (A) (A) (A) (A) (A) (A) (A)
                 (A) (A) (A) (A) (A) (A) (A) (A) (A) (A) (A) (A)
                 (A) (A) (A) (A) (A) (A) (A) (A) (A) (A) (A) (A)
                 (A) (A) (A) (A) (A) (A) (A) (A) (A) (A) (A) (A)
                 (A) (A) (A) (A) (A) (A) (A) (A) (A) (A) (A) (A)
                 (A) (A) (A) (A) (A) (A) (A) (A) (A) (A) (A) (A)
                 (A) (A) (A) (A) (A) (A) (A) (A) (A) (A) (A) (A)
                 (A) (A) (A) (A) (A) (A) (A) (A) (A) (A) (A) (A)
                 (A) (A) (A) (A) (A) (A) (A) (A) (A) (A) (A) (A)
                 (A) (A) (A) (A) (A) (A) (A) (A) (A) (A) (A) (A)
                 (A) (A) (A) (A) (A) (A) (A) (A) (A) (A) (A) (A)
                 (A) (A) (A) (A) (A) (A) (A) (A) (A) (A) (A) (A)
                 (A) (A) (A) (A) (A) (A) (A) (A) (A) (A) (A) (A)
                 (A) (A) (A) (A) (A) (A) (A) (A) (A) (A) (A) (A)
                 (A) (A) (A) (A) (A) (A) (A) (A) (A) (A) (A) (A)
                 (A) (A) (A) (A) (A) (A) (A) (A) (A) (A) (A) (A)
                 (A) (A) (A) (A) (A) (A) (A) (A) (A) (A) (A) (A)
                 (A) (A) (A) (A) (A) (A) (A) (A) (A) (A) (A) (A)
                 (A) (A) (A) (A) (A) (A) (A) (A) (A) (A) (A) (A)
                 (A) (A) (A) (A) (A) (A) (A) (A) (A) (A) (A) (A)
                 (A) (A) (A) (A) (A) (A) (A) (A) (A) (A) (A) (A)
                 (A) (A) (A) (A) (A) (A) (A) (A) (A) (A) (A) (A)
                 (A) (A) (A) (A) (A) (A) (A) (A) (A) (A) (A) (A)
                 (A) (A) (A) (A) (A) (A) (A) (A) (A) (A) (A) (A)
                 (A) (A) (A) (A) (A) (A) (A) (A) (A) (A) (A) (A)
                 (A) (A) (A) (A) (A) (A) (A) (A) (A) (A) (A) (A)
                 (A) (A) (A) (A) (A) (A) (A) (A) (A) (A) (A) (A)
                 (A) (A) (A) (A) (A) (A) (A) (A) (A) (A) (A) (A)
                 (A) (A) (A) (A) (A) (A) (A) (A) (A) (A) (A) (A)
                 (A) (A) (A) (A) (A) (A) (A) (A) (A) (A) (A) (A)
                 (A) (A) (A) (A) (A) (A) (A) (A) (A) (A) (A) (A)
                 (A) (A) (A) (A) (A) (A) (A) (A) (A) (A) (A) (A)
                 (A) (A) (A) (A) (A) (A) (A) (A) (A) (A) (A) (A)
                 (A) (A) (A) (A) (A) (A) (A) (A) (A) (A) (A) (A)
                 (A) (A) (A) (A) (A) (A) (A) (A) (A) (A) (A) (A)
                 (A) (A) (A) (A) (A) (A) (A) (A) (A) (A) (A) (A)
                 (A) (A) (A) (A) (A) (A) (A) (A) (A) (A) (A) (A)
                 (A) (A) (A) (A) (A) (A) (A) (A) (A) (A) (A) (A)
                 (A) (A) (A) (A) (A) (A) (A) (A) (A) (A) (A) (A)
                 (A) (A) (A) (A) (A) (A) (A) (A) (A) (A) (A) (A)
                 (A) (A) (A) (A) (A) (A) (A) (A) (A) (A) (A) (A)
                 (A) (A) (A) (A) (A) (A) (A) (A) (A) (A) (A) (A)
                 (A) (A) (A) (A) (A) (A) (A) (A) (A) (A) (A) (A)
                 (A) (A) (A) (A) (A) (A) (A) (A) (A) (A) (A) (A)
                 (A) (A) (A) (A) (A) (A) (A) (A) (A) (A) (A) (A)
                 (A) (A) (A) (A) (A) (A) (A) (A) (A) (A) (A) (A)
                 (A) (A) (A) (A) (A) (A) (A) (A) (A) (A) (A) (A)
                 (A) (A) (A) (A) (A) (A) (A) (A) (A) (A) (A) (A)
                 (A) (A) (A) (A) (A) (A) (A) (A) (A) (A) (A) (A)
                 (A) (A) (A) (A) (A) (A) (A) (A) (A) (A) (A) (A)
                 (A) (A) (A) (A) (A) (A) (A) (A) (A) (A) (A) (A)
                 (A) (A) (A) (A) (A) (A) (A) (A) (A) (A) (A) (A)
                 (A) (A) (A) (A) (A) (A) (A) (A) (A) (A) (A) (A)
                 (A) (A) (A) (A) (A) (A) (A) (A) (A) (A) (A) (A)
                 (A) (A) (A) (A) (A) (A) (A) (A) (A) (A) (A) (A)
                 (A) (A) (A) (A) (A) (A) (A) (A) (A) (A) (A) (A)
                 (A) (A) (A) (A) (A) (A) (A) (A) (A) (A) (A) (A)
                 (A) (A) (A) (A) (A) (A) (A) (A) (A) (A) (A) (A)
                 (A) (A) (A) (A) (A) (A) (A) (A) (A) (A) (A) (A)
                 (A) (A) (A) (A) (A) (A) (A) (A) (A) (A) (A) (A)
                 (A) (A) (A) (A) (A) (A) (A) (A) (A) (A) (A) (A)
                 (A) (A) (A) (A) (A) (A) (A) (A) (A) (A) (A) (A)
                 (A) (A) (A) (A) (A) (A) (A) (A) (A) (A) (A) (A)
                 (A) (A) (A) (A) (A) (A) (A) (A) (A) (A) (A) (A)
                 (A) (A) (A) (A) (A) (A) (A) (A) (A) (A) (A) (A)
                 (A) (A) (A) (A) (A) (A) (A) (A) (A) (A) (A) (A)
                 (A) (A) (A) (A) (A) (A) (A) (A) (A) (A) (A) (A)
                 (A) (A) (A) (A) (A) (A) (A) (A) (A) (A) (A) (A)
                 (A) (A) (A) (A) (A) (A) (A) (A) (A) (A) (A) (A)
                 (A) (A) (A) (A) (A) (A) (A) (A) (A) (A) (A) (A)
                 (A) (A) (A) (A) (A) (A) (A) (A) (A) (A) (A) (A)
                 (A) (A) (A) (A) (A) (A) (A) (A) (A) (A) (A) (A)
                 (A) (A) (A) (A) (A) (A) (A) (A) (A) (A) (A) (A)
                 (A) (A) (A) (A) (A) (A) (A) (A) (A) (A) (A) (A)
                 (A) (A) (A) (A) (A) (A) (A) (A) (A) (A) (A) (A)
                 (A) (A) (A) (A) (A) (A) (A) (A) (A) (A) (A) (A)
                 (A) (A) (A) (A) (A) (A) (A) (A) (A) (A) (A) (A)
                 (A) (A) (A) (A) (A) (A) (A) (A) (A) (A) (A) (A)
                 (A) (A) (A) (A) (A) (A) (A) (A) (A) (A) (A) (A)
                 (A) (A) (A) (A) (A) (A) (A) (A) (A) (A) (A) (A)
                 (A) (A) (A) (A) (A) (A) (A) (A) (A) (A) (A) (A)
                 (A) (A) (A) (A) (A) (A) (A) (A) (A) (A) (A) (A)
                 (A) (A) (A) (A) (A) (A) (A) (A) (A) (A) (A) (A)
                 (A) (A) (A) (A) (A) (A) (A) (A) (A) (A) (A) (A)
                 (A) (A) (A) (A) (A) (A) (A) (A) (A) (A) (A) (A)
                 (A) (A) (A) (A) (A) (A) (A) (A) (A) (A) (A) (A)
                 (A) (A) (A) (A) (A) (A) (A) (A) (A) (A) (A) (A)
                 (A) (A) (A) (A) (A) (A) (A) (A) (A) (A) (A) (A)
                 (A) (A) (A) (A) (A) (A) (A) (A) (A) (A) (A) (A)
                 (A) (A) (A) (A) (A) (A) (A) (A) (A) (A) (A) (A)
                 (A) (A) (A) (A) (A) (A) (A) (A) (A) (A) (A) (A)
                 (A) (A) (A) (A) (A) (A) (A) (A) (A) (A) (A) (A)
                 (A) (A) (A) (A) (A) (A) (A) (A) (A) (A) (A) (A)
                 (A) (A) (A) (A) (A) (A) (A) (A) (A) (A) (A) (A)
                 (A) (A) (A) (A) (A) (A) (A) (A) (A) (A) (A) (A)
                 (A) (A) (A) (A) (A) (A) (A) (A) (A) (A) (A) (A)
                 (A) (A) (A) (A) (A) (A) (A) (A) (A) (A) (A) (A)
                 (A) (A) (A) (A) (A) (A) (A) (A) (A) (A) (A) (A)
                 (A) (A) (A) (A) (A) (A) (A) (A) (A) (A) (A) (A)
                 (A) (A) (A) (A) (A) (A) (A) (A) (A) (A) (A) (A)
                 (A) (A) (A) (A) (A) (A) (A) (A) (A) (A) (A) (A)
                 (A) (A) (A) (A) (A) (A) (A) (A) (A) (A) (A) (A)
                 (A) (A) (A) (A) (A) (A) (A) (A) (A) (A) (A) (A)
                 (A) (A) (A) (A) (A) (A) (A) (A) (A) (A) (A) (A)
                 (A) (A) (A) (A) (A) (A) (A) (A) (A) (A) (A) (A)
                 (A) (A) (A) (A) (A) (A) (A) (A) (A) (A) (A) (A)
                 (A) (A) (A) (A) (A) (A) (A) (A) (A) (A) (A) (A)
                 (A) (A) (A) (A) (A) (A) (A) (A) (A) (A) (A) (A)
                 (A) (A) (A) (A) (A) (A) (A) (A) (A) (A) (A) (A)
                 (A) (A) (A) (A) (A) (A) (A) (A) (A) (A) (A) (A)
                 (A) (A) (A) (A) (A) (A) (A) (A) (A) (A) (A) (A)
                 (A) (A) (A) (A) (A) (A) (A) (A) (A) (A) (A) (A)
                 (A) (A) (A) (A) (A) (A) (A) (A) (A) (A) (A) (A)
                 (A) (A) (A) (A) (A) (A) (A) (A) (A) (A) (A) (A)
                 (A) (A) (A) (A) (A) (A) (A) (A) (A) (A) (A) (A)
                 (A) (A) (A) (A) (A) (A) (A) (A) (A) (A) (A) (A)
                 (A) (A) (A) (A) (A) (A) (A) (A) (A) (A) (A) (A)
                 (A) (A) (A) (A) (A) (A) (A) (A) (A) (A) (A) (A)
                 (A) (A) (A) (A) (A) (A) (A) (A) (A) (A) (A) (A)
                 (A) (A) (A) (A) (A) (A) (A) (A) (A) (A) (A) (A)
                 (A) (A) (A) (A) (A) (A) (A) (A) (A) (A) (A) (A)
                 (A) (A) (A) (A) (A) (A) (A) (A) (A) (A) (A) (A)
                 (A) (A) (A) (A) (A) (A) (A) (A) (A) (A) (A) (A)
                 (A) (A) (A) (A) (A) (A) (A) (A) (A) (A) (A) (A)
                 (A) (A) (A) (A) (A) (A) (A) (A) (A) (A) (A) (A)
                 (A) (A) (A) (A) (A) (A) (A) (A) (A) (A) (A) (A)
                 (A) (A) (A) (A) (A) (A) (A) (A) (A) (A) (A) (A)
                 (A) (A) (A) (A) (A) (A) (A) (A) (A) (A) (A) (A)
                 (A) (A) (A) (A) (A) (A) (A) (A) (A) (A) (A) (A)
                 (A) (A) (A) (A) (A) (A) (A) (A) (A) (A) (A) (A)
                 (A) (A) (A) (A) (A) (A) (A) (A) (A) (A) (A) (A)
                 (A) (A) (A) (A) (A) (A) (A) (A) (A) (A) (A) (A)
                 (A) (A) (A) (A) (A) (A) (A) (A) (A) (A) (A) (A)
                 (A) (A) (A) (A) (A) (A) (A) (A) (A) (A) (A) (A)
                 (A) (A) (A) (A) (A) (A) (A) (A) (A) (A) (A) (A)
                 (A) (A) (A) (A) (A) (A) (A) (A) (A) (A) (A) (A)
                 (A) (A) (A) (A) (A) (A) (A) (A) (A) (A) (A) (A)
                 (A) (A) (A) (A) (A) (A) (A) (A) (A) (A) (A) (A)
                 (A) (A) (A) (A) (A) (A) (A) (A) (A) (A) (A) (A)
                 (A) (A) (A) (A) (A) (A) (A) (A) (A) (A) (A) (A)
                 (A) (A) (A) (A) (A) (A) (A) (A) (A) (A) (A) (A)
                 (A) (A) (A) (A) (A) (A) (A) (A) (A) (A) (A) (A)
                 (A) (A) (A) (A) (A)
 The electronic state is 1-A.
 Alpha  occ. eigenvalues -- -256.31607 -89.03557 -30.08526 -25.91332 -25.91002
 Alpha  occ. eigenvalues --  -25.90925 -19.26482 -19.25572 -19.17299 -19.17231
 Alpha  occ. eigenvalues --  -14.45119 -14.39350 -14.37976 -14.37665 -14.37293
 Alpha  occ. eigenvalues --  -14.37123 -10.34791 -10.34591 -10.28214 -10.27210
 Alpha  occ. eigenvalues --  -10.26308 -10.25463 -10.25420 -10.25174 -10.24994
 Alpha  occ. eigenvalues --  -10.24965 -10.24678 -10.24479 -10.24247 -10.23579
 Alpha  occ. eigenvalues --  -10.23438 -10.23411 -10.23407 -10.22899 -10.22757
 Alpha  occ. eigenvalues --  -10.22674 -10.22499 -10.22488 -10.22468 -10.22438
 Alpha  occ. eigenvalues --  -10.22336 -10.22308 -10.22011 -10.21845 -10.21836
 Alpha  occ. eigenvalues --  -10.21792 -10.21522 -10.21489 -10.21358 -10.21279
 Alpha  occ. eigenvalues --  -10.20139 -10.19917 -10.19569 -10.19506 -10.18984
 Alpha  occ. eigenvalues --  -10.18927 -10.18339  -8.01153  -5.94987  -5.94493
 Alpha  occ. eigenvalues --   -5.93848  -3.43060  -2.19081  -2.18390  -2.18255
 Alpha  occ. eigenvalues --   -1.17164  -1.16033  -1.06969  -1.02145  -1.01887
 Alpha  occ. eigenvalues --   -0.96949  -0.95943  -0.95398  -0.94297  -0.91233
 Alpha  occ. eigenvalues --   -0.85658  -0.85361  -0.85059  -0.84288  -0.84186
 Alpha  occ. eigenvalues --   -0.83280  -0.81816  -0.81787  -0.80640  -0.79616
 Alpha  occ. eigenvalues --   -0.78921  -0.78637  -0.78182  -0.77783  -0.75107
 Alpha  occ. eigenvalues --   -0.74834  -0.73618  -0.73103  -0.72356  -0.71771
 Alpha  occ. eigenvalues --   -0.70643  -0.69590  -0.69212  -0.68240  -0.66055
 Alpha  occ. eigenvalues --   -0.65749  -0.65231  -0.64876  -0.64420  -0.63389
 Alpha  occ. eigenvalues --   -0.63366  -0.62580  -0.59561  -0.59012  -0.57465
 Alpha  occ. eigenvalues --   -0.57058  -0.56115  -0.54991  -0.54767  -0.53874
 Alpha  occ. eigenvalues --   -0.52691  -0.52448  -0.52083  -0.51149  -0.50975
 Alpha  occ. eigenvalues --   -0.50820  -0.50318  -0.50271  -0.50178  -0.49994
 Alpha  occ. eigenvalues --   -0.49640  -0.49290  -0.48851  -0.48613  -0.48494
 Alpha  occ. eigenvalues --   -0.48332  -0.48114  -0.47912  -0.47585  -0.46531
 Alpha  occ. eigenvalues --   -0.46315  -0.46003  -0.45602  -0.45539  -0.44855
 Alpha  occ. eigenvalues --   -0.44816  -0.44235  -0.44065  -0.43986  -0.43910
 Alpha  occ. eigenvalues --   -0.43626  -0.43030  -0.42931  -0.42753  -0.42578
 Alpha  occ. eigenvalues --   -0.42345  -0.41866  -0.41592  -0.41224  -0.40822
 Alpha  occ. eigenvalues --   -0.40513  -0.40395  -0.40094  -0.39886  -0.39571
 Alpha  occ. eigenvalues --   -0.39518  -0.39229  -0.38839  -0.38654  -0.38459
 Alpha  occ. eigenvalues --   -0.38362  -0.37949  -0.37752  -0.37537  -0.37213
 Alpha  occ. eigenvalues --   -0.37004  -0.36879  -0.36336  -0.35933  -0.35381
 Alpha  occ. eigenvalues --   -0.35143  -0.34812  -0.34310  -0.34107  -0.33706
 Alpha  occ. eigenvalues --   -0.33344  -0.33047  -0.32505  -0.32343  -0.32176
 Alpha  occ. eigenvalues --   -0.32018  -0.31484  -0.30699  -0.29963  -0.28030
 Alpha  occ. eigenvalues --   -0.27711  -0.27394  -0.27098  -0.26527  -0.25623
 Alpha  occ. eigenvalues --   -0.24687  -0.23867  -0.23690  -0.23060  -0.20751
 Alpha  occ. eigenvalues --   -0.20723  -0.19339  -0.19036  -0.18961  -0.18562
 Alpha  occ. eigenvalues --   -0.17910
 Alpha virt. eigenvalues --   -0.07173  -0.07031  -0.02908  -0.01660  -0.00718
 Alpha virt. eigenvalues --   -0.00287   0.00442   0.00854   0.01951   0.02296
 Alpha virt. eigenvalues --    0.02793   0.03151   0.03320   0.03889   0.03983
 Alpha virt. eigenvalues --    0.04339   0.04374   0.04873   0.05068   0.05457
 Alpha virt. eigenvalues --    0.05774   0.06195   0.06244   0.06706   0.06786
 Alpha virt. eigenvalues --    0.06855   0.07326   0.07703   0.08134   0.08303
 Alpha virt. eigenvalues --    0.08426   0.08607   0.08908   0.09017   0.09530
 Alpha virt. eigenvalues --    0.09820   0.09835   0.10490   0.10682   0.11119
 Alpha virt. eigenvalues --    0.11264   0.11361   0.11734   0.11895   0.11965
 Alpha virt. eigenvalues --    0.12039   0.12561   0.12628   0.12729   0.13049
 Alpha virt. eigenvalues --    0.13150   0.13388   0.13477   0.13696   0.13858
 Alpha virt. eigenvalues --    0.14005   0.14216   0.14353   0.14463   0.14713
 Alpha virt. eigenvalues --    0.15015   0.15060   0.15231   0.15501   0.15581
 Alpha virt. eigenvalues --    0.15994   0.16283   0.16573   0.16843   0.17013
 Alpha virt. eigenvalues --    0.17171   0.17418   0.17545   0.18010   0.18095
 Alpha virt. eigenvalues --    0.18395   0.18804   0.19107   0.19408   0.19623
 Alpha virt. eigenvalues --    0.19693   0.19888   0.20012   0.20103   0.20271
 Alpha virt. eigenvalues --    0.20456   0.20799   0.20964   0.21152   0.21439
 Alpha virt. eigenvalues --    0.21568   0.21692   0.21834   0.22026   0.22199
 Alpha virt. eigenvalues --    0.22712   0.22793   0.22842   0.23138   0.23213
 Alpha virt. eigenvalues --    0.23336   0.23534   0.23688   0.24079   0.24306
 Alpha virt. eigenvalues --    0.24476   0.24720   0.24872   0.24982   0.25173
 Alpha virt. eigenvalues --    0.25372   0.25638   0.25727   0.26014   0.26200
 Alpha virt. eigenvalues --    0.26297   0.26420   0.26809   0.26970   0.27016
 Alpha virt. eigenvalues --    0.27186   0.27409   0.27557   0.27796   0.28094
 Alpha virt. eigenvalues --    0.28337   0.28769   0.28912   0.28946   0.29178
 Alpha virt. eigenvalues --    0.29279   0.29777   0.29949   0.30221   0.30391
 Alpha virt. eigenvalues --    0.30468   0.30931   0.31279   0.31443   0.31608
 Alpha virt. eigenvalues --    0.31851   0.32311   0.32471   0.32701   0.32938
 Alpha virt. eigenvalues --    0.32962   0.33554   0.33822   0.33850   0.34068
 Alpha virt. eigenvalues --    0.34526   0.34766   0.34840   0.35003   0.35250
 Alpha virt. eigenvalues --    0.35549   0.35772   0.36107   0.36337   0.36365
 Alpha virt. eigenvalues --    0.36491   0.36666   0.37149   0.37371   0.37612
 Alpha virt. eigenvalues --    0.37772   0.37846   0.37999   0.38272   0.38339
 Alpha virt. eigenvalues --    0.38434   0.38905   0.39093   0.39375   0.39564
 Alpha virt. eigenvalues --    0.39696   0.39940   0.40112   0.40257   0.40395
 Alpha virt. eigenvalues --    0.40576   0.40741   0.40981   0.41229   0.41505
 Alpha virt. eigenvalues --    0.41567   0.41792   0.41947   0.42200   0.42338
 Alpha virt. eigenvalues --    0.42508   0.42685   0.42855   0.42949   0.43157
 Alpha virt. eigenvalues --    0.43198   0.43477   0.43752   0.43844   0.44110
 Alpha virt. eigenvalues --    0.44235   0.44294   0.44468   0.44498   0.44807
 Alpha virt. eigenvalues --    0.44939   0.45142   0.45349   0.45551   0.45604
 Alpha virt. eigenvalues --    0.45757   0.46007   0.46124   0.46266   0.46485
 Alpha virt. eigenvalues --    0.46585   0.46756   0.46981   0.47075   0.47210
 Alpha virt. eigenvalues --    0.47483   0.47800   0.47838   0.47920   0.47996
 Alpha virt. eigenvalues --    0.48161   0.48394   0.48486   0.48721   0.48922
 Alpha virt. eigenvalues --    0.49165   0.49240   0.49398   0.49670   0.49710
 Alpha virt. eigenvalues --    0.49891   0.49969   0.50156   0.50544   0.50623
 Alpha virt. eigenvalues --    0.50759   0.50975   0.51131   0.51377   0.51601
 Alpha virt. eigenvalues --    0.51712   0.51883   0.52100   0.52302   0.52434
 Alpha virt. eigenvalues --    0.52667   0.52736   0.52968   0.53097   0.53230
 Alpha virt. eigenvalues --    0.53454   0.53570   0.53760   0.53954   0.54117
 Alpha virt. eigenvalues --    0.54437   0.54488   0.54525   0.54621   0.54918
 Alpha virt. eigenvalues --    0.55102   0.55249   0.55529   0.55614   0.55938
 Alpha virt. eigenvalues --    0.56105   0.56383   0.56560   0.56990   0.57102
 Alpha virt. eigenvalues --    0.57282   0.57448   0.57502   0.57624   0.57988
 Alpha virt. eigenvalues --    0.58311   0.58352   0.58574   0.58904   0.59477
 Alpha virt. eigenvalues --    0.59536   0.59969   0.60115   0.60388   0.60501
 Alpha virt. eigenvalues --    0.60674   0.60835   0.60993   0.61210   0.61409
 Alpha virt. eigenvalues --    0.61622   0.61923   0.62221   0.62403   0.62810
 Alpha virt. eigenvalues --    0.63123   0.63272   0.63619   0.63656   0.63931
 Alpha virt. eigenvalues --    0.64252   0.64807   0.64905   0.64939   0.65122
 Alpha virt. eigenvalues --    0.65288   0.65423   0.65830   0.66107   0.66283
 Alpha virt. eigenvalues --    0.66553   0.66987   0.67226   0.67486   0.67598
 Alpha virt. eigenvalues --    0.68345   0.68646   0.68930   0.69068   0.69325
 Alpha virt. eigenvalues --    0.69608   0.69716   0.70010   0.70299   0.70508
 Alpha virt. eigenvalues --    0.70638   0.70807   0.71252   0.71447   0.71842
 Alpha virt. eigenvalues --    0.72104   0.72236   0.72531   0.72968   0.73267
 Alpha virt. eigenvalues --    0.73379   0.73506   0.73618   0.74153   0.74660
 Alpha virt. eigenvalues --    0.74760   0.75017   0.75186   0.75621   0.75854
 Alpha virt. eigenvalues --    0.76346   0.76496   0.76936   0.77168   0.77225
 Alpha virt. eigenvalues --    0.77816   0.77987   0.78058   0.78628   0.78831
 Alpha virt. eigenvalues --    0.79244   0.79532   0.80038   0.80323   0.80459
 Alpha virt. eigenvalues --    0.80789   0.81094   0.81226   0.81392   0.81984
 Alpha virt. eigenvalues --    0.82027   0.82761   0.82875   0.83141   0.83664
 Alpha virt. eigenvalues --    0.84033   0.84383   0.84504   0.84538   0.84632
 Alpha virt. eigenvalues --    0.84927   0.85302   0.85542   0.85885   0.86134
 Alpha virt. eigenvalues --    0.86419   0.86987   0.87138   0.87242   0.87622
 Alpha virt. eigenvalues --    0.87693   0.87955   0.88378   0.88902   0.89184
 Alpha virt. eigenvalues --    0.89402   0.89667   0.89842   0.90117   0.90224
 Alpha virt. eigenvalues --    0.90580   0.90794   0.90891   0.91497   0.91535
 Alpha virt. eigenvalues --    0.91914   0.92098   0.92673   0.92773   0.93071
 Alpha virt. eigenvalues --    0.93276   0.93513   0.93987   0.94109   0.94439
 Alpha virt. eigenvalues --    0.94583   0.94918   0.95314   0.95526   0.95722
 Alpha virt. eigenvalues --    0.95854   0.96143   0.96419   0.96609   0.96825
 Alpha virt. eigenvalues --    0.97087   0.97134   0.97635   0.97755   0.98160
 Alpha virt. eigenvalues --    0.98382   0.98577   0.98889   0.99046   0.99367
 Alpha virt. eigenvalues --    0.99416   0.99762   1.00215   1.00415   1.00609
 Alpha virt. eigenvalues --    1.00962   1.01346   1.01616   1.01786   1.02103
 Alpha virt. eigenvalues --    1.02417   1.02811   1.03110   1.03180   1.03646
 Alpha virt. eigenvalues --    1.04059   1.04176   1.04543   1.04709   1.04920
 Alpha virt. eigenvalues --    1.05276   1.05433   1.05879   1.06251   1.06351
 Alpha virt. eigenvalues --    1.06611   1.06952   1.07117   1.07657   1.07925
 Alpha virt. eigenvalues --    1.08088   1.08300   1.08511   1.09026   1.09104
 Alpha virt. eigenvalues --    1.09534   1.10131   1.10257   1.10659   1.10858
 Alpha virt. eigenvalues --    1.11276   1.11326   1.11772   1.12038   1.12339
 Alpha virt. eigenvalues --    1.12484   1.12862   1.13168   1.13648   1.14245
 Alpha virt. eigenvalues --    1.14370   1.14586   1.14908   1.15249   1.15577
 Alpha virt. eigenvalues --    1.15693   1.16097   1.16523   1.17118   1.17498
 Alpha virt. eigenvalues --    1.17599   1.18068   1.18513   1.18556   1.19421
 Alpha virt. eigenvalues --    1.19476   1.19738   1.20089   1.20288   1.20996
 Alpha virt. eigenvalues --    1.21060   1.21425   1.21798   1.22214   1.22424
 Alpha virt. eigenvalues --    1.22725   1.23238   1.23391   1.23575   1.23903
 Alpha virt. eigenvalues --    1.24465   1.24576   1.24808   1.25239   1.25377
 Alpha virt. eigenvalues --    1.25779   1.26327   1.26732   1.27170   1.27319
 Alpha virt. eigenvalues --    1.27826   1.28125   1.28438   1.28808   1.28989
 Alpha virt. eigenvalues --    1.29094   1.29460   1.29779   1.30254   1.30421
 Alpha virt. eigenvalues --    1.30924   1.31127   1.31588   1.31940   1.32347
 Alpha virt. eigenvalues --    1.32455   1.32703   1.33271   1.33879   1.34312
 Alpha virt. eigenvalues --    1.34584   1.34752   1.35105   1.35455   1.36187
 Alpha virt. eigenvalues --    1.36847   1.37028   1.37109   1.37479   1.37502
 Alpha virt. eigenvalues --    1.38376   1.38616   1.38764   1.39531   1.39746
 Alpha virt. eigenvalues --    1.40279   1.40570   1.41372   1.41831   1.42042
 Alpha virt. eigenvalues --    1.42487   1.42742   1.42995   1.43668   1.43788
 Alpha virt. eigenvalues --    1.43967   1.44258   1.44658   1.45086   1.45386
 Alpha virt. eigenvalues --    1.45501   1.46108   1.46324   1.46732   1.46973
 Alpha virt. eigenvalues --    1.47090   1.47740   1.48268   1.48379   1.48632
 Alpha virt. eigenvalues --    1.48913   1.49298   1.49745   1.50176   1.50502
 Alpha virt. eigenvalues --    1.50663   1.51040   1.51227   1.51502   1.51982
 Alpha virt. eigenvalues --    1.52444   1.52690   1.52935   1.53132   1.53442
 Alpha virt. eigenvalues --    1.53571   1.53681   1.54151   1.54376   1.54417
 Alpha virt. eigenvalues --    1.54697   1.54995   1.55433   1.55660   1.55927
 Alpha virt. eigenvalues --    1.56373   1.56845   1.57018   1.57069   1.57398
 Alpha virt. eigenvalues --    1.57511   1.57837   1.58046   1.58152   1.58303
 Alpha virt. eigenvalues --    1.58510   1.58811   1.59134   1.59418   1.59502
 Alpha virt. eigenvalues --    1.59811   1.59925   1.60375   1.60583   1.60609
 Alpha virt. eigenvalues --    1.60928   1.60994   1.61188   1.61821   1.61902
 Alpha virt. eigenvalues --    1.62430   1.62520   1.62899   1.63113   1.63245
 Alpha virt. eigenvalues --    1.63368   1.63538   1.63875   1.64089   1.64298
 Alpha virt. eigenvalues --    1.64892   1.65323   1.65546   1.65592   1.65814
 Alpha virt. eigenvalues --    1.65992   1.66196   1.67020   1.67193   1.67484
 Alpha virt. eigenvalues --    1.67768   1.67940   1.68137   1.68414   1.68482
 Alpha virt. eigenvalues --    1.68849   1.69282   1.69441   1.70075   1.70100
 Alpha virt. eigenvalues --    1.70368   1.70581   1.71043   1.71294   1.71490
 Alpha virt. eigenvalues --    1.71835   1.72370   1.72558   1.72980   1.73008
 Alpha virt. eigenvalues --    1.73518   1.73677   1.73950   1.74030   1.74334
 Alpha virt. eigenvalues --    1.74580   1.74637   1.75118   1.75329   1.75563
 Alpha virt. eigenvalues --    1.75972   1.76114   1.76471   1.76974   1.77437
 Alpha virt. eigenvalues --    1.77561   1.78094   1.78179   1.78939   1.78998
 Alpha virt. eigenvalues --    1.79171   1.79629   1.79872   1.80169   1.80475
 Alpha virt. eigenvalues --    1.80702   1.81066   1.81669   1.82068   1.82335
 Alpha virt. eigenvalues --    1.82722   1.83210   1.83731   1.83851   1.84393
 Alpha virt. eigenvalues --    1.84465   1.84739   1.84869   1.85041   1.85796
 Alpha virt. eigenvalues --    1.86003   1.86413   1.86755   1.87342   1.87656
 Alpha virt. eigenvalues --    1.88028   1.88292   1.88785   1.89023   1.89334
 Alpha virt. eigenvalues --    1.89559   1.89948   1.90343   1.90587   1.91049
 Alpha virt. eigenvalues --    1.91263   1.91647   1.92147   1.92383   1.92705
 Alpha virt. eigenvalues --    1.93056   1.93367   1.93819   1.93893   1.94196
 Alpha virt. eigenvalues --    1.94245   1.94724   1.94780   1.95364   1.95597
 Alpha virt. eigenvalues --    1.96022   1.96467   1.96562   1.96826   1.97054
 Alpha virt. eigenvalues --    1.97460   1.97655   1.98040   1.98386   1.98793
 Alpha virt. eigenvalues --    1.99315   1.99462   1.99736   1.99985   2.00157
 Alpha virt. eigenvalues --    2.00405   2.01074   2.01480   2.01897   2.02099
 Alpha virt. eigenvalues --    2.02397   2.02651   2.03013   2.03525   2.04051
 Alpha virt. eigenvalues --    2.04268   2.04529   2.04789   2.04907   2.05417
 Alpha virt. eigenvalues --    2.06008   2.06357   2.06682   2.06887   2.07055
 Alpha virt. eigenvalues --    2.07556   2.08048   2.08157   2.08315   2.08916
 Alpha virt. eigenvalues --    2.09140   2.09302   2.10192   2.10422   2.10581
 Alpha virt. eigenvalues --    2.10853   2.11124   2.11513   2.11928   2.12819
 Alpha virt. eigenvalues --    2.12972   2.13050   2.13716   2.13881   2.14465
 Alpha virt. eigenvalues --    2.14609   2.14743   2.14975   2.15146   2.15538
 Alpha virt. eigenvalues --    2.16040   2.16328   2.16577   2.16589   2.17011
 Alpha virt. eigenvalues --    2.17509   2.17678   2.18328   2.18747   2.19067
 Alpha virt. eigenvalues --    2.19396   2.19661   2.19880   2.20227   2.20535
 Alpha virt. eigenvalues --    2.21057   2.21378   2.22066   2.22241   2.22721
 Alpha virt. eigenvalues --    2.22881   2.22930   2.23367   2.23661   2.24064
 Alpha virt. eigenvalues --    2.24515   2.24622   2.25025   2.25280   2.25557
 Alpha virt. eigenvalues --    2.25791   2.26715   2.26984   2.27123   2.27336
 Alpha virt. eigenvalues --    2.28035   2.28634   2.28858   2.28944   2.29508
 Alpha virt. eigenvalues --    2.29992   2.30024   2.30529   2.31074   2.31481
 Alpha virt. eigenvalues --    2.31595   2.32245   2.32579   2.32682   2.33383
 Alpha virt. eigenvalues --    2.33564   2.33874   2.34126   2.34538   2.35151
 Alpha virt. eigenvalues --    2.35432   2.35548   2.35610   2.36162   2.36524
 Alpha virt. eigenvalues --    2.36703   2.37080   2.37103   2.37479   2.37941
 Alpha virt. eigenvalues --    2.38094   2.38289   2.38793   2.39466   2.39566
 Alpha virt. eigenvalues --    2.39780   2.40055   2.40335   2.40556   2.41238
 Alpha virt. eigenvalues --    2.41341   2.41784   2.41941   2.42151   2.42420
 Alpha virt. eigenvalues --    2.42835   2.43345   2.43681   2.44455   2.44664
 Alpha virt. eigenvalues --    2.44903   2.45371   2.45558   2.46191   2.46284
 Alpha virt. eigenvalues --    2.46572   2.46791   2.47077   2.47764   2.47962
 Alpha virt. eigenvalues --    2.48313   2.48786   2.49088   2.49797   2.50164
 Alpha virt. eigenvalues --    2.50428   2.50900   2.51036   2.51311   2.51761
 Alpha virt. eigenvalues --    2.52151   2.52485   2.52679   2.53277   2.53632
 Alpha virt. eigenvalues --    2.53799   2.53959   2.54557   2.55001   2.55168
 Alpha virt. eigenvalues --    2.56083   2.56195   2.56600   2.56725   2.57099
 Alpha virt. eigenvalues --    2.57226   2.57598   2.57769   2.58066   2.58362
 Alpha virt. eigenvalues --    2.58445   2.58907   2.59013   2.59806   2.60249
 Alpha virt. eigenvalues --    2.60395   2.60650   2.60881   2.61138   2.61403
 Alpha virt. eigenvalues --    2.61765   2.61806   2.62261   2.62421   2.62859
 Alpha virt. eigenvalues --    2.63112   2.63509   2.63686   2.64284   2.64524
 Alpha virt. eigenvalues --    2.64782   2.65033   2.65347   2.65676   2.65858
 Alpha virt. eigenvalues --    2.66120   2.66195   2.66962   2.67068   2.67428
 Alpha virt. eigenvalues --    2.67673   2.67942   2.68060   2.68408   2.68668
 Alpha virt. eigenvalues --    2.68850   2.69090   2.70038   2.70361   2.70450
 Alpha virt. eigenvalues --    2.70594   2.71149   2.71343   2.71661   2.71864
 Alpha virt. eigenvalues --    2.72018   2.72223   2.72461   2.72787   2.73143
 Alpha virt. eigenvalues --    2.73355   2.73862   2.74027   2.74103   2.74446
 Alpha virt. eigenvalues --    2.74943   2.75328   2.75436   2.75642   2.75924
 Alpha virt. eigenvalues --    2.76496   2.76637   2.77132   2.77543   2.77838
 Alpha virt. eigenvalues --    2.77876   2.78088   2.78356   2.78664   2.79224
 Alpha virt. eigenvalues --    2.79614   2.79672   2.80117   2.80329   2.80614
 Alpha virt. eigenvalues --    2.80937   2.81538   2.81918   2.81975   2.82096
 Alpha virt. eigenvalues --    2.82764   2.82930   2.83076   2.83783   2.84022
 Alpha virt. eigenvalues --    2.84695   2.85082   2.85217   2.85408   2.85478
 Alpha virt. eigenvalues --    2.85822   2.86049   2.86207   2.86577   2.87022
 Alpha virt. eigenvalues --    2.87496   2.88397   2.88699   2.88951   2.89043
 Alpha virt. eigenvalues --    2.89187   2.89745   2.90201   2.90361   2.90816
 Alpha virt. eigenvalues --    2.91337   2.91496   2.91761   2.92107   2.92695
 Alpha virt. eigenvalues --    2.92940   2.93453   2.93649   2.94373   2.94606
 Alpha virt. eigenvalues --    2.94840   2.95308   2.95964   2.96099   2.96249
 Alpha virt. eigenvalues --    2.96607   2.96904   2.97161   2.97260   2.97518
 Alpha virt. eigenvalues --    2.97972   2.98165   2.98720   2.99122   2.99198
 Alpha virt. eigenvalues --    2.99461   2.99934   3.00036   3.00355   3.00615
 Alpha virt. eigenvalues --    3.00782   3.01191   3.01402   3.01903   3.01993
 Alpha virt. eigenvalues --    3.02286   3.02803   3.03163   3.03316   3.03718
 Alpha virt. eigenvalues --    3.03941   3.04282   3.04531   3.04788   3.05093
 Alpha virt. eigenvalues --    3.05345   3.05575   3.06085   3.06728   3.06835
 Alpha virt. eigenvalues --    3.06893   3.07195   3.07498   3.07937   3.08685
 Alpha virt. eigenvalues --    3.08777   3.09286   3.09406   3.09767   3.10152
 Alpha virt. eigenvalues --    3.10272   3.10381   3.10802   3.10928   3.11181
 Alpha virt. eigenvalues --    3.11265   3.11633   3.11918   3.12038   3.12533
 Alpha virt. eigenvalues --    3.12962   3.13066   3.13247   3.13586   3.13784
 Alpha virt. eigenvalues --    3.14174   3.14383   3.14597   3.14899   3.15129
 Alpha virt. eigenvalues --    3.15328   3.15655   3.16029   3.16313   3.16414
 Alpha virt. eigenvalues --    3.16547   3.16622   3.16798   3.17574   3.17620
 Alpha virt. eigenvalues --    3.17647   3.17995   3.18220   3.18623   3.18873
 Alpha virt. eigenvalues --    3.19070   3.19178   3.19622   3.19969   3.20191
 Alpha virt. eigenvalues --    3.20604   3.20637   3.21037   3.21147   3.21241
 Alpha virt. eigenvalues --    3.21869   3.22280   3.22502   3.22710   3.22964
 Alpha virt. eigenvalues --    3.23351   3.23612   3.23972   3.24094   3.24394
 Alpha virt. eigenvalues --    3.24806   3.25195   3.25297   3.25731   3.26097
 Alpha virt. eigenvalues --    3.26139   3.26665   3.26848   3.27268   3.27542
 Alpha virt. eigenvalues --    3.27586   3.28030   3.28163   3.28339   3.28470
 Alpha virt. eigenvalues --    3.28934   3.29216   3.29454   3.29712   3.29808
 Alpha virt. eigenvalues --    3.30067   3.30430   3.30717   3.30992   3.31262
 Alpha virt. eigenvalues --    3.31595   3.31879   3.32264   3.32323   3.32639
 Alpha virt. eigenvalues --    3.32943   3.33218   3.33414   3.33736   3.34016
 Alpha virt. eigenvalues --    3.34213   3.34533   3.34572   3.34804   3.35156
 Alpha virt. eigenvalues --    3.35238   3.35531   3.35746   3.36254   3.36288
 Alpha virt. eigenvalues --    3.36606   3.37029   3.37129   3.37251   3.37560
 Alpha virt. eigenvalues --    3.37727   3.38027   3.38221   3.38478   3.38602
 Alpha virt. eigenvalues --    3.38837   3.39064   3.39235   3.39319   3.39726
 Alpha virt. eigenvalues --    3.40000   3.40551   3.40761   3.41066   3.41200
 Alpha virt. eigenvalues --    3.41343   3.41701   3.42082   3.42297   3.42444
 Alpha virt. eigenvalues --    3.42707   3.42745   3.43038   3.43409   3.43650
 Alpha virt. eigenvalues --    3.43947   3.44239   3.44527   3.44932   3.45066
 Alpha virt. eigenvalues --    3.45185   3.45362   3.45498   3.45885   3.46226
 Alpha virt. eigenvalues --    3.46469   3.46731   3.46925   3.47191   3.47603
 Alpha virt. eigenvalues --    3.47889   3.48297   3.48410   3.48654   3.49368
 Alpha virt. eigenvalues --    3.49559   3.49670   3.49822   3.50191   3.50404
 Alpha virt. eigenvalues --    3.50801   3.51198   3.51335   3.51622   3.51693
 Alpha virt. eigenvalues --    3.52106   3.52211   3.52695   3.52991   3.53624
 Alpha virt. eigenvalues --    3.54097   3.54295   3.54876   3.55425   3.55610
 Alpha virt. eigenvalues --    3.55633   3.56061   3.56256   3.56623   3.57129
 Alpha virt. eigenvalues --    3.57301   3.57427   3.57838   3.58271   3.58421
 Alpha virt. eigenvalues --    3.58711   3.59345   3.59977   3.60262   3.60590
 Alpha virt. eigenvalues --    3.60711   3.60872   3.61343   3.61985   3.62070
 Alpha virt. eigenvalues --    3.62325   3.62601   3.63098   3.63538   3.63766
 Alpha virt. eigenvalues --    3.64056   3.64155   3.64689   3.64910   3.65173
 Alpha virt. eigenvalues --    3.66095   3.66305   3.66644   3.66940   3.67129
 Alpha virt. eigenvalues --    3.67613   3.67950   3.67983   3.68207   3.68490
 Alpha virt. eigenvalues --    3.68870   3.69076   3.69325   3.69740   3.70381
 Alpha virt. eigenvalues --    3.70776   3.71223   3.71502   3.71853   3.71969
 Alpha virt. eigenvalues --    3.72083   3.72922   3.73037   3.73354   3.73741
 Alpha virt. eigenvalues --    3.74308   3.74736   3.75006   3.75196   3.75630
 Alpha virt. eigenvalues --    3.76013   3.76645   3.76805   3.77315   3.77991
 Alpha virt. eigenvalues --    3.78239   3.78883   3.79531   3.79961   3.80385
 Alpha virt. eigenvalues --    3.80566   3.81313   3.81882   3.82216   3.82399
 Alpha virt. eigenvalues --    3.82783   3.82973   3.83551   3.83715   3.84137
 Alpha virt. eigenvalues --    3.84836   3.85141   3.85833   3.86140   3.86406
 Alpha virt. eigenvalues --    3.86907   3.87081   3.87230   3.88003   3.88398
 Alpha virt. eigenvalues --    3.88906   3.88946   3.89522   3.89956   3.90122
 Alpha virt. eigenvalues --    3.90444   3.90886   3.91397   3.91659   3.92412
 Alpha virt. eigenvalues --    3.92638   3.92974   3.93177   3.93795   3.94015
 Alpha virt. eigenvalues --    3.94396   3.94847   3.95035   3.95461   3.95994
 Alpha virt. eigenvalues --    3.97507   3.97773   3.98171   3.98493   3.99307
 Alpha virt. eigenvalues --    3.99553   3.99767   3.99820   4.00393   4.00784
 Alpha virt. eigenvalues --    4.01293   4.01568   4.02432   4.03129   4.03528
 Alpha virt. eigenvalues --    4.03849   4.05298   4.05498   4.05742   4.06505
 Alpha virt. eigenvalues --    4.07025   4.07495   4.07896   4.08446   4.09233
 Alpha virt. eigenvalues --    4.10368   4.11206   4.11582   4.12114   4.12330
 Alpha virt. eigenvalues --    4.12669   4.12916   4.14047   4.14567   4.14904
 Alpha virt. eigenvalues --    4.15313   4.15939   4.16202   4.16664   4.17332
 Alpha virt. eigenvalues --    4.17740   4.17958   4.18633   4.18966   4.19129
 Alpha virt. eigenvalues --    4.19605   4.19795   4.20357   4.20608   4.20960
 Alpha virt. eigenvalues --    4.21242   4.21629   4.22007   4.22579   4.22648
 Alpha virt. eigenvalues --    4.23237   4.23847   4.24214   4.24377   4.25083
 Alpha virt. eigenvalues --    4.25941   4.26321   4.26619   4.27050   4.27410
 Alpha virt. eigenvalues --    4.27627   4.28368   4.29207   4.29396   4.29727
 Alpha virt. eigenvalues --    4.30324   4.30450   4.30875   4.31508   4.32236
 Alpha virt. eigenvalues --    4.32538   4.33059   4.33244   4.33856   4.34208
 Alpha virt. eigenvalues --    4.34830   4.35444   4.35837   4.36341   4.37248
 Alpha virt. eigenvalues --    4.38103   4.38706   4.38843   4.39175   4.39619
 Alpha virt. eigenvalues --    4.40152   4.40423   4.40780   4.40825   4.41923
 Alpha virt. eigenvalues --    4.42676   4.43161   4.43597   4.43670   4.44441
 Alpha virt. eigenvalues --    4.44903   4.45722   4.45801   4.46383   4.46894
 Alpha virt. eigenvalues --    4.47463   4.48483   4.48602   4.49166   4.50379
 Alpha virt. eigenvalues --    4.50524   4.51307   4.51823   4.52328   4.52955
 Alpha virt. eigenvalues --    4.53388   4.54220   4.54420   4.55029   4.55702
 Alpha virt. eigenvalues --    4.56388   4.56759   4.57062   4.57623   4.58279
 Alpha virt. eigenvalues --    4.59155   4.59497   4.60571   4.60926   4.61556
 Alpha virt. eigenvalues --    4.62246   4.63089   4.63612   4.63994   4.64701
 Alpha virt. eigenvalues --    4.65546   4.66956   4.67203   4.68208   4.68404
 Alpha virt. eigenvalues --    4.68739   4.69338   4.70090   4.70675   4.71646
 Alpha virt. eigenvalues --    4.72584   4.73092   4.73898   4.74225   4.74978
 Alpha virt. eigenvalues --    4.75795   4.76071   4.77121   4.77389   4.77869
 Alpha virt. eigenvalues --    4.78046   4.78398   4.79042   4.79724   4.80424
 Alpha virt. eigenvalues --    4.80990   4.81771   4.82206   4.82365   4.83020
 Alpha virt. eigenvalues --    4.83285   4.84014   4.84788   4.85322   4.86470
 Alpha virt. eigenvalues --    4.86765   4.87475   4.88402   4.88702   4.89597
 Alpha virt. eigenvalues --    4.90049   4.91017   4.91853   4.92668   4.92740
 Alpha virt. eigenvalues --    4.93404   4.94067   4.94621   4.95123   4.95626
 Alpha virt. eigenvalues --    4.96783   4.97481   4.98567   4.98765   4.99245
 Alpha virt. eigenvalues --    5.00252   5.00573   5.01419   5.01663   5.02215
 Alpha virt. eigenvalues --    5.02727   5.04003   5.05068   5.06168   5.06836
 Alpha virt. eigenvalues --    5.07222   5.08343   5.10788   5.11268   5.11819
 Alpha virt. eigenvalues --    5.13402   5.14068   5.15084   5.15683   5.17935
 Alpha virt. eigenvalues --    5.18172   5.18667   5.19116   5.19904   5.20727
 Alpha virt. eigenvalues --    5.21560   5.22387   5.23252   5.23802   5.23914
 Alpha virt. eigenvalues --    5.24208   5.24397   5.25226   5.26664   5.27522
 Alpha virt. eigenvalues --    5.28071   5.28761   5.29004   5.30528   5.30985
 Alpha virt. eigenvalues --    5.32370   5.33676   5.34397   5.35885   5.36703
 Alpha virt. eigenvalues --    5.37673   5.38520   5.40931   5.41777   5.42517
 Alpha virt. eigenvalues --    5.43024   5.44023   5.44318   5.45629   5.46226
 Alpha virt. eigenvalues --    5.47484   5.47781   5.49329   5.50870   5.52001
 Alpha virt. eigenvalues --    5.52429   5.52920   5.53665   5.54059   5.55655
 Alpha virt. eigenvalues --    5.56869   5.58586   5.59501   5.60306   5.60509
 Alpha virt. eigenvalues --    5.60870   5.63504   5.64829   5.65377   5.65473
 Alpha virt. eigenvalues --    5.68169   5.70209   5.71506   5.73691   5.76162
 Alpha virt. eigenvalues --    5.77386   5.78402   5.79013   5.80049   5.83426
 Alpha virt. eigenvalues --    5.83739   5.89740   5.91896   5.92592   5.92658
 Alpha virt. eigenvalues --    5.93816   5.95486   5.96889   6.00744   6.01562
 Alpha virt. eigenvalues --    6.03745   6.05759   6.07169   6.07636   6.08299
 Alpha virt. eigenvalues --    6.10920   6.12331   6.15410   6.16617   6.16734
 Alpha virt. eigenvalues --    6.17546   6.20022   6.24665   6.26738   6.29226
 Alpha virt. eigenvalues --    6.29909   6.31361   6.32666   6.34307   6.35332
 Alpha virt. eigenvalues --    6.43854   6.44457   6.47182   6.47974   6.53355
 Alpha virt. eigenvalues --    6.54946   6.65312   6.65881   6.75492   6.75827
 Alpha virt. eigenvalues --    6.83172   6.83739   6.93405   6.94060   7.01707
 Alpha virt. eigenvalues --    7.03497   7.13243   7.13888   7.16015   7.16214
 Alpha virt. eigenvalues --    7.29943   7.32500   9.21957   9.53741   9.68045
 Alpha virt. eigenvalues --   20.25420  22.39625  22.42587  22.51711  22.52641
 Alpha virt. eigenvalues --   22.53417  22.53483  22.54378  22.58453  22.61117
 Alpha virt. eigenvalues --   22.62434  22.63182  22.63667  22.64837  22.72903
 Alpha virt. eigenvalues --   22.80991  22.83720  22.85963  22.86883  22.89492
 Alpha virt. eigenvalues --   22.95387  22.96158  22.99655  23.04982  23.06657
 Alpha virt. eigenvalues --   23.09091  23.11254  23.14671  23.16750  23.22922
 Alpha virt. eigenvalues --   23.27734  23.30251  23.33280  23.35920  23.47024
 Alpha virt. eigenvalues --   23.49479  23.56117  23.58276  23.63935  23.68093
 Alpha virt. eigenvalues --   23.74974  23.81514  32.48699  32.83796  32.96421
 Alpha virt. eigenvalues --   33.02931  33.05836  33.16281  43.92960  43.95877
 Alpha virt. eigenvalues --   43.97169  43.98908
          Condensed to atoms (all electrons):
 Mulliken charges:
               1
     1  C   -0.362099
     2  C    0.123157
     3  N   -0.214469
     4  C   -0.176207
     5  C    0.017925
     6  N    0.030140
     7  C   -0.320244
     8  C   -0.112636
     9  S   -0.021942
    10  C   -0.630507
    11  Fe  -0.434042
    12  C   -0.549738
    13  C   -0.480803
    14  C   -0.480089
    15  C   -0.506138
    16  N    0.069808
    17  C    0.268544
    18  C   -0.020802
    19  C   -0.243531
    20  C    0.277635
    21  C   -0.593104
    22  C   -0.320018
    23  C   -0.125192
    24  C    0.255389
    25  O   -0.379338
    26  O   -0.331628
    27  N   -0.011360
    28  C    0.148954
    29  C   -0.038940
    30  C    0.096265
    31  C    0.143732
    32  C   -0.409012
    33  C   -0.275658
    34  C   -0.318809
    35  N    0.019010
    36  C    0.204129
    37  C   -0.076808
    38  C   -0.015824
    39  C    0.269953
    40  C   -0.373101
    41  C   -0.261130
    42  C   -0.317903
    43  N   -0.007406
    44  C    0.224901
    45  C   -0.038924
    46  C    0.044939
    47  C    0.232968
    48  C   -0.396935
    49  C   -0.386241
    50  C   -0.052533
    51  C    0.257713
    52  O   -0.343702
    53  O   -0.364417
    54  H    0.148180
    55  H    0.148218
    56  H    0.116099
    57  H    0.147231
    58  H    0.168095
    59  H    0.127531
    60  H    0.098479
    61  H    0.109985
    62  H    0.121463
    63  H    0.111951
    64  H    0.242791
    65  H    0.241966
    66  H    0.208860
    67  H    0.133664
    68  H    0.090860
    69  H    0.106704
    70  H    0.113740
    71  H    0.251500
    72  H    0.225399
    73  H    0.241675
    74  H    0.139129
    75  H    0.120651
    76  H    0.111970
    77  H    0.104506
    78  H    0.133928
    79  H    0.141235
    80  H    0.123613
    81  H    0.098895
    82  H    0.114383
    83  H    0.112917
    84  H    0.141274
    85  H    0.124036
    86  H    0.125526
    87  H    0.101963
    88  H    0.118545
    89  H    0.112162
    90  H    0.125747
    91  H    0.142000
    92  H    0.135959
    93  H    0.136159
    94  H    0.120213
    95  H    0.097641
    96  H    0.099356
    97  H    0.228800
    98  H    0.349457
    99  H    0.353845
   100  H    0.102069
   101  H    0.118178
   102  H    0.109781
   103  H    0.107738
 Sum of Mulliken charges =  -0.00000
 Mulliken charges with hydrogens summed into heavy atoms:
               1
     1  C    0.050399
     2  C    0.123157
     3  N    0.014331
     4  C   -0.028975
     5  C    0.186019
     6  N    0.030140
     7  C    0.015752
     8  C    0.120778
     9  S   -0.021942
    10  C    0.063110
    11  Fe  -0.434042
    12  C   -0.416074
    13  C   -0.389943
    14  C   -0.373385
    15  C   -0.392398
    16  N    0.069808
    17  C    0.268544
    18  C   -0.020802
    19  C   -0.243531
    20  C    0.277635
    21  C    0.125470
    22  C   -0.060238
    23  C    0.091284
    24  C    0.255389
    25  O   -0.379338
    26  O    0.017830
    27  N   -0.011360
    28  C    0.148954
    29  C   -0.038940
    30  C    0.096265
    31  C    0.143732
    32  C   -0.010236
    33  C   -0.066982
    34  C    0.016230
    35  N    0.019010
    36  C    0.204129
    37  C   -0.076808
    38  C   -0.015824
    39  C    0.269953
    40  C    0.017734
    41  C   -0.040989
    42  C    0.014872
    43  N   -0.007406
    44  C    0.224901
    45  C   -0.038924
    46  C    0.044939
    47  C    0.232968
    48  C    0.006771
    49  C   -0.129868
    50  C    0.144464
    51  C    0.257713
    52  O    0.010143
    53  O   -0.364417
 Electronic spatial extent (au):  <R**2>=          34224.0028
 Charge=             -0.0000 electrons
 Dipole moment (field-independent basis, Debye):
    X=              6.0101    Y=             -2.7643    Z=              6.3090  Tot=              9.1415
 Quadrupole moment (field-independent basis, Debye-Ang):
   XX=           -341.7303   YY=           -312.9286   ZZ=           -303.4686
   XY=             15.8210   XZ=             -1.8665   YZ=            -19.2466
 Traceless Quadrupole moment (field-independent basis, Debye-Ang):
   XX=            -22.3544   YY=              6.4472   ZZ=             15.9072
   XY=             15.8210   XZ=             -1.8665   YZ=            -19.2466
 Octapole moment (field-independent basis, Debye-Ang**2):
  XXX=            310.1923  YYY=           -140.3652  ZZZ=            190.0937  XYY=             70.1204
  XXY=           -215.8246  XXZ=            -11.9835  XZZ=            -74.1441  YZZ=             26.3098
  YYZ=            106.5074  XYZ=             68.9009
 Hexadecapole moment (field-independent basis, Debye-Ang**3):
 XXXX=         -25661.9631 YYYY=         -14854.3310 ZZZZ=          -5848.6818 XXXY=           1751.7804
 XXXZ=             55.8671 YYYX=            797.8782 YYYZ=           -288.4610 ZZZX=            280.4965
 ZZZY=           -540.7015 XXYY=          -6675.4677 XXZZ=          -4518.1920 YYZZ=          -3615.6458
 XXYZ=           -383.3779 YYXZ=           -509.9708 ZZXY=            -91.0212
 N-N= 9.024471172310D+03 E-N=-2.717726357095D+04  KE= 3.869749185178D+03
 ******************************Gaussian NBO Version 3.1******************************
             N A T U R A L   A T O M I C   O R B I T A L   A N D
          N A T U R A L   B O N D   O R B I T A L   A N A L Y S I S
 ******************************Gaussian NBO Version 3.1******************************
       /RESON  / : Allow strongly delocalized NBO set

 Analyzing the SCF density

 Job title: 1f1f_II_S_nbo                                                   

 Storage needed:  11594000 in NPA,  15430019 in NBO (2147429161 available)
 GSVD:  LWork=     1784799 too small for GESVD, short by     2343206 words or     2343206 for optimal perf.


 NATURAL POPULATIONS:  Natural atomic orbital occupancies 
                                                          
   NAO  Atom  No  lang   Type(AO)    Occupancy      Energy
 ----------------------------------------------------------
     1    C    1  S      Cor( 1S)     1.99939     -10.07863
     2    C    1  S      Val( 2S)     1.09902      -0.30926
     3    C    1  S      Ryd( 3S)     0.00059       1.05513
     4    C    1  S      Ryd( 4S)     0.00014       1.91478
     5    C    1  S      Ryd( 5S)     0.00000      21.69823
     6    C    1  px     Val( 2p)     1.18525      -0.12267
     7    C    1  px     Ryd( 3p)     0.00071       0.77976
     8    C    1  px     Ryd( 4p)     0.00014       1.59182
     9    C    1  py     Val( 2p)     1.20775      -0.12457
    10    C    1  py     Ryd( 3p)     0.00039       0.72562
    11    C    1  py     Ryd( 4p)     0.00018       1.48060
    12    C    1  pz     Val( 2p)     1.14026      -0.11890
    13    C    1  pz     Ryd( 3p)     0.00050       0.78161
    14    C    1  pz     Ryd( 4p)     0.00020       1.51834
    15    C    1  dxy    Ryd( 4d)     0.00069       3.09930
    16    C    1  dxy    Ryd( 3d)     0.00005       2.37532
    17    C    1  dxz    Ryd( 4d)     0.00080       3.39357
    18    C    1  dxz    Ryd( 3d)     0.00005       2.42952
    19    C    1  dyz    Ryd( 4d)     0.00051       2.93833
    20    C    1  dyz    Ryd( 3d)     0.00013       2.39294
    21    C    1  dx2y2  Ryd( 4d)     0.00041       2.79508
    22    C    1  dx2y2  Ryd( 3d)     0.00012       2.56317
    23    C    1  dz2    Ryd( 4d)     0.00033       3.00629
    24    C    1  dz2    Ryd( 3d)     0.00008       2.46351
    25    C    1  f(0)   Ryd( 4f)     0.00003       3.41727
    26    C    1  f(C1)  Ryd( 4f)     0.00010       3.66116
    27    C    1  f(S1)  Ryd( 4f)     0.00002       3.40623
    28    C    1  f(C2)  Ryd( 4f)     0.00003       3.42250
    29    C    1  f(S2)  Ryd( 4f)     0.00010       3.54053
    30    C    1  f(C3)  Ryd( 4f)     0.00004       3.49472
    31    C    1  f(S3)  Ryd( 4f)     0.00004       3.40494

    32    C    2  S      Cor( 1S)     1.99908     -10.11594
    33    C    2  S      Val( 2S)     0.89297      -0.20428
    34    C    2  S      Ryd( 3S)     0.00111       1.59958
    35    C    2  S      Ryd( 4S)     0.00004       1.79355
    36    C    2  S      Ryd( 5S)     0.00001      21.29529
    37    C    2  px     Val( 2p)     0.86928      -0.05022
    38    C    2  px     Ryd( 3p)     0.00288       1.27113
    39    C    2  px     Ryd( 4p)     0.00017       1.78300
    40    C    2  py     Val( 2p)     1.05642      -0.11441
    41    C    2  py     Ryd( 3p)     0.00305       0.91414
    42    C    2  py     Ryd( 4p)     0.00047       1.41106
    43    C    2  pz     Val( 2p)     1.06718      -0.08017
    44    C    2  pz     Ryd( 3p)     0.00364       1.33570
    45    C    2  pz     Ryd( 4p)     0.00038       2.07352
    46    C    2  dxy    Ryd( 3d)     0.00058       1.30207
    47    C    2  dxy    Ryd( 4d)     0.00036       3.51718
    48    C    2  dxz    Ryd( 3d)     0.00090       1.77578
    49    C    2  dxz    Ryd( 4d)     0.00068       3.74185
    50    C    2  dyz    Ryd( 3d)     0.00078       1.34356
    51    C    2  dyz    Ryd( 4d)     0.00046       3.46506
    52    C    2  dx2y2  Ryd( 3d)     0.00060       1.40469
    53    C    2  dx2y2  Ryd( 4d)     0.00040       3.74802
    54    C    2  dz2    Ryd( 3d)     0.00112       1.54059
    55    C    2  dz2    Ryd( 4d)     0.00071       3.69835
    56    C    2  f(0)   Ryd( 4f)     0.00014       4.13670
    57    C    2  f(C1)  Ryd( 4f)     0.00015       3.99500
    58    C    2  f(S1)  Ryd( 4f)     0.00021       3.77335
    59    C    2  f(C2)  Ryd( 4f)     0.00010       3.71695
    60    C    2  f(S2)  Ryd( 4f)     0.00009       3.65296
    61    C    2  f(C3)  Ryd( 4f)     0.00007       3.59409
    62    C    2  f(S3)  Ryd( 4f)     0.00009       3.65680

    63    N    3  S      Cor( 1S)     1.99936     -14.24839
    64    N    3  S      Val( 2S)     1.23570      -0.58625
    65    N    3  S      Ryd( 3S)     0.00080       1.87039
    66    N    3  S      Ryd( 4S)     0.00007       2.35382
    67    N    3  S      Ryd( 5S)     0.00000      30.72381
    68    N    3  px     Val( 2p)     1.32300      -0.26709
    69    N    3  px     Ryd( 3p)     0.00191       1.03827
    70    N    3  px     Ryd( 4p)     0.00021       2.75340
    71    N    3  py     Val( 2p)     1.52610      -0.28647
    72    N    3  py     Ryd( 3p)     0.00226       0.64194
    73    N    3  py     Ryd( 4p)     0.00037       2.32221
    74    N    3  pz     Val( 2p)     1.37622      -0.28204
    75    N    3  pz     Ryd( 3p)     0.00212       1.19035
    76    N    3  pz     Ryd( 4p)     0.00042       2.95027
    77    N    3  dxy    Ryd( 3d)     0.00144       1.51272
    78    N    3  dxy    Ryd( 4d)     0.00007       4.65383
    79    N    3  dxz    Ryd( 3d)     0.00225       1.75277
    80    N    3  dxz    Ryd( 4d)     0.00022       4.93633
    81    N    3  dyz    Ryd( 3d)     0.00176       1.39185
    82    N    3  dyz    Ryd( 4d)     0.00006       4.58121
    83    N    3  dx2y2  Ryd( 3d)     0.00220       1.56818
    84    N    3  dx2y2  Ryd( 4d)     0.00006       4.72058
    85    N    3  dz2    Ryd( 3d)     0.00285       1.74786
    86    N    3  dz2    Ryd( 4d)     0.00011       4.92032
    87    N    3  f(0)   Ryd( 4f)     0.00016       4.77206
    88    N    3  f(C1)  Ryd( 4f)     0.00021       5.26572
    89    N    3  f(S1)  Ryd( 4f)     0.00022       4.56615
    90    N    3  f(C2)  Ryd( 4f)     0.00017       4.61247
    91    N    3  f(S2)  Ryd( 4f)     0.00009       4.53748
    92    N    3  f(C3)  Ryd( 4f)     0.00022       4.49019
    93    N    3  f(S3)  Ryd( 4f)     0.00016       4.51111

    94    C    4  S      Cor( 1S)     1.99885     -10.08328
    95    C    4  S      Val( 2S)     0.93566      -0.18664
    96    C    4  S      Ryd( 3S)     0.00152       0.97830
    97    C    4  S      Ryd( 4S)     0.00055       1.69610
    98    C    4  S      Ryd( 5S)     0.00001      21.81360
    99    C    4  px     Val( 2p)     1.06834      -0.05150
   100    C    4  px     Ryd( 3p)     0.00272       1.11819
   101    C    4  px     Ryd( 4p)     0.00074       1.56259
   102    C    4  py     Val( 2p)     1.02131      -0.10011
   103    C    4  py     Ryd( 3p)     0.00251       0.75121
   104    C    4  py     Ryd( 4p)     0.00058       1.42861
   105    C    4  pz     Val( 2p)     1.02009      -0.05693
   106    C    4  pz     Ryd( 3p)     0.00211       1.06192
   107    C    4  pz     Ryd( 4p)     0.00095       1.80816
   108    C    4  dxy    Ryd( 3d)     0.00063       1.46424
   109    C    4  dxy    Ryd( 4d)     0.00012       3.32930
   110    C    4  dxz    Ryd( 3d)     0.00102       1.93807
   111    C    4  dxz    Ryd( 4d)     0.00052       3.78170
   112    C    4  dyz    Ryd( 3d)     0.00067       1.43852
   113    C    4  dyz    Ryd( 4d)     0.00026       3.38258
   114    C    4  dx2y2  Ryd( 3d)     0.00078       1.62966
   115    C    4  dx2y2  Ryd( 4d)     0.00016       3.52337
   116    C    4  dz2    Ryd( 3d)     0.00186       1.68347
   117    C    4  dz2    Ryd( 4d)     0.00039       3.69198
   118    C    4  f(0)   Ryd( 4f)     0.00011       4.13555
   119    C    4  f(C1)  Ryd( 4f)     0.00004       4.05804
   120    C    4  f(S1)  Ryd( 4f)     0.00007       3.68548
   121    C    4  f(C2)  Ryd( 4f)     0.00010       3.83278
   122    C    4  f(S2)  Ryd( 4f)     0.00008       3.62902
   123    C    4  f(C3)  Ryd( 4f)     0.00007       3.65991
   124    C    4  f(S3)  Ryd( 4f)     0.00006       3.62935

   125    C    5  S      Cor( 1S)     1.99930     -10.14488
   126    C    5  S      Val( 2S)     0.89167      -0.18966
   127    C    5  S      Ryd( 3S)     0.00239       1.20402
   128    C    5  S      Ryd( 4S)     0.00057       1.38786
   129    C    5  S      Ryd( 5S)     0.00001      21.90639
   130    C    5  px     Val( 2p)     1.09708      -0.08107
   131    C    5  px     Ryd( 3p)     0.00319       1.18953
   132    C    5  px     Ryd( 4p)     0.00087       1.42724
   133    C    5  py     Val( 2p)     0.98772      -0.12149
   134    C    5  py     Ryd( 3p)     0.00340       0.82950
   135    C    5  py     Ryd( 4p)     0.00064       1.24286
   136    C    5  pz     Val( 2p)     0.81432      -0.04340
   137    C    5  pz     Ryd( 3p)     0.00470       1.08002
   138    C    5  pz     Ryd( 4p)     0.00066       1.48716
   139    C    5  dxy    Ryd( 4d)     0.00037       3.34047
   140    C    5  dxy    Ryd( 3d)     0.00012       2.54482
   141    C    5  dxz    Ryd( 4d)     0.00039       3.98270
   142    C    5  dxz    Ryd( 3d)     0.00035       2.57280
   143    C    5  dyz    Ryd( 4d)     0.00077       3.45996
   144    C    5  dyz    Ryd( 3d)     0.00014       2.46257
   145    C    5  dx2y2  Ryd( 4d)     0.00038       3.49004
   146    C    5  dx2y2  Ryd( 3d)     0.00010       2.57377
   147    C    5  dz2    Ryd( 4d)     0.00072       3.86759
   148    C    5  dz2    Ryd( 3d)     0.00006       2.73519
   149    C    5  f(0)   Ryd( 4f)     0.00004       3.98140
   150    C    5  f(C1)  Ryd( 4f)     0.00007       4.08411
   151    C    5  f(S1)  Ryd( 4f)     0.00005       3.54594
   152    C    5  f(C2)  Ryd( 4f)     0.00008       3.58908
   153    C    5  f(S2)  Ryd( 4f)     0.00005       3.57975
   154    C    5  f(C3)  Ryd( 4f)     0.00010       3.43593
   155    C    5  f(S3)  Ryd( 4f)     0.00011       3.66807

   156    N    6  S      Cor( 1S)     1.99935     -14.18706
   157    N    6  S      Val( 2S)     1.27389      -0.53433
   158    N    6  S      Ryd( 3S)     0.00510       1.59629
   159    N    6  S      Ryd( 4S)     0.00013       4.09581
   160    N    6  S      Ryd( 5S)     0.00000      31.88508
   161    N    6  px     Val( 2p)     1.20988      -0.18273
   162    N    6  px     Ryd( 3p)     0.01082       1.18775
   163    N    6  px     Ryd( 4p)     0.00017       3.63523
   164    N    6  py     Val( 2p)     1.32824      -0.20085
   165    N    6  py     Ryd( 3p)     0.01105       0.81816
   166    N    6  py     Ryd( 4p)     0.00017       2.77843
   167    N    6  pz     Val( 2p)     1.45387      -0.22556
   168    N    6  pz     Ryd( 3p)     0.01053       1.40771
   169    N    6  pz     Ryd( 4p)     0.00022       3.70906
   170    N    6  dxy    Ryd( 3d)     0.00167       1.52338
   171    N    6  dxy    Ryd( 4d)     0.00018       4.82960
   172    N    6  dxz    Ryd( 3d)     0.00498       1.94580
   173    N    6  dxz    Ryd( 4d)     0.00022       5.11717
   174    N    6  dyz    Ryd( 3d)     0.00351       1.53098
   175    N    6  dyz    Ryd( 4d)     0.00017       4.80539
   176    N    6  dx2y2  Ryd( 3d)     0.00191       1.57226
   177    N    6  dx2y2  Ryd( 4d)     0.00013       4.83193
   178    N    6  dz2    Ryd( 3d)     0.00204       1.63146
   179    N    6  dz2    Ryd( 4d)     0.00025       4.88704
   180    N    6  f(0)   Ryd( 4f)     0.00015       4.67151
   181    N    6  f(C1)  Ryd( 4f)     0.00006       5.04595
   182    N    6  f(S1)  Ryd( 4f)     0.00009       4.40576
   183    N    6  f(C2)  Ryd( 4f)     0.00015       4.77661
   184    N    6  f(S2)  Ryd( 4f)     0.00012       4.68315
   185    N    6  f(C3)  Ryd( 4f)     0.00018       4.57843
   186    N    6  f(S3)  Ryd( 4f)     0.00019       4.58727

   187    C    7  S      Cor( 1S)     1.99942     -10.04850
   188    C    7  S      Val( 2S)     1.09588      -0.28491
   189    C    7  S      Ryd( 4S)     0.00046       2.15160
   190    C    7  S      Ryd( 3S)     0.00046       1.38479
   191    C    7  S      Ryd( 5S)     0.00000      21.65373
   192    C    7  px     Val( 2p)     1.18568      -0.09614
   193    C    7  px     Ryd( 3p)     0.00099       0.99591
   194    C    7  px     Ryd( 4p)     0.00016       1.91458
   195    C    7  py     Val( 2p)     1.11011      -0.09274
   196    C    7  py     Ryd( 3p)     0.00084       0.71983
   197    C    7  py     Ryd( 4p)     0.00031       1.80571
   198    C    7  pz     Val( 2p)     1.21251      -0.09456
   199    C    7  pz     Ryd( 3p)     0.00098       0.90950
   200    C    7  pz     Ryd( 4p)     0.00050       1.55351
   201    C    7  dxy    Ryd( 3d)     0.00182       1.79632
   202    C    7  dxy    Ryd( 4d)     0.00013       3.03454
   203    C    7  dxz    Ryd( 3d)     0.00210       1.67036
   204    C    7  dxz    Ryd( 4d)     0.00007       3.00191
   205    C    7  dyz    Ryd( 3d)     0.00079       1.53663
   206    C    7  dyz    Ryd( 4d)     0.00006       2.87501
   207    C    7  dx2y2  Ryd( 3d)     0.00059       1.49969
   208    C    7  dx2y2  Ryd( 4d)     0.00013       2.85174
   209    C    7  dz2    Ryd( 3d)     0.00133       1.66268
   210    C    7  dz2    Ryd( 4d)     0.00010       2.94567
   211    C    7  f(0)   Ryd( 4f)     0.00003       3.53759
   212    C    7  f(C1)  Ryd( 4f)     0.00007       3.68872
   213    C    7  f(S1)  Ryd( 4f)     0.00003       3.62823
   214    C    7  f(C2)  Ryd( 4f)     0.00002       3.56076
   215    C    7  f(S2)  Ryd( 4f)     0.00004       3.50614
   216    C    7  f(C3)  Ryd( 4f)     0.00008       3.65691
   217    C    7  f(S3)  Ryd( 4f)     0.00004       3.55802

   218    C    8  S      Cor( 1S)     1.99934     -10.09951
   219    C    8  S      Val( 2S)     1.11997      -0.34017
   220    C    8  S      Ryd( 3S)     0.00270       1.48427
   221    C    8  S      Ryd( 4S)     0.00051       2.07557
   222    C    8  S      Ryd( 5S)     0.00000      21.21729
   223    C    8  px     Val( 2p)     1.13024      -0.12339
   224    C    8  px     Ryd( 3p)     0.00162       1.14154
   225    C    8  px     Ryd( 4p)     0.00029       1.56697
   226    C    8  py     Val( 2p)     1.11826      -0.11344
   227    C    8  py     Ryd( 3p)     0.00198       1.06548
   228    C    8  py     Ryd( 4p)     0.00031       1.57989
   229    C    8  pz     Val( 2p)     1.13042      -0.12881
   230    C    8  pz     Ryd( 3p)     0.00262       0.94265
   231    C    8  pz     Ryd( 4p)     0.00086       1.69455
   232    C    8  dxy    Ryd( 3d)     0.00201       1.47938
   233    C    8  dxy    Ryd( 4d)     0.00025       3.50389
   234    C    8  dxz    Ryd( 3d)     0.00322       1.36245
   235    C    8  dxz    Ryd( 4d)     0.00021       3.27700
   236    C    8  dyz    Ryd( 3d)     0.00280       1.34275
   237    C    8  dyz    Ryd( 4d)     0.00017       3.24077
   238    C    8  dx2y2  Ryd( 3d)     0.00117       1.18350
   239    C    8  dx2y2  Ryd( 4d)     0.00008       3.08136
[...]
 Alpha virt. eigenvalues --    3.09220   3.09703   3.09870   3.10302   3.10491
 Alpha virt. eigenvalues --    3.10663   3.10867   3.11242   3.11369   3.11599
 Alpha virt. eigenvalues --    3.11656   3.12137   3.12422   3.12553   3.13313
 Alpha virt. eigenvalues --    3.13406   3.13447   3.13776   3.14023   3.14189
 Alpha virt. eigenvalues --    3.14550   3.14832   3.15125   3.15270   3.15549
 Alpha virt. eigenvalues --    3.15676   3.16112   3.16448   3.16767   3.16924
 Alpha virt. eigenvalues --    3.16997   3.17091   3.17307   3.17830   3.17978
 Alpha virt. eigenvalues --    3.18276   3.18574   3.18834   3.19061   3.19323
 Alpha virt. eigenvalues --    3.19558   3.19646   3.19916   3.20476   3.20702
 Alpha virt. eigenvalues --    3.21040   3.21074   3.21387   3.21513   3.21750
 Alpha virt. eigenvalues --    3.22299   3.22648   3.22790   3.23094   3.23343
 Alpha virt. eigenvalues --    3.23765   3.23917   3.24395   3.24511   3.24769
 Alpha virt. eigenvalues --    3.25133   3.25594   3.25703   3.26019   3.26644
 Alpha virt. eigenvalues --    3.26665   3.27121   3.27422   3.27670   3.27730
 Alpha virt. eigenvalues --    3.27916   3.28422   3.28640   3.28762   3.28916
 Alpha virt. eigenvalues --    3.29375   3.29589   3.29666   3.29983   3.30129
 Alpha virt. eigenvalues --    3.30343   3.30732   3.31032   3.31317   3.31492
 Alpha virt. eigenvalues --    3.31887   3.32267   3.32589   3.32752   3.32994
 Alpha virt. eigenvalues --    3.33301   3.33507   3.33712   3.34096   3.34323
 Alpha virt. eigenvalues --    3.34643   3.34820   3.34948   3.35054   3.35551
 Alpha virt. eigenvalues --    3.35746   3.35971   3.36267   3.36623   3.36656
 Alpha virt. eigenvalues --    3.36997   3.37487   3.37579   3.37728   3.37901
 Alpha virt. eigenvalues --    3.38168   3.38436   3.38551   3.38866   3.39057
 Alpha virt. eigenvalues --    3.39364   3.39490   3.39611   3.39829   3.40217
 Alpha virt. eigenvalues --    3.40437   3.40839   3.41035   3.41416   3.41586
 Alpha virt. eigenvalues --    3.41704   3.42118   3.42453   3.42603   3.42837
 Alpha virt. eigenvalues --    3.43048   3.43152   3.43248   3.43875   3.44133
 Alpha virt. eigenvalues --    3.44402   3.44582   3.44837   3.45154   3.45394
 Alpha virt. eigenvalues --    3.45557   3.45742   3.45768   3.46198   3.46637
 Alpha virt. eigenvalues --    3.46803   3.47137   3.47315   3.47533   3.47978
 Alpha virt. eigenvalues --    3.48394   3.48713   3.48772   3.48952   3.49710
 Alpha virt. eigenvalues --    3.49923   3.50022   3.50235   3.50641   3.50796
 Alpha virt. eigenvalues --    3.51091   3.51480   3.51775   3.51878   3.52181
 Alpha virt. eigenvalues --    3.52394   3.52544   3.53014   3.53370   3.54052
 Alpha virt. eigenvalues --    3.54438   3.54609   3.55162   3.55743   3.55890
 Alpha virt. eigenvalues --    3.55982   3.56314   3.56578   3.56937   3.57533
 Alpha virt. eigenvalues --    3.57609   3.57863   3.58174   3.58560   3.58775
 Alpha virt. eigenvalues --    3.59089   3.59659   3.60302   3.60558   3.60901
 Alpha virt. eigenvalues --    3.61046   3.61282   3.61727   3.62290   3.62324
 Alpha virt. eigenvalues --    3.62634   3.63068   3.63472   3.63894   3.64064
 Alpha virt. eigenvalues --    3.64382   3.64863   3.65098   3.65327   3.65446
 Alpha virt. eigenvalues --    3.66380   3.66853   3.67009   3.67252   3.67429
 Alpha virt. eigenvalues --    3.67931   3.68384   3.68484   3.68574   3.68996
 Alpha virt. eigenvalues --    3.69173   3.69710   3.69802   3.70194   3.70649
 Alpha virt. eigenvalues --    3.71132   3.71570   3.71969   3.72209   3.72371
 Alpha virt. eigenvalues --    3.72488   3.73325   3.73401   3.73949   3.74214
 Alpha virt. eigenvalues --    3.74618   3.75168   3.75693   3.75715   3.76191
 Alpha virt. eigenvalues --    3.76565   3.76989   3.77409   3.77815   3.78616
 Alpha virt. eigenvalues --    3.78687   3.79307   3.79998   3.80358   3.80827
 Alpha virt. eigenvalues --    3.80997   3.81727   3.82290   3.82541   3.82690
 Alpha virt. eigenvalues --    3.83215   3.83345   3.83897   3.84078   3.84456
 Alpha virt. eigenvalues --    3.85280   3.85567   3.86142   3.86557   3.86836
 Alpha virt. eigenvalues --    3.87505   3.87635   3.87689   3.88305   3.88763
 Alpha virt. eigenvalues --    3.89283   3.89497   3.89937   3.90372   3.90718
 Alpha virt. eigenvalues --    3.90910   3.91392   3.91755   3.92094   3.92782
 Alpha virt. eigenvalues --    3.93067   3.93325   3.93690   3.94240   3.94611
 Alpha virt. eigenvalues --    3.95015   3.95410   3.95484   3.96026   3.96480
 Alpha virt. eigenvalues --    3.97891   3.98041   3.98635   3.99029   3.99547
 Alpha virt. eigenvalues --    3.99991   4.00152   4.00232   4.00871   4.01283
 Alpha virt. eigenvalues --    4.01675   4.01867   4.02751   4.03588   4.03961
 Alpha virt. eigenvalues --    4.04265   4.05667   4.05848   4.06074   4.06753
 Alpha virt. eigenvalues --    4.07327   4.07862   4.08267   4.08816   4.09684
 Alpha virt. eigenvalues --    4.10666   4.11485   4.11914   4.12468   4.12610
 Alpha virt. eigenvalues --    4.13003   4.13174   4.14324   4.14874   4.15264
 Alpha virt. eigenvalues --    4.15570   4.16195   4.16477   4.16937   4.17578
 Alpha virt. eigenvalues --    4.17930   4.18253   4.18909   4.19251   4.19463
 Alpha virt. eigenvalues --    4.19895   4.20131   4.20650   4.20771   4.21119
 Alpha virt. eigenvalues --    4.21570   4.21941   4.22390   4.22850   4.22927
 Alpha virt. eigenvalues --    4.23512   4.24407   4.24496   4.24990   4.25348
 Alpha virt. eigenvalues --    4.26237   4.26565   4.26994   4.27426   4.27697
 Alpha virt. eigenvalues --    4.27998   4.28715   4.29564   4.29715   4.30326
 Alpha virt. eigenvalues --    4.30604   4.30772   4.31528   4.31866   4.32589
 Alpha virt. eigenvalues --    4.32894   4.33401   4.33560   4.34241   4.34678
 Alpha virt. eigenvalues --    4.35243   4.35793   4.36289   4.36701   4.37564
 Alpha virt. eigenvalues --    4.38714   4.38961   4.39222   4.39537   4.39983
 Alpha virt. eigenvalues --    4.40391   4.40738   4.41214   4.41702   4.42457
 Alpha virt. eigenvalues --    4.43255   4.43654   4.44008   4.44141   4.44817
 Alpha virt. eigenvalues --    4.45325   4.46061   4.46454   4.47100   4.47276
 Alpha virt. eigenvalues --    4.48253   4.48732   4.48928   4.49393   4.50651
 Alpha virt. eigenvalues --    4.51147   4.51579   4.52111   4.52549   4.53353
 Alpha virt. eigenvalues --    4.53761   4.54607   4.54699   4.55468   4.56008
 Alpha virt. eigenvalues --    4.56793   4.57184   4.57435   4.58035   4.58611
 Alpha virt. eigenvalues --    4.59552   4.59963   4.60914   4.61366   4.61866
 Alpha virt. eigenvalues --    4.62603   4.63429   4.64041   4.64418   4.65112
 Alpha virt. eigenvalues --    4.65879   4.67251   4.67694   4.68537   4.69005
 Alpha virt. eigenvalues --    4.69627   4.69801   4.70563   4.71099   4.72244
 Alpha virt. eigenvalues --    4.73480   4.73490   4.74290   4.74515   4.75432
 Alpha virt. eigenvalues --    4.76297   4.76741   4.77459   4.78102   4.78364
 Alpha virt. eigenvalues --    4.78581   4.79097   4.79802   4.80269   4.80843
 Alpha virt. eigenvalues --    4.81397   4.82124   4.82777   4.82944   4.83539
 Alpha virt. eigenvalues --    4.83886   4.84803   4.85276   4.85885   4.86887
 Alpha virt. eigenvalues --    4.87252   4.87921   4.88711   4.89110   4.89872
 Alpha virt. eigenvalues --    4.90667   4.91404   4.92178   4.92940   4.93230
 Alpha virt. eigenvalues --    4.93614   4.94358   4.94849   4.95386   4.95999
 Alpha virt. eigenvalues --    4.97051   4.97869   4.98807   4.99101   4.99714
 Alpha virt. eigenvalues --    5.00524   5.01032   5.01662   5.02073   5.02623
 Alpha virt. eigenvalues --    5.03024   5.04739   5.05886   5.06449   5.07398
 Alpha virt. eigenvalues --    5.07604   5.08642   5.11329   5.11720   5.12387
 Alpha virt. eigenvalues --    5.13836   5.14585   5.15355   5.16055   5.17470
 Alpha virt. eigenvalues --    5.18327   5.18555   5.19267   5.20005   5.20703
 Alpha virt. eigenvalues --    5.21085   5.22756   5.23616   5.23956   5.24001
 Alpha virt. eigenvalues --    5.24277   5.25028   5.25773   5.27104   5.27528
 Alpha virt. eigenvalues --    5.28230   5.28855   5.29153   5.30637   5.31198
 Alpha virt. eigenvalues --    5.32568   5.34124   5.34551   5.36147   5.36962
 Alpha virt. eigenvalues --    5.37817   5.38801   5.41461   5.42078   5.43015
 Alpha virt. eigenvalues --    5.43282   5.44322   5.44856   5.46114   5.46933
 Alpha virt. eigenvalues --    5.47715   5.48173   5.49523   5.51080   5.51508
 Alpha virt. eigenvalues --    5.52544   5.53367   5.54117   5.54573   5.55862
 Alpha virt. eigenvalues --    5.57133   5.58856   5.59221   5.60361   5.60644
 Alpha virt. eigenvalues --    5.61977   5.63771   5.64985   5.65299   5.65545
 Alpha virt. eigenvalues --    5.68600   5.70847   5.71966   5.74397   5.76509
 Alpha virt. eigenvalues --    5.77495   5.78412   5.79200   5.80198   5.83763
 Alpha virt. eigenvalues --    5.84075   5.89575   5.92099   5.92633   5.92760
 Alpha virt. eigenvalues --    5.94053   5.95624   5.97063   6.01332   6.01764
 Alpha virt. eigenvalues --    6.03929   6.06112   6.07030   6.07721   6.09054
 Alpha virt. eigenvalues --    6.11014   6.12849   6.15476   6.16477   6.16675
 Alpha virt. eigenvalues --    6.17644   6.20956   6.24866   6.26983   6.29425
 Alpha virt. eigenvalues --    6.30104   6.31293   6.32339   6.33998   6.35360
 Alpha virt. eigenvalues --    6.43697   6.44502   6.46918   6.48111   6.53206
 Alpha virt. eigenvalues --    6.54666   6.65641   6.66000   6.75734   6.75779
 Alpha virt. eigenvalues --    6.82435   6.83345   6.93528   6.93958   7.01569
 Alpha virt. eigenvalues --    7.03087   7.13064   7.13618   7.15801   7.15916
 Alpha virt. eigenvalues --    7.29986   7.32866   9.21704   9.53495   9.67812
 Alpha virt. eigenvalues --   20.25177  22.39189  22.42762  22.51772  22.53598
 Alpha virt. eigenvalues --   22.54343  22.55146  22.55366  22.58831  22.61540
 Alpha virt. eigenvalues --   22.63239  22.63984  22.64175  22.65254  22.73441
 Alpha virt. eigenvalues --   22.81345  22.84360  22.86256  22.87159  22.89860
 Alpha virt. eigenvalues --   22.95724  22.96435  22.99914  23.05471  23.07176
 Alpha virt. eigenvalues --   23.09496  23.11530  23.15268  23.17565  23.23241
 Alpha virt. eigenvalues --   23.27823  23.30686  23.34188  23.36073  23.47212
 Alpha virt. eigenvalues --   23.49533  23.55984  23.58177  23.64020  23.68259
 Alpha virt. eigenvalues --   23.75281  23.81696  32.50329  32.84430  32.96461
 Alpha virt. eigenvalues --   33.03065  33.05959  33.16434  43.93501  43.95303
 Alpha virt. eigenvalues --   43.96801  43.99157
          Condensed to atoms (all electrons):
 Mulliken charges:
               1
     1  C   -0.392869
     2  C    0.115881
     3  N   -0.204511
     4  C   -0.218175
     5  C   -0.005587
     6  N    0.013186
     7  C   -0.341193
     8  C   -0.137384
     9  S   -0.013779
    10  C   -0.770121
    11  Fe  -0.419228
    12  C   -0.553865
    13  C   -0.496885
    14  C   -0.501688
    15  C   -0.520532
    16  N    0.060837
    17  C    0.234821
    18  C   -0.073189
    19  C   -0.124466
    20  C    0.224076
    21  C   -0.777967
    22  C   -0.291875
    23  C   -0.149272
    24  C    0.275558
    25  O   -0.432166
    26  O   -0.341158
    27  N   -0.017891
    28  C    0.147217
    29  C   -0.057384
    30  C    0.069833
    31  C    0.146799
    32  C   -0.439286
    33  C   -0.255416
    34  C   -0.369925
    35  N    0.018497
    36  C    0.169082
    37  C   -0.085884
    38  C   -0.039275
    39  C    0.238921
    40  C   -0.403902
    41  C   -0.231751
    42  C   -0.369209
    43  N    0.002142
    44  C    0.204217
    45  C   -0.055962
    46  C    0.029026
    47  C    0.235495
    48  C   -0.424312
    49  C   -0.360136
    50  C   -0.092238
    51  C    0.282553
    52  O   -0.360205
    53  O   -0.418053
    54  H    0.157019
    55  H    0.156205
    56  H    0.142866
    57  H    0.164869
    58  H    0.189528
    59  H    0.144952
    60  H    0.094133
    61  H    0.122936
    62  H    0.143821
    63  H    0.123915
    64  H    0.282976
    65  H    0.270462
    66  H    0.246029
    67  H    0.163049
    68  H    0.140337
    69  H    0.145722
    70  H    0.148769
    71  H    0.284926
    72  H    0.263779
    73  H    0.279807
    74  H    0.142446
    75  H    0.124096
    76  H    0.127803
    77  H    0.123467
    78  H    0.150710
    79  H    0.155141
    80  H    0.141597
    81  H    0.112426
    82  H    0.122951
    83  H    0.127241
    84  H    0.152438
    85  H    0.144872
    86  H    0.142352
    87  H    0.114525
    88  H    0.124505
    89  H    0.126950
    90  H    0.141672
    91  H    0.154202
    92  H    0.150269
    93  H    0.143896
    94  H    0.124362
    95  H    0.121574
    96  H    0.110496
    97  H    0.271622
    98  H    0.382593
    99  H    0.387694
   100  H    0.117674
   101  H    0.128094
   102  H    0.121585
   103  H    0.123239
 Sum of Mulliken charges =  -0.00000
 Mulliken charges with hydrogens summed into heavy atoms:
               1
     1  C    0.063221
     2  C    0.115881
     3  N    0.067111
     4  C   -0.053307
     5  C    0.183940
     6  N    0.013186
     7  C    0.020827
     8  C    0.130353
     9  S   -0.013779
    10  C    0.029347
    11  Fe  -0.419228
    12  C   -0.390815
    13  C   -0.356548
    14  C   -0.355966
    15  C   -0.371763
    16  N    0.060837
    17  C    0.234821
    18  C   -0.073189
    19  C   -0.124466
    20  C    0.224076
    21  C    0.050546
    22  C   -0.025332
    23  C    0.101998
    24  C    0.275558
    25  O   -0.432166
    26  O    0.041435
    27  N   -0.017891
    28  C    0.147217
    29  C   -0.057384
    30  C    0.069833
    31  C    0.146799
    32  C    0.008163
    33  C   -0.021405
    34  C    0.003506
    35  N    0.018497
    36  C    0.169082
    37  C   -0.085884
    38  C   -0.039275
    39  C    0.238921
    40  C    0.035761
    41  C    0.010868
    42  C   -0.000081
    43  N    0.002142
    44  C    0.204217
    45  C   -0.055962
    46  C    0.029026
    47  C    0.235495
    48  C    0.021832
    49  C   -0.091878
    50  C    0.139832
    51  C    0.282553
    52  O    0.027488
    53  O   -0.418053
 Electronic spatial extent (au):  <R**2>=          34213.8525
 Charge=             -0.0000 electrons
 Dipole moment (field-independent basis, Debye):
    X=              7.2789    Y=             -3.2813    Z=              8.0213  Tot=             11.3177
 Quadrupole moment (field-independent basis, Debye-Ang):
   XX=           -339.9043   YY=           -305.3338   ZZ=           -299.2370
   XY=             15.8325   XZ=             -3.7970   YZ=            -23.4235
 Traceless Quadrupole moment (field-independent basis, Debye-Ang):
   XX=            -25.0793   YY=              9.4912   ZZ=             15.5880
   XY=             15.8325   XZ=             -3.7970   YZ=            -23.4235
 Octapole moment (field-independent basis, Debye-Ang**2):
  XXX=            399.4509  YYY=           -163.4451  ZZZ=            235.4335  XYY=            100.6340
  XXY=           -244.6890  XXZ=             -9.8847  XZZ=            -76.6419  YZZ=             31.2006
  YYZ=            129.0888  XYZ=             88.0034
 Hexadecapole moment (field-independent basis, Debye-Ang**3):
 XXXX=         -25725.9205 YYYY=         -14577.1397 ZZZZ=          -5722.9662 XXXY=           1955.5688
 XXXZ=              8.0830 YYYX=            853.9889 YYYZ=           -315.4822 ZZZX=            319.3679
 ZZZY=           -627.7405 XXYY=          -6632.9833 XXZZ=          -4438.8720 YYZZ=          -3592.5457
 XXYZ=           -428.1129 YYXZ=           -596.0815 ZZXY=           -106.3189
 N-N= 9.024452282190D+03 E-N=-2.717915914664D+04  KE= 3.869725889048D+03
 1\1\GINC-NODE550\SP\RPBE1PBE\def2TZVP\C41H50Fe1N6O4S1\KLEICH\13-Sep-20
 22\0\\# PBE1PBE/def2TZVP empiricaldispersion=GD3BJ int=(grid=ultrafine
 ) geom=check guess=read scrf=(smd,solvent=Chloroform)\\1f1f_II_S_solv\
 \0,1\C,0,17.746,-1.573,14.073\C,0,19.193,-1.82,13.766\N,0,19.739,-3.08
 4,13.674\C,0,20.216,-0.957,13.561\C,0,21.032,-2.989,13.429\N,0,21.348,
 -1.709,13.356\C,0,26.954,-1.513,11.283\C,0,26.872,-0.44,12.354\S,0,25.
 223,0.143,12.791\C,0,25.647,1.516,13.893\Fe,0,23.155,-0.817,13.27\C,0,
 24.82,-3.613,14.279\C,0,22.887,0.274,16.485\C,0,21.839,2.193,12.107\C,
 0,22.984,-2.09,10.08\N,0,23.692,-1.546,15.023\C,0,24.377,-2.734,15.277
 \C,0,24.705,-2.89,16.725\C,0,24.279,-1.703,17.32\C,0,23.578,-0.926,16.
 264\C,0,24.488,-1.268,18.793\C,0,25.234,-4.188,17.406\C,0,24.275,-5.33
 6,17.098\C,0,24.692,-6.674,17.694\O,0,25.782,-7.178,17.357\O,0,23.916,
 -7.237,18.494\N,0,22.421,0.836,14.114\C,0,22.338,1.097,15.49\C,0,21.78
 4,2.43,15.73\C,0,21.573,3.003,14.497\C,0,21.95,2.006,13.491\C,0,21.418
 ,3.053,17.081\C,0,21.102,4.304,14.272\C,0,21.977,5.385,14.378\N,0,22.5
 88,-0.09,11.473\C,0,22.143,1.209,11.155\C,0,21.74,1.292,9.736\C,0,21.8
 22,-0.001,9.23\C,0,22.445,-0.814,10.283\C,0,21.434,2.543,8.906\C,0,21.
 411,-0.436,7.944\C,0,22.123,-0.078,6.828\N,0,23.773,-2.479,12.38\C,0,2
 3.641,-2.843,11.034\C,0,24.376,-4.055,10.759\C,0,24.914,-4.456,11.946\
 C,0,24.528,-3.497,12.936\C,0,24.611,-4.72,9.402\C,0,25.836,-5.636,12.2
 28\C,0,27.212,-5.383,11.637\C,0,28.251,-6.376,12.122\O,0,28.671,-6.286
 ,13.304\O,0,28.641,-7.254,11.32\H,0,17.66685698,-0.88743069,14.8906986
 6\H,0,17.26446035,-1.15843219,13.21209751\H,0,17.27427527,-2.49690725,
 14.33524258\H,0,20.15458612,0.11123417,13.55897442\H,0,21.70887138,-3.
 80908731,13.30982811\H,0,27.95092075,-1.89935119,11.24078886\H,0,26.27
 424493,-2.30497904,11.51880126\H,0,26.69462441,-1.09087413,10.33461503
 \H,0,27.36952853,0.41091235,11.93769059\H,0,27.25170312,-0.90019582,13
 .24222596\H,0,25.07237296,2.34654736,14.24640464\H,0,25.52401124,2.052
 97113,12.97570192\H,0,24.94483245,0.99831047,14.51256298\H,0,25.431481
 64,-4.43702489,14.58227081\H,0,22.76806888,0.58942604,17.50051061\H,0,
 21.50148805,3.14524249,11.75455154\H,0,22.87834155,-2.51764769,9.10488
 27\H,0,23.90825383,-0.6406395,19.43737037\H,0,24.63248393,-0.32667414,
 18.3052193\H,0,23.61949653,-1.88224725,18.90833448\H,0,25.1929533,-4.0
 2362619,18.46250197\H,0,26.16581048,-4.42719282,16.93758136\H,0,24.309
 82526,-5.46705355,16.03662722\H,0,23.35228676,-5.08001763,17.5754655\H
 ,0,21.74558828,4.0713457,17.10462085\H,0,20.35704278,3.01643157,17.214
 91238\H,0,21.89575657,2.50632246,17.86699766\H,0,20.68918691,4.3256460
 4,13.28507711\H,0,22.96546726,5.07088439,14.11500977\H,0,21.66254758,6
 .16463577,13.71604249\H,0,22.34326357,3.07149465,8.70893869\H,0,20.981
 11524,2.25491936,7.98036241\H,0,20.76392391,3.17623073,9.4490625\H,0,2
 1.38195438,-1.50532553,7.96847988\H,0,23.15359438,0.04674312,7.0872573
 4\H,0,22.0320054,-0.84361543,6.0860748\H,0,25.51888147,-5.28533861,9.4
 3430332\H,0,23.79267955,-5.3719056,9.17778865\H,0,24.68585567,-3.96802
 005,8.64448909\H,0,25.42781304,-6.47488176,11.70401451\H,0,25.96238639
 ,-5.67824507,13.28966936\H,0,27.52129043,-4.42714427,12.00521089\H,0,2
 7.11631142,-5.54517682,10.5836993\H,0,19.23266212,-3.94014532,13.77713
 65\H,0,24.26903526,-7.75078259,19.22406407\H,0,29.61495358,-6.27272951
 ,13.47828578\H,0,21.73894581,0.84220563,6.43989694\H,0,20.40836972,-0.
 09071643,7.80113022\H,0,20.30147725,4.47513151,14.96104087\H,0,21.9742
 3612,5.74876246,15.38426499\\Version=ES64L-G16RevA.03\State=1-A\HF=-38
 81.5160305\RMSD=3.369e-09\Dipole=-4.3338678,0.9422524,0.3957819\Quadru
 pole=4.6301005,-13.1664252,8.5363247,15.9478943,-12.1661287,-13.398066
 7\PG=C01 [X(C41H50Fe1N6O4S1)]\\@


 REVOLUTIONS HAVE NEVER LIGHTENED THE BURDEN OF TYRANNY:
 THEY HAVE MERELY SHIFTED IT TO OTHER SHOULDERS.
                                   -- G. B. SHAW (1903)
 Job cpu time:       1 days  0 hours 47 minutes 56.2 seconds.
 Elapsed time:       0 days  6 hours 12 minutes 54.5 seconds.
 File lengths (MBytes):  RWF=   2813 Int=      0 D2E=      0 Chk=    254 Scr=      1
 Normal termination of Gaussian 16 at Tue Sep 13 03:48:13 2022.
