 Entering Gaussian System, Link 0=g16
 Input=/net/homes/chemie/zhartovska/work/BioModel/Konrad/1a6g/1a6g12/1a6g12.com
 Output=/net/homes/chemie/zhartovska/work/BioModel/Konrad/1a6g/1a6g12/1a6g12.log
 Initial command:
 /afs/math/software/gaussian/g16.A03/g16/l1.exe "/scratch/zhartovska_gaussian.9e4nTXj/Gau-27903.inp" -scrdir="/scratch/zhartovska_gaussian.9e4nTXj/"
 Entering Link 1 = /afs/math/software/gaussian/g16.A03/g16/l1.exe PID=     27904.
  
 Copyright (c) 1988,1990,1992,1993,1995,1998,2003,2009,2016,
            Gaussian, Inc.  All Rights Reserved.
  
 This is part of the Gaussian(R) 16 program.  It is based on
 the Gaussian(R) 09 system (copyright 2009, Gaussian, Inc.),
 the Gaussian(R) 03 system (copyright 2003, Gaussian, Inc.),
 the Gaussian(R) 98 system (copyright 1998, Gaussian, Inc.),
 the Gaussian(R) 94 system (copyright 1995, Gaussian, Inc.),
 the Gaussian 92(TM) system (copyright 1992, Gaussian, Inc.),
 the Gaussian 90(TM) system (copyright 1990, Gaussian, Inc.),
 the Gaussian 88(TM) system (copyright 1988, Gaussian, Inc.),
 the Gaussian 86(TM) system (copyright 1986, Carnegie Mellon
 University), and the Gaussian 82(TM) system (copyright 1983,
 Carnegie Mellon University). Gaussian is a federally registered
 trademark of Gaussian, Inc.
  
 This software contains proprietary and confidential information,
 including trade secrets, belonging to Gaussian, Inc.
  
 This software is provided under written license and may be
 used, copied, transmitted, or stored only in accord with that
 written license.
  
 The following legend is applicable only to US Government
 contracts under FAR:
  
                    RESTRICTED RIGHTS LEGEND
  
 Use, reproduction and disclosure by the US Government is
 subject to restrictions as set forth in subparagraphs (a)
 and (c) of the Commercial Computer Software - Restricted
 Rights clause in FAR 52.227-19.
  
 Gaussian, Inc.
 340 Quinnipiac St., Bldg. 40, Wallingford CT 06492
  
  
 ---------------------------------------------------------------
 Warning -- This program may not be used in any manner that
 competes with the business of Gaussian, Inc. or will provide
 assistance to any competitor of Gaussian, Inc.  The licensee
 of this program is prohibited from giving any competitor of
 Gaussian, Inc. access to this program.  By using this program,
 the user acknowledges that Gaussian, Inc. is engaged in the
 business of creating and licensing software in the field of
 computational chemistry and represents and warrants to the
 licensee that it is not a competitor of Gaussian, Inc. and that
 it will not use this program in any manner prohibited above.
 ---------------------------------------------------------------
  

 Cite this work as:
 Gaussian 16, Revision A.03,
 M. J. Frisch, G. W. Trucks, H. B. Schlegel, G. E. Scuseria, 
 M. A. Robb, J. R. Cheeseman, G. Scalmani, V. Barone, 
 G. A. Petersson, H. Nakatsuji, X. Li, M. Caricato, A. V. Marenich, 
 J. Bloino, B. G. Janesko, R. Gomperts, B. Mennucci, H. P. Hratchian, 
 J. V. Ortiz, A. F. Izmaylov, J. L. Sonnenberg, D. Williams-Young, 
 F. Ding, F. Lipparini, F. Egidi, J. Goings, B. Peng, A. Petrone, 
 T. Henderson, D. Ranasinghe, V. G. Zakrzewski, J. Gao, N. Rega, 
 G. Zheng, W. Liang, M. Hada, M. Ehara, K. Toyota, R. Fukuda, 
 J. Hasegawa, M. Ishida, T. Nakajima, Y. Honda, O. Kitao, H. Nakai, 
 T. Vreven, K. Throssell, J. A. Montgomery, Jr., J. E. Peralta, 
 F. Ogliaro, M. J. Bearpark, J. J. Heyd, E. N. Brothers, K. N. Kudin, 
 V. N. Staroverov, T. A. Keith, R. Kobayashi, J. Normand, 
 K. Raghavachari, A. P. Rendell, J. C. Burant, S. S. Iyengar, 
 J. Tomasi, M. Cossi, J. M. Millam, M. Klene, C. Adamo, R. Cammi, 
 J. W. Ochterski, R. L. Martin, K. Morokuma, O. Farkas, 
 J. B. Foresman, and D. J. Fox, Gaussian, Inc., Wallingford CT, 2016.
 
 ******************************************
 Gaussian 16:  ES64L-G16RevA.03 25-Dec-2016
                 8-Sep-2022 
 ******************************************
 %nprocs=12
 Will use up to   12 processors via shared memory.
 %mem=16GB
 %oldchk=1a6g_II_S.chk
 %chk=1a6g_III_D.chk
 Copying data from "1a6g_II_S.chk" to current chk file "1a6g_III_D.chk"
 IOpt=  2 FromEx=T IUOpen= 4 IOptOp= 5 NList=   0 IFRang= 0 IUIn= 4 IUOut= 2.
 ----------------------------------------------------------------------
 # PBE1PBE/def2TZVP empiricaldispersion=GD3BJ scf=maxcycle=999 geom=che
 ck pop=nbo
 ----------------------------------------------------------------------
 1/29=2,38=1,172=1/1;
 2/12=2,40=1/2;
 3/5=44,7=101,11=2,14=-4,25=1,30=1,74=-13,124=41/1,2,3;
 4//1;
 5/5=2,7=999,38=5/2;
 6/7=2,8=2,9=2,10=2,28=1,40=1/1,7;
 99/5=1,9=1/99;
 ----------
 1a6g_III_D
 ----------
 Structure from the checkpoint file:  "1a6g_III_D.chk"
 Charge =  1 Multiplicity = 2
 Z-Matrix found in chk file.
 C,0,9.563,29.266001,2.603
 C,0,10.793,29.143999,3.477
 N,0,11.018,29.971001,4.542
 C,0,11.903,28.341,3.405
 C,0,12.244,29.622999,5.051
 N,0,12.785,28.643,4.387
 Fe,0,14.633,27.799999,4.742
 C,0,15.982,30.875999,5.035
 C,0,13.859,27.797001,8.082
 C,0,13.333,24.698999,4.461
 C,0,15.457,27.771999,1.469
 N,0,14.899,29.068001,6.263
 C,0,15.422,30.325001,6.188
 C,0,15.366,30.961,7.489
 C,0,14.809,30.049999,8.337
 C,0,14.506,28.948,7.597
 C,0,14.492,30.266001,9.839
 C,0,15.74,32.409,7.822
 C,0,14.479,33.294998,8.021
 C,0,13.598,33.317001,6.814
 O,0,12.422,32.879002,6.9
 O,0,14.082,33.764999,5.74
 N,0,13.754,26.474001,5.981
 C,0,13.521,26.642,7.379
 C,0,12.876,25.492001,7.903
 C,0,12.732,24.643,6.9
 C,0,13.286,25.256001,5.694
 C,0,12.416,25.358,9.356
 C,0,12.192,23.231001,6.941
 C,0,12.38305219,22.46417462,8.04192843
 N,0,14.397,26.546,3.282
 C,0,13.905,25.194,3.289
 C,0,14.088,24.503,2.063
 C,0,14.7,25.377001,1.22
 C,0,14.902,26.634001,1.946
 C,0,13.664,23.054001,1.795
 C,0,15.247,25.156,-0.167
 C,0,15.06416569,23.96413626,-0.78554627
 N,0,15.464,29.084,3.481
 C,0,15.738,28.924999,2.139
 C,0,16.452,30.069,1.609
 C,0,16.638,30.898001,2.629
 C,0,16.014999,30.311001,3.762
 C,0,16.924,30.177999,0.162
 C,0,17.469999,32.186001,2.652
 C,0,18.965,31.896,2.978
 C,0,19.889999,33.044998,2.829
 O,0,20.224001,33.370998,1.661
 O,0,20.268999,33.573002,3.948
 C,0,16.25,26.974001,4.896
 O,0,17.216,26.469999,4.82
 H,0,9.78249371,28.89332331,1.62431014
 H,0,8.76391414,28.69704915,3.03038225
 H,0,9.27320393,30.29386396,2.5365472
 H,0,10.40958266,30.68774624,4.88274125
 H,0,12.70048136,30.10017914,5.89291679
 H,0,12.05198265,27.57743313,2.67037778
 H,0,17.40691131,32.65956714,1.69457896
 H,0,17.07220064,32.84541548,3.39485194
 H,0,19.02477263,31.5484893,3.98822945
 H,0,19.30100045,31.11142332,2.33267595
 H,0,21.2045082,33.66494555,4.14285617
 H,0,17.86512979,29.68019944,0.05536828
 H,0,16.20351763,29.72079699,-0.4835784
 H,0,17.03432371,31.20943176,-0.10044075
 H,0,15.70834431,27.76590573,0.42895726
 H,0,15.7796721,25.94014913,-0.66325656
 H,0,15.83983703,23.22731996,-0.76722379
 H,0,14.14413807,23.75991572,-1.29224454
 H,0,14.40496266,22.38767121,2.1847165
 H,0,12.72578882,22.86277156,2.27258882
 H,0,13.56537574,22.90042963,0.74068075
 H,0,12.86393113,23.74134886,4.37279224
 H,0,11.659085,22.83740957,6.10076944
 H,0,11.61192808,21.79954796,8.371381
 H,0,13.3050211,22.52335386,8.58171649
 H,0,13.14199189,25.8049104,10.00261184
 H,0,11.47553571,25.85315519,9.47948383
 H,0,12.3087638,24.3222186,9.60208389
 H,0,13.59359589,27.80975676,9.11848345
 H,0,16.43637544,31.83901328,5.14010215
 H,0,15.27425597,30.84039471,10.28960789
 H,0,13.56387559,30.78953431,9.93594302
 H,0,14.41906578,29.31716488,10.3281734
 H,0,16.32604873,32.81080885,7.02200217
 H,0,16.32062716,32.42156166,8.72067364
 H,0,14.79033499,34.29503346,8.23985976
 H,0,13.91886706,32.91748397,8.85083989
 H,0,15.03396822,33.81270625,5.62562988
 Recover connectivity data from disk.
 Stoichiometry    C39H38FeN6O5(1+,2)
 Framework group  C1[X(C39H38FeN6O5)]
 Deg. of freedom   261
 Full point group                 C1      NOp   1
 Largest Abelian subgroup         C1      NOp   1
 Largest concise Abelian subgroup C1      NOp   1
                         Standard orientation:                         
 ---------------------------------------------------------------------
 Center     Atomic      Atomic             Coordinates (Angstroms)
 Number     Number       Type             X           Y           Z
 ---------------------------------------------------------------------
      1          6           0       -1.668641   -0.145279    5.292812
      2          6           0       -1.254598   -0.464156    3.872057
      3          7           0       -0.483759   -1.549544    3.561379
      4          6           0       -1.440696    0.196128    2.683998
      5          6           0       -0.249098   -1.484741    2.210824
      6          7           0       -0.821448   -0.449671    1.667667
      7         26           0       -0.723984    0.098720   -0.317666
      8          6           0        2.602199   -0.452503   -0.308600
      9          6           0       -1.288254   -3.183982   -1.130162
     10          6           0       -4.050075    0.662815   -0.381545
     11          6           0       -0.167747    3.346614    0.413137
     12          7           0        0.427754   -1.492778   -0.681890
     13          6           0        1.785478   -1.552720   -0.571465
     14          6           0        2.242471   -2.903006   -0.832461
     15          6           0        1.127798   -3.637650   -1.110093
     16          6           0        0.058414   -2.804100   -0.985911
     17          6           0        1.080326   -5.157057   -1.413901
     18          6           0        3.674702   -3.431078   -0.700846
     19          6           0        3.855934   -4.280191    0.587903
     20          6           0        3.536533   -3.512247    1.829572
     21          8           0        2.595994   -3.898986    2.569866
     22          8           0        4.222159   -2.484528    2.078858
     23          7           0       -2.378579   -0.999116   -0.668528
     24          6           0       -2.422961   -2.382987   -1.014722
     25          6           0       -3.770152   -2.797530   -1.176984
     26          6           0       -4.526313   -1.733658   -0.967353
     27          6           0       -3.654506   -0.603317   -0.652072
     28          6           0       -4.190256   -4.236376   -1.483579
     29          6           0       -6.026696   -1.610473   -1.111223
     30          6           0       -6.680165   -2.342620   -2.045838
     31          7           0       -1.853023    1.642466    0.001596
     32          6           0       -3.276022    1.798386   -0.142558
     33          6           0       -3.726764    3.140054   -0.038615
     34          6           0       -2.619367    3.899004    0.177573
     35          6           0       -1.459521    3.003438    0.203034
     36          6           0       -5.187114    3.592041   -0.158132
     37          6           0       -2.475848    5.397954    0.243669
     38          6           0       -3.575721    6.187318    0.182421
     39          7           0        0.872470    1.209764    0.064770
     40          6           0        0.940568    2.555549    0.357252
     41          6           0        2.315034    3.001552    0.463842
     42          6           0        3.072133    1.942310    0.204909
     43          6           0        2.195439    0.846664   -0.012707
     44          6           0        2.718319    4.445503    0.748162
     45          6           0        4.595561    1.896357    0.035348
     46          6           0        5.017935    2.207241   -1.431061
     47          6           0        6.472441    2.383974   -1.657329
     48          8           0        6.986048    3.473400   -1.294814
     49          8           0        7.048103    1.379372   -2.235236
     50          6           0       -0.707283    0.741667   -2.022664
     51          8           0       -0.696536    1.279695   -2.973117
     52          1           0       -1.836314    0.907229    5.387752
     53          1           0       -2.569273   -0.672632    5.528737
     54          1           0       -0.892990   -0.445045    5.966167
     55          1           0       -0.155767   -2.251803    4.193244
     56          1           0        0.334506   -2.199547    1.669198
     57          1           0       -2.000820    1.101266    2.574979
     58          1           0        5.041394    2.617982    0.687567
     59          1           0        4.947155    0.921234    0.300706
     60          1           0        4.678611    1.405425   -2.053034
     61          1           0        4.521209    3.103767   -1.738317
     62          1           0        7.554201    1.513922   -3.039823
     63          1           0        2.724768    5.000719   -0.166493
     64          1           0        2.017339    4.884539    1.426967
     65          1           0        3.695637    4.463766    1.183381
     66          1           0        0.006582    4.374245    0.654974
     67          1           0       -1.505558    5.838816    0.338950
     68          1           0       -3.864893    6.630747   -0.747445
     69          1           0       -4.154954    6.367134    1.063928
     70          1           0       -5.452571    3.671056   -1.191665
     71          1           0       -5.822415    2.875707    0.319527
     72          1           0       -5.305408    4.544762    0.314339
     73          1           0       -5.108706    0.814244   -0.345925
     74          1           0       -6.572323   -0.945247   -0.475090
     75          1           0       -7.646290   -2.747955   -1.828566
     76          1           0       -6.229988   -2.515355   -3.001036
     77          1           0       -3.495847   -4.671813   -2.171395
     78          1           0       -4.199738   -4.805871   -0.577772
     79          1           0       -5.168989   -4.237723   -1.915991
     80          1           0       -1.463053   -4.215074   -1.356426
     81          1           0        3.657692   -0.625715   -0.337457
     82          1           0        1.925238   -5.427758   -2.012018
     83          1           0        1.103234   -5.705339   -0.495335
     84          1           0        0.179738   -5.386813   -1.944046
     85          1           0        4.350770   -2.602274   -0.670571
     86          1           0        3.902894   -4.036883   -1.552802
     87          1           0        4.870503   -4.616001    0.640649
     88          1           0        3.211609   -5.132707    0.533493
     89          1           0        4.715457   -2.054597    1.376422
 ---------------------------------------------------------------------
 Rotational constants (GHZ):           0.0695993           0.0511366           0.0378352
 Standard basis: def2TZVP (5D, 7F)
 There are  2080 symmetry adapted cartesian basis functions of A   symmetry.
 There are  1823 symmetry adapted basis functions of A   symmetry.
  1823 basis functions,  2956 primitive gaussians,  2080 cartesian basis functions
   190 alpha electrons      189 beta electrons
       nuclear repulsion energy      7864.1666777320 Hartrees.
 NAtoms=   89 NActive=   89 NUniq=   89 SFac= 1.00D+00 NAtFMM=   60 NAOKFM=T Big=T
 Integral buffers will be    131072 words long.
 Raffenetti 2 integral format.
 Two-electron integral symmetry is turned on.
 Nuclear repulsion after empirical dispersion term =     7864.0371318496 Hartrees.
 One-electron integrals computed using PRISM.
   1 Symmetry operations used in ECPInt.
 ECPInt:  NShTT=  257403 NPrTT=  800753 LenC2=  189729 LenP2D=  382375.
 LDataN:  DoStor=T MaxTD1= 6 Len=  172
 NBasis=  1823 RedAO= T EigKep=  2.76D-06  NBF=  1823
 NBsUse=  1823 1.00D-06 EigRej= -1.00D+00 NBFU=  1823
 ExpMin= 4.20D-02 ExpMax= 3.01D+05 ExpMxC= 2.91D+03 IAcc=3 IRadAn=         5 AccDes= 0.00D+00
 Harris functional with IExCor= 1009 and IRadAn=       5 diagonalized for initial guess.
 HarFok:  IExCor= 1009 AccDes= 0.00D+00 IRadAn=         5 IDoV= 1 UseB2=F ITyADJ=14
 ICtDFT=  3500011 ScaDFX=  1.000000  1.000000  1.000000  1.000000
 FoFCou: FMM=F IPFlag=           0 FMFlag=      100000 FMFlg1=        2001
         NFxFlg=           0 DoJE=T BraDBF=F KetDBF=T FulRan=T
         wScrn=  0.000000 ICntrl=       500 IOpCl=  0 I1Cent=   200000004 NGrid=           0
         NMat0=    1 NMatS0=      1 NMatT0=    0 NMatD0=    1 NMtDS0=    0 NMtDT0=    0
 Petite list used in FoFCou.
 Initial guess <Sx>= 0.0000 <Sy>= 0.0000 <Sz>= 0.5000 <S**2>= 0.7500 S= 0.5000
 Requested convergence on RMS density matrix=1.00D-08 within 999 cycles.
 Requested convergence on MAX density matrix=1.00D-06.
 Requested convergence on             energy=1.00D-06.
 No special actions if energy rises.
 EnCoef did   100 forward-backward iterations
 EnCoef did     3 forward-backward iterations
 Restarting incremental Fock formation.
 Restarting incremental Fock formation.
 SCF Done:  E(UPBE1PBE) =  -3475.28579994     A.U. after   53 cycles
            NFock= 53  Conv=0.76D-08     -V/T= 2.0033
 <Sx>= 0.0000 <Sy>= 0.0000 <Sz>= 0.5000 <S**2>= 0.8120 S= 0.5306
 <L.S>= 0.000000000000E+00
 Annihilation of the first spin contaminant:
 S**2 before annihilation     0.8120,   after     0.7512

 **********************************************************************

            Population analysis using the SCF density.

 **********************************************************************

 Orbital symmetries:
 Alpha Orbitals:
       Occupied  (A) (A) (A) (A) (A) (A) (A) (A) (A) (A) (A) (A)
                 (A) (A) (A) (A) (A) (A) (A) (A) (A) (A) (A) (A)
                 (A) (A) (A) (A) (A) (A) (A) (A) (A) (A) (A) (A)
                 (A) (A) (A) (A) (A) (A) (A) (A) (A) (A) (A) (A)
                 (A) (A) (A) (A) (A) (A) (A) (A) (A) (A) (A) (A)
                 (A) (A) (A) (A) (A) (A) (A) (A) (A) (A) (A) (A)
                 (A) (A) (A) (A) (A) (A) (A) (A) (A) (A) (A) (A)
                 (A) (A) (A) (A) (A) (A) (A) (A) (A) (A) (A) (A)
                 (A) (A) (A) (A) (A) (A) (A) (A) (A) (A) (A) (A)
                 (A) (A) (A) (A) (A) (A) (A) (A) (A) (A) (A) (A)
                 (A) (A) (A) (A) (A) (A) (A) (A) (A) (A) (A) (A)
                 (A) (A) (A) (A) (A) (A) (A) (A) (A) (A) (A) (A)
                 (A) (A) (A) (A) (A) (A) (A) (A) (A) (A) (A) (A)
                 (A) (A) (A) (A) (A) (A) (A) (A) (A) (A) (A) (A)
                 (A) (A) (A) (A) (A) (A) (A) (A) (A) (A) (A) (A)
                 (A) (A) (A) (A) (A) (A) (A) (A) (A) (A)
       Virtual   (A) (A) (A) (A) (A) (A) (A) (A) (A) (A) (A) (A)
                 (A) (A) (A) (A) (A) (A) (A) (A) (A) (A) (A) (A)
                 (A) (A) (A) (A) (A) (A) (A) (A) (A) (A) (A) (A)
                 (A) (A) (A) (A) (A) (A) (A) (A) (A) (A) (A) (A)
                 (A) (A) (A) (A) (A) (A) (A) (A) (A) (A) (A) (A)
                 (A) (A) (A) (A) (A) (A) (A) (A) (A) (A) (A) (A)
                 (A) (A) (A) (A) (A) (A) (A) (A) (A) (A) (A) (A)
                 (A) (A) (A) (A) (A) (A) (A) (A) (A) (A) (A) (A)
                 (A) (A) (A) (A) (A) (A) (A) (A) (A) (A) (A) (A)
                 (A) (A) (A) (A) (A) (A) (A) (A) (A) (A) (A) (A)
                 (A) (A) (A) (A) (A) (A) (A) (A) (A) (A) (A) (A)
                 (A) (A) (A) (A) (A) (A) (A) (A) (A) (A) (A) (A)
                 (A) (A) (A) (A) (A) (A) (A) (A) (A) (A) (A) (A)
                 (A) (A) (A) (A) (A) (A) (A) (A) (A) (A) (A) (A)
                 (A) (A) (A) (A) (A) (A) (A) (A) (A) (A) (A) (A)
                 (A) (A) (A) (A) (A) (A) (A) (A) (A) (A) (A) (A)
                 (A) (A) (A) (A) (A) (A) (A) (A) (A) (A) (A) (A)
                 (A) (A) (A) (A) (A) (A) (A) (A) (A) (A) (A) (A)
                 (A) (A) (A) (A) (A) (A) (A) (A) (A) (A) (A) (A)
                 (A) (A) (A) (A) (A) (A) (A) (A) (A) (A) (A) (A)
                 (A) (A) (A) (A) (A) (A) (A) (A) (A) (A) (A) (A)
                 (A) (A) (A) (A) (A) (A) (A) (A) (A) (A) (A) (A)
                 (A) (A) (A) (A) (A) (A) (A) (A) (A) (A) (A) (A)
                 (A) (A) (A) (A) (A) (A) (A) (A) (A) (A) (A) (A)
                 (A) (A) (A) (A) (A) (A) (A) (A) (A) (A) (A) (A)
                 (A) (A) (A) (A) (A) (A) (A) (A) (A) (A) (A) (A)
                 (A) (A) (A) (A) (A) (A) (A) (A) (A) (A) (A) (A)
                 (A) (A) (A) (A) (A) (A) (A) (A) (A) (A) (A) (A)
                 (A) (A) (A) (A) (A) (A) (A) (A) (A) (A) (A) (A)
                 (A) (A) (A) (A) (A) (A) (A) (A) (A) (A) (A) (A)
                 (A) (A) (A) (A) (A) (A) (A) (A) (A) (A) (A) (A)
                 (A) (A) (A) (A) (A) (A) (A) (A) (A) (A) (A) (A)
                 (A) (A) (A) (A) (A) (A) (A) (A) (A) (A) (A) (A)
                 (A) (A) (A) (A) (A) (A) (A) (A) (A) (A) (A) (A)
                 (A) (A) (A) (A) (A) (A) (A) (A) (A) (A) (A) (A)
                 (A) (A) (A) (A) (A) (A) (A) (A) (A) (A) (A) (A)
                 (A) (A) (A) (A) (A) (A) (A) (A) (A) (A) (A) (A)
                 (A) (A) (A) (A) (A) (A) (A) (A) (A) (A) (A) (A)
                 (A) (A) (A) (A) (A) (A) (A) (A) (A) (A) (A) (A)
                 (A) (A) (A) (A) (A) (A) (A) (A) (A) (A) (A) (A)
                 (A) (A) (A) (A) (A) (A) (A) (A) (A) (A) (A) (A)
                 (A) (A) (A) (A) (A) (A) (A) (A) (A) (A) (A) (A)
                 (A) (A) (A) (A) (A) (A) (A) (A) (A) (A) (A) (A)
                 (A) (A) (A) (A) (A) (A) (A) (A) (A) (A) (A) (A)
                 (A) (A) (A) (A) (A) (A) (A) (A) (A) (A) (A) (A)
                 (A) (A) (A) (A) (A) (A) (A) (A) (A) (A) (A) (A)
                 (A) (A) (A) (A) (A) (A) (A) (A) (A) (A) (A) (A)
                 (A) (A) (A) (A) (A) (A) (A) (A) (A) (A) (A) (A)
                 (A) (A) (A) (A) (A) (A) (A) (A) (A) (A) (A) (A)
                 (A) (A) (A) (A) (A) (A) (A) (A) (A) (A) (A) (A)
                 (A) (A) (A) (A) (A) (A) (A) (A) (A) (A) (A) (A)
                 (A) (A) (A) (A) (A) (A) (A) (A) (A) (A) (A) (A)
                 (A) (A) (A) (A) (A) (A) (A) (A) (A) (A) (A) (A)
                 (A) (A) (A) (A) (A) (A) (A) (A) (A) (A) (A) (A)
                 (A) (A) (A) (A) (A) (A) (A) (A) (A) (A) (A) (A)
                 (A) (A) (A) (A) (A) (A) (A) (A) (A) (A) (A) (A)
                 (A) (A) (A) (A) (A) (A) (A) (A) (A) (A) (A) (A)
                 (A) (A) (A) (A) (A) (A) (A) (A) (A) (A) (A) (A)
                 (A) (A) (A) (A) (A) (A) (A) (A) (A) (A) (A) (A)
                 (A) (A) (A) (A) (A) (A) (A) (A) (A) (A) (A) (A)
                 (A) (A) (A) (A) (A) (A) (A) (A) (A) (A) (A) (A)
                 (A) (A) (A) (A) (A) (A) (A) (A) (A) (A) (A) (A)
                 (A) (A) (A) (A) (A) (A) (A) (A) (A) (A) (A) (A)
                 (A) (A) (A) (A) (A) (A) (A) (A) (A) (A) (A) (A)
                 (A) (A) (A) (A) (A) (A) (A) (A) (A) (A) (A) (A)
                 (A) (A) (A) (A) (A) (A) (A) (A) (A) (A) (A) (A)
                 (A) (A) (A) (A) (A) (A) (A) (A) (A) (A) (A) (A)
                 (A) (A) (A) (A) (A) (A) (A) (A) (A) (A) (A) (A)
                 (A) (A) (A) (A) (A) (A) (A) (A) (A) (A) (A) (A)
                 (A) (A) (A) (A) (A) (A) (A) (A) (A) (A) (A) (A)
                 (A) (A) (A) (A) (A) (A) (A) (A) (A) (A) (A) (A)
                 (A) (A) (A) (A) (A) (A) (A) (A) (A) (A) (A) (A)
                 (A) (A) (A) (A) (A) (A) (A) (A) (A) (A) (A) (A)
                 (A) (A) (A) (A) (A) (A) (A) (A) (A) (A) (A) (A)
                 (A) (A) (A) (A) (A) (A) (A) (A) (A) (A) (A) (A)
                 (A) (A) (A) (A) (A) (A) (A) (A) (A) (A) (A) (A)
                 (A) (A) (A) (A) (A) (A) (A) (A) (A) (A) (A) (A)
                 (A) (A) (A) (A) (A) (A) (A) (A) (A) (A) (A) (A)
                 (A) (A) (A) (A) (A) (A) (A) (A) (A) (A) (A) (A)
                 (A) (A) (A) (A) (A) (A) (A) (A) (A) (A) (A) (A)
                 (A) (A) (A) (A) (A) (A) (A) (A) (A) (A) (A) (A)
                 (A) (A) (A) (A) (A) (A) (A) (A) (A) (A) (A) (A)
                 (A) (A) (A) (A) (A) (A) (A) (A) (A) (A) (A) (A)
                 (A) (A) (A) (A) (A) (A) (A) (A) (A) (A) (A) (A)
                 (A) (A) (A) (A) (A) (A) (A) (A) (A) (A) (A) (A)
                 (A) (A) (A) (A) (A) (A) (A) (A) (A) (A) (A) (A)
                 (A) (A) (A) (A) (A) (A) (A) (A) (A) (A) (A) (A)
                 (A) (A) (A) (A) (A) (A) (A) (A) (A) (A) (A) (A)
                 (A) (A) (A) (A) (A) (A) (A) (A) (A) (A) (A) (A)
                 (A) (A) (A) (A) (A) (A) (A) (A) (A) (A) (A) (A)
                 (A) (A) (A) (A) (A) (A) (A) (A) (A) (A) (A) (A)
                 (A) (A) (A) (A) (A) (A) (A) (A) (A) (A) (A) (A)
                 (A) (A) (A) (A) (A) (A) (A) (A) (A) (A) (A) (A)
                 (A) (A) (A) (A) (A) (A) (A) (A) (A) (A) (A) (A)
                 (A) (A) (A) (A) (A) (A) (A) (A) (A) (A) (A) (A)
                 (A) (A) (A) (A) (A) (A) (A) (A) (A) (A) (A) (A)
                 (A) (A) (A) (A) (A) (A) (A) (A) (A) (A) (A) (A)
                 (A) (A) (A) (A) (A) (A) (A) (A) (A) (A) (A) (A)
                 (A) (A) (A) (A) (A) (A) (A) (A) (A) (A) (A) (A)
                 (A) (A) (A) (A) (A) (A) (A) (A) (A) (A) (A) (A)
                 (A) (A) (A) (A) (A) (A) (A) (A) (A) (A) (A) (A)
                 (A) (A) (A) (A) (A) (A) (A) (A) (A) (A) (A) (A)
                 (A) (A) (A) (A) (A) (A) (A) (A) (A) (A) (A) (A)
                 (A) (A) (A) (A) (A) (A) (A) (A) (A) (A) (A) (A)
                 (A) (A) (A) (A) (A) (A) (A) (A) (A) (A) (A) (A)
                 (A) (A) (A) (A) (A) (A) (A) (A) (A) (A) (A) (A)
                 (A) (A) (A) (A) (A) (A) (A) (A) (A) (A) (A) (A)
                 (A) (A) (A) (A) (A) (A) (A) (A) (A) (A) (A) (A)
                 (A) (A) (A) (A) (A) (A) (A) (A) (A) (A) (A) (A)
                 (A) (A) (A) (A) (A) (A) (A) (A) (A) (A) (A) (A)
                 (A) (A) (A) (A) (A) (A) (A) (A) (A) (A) (A) (A)
                 (A) (A) (A) (A) (A) (A) (A) (A) (A) (A) (A) (A)
                 (A) (A) (A) (A) (A) (A) (A) (A) (A) (A) (A) (A)
                 (A) (A) (A) (A) (A) (A) (A) (A) (A) (A) (A) (A)
                 (A) (A) (A) (A) (A) (A) (A) (A) (A) (A) (A) (A)
                 (A) (A) (A) (A) (A) (A) (A) (A) (A) (A) (A) (A)
                 (A) (A) (A) (A) (A) (A) (A) (A) (A) (A) (A) (A)
                 (A) (A) (A) (A) (A) (A) (A) (A) (A) (A) (A) (A)
                 (A) (A) (A) (A) (A) (A) (A) (A) (A) (A) (A) (A)
                 (A) (A) (A) (A) (A) (A) (A) (A) (A) (A) (A) (A)
                 (A) (A) (A) (A) (A) (A) (A) (A) (A) (A) (A) (A)
                 (A) (A) (A) (A) (A) (A) (A) (A) (A) (A) (A) (A)
                 (A) (A) (A) (A) (A) (A) (A) (A) (A) (A) (A) (A)
                 (A) (A) (A) (A) (A) (A) (A) (A) (A) (A) (A) (A)
                 (A) (A) (A) (A) (A) (A) (A) (A) (A) (A) (A) (A)
                 (A) (A) (A) (A) (A) (A) (A) (A) (A) (A) (A) (A)
                 (A) (A) (A) (A) (A) (A) (A) (A) (A) (A) (A) (A)
                 (A) (A) (A) (A) (A) (A) (A) (A) (A) (A) (A) (A)
                 (A) (A) (A) (A) (A) (A) (A) (A) (A) (A) (A) (A)
                 (A) (A) (A) (A) (A) (A) (A) (A) (A) (A) (A) (A)
                 (A) (A) (A) (A) (A) (A) (A) (A) (A) (A) (A) (A)
                 (A) (A) (A) (A) (A) (A) (A) (A) (A) (A) (A) (A)
                 (A) (A) (A) (A) (A) (A) (A) (A) (A) (A) (A) (A)
                 (A) (A) (A) (A) (A) (A) (A) (A) (A) (A) (A) (A)
                 (A) (A) (A) (A) (A) (A) (A) (A) (A) (A) (A) (A)
                 (A) (A) (A) (A) (A) (A) (A) (A) (A) (A) (A) (A)
                 (A)
 Beta  Orbitals:
       Occupied  (A) (A) (A) (A) (A) (A) (A) (A) (A) (A) (A) (A)
                 (A) (A) (A) (A) (A) (A) (A) (A) (A) (A) (A) (A)
                 (A) (A) (A) (A) (A) (A) (A) (A) (A) (A) (A) (A)
                 (A) (A) (A) (A) (A) (A) (A) (A) (A) (A) (A) (A)
                 (A) (A) (A) (A) (A) (A) (A) (A) (A) (A) (A) (A)
                 (A) (A) (A) (A) (A) (A) (A) (A) (A) (A) (A) (A)
                 (A) (A) (A) (A) (A) (A) (A) (A) (A) (A) (A) (A)
                 (A) (A) (A) (A) (A) (A) (A) (A) (A) (A) (A) (A)
                 (A) (A) (A) (A) (A) (A) (A) (A) (A) (A) (A) (A)
                 (A) (A) (A) (A) (A) (A) (A) (A) (A) (A) (A) (A)
                 (A) (A) (A) (A) (A) (A) (A) (A) (A) (A) (A) (A)
                 (A) (A) (A) (A) (A) (A) (A) (A) (A) (A) (A) (A)
                 (A) (A) (A) (A) (A) (A) (A) (A) (A) (A) (A) (A)
                 (A) (A) (A) (A) (A) (A) (A) (A) (A) (A) (A) (A)
                 (A) (A) (A) (A) (A) (A) (A) (A) (A) (A) (A) (A)
                 (A) (A) (A) (A) (A) (A) (A) (A) (A)
       Virtual   (A) (A) (A) (A) (A) (A) (A) (A) (A) (A) (A) (A)
                 (A) (A) (A) (A) (A) (A) (A) (A) (A) (A) (A) (A)
                 (A) (A) (A) (A) (A) (A) (A) (A) (A) (A) (A) (A)
                 (A) (A) (A) (A) (A) (A) (A) (A) (A) (A) (A) (A)
                 (A) (A) (A) (A) (A) (A) (A) (A) (A) (A) (A) (A)
                 (A) (A) (A) (A) (A) (A) (A) (A) (A) (A) (A) (A)
                 (A) (A) (A) (A) (A) (A) (A) (A) (A) (A) (A) (A)
                 (A) (A) (A) (A) (A) (A) (A) (A) (A) (A) (A) (A)
                 (A) (A) (A) (A) (A) (A) (A) (A) (A) (A) (A) (A)
                 (A) (A) (A) (A) (A) (A) (A) (A) (A) (A) (A) (A)
                 (A) (A) (A) (A) (A) (A) (A) (A) (A) (A) (A) (A)
                 (A) (A) (A) (A) (A) (A) (A) (A) (A) (A) (A) (A)
                 (A) (A) (A) (A) (A) (A) (A) (A) (A) (A) (A) (A)
                 (A) (A) (A) (A) (A) (A) (A) (A) (A) (A) (A) (A)
                 (A) (A) (A) (A) (A) (A) (A) (A) (A) (A) (A) (A)
                 (A) (A) (A) (A) (A) (A) (A) (A) (A) (A) (A) (A)
                 (A) (A) (A) (A) (A) (A) (A) (A) (A) (A) (A) (A)
                 (A) (A) (A) (A) (A) (A) (A) (A) (A) (A) (A) (A)
                 (A) (A) (A) (A) (A) (A) (A) (A) (A) (A) (A) (A)
                 (A) (A) (A) (A) (A) (A) (A) (A) (A) (A) (A) (A)
                 (A) (A) (A) (A) (A) (A) (A) (A) (A) (A) (A) (A)
                 (A) (A) (A) (A) (A) (A) (A) (A) (A) (A) (A) (A)
                 (A) (A) (A) (A) (A) (A) (A) (A) (A) (A) (A) (A)
                 (A) (A) (A) (A) (A) (A) (A) (A) (A) (A) (A) (A)
                 (A) (A) (A) (A) (A) (A) (A) (A) (A) (A) (A) (A)
                 (A) (A) (A) (A) (A) (A) (A) (A) (A) (A) (A) (A)
                 (A) (A) (A) (A) (A) (A) (A) (A) (A) (A) (A) (A)
                 (A) (A) (A) (A) (A) (A) (A) (A) (A) (A) (A) (A)
                 (A) (A) (A) (A) (A) (A) (A) (A) (A) (A) (A) (A)
                 (A) (A) (A) (A) (A) (A) (A) (A) (A) (A) (A) (A)
                 (A) (A) (A) (A) (A) (A) (A) (A) (A) (A) (A) (A)
                 (A) (A) (A) (A) (A) (A) (A) (A) (A) (A) (A) (A)
                 (A) (A) (A) (A) (A) (A) (A) (A) (A) (A) (A) (A)
                 (A) (A) (A) (A) (A) (A) (A) (A) (A) (A) (A) (A)
                 (A) (A) (A) (A) (A) (A) (A) (A) (A) (A) (A) (A)
                 (A) (A) (A) (A) (A) (A) (A) (A) (A) (A) (A) (A)
                 (A) (A) (A) (A) (A) (A) (A) (A) (A) (A) (A) (A)
                 (A) (A) (A) (A) (A) (A) (A) (A) (A) (A) (A) (A)
                 (A) (A) (A) (A) (A) (A) (A) (A) (A) (A) (A) (A)
                 (A) (A) (A) (A) (A) (A) (A) (A) (A) (A) (A) (A)
                 (A) (A) (A) (A) (A) (A) (A) (A) (A) (A) (A) (A)
                 (A) (A) (A) (A) (A) (A) (A) (A) (A) (A) (A) (A)
                 (A) (A) (A) (A) (A) (A) (A) (A) (A) (A) (A) (A)
                 (A) (A) (A) (A) (A) (A) (A) (A) (A) (A) (A) (A)
                 (A) (A) (A) (A) (A) (A) (A) (A) (A) (A) (A) (A)
                 (A) (A) (A) (A) (A) (A) (A) (A) (A) (A) (A) (A)
                 (A) (A) (A) (A) (A) (A) (A) (A) (A) (A) (A) (A)
                 (A) (A) (A) (A) (A) (A) (A) (A) (A) (A) (A) (A)
                 (A) (A) (A) (A) (A) (A) (A) (A) (A) (A) (A) (A)
                 (A) (A) (A) (A) (A) (A) (A) (A) (A) (A) (A) (A)
                 (A) (A) (A) (A) (A) (A) (A) (A) (A) (A) (A) (A)
                 (A) (A) (A) (A) (A) (A) (A) (A) (A) (A) (A) (A)
                 (A) (A) (A) (A) (A) (A) (A) (A) (A) (A) (A) (A)
                 (A) (A) (A) (A) (A) (A) (A) (A) (A) (A) (A) (A)
                 (A) (A) (A) (A) (A) (A) (A) (A) (A) (A) (A) (A)
                 (A) (A) (A) (A) (A) (A) (A) (A) (A) (A) (A) (A)
                 (A) (A) (A) (A) (A) (A) (A) (A) (A) (A) (A) (A)
                 (A) (A) (A) (A) (A) (A) (A) (A) (A) (A) (A) (A)
                 (A) (A) (A) (A) (A) (A) (A) (A) (A) (A) (A) (A)
                 (A) (A) (A) (A) (A) (A) (A) (A) (A) (A) (A) (A)
                 (A) (A) (A) (A) (A) (A) (A) (A) (A) (A) (A) (A)
                 (A) (A) (A) (A) (A) (A) (A) (A) (A) (A) (A) (A)
                 (A) (A) (A) (A) (A) (A) (A) (A) (A) (A) (A) (A)
                 (A) (A) (A) (A) (A) (A) (A) (A) (A) (A) (A) (A)
                 (A) (A) (A) (A) (A) (A) (A) (A) (A) (A) (A) (A)
                 (A) (A) (A) (A) (A) (A) (A) (A) (A) (A) (A) (A)
                 (A) (A) (A) (A) (A) (A) (A) (A) (A) (A) (A) (A)
                 (A) (A) (A) (A) (A) (A) (A) (A) (A) (A) (A) (A)
                 (A) (A) (A) (A) (A) (A) (A) (A) (A) (A) (A) (A)
                 (A) (A) (A) (A) (A) (A) (A) (A) (A) (A) (A) (A)
                 (A) (A) (A) (A) (A) (A) (A) (A) (A) (A) (A) (A)
                 (A) (A) (A) (A) (A) (A) (A) (A) (A) (A) (A) (A)
                 (A) (A) (A) (A) (A) (A) (A) (A) (A) (A) (A) (A)
                 (A) (A) (A) (A) (A) (A) (A) (A) (A) (A) (A) (A)
                 (A) (A) (A) (A) (A) (A) (A) (A) (A) (A) (A) (A)
                 (A) (A) (A) (A) (A) (A) (A) (A) (A) (A) (A) (A)
                 (A) (A) (A) (A) (A) (A) (A) (A) (A) (A) (A) (A)
                 (A) (A) (A) (A) (A) (A) (A) (A) (A) (A) (A) (A)
                 (A) (A) (A) (A) (A) (A) (A) (A) (A) (A) (A) (A)
                 (A) (A) (A) (A) (A) (A) (A) (A) (A) (A) (A) (A)
                 (A) (A) (A) (A) (A) (A) (A) (A) (A) (A) (A) (A)
                 (A) (A) (A) (A) (A) (A) (A) (A) (A) (A) (A) (A)
                 (A) (A) (A) (A) (A) (A) (A) (A) (A) (A) (A) (A)
                 (A) (A) (A) (A) (A) (A) (A) (A) (A) (A) (A) (A)
                 (A) (A) (A) (A) (A) (A) (A) (A) (A) (A) (A) (A)
                 (A) (A) (A) (A) (A) (A) (A) (A) (A) (A) (A) (A)
                 (A) (A) (A) (A) (A) (A) (A) (A) (A) (A) (A) (A)
                 (A) (A) (A) (A) (A) (A) (A) (A) (A) (A) (A) (A)
                 (A) (A) (A) (A) (A) (A) (A) (A) (A) (A) (A) (A)
                 (A) (A) (A) (A) (A) (A) (A) (A) (A) (A) (A) (A)
                 (A) (A) (A) (A) (A) (A) (A) (A) (A) (A) (A) (A)
                 (A) (A) (A) (A) (A) (A) (A) (A) (A) (A) (A) (A)
                 (A) (A) (A) (A) (A) (A) (A) (A) (A) (A) (A) (A)
                 (A) (A) (A) (A) (A) (A) (A) (A) (A) (A) (A) (A)
                 (A) (A) (A) (A) (A) (A) (A) (A) (A) (A) (A) (A)
                 (A) (A) (A) (A) (A) (A) (A) (A) (A) (A) (A) (A)
                 (A) (A) (A) (A) (A) (A) (A) (A) (A) (A) (A) (A)
                 (A) (A) (A) (A) (A) (A) (A) (A) (A) (A) (A) (A)
                 (A) (A) (A) (A) (A) (A) (A) (A) (A) (A) (A) (A)
                 (A) (A) (A) (A) (A) (A) (A) (A) (A) (A) (A) (A)
                 (A) (A) (A) (A) (A) (A) (A) (A) (A) (A) (A) (A)
                 (A) (A) (A) (A) (A) (A) (A) (A) (A) (A) (A) (A)
                 (A) (A) (A) (A) (A) (A) (A) (A) (A) (A) (A) (A)
                 (A) (A) (A) (A) (A) (A) (A) (A) (A) (A) (A) (A)
                 (A) (A) (A) (A) (A) (A) (A) (A) (A) (A) (A) (A)
                 (A) (A) (A) (A) (A) (A) (A) (A) (A) (A) (A) (A)
                 (A) (A) (A) (A) (A) (A) (A) (A) (A) (A) (A) (A)
                 (A) (A) (A) (A) (A) (A) (A) (A) (A) (A) (A) (A)
                 (A) (A) (A) (A) (A) (A) (A) (A) (A) (A) (A) (A)
                 (A) (A) (A) (A) (A) (A) (A) (A) (A) (A) (A) (A)
                 (A) (A) (A) (A) (A) (A) (A) (A) (A) (A) (A) (A)
                 (A) (A) (A) (A) (A) (A) (A) (A) (A) (A) (A) (A)
                 (A) (A) (A) (A) (A) (A) (A) (A) (A) (A) (A) (A)
                 (A) (A) (A) (A) (A) (A) (A) (A) (A) (A) (A) (A)
                 (A) (A) (A) (A) (A) (A) (A) (A) (A) (A) (A) (A)
                 (A) (A) (A) (A) (A) (A) (A) (A) (A) (A) (A) (A)
                 (A) (A) (A) (A) (A) (A) (A) (A) (A) (A) (A) (A)
                 (A) (A) (A) (A) (A) (A) (A) (A) (A) (A) (A) (A)
                 (A) (A) (A) (A) (A) (A) (A) (A) (A) (A) (A) (A)
                 (A) (A) (A) (A) (A) (A) (A) (A) (A) (A) (A) (A)
                 (A) (A) (A) (A) (A) (A) (A) (A) (A) (A) (A) (A)
                 (A) (A) (A) (A) (A) (A) (A) (A) (A) (A) (A) (A)
                 (A) (A) (A) (A) (A) (A) (A) (A) (A) (A) (A) (A)
                 (A) (A) (A) (A) (A) (A) (A) (A) (A) (A) (A) (A)
                 (A) (A) (A) (A) (A) (A) (A) (A) (A) (A) (A) (A)
                 (A) (A) (A) (A) (A) (A) (A) (A) (A) (A) (A) (A)
                 (A) (A) (A) (A) (A) (A) (A) (A) (A) (A) (A) (A)
                 (A) (A) (A) (A) (A) (A) (A) (A) (A) (A) (A) (A)
                 (A) (A) (A) (A) (A) (A) (A) (A) (A) (A) (A) (A)
                 (A) (A) (A) (A) (A) (A) (A) (A) (A) (A) (A) (A)
                 (A) (A) (A) (A) (A) (A) (A) (A) (A) (A) (A) (A)
                 (A) (A) (A) (A) (A) (A) (A) (A) (A) (A) (A) (A)
                 (A) (A) (A) (A) (A) (A) (A) (A) (A) (A) (A) (A)
                 (A) (A) (A) (A) (A) (A) (A) (A) (A) (A) (A) (A)
                 (A) (A) (A) (A) (A) (A) (A) (A) (A) (A) (A) (A)
                 (A) (A) (A) (A) (A) (A) (A) (A) (A) (A) (A) (A)
                 (A) (A)
 The electronic state is 2-A.
 Alpha  occ. eigenvalues -- -256.45181 -30.22575 -26.05470 -26.05007 -26.04806
 Alpha  occ. eigenvalues --  -19.37496 -19.35034 -19.33151 -19.25911 -19.25767
 Alpha  occ. eigenvalues --  -14.52732 -14.51037 -14.48345 -14.48326 -14.48261
 Alpha  occ. eigenvalues --  -14.47991 -10.43364 -10.42984 -10.41090 -10.40198
 Alpha  occ. eigenvalues --  -10.37435 -10.37273 -10.37130 -10.36346 -10.36134
 Alpha  occ. eigenvalues --  -10.35874 -10.35495 -10.35448 -10.35340 -10.35305
 Alpha  occ. eigenvalues --  -10.35168 -10.35003 -10.34630 -10.33321 -10.32786
 Alpha  occ. eigenvalues --  -10.32755 -10.32672 -10.32430 -10.32403 -10.32268
 Alpha  occ. eigenvalues --  -10.32220 -10.32135 -10.32084 -10.32044 -10.31927
 Alpha  occ. eigenvalues --  -10.31911 -10.31850 -10.31795 -10.31679 -10.30673
 Alpha  occ. eigenvalues --  -10.30504 -10.30438 -10.30233 -10.30077 -10.29517
 Alpha  occ. eigenvalues --   -3.56492  -2.32697  -2.31760  -2.31415  -1.28670
 Alpha  occ. eigenvalues --   -1.24845  -1.22064  -1.14370  -1.10396  -1.10064
 Alpha  occ. eigenvalues --   -1.09038  -1.08084  -1.08025  -1.07040  -1.00535
 Alpha  occ. eigenvalues --   -0.97252  -0.94767  -0.93363  -0.93102  -0.92579
 Alpha  occ. eigenvalues --   -0.92303  -0.91430  -0.90822  -0.88694  -0.88402
 Alpha  occ. eigenvalues --   -0.88077  -0.86528  -0.86177  -0.84801  -0.83154
 Alpha  occ. eigenvalues --   -0.82051  -0.81126  -0.80607  -0.79979  -0.78722
 Alpha  occ. eigenvalues --   -0.78444  -0.77333  -0.76383  -0.75630  -0.74779
 Alpha  occ. eigenvalues --   -0.73351  -0.72969  -0.70772  -0.70210  -0.69817
 Alpha  occ. eigenvalues --   -0.68157  -0.67564  -0.67224  -0.66378  -0.65792
 Alpha  occ. eigenvalues --   -0.64909  -0.64382  -0.63323  -0.62902  -0.62195
 Alpha  occ. eigenvalues --   -0.61732  -0.61039  -0.60079  -0.59657  -0.59440
 Alpha  occ. eigenvalues --   -0.59385  -0.58979  -0.58399  -0.58113  -0.57963
 Alpha  occ. eigenvalues --   -0.57258  -0.56928  -0.56804  -0.56233  -0.55994
 Alpha  occ. eigenvalues --   -0.55920  -0.55621  -0.55602  -0.54988  -0.54852
 Alpha  occ. eigenvalues --   -0.54425  -0.53878  -0.53732  -0.53325  -0.53109
 Alpha  occ. eigenvalues --   -0.53066  -0.52653  -0.52284  -0.52130  -0.51863
 Alpha  occ. eigenvalues --   -0.51723  -0.51417  -0.51076  -0.50916  -0.50793
 Alpha  occ. eigenvalues --   -0.50323  -0.50290  -0.50230  -0.50204  -0.49986
 Alpha  occ. eigenvalues --   -0.49618  -0.49216  -0.49077  -0.48908  -0.48321
 Alpha  occ. eigenvalues --   -0.47772  -0.47667  -0.47545  -0.47217  -0.46694
 Alpha  occ. eigenvalues --   -0.46315  -0.46247  -0.45715  -0.45462  -0.45238
 Alpha  occ. eigenvalues --   -0.44519  -0.43736  -0.43653  -0.43314  -0.42744
 Alpha  occ. eigenvalues --   -0.42483  -0.40981  -0.40512  -0.40469  -0.40234
 Alpha  occ. eigenvalues --   -0.39328  -0.38636  -0.37613  -0.36247  -0.35731
 Alpha  occ. eigenvalues --   -0.35548  -0.35237  -0.34978  -0.33597  -0.32654
 Alpha  occ. eigenvalues --   -0.32110  -0.31719  -0.31171  -0.29972  -0.29842
 Alpha virt. eigenvalues --   -0.24088  -0.17730  -0.16996  -0.12337  -0.09552
 Alpha virt. eigenvalues --   -0.09075  -0.09034  -0.08056  -0.07532  -0.07377
 Alpha virt. eigenvalues --   -0.07256  -0.06540  -0.06267  -0.05868  -0.05397
 Alpha virt. eigenvalues --   -0.04243  -0.03823  -0.03504  -0.03364  -0.03110
 Alpha virt. eigenvalues --   -0.02660  -0.02139  -0.01991  -0.01705  -0.01503
 Alpha virt. eigenvalues --   -0.00943  -0.00656  -0.00237   0.00104   0.00376
 Alpha virt. eigenvalues --    0.00724   0.01099   0.01421   0.01444   0.01542
 Alpha virt. eigenvalues --    0.02197   0.02525   0.02714   0.03007   0.03236
 Alpha virt. eigenvalues --    0.03274   0.03771   0.03951   0.04197   0.04252
 Alpha virt. eigenvalues --    0.04497   0.04592   0.04946   0.05093   0.05229
 Alpha virt. eigenvalues --    0.05321   0.05651   0.05711   0.05841   0.06080
 Alpha virt. eigenvalues --    0.06212   0.06462   0.06885   0.07090   0.07257
 Alpha virt. eigenvalues --    0.07293   0.07619   0.07736   0.08251   0.08317
 Alpha virt. eigenvalues --    0.08702   0.08846   0.09023   0.09450   0.09911
 Alpha virt. eigenvalues --    0.10057   0.10070   0.10267   0.10375   0.10658
 Alpha virt. eigenvalues --    0.10946   0.11111   0.11423   0.11679   0.11939
 Alpha virt. eigenvalues --    0.12067   0.12261   0.12421   0.12476   0.12831
 Alpha virt. eigenvalues --    0.13074   0.13154   0.13343   0.13926   0.13954
 Alpha virt. eigenvalues --    0.14281   0.14354   0.14703   0.14808   0.15273
 Alpha virt. eigenvalues --    0.15644   0.15674   0.15993   0.16198   0.16235
 Alpha virt. eigenvalues --    0.16371   0.16983   0.17039   0.17133   0.17195
 Alpha virt. eigenvalues --    0.17504   0.17566   0.17837   0.18233   0.18388
 Alpha virt. eigenvalues --    0.18639   0.18882   0.19348   0.19456   0.19679
 Alpha virt. eigenvalues --    0.19998   0.20207   0.20368   0.20594   0.20917
 Alpha virt. eigenvalues --    0.20995   0.21058   0.21486   0.21560   0.22176
 Alpha virt. eigenvalues --    0.22299   0.22496   0.22656   0.22998   0.23255
 Alpha virt. eigenvalues --    0.23370   0.23629   0.23746   0.24137   0.24184
 Alpha virt. eigenvalues --    0.24535   0.24666   0.25245   0.25327   0.25464
 Alpha virt. eigenvalues --    0.25645   0.26108   0.26280   0.26400   0.26897
 Alpha virt. eigenvalues --    0.27004   0.27492   0.27850   0.28003   0.28107
 Alpha virt. eigenvalues --    0.28396   0.28781   0.28889   0.29049   0.29424
 Alpha virt. eigenvalues --    0.29486   0.29668   0.29884   0.30177   0.30477
 Alpha virt. eigenvalues --    0.30506   0.31021   0.31207   0.31615   0.31839
 Alpha virt. eigenvalues --    0.31957   0.32049   0.32138   0.32248   0.32461
 Alpha virt. eigenvalues --    0.32786   0.32826   0.33079   0.33339   0.33435
 Alpha virt. eigenvalues --    0.33737   0.33885   0.33953   0.34191   0.34363
 Alpha virt. eigenvalues --    0.34397   0.34835   0.34983   0.35025   0.35310
 Alpha virt. eigenvalues --    0.35394   0.35628   0.36006   0.36248   0.36329
 Alpha virt. eigenvalues --    0.36365   0.36561   0.36920   0.37154   0.37284
 Alpha virt. eigenvalues --    0.37355   0.37574   0.37662   0.37851   0.38223
 Alpha virt. eigenvalues --    0.38352   0.38426   0.38537   0.38736   0.39015
 Alpha virt. eigenvalues --    0.39127   0.39240   0.39458   0.39640   0.39959
 Alpha virt. eigenvalues --    0.40177   0.40469   0.40570   0.40867   0.40917
 Alpha virt. eigenvalues --    0.41056   0.41283   0.41460   0.41511   0.41812
 Alpha virt. eigenvalues --    0.42004   0.42072   0.42729   0.42793   0.42862
 Alpha virt. eigenvalues --    0.42960   0.43415   0.43644   0.43784   0.43893
 Alpha virt. eigenvalues --    0.44011   0.44341   0.44525   0.44690   0.45163
 Alpha virt. eigenvalues --    0.45511   0.45723   0.45815   0.46144   0.46436
 Alpha virt. eigenvalues --    0.46675   0.46823   0.47023   0.47229   0.47539
 Alpha virt. eigenvalues --    0.47837   0.48077   0.48129   0.48497   0.48639
 Alpha virt. eigenvalues --    0.48868   0.48974   0.49107   0.49325   0.49793
 Alpha virt. eigenvalues --    0.49956   0.50082   0.50184   0.50743   0.50886
 Alpha virt. eigenvalues --    0.51348   0.51515   0.51698   0.51785   0.52199
 Alpha virt. eigenvalues --    0.52422   0.52465   0.52753   0.52972   0.53236
 Alpha virt. eigenvalues --    0.53355   0.53665   0.54092   0.54161   0.54296
 Alpha virt. eigenvalues --    0.54489   0.54851   0.55071   0.55443   0.55930
 Alpha virt. eigenvalues --    0.56008   0.56206   0.56421   0.56471   0.56872
 Alpha virt. eigenvalues --    0.57076   0.57189   0.57490   0.57876   0.58076
 Alpha virt. eigenvalues --    0.58428   0.58581   0.58862   0.59088   0.59586
 Alpha virt. eigenvalues --    0.59797   0.60144   0.60533   0.60667   0.60944
 Alpha virt. eigenvalues --    0.61108   0.61428   0.62052   0.62106   0.62384
 Alpha virt. eigenvalues --    0.62534   0.62721   0.62954   0.63240   0.63413
 Alpha virt. eigenvalues --    0.63787   0.63982   0.64334   0.64635   0.64828
 Alpha virt. eigenvalues --    0.65070   0.65735   0.65969   0.66224   0.66329
 Alpha virt. eigenvalues --    0.66702   0.67074   0.67513   0.67901   0.68209
 Alpha virt. eigenvalues --    0.68328   0.68764   0.69212   0.69282   0.69583
 Alpha virt. eigenvalues --    0.69958   0.70249   0.70732   0.70993   0.71217
 Alpha virt. eigenvalues --    0.71514   0.71794   0.72045   0.72705   0.72863
 Alpha virt. eigenvalues --    0.73026   0.73083   0.73545   0.74182   0.74376
 Alpha virt. eigenvalues --    0.74581   0.74784   0.74994   0.75290   0.75545
 Alpha virt. eigenvalues --    0.76046   0.76362   0.76484   0.76737   0.77160
 Alpha virt. eigenvalues --    0.77598   0.77924   0.78178   0.78746   0.78870
 Alpha virt. eigenvalues --    0.78996   0.79308   0.79560   0.79720   0.80196
 Alpha virt. eigenvalues --    0.80678   0.81155   0.81623   0.82007   0.82108
 Alpha virt. eigenvalues --    0.82292   0.82791   0.82876   0.83028   0.83552
 Alpha virt. eigenvalues --    0.83757   0.84117   0.84222   0.84310   0.84890
 Alpha virt. eigenvalues --    0.85223   0.85398   0.85779   0.85966   0.86039
 Alpha virt. eigenvalues --    0.86369   0.86503   0.86809   0.87372   0.87635
 Alpha virt. eigenvalues --    0.87725   0.87891   0.88292   0.88375   0.88549
 Alpha virt. eigenvalues --    0.88741   0.89086   0.89361   0.89555   0.89900
 Alpha virt. eigenvalues --    0.90286   0.90531   0.90675   0.90978   0.91262
 Alpha virt. eigenvalues --    0.91665   0.91935   0.92030   0.92461   0.92880
 Alpha virt. eigenvalues --    0.93114   0.93353   0.93871   0.94223   0.94331
 Alpha virt. eigenvalues --    0.94810   0.95041   0.95265   0.95883   0.96176
 Alpha virt. eigenvalues --    0.96583   0.97013   0.97216   0.97583   0.97910
 Alpha virt. eigenvalues --    0.98226   0.98512   0.99069   0.99254   0.99571
 Alpha virt. eigenvalues --    1.00172   1.00281   1.00499   1.00648   1.01080
 Alpha virt. eigenvalues --    1.01312   1.01519   1.01583   1.02761   1.02840
 Alpha virt. eigenvalues --    1.03180   1.03502   1.03823   1.04289   1.04410
 Alpha virt. eigenvalues --    1.05086   1.05619   1.05708   1.06402   1.06550
 Alpha virt. eigenvalues --    1.06753   1.07090   1.07286   1.07834   1.07956
 Alpha virt. eigenvalues --    1.08526   1.08884   1.09294   1.09804   1.10221
 Alpha virt. eigenvalues --    1.10371   1.10645   1.11221   1.11415   1.11923
 Alpha virt. eigenvalues --    1.12407   1.12572   1.13227   1.13479   1.14045
 Alpha virt. eigenvalues --    1.14428   1.15030   1.15097   1.15155   1.15543
 Alpha virt. eigenvalues --    1.15762   1.16169   1.16354   1.16912   1.17433
 Alpha virt. eigenvalues --    1.17584   1.18049   1.18214   1.18365   1.18543
 Alpha virt. eigenvalues --    1.19187   1.19432   1.19793   1.20486   1.20778
 Alpha virt. eigenvalues --    1.21365   1.21642   1.22488   1.22776   1.23208
 Alpha virt. eigenvalues --    1.23778   1.23918   1.24447   1.24511   1.24853
 Alpha virt. eigenvalues --    1.25363   1.25470   1.25911   1.25968   1.26256
 Alpha virt. eigenvalues --    1.27247   1.27582   1.27921   1.28271   1.28874
 Alpha virt. eigenvalues --    1.29135   1.29261   1.29832   1.30223   1.30369
 Alpha virt. eigenvalues --    1.30649   1.30996   1.31886   1.32079   1.32399
 Alpha virt. eigenvalues --    1.32626   1.32796   1.33498   1.33523   1.34101
 Alpha virt. eigenvalues --    1.34318   1.35367   1.35638   1.36158   1.36903
 Alpha virt. eigenvalues --    1.37315   1.37566   1.37809   1.37890   1.38418
 Alpha virt. eigenvalues --    1.39010   1.39278   1.39378   1.39612   1.39760
 Alpha virt. eigenvalues --    1.40090   1.40644   1.40997   1.41615   1.41955
 Alpha virt. eigenvalues --    1.42292   1.42428   1.42850   1.43237   1.43442
 Alpha virt. eigenvalues --    1.43717   1.44069   1.44416   1.44441   1.44826
 Alpha virt. eigenvalues --    1.45145   1.45360   1.45776   1.45826   1.46206
 Alpha virt. eigenvalues --    1.46504   1.46762   1.46997   1.47200   1.47752
 Alpha virt. eigenvalues --    1.47931   1.48039   1.48440   1.48475   1.48835
 Alpha virt. eigenvalues --    1.49022   1.49268   1.49518   1.49700   1.50080
 Alpha virt. eigenvalues --    1.50308   1.50412   1.50800   1.51358   1.51514
 Alpha virt. eigenvalues --    1.51841   1.51910   1.52102   1.52439   1.52677
 Alpha virt. eigenvalues --    1.52915   1.53075   1.53537   1.53771   1.54102
 Alpha virt. eigenvalues --    1.54348   1.54746   1.54803   1.55213   1.55479
 Alpha virt. eigenvalues --    1.55602   1.55972   1.56251   1.56466   1.56646
 Alpha virt. eigenvalues --    1.57018   1.57326   1.57611   1.58027   1.58272
 Alpha virt. eigenvalues --    1.58372   1.58699   1.59135   1.59442   1.59750
 Alpha virt. eigenvalues --    1.59886   1.60197   1.60465   1.61032   1.61358
 Alpha virt. eigenvalues --    1.61755   1.62111   1.62205   1.62443   1.62804
 Alpha virt. eigenvalues --    1.63151   1.63551   1.63912   1.63944   1.64168
 Alpha virt. eigenvalues --    1.64661   1.64820   1.65209   1.66058   1.66198
 Alpha virt. eigenvalues --    1.66383   1.66859   1.67445   1.67671   1.68036
 Alpha virt. eigenvalues --    1.68372   1.68395   1.68944   1.69053   1.69620
 Alpha virt. eigenvalues --    1.69775   1.70385   1.70992   1.71444   1.71929
 Alpha virt. eigenvalues --    1.72219   1.72814   1.73421   1.73780   1.74015
 Alpha virt. eigenvalues --    1.74885   1.75040   1.75465   1.75904   1.76138
 Alpha virt. eigenvalues --    1.76591   1.77043   1.77219   1.77439   1.77792
 Alpha virt. eigenvalues --    1.78315   1.78508   1.78958   1.79393   1.79556
 Alpha virt. eigenvalues --    1.79905   1.80232   1.80696   1.80915   1.81554
 Alpha virt. eigenvalues --    1.81633   1.81918   1.82251   1.82689   1.83211
 Alpha virt. eigenvalues --    1.83639   1.83977   1.84231   1.84436   1.85110
 Alpha virt. eigenvalues --    1.85483   1.85876   1.86854   1.87008   1.87138
 Alpha virt. eigenvalues --    1.87707   1.88074   1.88249   1.88458   1.88909
 Alpha virt. eigenvalues --    1.89253   1.89441   1.89766   1.90171   1.90597
 Alpha virt. eigenvalues --    1.91506   1.91875   1.91987   1.92365   1.92541
 Alpha virt. eigenvalues --    1.93030   1.93104   1.93880   1.94066   1.94476
 Alpha virt. eigenvalues --    1.94930   1.95116   1.95637   1.96387   1.96902
 Alpha virt. eigenvalues --    1.97526   1.97866   1.98166   1.98484   1.98776
 Alpha virt. eigenvalues --    1.99312   1.99530   1.99725   2.00574   2.00780
 Alpha virt. eigenvalues --    2.01282   2.01555   2.01942   2.02191   2.02324
 Alpha virt. eigenvalues --    2.02765   2.03048   2.03253   2.03706   2.04043
 Alpha virt. eigenvalues --    2.04192   2.04630   2.04802   2.05402   2.05804
 Alpha virt. eigenvalues --    2.05958   2.06474   2.06790   2.07391   2.07625
 Alpha virt. eigenvalues --    2.07882   2.08434   2.08784   2.09247   2.09568
 Alpha virt. eigenvalues --    2.09969   2.10170   2.10416   2.10683   2.11219
 Alpha virt. eigenvalues --    2.11965   2.12118   2.12799   2.13031   2.13106
 Alpha virt. eigenvalues --    2.13709   2.14082   2.14482   2.15730   2.15894
 Alpha virt. eigenvalues --    2.16247   2.16703   2.16991   2.17260   2.17527
 Alpha virt. eigenvalues --    2.17974   2.18674   2.18942   2.19512   2.19782
 Alpha virt. eigenvalues --    2.19971   2.20267   2.20892   2.21185   2.21773
 Alpha virt. eigenvalues --    2.21950   2.22729   2.23270   2.23520   2.23685
 Alpha virt. eigenvalues --    2.24186   2.24349   2.25091   2.25422   2.25747
 Alpha virt. eigenvalues --    2.26391   2.27197   2.27431   2.27701   2.28416
 Alpha virt. eigenvalues --    2.29058   2.29332   2.29715   2.29812   2.30237
 Alpha virt. eigenvalues --    2.30656   2.30802   2.31069   2.31234   2.31635
 Alpha virt. eigenvalues --    2.32026   2.32294   2.32610   2.32719   2.33139
 Alpha virt. eigenvalues --    2.33625   2.34033   2.34351   2.34752   2.35378
 Alpha virt. eigenvalues --    2.35685   2.36058   2.36540   2.37016   2.37211
 Alpha virt. eigenvalues --    2.37514   2.38074   2.38314   2.38864   2.39306
 Alpha virt. eigenvalues --    2.39787   2.40089   2.40535   2.40604   2.41824
 Alpha virt. eigenvalues --    2.42137   2.42459   2.43087   2.43859   2.44047
 Alpha virt. eigenvalues --    2.44181   2.44424   2.45304   2.45675   2.46014
 Alpha virt. eigenvalues --    2.46136   2.46619   2.46646   2.47017   2.47359
 Alpha virt. eigenvalues --    2.47833   2.48247   2.48663   2.48987   2.49194
 Alpha virt. eigenvalues --    2.49729   2.49804   2.50166   2.50366   2.50500
 Alpha virt. eigenvalues --    2.50681   2.51092   2.51394   2.51821   2.52151
 Alpha virt. eigenvalues --    2.52368   2.52752   2.52866   2.53574   2.54051
 Alpha virt. eigenvalues --    2.54153   2.54536   2.54737   2.54914   2.55290
 Alpha virt. eigenvalues --    2.55735   2.56324   2.56504   2.56779   2.57281
 Alpha virt. eigenvalues --    2.57469   2.58019   2.58628   2.58770   2.59178
 Alpha virt. eigenvalues --    2.59429   2.59825   2.60144   2.60329   2.60648
 Alpha virt. eigenvalues --    2.60800   2.61198   2.61570   2.61889   2.62203
 Alpha virt. eigenvalues --    2.62409   2.62819   2.63384   2.63802   2.64003
 Alpha virt. eigenvalues --    2.64362   2.64533   2.64805   2.65112   2.65299
 Alpha virt. eigenvalues --    2.66165   2.66509   2.66805   2.66929   2.67469
 Alpha virt. eigenvalues --    2.67778   2.67841   2.68321   2.68625   2.69281
 Alpha virt. eigenvalues --    2.69377   2.69738   2.70051   2.70224   2.70796
 Alpha virt. eigenvalues --    2.71023   2.71203   2.71952   2.72166   2.72300
 Alpha virt. eigenvalues --    2.72950   2.73106   2.73418   2.73868   2.74213
 Alpha virt. eigenvalues --    2.74377   2.75016   2.75477   2.75652   2.76167
 Alpha virt. eigenvalues --    2.76423   2.76518   2.76854   2.77313   2.77553
 Alpha virt. eigenvalues --    2.78008   2.78273   2.78516   2.78964   2.79709
 Alpha virt. eigenvalues --    2.80089   2.80298   2.80548   2.80834   2.81189
 Alpha virt. eigenvalues --    2.81963   2.82178   2.82356   2.82710   2.82967
 Alpha virt. eigenvalues --    2.83157   2.83772   2.84008   2.84039   2.84123
 Alpha virt. eigenvalues --    2.84407   2.84566   2.85157   2.85418   2.85800
 Alpha virt. eigenvalues --    2.86076   2.86329   2.86498   2.86878   2.87342
 Alpha virt. eigenvalues --    2.87813   2.88416   2.88553   2.88975   2.89251
 Alpha virt. eigenvalues --    2.89371   2.89559   2.89848   2.90018   2.90621
 Alpha virt. eigenvalues --    2.90895   2.91184   2.91481   2.91627   2.92030
 Alpha virt. eigenvalues --    2.92194   2.92473   2.92862   2.93235   2.93699
 Alpha virt. eigenvalues --    2.93843   2.94168   2.94540   2.94891   2.95163
 Alpha virt. eigenvalues --    2.95569   2.95801   2.95862   2.96169   2.96617
 Alpha virt. eigenvalues --    2.96849   2.97043   2.97649   2.97882   2.98037
 Alpha virt. eigenvalues --    2.98252   2.98889   2.99165   2.99237   2.99586
 Alpha virt. eigenvalues --    2.99947   3.00114   3.00226   3.00676   3.01152
 Alpha virt. eigenvalues --    3.01613   3.01758   3.02037   3.02270   3.02814
 Alpha virt. eigenvalues --    3.03146   3.03234   3.03553   3.03679   3.03903
 Alpha virt. eigenvalues --    3.04055   3.04467   3.04584   3.04833   3.05216
 Alpha virt. eigenvalues --    3.05513   3.05823   3.06365   3.06643   3.07035
 Alpha virt. eigenvalues --    3.07088   3.07354   3.07597   3.07821   3.08227
 Alpha virt. eigenvalues --    3.08612   3.08765   3.09187   3.09456   3.09807
 Alpha virt. eigenvalues --    3.09974   3.10068   3.10418   3.10798   3.11093
 Alpha virt. eigenvalues --    3.11182   3.11658   3.11899   3.12175   3.12386
 Alpha virt. eigenvalues --    3.12682   3.13125   3.13356   3.13551   3.13912
 Alpha virt. eigenvalues --    3.14178   3.14539   3.14627   3.15101   3.15380
 Alpha virt. eigenvalues --    3.15612   3.15782   3.15895   3.16149   3.16226
 Alpha virt. eigenvalues --    3.16836   3.16915   3.17073   3.17279   3.17605
 Alpha virt. eigenvalues --    3.17823   3.18121   3.18319   3.18637   3.18950
 Alpha virt. eigenvalues --    3.19531   3.19687   3.19702   3.19910   3.20454
 Alpha virt. eigenvalues --    3.20714   3.21073   3.21335   3.21620   3.21813
 Alpha virt. eigenvalues --    3.21887   3.22457   3.22809   3.22951   3.23003
 Alpha virt. eigenvalues --    3.23141   3.23582   3.23868   3.24055   3.24345
 Alpha virt. eigenvalues --    3.24683   3.24897   3.25005   3.25284   3.25662
 Alpha virt. eigenvalues --    3.25987   3.26402   3.26667   3.26730   3.26945
 Alpha virt. eigenvalues --    3.27037   3.27550   3.28104   3.28461   3.28551
 Alpha virt. eigenvalues --    3.28843   3.29151   3.29442   3.29657   3.29928
 Alpha virt. eigenvalues --    3.30095   3.30562   3.30734   3.31097   3.31749
 Alpha virt. eigenvalues --    3.31774   3.31976   3.32216   3.32384   3.32627
 Alpha virt. eigenvalues --    3.32991   3.33342   3.33608   3.33735   3.34053
 Alpha virt. eigenvalues --    3.34232   3.34549   3.35288   3.35607   3.35998
 Alpha virt. eigenvalues --    3.36182   3.36374   3.36591   3.36884   3.37069
 Alpha virt. eigenvalues --    3.37174   3.37870   3.38346   3.38473   3.38941
 Alpha virt. eigenvalues --    3.39095   3.39415   3.39974   3.40220   3.40517
 Alpha virt. eigenvalues --    3.40666   3.41144   3.41555   3.41856   3.42274
 Alpha virt. eigenvalues --    3.42368   3.42803   3.43100   3.43462   3.43602
 Alpha virt. eigenvalues --    3.44229   3.44574   3.44984   3.45635   3.45682
 Alpha virt. eigenvalues --    3.46164   3.46646   3.46983   3.47214   3.47668
 Alpha virt. eigenvalues --    3.48041   3.48299   3.48746   3.49141   3.49210
 Alpha virt. eigenvalues --    3.49789   3.50054   3.50188   3.50557   3.50906
 Alpha virt. eigenvalues --    3.51050   3.51421   3.51736   3.52244   3.52456
 Alpha virt. eigenvalues --    3.53115   3.53365   3.53870   3.54410   3.54624
 Alpha virt. eigenvalues --    3.55358   3.55529   3.55656   3.56148   3.56489
 Alpha virt. eigenvalues --    3.56737   3.57652   3.58284   3.58361   3.58505
 Alpha virt. eigenvalues --    3.58890   3.59290   3.59460   3.60588   3.60610
 Alpha virt. eigenvalues --    3.60825   3.61490   3.61774   3.61929   3.62213
 Alpha virt. eigenvalues --    3.63040   3.63346   3.63586   3.64322   3.64496
 Alpha virt. eigenvalues --    3.64617   3.65251   3.65426   3.65777   3.66487
 Alpha virt. eigenvalues --    3.66778   3.67533   3.67641   3.67910   3.68139
 Alpha virt. eigenvalues --    3.68187   3.68314   3.69436   3.69907   3.70331
 Alpha virt. eigenvalues --    3.70803   3.70940   3.71614   3.72768   3.72945
 Alpha virt. eigenvalues --    3.73091   3.73971   3.74602   3.75136   3.75471
 Alpha virt. eigenvalues --    3.76300   3.77050   3.77324   3.77760   3.78136
 Alpha virt. eigenvalues --    3.78616   3.79104   3.79376   3.80618   3.81390
 Alpha virt. eigenvalues --    3.81974   3.82062   3.82348   3.82823   3.83330
 Alpha virt. eigenvalues --    3.83709   3.84152   3.84292   3.84809   3.84958
 Alpha virt. eigenvalues --    3.85620   3.85843   3.86992   3.87950   3.88189
 Alpha virt. eigenvalues --    3.88601   3.89206   3.89675   3.90314   3.91353
 Alpha virt. eigenvalues --    3.91838   3.92255   3.92447   3.92709   3.93591
 Alpha virt. eigenvalues --    3.94090   3.94987   3.95062   3.96006   3.96385
 Alpha virt. eigenvalues --    3.96994   3.97650   3.97916   3.98321   3.98511
 Alpha virt. eigenvalues --    3.99492   4.00400   4.01270   4.01939   4.02615
 Alpha virt. eigenvalues --    4.03349   4.03667   4.04362   4.04578   4.04937
 Alpha virt. eigenvalues --    4.05450   4.06250   4.06339   4.06825   4.07323
 Alpha virt. eigenvalues --    4.07798   4.08117   4.08702   4.08824   4.08900
 Alpha virt. eigenvalues --    4.10185   4.10293   4.10647   4.11315   4.11518
 Alpha virt. eigenvalues --    4.12285   4.12554   4.13510   4.13930   4.14415
 Alpha virt. eigenvalues --    4.14912   4.15807   4.16048   4.16615   4.17092
 Alpha virt. eigenvalues --    4.17522   4.18009   4.19293   4.19547   4.19686
 Alpha virt. eigenvalues --    4.20045   4.20872   4.21430   4.21965   4.23242
 Alpha virt. eigenvalues --    4.23620   4.23922   4.24358   4.24781   4.25081
 Alpha virt. eigenvalues --    4.25544   4.26108   4.27086   4.27418   4.28093
 Alpha virt. eigenvalues --    4.28468   4.29292   4.29384   4.30260   4.30869
 Alpha virt. eigenvalues --    4.31257   4.31413   4.32597   4.32967   4.33230
 Alpha virt. eigenvalues --    4.33297   4.33722   4.33920   4.34575   4.35502
 Alpha virt. eigenvalues --    4.36168   4.36565   4.37077   4.37518   4.37703
 Alpha virt. eigenvalues --    4.38129   4.38754   4.39175   4.40284   4.41208
 Alpha virt. eigenvalues --    4.41501   4.42101   4.42664   4.43066   4.44014
 Alpha virt. eigenvalues --    4.44351   4.45349   4.47309   4.47822   4.48035
 Alpha virt. eigenvalues --    4.49235   4.49553   4.50346   4.50766   4.51396
 Alpha virt. eigenvalues --    4.51735   4.52596   4.52976   4.53744   4.54391
 Alpha virt. eigenvalues --    4.55099   4.55693   4.55905   4.56761   4.57747
 Alpha virt. eigenvalues --    4.58090   4.59127   4.59463   4.59672   4.60963
 Alpha virt. eigenvalues --    4.61325   4.61824   4.62163   4.63026   4.64068
 Alpha virt. eigenvalues --    4.64486   4.65114   4.65512   4.65942   4.66662
 Alpha virt. eigenvalues --    4.66798   4.67775   4.67954   4.68565   4.69228
 Alpha virt. eigenvalues --    4.69357   4.70505   4.71407   4.72197   4.72761
 Alpha virt. eigenvalues --    4.73375   4.74462   4.75035   4.76064   4.76722
 Alpha virt. eigenvalues --    4.77360   4.77599   4.78352   4.79427   4.80825
 Alpha virt. eigenvalues --    4.81092   4.81629   4.82332   4.82666   4.82790
 Alpha virt. eigenvalues --    4.83983   4.84887   4.85543   4.86033   4.86346
 Alpha virt. eigenvalues --    4.87494   4.88237   4.89284   4.89424   4.90518
 Alpha virt. eigenvalues --    4.91860   4.93007   4.93705   4.94314   4.95309
 Alpha virt. eigenvalues --    4.95836   4.96220   4.97060   4.97785   4.99156
 Alpha virt. eigenvalues --    4.99766   5.00921   5.01394   5.01920   5.02899
 Alpha virt. eigenvalues --    5.03038   5.03519   5.05976   5.08350   5.08467
 Alpha virt. eigenvalues --    5.08692   5.09337   5.10288   5.10795   5.11041
 Alpha virt. eigenvalues --    5.12577   5.13336   5.13892   5.14401   5.14600
 Alpha virt. eigenvalues --    5.14969   5.15462   5.16173   5.16845   5.17461
 Alpha virt. eigenvalues --    5.18202   5.18840   5.19425   5.20164   5.20961
 Alpha virt. eigenvalues --    5.21661   5.22687   5.23349   5.24948   5.26583
 Alpha virt. eigenvalues --    5.27649   5.28233   5.29453   5.30039   5.30554
 Alpha virt. eigenvalues --    5.31378   5.32240   5.32818   5.33829   5.35668
 Alpha virt. eigenvalues --    5.36640   5.37361   5.38496   5.38763   5.40427
 Alpha virt. eigenvalues --    5.40976   5.43087   5.43862   5.46746   5.47720
 Alpha virt. eigenvalues --    5.48347   5.48830   5.49212   5.50320   5.50828
 Alpha virt. eigenvalues --    5.51721   5.51866   5.53008   5.54137   5.54218
 Alpha virt. eigenvalues --    5.54842   5.56413   5.57299   5.58818   5.61820
 Alpha virt. eigenvalues --    5.64793   5.67467   5.69014   5.69534   5.69942
 Alpha virt. eigenvalues --    5.71651   5.72937   5.74060   5.76990   5.79616
 Alpha virt. eigenvalues --    5.79629   5.82713   5.84359   5.86649   5.87203
 Alpha virt. eigenvalues --    5.88706   5.89491   5.93002   5.94309   5.96051
 Alpha virt. eigenvalues --    5.97024   6.00093   6.01750   6.02306   6.02977
 Alpha virt. eigenvalues --    6.04817   6.05823   6.06289   6.08617   6.12337
 Alpha virt. eigenvalues --    6.16070   6.17910   6.19084   6.21766   6.23309
 Alpha virt. eigenvalues --    6.23683   6.25648   6.26031   6.26552   6.30598
 Alpha virt. eigenvalues --    6.32227   6.36555   6.38082   6.39881   6.40455
 Alpha virt. eigenvalues --    6.43284   6.44153   6.46504   6.55907   6.61730
 Alpha virt. eigenvalues --    6.65120   6.69784   6.70094   6.73919   6.74037
 Alpha virt. eigenvalues --    6.77402   6.80777   6.83089   6.85898   6.88162
 Alpha virt. eigenvalues --    6.93042   7.02808   7.04347   7.09380   7.12798
 Alpha virt. eigenvalues --    7.15170   7.17717   7.23474  22.24454  22.27276
 Alpha virt. eigenvalues --   22.41790  22.43509  22.44586  22.47459  22.48878
 Alpha virt. eigenvalues --   22.55470  22.56246  22.62125  22.63585  22.64732
 Alpha virt. eigenvalues --   22.70606  22.75433  22.80355  22.80603  22.84695
 Alpha virt. eigenvalues --   22.87617  22.90427  22.97477  22.98843  23.02842
 Alpha virt. eigenvalues --   23.09288  23.13168  23.19247  23.22105  23.22479
 Alpha virt. eigenvalues --   23.26735  23.30562  23.33263  23.36662  23.41446
 Alpha virt. eigenvalues --   23.48471  23.51483  23.52452  23.63471  23.72230
 Alpha virt. eigenvalues --   23.76783  23.86317  32.38321  32.72830  32.86698
 Alpha virt. eigenvalues --   32.89240  32.91243  33.18362  43.87076  43.87803
 Alpha virt. eigenvalues --   43.89679  44.00984  44.02876
  Beta  occ. eigenvalues -- -256.45181 -30.22579 -26.05476 -26.05019 -26.04795
  Beta  occ. eigenvalues --  -19.37496 -19.35034 -19.33151 -19.25912 -19.25767
  Beta  occ. eigenvalues --  -14.52732 -14.51021 -14.48326 -14.48266 -14.48253
  Beta  occ. eigenvalues --  -14.47965 -10.43364 -10.42984 -10.41090 -10.40099
  Beta  occ. eigenvalues --  -10.37453 -10.37353 -10.37045 -10.36346 -10.35990
  Beta  occ. eigenvalues --  -10.35957 -10.35529 -10.35476 -10.35344 -10.35244
  Beta  occ. eigenvalues --  -10.35065 -10.34630 -10.33855 -10.33319 -10.32835
  Beta  occ. eigenvalues --  -10.32698 -10.32654 -10.32393 -10.32331 -10.32279
  Beta  occ. eigenvalues --  -10.32246 -10.32135 -10.32074 -10.32044 -10.31901
  Beta  occ. eigenvalues --  -10.31891 -10.31849 -10.31795 -10.31683 -10.30674
  Beta  occ. eigenvalues --  -10.30504 -10.30439 -10.30232 -10.30117 -10.29519
  Beta  occ. eigenvalues --   -3.56502  -2.32722  -2.31803  -2.31380  -1.28670
  Beta  occ. eigenvalues --   -1.24845  -1.22064  -1.14370  -1.10396  -1.10065
  Beta  occ. eigenvalues --   -1.09053  -1.08093  -1.08046  -1.07032  -1.00534
  Beta  occ. eigenvalues --   -0.95853  -0.94773  -0.93387  -0.93067  -0.92520
  Beta  occ. eigenvalues --   -0.92128  -0.91438  -0.89891  -0.88585  -0.88403
  Beta  occ. eigenvalues --   -0.88070  -0.86465  -0.86134  -0.84507  -0.83077
  Beta  occ. eigenvalues --   -0.82072  -0.81143  -0.80607  -0.79955  -0.78708
  Beta  occ. eigenvalues --   -0.78428  -0.77152  -0.76421  -0.75442  -0.73451
  Beta  occ. eigenvalues --   -0.73287  -0.72878  -0.70743  -0.70200  -0.69817
  Beta  occ. eigenvalues --   -0.68125  -0.67520  -0.66806  -0.66252  -0.65608
  Beta  occ. eigenvalues --   -0.64907  -0.64361  -0.63305  -0.62847  -0.62199
  Beta  occ. eigenvalues --   -0.61690  -0.60766  -0.60077  -0.59433  -0.59366
  Beta  occ. eigenvalues --   -0.59033  -0.58394  -0.58220  -0.58060  -0.57692
  Beta  occ. eigenvalues --   -0.57237  -0.56777  -0.56486  -0.56209  -0.55978
  Beta  occ. eigenvalues --   -0.55925  -0.55522  -0.55318  -0.54920  -0.54769
  Beta  occ. eigenvalues --   -0.54425  -0.53919  -0.53732  -0.53307  -0.53133
  Beta  occ. eigenvalues --   -0.53087  -0.52583  -0.52242  -0.52055  -0.51844
  Beta  occ. eigenvalues --   -0.51547  -0.51163  -0.51092  -0.50908  -0.50769
  Beta  occ. eigenvalues --   -0.50323  -0.50293  -0.50232  -0.50136  -0.49962
  Beta  occ. eigenvalues --   -0.49633  -0.49211  -0.49089  -0.48929  -0.48321
  Beta  occ. eigenvalues --   -0.47773  -0.47634  -0.47512  -0.47205  -0.46706
  Beta  occ. eigenvalues --   -0.46315  -0.46253  -0.45719  -0.45475  -0.45253
  Beta  occ. eigenvalues --   -0.44497  -0.43799  -0.43692  -0.43328  -0.42739
  Beta  occ. eigenvalues --   -0.42471  -0.40658  -0.40484  -0.40458  -0.40234
  Beta  occ. eigenvalues --   -0.39449  -0.38715  -0.37549  -0.36178  -0.35721
  Beta  occ. eigenvalues --   -0.35386  -0.35176  -0.33631  -0.32699  -0.32143
  Beta  occ. eigenvalues --   -0.31724  -0.31213  -0.30064  -0.29580
  Beta virt. eigenvalues --   -0.23334  -0.18010  -0.17486  -0.16757  -0.12381
  Beta virt. eigenvalues --   -0.09553  -0.09072  -0.09043  -0.08061  -0.07532
  Beta virt. eigenvalues --   -0.07378  -0.07264  -0.06562  -0.06267  -0.05978
  Beta virt. eigenvalues --   -0.05275  -0.04043  -0.03696  -0.03496  -0.03323
  Beta virt. eigenvalues --   -0.03092  -0.02624  -0.01962  -0.01913  -0.01578
  Beta virt. eigenvalues --   -0.01492  -0.00937  -0.00560  -0.00177   0.00079
  Beta virt. eigenvalues --    0.00429   0.00776   0.01193   0.01435   0.01524
  Beta virt. eigenvalues --    0.01738   0.02197   0.02525   0.02682   0.02990
  Beta virt. eigenvalues --    0.03239   0.03467   0.03804   0.03969   0.04244
  Beta virt. eigenvalues --    0.04340   0.04541   0.04631   0.04912   0.05131
  Beta virt. eigenvalues --    0.05226   0.05338   0.05666   0.05724   0.05847
  Beta virt. eigenvalues --    0.06083   0.06272   0.06498   0.06935   0.07133
  Beta virt. eigenvalues --    0.07288   0.07305   0.07704   0.07753   0.08339
  Beta virt. eigenvalues --    0.08374   0.08844   0.09007   0.09075   0.09458
  Beta virt. eigenvalues --    0.09952   0.10095   0.10108   0.10278   0.10415
  Beta virt. eigenvalues --    0.10840   0.10966   0.11135   0.11692   0.11779
  Beta virt. eigenvalues --    0.12003   0.12135   0.12275   0.12477   0.12585
  Beta virt. eigenvalues --    0.12935   0.13122   0.13287   0.13342   0.13996
  Beta virt. eigenvalues --    0.14066   0.14306   0.14443   0.14751   0.14841
  Beta virt. eigenvalues --    0.15323   0.15652   0.15909   0.16022   0.16233
  Beta virt. eigenvalues --    0.16315   0.16493   0.17066   0.17100   0.17212
  Beta virt. eigenvalues --    0.17424   0.17614   0.17807   0.18313   0.18424
  Beta virt. eigenvalues --    0.18860   0.18947   0.19350   0.19470   0.19531
  Beta virt. eigenvalues --    0.19724   0.20164   0.20298   0.20569   0.20737
  Beta virt. eigenvalues --    0.20939   0.21066   0.21179   0.21528   0.21642
  Beta virt. eigenvalues --    0.22348   0.22396   0.22614   0.22667   0.23201
  Beta virt. eigenvalues --    0.23274   0.23485   0.23673   0.24020   0.24175
  Beta virt. eigenvalues --    0.24211   0.24585   0.24724   0.25317   0.25429
  Beta virt. eigenvalues --    0.25611   0.25743   0.26247   0.26327   0.26478
  Beta virt. eigenvalues --    0.26944   0.27191   0.27510   0.27886   0.28053
  Beta virt. eigenvalues --    0.28188   0.28406   0.28798   0.28936   0.29078
  Beta virt. eigenvalues --    0.29439   0.29545   0.29742   0.29992   0.30207
  Beta virt. eigenvalues --    0.30478   0.30554   0.31037   0.31219   0.31707
  Beta virt. eigenvalues --    0.31887   0.31975   0.32103   0.32228   0.32275
  Beta virt. eigenvalues --    0.32491   0.32804   0.32972   0.33215   0.33364
  Beta virt. eigenvalues --    0.33478   0.33919   0.34002   0.34125   0.34438
  Beta virt. eigenvalues --    0.34533   0.34718   0.34956   0.35057   0.35158
  Beta virt. eigenvalues --    0.35323   0.35550   0.35732   0.36093   0.36340
  Beta virt. eigenvalues --    0.36373   0.36526   0.36621   0.37091   0.37236
  Beta virt. eigenvalues --    0.37332   0.37473   0.37620   0.37712   0.38158
  Beta virt. eigenvalues --    0.38302   0.38415   0.38509   0.38560   0.38799
  Beta virt. eigenvalues --    0.39185   0.39228   0.39319   0.39573   0.39798
  Beta virt. eigenvalues --    0.39962   0.40203   0.40525   0.40591   0.40870
  Beta virt. eigenvalues --    0.41016   0.41207   0.41318   0.41475   0.41543
  Beta virt. eigenvalues --    0.41829   0.42050   0.42158   0.42745   0.42821
  Beta virt. eigenvalues --    0.42868   0.42986   0.43443   0.43694   0.43857
  Beta virt. eigenvalues --    0.43985   0.44073   0.44432   0.44563   0.44729
  Beta virt. eigenvalues --    0.45198   0.45531   0.45836   0.45938   0.46211
  Beta virt. eigenvalues --    0.46440   0.46729   0.46847   0.47039   0.47262
  Beta virt. eigenvalues --    0.47615   0.47879   0.48144   0.48249   0.48620
  Beta virt. eigenvalues --    0.48684   0.48914   0.49010   0.49201   0.49398
  Beta virt. eigenvalues --    0.49815   0.49978   0.50100   0.50218   0.50781
  Beta virt. eigenvalues --    0.50921   0.51546   0.51638   0.51755   0.51929
  Beta virt. eigenvalues --    0.52255   0.52444   0.52518   0.52856   0.53028
  Beta virt. eigenvalues --    0.53299   0.53422   0.53879   0.54152   0.54221
  Beta virt. eigenvalues --    0.54378   0.54535   0.54883   0.55167   0.55532
  Beta virt. eigenvalues --    0.56009   0.56021   0.56309   0.56501   0.56546
  Beta virt. eigenvalues --    0.56891   0.57198   0.57268   0.57508   0.57938
  Beta virt. eigenvalues --    0.58154   0.58465   0.58612   0.58982   0.59130
  Beta virt. eigenvalues --    0.59695   0.59862   0.60170   0.60541   0.60690
  Beta virt. eigenvalues --    0.61111   0.61287   0.61455   0.62113   0.62145
  Beta virt. eigenvalues --    0.62403   0.62568   0.62802   0.63003   0.63245
  Beta virt. eigenvalues --    0.63455   0.63786   0.64064   0.64383   0.64759
  Beta virt. eigenvalues --    0.64883   0.65142   0.65744   0.65976   0.66232
  Beta virt. eigenvalues --    0.66485   0.66863   0.67155   0.67529   0.67911
  Beta virt. eigenvalues --    0.68233   0.68347   0.68799   0.69251   0.69320
  Beta virt. eigenvalues --    0.69602   0.69969   0.70291   0.70816   0.71114
  Beta virt. eigenvalues --    0.71231   0.71547   0.71864   0.72061   0.72860
  Beta virt. eigenvalues --    0.72904   0.73102   0.73161   0.73637   0.74209
  Beta virt. eigenvalues --    0.74398   0.74680   0.74901   0.75046   0.75398
  Beta virt. eigenvalues --    0.75596   0.76122   0.76367   0.76563   0.76754
  Beta virt. eigenvalues --    0.77232   0.77684   0.77970   0.78311   0.78789
  Beta virt. eigenvalues --    0.78999   0.79027   0.79471   0.79589   0.79752
  Beta virt. eigenvalues --    0.80300   0.80749   0.81173   0.81812   0.82071
  Beta virt. eigenvalues --    0.82205   0.82448   0.82829   0.82970   0.83255
  Beta virt. eigenvalues --    0.83775   0.84082   0.84198   0.84285   0.84384
  Beta virt. eigenvalues --    0.84935   0.85343   0.85503   0.85892   0.86039
  Beta virt. eigenvalues --    0.86082   0.86478   0.86534   0.87038   0.87582
  Beta virt. eigenvalues --    0.87751   0.87851   0.87934   0.88343   0.88481
  Beta virt. eigenvalues --    0.88610   0.88761   0.89159   0.89479   0.89659
  Beta virt. eigenvalues --    0.89946   0.90292   0.90576   0.90709   0.91034
  Beta virt. eigenvalues --    0.91551   0.91711   0.91991   0.92203   0.92557
  Beta virt. eigenvalues --    0.92970   0.93232   0.93466   0.93898   0.94281
  Beta virt. eigenvalues --    0.94418   0.94853   0.95130   0.95299   0.96054
  Beta virt. eigenvalues --    0.96223   0.96677   0.97057   0.97400   0.97640
  Beta virt. eigenvalues --    0.97979   0.98339   0.98577   0.99133   0.99483
  Beta virt. eigenvalues --    0.99742   1.00187   1.00311   1.00558   1.00832
  Beta virt. eigenvalues --    1.01104   1.01405   1.01551   1.01673   1.02770
  Beta virt. eigenvalues --    1.03070   1.03232   1.03546   1.03848   1.04393
  Beta virt. eigenvalues --    1.04699   1.05169   1.05661   1.05816   1.06473
  Beta virt. eigenvalues --    1.06731   1.06979   1.07210   1.07496   1.07893
  Beta virt. eigenvalues --    1.08007   1.08518   1.08895   1.09373   1.09926
  Beta virt. eigenvalues --    1.10254   1.10402   1.10735   1.11275   1.11440
  Beta virt. eigenvalues --    1.12004   1.12424   1.12680   1.13306   1.13576
  Beta virt. eigenvalues --    1.14067   1.14507   1.15046   1.15145   1.15319
  Beta virt. eigenvalues --    1.15638   1.15862   1.16281   1.16439   1.17008
  Beta virt. eigenvalues --    1.17459   1.17647   1.18048   1.18265   1.18387
  Beta virt. eigenvalues --    1.18628   1.19226   1.19455   1.19833   1.20561
  Beta virt. eigenvalues --    1.20830   1.21421   1.21702   1.22535   1.22843
  Beta virt. eigenvalues --    1.23221   1.23791   1.23990   1.24450   1.24557
  Beta virt. eigenvalues --    1.24902   1.25381   1.25587   1.25933   1.26013
  Beta virt. eigenvalues --    1.26261   1.27379   1.27636   1.27929   1.28298
  Beta virt. eigenvalues --    1.29039   1.29148   1.29404   1.29995   1.30355
  Beta virt. eigenvalues --    1.30615   1.30835   1.31044   1.31877   1.32096
  Beta virt. eigenvalues --    1.32467   1.32786   1.32976   1.33591   1.33666
  Beta virt. eigenvalues --    1.34114   1.34405   1.35553   1.35682   1.36282
  Beta virt. eigenvalues --    1.37021   1.37319   1.37664   1.37911   1.38107
  Beta virt. eigenvalues --    1.38499   1.39018   1.39299   1.39490   1.39669
  Beta virt. eigenvalues --    1.40119   1.40133   1.40971   1.41103   1.41639
  Beta virt. eigenvalues --    1.42049   1.42339   1.42643   1.43050   1.43460
  Beta virt. eigenvalues --    1.43583   1.43836   1.44082   1.44468   1.44726
  Beta virt. eigenvalues --    1.44911   1.45224   1.45489   1.45848   1.45865
  Beta virt. eigenvalues --    1.46308   1.46599   1.46871   1.47153   1.47460
  Beta virt. eigenvalues --    1.47791   1.47994   1.48074   1.48464   1.48600
  Beta virt. eigenvalues --    1.48980   1.49209   1.49333   1.49644   1.49902
  Beta virt. eigenvalues --    1.50139   1.50410   1.50574   1.50934   1.51458
  Beta virt. eigenvalues --    1.51558   1.51890   1.51966   1.52208   1.52484
  Beta virt. eigenvalues --    1.52810   1.52939   1.53225   1.53734   1.53993
  Beta virt. eigenvalues --    1.54223   1.54416   1.54817   1.54967   1.55364
  Beta virt. eigenvalues --    1.55527   1.55664   1.56072   1.56283   1.56643
  Beta virt. eigenvalues --    1.56669   1.57088   1.57618   1.57727   1.58074
  Beta virt. eigenvalues --    1.58294   1.58470   1.58783   1.59238   1.59580
  Beta virt. eigenvalues --    1.59771   1.60042   1.60326   1.60468   1.61094
  Beta virt. eigenvalues --    1.61557   1.61912   1.62237   1.62427   1.62557
  Beta virt. eigenvalues --    1.62848   1.63316   1.63613   1.63957   1.63974
  Beta virt. eigenvalues --    1.64241   1.64730   1.64850   1.65308   1.66079
  Beta virt. eigenvalues --    1.66265   1.66410   1.66867   1.67454   1.67675
  Beta virt. eigenvalues --    1.68063   1.68398   1.68446   1.69000   1.69155
  Beta virt. eigenvalues --    1.69670   1.69827   1.70535   1.71011   1.71623
  Beta virt. eigenvalues --    1.71954   1.72359   1.72834   1.73701   1.74000
  Beta virt. eigenvalues --    1.74223   1.74895   1.75153   1.75510   1.75899
  Beta virt. eigenvalues --    1.76343   1.76594   1.77094   1.77239   1.77601
  Beta virt. eigenvalues --    1.77820   1.78420   1.78518   1.79015   1.79472
  Beta virt. eigenvalues --    1.79643   1.79956   1.80346   1.80729   1.80961
  Beta virt. eigenvalues --    1.81608   1.81812   1.82044   1.82328   1.82789
  Beta virt. eigenvalues --    1.83245   1.83757   1.84012   1.84252   1.84503
  Beta virt. eigenvalues --    1.85141   1.85571   1.85891   1.86884   1.87000
[...]
  1581. RY*(   1) H  64                  0.00025     1.08496   
  1582. RY*(   2) H  64                  0.00010     1.74549   
  1583. RY*(   3) H  64                  0.00003     1.91747   
  1584. RY*(   4) H  64                  0.00002     1.99518   
  1585. RY*(   5) H  64                  0.00000     2.85616   
  1586. RY*(   1) H  65                  0.00031     0.99243   
  1587. RY*(   2) H  65                  0.00007     1.78348   
  1588. RY*(   3) H  65                  0.00003     1.81248   
  1589. RY*(   4) H  65                  0.00003     2.10020   
  1590. RY*(   5) H  65                  0.00000     2.86406   
  1591. RY*(   1) H  66                  0.00090     0.58076   
  1592. RY*(   2) H  66                  0.00012     2.13992   
  1593. RY*(   3) H  66                  0.00012     2.16385   
  1594. RY*(   4) H  66                  0.00007     2.97994   
  1595. RY*(   5) H  66                  0.00000     3.10657   
  1596. RY*(   1) H  67                  0.00026     1.75627   
  1597. RY*(   2) H  67                  0.00007     1.62491   
  1598. RY*(   3) H  67                  0.00005     2.61345   
  1599. RY*(   4) H  67                  0.00004     1.50048   
  1600. RY*(   5) H  67                  0.00000     2.96475   
  1601. RY*(   1) H  68                  0.00033     1.28626   
  1602. RY*(   2) H  68                  0.00014     1.07732   
  1603. RY*(   3) H  68                  0.00002     2.25063   
  1604. RY*(   4) H  68                  0.00001     2.25763   
  1605. RY*(   5) H  68                  0.00001     2.68647   
  1606. RY*(   1) H  69                  0.00034     1.22672   
  1607. RY*(   2) H  69                  0.00015     1.18261   
  1608. RY*(   3) H  69                  0.00002     2.40181   
  1609. RY*(   4) H  69                  0.00002     2.10611   
  1610. RY*(   5) H  69                  0.00001     2.68251   
  1611. RY*(   1) H  70                  0.00026     1.03045   
  1612. RY*(   2) H  70                  0.00009     1.45295   
  1613. RY*(   3) H  70                  0.00006     2.08731   
  1614. RY*(   4) H  70                  0.00003     2.30590   
  1615. RY*(   5) H  70                  0.00001     2.94397   
  1616. RY*(   1) H  71                  0.00018     1.38500   
  1617. RY*(   2) H  71                  0.00009     1.30115   
  1618. RY*(   3) H  71                  0.00004     2.27454   
  1619. RY*(   4) H  71                  0.00004     2.13489   
  1620. RY*(   5) H  71                  0.00000     2.91701   
  1621. RY*(   1) H  72                  0.00021     1.19095   
  1622. RY*(   2) H  72                  0.00008     1.42694   
  1623. RY*(   3) H  72                  0.00003     2.38287   
  1624. RY*(   4) H  72                  0.00004     2.16167   
  1625. RY*(   5) H  72                  0.00000     2.97200   
  1626. RY*(   1) H  73                  0.00080     0.57976   
  1627. RY*(   2) H  73                  0.00011     2.15221   
  1628. RY*(   3) H  73                  0.00012     2.16901   
  1629. RY*(   4) H  73                  0.00007     2.98287   
  1630. RY*(   5) H  73                  0.00000     3.07105   
  1631. RY*(   1) H  74                  0.00046     1.33142   
  1632. RY*(   2) H  74                  0.00010     1.56367   
  1633. RY*(   3) H  74                  0.00005     2.57789   
  1634. RY*(   4) H  74                  0.00004     1.95598   
  1635. RY*(   5) H  74                  0.00000     2.99683   
  1636. RY*(   1) H  75                  0.00033     1.49041   
  1637. RY*(   2) H  75                  0.00012     1.06798   
  1638. RY*(   3) H  75                  0.00006     1.97114   
  1639. RY*(   4) H  75                  0.00002     2.37362   
  1640. RY*(   5) H  75                  0.00001     2.93824   
  1641. RY*(   1) H  76                  0.00045     1.19207   
  1642. RY*(   2) H  76                  0.00015     1.55364   
  1643. RY*(   3) H  76                  0.00007     1.85919   
  1644. RY*(   4) H  76                  0.00003     2.35602   
  1645. RY*(   5) H  76                  0.00001     2.95167   
  1646. RY*(   1) H  77                  0.00024     1.01295   
  1647. RY*(   2) H  77                  0.00010     1.78200   
  1648. RY*(   3) H  77                  0.00003     1.90519   
  1649. RY*(   4) H  77                  0.00002     1.99443   
  1650. RY*(   5) H  77                  0.00000     2.86422   
  1651. RY*(   1) H  78                  0.00037     0.96467   
  1652. RY*(   2) H  78                  0.00008     1.62123   
  1653. RY*(   3) H  78                  0.00004     2.08192   
  1654. RY*(   4) H  78                  0.00002     2.27587   
  1655. RY*(   5) H  78                  0.00001     2.54247   
  1656. RY*(   1) H  79                  0.00027     1.24001   
  1657. RY*(   2) H  79                  0.00010     1.98987   
  1658. RY*(   3) H  79                  0.00004     1.44198   
  1659. RY*(   4) H  79                  0.00003     2.08543   
  1660. RY*(   5) H  79                  0.00000     2.95090   
  1661. RY*(   1) H  80                  0.00089     0.57077   
  1662. RY*(   2) H  80                  0.00013     2.09824   
  1663. RY*(   3) H  80                  0.00011     2.15616   
  1664. RY*(   4) H  80                  0.00007     2.93296   
  1665. RY*(   5) H  80                  0.00000     3.06899   
  1666. RY*(   1) H  81                  0.00146     0.61245   
  1667. RY*(   2) H  81                  0.00013     2.15008   
  1668. RY*(   3) H  81                  0.00011     2.21089   
  1669. RY*(   4) H  81                  0.00007     2.91176   
  1670. RY*(   5) H  81                  0.00000     3.09320   
  1671. RY*(   1) H  82                  0.00032     0.81103   
  1672. RY*(   2) H  82                  0.00007     1.74215   
  1673. RY*(   3) H  82                  0.00004     2.00967   
  1674. RY*(   4) H  82                  0.00004     2.10103   
  1675. RY*(   5) H  82                  0.00000     2.85003   
  1676. RY*(   1) H  83                  0.00040     0.91969   
  1677. RY*(   2) H  83                  0.00007     1.71007   
  1678. RY*(   3) H  83                  0.00004     2.07983   
  1679. RY*(   4) H  83                  0.00003     1.89478   
  1680. RY*(   5) H  83                  0.00000     2.91944   
  1681. RY*(   1) H  84                  0.00022     1.14247   
  1682. RY*(   2) H  84                  0.00009     1.80808   
  1683. RY*(   3) H  84                  0.00003     1.84788   
  1684. RY*(   4) H  84                  0.00003     2.00161   
  1685. RY*(   5) H  84                  0.00000     2.77608   
  1686. RY*(   1) H  85                  0.00043     1.36660   
  1687. RY*(   2) H  85                  0.00009     2.16449   
  1688. RY*(   3) H  85                  0.00007     1.97491   
  1689. RY*(   4) H  85                  0.00003     2.24482   
  1690. RY*(   5) H  85                  0.00001     2.93725   
  1691. RY*(   1) H  86                  0.00045     1.00311   
  1692. RY*(   2) H  86                  0.00008     2.14330   
  1693. RY*(   3) H  86                  0.00005     2.50590   
  1694. RY*(   4) H  86                  0.00005     1.91175   
  1695. RY*(   5) H  86                  0.00001     2.94324   
  1696. RY*(   1) H  87                  0.00028     1.14969   
  1697. RY*(   2) H  87                  0.00006     1.58230   
  1698. RY*(   3) H  87                  0.00007     2.29713   
  1699. RY*(   4) H  87                  0.00003     2.35069   
  1700. RY*(   5) H  87                  0.00001     2.76948   
  1701. RY*(   1) H  88                  0.00034     1.08614   
  1702. RY*(   2) H  88                  0.00006     2.27541   
  1703. RY*(   3) H  88                  0.00007     1.82394   
  1704. RY*(   4) H  88                  0.00004     2.06357   
  1705. RY*(   5) H  88                  0.00001     3.05583   
  1706. RY*(   1) H  89                  0.00047     1.47945   
  1707. RY*(   2) H  89                  0.00032     2.12145   
  1708. RY*(   3) H  89                  0.00017     2.18714   
  1709. RY*(   4) H  89                  0.00010     1.42241   
  1710. RY*(   5) H  89                  0.00000     3.18015   
  1725. BD*(   1)Fe   7 - N  12          0.03240     0.30535   
  1726. BD*(   1)Fe   7 - N  23          0.03304     0.30292   
  1727. BD*(   1)Fe   7 - N  31          0.03346     0.33192   
  1728. BD*(   1)Fe   7 - N  39          0.03290     0.31520   
  1729. BD*(   1)Fe   7 - C  50          0.03338     0.40464   
  1730. BD*(   1) C   8 - C  13          0.01086     0.45477   
  1731. BD*(   1) C   8 - C  43          0.01095     0.45803   
  1732. BD*(   2) C   8 - C  43          0.19393    -0.06026  1746(v),1804(v),1800(v)
                                                    1742(r),377(g),1291(g)
  1733. BD*(   1) C   8 - H  81          0.00717     0.34142   
  1734. BD*(   1) C   9 - C  16          0.01155     0.44354   
  1735. BD*(   1) C   9 - C  24          0.00908     0.45656   
  1736. BD*(   1) C   9 - H  80          0.00610     0.35133   
  1737. BD*(   1) C  10 - C  27          0.01046     0.51796   
  1738. BD*(   2) C  10 - C  27          0.17078    -0.04621  1772(v),1785(v),1768(v)
                                                    429(g),1780(r),875(g)
  1739. BD*(   1) C  10 - C  32          0.01100     0.44955   
  1740. BD*(   1) C  10 - H  73          0.00690     0.34328   
  1741. BD*(   1) C  11 - C  35          0.01020     0.50766   
  1742. BD*(   2) C  11 - C  35          0.19764    -0.06098  1800(v),1785(v),1732(r)
                                                    455(g),1083(g)
  1743. BD*(   1) C  11 - C  40          0.01086     0.50162   
  1744. BD*(   1) C  11 - H  66          0.00818     0.33558   
  1745. BD*(   1) N  12 - C  13          0.01297     0.40171   
  1746. BD*(   2) N  12 - C  13          0.29850    -0.09793  1732(v),1750(v),180(v)
                                                    509(g),482(g),377(v),178(v)
                                                    1721(r),173(r)
  1747. BD*(   1) N  12 - C  16          0.01519     0.36033   
  1748. BD*(   1) C  13 - C  14          0.01665     0.38361   
  1749. BD*(   1) C  14 - C  15          0.01076     0.49950   
  1750. BD*(   2) C  14 - C  15          0.13182    -0.03572  1746(v),180(v),1764(r)
                                                    1757(v),1755(v),1759(v)
  1751. BD*(   1) C  14 - C  18          0.01213     0.27410   
  1752. BD*(   1) C  15 - C  16          0.01371     0.50189   
  1753. BD*(   1) C  15 - C  17          0.00959     0.26298   
  1754. BD*(   1) C  17 - H  82          0.00260     0.32532   
  1755. BD*(   1) C  17 - H  83          0.00382     0.32510   
  1756. BD*(   1) C  17 - H  84          0.00245     0.32785   
  1757. BD*(   1) C  18 - C  19          0.00902     0.23449   
  1758. BD*(   1) C  18 - H  85          0.00675     0.29722   
  1759. BD*(   1) C  18 - H  86          0.00679     0.31163   
  1760. BD*(   1) C  19 - C  20          0.03512     0.28094   
  1761. BD*(   1) C  19 - H  87          0.00604     0.30549   
  1762. BD*(   1) C  19 - H  88          0.00556     0.31809   
  1763. BD*(   1) C  20 - O  21          0.02591     0.41466   
  1764. BD*(   2) C  20 - O  21          0.10649    -0.03842  1763(g),1750(r),1757(v)
                                                    1766(v),1761(v),691(g)
  1765. BD*(   1) C  20 - O  22          0.03704     0.39430   
  1766. BD*(   1) O  22 - H  89          0.00673     0.29328   
  1767. BD*(   1) N  23 - C  24          0.01574     0.32010   
  1768. BD*(   2) N  23 - C  24          0.31343    -0.11482  179(v),1772(v),1738(v)
                                                    795(g),768(g),178(v),403(v)
                                                    1721(r)
  1769. BD*(   1) N  23 - C  27          0.01282     0.44635   
  1770. BD*(   1) C  24 - C  25          0.01506     0.42187   
  1771. BD*(   1) C  25 - C  26          0.01023     0.56663   
  1772. BD*(   2) C  25 - C  26          0.11521    -0.01832  1738(v),1780(v),1768(v)
                                                    1777(v)
  1773. BD*(   1) C  25 - C  28          0.00933     0.28680   
  1774. BD*(   1) C  26 - C  27          0.02033     0.37723   
  1775. BD*(   1) C  26 - C  29          0.01383     0.32343   
  1776. BD*(   1) C  28 - H  77          0.00251     0.32711   
  1777. BD*(   1) C  28 - H  78          0.00427     0.32839   
  1778. BD*(   1) C  28 - H  79          0.00342     0.34385   
  1779. BD*(   1) C  29 - C  30          0.00246     0.50646   
  1780. BD*(   2) C  29 - C  30          0.03078    -0.04044   
  1781. BD*(   1) C  29 - H  74          0.00890     0.35704   
  1782. BD*(   1) C  30 - H  75          0.00382     0.36474   
  1783. BD*(   1) C  30 - H  76          0.00405     0.35899   
  1784. BD*(   1) N  31 - C  32          0.01585     0.28483   
  1785. BD*(   2) N  31 - C  32          0.37205    -0.13955  185(v),1738(v),1742(v)
                                                    1002(g),429(v),1001(g)
                                                    976(g),178(v)
  1786. BD*(   1) N  31 - C  35          0.01563     0.29611   
  1787. BD*(   1) C  32 - C  33          0.01461     0.39763   
  1788. BD*(   1) C  33 - C  34          0.00984     0.47295   
  1789. BD*(   1) C  33 - C  36          0.00828     0.25490   
  1790. BD*(   1) C  34 - C  35          0.01494     0.33923   
  1791. BD*(   1) C  34 - C  37          0.01148     0.27584   
  1792. BD*(   1) C  36 - H  70          0.00363     0.30492   
  1793. BD*(   1) C  36 - H  71          0.00247     0.30762   
  1794. BD*(   1) C  36 - H  72          0.00235     0.30866   
  1795. BD*(   1) C  37 - C  38          0.00203     0.47468   
  1796. BD*(   1) C  37 - H  67          0.00329     0.31303   
  1797. BD*(   1) C  38 - H  68          0.00565     0.31515   
  1798. BD*(   1) C  38 - H  69          0.00543     0.31184   
  1799. BD*(   1) N  39 - C  40          0.01370     0.37944   
  1800. BD*(   2) N  39 - C  40          0.30506    -0.10206  1742(v),1732(v),1804(v)
                                                    1721(r),1211(g),1184(g)
                                                    455(v),178(v)
  1801. BD*(   1) N  39 - C  43          0.01345     0.38729   
  1802. BD*(   1) C  40 - C  41          0.01677     0.38599   
  1803. BD*(   1) C  41 - C  42          0.01024     0.55597   
  1804. BD*(   2) C  41 - C  42          0.10737    -0.02103  1732(v),1800(v),1811(v)
                                                    1808(v)
  1805. BD*(   1) C  41 - C  44          0.00890     0.28710   
  1806. BD*(   1) C  42 - C  43          0.01607     0.42344   
  1807. BD*(   1) C  42 - C  45          0.01219     0.28387   
  1808. BD*(   1) C  44 - H  63          0.00429     0.32209   
  1809. BD*(   1) C  44 - H  64          0.00285     0.32162   
  1810. BD*(   1) C  44 - H  65          0.00269     0.33108   
  1811. BD*(   1) C  45 - C  46          0.00815     0.24206   
  1812. BD*(   1) C  45 - H  58          0.00645     0.33463   
  1813. BD*(   1) C  45 - H  59          0.00614     0.31871   
  1814. BD*(   1) C  46 - C  47          0.03210     0.29922   
  1815. BD*(   1) C  46 - H  60          0.00643     0.31740   
  1816. BD*(   1) C  46 - H  61          0.00507     0.31804   
  1817. BD*(   1) C  47 - O  48          0.02018     0.45378   
  1818. BD*(   2) C  47 - O  48          0.09295    -0.07062   
  1819. BD*(   1) C  47 - O  49          0.04103     0.34854   
  1820. BD*(   1) O  49 - H  62          0.00598     0.31893   
  1821. BD*(   1) C  50 - O  51          0.01822     0.49131   
  1822. BD*(   2) C  50 - O  51          0.03622    -0.01300   
  1823. BD*(   3) C  50 - O  51          0.02504     0.26013   
       -------------------------------
              Total Lewis  162.37721  ( 97.1313%)
        Valence non-Lewis    4.47399  (  2.6763%)
        Rydberg non-Lewis    0.32175  (  0.1925%)
       -------------------------------
            Total unit  2  167.17295  (100.0000%)
           Charge unit  2    0.82705
 1\1\GINC-NODE668\SP\UPBE1PBE\def2TZVP\C39H38Fe1N6O5(1+,2)\ZHARTOVSKA\0
 9-Sep-2022\0\\# PBE1PBE/def2TZVP empiricaldispersion=GD3BJ scf=maxcycl
 e=999 geom=check pop=nbo\\1a6g_III_D\\1,2\C,0,9.563,29.266001,2.603\C,
 0,10.793,29.143999,3.477\N,0,11.018,29.971001,4.542\C,0,11.903,28.341,
 3.405\C,0,12.244,29.622999,5.051\N,0,12.785,28.643,4.387\Fe,0,14.633,2
 7.799999,4.742\C,0,15.982,30.875999,5.035\C,0,13.859,27.797001,8.082\C
 ,0,13.333,24.698999,4.461\C,0,15.457,27.771999,1.469\N,0,14.899,29.068
 001,6.263\C,0,15.422,30.325001,6.188\C,0,15.366,30.961,7.489\C,0,14.80
 9,30.049999,8.337\C,0,14.506,28.948,7.597\C,0,14.492,30.266001,9.839\C
 ,0,15.74,32.409,7.822\C,0,14.479,33.294998,8.021\C,0,13.598,33.317001,
 6.814\O,0,12.422,32.879002,6.9\O,0,14.082,33.764999,5.74\N,0,13.754,26
 .474001,5.981\C,0,13.521,26.642,7.379\C,0,12.876,25.492001,7.903\C,0,1
 2.732,24.643,6.9\C,0,13.286,25.256001,5.694\C,0,12.416,25.358,9.356\C,
 0,12.192,23.231001,6.941\C,0,12.38305219,22.46417462,8.04192843\N,0,14
 .397,26.546,3.282\C,0,13.905,25.194,3.289\C,0,14.088,24.503,2.063\C,0,
 14.7,25.377001,1.22\C,0,14.902,26.634001,1.946\C,0,13.664,23.054001,1.
 795\C,0,15.247,25.156,-0.167\C,0,15.06416569,23.96413626,-0.78554627\N
 ,0,15.464,29.084,3.481\C,0,15.738,28.924999,2.139\C,0,16.452,30.069,1.
 609\C,0,16.638,30.898001,2.629\C,0,16.014999,30.311001,3.762\C,0,16.92
 4,30.177999,0.162\C,0,17.469999,32.186001,2.652\C,0,18.965,31.896,2.97
 8\C,0,19.889999,33.044998,2.829\O,0,20.224001,33.370998,1.661\O,0,20.2
 68999,33.573002,3.948\C,0,16.25,26.974001,4.896\O,0,17.216,26.469999,4
 .82\H,0,9.78249371,28.89332331,1.62431014\H,0,8.76391414,28.69704915,3
 .03038225\H,0,9.27320393,30.29386396,2.5365472\H,0,10.40958266,30.6877
 4624,4.88274125\H,0,12.70048136,30.10017914,5.89291679\H,0,12.05198265
 ,27.57743313,2.67037778\H,0,17.40691131,32.65956714,1.69457896\H,0,17.
 07220064,32.84541548,3.39485194\H,0,19.02477263,31.5484893,3.98822945\
 H,0,19.30100045,31.11142332,2.33267595\H,0,21.2045082,33.66494555,4.14
 285617\H,0,17.86512979,29.68019944,0.05536828\H,0,16.20351763,29.72079
 699,-0.4835784\H,0,17.03432371,31.20943176,-0.10044075\H,0,15.70834431
 ,27.76590573,0.42895726\H,0,15.7796721,25.94014913,-0.66325656\H,0,15.
 83983703,23.22731996,-0.76722379\H,0,14.14413807,23.75991572,-1.292244
 54\H,0,14.40496266,22.38767121,2.1847165\H,0,12.72578882,22.86277156,2
 .27258882\H,0,13.56537574,22.90042963,0.74068075\H,0,12.86393113,23.74
 134886,4.37279224\H,0,11.659085,22.83740957,6.10076944\H,0,11.61192808
 ,21.79954796,8.371381\H,0,13.3050211,22.52335386,8.58171649\H,0,13.141
 99189,25.8049104,10.00261184\H,0,11.47553571,25.85315519,9.47948383\H,
 0,12.3087638,24.3222186,9.60208389\H,0,13.59359589,27.80975676,9.11848
 345\H,0,16.43637544,31.83901328,5.14010215\H,0,15.27425597,30.84039471
 ,10.28960789\H,0,13.56387559,30.78953431,9.93594302\H,0,14.41906578,29
 .31716488,10.3281734\H,0,16.32604873,32.81080885,7.02200217\H,0,16.320
 62716,32.42156166,8.72067364\H,0,14.79033499,34.29503346,8.23985976\H,
 0,13.91886706,32.91748397,8.85083989\H,0,15.03396822,33.81270625,5.625
 62988\\Version=ES64L-G16RevA.03\State=2-A\HF=-3475.2857999\S2=0.812046
 \S2-1=0.\S2A=0.751171\RMSD=7.580e-09\Dipole=-0.3335968,-2.1801223,-0.8
 715227\Quadrupole=-19.5211044,8.2233191,11.2977854,19.0933073,8.059085
 6,36.029564\PG=C01 [X(C39H38Fe1N6O5)]\\@


 IBM COMPATIBILITY IS LIKE PREGNANCY. YOU ARE OR
 OR YOU ARE NOT. -- ADAM OSBORNE
 Job cpu time:       3 days 20 hours 31 minutes  5.3 seconds.
 Elapsed time:       0 days 23 hours 11 minutes 48.7 seconds.
 File lengths (MBytes):  RWF=   3053 Int=      0 D2E=      0 Chk=    255 Scr=      1
 Normal termination of Gaussian 16 at Fri Sep  9 10:51:41 2022.
