 Entering Gaussian System, Link 0=g16
 Input=/net/homes/chemie/zhartovska/work/BioModel/Konrad/1a6g/1a6g.com
 Output=/net/homes/chemie/zhartovska/work/BioModel/Konrad/1a6g/1a6g.log
 Initial command:
 /afs/math/software/gaussian/g16.A03/g16/l1.exe "/scratch/zhartovska_gaussian.4gfgupu/Gau-11806.inp" -scrdir="/scratch/zhartovska_gaussian.4gfgupu/"
 Entering Link 1 = /afs/math/software/gaussian/g16.A03/g16/l1.exe PID=     11807.
  
 Copyright (c) 1988,1990,1992,1993,1995,1998,2003,2009,2016,
            Gaussian, Inc.  All Rights Reserved.
  
 This is part of the Gaussian(R) 16 program.  It is based on
 the Gaussian(R) 09 system (copyright 2009, Gaussian, Inc.),
 the Gaussian(R) 03 system (copyright 2003, Gaussian, Inc.),
 the Gaussian(R) 98 system (copyright 1998, Gaussian, Inc.),
 the Gaussian(R) 94 system (copyright 1995, Gaussian, Inc.),
 the Gaussian 92(TM) system (copyright 1992, Gaussian, Inc.),
 the Gaussian 90(TM) system (copyright 1990, Gaussian, Inc.),
 the Gaussian 88(TM) system (copyright 1988, Gaussian, Inc.),
 the Gaussian 86(TM) system (copyright 1986, Carnegie Mellon
 University), and the Gaussian 82(TM) system (copyright 1983,
 Carnegie Mellon University). Gaussian is a federally registered
 trademark of Gaussian, Inc.
  
 This software contains proprietary and confidential information,
 including trade secrets, belonging to Gaussian, Inc.
  
 This software is provided under written license and may be
 used, copied, transmitted, or stored only in accord with that
 written license.
  
 The following legend is applicable only to US Government
 contracts under FAR:
  
                    RESTRICTED RIGHTS LEGEND
  
 Use, reproduction and disclosure by the US Government is
 subject to restrictions as set forth in subparagraphs (a)
 and (c) of the Commercial Computer Software - Restricted
 Rights clause in FAR 52.227-19.
  
 Gaussian, Inc.
 340 Quinnipiac St., Bldg. 40, Wallingford CT 06492
  
  
 ---------------------------------------------------------------
 Warning -- This program may not be used in any manner that
 competes with the business of Gaussian, Inc. or will provide
 assistance to any competitor of Gaussian, Inc.  The licensee
 of this program is prohibited from giving any competitor of
 Gaussian, Inc. access to this program.  By using this program,
 the user acknowledges that Gaussian, Inc. is engaged in the
 business of creating and licensing software in the field of
 computational chemistry and represents and warrants to the
 licensee that it is not a competitor of Gaussian, Inc. and that
 it will not use this program in any manner prohibited above.
 ---------------------------------------------------------------
  

 Cite this work as:
 Gaussian 16, Revision A.03,
 M. J. Frisch, G. W. Trucks, H. B. Schlegel, G. E. Scuseria, 
 M. A. Robb, J. R. Cheeseman, G. Scalmani, V. Barone, 
 G. A. Petersson, H. Nakatsuji, X. Li, M. Caricato, A. V. Marenich, 
 J. Bloino, B. G. Janesko, R. Gomperts, B. Mennucci, H. P. Hratchian, 
 J. V. Ortiz, A. F. Izmaylov, J. L. Sonnenberg, D. Williams-Young, 
 F. Ding, F. Lipparini, F. Egidi, J. Goings, B. Peng, A. Petrone, 
 T. Henderson, D. Ranasinghe, V. G. Zakrzewski, J. Gao, N. Rega, 
 G. Zheng, W. Liang, M. Hada, M. Ehara, K. Toyota, R. Fukuda, 
 J. Hasegawa, M. Ishida, T. Nakajima, Y. Honda, O. Kitao, H. Nakai, 
 T. Vreven, K. Throssell, J. A. Montgomery, Jr., J. E. Peralta, 
 F. Ogliaro, M. J. Bearpark, J. J. Heyd, E. N. Brothers, K. N. Kudin, 
 V. N. Staroverov, T. A. Keith, R. Kobayashi, J. Normand, 
 K. Raghavachari, A. P. Rendell, J. C. Burant, S. S. Iyengar, 
 J. Tomasi, M. Cossi, J. M. Millam, M. Klene, C. Adamo, R. Cammi, 
 J. W. Ochterski, R. L. Martin, K. Morokuma, O. Farkas, 
 J. B. Foresman, and D. J. Fox, Gaussian, Inc., Wallingford CT, 2016.
 
 ******************************************
 Gaussian 16:  ES64L-G16RevA.03 25-Dec-2016
                 1-Sep-2022 
 ******************************************
 %nprocs=12
 Will use up to   12 processors via shared memory.
 %mem=16GB
 %chk=1a6g_II_S.chk
 ---------------------------------------------------------------------
 # polar def2tzvp empiricaldispersion=gd3bj int=grid=ultrafine pbe1pbe
 ---------------------------------------------------------------------
 1/38=1,172=1/1;
 2/12=2,17=6,18=5,40=1/2;
 3/5=44,7=101,11=2,25=1,30=1,74=-13,75=-5,124=41/1,2,3;
 4//1;
 5/5=2,38=5,98=1/2;
 8/6=4,10=90,11=11/1;
 10/6=1,13=10/2;
 6/7=2,8=2,9=2,10=2,28=1/1;
 99/5=1,9=1/99;
 ---------
 1a6g_II_S
 ---------
 Symbolic Z-matrix:
 Charge =  0 Multiplicity = 1
 C                     9.563     29.266    2.603 
 C                     10.793    29.144    3.477 
 N                     11.018    29.971    4.542 
 C                     11.903    28.341    3.405 
 C                     12.244    29.623    5.051 
 N                     12.785    28.643    4.387 
 Fe                    14.633    27.8      4.742 
 C                     15.982    30.876    5.035 
 C                     13.859    27.797    8.082 
 C                     13.333    24.699    4.461 
 C                     15.457    27.772    1.469 
 N                     14.899    29.068    6.263 
 C                     15.422    30.325    6.188 
 C                     15.366    30.961    7.489 
 C                     14.809    30.05     8.337 
 C                     14.506    28.948    7.597 
 C                     14.492    30.266    9.839 
 C                     15.74     32.409    7.822 
 C                     14.479    33.295    8.021 
 C                     13.598    33.317    6.814 
 O                     12.422    32.879    6.9 
 O                     14.082    33.765    5.74 
 N                     13.754    26.474    5.981 
 C                     13.521    26.642    7.379 
 C                     12.876    25.492    7.903 
 C                     12.732    24.643    6.9 
 C                     13.286    25.256    5.694 
 C                     12.416    25.358    9.356 
 C                     12.192    23.231    6.941 
 C                     12.38305   22.46417   8.04193 
 N                     14.397    26.546    3.282 
 C                     13.905    25.194    3.289 
 C                     14.088    24.503    2.063 
 C                     14.7      25.377    1.22 
 C                     14.902    26.634    1.946 
 C                     13.664    23.054    1.795 
 C                     15.247    25.156   -0.167 
 C                     15.06417   23.96414  -0.78555 
 N                     15.464    29.084    3.481 
 C                     15.738    28.925    2.139 
 C                     16.452    30.069    1.609 
 C                     16.638    30.898    2.629 
 C                     16.015    30.311    3.762 
 C                     16.924    30.178    0.162 
 C                     17.47     32.186    2.652 
 C                     18.965    31.896    2.978 
 C                     19.89     33.045    2.829 
 O                     20.224    33.371    1.661 
 O                     20.269    33.573    3.948 
 C                     16.25     26.974    4.896 
 O                     17.216    26.47     4.82 
 H                     9.78249   28.89332   1.62431 
 H                     8.76391   28.69705   3.03038 
 H                     9.2732    30.29386   2.53655 
 H                     10.40958   30.68775   4.88274 
 H                     12.70048   30.10018   5.89292 
 H                     12.05198   27.57743   2.67038 
 H                     17.40691   32.65957   1.69458 
 H                     17.0722   32.84542   3.39485 
 H                     19.02477   31.54849   3.98823 
 H                     19.301    31.11142   2.33268 
 H                     21.20451   33.66495   4.14286 
 H                     17.86513   29.6802   0.05537 
 H                     16.20352   29.7208  -0.48358 
 H                     17.03432   31.20943  -0.10044 
 H                     15.70834   27.76591   0.42896 
 H                     15.77967   25.94015  -0.66326 
 H                     15.83984   23.22732  -0.76722 
 H                     14.14414   23.75992  -1.29224 
 H                     14.40496   22.38767   2.18472 
 H                     12.72579   22.86277   2.27259 
 H                     13.56538   22.90043   0.74068 
 H                     12.86393   23.74135   4.37279 
 H                     11.65909   22.83741   6.10077 
 H                     11.61193   21.79955   8.37138 
 H                     13.30502   22.52335   8.58172 
 H                     13.14199   25.80491   10.00261 
 H                     11.47554   25.85316   9.47948 
 H                     12.30876   24.32222   9.60208 
 H                     13.5936   27.80976   9.11848 
 H                     16.43638   31.83901   5.1401 
 H                     15.27426   30.84039   10.28961 
 H                     13.56388   30.78953   9.93594 
 H                     14.41907   29.31716   10.32817 
 H                     16.32605   32.81081   7.022 
 H                     16.32063   32.42156   8.72067 
 H                     14.79033   34.29503   8.23986 
 H                     13.91887   32.91748   8.85084 
 H                     15.03397   33.81271   5.62563 
 
 Stoichiometry    C39H38FeN6O5
 Framework group  C1[X(C39H38FeN6O5)]
 Deg. of freedom   261
 Full point group                 C1      NOp   1
 Largest Abelian subgroup         C1      NOp   1
 Largest concise Abelian subgroup C1      NOp   1
                         Standard orientation:                         
 ---------------------------------------------------------------------
 Center     Atomic      Atomic             Coordinates (Angstroms)
 Number     Number       Type             X           Y           Z
 ---------------------------------------------------------------------
      1          6           0       -1.668641   -0.145279    5.292812
      2          6           0       -1.254598   -0.464156    3.872057
      3          7           0       -0.483759   -1.549544    3.561379
      4          6           0       -1.440696    0.196128    2.683998
      5          6           0       -0.249098   -1.484741    2.210824
      6          7           0       -0.821448   -0.449671    1.667667
      7         26           0       -0.723984    0.098720   -0.317666
      8          6           0        2.602199   -0.452503   -0.308600
      9          6           0       -1.288254   -3.183982   -1.130162
     10          6           0       -4.050075    0.662815   -0.381545
     11          6           0       -0.167747    3.346614    0.413137
     12          7           0        0.427754   -1.492778   -0.681890
     13          6           0        1.785478   -1.552720   -0.571465
     14          6           0        2.242471   -2.903006   -0.832461
     15          6           0        1.127798   -3.637650   -1.110093
     16          6           0        0.058414   -2.804100   -0.985911
     17          6           0        1.080326   -5.157057   -1.413901
     18          6           0        3.674702   -3.431078   -0.700846
     19          6           0        3.855934   -4.280191    0.587903
     20          6           0        3.536533   -3.512247    1.829572
     21          8           0        2.595994   -3.898986    2.569866
     22          8           0        4.222159   -2.484528    2.078858
     23          7           0       -2.378579   -0.999116   -0.668528
     24          6           0       -2.422961   -2.382987   -1.014722
     25          6           0       -3.770152   -2.797530   -1.176984
     26          6           0       -4.526313   -1.733658   -0.967353
     27          6           0       -3.654506   -0.603317   -0.652072
     28          6           0       -4.190256   -4.236376   -1.483579
     29          6           0       -6.026696   -1.610473   -1.111223
     30          6           0       -6.680165   -2.342620   -2.045838
     31          7           0       -1.853023    1.642466    0.001596
     32          6           0       -3.276022    1.798386   -0.142558
     33          6           0       -3.726764    3.140054   -0.038615
     34          6           0       -2.619367    3.899004    0.177573
     35          6           0       -1.459521    3.003438    0.203034
     36          6           0       -5.187114    3.592041   -0.158132
     37          6           0       -2.475848    5.397954    0.243669
     38          6           0       -3.575721    6.187318    0.182421
     39          7           0        0.872470    1.209764    0.064770
     40          6           0        0.940568    2.555549    0.357252
     41          6           0        2.315034    3.001552    0.463842
     42          6           0        3.072133    1.942310    0.204909
     43          6           0        2.195439    0.846664   -0.012707
     44          6           0        2.718319    4.445503    0.748162
     45          6           0        4.595561    1.896357    0.035348
     46          6           0        5.017935    2.207241   -1.431061
     47          6           0        6.472441    2.383974   -1.657329
     48          8           0        6.986048    3.473400   -1.294814
     49          8           0        7.048103    1.379372   -2.235236
     50          6           0       -0.707283    0.741667   -2.022664
     51          8           0       -0.696536    1.279695   -2.973117
     52          1           0       -1.836314    0.907229    5.387752
     53          1           0       -2.569273   -0.672632    5.528737
     54          1           0       -0.892990   -0.445045    5.966167
     55          1           0       -0.155767   -2.251803    4.193244
     56          1           0        0.334506   -2.199547    1.669198
     57          1           0       -2.000820    1.101266    2.574979
     58          1           0        5.041394    2.617982    0.687567
     59          1           0        4.947155    0.921234    0.300706
     60          1           0        4.678611    1.405425   -2.053034
     61          1           0        4.521209    3.103767   -1.738317
     62          1           0        7.554201    1.513922   -3.039823
     63          1           0        2.724768    5.000719   -0.166493
     64          1           0        2.017339    4.884539    1.426967
     65          1           0        3.695637    4.463766    1.183381
     66          1           0        0.006582    4.374245    0.654974
     67          1           0       -1.505558    5.838816    0.338950
     68          1           0       -3.864893    6.630747   -0.747445
     69          1           0       -4.154954    6.367134    1.063928
     70          1           0       -5.452571    3.671056   -1.191665
     71          1           0       -5.822415    2.875707    0.319527
     72          1           0       -5.305408    4.544762    0.314339
     73          1           0       -5.108706    0.814244   -0.345925
     74          1           0       -6.572323   -0.945247   -0.475090
     75          1           0       -7.646290   -2.747955   -1.828566
     76          1           0       -6.229988   -2.515355   -3.001036
     77          1           0       -3.495847   -4.671813   -2.171395
     78          1           0       -4.199738   -4.805871   -0.577772
     79          1           0       -5.168989   -4.237723   -1.915991
     80          1           0       -1.463053   -4.215074   -1.356426
     81          1           0        3.657692   -0.625715   -0.337457
     82          1           0        1.925238   -5.427758   -2.012018
     83          1           0        1.103234   -5.705339   -0.495335
     84          1           0        0.179738   -5.386813   -1.944046
     85          1           0        4.350770   -2.602274   -0.670571
     86          1           0        3.902894   -4.036883   -1.552802
     87          1           0        4.870503   -4.616001    0.640649
     88          1           0        3.211609   -5.132707    0.533493
     89          1           0        4.715457   -2.054597    1.376422
 ---------------------------------------------------------------------
 Rotational constants (GHZ):           0.0695993           0.0511366           0.0378352
 Standard basis: def2TZVP (5D, 7F)
 There are  2080 symmetry adapted cartesian basis functions of A   symmetry.
 There are  1823 symmetry adapted basis functions of A   symmetry.
  1823 basis functions,  2956 primitive gaussians,  2080 cartesian basis functions
   190 alpha electrons      190 beta electrons
       nuclear repulsion energy      7864.1666777320 Hartrees.
 NAtoms=   89 NActive=   89 NUniq=   89 SFac= 1.00D+00 NAtFMM=   60 NAOKFM=T Big=T
 Integral buffers will be    131072 words long.
 Raffenetti 2 integral format.
 Two-electron integral symmetry is turned on.
 Nuclear repulsion after empirical dispersion term =     7864.0371318496 Hartrees.
 One-electron integrals computed using PRISM.
   1 Symmetry operations used in ECPInt.
 ECPInt:  NShTT=  257403 NPrTT=  800753 LenC2=  189729 LenP2D=  382375.
 LDataN:  DoStor=T MaxTD1= 6 Len=  172
 NBasis=  1823 RedAO= T EigKep=  2.76D-06  NBF=  1823
 NBsUse=  1823 1.00D-06 EigRej= -1.00D+00 NBFU=  1823
 ExpMin= 4.20D-02 ExpMax= 3.01D+05 ExpMxC= 2.91D+03 IAcc=3 IRadAn=         5 AccDes= 0.00D+00
 Harris functional with IExCor= 1009 and IRadAn=       5 diagonalized for initial guess.
 HarFok:  IExCor= 1009 AccDes= 0.00D+00 IRadAn=         5 IDoV= 1 UseB2=F ITyADJ=14
 ICtDFT=  3500011 ScaDFX=  1.000000  1.000000  1.000000  1.000000
 FoFCou: FMM=F IPFlag=           0 FMFlag=      100000 FMFlg1=        2001
         NFxFlg=           0 DoJE=T BraDBF=F KetDBF=T FulRan=T
         wScrn=  0.000000 ICntrl=       500 IOpCl=  0 I1Cent=   200000004 NGrid=           0
         NMat0=    1 NMatS0=      1 NMatT0=    0 NMatD0=    1 NMtDS0=    0 NMtDT0=    0
 Petite list used in FoFCou.
 Requested convergence on RMS density matrix=1.00D-08 within 128 cycles.
 Requested convergence on MAX density matrix=1.00D-06.
 Requested convergence on             energy=1.00D-06.
 No special actions if energy rises.
 SCF Done:  E(RPBE1PBE) =  -3475.47172590     A.U. after   20 cycles
            NFock= 20  Conv=0.36D-08     -V/T= 2.0033
 DoSCS=F DFT=T ScalE2(SS,OS)=  1.000000  1.000000
 Range of M.O.s used for correlation:     1  1823
 NBasis=  1823 NAE=   190 NBE=   190 NFC=     0 NFV=     0
 NROrb=   1823 NOA=   190 NOB=   190 NVA=  1633 NVB=  1633

 **** Warning!!: The largest alpha MO coefficient is  0.49344194D+02


 **** Warning!!: The smallest alpha delta epsilon is  0.69799827D-01

          Differentiating once with respect to electric field.
                with respect to dipole field.
          Electric field/nuclear overlap derivatives assumed to be zero.
          There are     3 degrees of freedom in the 1st order CPHF.  IDoFFX=0 NUNeed=     3.
      3 vectors produced by pass  0 Test12= 1.03D-11 3.33D-08 XBig12= 3.01D+03 3.52D+01.
 AX will form     3 AO Fock derivatives at one time.
      3 vectors produced by pass  1 Test12= 1.03D-11 3.33D-08 XBig12= 1.44D+03 9.81D+00.
      3 vectors produced by pass  2 Test12= 1.03D-11 3.33D-08 XBig12= 1.45D+03 9.25D+00.
      3 vectors produced by pass  3 Test12= 1.03D-11 3.33D-08 XBig12= 8.96D+02 1.38D+01.
      3 vectors produced by pass  4 Test12= 1.03D-11 3.33D-08 XBig12= 4.79D+02 5.50D+00.
      3 vectors produced by pass  5 Test12= 1.03D-11 3.33D-08 XBig12= 2.87D+02 3.01D+00.
      3 vectors produced by pass  6 Test12= 1.03D-11 3.33D-08 XBig12= 1.41D+02 2.50D+00.
      3 vectors produced by pass  7 Test12= 1.03D-11 3.33D-08 XBig12= 5.88D+01 1.56D+00.
      3 vectors produced by pass  8 Test12= 1.03D-11 3.33D-08 XBig12= 2.92D+01 1.07D+00.
      3 vectors produced by pass  9 Test12= 1.03D-11 3.33D-08 XBig12= 1.71D+01 8.67D-01.
      3 vectors produced by pass 10 Test12= 1.03D-11 3.33D-08 XBig12= 1.15D+01 7.76D-01.
      3 vectors produced by pass 11 Test12= 1.03D-11 3.33D-08 XBig12= 6.84D+00 5.16D-01.
      3 vectors produced by pass 12 Test12= 1.03D-11 3.33D-08 XBig12= 3.37D+00 4.12D-01.
      3 vectors produced by pass 13 Test12= 1.03D-11 3.33D-08 XBig12= 1.12D+00 1.45D-01.
      3 vectors produced by pass 14 Test12= 1.03D-11 3.33D-08 XBig12= 4.77D-01 1.12D-01.
      3 vectors produced by pass 15 Test12= 1.03D-11 3.33D-08 XBig12= 1.73D-01 8.01D-02.
      3 vectors produced by pass 16 Test12= 1.03D-11 3.33D-08 XBig12= 5.85D-02 6.60D-02.
      3 vectors produced by pass 17 Test12= 1.03D-11 3.33D-08 XBig12= 2.16D-02 3.84D-02.
      3 vectors produced by pass 18 Test12= 1.03D-11 3.33D-08 XBig12= 9.41D-03 1.82D-02.
      3 vectors produced by pass 19 Test12= 1.03D-11 3.33D-08 XBig12= 2.33D-03 5.91D-03.
      3 vectors produced by pass 20 Test12= 1.03D-11 3.33D-08 XBig12= 1.03D-03 4.05D-03.
      3 vectors produced by pass 21 Test12= 1.03D-11 3.33D-08 XBig12= 3.86D-04 2.51D-03.
      3 vectors produced by pass 22 Test12= 1.03D-11 3.33D-08 XBig12= 9.24D-05 1.68D-03.
      3 vectors produced by pass 23 Test12= 1.03D-11 3.33D-08 XBig12= 2.16D-05 8.76D-04.
      3 vectors produced by pass 24 Test12= 1.03D-11 3.33D-08 XBig12= 5.89D-06 5.85D-04.
      3 vectors produced by pass 25 Test12= 1.03D-11 3.33D-08 XBig12= 1.26D-06 3.00D-04.
      3 vectors produced by pass 26 Test12= 1.03D-11 3.33D-08 XBig12= 2.53D-07 1.27D-04.
      3 vectors produced by pass 27 Test12= 1.03D-11 3.33D-08 XBig12= 7.82D-08 5.99D-05.
      3 vectors produced by pass 28 Test12= 1.03D-11 3.33D-08 XBig12= 9.96D-09 1.85D-05.
      3 vectors produced by pass 29 Test12= 1.03D-11 3.33D-08 XBig12= 1.95D-09 6.19D-06.
      3 vectors produced by pass 30 Test12= 1.03D-11 3.33D-08 XBig12= 3.12D-10 2.53D-06.
      3 vectors produced by pass 31 Test12= 1.03D-11 3.33D-08 XBig12= 4.18D-11 1.24D-06.
      3 vectors produced by pass 32 Test12= 1.03D-11 3.33D-08 XBig12= 9.04D-12 3.66D-07.
      2 vectors produced by pass 33 Test12= 1.03D-11 3.33D-08 XBig12= 2.69D-12 1.73D-07.
      1 vectors produced by pass 34 Test12= 1.03D-11 3.33D-08 XBig12= 4.29D-13 4.33D-08.
 InvSVY:  IOpt=1 It=  1 EMax= 1.07D-14
 Solved reduced A of dimension   102 with     3 vectors.
 Isotropic polarizability for W=    0.000000      686.81 Bohr**3.
 End of Minotr F.D. properties file   721 does not exist.
 End of Minotr F.D. properties file   722 does not exist.
 End of Minotr F.D. properties file   788 does not exist.

 **********************************************************************

            Population analysis using the SCF density.

 **********************************************************************

 Orbital symmetries:
       Occupied  (A) (A) (A) (A) (A) (A) (A) (A) (A) (A) (A) (A)
                 (A) (A) (A) (A) (A) (A) (A) (A) (A) (A) (A) (A)
                 (A) (A) (A) (A) (A) (A) (A) (A) (A) (A) (A) (A)
                 (A) (A) (A) (A) (A) (A) (A) (A) (A) (A) (A) (A)
                 (A) (A) (A) (A) (A) (A) (A) (A) (A) (A) (A) (A)
                 (A) (A) (A) (A) (A) (A) (A) (A) (A) (A) (A) (A)
                 (A) (A) (A) (A) (A) (A) (A) (A) (A) (A) (A) (A)
                 (A) (A) (A) (A) (A) (A) (A) (A) (A) (A) (A) (A)
                 (A) (A) (A) (A) (A) (A) (A) (A) (A) (A) (A) (A)
                 (A) (A) (A) (A) (A) (A) (A) (A) (A) (A) (A) (A)
                 (A) (A) (A) (A) (A) (A) (A) (A) (A) (A) (A) (A)
                 (A) (A) (A) (A) (A) (A) (A) (A) (A) (A) (A) (A)
                 (A) (A) (A) (A) (A) (A) (A) (A) (A) (A) (A) (A)
                 (A) (A) (A) (A) (A) (A) (A) (A) (A) (A) (A) (A)
                 (A) (A) (A) (A) (A) (A) (A) (A) (A) (A) (A) (A)
                 (A) (A) (A) (A) (A) (A) (A) (A) (A) (A)
       Virtual   (A) (A) (A) (A) (A) (A) (A) (A) (A) (A) (A) (A)
                 (A) (A) (A) (A) (A) (A) (A) (A) (A) (A) (A) (A)
                 (A) (A) (A) (A) (A) (A) (A) (A) (A) (A) (A) (A)
                 (A) (A) (A) (A) (A) (A) (A) (A) (A) (A) (A) (A)
                 (A) (A) (A) (A) (A) (A) (A) (A) (A) (A) (A) (A)
                 (A) (A) (A) (A) (A) (A) (A) (A) (A) (A) (A) (A)
                 (A) (A) (A) (A) (A) (A) (A) (A) (A) (A) (A) (A)
                 (A) (A) (A) (A) (A) (A) (A) (A) (A) (A) (A) (A)
                 (A) (A) (A) (A) (A) (A) (A) (A) (A) (A) (A) (A)
                 (A) (A) (A) (A) (A) (A) (A) (A) (A) (A) (A) (A)
                 (A) (A) (A) (A) (A) (A) (A) (A) (A) (A) (A) (A)
                 (A) (A) (A) (A) (A) (A) (A) (A) (A) (A) (A) (A)
                 (A) (A) (A) (A) (A) (A) (A) (A) (A) (A) (A) (A)
                 (A) (A) (A) (A) (A) (A) (A) (A) (A) (A) (A) (A)
                 (A) (A) (A) (A) (A) (A) (A) (A) (A) (A) (A) (A)
                 (A) (A) (A) (A) (A) (A) (A) (A) (A) (A) (A) (A)
                 (A) (A) (A) (A) (A) (A) (A) (A) (A) (A) (A) (A)
                 (A) (A) (A) (A) (A) (A) (A) (A) (A) (A) (A) (A)
                 (A) (A) (A) (A) (A) (A) (A) (A) (A) (A) (A) (A)
                 (A) (A) (A) (A) (A) (A) (A) (A) (A) (A) (A) (A)
                 (A) (A) (A) (A) (A) (A) (A) (A) (A) (A) (A) (A)
                 (A) (A) (A) (A) (A) (A) (A) (A) (A) (A) (A) (A)
                 (A) (A) (A) (A) (A) (A) (A) (A) (A) (A) (A) (A)
                 (A) (A) (A) (A) (A) (A) (A) (A) (A) (A) (A) (A)
                 (A) (A) (A) (A) (A) (A) (A) (A) (A) (A) (A) (A)
                 (A) (A) (A) (A) (A) (A) (A) (A) (A) (A) (A) (A)
                 (A) (A) (A) (A) (A) (A) (A) (A) (A) (A) (A) (A)
                 (A) (A) (A) (A) (A) (A) (A) (A) (A) (A) (A) (A)
                 (A) (A) (A) (A) (A) (A) (A) (A) (A) (A) (A) (A)
                 (A) (A) (A) (A) (A) (A) (A) (A) (A) (A) (A) (A)
                 (A) (A) (A) (A) (A) (A) (A) (A) (A) (A) (A) (A)
                 (A) (A) (A) (A) (A) (A) (A) (A) (A) (A) (A) (A)
                 (A) (A) (A) (A) (A) (A) (A) (A) (A) (A) (A) (A)
                 (A) (A) (A) (A) (A) (A) (A) (A) (A) (A) (A) (A)
                 (A) (A) (A) (A) (A) (A) (A) (A) (A) (A) (A) (A)
                 (A) (A) (A) (A) (A) (A) (A) (A) (A) (A) (A) (A)
                 (A) (A) (A) (A) (A) (A) (A) (A) (A) (A) (A) (A)
                 (A) (A) (A) (A) (A) (A) (A) (A) (A) (A) (A) (A)
                 (A) (A) (A) (A) (A) (A) (A) (A) (A) (A) (A) (A)
                 (A) (A) (A) (A) (A) (A) (A) (A) (A) (A) (A) (A)
                 (A) (A) (A) (A) (A) (A) (A) (A) (A) (A) (A) (A)
                 (A) (A) (A) (A) (A) (A) (A) (A) (A) (A) (A) (A)
                 (A) (A) (A) (A) (A) (A) (A) (A) (A) (A) (A) (A)
                 (A) (A) (A) (A) (A) (A) (A) (A) (A) (A) (A) (A)
                 (A) (A) (A) (A) (A) (A) (A) (A) (A) (A) (A) (A)
                 (A) (A) (A) (A) (A) (A) (A) (A) (A) (A) (A) (A)
                 (A) (A) (A) (A) (A) (A) (A) (A) (A) (A) (A) (A)
                 (A) (A) (A) (A) (A) (A) (A) (A) (A) (A) (A) (A)
                 (A) (A) (A) (A) (A) (A) (A) (A) (A) (A) (A) (A)
                 (A) (A) (A) (A) (A) (A) (A) (A) (A) (A) (A) (A)
                 (A) (A) (A) (A) (A) (A) (A) (A) (A) (A) (A) (A)
                 (A) (A) (A) (A) (A) (A) (A) (A) (A) (A) (A) (A)
                 (A) (A) (A) (A) (A) (A) (A) (A) (A) (A) (A) (A)
                 (A) (A) (A) (A) (A) (A) (A) (A) (A) (A) (A) (A)
                 (A) (A) (A) (A) (A) (A) (A) (A) (A) (A) (A) (A)
                 (A) (A) (A) (A) (A) (A) (A) (A) (A) (A) (A) (A)
                 (A) (A) (A) (A) (A) (A) (A) (A) (A) (A) (A) (A)
                 (A) (A) (A) (A) (A) (A) (A) (A) (A) (A) (A) (A)
                 (A) (A) (A) (A) (A) (A) (A) (A) (A) (A) (A) (A)
                 (A) (A) (A) (A) (A) (A) (A) (A) (A) (A) (A) (A)
                 (A) (A) (A) (A) (A) (A) (A) (A) (A) (A) (A) (A)
                 (A) (A) (A) (A) (A) (A) (A) (A) (A) (A) (A) (A)
                 (A) (A) (A) (A) (A) (A) (A) (A) (A) (A) (A) (A)
                 (A) (A) (A) (A) (A) (A) (A) (A) (A) (A) (A) (A)
                 (A) (A) (A) (A) (A) (A) (A) (A) (A) (A) (A) (A)
                 (A) (A) (A) (A) (A) (A) (A) (A) (A) (A) (A) (A)
                 (A) (A) (A) (A) (A) (A) (A) (A) (A) (A) (A) (A)
                 (A) (A) (A) (A) (A) (A) (A) (A) (A) (A) (A) (A)
                 (A) (A) (A) (A) (A) (A) (A) (A) (A) (A) (A) (A)
                 (A) (A) (A) (A) (A) (A) (A) (A) (A) (A) (A) (A)
                 (A) (A) (A) (A) (A) (A) (A) (A) (A) (A) (A) (A)
                 (A) (A) (A) (A) (A) (A) (A) (A) (A) (A) (A) (A)
                 (A) (A) (A) (A) (A) (A) (A) (A) (A) (A) (A) (A)
                 (A) (A) (A) (A) (A) (A) (A) (A) (A) (A) (A) (A)
                 (A) (A) (A) (A) (A) (A) (A) (A) (A) (A) (A) (A)
                 (A) (A) (A) (A) (A) (A) (A) (A) (A) (A) (A) (A)
                 (A) (A) (A) (A) (A) (A) (A) (A) (A) (A) (A) (A)
                 (A) (A) (A) (A) (A) (A) (A) (A) (A) (A) (A) (A)
                 (A) (A) (A) (A) (A) (A) (A) (A) (A) (A) (A) (A)
                 (A) (A) (A) (A) (A) (A) (A) (A) (A) (A) (A) (A)
                 (A) (A) (A) (A) (A) (A) (A) (A) (A) (A) (A) (A)
                 (A) (A) (A) (A) (A) (A) (A) (A) (A) (A) (A) (A)
                 (A) (A) (A) (A) (A) (A) (A) (A) (A) (A) (A) (A)
                 (A) (A) (A) (A) (A) (A) (A) (A) (A) (A) (A) (A)
                 (A) (A) (A) (A) (A) (A) (A) (A) (A) (A) (A) (A)
                 (A) (A) (A) (A) (A) (A) (A) (A) (A) (A) (A) (A)
                 (A) (A) (A) (A) (A) (A) (A) (A) (A) (A) (A) (A)
                 (A) (A) (A) (A) (A) (A) (A) (A) (A) (A) (A) (A)
                 (A) (A) (A) (A) (A) (A) (A) (A) (A) (A) (A) (A)
                 (A) (A) (A) (A) (A) (A) (A) (A) (A) (A) (A) (A)
                 (A) (A) (A) (A) (A) (A) (A) (A) (A) (A) (A) (A)
                 (A) (A) (A) (A) (A) (A) (A) (A) (A) (A) (A) (A)
                 (A) (A) (A) (A) (A) (A) (A) (A) (A) (A) (A) (A)
                 (A) (A) (A) (A) (A) (A) (A) (A) (A) (A) (A) (A)
                 (A) (A) (A) (A) (A) (A) (A) (A) (A) (A) (A) (A)
                 (A) (A) (A) (A) (A) (A) (A) (A) (A) (A) (A) (A)
                 (A) (A) (A) (A) (A) (A) (A) (A) (A) (A) (A) (A)
                 (A) (A) (A) (A) (A) (A) (A) (A) (A) (A) (A) (A)
                 (A) (A) (A) (A) (A) (A) (A) (A) (A) (A) (A) (A)
                 (A) (A) (A) (A) (A) (A) (A) (A) (A) (A) (A) (A)
                 (A) (A) (A) (A) (A) (A) (A) (A) (A) (A) (A) (A)
                 (A) (A) (A) (A) (A) (A) (A) (A) (A) (A) (A) (A)
                 (A) (A) (A) (A) (A) (A) (A) (A) (A) (A) (A) (A)
                 (A) (A) (A) (A) (A) (A) (A) (A) (A) (A) (A) (A)
                 (A) (A) (A) (A) (A) (A) (A) (A) (A) (A) (A) (A)
                 (A) (A) (A) (A) (A) (A) (A) (A) (A) (A) (A) (A)
                 (A) (A) (A) (A) (A) (A) (A) (A) (A) (A) (A) (A)
                 (A) (A) (A) (A) (A) (A) (A) (A) (A) (A) (A) (A)
                 (A) (A) (A) (A) (A) (A) (A) (A) (A) (A) (A) (A)
                 (A) (A) (A) (A) (A) (A) (A) (A) (A) (A) (A) (A)
                 (A) (A) (A) (A) (A) (A) (A) (A) (A) (A) (A) (A)
                 (A) (A) (A) (A) (A) (A) (A) (A) (A) (A) (A) (A)
                 (A) (A) (A) (A) (A) (A) (A) (A) (A) (A) (A) (A)
                 (A) (A) (A) (A) (A) (A) (A) (A) (A) (A) (A) (A)
                 (A) (A) (A) (A) (A) (A) (A) (A) (A) (A) (A) (A)
                 (A) (A) (A) (A) (A) (A) (A) (A) (A) (A) (A) (A)
                 (A) (A) (A) (A) (A) (A) (A) (A) (A) (A) (A) (A)
                 (A) (A) (A) (A) (A) (A) (A) (A) (A) (A) (A) (A)
                 (A) (A) (A) (A) (A) (A) (A) (A) (A) (A) (A) (A)
                 (A) (A) (A) (A) (A) (A) (A) (A) (A) (A) (A) (A)
                 (A) (A) (A) (A) (A) (A) (A) (A) (A) (A) (A) (A)
                 (A) (A) (A) (A) (A) (A) (A) (A) (A) (A) (A) (A)
                 (A) (A) (A) (A) (A) (A) (A) (A) (A) (A) (A) (A)
                 (A) (A) (A) (A) (A) (A) (A) (A) (A) (A) (A) (A)
                 (A) (A) (A) (A) (A) (A) (A) (A) (A) (A) (A) (A)
                 (A) (A) (A) (A) (A) (A) (A) (A) (A) (A) (A) (A)
                 (A) (A) (A) (A) (A) (A) (A) (A) (A) (A) (A) (A)
                 (A) (A) (A) (A) (A) (A) (A) (A) (A) (A) (A) (A)
                 (A) (A) (A) (A) (A) (A) (A) (A) (A) (A) (A) (A)
                 (A) (A) (A) (A) (A) (A) (A) (A) (A) (A) (A) (A)
                 (A) (A) (A) (A) (A) (A) (A) (A) (A) (A) (A) (A)
                 (A) (A) (A) (A) (A) (A) (A) (A) (A) (A) (A) (A)
                 (A) (A) (A) (A) (A) (A) (A) (A) (A) (A) (A) (A)
                 (A) (A) (A) (A) (A) (A) (A) (A) (A) (A) (A) (A)
                 (A) (A) (A) (A) (A) (A) (A) (A) (A) (A) (A) (A)
                 (A) (A) (A) (A) (A) (A) (A) (A) (A) (A) (A) (A)
                 (A)
 The electronic state is 1-A.
 Alpha  occ. eigenvalues -- -256.33967 -30.11308 -25.94193 -25.93667 -25.93636
 Alpha  occ. eigenvalues --  -19.27518 -19.27208 -19.26748 -19.19302 -19.18254
 Alpha  occ. eigenvalues --  -14.44123 -14.39021 -14.38691 -14.37814 -14.37606
 Alpha  occ. eigenvalues --  -14.37467 -10.36249 -10.35832 -10.30726 -10.27373
 Alpha  occ. eigenvalues --  -10.25951 -10.25340 -10.25155 -10.24921 -10.24874
 Alpha  occ. eigenvalues --  -10.24817 -10.24691 -10.24495 -10.24196 -10.24066
 Alpha  occ. eigenvalues --  -10.24008 -10.23951 -10.23903 -10.23650 -10.23178
 Alpha  occ. eigenvalues --  -10.23142 -10.23034 -10.22915 -10.22876 -10.22637
 Alpha  occ. eigenvalues --  -10.22567 -10.22412 -10.22361 -10.22296 -10.22107
 Alpha  occ. eigenvalues --  -10.22067 -10.22049 -10.22046 -10.21465 -10.21300
 Alpha  occ. eigenvalues --  -10.21227 -10.21098 -10.21092 -10.20897 -10.20779
 Alpha  occ. eigenvalues --   -3.45315  -2.21547  -2.20435  -2.20420  -1.18490
 Alpha  occ. eigenvalues --   -1.17315  -1.15622  -1.05532  -1.03500  -1.02886
 Alpha  occ. eigenvalues --   -0.98373  -0.97522  -0.97138  -0.95285  -0.91642
 Alpha  occ. eigenvalues --   -0.84567  -0.84310  -0.83724  -0.83018  -0.82569
 Alpha  occ. eigenvalues --   -0.81452  -0.81129  -0.80089  -0.79882  -0.79052
 Alpha  occ. eigenvalues --   -0.77583  -0.76710  -0.75572  -0.74421  -0.73274
 Alpha  occ. eigenvalues --   -0.72359  -0.72284  -0.71711  -0.70460  -0.70322
 Alpha  occ. eigenvalues --   -0.69883  -0.67933  -0.66244  -0.65916  -0.65323
 Alpha  occ. eigenvalues --   -0.64589  -0.61421  -0.61034  -0.60557  -0.59901
 Alpha  occ. eigenvalues --   -0.57538  -0.57357  -0.56974  -0.56096  -0.55526
 Alpha  occ. eigenvalues --   -0.55049  -0.54524  -0.54192  -0.52722  -0.52384
 Alpha  occ. eigenvalues --   -0.52133  -0.51531  -0.50955  -0.50581  -0.49876
 Alpha  occ. eigenvalues --   -0.49185  -0.49056  -0.48838  -0.48455  -0.48261
 Alpha  occ. eigenvalues --   -0.48111  -0.47762  -0.47417  -0.47017  -0.46154
 Alpha  occ. eigenvalues --   -0.45911  -0.45700  -0.45598  -0.45017  -0.44694
 Alpha  occ. eigenvalues --   -0.44443  -0.44169  -0.43910  -0.43781  -0.43580
 Alpha  occ. eigenvalues --   -0.43439  -0.43271  -0.43152  -0.42816  -0.42703
 Alpha  occ. eigenvalues --   -0.42570  -0.42289  -0.42233  -0.41921  -0.41449
 Alpha  occ. eigenvalues --   -0.41279  -0.41199  -0.40568  -0.40543  -0.40177
 Alpha  occ. eigenvalues --   -0.39644  -0.39565  -0.39178  -0.38913  -0.38764
 Alpha  occ. eigenvalues --   -0.38437  -0.38251  -0.38106  -0.37805  -0.37637
 Alpha  occ. eigenvalues --   -0.37044  -0.36746  -0.36396  -0.36354  -0.35694
 Alpha  occ. eigenvalues --   -0.35343  -0.34468  -0.33735  -0.33381  -0.33121
 Alpha  occ. eigenvalues --   -0.32995  -0.32618  -0.32047  -0.30770  -0.29138
 Alpha  occ. eigenvalues --   -0.28999  -0.28625  -0.28145  -0.27915  -0.27666
 Alpha  occ. eigenvalues --   -0.25974  -0.25269  -0.23676  -0.22979  -0.22437
 Alpha  occ. eigenvalues --   -0.21217  -0.20559  -0.19656  -0.19090  -0.16762
 Alpha virt. eigenvalues --   -0.09782  -0.07430  -0.06137  -0.02795  -0.02272
 Alpha virt. eigenvalues --   -0.00452   0.00189   0.00541   0.01516   0.02326
 Alpha virt. eigenvalues --    0.02836   0.03121   0.03530   0.03641   0.04063
 Alpha virt. eigenvalues --    0.04339   0.04662   0.04940   0.05323   0.05811
 Alpha virt. eigenvalues --    0.06078   0.06832   0.07189   0.07501   0.07653
 Alpha virt. eigenvalues --    0.07917   0.08241   0.08263   0.08616   0.09078
 Alpha virt. eigenvalues --    0.09413   0.09701   0.09815   0.10009   0.10821
 Alpha virt. eigenvalues --    0.11084   0.11318   0.11418   0.11638   0.11964
 Alpha virt. eigenvalues --    0.12099   0.12235   0.12792   0.12812   0.12996
 Alpha virt. eigenvalues --    0.13233   0.13462   0.13615   0.13718   0.14032
 Alpha virt. eigenvalues --    0.14202   0.14422   0.14598   0.14638   0.14786
 Alpha virt. eigenvalues --    0.15134   0.15210   0.15454   0.15492   0.15738
 Alpha virt. eigenvalues --    0.16187   0.16680   0.16739   0.16927   0.17145
 Alpha virt. eigenvalues --    0.17556   0.17933   0.18015   0.18154   0.18553
 Alpha virt. eigenvalues --    0.18821   0.18935   0.19144   0.19325   0.19537
 Alpha virt. eigenvalues --    0.19783   0.19910   0.20240   0.20382   0.20423
 Alpha virt. eigenvalues --    0.20931   0.21383   0.21499   0.21562   0.21771
 Alpha virt. eigenvalues --    0.22165   0.22220   0.22552   0.22668   0.22970
 Alpha virt. eigenvalues --    0.23110   0.23434   0.23737   0.24173   0.24503
 Alpha virt. eigenvalues --    0.24511   0.24635   0.24910   0.25044   0.25253
 Alpha virt. eigenvalues --    0.25787   0.25960   0.25999   0.26179   0.26459
 Alpha virt. eigenvalues --    0.26842   0.26938   0.27075   0.27494   0.27639
 Alpha virt. eigenvalues --    0.27932   0.28078   0.28321   0.28482   0.28796
 Alpha virt. eigenvalues --    0.29229   0.29325   0.29522   0.29653   0.29887
 Alpha virt. eigenvalues --    0.30142   0.30407   0.30661   0.30888   0.31195
 Alpha virt. eigenvalues --    0.31375   0.31456   0.31707   0.31948   0.32221
 Alpha virt. eigenvalues --    0.32660   0.32987   0.33026   0.33313   0.33531
 Alpha virt. eigenvalues --    0.33846   0.34062   0.34312   0.34660   0.34807
 Alpha virt. eigenvalues --    0.35196   0.35325   0.35604   0.35872   0.36239
 Alpha virt. eigenvalues --    0.36705   0.36717   0.36817   0.37230   0.37443
 Alpha virt. eigenvalues --    0.37663   0.37691   0.37933   0.38220   0.38472
 Alpha virt. eigenvalues --    0.38625   0.38811   0.39046   0.39290   0.39456
 Alpha virt. eigenvalues --    0.39474   0.39739   0.40006   0.40282   0.40413
 Alpha virt. eigenvalues --    0.40615   0.40932   0.41236   0.41264   0.41467
 Alpha virt. eigenvalues --    0.41601   0.41800   0.42285   0.42334   0.42383
 Alpha virt. eigenvalues --    0.42711   0.42801   0.42966   0.43114   0.43219
 Alpha virt. eigenvalues --    0.43434   0.43733   0.43861   0.44113   0.44282
 Alpha virt. eigenvalues --    0.44367   0.44638   0.44830   0.44958   0.45158
 Alpha virt. eigenvalues --    0.45437   0.45590   0.45736   0.45783   0.45905
 Alpha virt. eigenvalues --    0.46274   0.46437   0.46747   0.46885   0.46909
 Alpha virt. eigenvalues --    0.47204   0.47382   0.47467   0.47666   0.47767
 Alpha virt. eigenvalues --    0.47827   0.48052   0.48595   0.48660   0.48918
 Alpha virt. eigenvalues --    0.49083   0.49271   0.49449   0.49543   0.49844
 Alpha virt. eigenvalues --    0.49870   0.49980   0.50333   0.50511   0.50759
 Alpha virt. eigenvalues --    0.50823   0.51246   0.51535   0.51735   0.51838
 Alpha virt. eigenvalues --    0.52247   0.52415   0.52512   0.52791   0.52914
 Alpha virt. eigenvalues --    0.53162   0.53355   0.53453   0.53719   0.54287
 Alpha virt. eigenvalues --    0.54394   0.54608   0.54823   0.55211   0.55454
 Alpha virt. eigenvalues --    0.55483   0.55745   0.56009   0.56254   0.56280
 Alpha virt. eigenvalues --    0.56833   0.57100   0.57220   0.57576   0.57785
 Alpha virt. eigenvalues --    0.58176   0.58187   0.58329   0.58519   0.58854
 Alpha virt. eigenvalues --    0.58908   0.59111   0.59529   0.59835   0.60087
 Alpha virt. eigenvalues --    0.60474   0.60730   0.60938   0.61077   0.61383
 Alpha virt. eigenvalues --    0.61501   0.61808   0.61907   0.62301   0.62516
 Alpha virt. eigenvalues --    0.62572   0.63058   0.63375   0.63563   0.63781
 Alpha virt. eigenvalues --    0.63990   0.64283   0.64410   0.64593   0.64766
 Alpha virt. eigenvalues --    0.65168   0.65738   0.65753   0.66204   0.66265
 Alpha virt. eigenvalues --    0.66399   0.66713   0.67071   0.67392   0.67768
 Alpha virt. eigenvalues --    0.67966   0.68069   0.68281   0.68856   0.69124
 Alpha virt. eigenvalues --    0.69259   0.69657   0.69812   0.70236   0.70687
 Alpha virt. eigenvalues --    0.70883   0.71267   0.71337   0.71461   0.71873
 Alpha virt. eigenvalues --    0.72070   0.72124   0.72398   0.72441   0.72740
 Alpha virt. eigenvalues --    0.72896   0.73498   0.74050   0.74271   0.74422
 Alpha virt. eigenvalues --    0.74605   0.74865   0.75257   0.75515   0.75676
 Alpha virt. eigenvalues --    0.76314   0.76778   0.76991   0.77321   0.77443
 Alpha virt. eigenvalues --    0.77772   0.78221   0.78303   0.78520   0.79011
 Alpha virt. eigenvalues --    0.79082   0.79758   0.80428   0.80478   0.80661
 Alpha virt. eigenvalues --    0.81024   0.81556   0.81667   0.82015   0.82203
 Alpha virt. eigenvalues --    0.82588   0.82833   0.83291   0.83538   0.83708
 Alpha virt. eigenvalues --    0.83760   0.84253   0.84635   0.84883   0.85136
 Alpha virt. eigenvalues --    0.85224   0.85658   0.85860   0.86338   0.86518
 Alpha virt. eigenvalues --    0.86807   0.87184   0.87599   0.87825   0.88105
 Alpha virt. eigenvalues --    0.88366   0.88621   0.89064   0.89325   0.89701
 Alpha virt. eigenvalues --    0.90315   0.90429   0.90954   0.91086   0.91461
 Alpha virt. eigenvalues --    0.91595   0.92091   0.92211   0.92711   0.92920
 Alpha virt. eigenvalues --    0.93211   0.93483   0.93546   0.94067   0.94254
 Alpha virt. eigenvalues --    0.94626   0.94906   0.95084   0.95213   0.95324
 Alpha virt. eigenvalues --    0.95618   0.96184   0.96360   0.96519   0.96749
 Alpha virt. eigenvalues --    0.96903   0.97177   0.97497   0.97807   0.98036
 Alpha virt. eigenvalues --    0.98379   0.98747   0.99063   0.99165   0.99290
 Alpha virt. eigenvalues --    0.99595   1.00097   1.00205   1.00486   1.00886
 Alpha virt. eigenvalues --    1.01169   1.01336   1.01602   1.01900   1.02224
 Alpha virt. eigenvalues --    1.02325   1.02724   1.03056   1.03541   1.03776
 Alpha virt. eigenvalues --    1.04082   1.04348   1.04564   1.05215   1.05815
 Alpha virt. eigenvalues --    1.06311   1.06415   1.06688   1.06983   1.07577
 Alpha virt. eigenvalues --    1.07761   1.08140   1.08504   1.08775   1.09240
 Alpha virt. eigenvalues --    1.09444   1.09688   1.10065   1.10173   1.10372
 Alpha virt. eigenvalues --    1.10811   1.11138   1.11429   1.12017   1.12472
 Alpha virt. eigenvalues --    1.12729   1.12948   1.13133   1.13357   1.14029
 Alpha virt. eigenvalues --    1.14921   1.15126   1.15376   1.15691   1.16203
 Alpha virt. eigenvalues --    1.16411   1.16800   1.17330   1.17420   1.17635
 Alpha virt. eigenvalues --    1.18135   1.18577   1.18632   1.19326   1.19773
 Alpha virt. eigenvalues --    1.20043   1.20188   1.20698   1.20769   1.21151
 Alpha virt. eigenvalues --    1.21824   1.22366   1.22579   1.22917   1.23481
 Alpha virt. eigenvalues --    1.24018   1.24158   1.24472   1.24998   1.25199
 Alpha virt. eigenvalues --    1.25706   1.26004   1.26475   1.26714   1.27024
 Alpha virt. eigenvalues --    1.27312   1.27407   1.27855   1.28133   1.28278
 Alpha virt. eigenvalues --    1.28964   1.28986   1.29282   1.29833   1.30168
 Alpha virt. eigenvalues --    1.31131   1.31299   1.31998   1.32228   1.32981
 Alpha virt. eigenvalues --    1.33099   1.33500   1.33795   1.34004   1.34441
 Alpha virt. eigenvalues --    1.34881   1.35111   1.35131   1.35605   1.35998
 Alpha virt. eigenvalues --    1.36308   1.36943   1.37150   1.37928   1.38421
 Alpha virt. eigenvalues --    1.38646   1.38981   1.39488   1.39993   1.40377
 Alpha virt. eigenvalues --    1.40448   1.40884   1.41325   1.41450   1.42062
 Alpha virt. eigenvalues --    1.42527   1.42751   1.43129   1.43407   1.43694
 Alpha virt. eigenvalues --    1.44125   1.45034   1.45204   1.45541   1.45926
 Alpha virt. eigenvalues --    1.46343   1.47255   1.47609   1.47901   1.48015
 Alpha virt. eigenvalues --    1.48602   1.48707   1.49008   1.49096   1.49846
 Alpha virt. eigenvalues --    1.50039   1.50104   1.50839   1.51047   1.51404
 Alpha virt. eigenvalues --    1.51830   1.52104   1.52359   1.52509   1.52874
 Alpha virt. eigenvalues --    1.53124   1.53150   1.53406   1.53956   1.54274
 Alpha virt. eigenvalues --    1.54463   1.54687   1.55035   1.55388   1.55590
 Alpha virt. eigenvalues --    1.55681   1.56169   1.56248   1.56527   1.56972
 Alpha virt. eigenvalues --    1.57226   1.57560   1.57720   1.57858   1.58390
 Alpha virt. eigenvalues --    1.58514   1.58743   1.59141   1.59391   1.59570
 Alpha virt. eigenvalues --    1.59801   1.59946   1.60335   1.60644   1.60965
 Alpha virt. eigenvalues --    1.61183   1.61432   1.61751   1.62039   1.62220
 Alpha virt. eigenvalues --    1.62377   1.62449   1.62995   1.63576   1.63799
 Alpha virt. eigenvalues --    1.64055   1.64092   1.64367   1.64482   1.64787
 Alpha virt. eigenvalues --    1.65043   1.65688   1.65885   1.66188   1.66331
 Alpha virt. eigenvalues --    1.66527   1.66890   1.67136   1.67383   1.67829
 Alpha virt. eigenvalues --    1.67933   1.68291   1.68565   1.68842   1.69038
 Alpha virt. eigenvalues --    1.69416   1.69887   1.70011   1.70622   1.70981
 Alpha virt. eigenvalues --    1.71280   1.71481   1.71621   1.71960   1.72558
 Alpha virt. eigenvalues --    1.72728   1.72970   1.73345   1.73561   1.73748
 Alpha virt. eigenvalues --    1.74082   1.74338   1.74842   1.74992   1.75376
 Alpha virt. eigenvalues --    1.75701   1.75797   1.76086   1.76886   1.77046
 Alpha virt. eigenvalues --    1.77727   1.77880   1.78234   1.78629   1.78751
 Alpha virt. eigenvalues --    1.79581   1.79675   1.80247   1.80362   1.80963
 Alpha virt. eigenvalues --    1.81843   1.82320   1.82791   1.83144   1.83705
 Alpha virt. eigenvalues --    1.84105   1.84274   1.84728   1.85537   1.85765
 Alpha virt. eigenvalues --    1.86010   1.86305   1.86682   1.87399   1.87583
 Alpha virt. eigenvalues --    1.87839   1.88127   1.88323   1.88696   1.89088
 Alpha virt. eigenvalues --    1.89188   1.89754   1.90028   1.90711   1.90889
 Alpha virt. eigenvalues --    1.91147   1.91553   1.92111   1.92666   1.92726
 Alpha virt. eigenvalues --    1.93284   1.93583   1.93938   1.94047   1.94579
 Alpha virt. eigenvalues --    1.94753   1.95626   1.96345   1.96427   1.96709
 Alpha virt. eigenvalues --    1.97339   1.97633   1.97906   1.98109   1.98476
 Alpha virt. eigenvalues --    1.98560   1.99242   1.99280   1.99634   2.00121
 Alpha virt. eigenvalues --    2.00996   2.01280   2.01362   2.01820   2.02209
 Alpha virt. eigenvalues --    2.02511   2.02995   2.03432   2.03786   2.04278
 Alpha virt. eigenvalues --    2.04576   2.05075   2.05354   2.05565   2.06304
 Alpha virt. eigenvalues --    2.06841   2.07668   2.07807   2.08094   2.08390
 Alpha virt. eigenvalues --    2.08726   2.08963   2.09587   2.09995   2.10348
 Alpha virt. eigenvalues --    2.10901   2.11067   2.11535   2.11737   2.11851
 Alpha virt. eigenvalues --    2.12347   2.12504   2.12688   2.13092   2.13590
 Alpha virt. eigenvalues --    2.13740   2.14255   2.14812   2.14987   2.15994
 Alpha virt. eigenvalues --    2.16231   2.16290   2.16703   2.17043   2.17283
 Alpha virt. eigenvalues --    2.17702   2.18012   2.18059   2.18669   2.18946
 Alpha virt. eigenvalues --    2.19115   2.19496   2.19721   2.20876   2.21010
 Alpha virt. eigenvalues --    2.21325   2.21982   2.22381   2.22857   2.23049
 Alpha virt. eigenvalues --    2.23221   2.23916   2.24432   2.24984   2.25449
 Alpha virt. eigenvalues --    2.25679   2.26356   2.26553   2.26977   2.27343
 Alpha virt. eigenvalues --    2.27780   2.27872   2.28290   2.28987   2.29088
 Alpha virt. eigenvalues --    2.29623   2.30107   2.30620   2.30870   2.31394
 Alpha virt. eigenvalues --    2.31447   2.31982   2.32507   2.32724   2.32999
 Alpha virt. eigenvalues --    2.33368   2.33826   2.34209   2.34421   2.35398
 Alpha virt. eigenvalues --    2.36108   2.36194   2.36688   2.37361   2.37738
 Alpha virt. eigenvalues --    2.38047   2.38352   2.38682   2.39113   2.39255
 Alpha virt. eigenvalues --    2.39460   2.39850   2.40154   2.40886   2.41246
 Alpha virt. eigenvalues --    2.41488   2.41826   2.41902   2.42257   2.42384
 Alpha virt. eigenvalues --    2.43232   2.43403   2.43990   2.44679   2.44812
 Alpha virt. eigenvalues --    2.45417   2.45591   2.46079   2.46377   2.46535
 Alpha virt. eigenvalues --    2.46862   2.47521   2.47784   2.48461   2.48579
 Alpha virt. eigenvalues --    2.49316   2.49743   2.49908   2.50171   2.51302
 Alpha virt. eigenvalues --    2.51494   2.52104   2.52409   2.53257   2.53947
 Alpha virt. eigenvalues --    2.54143   2.54525   2.54636   2.55194   2.55403
 Alpha virt. eigenvalues --    2.56001   2.56129   2.56266   2.56656   2.57194
 Alpha virt. eigenvalues --    2.57605   2.57915   2.58269   2.58439   2.59005
 Alpha virt. eigenvalues --    2.59226   2.59430   2.59634   2.60198   2.60236
 Alpha virt. eigenvalues --    2.60613   2.60690   2.61279   2.61725   2.62089
 Alpha virt. eigenvalues --    2.62245   2.62475   2.62593   2.62759   2.63128
 Alpha virt. eigenvalues --    2.63556   2.63748   2.64366   2.64478   2.64907
 Alpha virt. eigenvalues --    2.65219   2.65706   2.66233   2.66454   2.66720
 Alpha virt. eigenvalues --    2.66802   2.67305   2.67458   2.67816   2.68162
 Alpha virt. eigenvalues --    2.68237   2.68828   2.69039   2.69731   2.70017
 Alpha virt. eigenvalues --    2.70154   2.70870   2.71033   2.71222   2.71655
 Alpha virt. eigenvalues --    2.72192   2.72431   2.73282   2.73439   2.73649
 Alpha virt. eigenvalues --    2.74123   2.74256   2.74937   2.75008   2.75657
 Alpha virt. eigenvalues --    2.75760   2.75914   2.76357   2.76616   2.76831
 Alpha virt. eigenvalues --    2.76998   2.77514   2.78235   2.78375   2.78780
 Alpha virt. eigenvalues --    2.79060   2.79376   2.80111   2.80305   2.80620
 Alpha virt. eigenvalues --    2.80899   2.81071   2.81639   2.81785   2.82302
 Alpha virt. eigenvalues --    2.82840   2.83080   2.83708   2.83889   2.84478
 Alpha virt. eigenvalues --    2.84969   2.84991   2.85301   2.85688   2.86166
 Alpha virt. eigenvalues --    2.86609   2.86816   2.86878   2.87140   2.87470
 Alpha virt. eigenvalues --    2.87836   2.88133   2.88466   2.89344   2.89509
 Alpha virt. eigenvalues --    2.90232   2.90264   2.90515   2.91070   2.91611
 Alpha virt. eigenvalues --    2.91685   2.91852   2.92092   2.92623   2.92875
 Alpha virt. eigenvalues --    2.93166   2.93290   2.93405   2.93645   2.93845
 Alpha virt. eigenvalues --    2.94384   2.94445   2.94661   2.94830   2.95371
 Alpha virt. eigenvalues --    2.95838   2.96116   2.96435   2.96757   2.97136
 Alpha virt. eigenvalues --    2.97463   2.97789   2.98253   2.98437   2.98751
 Alpha virt. eigenvalues --    2.98909   2.99187   2.99294   2.99880   3.00294
 Alpha virt. eigenvalues --    3.00571   3.00927   3.01242   3.01357   3.01832
 Alpha virt. eigenvalues --    3.02227   3.02387   3.02608   3.03011   3.03327
 Alpha virt. eigenvalues --    3.03749   3.03913   3.04402   3.04632   3.04959
 Alpha virt. eigenvalues --    3.05560   3.05703   3.06003   3.06123   3.06386
 Alpha virt. eigenvalues --    3.06622   3.06715   3.07156   3.07562   3.07788
 Alpha virt. eigenvalues --    3.08109   3.08386   3.08670   3.09062   3.09415
 Alpha virt. eigenvalues --    3.09745   3.10097   3.10550   3.10845   3.11025
 Alpha virt. eigenvalues --    3.11383   3.11718   3.11958   3.12053   3.12475
 Alpha virt. eigenvalues --    3.12756   3.13044   3.13162   3.13395   3.13760
 Alpha virt. eigenvalues --    3.14057   3.14331   3.14716   3.14877   3.15203
 Alpha virt. eigenvalues --    3.15642   3.16032   3.16379   3.16848   3.17063
 Alpha virt. eigenvalues --    3.17216   3.17286   3.17760   3.17857   3.18051
 Alpha virt. eigenvalues --    3.18363   3.18530   3.19003   3.19205   3.19401
 Alpha virt. eigenvalues --    3.19607   3.19957   3.20008   3.20688   3.20984
 Alpha virt. eigenvalues --    3.21374   3.21462   3.21926   3.22001   3.22149
 Alpha virt. eigenvalues --    3.22399   3.22553   3.22761   3.22925   3.23612
 Alpha virt. eigenvalues --    3.23769   3.24267   3.24345   3.24712   3.24820
 Alpha virt. eigenvalues --    3.25353   3.25454   3.25741   3.25889   3.26093
 Alpha virt. eigenvalues --    3.26307   3.26675   3.26821   3.26965   3.27274
 Alpha virt. eigenvalues --    3.27536   3.27976   3.28293   3.28603   3.28869
 Alpha virt. eigenvalues --    3.29056   3.29474   3.29525   3.29712   3.29849
 Alpha virt. eigenvalues --    3.30416   3.30842   3.31037   3.31143   3.31575
 Alpha virt. eigenvalues --    3.31704   3.31852   3.32346   3.32556   3.32722
 Alpha virt. eigenvalues --    3.32918   3.33150   3.33309   3.33520   3.33707
 Alpha virt. eigenvalues --    3.33983   3.34671   3.34786   3.35086   3.35298
 Alpha virt. eigenvalues --    3.35678   3.35999   3.36409   3.36685   3.36955
 Alpha virt. eigenvalues --    3.37314   3.37569   3.37591   3.37826   3.38332
 Alpha virt. eigenvalues --    3.38528   3.38689   3.38964   3.39272   3.39707
 Alpha virt. eigenvalues --    3.39798   3.40235   3.40576   3.40759   3.41012
 Alpha virt. eigenvalues --    3.41338   3.41546   3.41744   3.41863   3.42216
 Alpha virt. eigenvalues --    3.42460   3.42948   3.43243   3.43543   3.44073
 Alpha virt. eigenvalues --    3.44289   3.44749   3.45132   3.45292   3.45460
 Alpha virt. eigenvalues --    3.45857   3.46172   3.46386   3.46546   3.46819
 Alpha virt. eigenvalues --    3.47239   3.47478   3.47961   3.48411   3.48678
 Alpha virt. eigenvalues --    3.48915   3.49405   3.49518   3.49796   3.50267
 Alpha virt. eigenvalues --    3.50741   3.50897   3.51163   3.51531   3.51829
 Alpha virt. eigenvalues --    3.51927   3.52711   3.53061   3.53228   3.53378
 Alpha virt. eigenvalues --    3.53912   3.54287   3.55208   3.55380   3.55746
 Alpha virt. eigenvalues --    3.56246   3.56500   3.56973   3.57138   3.57493
 Alpha virt. eigenvalues --    3.57608   3.57890   3.58317   3.58532   3.59351
 Alpha virt. eigenvalues --    3.59611   3.59721   3.59822   3.60269   3.60982
 Alpha virt. eigenvalues --    3.61171   3.61473   3.62215   3.62545   3.62756
 Alpha virt. eigenvalues --    3.63260   3.63659   3.64075   3.64374   3.64679
 Alpha virt. eigenvalues --    3.65081   3.65414   3.65575   3.66243   3.66499
 Alpha virt. eigenvalues --    3.66933   3.67507   3.67675   3.68158   3.68378
 Alpha virt. eigenvalues --    3.68656   3.69087   3.69537   3.70042   3.70533
 Alpha virt. eigenvalues --    3.70779   3.70957   3.71458   3.71897   3.71981
 Alpha virt. eigenvalues --    3.72822   3.73429   3.73473   3.73782   3.74176
 Alpha virt. eigenvalues --    3.75029   3.75177   3.75340   3.75704   3.76303
 Alpha virt. eigenvalues --    3.76795   3.77141   3.77530   3.77653   3.78114
 Alpha virt. eigenvalues --    3.78149   3.78904   3.79582   3.79750   3.80255
 Alpha virt. eigenvalues --    3.80757   3.81001   3.81932   3.82007   3.82541
 Alpha virt. eigenvalues --    3.83438   3.83666   3.84186   3.84813   3.85502
 Alpha virt. eigenvalues --    3.85804   3.86495   3.86875   3.86998   3.87761
 Alpha virt. eigenvalues --    3.88066   3.88773   3.89032   3.89734   3.90477
 Alpha virt. eigenvalues --    3.91036   3.91756   3.91895   3.92573   3.92838
 Alpha virt. eigenvalues --    3.93273   3.94216   3.94282   3.94758   3.95301
 Alpha virt. eigenvalues --    3.95558   3.95974   3.96388   3.97220   3.97684
 Alpha virt. eigenvalues --    3.98112   3.98543   3.98968   3.99598   4.00878
 Alpha virt. eigenvalues --    4.01489   4.01691   4.01968   4.02832   4.02858
 Alpha virt. eigenvalues --    4.03828   4.04685   4.05413   4.05839   4.06380
 Alpha virt. eigenvalues --    4.06989   4.07483   4.07644   4.08688   4.09325
 Alpha virt. eigenvalues --    4.10662   4.11156   4.11513   4.11852   4.13044
 Alpha virt. eigenvalues --    4.13264   4.13740   4.14206   4.14423   4.15151
 Alpha virt. eigenvalues --    4.15509   4.15651   4.16205   4.16672   4.17536
 Alpha virt. eigenvalues --    4.18297   4.18568   4.18850   4.19302   4.19717
 Alpha virt. eigenvalues --    4.20612   4.20950   4.21019   4.21163   4.22264
 Alpha virt. eigenvalues --    4.22514   4.23148   4.23364   4.23713   4.24658
 Alpha virt. eigenvalues --    4.25247   4.25509   4.26003   4.26304   4.26972
 Alpha virt. eigenvalues --    4.27697   4.28585   4.29391   4.29849   4.30116
 Alpha virt. eigenvalues --    4.30374   4.31164   4.31232   4.32095   4.32925
 Alpha virt. eigenvalues --    4.33741   4.34063   4.34447   4.34757   4.35161
 Alpha virt. eigenvalues --    4.35384   4.36533   4.36998   4.37460   4.37658
 Alpha virt. eigenvalues --    4.38252   4.38808   4.39446   4.39974   4.40768
 Alpha virt. eigenvalues --    4.41248   4.41399   4.42033   4.42336   4.42864
 Alpha virt. eigenvalues --    4.43381   4.43914   4.44522   4.44757   4.45118
 Alpha virt. eigenvalues --    4.46104   4.46240   4.46792   4.47373   4.47721
 Alpha virt. eigenvalues --    4.47971   4.48859   4.49372   4.49578   4.50473
 Alpha virt. eigenvalues --    4.51108   4.51500   4.52807   4.52922   4.53295
 Alpha virt. eigenvalues --    4.54292   4.55428   4.57090   4.57529   4.58396
 Alpha virt. eigenvalues --    4.58991   4.59695   4.60268   4.61149   4.61291
 Alpha virt. eigenvalues --    4.61912   4.62065   4.62696   4.63296   4.63669
 Alpha virt. eigenvalues --    4.64813   4.65423   4.65742   4.66471   4.67504
 Alpha virt. eigenvalues --    4.68005   4.68471   4.69008   4.69870   4.70900
 Alpha virt. eigenvalues --    4.71707   4.71864   4.72301   4.73161   4.73652
 Alpha virt. eigenvalues --    4.74362   4.74740   4.75536   4.75909   4.76271
 Alpha virt. eigenvalues --    4.76473   4.77870   4.77996   4.78839   4.79150
 Alpha virt. eigenvalues --    4.80393   4.80737   4.81739   4.82314   4.83108
 Alpha virt. eigenvalues --    4.83335   4.84065   4.84479   4.86635   4.86904
 Alpha virt. eigenvalues --    4.87560   4.87807   4.88278   4.89627   4.90713
 Alpha virt. eigenvalues --    4.90863   4.91851   4.92006   4.92388   4.92946
 Alpha virt. eigenvalues --    4.93989   4.94784   4.95760   4.96077   4.96343
 Alpha virt. eigenvalues --    4.97357   4.98468   4.98984   4.99288   5.00601
 Alpha virt. eigenvalues --    5.02246   5.03648   5.04230   5.04577   5.04974
 Alpha virt. eigenvalues --    5.06037   5.07178   5.07456   5.08205   5.09732
 Alpha virt. eigenvalues --    5.10067   5.10518   5.11532   5.11738   5.12834
 Alpha virt. eigenvalues --    5.13185   5.13495   5.16595   5.16954   5.18128
 Alpha virt. eigenvalues --    5.18858   5.18943   5.19067   5.19521   5.20474
 Alpha virt. eigenvalues --    5.21728   5.21976   5.22462   5.22916   5.23022
 Alpha virt. eigenvalues --    5.23466   5.24535   5.26115   5.26999   5.27634
 Alpha virt. eigenvalues --    5.28063   5.28596   5.29079   5.29903   5.30146
 Alpha virt. eigenvalues --    5.31446   5.32887   5.33724   5.35336   5.37572
 Alpha virt. eigenvalues --    5.38215   5.38485   5.39602   5.39872   5.39955
 Alpha virt. eigenvalues --    5.40789   5.41427   5.43378   5.44070   5.44905
 Alpha virt. eigenvalues --    5.45161   5.47224   5.47794   5.49270   5.50510
 Alpha virt. eigenvalues --    5.51432   5.52591   5.53408   5.54820   5.57235
 Alpha virt. eigenvalues --    5.57382   5.58184   5.58599   5.59316   5.60021
 Alpha virt. eigenvalues --    5.61392   5.61601   5.63348   5.64303   5.64640
 Alpha virt. eigenvalues --    5.64858   5.65431   5.66692   5.68065   5.72207
 Alpha virt. eigenvalues --    5.74262   5.75792   5.78065   5.79104   5.80241
 Alpha virt. eigenvalues --    5.82427   5.84126   5.84264   5.84908   5.86205
 Alpha virt. eigenvalues --    5.90084   5.94398   5.94647   5.94804   5.97110
 Alpha virt. eigenvalues --    5.99493   5.99677   6.01789   6.03376   6.03604
 Alpha virt. eigenvalues --    6.06104   6.08243   6.11462   6.12123   6.13282
 Alpha virt. eigenvalues --    6.13785   6.15486   6.16527   6.19222   6.21648
 Alpha virt. eigenvalues --    6.23586   6.28689   6.29821   6.29918   6.31920
 Alpha virt. eigenvalues --    6.32507   6.34086   6.35959   6.36935   6.38123
 Alpha virt. eigenvalues --    6.38679   6.44073   6.44587   6.47901   6.50109
 Alpha virt. eigenvalues --    6.50688   6.53510   6.54008   6.62328   6.68196
 Alpha virt. eigenvalues --    6.72617   6.77475   6.79940   6.80487   6.84042
 Alpha virt. eigenvalues --    6.87575   6.88283   6.89517   6.93399   6.95639
 Alpha virt. eigenvalues --    6.99519   7.09279   7.11819   7.16854   7.19334
 Alpha virt. eigenvalues --    7.24129   7.25229   7.30950  22.35912  22.39148
 Alpha virt. eigenvalues --   22.49421  22.52103  22.53070  22.57587  22.59455
 Alpha virt. eigenvalues --   22.63198  22.63996  22.70647  22.72596  22.79120
 Alpha virt. eigenvalues --   22.79719  22.84536  22.90776  22.92391  22.95536
 Alpha virt. eigenvalues --   22.97953  23.00765  23.07792  23.09255  23.12565
 Alpha virt. eigenvalues --   23.20611  23.24345  23.28472  23.32527  23.32818
 Alpha virt. eigenvalues --   23.36800  23.40331  23.42912  23.47230  23.51735
 Alpha virt. eigenvalues --   23.56924  23.61533  23.62579  23.74606  23.83093
 Alpha virt. eigenvalues --   23.87306  23.97160  32.46926  32.82499  32.98341
 Alpha virt. eigenvalues --   32.99842  33.02089  33.28903  43.93540  43.94371
 Alpha virt. eigenvalues --   43.97153  44.10146  44.11470
          Condensed to atoms (all electrons):
 Mulliken charges:
               1
     1  C   -0.385856
     2  C    0.152162
     3  N   -0.223431
     4  C   -0.198987
     5  C   -0.001754
     6  N    0.065678
     7  Fe  -0.354947
     8  C   -0.477213
     9  C   -0.459701
    10  C   -0.435131
    11  C   -0.404711
    12  N   -0.019415
    13  C    0.260201
    14  C    0.009483
    15  C   -0.074405
    16  C    0.264203
    17  C   -0.412756
    18  C   -0.422660
    19  C   -0.175483
    20  C    0.298919
    21  O   -0.396957
    22  O   -0.275168
    23  N    0.033236
    24  C    0.250696
    25  C   -0.170906
    26  C    0.083981
    27  C    0.190300
    28  C   -0.366944
    29  C   -0.221949
    30  C   -0.319986
    31  N   -0.053959
    32  C    0.271621
    33  C   -0.095419
    34  C   -0.037359
    35  C    0.238771
    36  C   -0.362957
    37  C   -0.119163
    38  C   -0.408811
    39  N    0.006432
    40  C    0.248443
    41  C   -0.081421
    42  C   -0.040006
    43  C    0.281826
    44  C   -0.396815
    45  C   -0.335584
    46  C   -0.152383
    47  C    0.302395
    48  O   -0.353793
    49  O   -0.373901
    50  C    0.113386
    51  O   -0.009377
    52  H    0.146519
    53  H    0.145150
    54  H    0.130825
    55  H    0.244814
    56  H    0.200814
    57  H    0.142653
    58  H    0.136077
    59  H    0.101174
    60  H    0.113826
    61  H    0.137957
    62  H    0.350099
    63  H    0.146194
    64  H    0.136087
    65  H    0.138446
    66  H    0.084601
    67  H    0.131147
    68  H    0.143392
    69  H    0.152483
    70  H    0.139263
    71  H    0.134480
    72  H    0.141483
    73  H    0.089289
    74  H    0.121455
    75  H    0.132621
    76  H    0.149141
    77  H    0.126711
    78  H    0.137788
    79  H    0.144197
    80  H    0.105989
    81  H    0.058468
    82  H    0.132731
    83  H    0.152533
    84  H    0.133768
    85  H    0.143416
    86  H    0.136223
    87  H    0.131995
    88  H    0.120233
    89  H    0.333529
 Sum of Mulliken charges =  -0.00000
 Mulliken charges with hydrogens summed into heavy atoms:
               1
     1  C    0.036638
     2  C    0.152162
     3  N    0.021383
     4  C   -0.056333
     5  C    0.199059
     6  N    0.065678
     7  Fe  -0.354947
     8  C   -0.418745
     9  C   -0.353712
    10  C   -0.345842
    11  C   -0.320110
    12  N   -0.019415
    13  C    0.260201
    14  C    0.009483
    15  C   -0.074405
    16  C    0.264203
    17  C    0.006276
    18  C   -0.143021
    19  C    0.076745
    20  C    0.298919
    21  O   -0.396957
    22  O    0.058361
    23  N    0.033236
    24  C    0.250696
    25  C   -0.170906
    26  C    0.083981
    27  C    0.190300
    28  C    0.041752
    29  C   -0.100494
    30  C   -0.038223
    31  N   -0.053959
    32  C    0.271621
    33  C   -0.095419
    34  C   -0.037359
    35  C    0.238771
    36  C    0.052270
    37  C    0.011984
    38  C   -0.112935
    39  N    0.006432
    40  C    0.248443
    41  C   -0.081421
    42  C   -0.040006
    43  C    0.281826
    44  C    0.023913
    45  C   -0.098332
    46  C    0.099399
    47  C    0.302395
    48  O   -0.353793
    49  O   -0.023802
    50  C    0.113386
    51  O   -0.009377
 Electronic spatial extent (au):  <R**2>=          30316.9740
 Charge=             -0.0000 electrons
 Dipole moment (field-independent basis, Debye):
    X=              1.5643    Y=             -3.4844    Z=              0.2948  Tot=              3.8308
 Quadrupole moment (field-independent basis, Debye-Ang):
   XX=           -283.3004   YY=           -300.7685   ZZ=           -285.4467
   XY=            -19.4050   XZ=            -23.6996   YZ=              9.6915
 Traceless Quadrupole moment (field-independent basis, Debye-Ang):
   XX=              6.5381   YY=            -10.9300   ZZ=              4.3918
   XY=            -19.4050   XZ=            -23.6996   YZ=              9.6915
 Octapole moment (field-independent basis, Debye-Ang**2):
  XXX=             65.1416  YYY=           -119.0980  ZZZ=             55.0693  XYY=            -44.2595
  XXY=           -175.4436  XXZ=           -105.1019  XZZ=             52.4253  YZZ=              8.3049
  YYZ=            -35.2078  XYZ=             13.1609
 Hexadecapole moment (field-independent basis, Debye-Ang**3):
 XXXX=         -20564.2024 YYYY=         -15097.8151 ZZZZ=          -4574.2327 XXXY=          -1277.5703
 XXXZ=           -889.5005 YYYX=           -246.4860 YYYZ=            218.3656 ZZZX=           -571.4229
 ZZZY=           -212.3187 XXYY=          -6357.7799 XXZZ=          -3856.9526 YYZZ=          -3354.9576
 XXYZ=             38.0500 YYXZ=            -11.0705 ZZXY=            257.2512
 N-N= 7.864037131850D+03 E-N=-2.389484228772D+04  KE= 3.464180161738D+03
  Exact polarizability: 812.291 -65.365 858.615  21.920  71.499 389.523
 Approx polarizability:1425.137-165.1721704.180  32.705 187.219 637.248

 ----------------------------------------------------------------------

 Electric dipole moment (input orientation):
 (Debye = 10**-18 statcoulomb cm , SI units = C m)
                  (au)            (Debye)         (10**-30 SI)
   Tot        0.150716D+01      0.383081D+01      0.127782D+02
   x         -0.294564D+00     -0.748707D+00     -0.249742D+01
   y          0.931346D+00      0.236724D+01      0.789628D+01
   z          0.114776D+01      0.291731D+01      0.973111D+01

 Dipole polarizability, Alpha (input orientation).
 (esu units = cm**3 , SI units = C**2 m**2 J**-1)
 Alpha(0;0):
               (au)            (10**-24 esu)      (10**-40 SI)
   iso        0.686810D+03      0.101775D+03      0.113240D+03
   aniso      0.479644D+03      0.710759D+02      0.790826D+02
   xx         0.461566D+03      0.683970D+02      0.761019D+02
   yx         0.132561D+03      0.196435D+02      0.218564D+02
   yy         0.777846D+03      0.115265D+03      0.128249D+03
   zx        -0.954957D+02     -0.141510D+02     -0.157451D+02
   zy         0.107132D+03      0.158753D+02      0.176636D+02
   zz         0.821017D+03      0.121662D+03      0.135367D+03

 First dipole hyperpolarizability, Beta (input orientation).
 ||, _|_  parallel and perpendicular components, (z) with respect to z axis,
 vector components x,y,z.  Values do not include the 1/n! factor of 1/2.
 (esu units = statvolt**-1 cm**4 , SI units = C**3 m**3 J**-2)
 Beta(0;0,0):
               (au)            (10**-30 esu)      (10**-50 SI)
   || (z)    -0.591630D+03     -0.511123D+01     -0.189698D+01
   _|_(z)    -0.197210D+03     -0.170374D+01     -0.632327D+00
   x         -0.462258D+03     -0.399355D+01     -0.148217D+01
   y         -0.795562D+04     -0.687304D+02     -0.255086D+02
   z         -0.295815D+04     -0.255561D+02     -0.948491D+01
   ||         0.170007D+04      0.146873D+02      0.545105D+01
   xxx        0.171172D+03      0.147879D+01      0.548839D+00
   xxy        0.397235D+02      0.343180D+00      0.127368D+00
   yxy       -0.178593D+03     -0.154290D+01     -0.572633D+00
   yyy       -0.109522D+04     -0.946188D+01     -0.351168D+01
   xxz        0.122934D+03      0.106206D+01      0.394171D+00
   yxz        0.298223D+03      0.257642D+01      0.956212D+00
   yyz       -0.761056D+02     -0.657493D+00     -0.244022D+00
   zxz       -0.146665D+03     -0.126707D+01     -0.470262D+00
   zyz       -0.159637D+04     -0.137914D+02     -0.511855D+01
   zzz       -0.103288D+04     -0.892327D+01     -0.331178D+01

 ----------------------------------------------------------------------

 Dipole orientation:
     6         22.43274058         41.51529974         34.38950865
     6         25.01369249         40.47347281         35.05053214
     7         25.93015078         40.48299401         37.46580776
     6         26.93517229         39.51286481         33.59925064
     6         28.33961940         39.53238134         37.33912484
     7         28.96758277         38.92738854         35.03935520
    26         32.40596191         37.50456098         33.88328796
     6         35.40667333         41.88990814         37.39872198
     6         32.20821966         33.49954514         38.97224544
     6         29.49703211         33.07454740         30.33783190
     6         32.71687080         41.39193601         28.83608541
     7         33.62377259         37.63961286         37.45462973
     6         34.72582820         39.65541329         38.62140155
     6         35.18520430         39.07023826         41.25704330
     6         34.35061542         36.65946455         41.61929461
     6         33.37435913         35.85330061         39.37940579
     6         34.34728849         35.18412699         44.15013873
     6         36.18723139         40.87298521         43.28903964
     6         34.04424965         41.78856949         45.07577872
     6         31.97256636         43.11646948         43.68986302
     8         29.77345277         42.21540438         43.73648812
     8         32.52873908         45.09641703         42.48866315
     7         31.06671774         33.98124863         34.44253879
     6         31.17405548         32.56719255         36.73663675
     6         30.02614712         30.16963389         36.38603038
     6         29.27948594         30.06564631         34.00437344
     6         29.93769712         32.45302398         32.78004182
     6         29.69500446         28.21495718         38.49045619
     6         28.11336214         27.85793638         32.61395027
     6         28.77382834         25.46211390         33.23226976
     7         31.26795736         37.32288853         30.40500330
     6         30.18578973         35.24990441         29.01798673
     6         29.98177869         35.68254664         26.37914436
     6         30.91510158         38.03984466         25.96056827
     6         31.71954595         39.07868483         28.39861545
     6         28.91119149         33.79593898         24.45798965
     6         31.38546640         39.40329107         23.50443608
     6         30.66458017         38.33786130         21.29001010
     7         33.64289956         40.98518607         33.26106284
     6         33.63320904         42.35247776         31.04291920
     6         34.90568791         44.75710526         31.35240271
     6         35.73368395         44.81708111         33.71965722
     6         34.92431462         42.54449300         34.89478177
     6         35.25799223         46.66932531         29.22298331
     6         37.44721217         46.80435885         34.94953718
     6         40.29392249         46.18814357         34.52787851
     6         42.09784929         48.18259051         35.31356510
     8         42.32618962         50.07230623         33.89002568
     8         43.28021989         47.70646542         37.40051860
     6         35.34524691         36.31168866         32.54313324
     8         37.03776848         35.77963342         31.48843433
     1         22.42878010         42.13501463         32.46481390
     1         21.03956403         40.07059793         34.63528881
     1         22.00560999         43.07667047         35.60119880
     1         25.02405122         41.06710260         39.01785982
     1         29.55631226         39.31463661         38.93936165
     1         26.84035256         39.25988689         31.59537352
     1         37.03832677         48.61513156         34.14802174
     1         37.07157954         46.86133562         36.93552960
     1         40.73251524         44.50184598         35.55381658
     1         40.57511041         45.82402177         32.55890395
     1         45.09362051         47.73621214         37.44278763
     1         36.89402530         46.17899821         28.14063065
     1         33.62833093         46.65315968         28.02613127
     1         35.49865980         48.51668586         30.00901782
     1         32.79663000         42.62999601         27.23941450
     1         32.28855485         41.21241250         23.50923211
     1         32.00990445         37.32641791         20.16947587
     1         28.75008012         38.50809650         20.66213941
     1         30.33864923         32.45062744         23.96705849
     1         27.32828900         32.83364130         25.26849258
     1         28.31956642         34.78704850         22.79781081
     1         28.47318790         31.69938192         29.26583607
     1         26.76681549         28.18752684         31.14198072
     1         27.38378132         23.99378647         33.21506750
     1         30.68534661         25.03881711         33.73767048
     1         31.33389975         28.21539745         39.67474253
     1         28.06608318         28.68177751         39.59372695
     1         29.45344034         26.38066111         37.67466405
     1         32.10201608         32.27368090         40.57676710
     1         36.41028776         43.25138076         38.50672132
     1         36.03432797         35.60942651         45.18044464
     1         32.73505486         35.72554106         45.24379573
     1         34.27018632         33.19909230         43.77303843
     1         37.02728060         42.47782392         42.39052858
     1         37.59420361         39.91737569         44.38254398
     1         34.83022947         43.05346276         46.44354800
     1         33.26628161         40.18819855         46.03603425
     1         34.25262897         45.42392317         42.02818870

 Electric dipole moment (dipole orientation):
 (Debye = 10**-18 statcoulomb cm , SI units = C m)
                  (au)            (Debye)         (10**-30 SI)
   Tot        0.150716D+01      0.383081D+01      0.127782D+02
   x          0.000000D+00      0.000000D+00      0.000000D+00
   y          0.000000D+00      0.000000D+00      0.000000D+00
   z          0.150716D+01      0.383081D+01      0.127782D+02

 Dipole polarizability, Alpha (dipole orientation).
 (esu units = cm**3 , SI units = C**2 m**2 J**-1)
 Alpha(0;0):
               (au)            (10**-24 esu)      (10**-40 SI)
   iso        0.686810D+03      0.101775D+03      0.113240D+03
   aniso      0.479644D+03      0.710759D+02      0.790826D+02
   xx         0.460918D+03      0.683011D+02      0.759952D+02
   yx         0.144081D+03      0.213506D+02      0.237557D+02
   yy         0.711471D+03      0.105429D+03      0.117306D+03
   zx         0.962967D+02      0.142697D+02      0.158772D+02
   zy        -0.242829D+02     -0.359836D+01     -0.400372D+01
   zz         0.888039D+03      0.131594D+03      0.146418D+03

 First dipole hyperpolarizability, Beta (dipole orientation).
 ||, _|_  parallel and perpendicular components, (z) with respect to z axis,
 vector components x,y,z.  Values do not include the 1/n! factor of 1/2.
 (esu units = statvolt**-1 cm**4 , SI units = C**3 m**3 J**-2)
 Beta(0;0,0):
               (au)            (10**-30 esu)      (10**-50 SI)
   || (z)    -0.141571D+04     -0.122307D+02     -0.453929D+01
   _|_(z)    -0.471904D+03     -0.407689D+01     -0.151310D+01
   x         -0.157584D+04     -0.136140D+02     -0.505270D+01
   y         -0.443473D+04     -0.383127D+02     -0.142194D+02
   z         -0.707857D+04     -0.611533D+02     -0.226964D+02
   ||         0.170007D+04      0.146873D+02      0.545105D+01
   xxx        0.220819D+03      0.190770D+01      0.708025D+00
   xxy        0.501400D+02      0.433170D+00      0.160767D+00
   yxy       -0.310856D+03     -0.268555D+01     -0.996716D+00
   yyy       -0.172228D+04     -0.148792D+02     -0.552225D+01
   xxz        0.894595D+01      0.772861D-01      0.286840D-01
   yxz        0.878393D+02      0.758863D+00      0.281644D+00
   yyz        0.191283D+03      0.165254D+01      0.613324D+00
   zxz       -0.435241D+03     -0.376015D+01     -0.139554D+01
   zyz        0.193895D+03      0.167510D+01      0.621698D+00
   zzz       -0.255975D+04     -0.221143D+02     -0.820749D+01

 ----------------------------------------------------------------------
 1\1\GINC-NODE499\SP\RPBE1PBE\def2TZVP\C39H38Fe1N6O5\ZHARTOVSKA\02-Sep-
 2022\0\\# polar def2tzvp empiricaldispersion=gd3bj int=grid=ultrafine 
 pbe1pbe\\1a6g_II_S\\0,1\C,0,9.563,29.266001,2.603\C,0,10.793,29.143999
 ,3.477\N,0,11.018,29.971001,4.542\C,0,11.903,28.341,3.405\C,0,12.244,2
 9.622999,5.051\N,0,12.785,28.643,4.387\Fe,0,14.633,27.799999,4.742\C,0
 ,15.982,30.875999,5.035\C,0,13.859,27.797001,8.082\C,0,13.333,24.69899
 9,4.461\C,0,15.457,27.771999,1.469\N,0,14.899,29.068001,6.263\C,0,15.4
 22,30.325001,6.188\C,0,15.366,30.961,7.489\C,0,14.809,30.049999,8.337\
 C,0,14.506,28.948,7.597\C,0,14.492,30.266001,9.839\C,0,15.74,32.409,7.
 822\C,0,14.479,33.294998,8.021\C,0,13.598,33.317001,6.814\O,0,12.422,3
 2.879002,6.9\O,0,14.082,33.764999,5.74\N,0,13.754,26.474001,5.981\C,0,
 13.521,26.642,7.379\C,0,12.876,25.492001,7.903\C,0,12.732,24.643,6.9\C
 ,0,13.286,25.256001,5.694\C,0,12.416,25.358,9.356\C,0,12.192,23.231001
 ,6.941\C,0,12.38305219,22.46417462,8.04192843\N,0,14.397,26.546,3.282\
 C,0,13.905,25.194,3.289\C,0,14.088,24.503,2.063\C,0,14.7,25.377001,1.2
 2\C,0,14.902,26.634001,1.946\C,0,13.664,23.054001,1.795\C,0,15.247,25.
 156,-0.167\C,0,15.06416569,23.96413626,-0.78554627\N,0,15.464,29.084,3
 .481\C,0,15.738,28.924999,2.139\C,0,16.452,30.069,1.609\C,0,16.638,30.
 898001,2.629\C,0,16.014999,30.311001,3.762\C,0,16.924,30.177999,0.162\
 C,0,17.469999,32.186001,2.652\C,0,18.965,31.896,2.978\C,0,19.889999,33
 .044998,2.829\O,0,20.224001,33.370998,1.661\O,0,20.268999,33.573002,3.
 948\C,0,16.25,26.974001,4.896\O,0,17.216,26.469999,4.82\H,0,9.78249371
 ,28.89332331,1.62431014\H,0,8.76391414,28.69704915,3.03038225\H,0,9.27
 320393,30.29386396,2.5365472\H,0,10.40958266,30.68774624,4.88274125\H,
 0,12.70048136,30.10017914,5.89291679\H,0,12.05198265,27.57743313,2.670
 37778\H,0,17.40691131,32.65956714,1.69457896\H,0,17.07220064,32.845415
 48,3.39485194\H,0,19.02477263,31.5484893,3.98822945\H,0,19.30100045,31
 .11142332,2.33267595\H,0,21.2045082,33.66494555,4.14285617\H,0,17.8651
 2979,29.68019944,0.05536828\H,0,16.20351763,29.72079699,-0.4835784\H,0
 ,17.03432371,31.20943176,-0.10044075\H,0,15.70834431,27.76590573,0.428
 95726\H,0,15.7796721,25.94014913,-0.66325656\H,0,15.83983703,23.227319
 96,-0.76722379\H,0,14.14413807,23.75991572,-1.29224454\H,0,14.40496266
 ,22.38767121,2.1847165\H,0,12.72578882,22.86277156,2.27258882\H,0,13.5
 6537574,22.90042963,0.74068075\H,0,12.86393113,23.74134886,4.37279224\
 H,0,11.659085,22.83740957,6.10076944\H,0,11.61192808,21.79954796,8.371
 381\H,0,13.3050211,22.52335386,8.58171649\H,0,13.14199189,25.8049104,1
[...]
  1588. RY*(   5) H  65                  0.00000     2.93862   
  1589. RY*(   1) H  66                  0.00232     0.68254   
  1590. RY*(   2) H  66                  0.00025     2.26171   
  1591. RY*(   3) H  66                  0.00023     2.23877   
  1592. RY*(   4) H  66                  0.00014     3.08413   
  1593. RY*(   5) H  66                  0.00001     3.22313   
  1594. RY*(   1) H  67                  0.00159     1.53718   
  1595. RY*(   2) H  67                  0.00020     1.81246   
  1596. RY*(   3) H  67                  0.00009     2.61307   
  1597. RY*(   4) H  67                  0.00007     2.01851   
  1598. RY*(   5) H  67                  0.00001     3.09568   
  1599. RY*(   1) H  68                  0.00163     1.06469   
  1600. RY*(   2) H  68                  0.00037     1.61305   
  1601. RY*(   3) H  68                  0.00009     2.20032   
  1602. RY*(   4) H  68                  0.00005     2.30328   
  1603. RY*(   5) H  68                  0.00001     2.96724   
  1604. RY*(   1) H  69                  0.00156     1.18039   
  1605. RY*(   2) H  69                  0.00037     1.62612   
  1606. RY*(   3) H  69                  0.00010     2.10158   
  1607. RY*(   4) H  69                  0.00006     2.37053   
  1608. RY*(   5) H  69                  0.00002     2.92573   
  1609. RY*(   1) H  70                  0.00113     0.90308   
  1610. RY*(   2) H  70                  0.00016     1.74800   
  1611. RY*(   3) H  70                  0.00009     2.15472   
  1612. RY*(   4) H  70                  0.00004     2.05195   
  1613. RY*(   5) H  70                  0.00001     3.01288   
  1614. RY*(   1) H  71                  0.00048     1.18299   
  1615. RY*(   2) H  71                  0.00020     1.81888   
  1616. RY*(   3) H  71                  0.00006     2.17898   
  1617. RY*(   4) H  71                  0.00004     1.99962   
  1618. RY*(   5) H  71                  0.00002     2.78819   
  1619. RY*(   1) H  72                  0.00124     1.09465   
  1620. RY*(   2) H  72                  0.00020     1.99786   
  1621. RY*(   3) H  72                  0.00014     1.76004   
  1622. RY*(   4) H  72                  0.00005     2.20254   
  1623. RY*(   5) H  72                  0.00001     3.03937   
  1624. RY*(   1) H  73                  0.00175     0.66203   
  1625. RY*(   2) H  73                  0.00026     2.25431   
  1626. RY*(   3) H  73                  0.00022     2.26176   
  1627. RY*(   4) H  73                  0.00014     3.08777   
  1628. RY*(   5) H  73                  0.00001     3.17890   
  1629. RY*(   1) H  74                  0.00099     1.40391   
  1630. RY*(   2) H  74                  0.00021     1.62681   
  1631. RY*(   3) H  74                  0.00011     2.40265   
  1632. RY*(   4) H  74                  0.00008     2.33625   
  1633. RY*(   5) H  74                  0.00001     3.08269   
  1634. RY*(   1) H  75                  0.00074     1.41076   
  1635. RY*(   2) H  75                  0.00028     1.16648   
  1636. RY*(   3) H  75                  0.00014     2.12650   
  1637. RY*(   4) H  75                  0.00005     2.48219   
  1638. RY*(   5) H  75                  0.00001     3.03875   
  1639. RY*(   1) H  76                  0.00100     1.23390   
  1640. RY*(   2) H  76                  0.00032     1.60753   
  1641. RY*(   3) H  76                  0.00014     1.98159   
  1642. RY*(   4) H  76                  0.00006     2.45081   
  1643. RY*(   5) H  76                  0.00001     3.03778   
  1644. RY*(   1) H  77                  0.00057     1.01744   
  1645. RY*(   2) H  77                  0.00020     1.88333   
  1646. RY*(   3) H  77                  0.00007     2.13685   
  1647. RY*(   4) H  77                  0.00005     1.99051   
  1648. RY*(   5) H  77                  0.00001     2.94007   
  1649. RY*(   1) H  78                  0.00087     0.98242   
  1650. RY*(   2) H  78                  0.00016     1.72872   
  1651. RY*(   3) H  78                  0.00008     2.16406   
  1652. RY*(   4) H  78                  0.00004     2.05101   
  1653. RY*(   5) H  78                  0.00001     2.96521   
  1654. RY*(   1) H  79                  0.00064     1.24162   
  1655. RY*(   2) H  79                  0.00021     2.07831   
  1656. RY*(   3) H  79                  0.00009     1.58024   
  1657. RY*(   4) H  79                  0.00006     2.17022   
  1658. RY*(   5) H  79                  0.00001     3.04023   
  1659. RY*(   1) H  80                  0.00182     0.64110   
  1660. RY*(   2) H  80                  0.00025     2.19226   
  1661. RY*(   3) H  80                  0.00025     2.25221   
  1662. RY*(   4) H  80                  0.00015     3.02768   
  1663. RY*(   5) H  80                  0.00001     3.17024   
  1664. RY*(   1) H  81                  0.00298     0.68336   
  1665. RY*(   2) H  81                  0.00028     2.24263   
  1666. RY*(   3) H  81                  0.00023     2.31504   
  1667. RY*(   4) H  81                  0.00015     3.00383   
  1668. RY*(   5) H  81                  0.00001     3.18792   
  1669. RY*(   1) H  82                  0.00075     0.85116   
  1670. RY*(   2) H  82                  0.00015     1.84801   
  1671. RY*(   3) H  82                  0.00009     2.08755   
  1672. RY*(   4) H  82                  0.00007     2.18835   
  1673. RY*(   5) H  82                  0.00001     2.92901   
  1674. RY*(   1) H  83                  0.00096     0.94025   
  1675. RY*(   2) H  83                  0.00015     1.80590   
  1676. RY*(   3) H  83                  0.00008     2.16190   
  1677. RY*(   4) H  83                  0.00005     2.01276   
  1678. RY*(   5) H  83                  0.00001     2.99540   
  1679. RY*(   1) H  84                  0.00052     1.15243   
  1680. RY*(   2) H  84                  0.00019     1.88923   
  1681. RY*(   3) H  84                  0.00007     2.16014   
  1682. RY*(   4) H  84                  0.00004     1.88532   
  1683. RY*(   5) H  84                  0.00001     2.88850   
  1684. RY*(   1) H  85                  0.00092     1.41826   
  1685. RY*(   2) H  85                  0.00019     2.18639   
  1686. RY*(   3) H  85                  0.00014     2.11393   
  1687. RY*(   4) H  85                  0.00007     2.34784   
  1688. RY*(   5) H  85                  0.00001     3.01716   
  1689. RY*(   1) H  86                  0.00105     1.02788   
  1690. RY*(   2) H  86                  0.00017     2.21683   
  1691. RY*(   3) H  86                  0.00010     2.58671   
  1692. RY*(   4) H  86                  0.00011     2.04096   
  1693. RY*(   5) H  86                  0.00001     3.02136   
  1694. RY*(   1) H  87                  0.00069     1.07441   
  1695. RY*(   2) H  87                  0.00013     1.75578   
  1696. RY*(   3) H  87                  0.00013     2.37832   
  1697. RY*(   4) H  87                  0.00007     2.44964   
  1698. RY*(   5) H  87                  0.00002     2.84525   
  1699. RY*(   1) H  88                  0.00073     1.12462   
  1700. RY*(   2) H  88                  0.00014     1.90957   
  1701. RY*(   3) H  88                  0.00012     2.29759   
  1702. RY*(   4) H  88                  0.00008     2.20580   
  1703. RY*(   5) H  88                  0.00003     3.13521   
  1704. RY*(   1) H  89                  0.00103     1.49575   
  1705. RY*(   2) H  89                  0.00066     2.19630   
  1706. RY*(   3) H  89                  0.00034     2.27524   
  1707. RY*(   4) H  89                  0.00020     1.53389   
  1708. RY*(   5) H  89                  0.00001     3.25396   
  1723. BD*(   1)Fe   7 - N  12          0.06294     0.41708   
  1724. BD*(   1)Fe   7 - N  23          0.06361     0.41244   
  1725. BD*(   1)Fe   7 - N  31          0.06410     0.44457   
  1726. BD*(   1)Fe   7 - N  39          0.06331     0.42443   
  1727. BD*(   1)Fe   7 - C  50          0.06314     0.51418   
  1728. BD*(   1) C   8 - C  13          0.02189     0.55670   
  1729. BD*(   1) C   8 - C  43          0.02216     0.55980   
  1730. BD*(   2) C   8 - C  43          0.41117     0.04035  1744(v),1804(v),1800(v)
                                                    375(g),1287(g),1289(g)
  1731. BD*(   1) C   8 - H  81          0.01451     0.43741   
  1732. BD*(   1) C   9 - C  16          0.02312     0.54721   
  1733. BD*(   1) C   9 - C  24          0.01836     0.56162   
  1734. BD*(   1) C   9 - H  80          0.01221     0.45028   
  1735. BD*(   1) C  10 - C  27          0.02106     0.62598   
  1736. BD*(   2) C  10 - C  27          0.39475     0.05934  1770(v),1783(v),1766(v)
                                                    427(g),1787(r),1740(r)
                                                    1778(r),873(g)
  1737. BD*(   1) C  10 - C  32          0.02227     0.56458   
  1738. BD*(   1) C  10 - H  73          0.01423     0.44944   
  1739. BD*(   1) C  11 - C  35          0.02063     0.62345   
  1740. BD*(   2) C  11 - C  35          0.38011     0.05569  1787(v),1800(v),1783(v)
                                                    453(g),1736(r),1081(g)
  1741. BD*(   1) C  11 - C  40          0.02192     0.61022   
  1742. BD*(   1) C  11 - H  66          0.01678     0.44660   
  1743. BD*(   1) N  12 - C  13          0.02550     0.50660   
  1744. BD*(   2) N  12 - C  13          0.61923     0.00595  1730(v),1748(v),182(v)
                                                    1721(r),507(g),480(g),375(v)
                                                    180(v)
  1745. BD*(   1) N  12 - C  16          0.02972     0.46653   
  1746. BD*(   1) C  13 - C  14          0.03327     0.48584   
  1747. BD*(   1) C  14 - C  15          0.02114     0.59711   
  1748. BD*(   2) C  14 - C  15          0.29844     0.06052  1744(v),182(v),1755(v)
                                                    1753(v),1757(v),1762(r)
                                                    1752(v)
  1749. BD*(   1) C  14 - C  18          0.02467     0.36547   
  1750. BD*(   1) C  15 - C  16          0.02745     0.60358   
  1751. BD*(   1) C  15 - C  17          0.02005     0.35285   
  1752. BD*(   1) C  17 - H  82          0.00584     0.40527   
  1753. BD*(   1) C  17 - H  83          0.00879     0.40592   
  1754. BD*(   1) C  17 - H  84          0.00543     0.41074   
  1755. BD*(   1) C  18 - C  19          0.01999     0.31486   
  1756. BD*(   1) C  18 - H  85          0.01383     0.38038   
  1757. BD*(   1) C  18 - H  86          0.01462     0.39213   
  1758. BD*(   1) C  19 - C  20          0.07023     0.35700   
  1759. BD*(   1) C  19 - H  87          0.01285     0.37748   
  1760. BD*(   1) C  19 - H  88          0.01151     0.39384   
  1761. BD*(   1) C  20 - O  21          0.05189     0.49039   
  1762. BD*(   2) C  20 - O  21          0.21301     0.03651  1761(g),1755(v),1764(v)
                                                    1759(v),689(g)
  1763. BD*(   1) C  20 - O  22          0.07387     0.46967   
  1764. BD*(   1) O  22 - H  89          0.01371     0.36932   
  1765. BD*(   1) N  23 - C  24          0.03071     0.42750   
  1766. BD*(   2) N  23 - C  24          0.66918    -0.00866  181(v),1770(v),1736(v)
                                                    793(g),766(g),1721(r),401(v)
                                                    180(v)
  1767. BD*(   1) N  23 - C  27          0.02553     0.55421   
  1768. BD*(   1) C  24 - C  25          0.03009     0.52507   
  1769. BD*(   1) C  25 - C  26          0.02026     0.66487   
  1770. BD*(   2) C  25 - C  26          0.25095     0.07954  1736(v),1778(v),1766(v)
                                                    1775(v),845(g)
  1771. BD*(   1) C  25 - C  28          0.01955     0.37821   
  1772. BD*(   1) C  26 - C  27          0.04036     0.48147   
  1773. BD*(   1) C  26 - C  29          0.02784     0.41749   
  1774. BD*(   1) C  28 - H  77          0.00558     0.41138   
  1775. BD*(   1) C  28 - H  78          0.00953     0.41124   
  1776. BD*(   1) C  28 - H  79          0.00761     0.42750   
  1777. BD*(   1) C  29 - C  30          0.00521     0.59390   
  1778. BD*(   2) C  29 - C  30          0.07377     0.04586   
  1779. BD*(   1) C  29 - H  74          0.01856     0.44559   
  1780. BD*(   1) C  30 - H  75          0.00863     0.44497   
  1781. BD*(   1) C  30 - H  76          0.00870     0.44300   
  1782. BD*(   1) N  31 - C  32          0.03079     0.40611   
  1783. BD*(   2) N  31 - C  32          0.68099    -0.01598  1736(v),1787(v),1740(v)
                                                    1001(g),427(v),974(g),180(v)
  1784. BD*(   1) N  31 - C  35          0.03112     0.41706   
  1785. BD*(   1) C  32 - C  33          0.02785     0.51993   
  1786. BD*(   1) C  33 - C  34          0.01981     0.60193   
  1787. BD*(   2) C  33 - C  34          0.34293     0.05933  1740(v),1795(v),1783(v)
                                                    1736(r),1791(v),1053(g)
                                                    1792(v),1027(g)
  1788. BD*(   1) C  33 - C  36          0.01795     0.37040   
  1789. BD*(   1) C  34 - C  35          0.03170     0.46753   
  1790. BD*(   1) C  34 - C  37          0.02640     0.39920   
  1791. BD*(   1) C  36 - H  70          0.00950     0.40993   
  1792. BD*(   1) C  36 - H  71          0.00539     0.41197   
  1793. BD*(   1) C  36 - H  72          0.00927     0.42551   
  1794. BD*(   1) C  37 - C  38          0.00469     0.60012   
  1795. BD*(   2) C  37 - C  38          0.17520     0.02199  1787(v),1796(g),1790(g)
                                                    1798(g),1797(g)
  1796. BD*(   1) C  37 - H  67          0.01940     0.42488   
  1797. BD*(   1) C  38 - H  68          0.00889     0.42868   
  1798. BD*(   1) C  38 - H  69          0.00936     0.42502   
  1799. BD*(   1) N  39 - C  40          0.02755     0.48577   
  1800. BD*(   2) N  39 - C  40          0.61511     0.00382  1740(v),1730(v),1804(v)
                                                    1721(r),1209(g),1182(g)
                                                    453(v),180(v)
  1801. BD*(   1) N  39 - C  43          0.02643     0.49172   
  1802. BD*(   1) C  40 - C  41          0.03352     0.48854   
  1803. BD*(   1) C  41 - C  42          0.02020     0.65261   
  1804. BD*(   2) C  41 - C  42          0.24054     0.07430  1730(v),1800(v),1811(v)
                                                    1808(v)
  1805. BD*(   1) C  41 - C  44          0.01844     0.37932   
  1806. BD*(   1) C  42 - C  43          0.03229     0.52356   
  1807. BD*(   1) C  42 - C  45          0.02499     0.37304   
  1808. BD*(   1) C  44 - H  63          0.00938     0.40807   
  1809. BD*(   1) C  44 - H  64          0.00613     0.40997   
  1810. BD*(   1) C  44 - H  65          0.00580     0.41395   
  1811. BD*(   1) C  45 - C  46          0.01782     0.32135   
  1812. BD*(   1) C  45 - H  58          0.01328     0.41436   
  1813. BD*(   1) C  45 - H  59          0.01273     0.40052   
  1814. BD*(   1) C  46 - C  47          0.06307     0.37143   
  1815. BD*(   1) C  46 - H  60          0.01287     0.39387   
  1816. BD*(   1) C  46 - H  61          0.01035     0.39348   
  1817. BD*(   1) C  47 - O  48          0.04039     0.51989   
  1818. BD*(   2) C  47 - O  48          0.18742    -0.00437  1811(v),1820(v),1816(v)
                                                    1817(g)
  1819. BD*(   1) C  47 - O  49          0.08254     0.41403   
  1820. BD*(   1) O  49 - H  62          0.01233     0.37835   
  1821. BD*(   1) C  50 - O  51          0.04596     0.52189   
  1822. BD*(   2) C  50 - O  51          0.07832     0.09128   
  1823. BD*(   3) C  50 - O  51          0.04616     0.43372   
       -------------------------------
              Total Lewis  327.64098  ( 97.4175%)
        Valence non-Lewis    8.01694  (  2.3837%)
        Rydberg non-Lewis    0.66868  (  0.1988%)
       -------------------------------
            Total unit  2  336.32661  (100.0000%)
           Charge unit  2   -0.32661
 1\1\GINC-NODE499\SP\RPBE1PBE\def2TZVP\C39H38Fe1N6O5\ZHARTOVSKA\02-Sep-
 2022\0\\# PBE1PBE/def2TZVP empiricaldispersion=GD3BJ int=(grid=ultrafi
 ne) geom=check guess=read pop=nbo scf=qc\\1a6g_II_S_nbo\\0,1\C,0,9.563
 ,29.266001,2.603\C,0,10.793,29.143999,3.477\N,0,11.018,29.971001,4.542
 \C,0,11.903,28.341,3.405\C,0,12.244,29.622999,5.051\N,0,12.785,28.643,
 4.387\Fe,0,14.633,27.799999,4.742\C,0,15.982,30.875999,5.035\C,0,13.85
 9,27.797001,8.082\C,0,13.333,24.698999,4.461\C,0,15.457,27.771999,1.46
 9\N,0,14.899,29.068001,6.263\C,0,15.422,30.325001,6.188\C,0,15.366,30.
 961,7.489\C,0,14.809,30.049999,8.337\C,0,14.506,28.948,7.597\C,0,14.49
 2,30.266001,9.839\C,0,15.74,32.409,7.822\C,0,14.479,33.294998,8.021\C,
 0,13.598,33.317001,6.814\O,0,12.422,32.879002,6.9\O,0,14.082,33.764999
 ,5.74\N,0,13.754,26.474001,5.981\C,0,13.521,26.642,7.379\C,0,12.876,25
 .492001,7.903\C,0,12.732,24.643,6.9\C,0,13.286,25.256001,5.694\C,0,12.
 416,25.358,9.356\C,0,12.192,23.231001,6.941\C,0,12.38305219,22.4641746
 2,8.04192843\N,0,14.397,26.546,3.282\C,0,13.905,25.194,3.289\C,0,14.08
 8,24.503,2.063\C,0,14.7,25.377001,1.22\C,0,14.902,26.634001,1.946\C,0,
 13.664,23.054001,1.795\C,0,15.247,25.156,-0.167\C,0,15.06416569,23.964
 13626,-0.78554627\N,0,15.464,29.084,3.481\C,0,15.738,28.924999,2.139\C
 ,0,16.452,30.069,1.609\C,0,16.638,30.898001,2.629\C,0,16.014999,30.311
 001,3.762\C,0,16.924,30.177999,0.162\C,0,17.469999,32.186001,2.652\C,0
 ,18.965,31.896,2.978\C,0,19.889999,33.044998,2.829\O,0,20.224001,33.37
 0998,1.661\O,0,20.268999,33.573002,3.948\C,0,16.25,26.974001,4.896\O,0
 ,17.216,26.469999,4.82\H,0,9.78249371,28.89332331,1.62431014\H,0,8.763
 91414,28.69704915,3.03038225\H,0,9.27320393,30.29386396,2.5365472\H,0,
 10.40958266,30.68774624,4.88274125\H,0,12.70048136,30.10017914,5.89291
 679\H,0,12.05198265,27.57743313,2.67037778\H,0,17.40691131,32.65956714
 ,1.69457896\H,0,17.07220064,32.84541548,3.39485194\H,0,19.02477263,31.
 5484893,3.98822945\H,0,19.30100045,31.11142332,2.33267595\H,0,21.20450
 82,33.66494555,4.14285617\H,0,17.86512979,29.68019944,0.05536828\H,0,1
 6.20351763,29.72079699,-0.4835784\H,0,17.03432371,31.20943176,-0.10044
 075\H,0,15.70834431,27.76590573,0.42895726\H,0,15.7796721,25.94014913,
 -0.66325656\H,0,15.83983703,23.22731996,-0.76722379\H,0,14.14413807,23
 .75991572,-1.29224454\H,0,14.40496266,22.38767121,2.1847165\H,0,12.725
 78882,22.86277156,2.27258882\H,0,13.56537574,22.90042963,0.74068075\H,
 0,12.86393113,23.74134886,4.37279224\H,0,11.659085,22.83740957,6.10076
 944\H,0,11.61192808,21.79954796,8.371381\H,0,13.3050211,22.52335386,8.
 58171649\H,0,13.14199189,25.8049104,10.00261184\H,0,11.47553571,25.853
 15519,9.47948383\H,0,12.3087638,24.3222186,9.60208389\H,0,13.59359589,
 27.80975676,9.11848345\H,0,16.43637544,31.83901328,5.14010215\H,0,15.2
 7425597,30.84039471,10.28960789\H,0,13.56387559,30.78953431,9.93594302
 \H,0,14.41906578,29.31716488,10.3281734\H,0,16.32604873,32.81080885,7.
 02200217\H,0,16.32062716,32.42156166,8.72067364\H,0,14.79033499,34.295
 03346,8.23985976\H,0,13.91886706,32.91748397,8.85083989\H,0,15.0339682
 2,33.81270625,5.62562988\\Version=ES64L-G16RevA.03\State=1-A\HF=-3475.
 4717259\RMSD=2.264e-09\Dipole=-0.294564,0.9313458,1.1477589\Quadrupole
 =6.5403167,-3.6907176,-2.849599,10.602215,16.8138936,13.9038955\PG=C01
  [X(C39H38Fe1N6O5)]\\@


 ERWIN WITH HIS PSI CAN DO
 CALCULATIONS QUITE A FEW.
 BUT ONE THING HAS NOT BEEN SEEN
 JUST WHAT DOES PSI REALLY MEAN.
 -- WALTER HUCKEL, TRANS. BY FELIX BLOCH
 Job cpu time:       0 days  2 hours 24 minutes  8.6 seconds.
 Elapsed time:       0 days  0 hours 36 minutes 12.2 seconds.
 File lengths (MBytes):  RWF=   1120 Int=      0 D2E=      0 Chk=    217 Scr=      1
 Normal termination of Gaussian 16 at Fri Sep  2 18:01:05 2022.
