 Entering Gaussian System, Link 0=g16
 Input=/net/homes/chemie/zhartovska/work/BioModel/Konrad/1moh/1moh12/1moh16/Teil1/def2TZVP/nbo/1moh16.com
 Output=/net/homes/chemie/zhartovska/work/BioModel/Konrad/1moh/1moh12/1moh16/Teil1/def2TZVP/nbo/1moh16.log
 Initial command:
 /afs/math/software/gaussian/g16.A03/g16/l1.exe "/scratch/zhartovska_gaussian.JY7fxHW/Gau-20035.inp" -scrdir="/scratch/zhartovska_gaussian.JY7fxHW/"
 Entering Link 1 = /afs/math/software/gaussian/g16.A03/g16/l1.exe PID=     20036.
  
 Copyright (c) 1988,1990,1992,1993,1995,1998,2003,2009,2016,
            Gaussian, Inc.  All Rights Reserved.
  
 This is part of the Gaussian(R) 16 program.  It is based on
 the Gaussian(R) 09 system (copyright 2009, Gaussian, Inc.),
 the Gaussian(R) 03 system (copyright 2003, Gaussian, Inc.),
 the Gaussian(R) 98 system (copyright 1998, Gaussian, Inc.),
 the Gaussian(R) 94 system (copyright 1995, Gaussian, Inc.),
 the Gaussian 92(TM) system (copyright 1992, Gaussian, Inc.),
 the Gaussian 90(TM) system (copyright 1990, Gaussian, Inc.),
 the Gaussian 88(TM) system (copyright 1988, Gaussian, Inc.),
 the Gaussian 86(TM) system (copyright 1986, Carnegie Mellon
 University), and the Gaussian 82(TM) system (copyright 1983,
 Carnegie Mellon University). Gaussian is a federally registered
 trademark of Gaussian, Inc.
  
 This software contains proprietary and confidential information,
 including trade secrets, belonging to Gaussian, Inc.
  
 This software is provided under written license and may be
 used, copied, transmitted, or stored only in accord with that
 written license.
  
 The following legend is applicable only to US Government
 contracts under FAR:
  
                    RESTRICTED RIGHTS LEGEND
  
 Use, reproduction and disclosure by the US Government is
 subject to restrictions as set forth in subparagraphs (a)
 and (c) of the Commercial Computer Software - Restricted
 Rights clause in FAR 52.227-19.
  
 Gaussian, Inc.
 340 Quinnipiac St., Bldg. 40, Wallingford CT 06492
  
  
 ---------------------------------------------------------------
 Warning -- This program may not be used in any manner that
 competes with the business of Gaussian, Inc. or will provide
 assistance to any competitor of Gaussian, Inc.  The licensee
 of this program is prohibited from giving any competitor of
 Gaussian, Inc. access to this program.  By using this program,
 the user acknowledges that Gaussian, Inc. is engaged in the
 business of creating and licensing software in the field of
 computational chemistry and represents and warrants to the
 licensee that it is not a competitor of Gaussian, Inc. and that
 it will not use this program in any manner prohibited above.
 ---------------------------------------------------------------
  

 Cite this work as:
 Gaussian 16, Revision A.03,
 M. J. Frisch, G. W. Trucks, H. B. Schlegel, G. E. Scuseria, 
 M. A. Robb, J. R. Cheeseman, G. Scalmani, V. Barone, 
 G. A. Petersson, H. Nakatsuji, X. Li, M. Caricato, A. V. Marenich, 
 J. Bloino, B. G. Janesko, R. Gomperts, B. Mennucci, H. P. Hratchian, 
 J. V. Ortiz, A. F. Izmaylov, J. L. Sonnenberg, D. Williams-Young, 
 F. Ding, F. Lipparini, F. Egidi, J. Goings, B. Peng, A. Petrone, 
 T. Henderson, D. Ranasinghe, V. G. Zakrzewski, J. Gao, N. Rega, 
 G. Zheng, W. Liang, M. Hada, M. Ehara, K. Toyota, R. Fukuda, 
 J. Hasegawa, M. Ishida, T. Nakajima, Y. Honda, O. Kitao, H. Nakai, 
 T. Vreven, K. Throssell, J. A. Montgomery, Jr., J. E. Peralta, 
 F. Ogliaro, M. J. Bearpark, J. J. Heyd, E. N. Brothers, K. N. Kudin, 
 V. N. Staroverov, T. A. Keith, R. Kobayashi, J. Normand, 
 K. Raghavachari, A. P. Rendell, J. C. Burant, S. S. Iyengar, 
 J. Tomasi, M. Cossi, J. M. Millam, M. Klene, C. Adamo, R. Cammi, 
 J. W. Ochterski, R. L. Martin, K. Morokuma, O. Farkas, 
 J. B. Foresman, and D. J. Fox, Gaussian, Inc., Wallingford CT, 2016.
 
 ******************************************
 Gaussian 16:  ES64L-G16RevA.03 25-Dec-2016
                14-Nov-2022 
 ******************************************
 %nprocs=12
 Will use up to   12 processors via shared memory.
 %mem=16GB
 %oldchk=1moh_III_Hn.chk
 %chk=1moh_III_H.chk
 Copying data from "1moh_III_Hn.chk" to current chk file "1moh_III_H.chk"
 IOpt=  2 FromEx=T IUOpen= 4 IOptOp= 5 NList=   0 IFRang= 0 IUIn= 4 IUOut= 2.
 ----------------------------------------------------------------------
 # PBE1PBE/def2TZVP empiricaldispersion=GD3BJ int=(grid=ultrafine) geom
 =check pop=nbo guess=read
 ----------------------------------------------------------------------
 1/29=2,38=1,172=1/1;
 2/12=2,40=1/2;
 3/5=44,7=101,11=2,14=-4,25=1,30=1,74=-13,75=-5,116=-2,124=41/1,2,3;
 4/5=1/1;
 5/5=2,38=6/2;
 6/7=2,8=2,9=2,10=2,28=1,40=1/1,7;
 99/5=1,9=1/99;
 ----------
 1moh_III_H
 ----------
 Structure from the checkpoint file:  "1moh_III_H.chk"
 Charge =  1 Multiplicity = 6
 Z-Matrix found in chk file.
 C,0,11.542,-1.461,-4.191
 C,0,12.241,-2.153,-3.057
 N,0,13.612,-2.335,-2.989
 C,0,11.717,-2.757,-1.952
 C,0,13.898,-3.038,-1.892
 N,0,12.765,-3.294,-1.259
 Fe,0,12.592,-4.355,0.602
 C,0,14.027,-7.044,-0.7
 C,0,15.574,-3.206,1.845
 C,0,11.15,-1.576,1.763
 C,0,9.499,-5.549,-0.294
 N,0,14.273,-4.799,0.527
 C,0,14.706,-5.95,-0.194
 C,0,16.141001,-6.097,-0.291
 C,0,16.608999,-5.056,0.433
 C,0,15.493,-4.283,0.955
 C,0,18.101,-4.838,0.734
 C,0,16.989,-7.312,-0.817
 C,0,17.655001,-6.727,-2.085
 C,0,16.681999,-6.717,-3.243
 O,0,16.389,-7.753,-3.898
 O,0,16.049999,-5.694,-3.524
 N,0,13.184,-2.658,1.6
 C,0,14.413,-2.479,2.117
 C,0,14.414,-1.233,2.895
 C,0,13.248,-0.613,2.75
 C,0,12.446,-1.681,2.188
 C,0,15.783,-0.909,3.502
 C,0,12.715,0.739,3.303
 C,0,13.375,1.372,4.261
 N,0,10.984,-3.881,0.664
 C,0,10.499,-2.667,1.232
 C,0,9.085,-2.4,1.174
 C,0,8.582,-3.539,0.693
 C,0,9.718,-4.397,0.428
 C,0,8.182,-1.369,1.886
 C,0,7.087,-3.88,0.424
 C,0,6.02,-3.141,0.009
 N,0,11.93,-5.922,-0.359
 C,0,10.623,-6.27,-0.59
 C,0,10.545,-7.599,-1.219
 C,0,11.817,-7.983,-1.478
 C,0,12.676,-6.973,-0.862
 C,0,9.144,-8.084,-1.618
 C,0,12.297,-9.241,-2.219
 C,0,12.221,-10.359,-1.132
 C,0,12.747,-11.726,-1.522
 O,0,13.962,-11.983,-1.316
 O,0,11.958,-12.536,-2.085
 S,0,12.452,-5.431,2.618
 H,0,12.14907565,-1.51524004,-5.0704414
 H,0,10.60276344,-1.93905866,-4.37591782
 H,0,11.37591954,-0.43544947,-3.93494652
 H,0,10.6831357,-2.80173201,-1.67992712
 H,0,14.87474041,-3.34216595,-1.57837402
 H,0,14.27811025,-1.99531741,-3.65301271
 H,0,13.5443171,-5.77150213,3.25596682
 H,0,11.27957672,-5.70617115,3.1335623
 H,0,6.13295164,-2.44183326,-0.79306471
 H,0,5.06920775,-3.25988068,0.48519479
 H,0,6.84773829,-4.90763082,0.6018447
 H,0,8.52144228,-5.85740008,-0.60087179
 H,0,9.17591,-9.13277516,-1.82764833
 H,0,8.46116651,-7.90147327,-0.81468038
 H,0,8.81853825,-7.55575789,-2.48974246
 H,0,13.30338268,-9.11571847,-2.56017215
 H,0,11.64585025,-9.46705238,-3.03741574
 H,0,12.77174724,-10.02557965,-0.27736069
 H,0,11.1963207,-10.46995844,-0.84456208
 H,0,12.30743368,-13.27021183,-2.59532254
 H,0,14.55695151,-7.93607265,-0.96126192
 H,0,17.08600336,-8.31097556,-4.25077413
 H,0,18.50473531,-7.32352683,-2.34385777
 H,0,17.97500071,-5.72575986,-1.88495406
 H,0,17.7274261,-7.59975934,-0.09809704
 H,0,16.35590659,-8.13769242,-1.06664926
 H,0,18.65826131,-4.87618002,-0.17863471
 H,0,18.23592063,-3.8816538,1.19454139
 H,0,18.44709097,-5.60446152,1.39555708
 H,0,16.50369963,-2.94565229,2.3062783
 H,0,10.63860079,-0.63959713,1.84374975
 H,0,8.68223036,-0.42396136,1.92564277
 H,0,7.26470104,-1.26459176,1.34511042
 H,0,7.9734657,-1.70416495,2.88052396
 H,0,16.49401163,-0.75617672,2.71713854
 H,0,15.70934897,-0.02101946,4.09442391
 H,0,16.1016803,-1.72353848,4.11833589
 H,0,14.38297762,1.69064997,4.09564186
 H,0,12.90024255,1.56475571,5.20033519
 H,0,11.81319339,1.15879465,2.90877
 Recover connectivity data from disk.
 Stoichiometry    C38H40FeN6O4S(1+,6)
 Framework group  C1[X(C38H40FeN6O4S)]
 Deg. of freedom   264
 Full point group                 C1      NOp   1
 Largest Abelian subgroup         C1      NOp   1
 Largest concise Abelian subgroup C1      NOp   1
                         Standard orientation:                         
 ---------------------------------------------------------------------
 Center     Atomic      Atomic             Coordinates (Angstroms)
 Number     Number       Type             X           Y           Z
 ---------------------------------------------------------------------
      1          6           0       -1.521684    0.857729    5.186847
      2          6           0       -1.217927    0.227520    3.858695
      3          7           0       -0.739051   -1.062733    3.706006
      4          6           0       -1.289910    0.762400    2.606042
      5          6           0       -0.515280   -1.287220    2.410264
      6          7           0       -0.846880   -0.196457    1.739301
      7         26           0       -0.749404    0.028480   -0.395851
      8          6           0        2.505079   -0.598801   -0.398482
      9          6           0       -1.513651   -3.250170   -1.046968
     10          6           0       -4.024762    0.655920   -0.227105
     11          6           0       -0.120124    3.389553   -0.076013
     12          7           0        0.096673   -1.485813   -0.535815
     13          6           0        1.512418   -1.562347   -0.387692
     14          6           0        2.046480   -2.905817   -0.377076
     15          6           0        0.954606   -3.675202   -0.583803
     16          6           0       -0.222123   -2.829675   -0.709728
     17          6           0        1.017963   -5.199591   -0.774638
     18          6           0        3.541602   -3.388631   -0.436270
     19          6           0        3.734812   -4.039758    0.953805
     20          6           0        3.965339   -2.982984    2.011105
     21          8           0        5.068390   -2.391036    2.156173
     22          8           0        3.031720   -2.581872    2.712802
     23          7           0       -2.496216   -1.041867   -0.566975
     24          6           0       -2.556658   -2.324874   -0.966989
     25          6           0       -3.968634   -2.696014   -1.129410
     26          6           0       -4.744397   -1.698351   -0.719725
     27          6           0       -3.782140   -0.616213   -0.667646
     28          6           0       -4.157560   -4.157427   -1.549131
     29          6           0       -6.290002   -1.554873   -0.628516
     30          6           0       -7.076078   -2.438602   -1.224470
     31          7           0       -1.597561    1.466508   -0.231863
     32          6           0       -3.017075    1.594241   -0.214316
     33          6           0       -3.585125    2.905220   -0.033477
     34          6           0       -2.518988    3.706520   -0.087896
     35          6           0       -1.371202    2.835255   -0.230622
     36          6           0       -5.012212    3.465174   -0.221057
     37          6           0       -2.489446    5.259245    0.020911
     38          6           0       -3.230118    6.160962    0.724577
     39          7           0        0.850819    1.132406   -0.201202
     40          6           0        0.918332    2.501086   -0.131418
     41          6           0        2.320342    2.950847   -0.138520
     42          6           0        3.087427    1.836843   -0.082869
     43          6           0        2.167484    0.707608   -0.209248
     44          6           0        2.553876    4.459544    0.024329
     45          6           0        4.616728    1.741870    0.036565
     46          6           0        5.113973    1.965309   -1.426340
     47          6           0        6.602325    1.815463   -1.670925
     48          8           0        7.048784    0.679481   -1.979031
     49          8           0        7.343625    2.824925   -1.506459
     50         16           0       -0.695638    0.209185   -2.677536
     51          1           0       -0.950150    0.373095    5.950641
     52          1           0       -1.266673    1.896421    5.155431
     53          1           0       -2.564743    0.752877    5.401166
     54          1           0       -1.628507    1.744835    2.350948
     55          1           0       -0.133644   -2.192779    1.986924
     56          1           0       -0.586128   -1.718368    4.445437
     57          1           0       -0.389313   -0.832764   -3.410070
     58          1           0       -0.971199    1.354532   -3.250552
     59          1           0       -3.473013    5.970445    1.749080
     60          1           0       -3.568822    7.059534    0.252615
     61          1           0       -1.730188    5.712269   -0.581747
     62          1           0        0.028659    4.438160    0.076263
     63          1           0        3.563499    4.694825   -0.240635
     64          1           0        1.883345    4.995270   -0.614643
     65          1           0        2.377540    4.739981    1.041758
     66          1           0        4.907235    0.774266    0.389054
     67          1           0        4.991965    2.507830    0.682632
     68          1           0        4.604445    1.267688   -2.057692
     69          1           0        4.828929    2.952748   -1.724020
     70          1           0        8.286547    2.710438   -1.367208
     71          1           0        3.526704   -0.876436   -0.553724
     72          1           0        5.880057   -2.898837    2.226415
     73          1           0        4.579440   -4.695842    0.921290
     74          1           0        2.860198   -4.603269    1.203615
     75          1           0        3.677886   -4.108930   -1.215691
     76          1           0        4.204500   -2.558255   -0.562533
     77          1           0        1.576788   -5.636412    0.026487
     78          1           0        0.025807   -5.600239   -0.777390
     79          1           0        1.495385   -5.422932   -1.705814
     80          1           0       -1.697691   -4.257044   -1.358793
     81          1           0       -5.004372    0.923695    0.109883
     82          1           0       -5.724563    2.756864    0.147389
     83          1           0       -5.109199    4.383064    0.320213
     84          1           0       -5.191569    3.643535   -1.260729
     85          1           0       -3.779665   -4.800541   -0.781995
     86          1           0       -5.198719   -4.353889   -1.698430
     87          1           0       -3.626233   -4.338426   -2.460081
     88          1           0       -7.027488   -3.470817   -0.946854
     89          1           0       -7.759744   -2.120360   -1.983563
     90          1           0       -6.719372   -0.740532   -0.083181
 ---------------------------------------------------------------------
 Rotational constants (GHZ):           0.0748740           0.0495720           0.0382745
 Standard basis: def2TZVP (5D, 7F)
 There are  2062 symmetry adapted cartesian basis functions of A   symmetry.
 There are  1810 symmetry adapted basis functions of A   symmetry.
  1810 basis functions,  2939 primitive gaussians,  2062 cartesian basis functions
   194 alpha electrons      189 beta electrons
       nuclear repulsion energy      8094.0438910700 Hartrees.
 NAtoms=   90 NActive=   90 NUniq=   90 SFac= 1.00D+00 NAtFMM=   60 NAOKFM=T Big=T
 Integral buffers will be    131072 words long.
 Raffenetti 2 integral format.
 Two-electron integral symmetry is turned on.
 Nuclear repulsion after empirical dispersion term =     8093.9105442576 Hartrees.
 One-electron integrals computed using PRISM.
   1 Symmetry operations used in ECPInt.
 ECPInt:  NShTT=  256686 NPrTT=  799487 LenC2=  190353 LenP2D=  384546.
 LDataN:  DoStor=T MaxTD1= 6 Len=  172
 NBasis=  1810 RedAO= T EigKep=  3.88D-06  NBF=  1810
 NBsUse=  1810 1.00D-06 EigRej= -1.00D+00 NBFU=  1810
 Initial guess from the checkpoint file:  "1moh_III_H.chk"
 B after Tr=     0.000000    0.000000   -0.000000
         Rot=    1.000000   -0.000000   -0.000000    0.000000 Ang=   0.00 deg.
 Initial guess <Sx>= 0.0000 <Sy>= 0.0000 <Sz>= 2.5000 <S**2>= 8.8075 S= 2.5096
 Requested convergence on RMS density matrix=1.00D-08 within 128 cycles.
 Requested convergence on MAX density matrix=1.00D-06.
 Requested convergence on             energy=1.00D-06.
 No special actions if energy rises.
 SCF Done:  E(UPBE1PBE) =  -3761.11670471     A.U. after    1 cycles
            NFock=  1  Conv=0.79D-09     -V/T= 2.0027
 <Sx>= 0.0000 <Sy>= 0.0000 <Sz>= 2.5000 <S**2>= 8.8075 S= 2.5096
 <L.S>= 0.000000000000E+00
 Annihilation of the first spin contaminant:
 S**2 before annihilation     8.8075,   after     8.7510

 **********************************************************************

            Population analysis using the SCF density.

 **********************************************************************

 Orbital symmetries:
 Alpha Orbitals:
       Occupied  (A) (A) (A) (A) (A) (A) (A) (A) (A) (A) (A) (A)
                 (A) (A) (A) (A) (A) (A) (A) (A) (A) (A) (A) (A)
                 (A) (A) (A) (A) (A) (A) (A) (A) (A) (A) (A) (A)
                 (A) (A) (A) (A) (A) (A) (A) (A) (A) (A) (A) (A)
                 (A) (A) (A) (A) (A) (A) (A) (A) (A) (A) (A) (A)
                 (A) (A) (A) (A) (A) (A) (A) (A) (A) (A) (A) (A)
                 (A) (A) (A) (A) (A) (A) (A) (A) (A) (A) (A) (A)
                 (A) (A) (A) (A) (A) (A) (A) (A) (A) (A) (A) (A)
                 (A) (A) (A) (A) (A) (A) (A) (A) (A) (A) (A) (A)
                 (A) (A) (A) (A) (A) (A) (A) (A) (A) (A) (A) (A)
                 (A) (A) (A) (A) (A) (A) (A) (A) (A) (A) (A) (A)
                 (A) (A) (A) (A) (A) (A) (A) (A) (A) (A) (A) (A)
                 (A) (A) (A) (A) (A) (A) (A) (A) (A) (A) (A) (A)
                 (A) (A) (A) (A) (A) (A) (A) (A) (A) (A) (A) (A)
                 (A) (A) (A) (A) (A) (A) (A) (A) (A) (A) (A) (A)
                 (A) (A) (A) (A) (A) (A) (A) (A) (A) (A) (A) (A)
                 (A) (A)
       Virtual   (A) (A) (A) (A) (A) (A) (A) (A) (A) (A) (A) (A)
                 (A) (A) (A) (A) (A) (A) (A) (A) (A) (A) (A) (A)
                 (A) (A) (A) (A) (A) (A) (A) (A) (A) (A) (A) (A)
                 (A) (A) (A) (A) (A) (A) (A) (A) (A) (A) (A) (A)
                 (A) (A) (A) (A) (A) (A) (A) (A) (A) (A) (A) (A)
                 (A) (A) (A) (A) (A) (A) (A) (A) (A) (A) (A) (A)
                 (A) (A) (A) (A) (A) (A) (A) (A) (A) (A) (A) (A)
                 (A) (A) (A) (A) (A) (A) (A) (A) (A) (A) (A) (A)
                 (A) (A) (A) (A) (A) (A) (A) (A) (A) (A) (A) (A)
                 (A) (A) (A) (A) (A) (A) (A) (A) (A) (A) (A) (A)
                 (A) (A) (A) (A) (A) (A) (A) (A) (A) (A) (A) (A)
                 (A) (A) (A) (A) (A) (A) (A) (A) (A) (A) (A) (A)
                 (A) (A) (A) (A) (A) (A) (A) (A) (A) (A) (A) (A)
                 (A) (A) (A) (A) (A) (A) (A) (A) (A) (A) (A) (A)
                 (A) (A) (A) (A) (A) (A) (A) (A) (A) (A) (A) (A)
                 (A) (A) (A) (A) (A) (A) (A) (A) (A) (A) (A) (A)
                 (A) (A) (A) (A) (A) (A) (A) (A) (A) (A) (A) (A)
                 (A) (A) (A) (A) (A) (A) (A) (A) (A) (A) (A) (A)
                 (A) (A) (A) (A) (A) (A) (A) (A) (A) (A) (A) (A)
                 (A) (A) (A) (A) (A) (A) (A) (A) (A) (A) (A) (A)
                 (A) (A) (A) (A) (A) (A) (A) (A) (A) (A) (A) (A)
                 (A) (A) (A) (A) (A) (A) (A) (A) (A) (A) (A) (A)
                 (A) (A) (A) (A) (A) (A) (A) (A) (A) (A) (A) (A)
                 (A) (A) (A) (A) (A) (A) (A) (A) (A) (A) (A) (A)
                 (A) (A) (A) (A) (A) (A) (A) (A) (A) (A) (A) (A)
                 (A) (A) (A) (A) (A) (A) (A) (A) (A) (A) (A) (A)
                 (A) (A) (A) (A) (A) (A) (A) (A) (A) (A) (A) (A)
                 (A) (A) (A) (A) (A) (A) (A) (A) (A) (A) (A) (A)
                 (A) (A) (A) (A) (A) (A) (A) (A) (A) (A) (A) (A)
                 (A) (A) (A) (A) (A) (A) (A) (A) (A) (A) (A) (A)
                 (A) (A) (A) (A) (A) (A) (A) (A) (A) (A) (A) (A)
                 (A) (A) (A) (A) (A) (A) (A) (A) (A) (A) (A) (A)
                 (A) (A) (A) (A) (A) (A) (A) (A) (A) (A) (A) (A)
                 (A) (A) (A) (A) (A) (A) (A) (A) (A) (A) (A) (A)
                 (A) (A) (A) (A) (A) (A) (A) (A) (A) (A) (A) (A)
                 (A) (A) (A) (A) (A) (A) (A) (A) (A) (A) (A) (A)
                 (A) (A) (A) (A) (A) (A) (A) (A) (A) (A) (A) (A)
                 (A) (A) (A) (A) (A) (A) (A) (A) (A) (A) (A) (A)
                 (A) (A) (A) (A) (A) (A) (A) (A) (A) (A) (A) (A)
                 (A) (A) (A) (A) (A) (A) (A) (A) (A) (A) (A) (A)
                 (A) (A) (A) (A) (A) (A) (A) (A) (A) (A) (A) (A)
                 (A) (A) (A) (A) (A) (A) (A) (A) (A) (A) (A) (A)
                 (A) (A) (A) (A) (A) (A) (A) (A) (A) (A) (A) (A)
                 (A) (A) (A) (A) (A) (A) (A) (A) (A) (A) (A) (A)
                 (A) (A) (A) (A) (A) (A) (A) (A) (A) (A) (A) (A)
                 (A) (A) (A) (A) (A) (A) (A) (A) (A) (A) (A) (A)
                 (A) (A) (A) (A) (A) (A) (A) (A) (A) (A) (A) (A)
                 (A) (A) (A) (A) (A) (A) (A) (A) (A) (A) (A) (A)
                 (A) (A) (A) (A) (A) (A) (A) (A) (A) (A) (A) (A)
                 (A) (A) (A) (A) (A) (A) (A) (A) (A) (A) (A) (A)
                 (A) (A) (A) (A) (A) (A) (A) (A) (A) (A) (A) (A)
                 (A) (A) (A) (A) (A) (A) (A) (A) (A) (A) (A) (A)
                 (A) (A) (A) (A) (A) (A) (A) (A) (A) (A) (A) (A)
                 (A) (A) (A) (A) (A) (A) (A) (A) (A) (A) (A) (A)
                 (A) (A) (A) (A) (A) (A) (A) (A) (A) (A) (A) (A)
                 (A) (A) (A) (A) (A) (A) (A) (A) (A) (A) (A) (A)
                 (A) (A) (A) (A) (A) (A) (A) (A) (A) (A) (A) (A)
                 (A) (A) (A) (A) (A) (A) (A) (A) (A) (A) (A) (A)
                 (A) (A) (A) (A) (A) (A) (A) (A) (A) (A) (A) (A)
                 (A) (A) (A) (A) (A) (A) (A) (A) (A) (A) (A) (A)
                 (A) (A) (A) (A) (A) (A) (A) (A) (A) (A) (A) (A)
                 (A) (A) (A) (A) (A) (A) (A) (A) (A) (A) (A) (A)
                 (A) (A) (A) (A) (A) (A) (A) (A) (A) (A) (A) (A)
                 (A) (A) (A) (A) (A) (A) (A) (A) (A) (A) (A) (A)
                 (A) (A) (A) (A) (A) (A) (A) (A) (A) (A) (A) (A)
                 (A) (A) (A) (A) (A) (A) (A) (A) (A) (A) (A) (A)
                 (A) (A) (A) (A) (A) (A) (A) (A) (A) (A) (A) (A)
                 (A) (A) (A) (A) (A) (A) (A) (A) (A) (A) (A) (A)
                 (A) (A) (A) (A) (A) (A) (A) (A) (A) (A) (A) (A)
                 (A) (A) (A) (A) (A) (A) (A) (A) (A) (A) (A) (A)
                 (A) (A) (A) (A) (A) (A) (A) (A) (A) (A) (A) (A)
                 (A) (A) (A) (A) (A) (A) (A) (A) (A) (A) (A) (A)
                 (A) (A) (A) (A) (A) (A) (A) (A) (A) (A) (A) (A)
                 (A) (A) (A) (A) (A) (A) (A) (A) (A) (A) (A) (A)
                 (A) (A) (A) (A) (A) (A) (A) (A) (A) (A) (A) (A)
                 (A) (A) (A) (A) (A) (A) (A) (A) (A) (A) (A) (A)
                 (A) (A) (A) (A) (A) (A) (A) (A) (A) (A) (A) (A)
                 (A) (A) (A) (A) (A) (A) (A) (A) (A) (A) (A) (A)
                 (A) (A) (A) (A) (A) (A) (A) (A) (A) (A) (A) (A)
                 (A) (A) (A) (A) (A) (A) (A) (A) (A) (A) (A) (A)
                 (A) (A) (A) (A) (A) (A) (A) (A) (A) (A) (A) (A)
                 (A) (A) (A) (A) (A) (A) (A) (A) (A) (A) (A) (A)
                 (A) (A) (A) (A) (A) (A) (A) (A) (A) (A) (A) (A)
                 (A) (A) (A) (A) (A) (A) (A) (A) (A) (A) (A) (A)
                 (A) (A) (A) (A) (A) (A) (A) (A) (A) (A) (A) (A)
                 (A) (A) (A) (A) (A) (A) (A) (A) (A) (A) (A) (A)
                 (A) (A) (A) (A) (A) (A) (A) (A) (A) (A) (A) (A)
                 (A) (A) (A) (A) (A) (A) (A) (A) (A) (A) (A) (A)
                 (A) (A) (A) (A) (A) (A) (A) (A) (A) (A) (A) (A)
                 (A) (A) (A) (A) (A) (A) (A) (A) (A) (A) (A) (A)
                 (A) (A) (A) (A) (A) (A) (A) (A) (A) (A) (A) (A)
                 (A) (A) (A) (A) (A) (A) (A) (A) (A) (A) (A) (A)
                 (A) (A) (A) (A) (A) (A) (A) (A) (A) (A) (A) (A)
                 (A) (A) (A) (A) (A) (A) (A) (A) (A) (A) (A) (A)
                 (A) (A) (A) (A) (A) (A) (A) (A) (A) (A) (A) (A)
                 (A) (A) (A) (A) (A) (A) (A) (A) (A) (A) (A) (A)
                 (A) (A) (A) (A) (A) (A) (A) (A) (A) (A) (A) (A)
                 (A) (A) (A) (A) (A) (A) (A) (A) (A) (A) (A) (A)
                 (A) (A) (A) (A) (A) (A) (A) (A) (A) (A) (A) (A)
                 (A) (A) (A) (A) (A) (A) (A) (A) (A) (A) (A) (A)
                 (A) (A) (A) (A) (A) (A) (A) (A) (A) (A) (A) (A)
                 (A) (A) (A) (A) (A) (A) (A) (A) (A) (A) (A) (A)
                 (A) (A) (A) (A) (A) (A) (A) (A) (A) (A) (A) (A)
                 (A) (A) (A) (A) (A) (A) (A) (A) (A) (A) (A) (A)
                 (A) (A) (A) (A) (A) (A) (A) (A) (A) (A) (A) (A)
                 (A) (A) (A) (A) (A) (A) (A) (A) (A) (A) (A) (A)
                 (A) (A) (A) (A) (A) (A) (A) (A) (A) (A) (A) (A)
                 (A) (A) (A) (A) (A) (A) (A) (A) (A) (A) (A) (A)
                 (A) (A) (A) (A) (A) (A) (A) (A) (A) (A) (A) (A)
                 (A) (A) (A) (A) (A) (A) (A) (A) (A) (A) (A) (A)
                 (A) (A) (A) (A) (A) (A) (A) (A) (A) (A) (A) (A)
                 (A) (A) (A) (A) (A) (A) (A) (A) (A) (A) (A) (A)
                 (A) (A) (A) (A) (A) (A) (A) (A) (A) (A) (A) (A)
                 (A) (A) (A) (A) (A) (A) (A) (A) (A) (A) (A) (A)
                 (A) (A) (A) (A) (A) (A) (A) (A) (A) (A) (A) (A)
                 (A) (A) (A) (A) (A) (A) (A) (A) (A) (A) (A) (A)
                 (A) (A) (A) (A) (A) (A) (A) (A) (A) (A) (A) (A)
                 (A) (A) (A) (A) (A) (A) (A) (A) (A) (A) (A) (A)
                 (A) (A) (A) (A) (A) (A) (A) (A) (A) (A) (A) (A)
                 (A) (A) (A) (A) (A) (A) (A) (A) (A) (A) (A) (A)
                 (A) (A) (A) (A) (A) (A) (A) (A) (A) (A) (A) (A)
                 (A) (A) (A) (A) (A) (A) (A) (A) (A) (A) (A) (A)
                 (A) (A) (A) (A) (A) (A) (A) (A) (A) (A) (A) (A)
                 (A) (A) (A) (A) (A) (A) (A) (A) (A) (A) (A) (A)
                 (A) (A) (A) (A) (A) (A) (A) (A) (A) (A) (A) (A)
                 (A) (A) (A) (A) (A) (A) (A) (A) (A) (A) (A) (A)
                 (A) (A) (A) (A) (A) (A) (A) (A) (A) (A) (A) (A)
                 (A) (A) (A) (A) (A) (A) (A) (A) (A) (A) (A) (A)
                 (A) (A) (A) (A) (A) (A) (A) (A) (A) (A) (A) (A)
                 (A) (A) (A) (A) (A) (A) (A) (A) (A) (A) (A) (A)
                 (A) (A) (A) (A) (A) (A) (A) (A) (A) (A) (A) (A)
                 (A) (A) (A) (A) (A) (A) (A) (A) (A) (A) (A) (A)
                 (A) (A) (A) (A) (A) (A) (A) (A) (A) (A) (A) (A)
                 (A) (A) (A) (A) (A) (A) (A) (A) (A) (A) (A) (A)
                 (A) (A) (A) (A) (A) (A) (A) (A)
 Beta  Orbitals:
       Occupied  (A) (A) (A) (A) (A) (A) (A) (A) (A) (A) (A) (A)
                 (A) (A) (A) (A) (A) (A) (A) (A) (A) (A) (A) (A)
                 (A) (A) (A) (A) (A) (A) (A) (A) (A) (A) (A) (A)
                 (A) (A) (A) (A) (A) (A) (A) (A) (A) (A) (A) (A)
                 (A) (A) (A) (A) (A) (A) (A) (A) (A) (A) (A) (A)
                 (A) (A) (A) (A) (A) (A) (A) (A) (A) (A) (A) (A)
                 (A) (A) (A) (A) (A) (A) (A) (A) (A) (A) (A) (A)
                 (A) (A) (A) (A) (A) (A) (A) (A) (A) (A) (A) (A)
                 (A) (A) (A) (A) (A) (A) (A) (A) (A) (A) (A) (A)
                 (A) (A) (A) (A) (A) (A) (A) (A) (A) (A) (A) (A)
                 (A) (A) (A) (A) (A) (A) (A) (A) (A) (A) (A) (A)
                 (A) (A) (A) (A) (A) (A) (A) (A) (A) (A) (A) (A)
                 (A) (A) (A) (A) (A) (A) (A) (A) (A) (A) (A) (A)
                 (A) (A) (A) (A) (A) (A) (A) (A) (A) (A) (A) (A)
                 (A) (A) (A) (A) (A) (A) (A) (A) (A) (A) (A) (A)
                 (A) (A) (A) (A) (A) (A) (A) (A) (A)
       Virtual   (A) (A) (A) (A) (A) (A) (A) (A) (A) (A) (A) (A)
                 (A) (A) (A) (A) (A) (A) (A) (A) (A) (A) (A) (A)
                 (A) (A) (A) (A) (A) (A) (A) (A) (A) (A) (A) (A)
                 (A) (A) (A) (A) (A) (A) (A) (A) (A) (A) (A) (A)
                 (A) (A) (A) (A) (A) (A) (A) (A) (A) (A) (A) (A)
                 (A) (A) (A) (A) (A) (A) (A) (A) (A) (A) (A) (A)
                 (A) (A) (A) (A) (A) (A) (A) (A) (A) (A) (A) (A)
                 (A) (A) (A) (A) (A) (A) (A) (A) (A) (A) (A) (A)
                 (A) (A) (A) (A) (A) (A) (A) (A) (A) (A) (A) (A)
                 (A) (A) (A) (A) (A) (A) (A) (A) (A) (A) (A) (A)
                 (A) (A) (A) (A) (A) (A) (A) (A) (A) (A) (A) (A)
                 (A) (A) (A) (A) (A) (A) (A) (A) (A) (A) (A) (A)
                 (A) (A) (A) (A) (A) (A) (A) (A) (A) (A) (A) (A)
                 (A) (A) (A) (A) (A) (A) (A) (A) (A) (A) (A) (A)
                 (A) (A) (A) (A) (A) (A) (A) (A) (A) (A) (A) (A)
                 (A) (A) (A) (A) (A) (A) (A) (A) (A) (A) (A) (A)
                 (A) (A) (A) (A) (A) (A) (A) (A) (A) (A) (A) (A)
                 (A) (A) (A) (A) (A) (A) (A) (A) (A) (A) (A) (A)
                 (A) (A) (A) (A) (A) (A) (A) (A) (A) (A) (A) (A)
                 (A) (A) (A) (A) (A) (A) (A) (A) (A) (A) (A) (A)
                 (A) (A) (A) (A) (A) (A) (A) (A) (A) (A) (A) (A)
                 (A) (A) (A) (A) (A) (A) (A) (A) (A) (A) (A) (A)
                 (A) (A) (A) (A) (A) (A) (A) (A) (A) (A) (A) (A)
                 (A) (A) (A) (A) (A) (A) (A) (A) (A) (A) (A) (A)
                 (A) (A) (A) (A) (A) (A) (A) (A) (A) (A) (A) (A)
                 (A) (A) (A) (A) (A) (A) (A) (A) (A) (A) (A) (A)
                 (A) (A) (A) (A) (A) (A) (A) (A) (A) (A) (A) (A)
                 (A) (A) (A) (A) (A) (A) (A) (A) (A) (A) (A) (A)
                 (A) (A) (A) (A) (A) (A) (A) (A) (A) (A) (A) (A)
                 (A) (A) (A) (A) (A) (A) (A) (A) (A) (A) (A) (A)
                 (A) (A) (A) (A) (A) (A) (A) (A) (A) (A) (A) (A)
                 (A) (A) (A) (A) (A) (A) (A) (A) (A) (A) (A) (A)
                 (A) (A) (A) (A) (A) (A) (A) (A) (A) (A) (A) (A)
                 (A) (A) (A) (A) (A) (A) (A) (A) (A) (A) (A) (A)
                 (A) (A) (A) (A) (A) (A) (A) (A) (A) (A) (A) (A)
                 (A) (A) (A) (A) (A) (A) (A) (A) (A) (A) (A) (A)
                 (A) (A) (A) (A) (A) (A) (A) (A) (A) (A) (A) (A)
                 (A) (A) (A) (A) (A) (A) (A) (A) (A) (A) (A) (A)
                 (A) (A) (A) (A) (A) (A) (A) (A) (A) (A) (A) (A)
                 (A) (A) (A) (A) (A) (A) (A) (A) (A) (A) (A) (A)
                 (A) (A) (A) (A) (A) (A) (A) (A) (A) (A) (A) (A)
                 (A) (A) (A) (A) (A) (A) (A) (A) (A) (A) (A) (A)
                 (A) (A) (A) (A) (A) (A) (A) (A) (A) (A) (A) (A)
                 (A) (A) (A) (A) (A) (A) (A) (A) (A) (A) (A) (A)
                 (A) (A) (A) (A) (A) (A) (A) (A) (A) (A) (A) (A)
                 (A) (A) (A) (A) (A) (A) (A) (A) (A) (A) (A) (A)
                 (A) (A) (A) (A) (A) (A) (A) (A) (A) (A) (A) (A)
                 (A) (A) (A) (A) (A) (A) (A) (A) (A) (A) (A) (A)
                 (A) (A) (A) (A) (A) (A) (A) (A) (A) (A) (A) (A)
                 (A) (A) (A) (A) (A) (A) (A) (A) (A) (A) (A) (A)
                 (A) (A) (A) (A) (A) (A) (A) (A) (A) (A) (A) (A)
                 (A) (A) (A) (A) (A) (A) (A) (A) (A) (A) (A) (A)
                 (A) (A) (A) (A) (A) (A) (A) (A) (A) (A) (A) (A)
                 (A) (A) (A) (A) (A) (A) (A) (A) (A) (A) (A) (A)
                 (A) (A) (A) (A) (A) (A) (A) (A) (A) (A) (A) (A)
                 (A) (A) (A) (A) (A) (A) (A) (A) (A) (A) (A) (A)
                 (A) (A) (A) (A) (A) (A) (A) (A) (A) (A) (A) (A)
                 (A) (A) (A) (A) (A) (A) (A) (A) (A) (A) (A) (A)
                 (A) (A) (A) (A) (A) (A) (A) (A) (A) (A) (A) (A)
                 (A) (A) (A) (A) (A) (A) (A) (A) (A) (A) (A) (A)
                 (A) (A) (A) (A) (A) (A) (A) (A) (A) (A) (A) (A)
                 (A) (A) (A) (A) (A) (A) (A) (A) (A) (A) (A) (A)
                 (A) (A) (A) (A) (A) (A) (A) (A) (A) (A) (A) (A)
                 (A) (A) (A) (A) (A) (A) (A) (A) (A) (A) (A) (A)
                 (A) (A) (A) (A) (A) (A) (A) (A) (A) (A) (A) (A)
                 (A) (A) (A) (A) (A) (A) (A) (A) (A) (A) (A) (A)
                 (A) (A) (A) (A) (A) (A) (A) (A) (A) (A) (A) (A)
                 (A) (A) (A) (A) (A) (A) (A) (A) (A) (A) (A) (A)
                 (A) (A) (A) (A) (A) (A) (A) (A) (A) (A) (A) (A)
                 (A) (A) (A) (A) (A) (A) (A) (A) (A) (A) (A) (A)
                 (A) (A) (A) (A) (A) (A) (A) (A) (A) (A) (A) (A)
                 (A) (A) (A) (A) (A) (A) (A) (A) (A) (A) (A) (A)
                 (A) (A) (A) (A) (A) (A) (A) (A) (A) (A) (A) (A)
                 (A) (A) (A) (A) (A) (A) (A) (A) (A) (A) (A) (A)
                 (A) (A) (A) (A) (A) (A) (A) (A) (A) (A) (A) (A)
                 (A) (A) (A) (A) (A) (A) (A) (A) (A) (A) (A) (A)
                 (A) (A) (A) (A) (A) (A) (A) (A) (A) (A) (A) (A)
                 (A) (A) (A) (A) (A) (A) (A) (A) (A) (A) (A) (A)
                 (A) (A) (A) (A) (A) (A) (A) (A) (A) (A) (A) (A)
                 (A) (A) (A) (A) (A) (A) (A) (A) (A) (A) (A) (A)
                 (A) (A) (A) (A) (A) (A) (A) (A) (A) (A) (A) (A)
                 (A) (A) (A) (A) (A) (A) (A) (A) (A) (A) (A) (A)
                 (A) (A) (A) (A) (A) (A) (A) (A) (A) (A) (A) (A)
                 (A) (A) (A) (A) (A) (A) (A) (A) (A) (A) (A) (A)
                 (A) (A) (A) (A) (A) (A) (A) (A) (A) (A) (A) (A)
                 (A) (A) (A) (A) (A) (A) (A) (A) (A) (A) (A) (A)
                 (A) (A) (A) (A) (A) (A) (A) (A) (A) (A) (A) (A)
                 (A) (A) (A) (A) (A) (A) (A) (A) (A) (A) (A) (A)
                 (A) (A) (A) (A) (A) (A) (A) (A) (A) (A) (A) (A)
                 (A) (A) (A) (A) (A) (A) (A) (A) (A) (A) (A) (A)
                 (A) (A) (A) (A) (A) (A) (A) (A) (A) (A) (A) (A)
                 (A) (A) (A) (A) (A) (A) (A) (A) (A) (A) (A) (A)
                 (A) (A) (A) (A) (A) (A) (A) (A) (A) (A) (A) (A)
                 (A) (A) (A) (A) (A) (A) (A) (A) (A) (A) (A) (A)
                 (A) (A) (A) (A) (A) (A) (A) (A) (A) (A) (A) (A)
                 (A) (A) (A) (A) (A) (A) (A) (A) (A) (A) (A) (A)
                 (A) (A) (A) (A) (A) (A) (A) (A) (A) (A) (A) (A)
                 (A) (A) (A) (A) (A) (A) (A) (A) (A) (A) (A) (A)
                 (A) (A) (A) (A) (A) (A) (A) (A) (A) (A) (A) (A)
                 (A) (A) (A) (A) (A) (A) (A) (A) (A) (A) (A) (A)
                 (A) (A) (A) (A) (A) (A) (A) (A) (A) (A) (A) (A)
                 (A) (A) (A) (A) (A) (A) (A) (A) (A) (A) (A) (A)
                 (A) (A) (A) (A) (A) (A) (A) (A) (A) (A) (A) (A)
                 (A) (A) (A) (A) (A) (A) (A) (A) (A) (A) (A) (A)
                 (A) (A) (A) (A) (A) (A) (A) (A) (A) (A) (A) (A)
                 (A) (A) (A) (A) (A) (A) (A) (A) (A) (A) (A) (A)
                 (A) (A) (A) (A) (A) (A) (A) (A) (A) (A) (A) (A)
                 (A) (A) (A) (A) (A) (A) (A) (A) (A) (A) (A) (A)
                 (A) (A) (A) (A) (A) (A) (A) (A) (A) (A) (A) (A)
                 (A) (A) (A) (A) (A) (A) (A) (A) (A) (A) (A) (A)
                 (A) (A) (A) (A) (A) (A) (A) (A) (A) (A) (A) (A)
                 (A) (A) (A) (A) (A) (A) (A) (A) (A) (A) (A) (A)
                 (A) (A) (A) (A) (A) (A) (A) (A) (A) (A) (A) (A)
                 (A) (A) (A) (A) (A) (A) (A) (A) (A) (A) (A) (A)
                 (A) (A) (A) (A) (A) (A) (A) (A) (A) (A) (A) (A)
                 (A) (A) (A) (A) (A) (A) (A) (A) (A) (A) (A) (A)
                 (A) (A) (A) (A) (A) (A) (A) (A) (A) (A) (A) (A)
                 (A) (A) (A) (A) (A) (A) (A) (A) (A) (A) (A) (A)
                 (A) (A) (A) (A) (A) (A) (A) (A) (A) (A) (A) (A)
                 (A) (A) (A) (A) (A) (A) (A) (A) (A) (A) (A) (A)
                 (A) (A) (A) (A) (A) (A) (A) (A) (A) (A) (A) (A)
                 (A) (A) (A) (A) (A) (A) (A) (A) (A) (A) (A) (A)
                 (A) (A) (A) (A) (A) (A) (A) (A) (A) (A) (A) (A)
                 (A) (A) (A) (A) (A) (A) (A) (A) (A) (A) (A) (A)
                 (A) (A) (A) (A) (A) (A) (A) (A) (A) (A) (A) (A)
                 (A) (A) (A) (A) (A) (A) (A) (A) (A) (A) (A) (A)
                 (A) (A) (A) (A) (A) (A) (A) (A) (A) (A) (A) (A)
                 (A) (A) (A) (A) (A) (A) (A) (A) (A) (A) (A) (A)
                 (A) (A) (A) (A) (A) (A) (A) (A) (A) (A) (A) (A)
                 (A) (A) (A) (A) (A) (A) (A) (A) (A) (A) (A) (A)
                 (A) (A) (A) (A) (A) (A) (A) (A) (A) (A) (A) (A)
                 (A) (A) (A) (A) (A) (A) (A) (A) (A) (A) (A) (A)
                 (A) (A) (A) (A) (A) (A) (A) (A) (A) (A) (A) (A)
                 (A) (A) (A) (A) (A) (A) (A) (A) (A) (A) (A) (A)
                 (A) (A) (A) (A) (A) (A) (A) (A) (A) (A) (A) (A)
                 (A)
 The electronic state is 6-A.
 Alpha  occ. eigenvalues -- -256.49480 -89.13296 -30.30577 -26.13962 -26.11975
 Alpha  occ. eigenvalues --  -26.11591 -19.33848 -19.33453 -19.25761 -19.24327
 Alpha  occ. eigenvalues --  -14.53379 -14.50765 -14.49812 -14.47988 -14.47832
 Alpha  occ. eigenvalues --  -14.47780 -10.43159 -10.42179 -10.37060 -10.36144
 Alpha  occ. eigenvalues --  -10.35889 -10.35810 -10.35780 -10.34909 -10.34779
 Alpha  occ. eigenvalues --  -10.34563 -10.34516 -10.34392 -10.33763 -10.33088
 Alpha  occ. eigenvalues --  -10.33076 -10.32936 -10.32833 -10.32829 -10.32765
 Alpha  occ. eigenvalues --  -10.32684 -10.32453 -10.32358 -10.32336 -10.32163
 Alpha  occ. eigenvalues --  -10.32104 -10.32068 -10.31883 -10.31570 -10.31116
 Alpha  occ. eigenvalues --  -10.31020 -10.31009 -10.30864 -10.30627 -10.30460
 Alpha  occ. eigenvalues --  -10.30236 -10.29982 -10.29971 -10.29355  -8.11826
 Alpha  occ. eigenvalues --   -6.05432  -6.05147  -6.04622  -3.70192  -2.49660
 Alpha  occ. eigenvalues --   -2.44719  -2.44116  -1.24610  -1.23239  -1.14969
 Alpha  occ. eigenvalues --   -1.11046  -1.10187  -1.08837  -1.08654  -1.08019
 Alpha  occ. eigenvalues --   -1.06737  -0.99873  -0.95014  -0.94067  -0.93696
 Alpha  occ. eigenvalues --   -0.93277  -0.92379  -0.91630  -0.90943  -0.89569
 Alpha  occ. eigenvalues --   -0.89288  -0.88778  -0.88457  -0.87574  -0.86728
 Alpha  occ. eigenvalues --   -0.85900  -0.83912  -0.82112  -0.81667  -0.81631
 Alpha  occ. eigenvalues --   -0.80873  -0.78665  -0.78199  -0.77921  -0.75806
 Alpha  occ. eigenvalues --   -0.75262  -0.74736  -0.73555  -0.72611  -0.71269
 Alpha  occ. eigenvalues --   -0.70866  -0.70835  -0.69351  -0.68612  -0.66197
 Alpha  occ. eigenvalues --   -0.65898  -0.65395  -0.65119  -0.64305  -0.63047
 Alpha  occ. eigenvalues --   -0.62336  -0.62004  -0.61833  -0.61367  -0.61115
 Alpha  occ. eigenvalues --   -0.59397  -0.58884  -0.58444  -0.58094  -0.57735
 Alpha  occ. eigenvalues --   -0.57333  -0.56985  -0.56641  -0.56396  -0.56082
 Alpha  occ. eigenvalues --   -0.56029  -0.55677  -0.55167  -0.55088  -0.54925
 Alpha  occ. eigenvalues --   -0.54581  -0.54341  -0.53994  -0.53911  -0.53697
 Alpha  occ. eigenvalues --   -0.53419  -0.53323  -0.53203  -0.52863  -0.52496
 Alpha  occ. eigenvalues --   -0.52287  -0.52127  -0.51738  -0.51472  -0.51306
 Alpha  occ. eigenvalues --   -0.50976  -0.50768  -0.50758  -0.50590  -0.50539
 Alpha  occ. eigenvalues --   -0.50094  -0.49729  -0.49247  -0.49139  -0.48884
 Alpha  occ. eigenvalues --   -0.48657  -0.48404  -0.48113  -0.47554  -0.47385
 Alpha  occ. eigenvalues --   -0.47082  -0.46831  -0.46564  -0.46137  -0.45495
 Alpha  occ. eigenvalues --   -0.45341  -0.44901  -0.44476  -0.44439  -0.43710
 Alpha  occ. eigenvalues --   -0.43278  -0.43167  -0.42526  -0.41575  -0.41448
 Alpha  occ. eigenvalues --   -0.41101  -0.39625  -0.39355  -0.39108  -0.38392
 Alpha  occ. eigenvalues --   -0.37951  -0.37374  -0.36889  -0.35887  -0.34780
 Alpha  occ. eigenvalues --   -0.34443  -0.33371  -0.33065  -0.32695  -0.32118
 Alpha  occ. eigenvalues --   -0.32013  -0.29711  -0.28728  -0.24976
 Alpha virt. eigenvalues --   -0.17955  -0.16499  -0.12845  -0.12653  -0.09658
 Alpha virt. eigenvalues --   -0.09315  -0.08443  -0.06794  -0.06626  -0.06348
 Alpha virt. eigenvalues --   -0.05736  -0.04979  -0.04585  -0.04121  -0.03842
 Alpha virt. eigenvalues --   -0.03509  -0.03349  -0.02822  -0.02318  -0.02229
 Alpha virt. eigenvalues --   -0.02134  -0.01533  -0.01235  -0.01020  -0.00992
 Alpha virt. eigenvalues --   -0.00429   0.00226   0.00343   0.00551   0.00806
 Alpha virt. eigenvalues --    0.01064   0.01286   0.01539   0.01755   0.02137
 Alpha virt. eigenvalues --    0.02472   0.02982   0.03040   0.03366   0.03492
 Alpha virt. eigenvalues --    0.03624   0.03704   0.04061   0.04594   0.04720
 Alpha virt. eigenvalues --    0.04860   0.05169   0.05329   0.05574   0.05759
 Alpha virt. eigenvalues --    0.05970   0.06147   0.06441   0.06553   0.06769
 Alpha virt. eigenvalues --    0.06783   0.06948   0.07317   0.07526   0.07568
 Alpha virt. eigenvalues --    0.07851   0.08149   0.08383   0.08471   0.08864
 Alpha virt. eigenvalues --    0.09059   0.09109   0.09383   0.09612   0.10068
 Alpha virt. eigenvalues --    0.10176   0.10362   0.10547   0.10768   0.10889
 Alpha virt. eigenvalues --    0.11286   0.11583   0.11771   0.11881   0.11994
 Alpha virt. eigenvalues --    0.12266   0.12666   0.12950   0.13307   0.13502
 Alpha virt. eigenvalues --    0.13527   0.13791   0.14074   0.14241   0.14306
 Alpha virt. eigenvalues --    0.14455   0.14846   0.14868   0.15229   0.15556
 Alpha virt. eigenvalues --    0.15968   0.16025   0.16172   0.16427   0.16901
 Alpha virt. eigenvalues --    0.16986   0.17221   0.17484   0.17573   0.17858
 Alpha virt. eigenvalues --    0.18005   0.18202   0.18267   0.18699   0.19057
 Alpha virt. eigenvalues --    0.19245   0.19496   0.19657   0.19889   0.19964
 Alpha virt. eigenvalues --    0.20331   0.20440   0.20727   0.21310   0.21593
 Alpha virt. eigenvalues --    0.21792   0.21891   0.22280   0.22396   0.22503
 Alpha virt. eigenvalues --    0.22783   0.22984   0.23214   0.23479   0.23572
 Alpha virt. eigenvalues --    0.23643   0.23863   0.24226   0.24423   0.24591
 Alpha virt. eigenvalues --    0.24871   0.25431   0.25630   0.25848   0.26122
 Alpha virt. eigenvalues --    0.26671   0.26838   0.27024   0.27074   0.27298
 Alpha virt. eigenvalues --    0.27431   0.27961   0.28189   0.28574   0.28658
 Alpha virt. eigenvalues --    0.28679   0.29070   0.29185   0.29415   0.29511
 Alpha virt. eigenvalues --    0.29737   0.30211   0.30401   0.30531   0.30751
 Alpha virt. eigenvalues --    0.30926   0.31251   0.31584   0.31671   0.31717
 Alpha virt. eigenvalues --    0.32145   0.32245   0.32430   0.32556   0.32686
 Alpha virt. eigenvalues --    0.32978   0.33047   0.33157   0.33387   0.33462
 Alpha virt. eigenvalues --    0.33837   0.34112   0.34130   0.34350   0.34645
 Alpha virt. eigenvalues --    0.34844   0.34911   0.35036   0.35444   0.35484
 Alpha virt. eigenvalues --    0.35899   0.36129   0.36260   0.36452   0.36781
 Alpha virt. eigenvalues --    0.36796   0.36988   0.37163   0.37284   0.37425
 Alpha virt. eigenvalues --    0.37761   0.38009   0.38171   0.38252   0.38401
 Alpha virt. eigenvalues --    0.38636   0.38758   0.39029   0.39329   0.39448
 Alpha virt. eigenvalues --    0.39618   0.39728   0.39903   0.39948   0.40357
 Alpha virt. eigenvalues --    0.40477   0.40541   0.40766   0.40939   0.41151
 Alpha virt. eigenvalues --    0.41248   0.41501   0.41965   0.42111   0.42244
 Alpha virt. eigenvalues --    0.42416   0.42541   0.42752   0.42929   0.43147
 Alpha virt. eigenvalues --    0.43372   0.43542   0.43729   0.43903   0.44041
 Alpha virt. eigenvalues --    0.44271   0.44411   0.44556   0.44931   0.45050
 Alpha virt. eigenvalues --    0.45110   0.45533   0.45772   0.46015   0.46053
 Alpha virt. eigenvalues --    0.46300   0.46462   0.46774   0.47204   0.47292
 Alpha virt. eigenvalues --    0.47610   0.47766   0.47858   0.48133   0.48287
 Alpha virt. eigenvalues --    0.48429   0.48802   0.49028   0.49423   0.49561
 Alpha virt. eigenvalues --    0.49630   0.49957   0.50405   0.50645   0.50849
 Alpha virt. eigenvalues --    0.50953   0.51294   0.51642   0.51926   0.51997
 Alpha virt. eigenvalues --    0.52211   0.52438   0.52737   0.52887   0.53114
 Alpha virt. eigenvalues --    0.53302   0.53550   0.53743   0.54206   0.54406
 Alpha virt. eigenvalues --    0.54634   0.55170   0.55234   0.55636   0.56390
 Alpha virt. eigenvalues --    0.56548   0.56730   0.56931   0.57111   0.57270
 Alpha virt. eigenvalues --    0.57578   0.57881   0.58124   0.58487   0.58719
 Alpha virt. eigenvalues --    0.58899   0.59076   0.59588   0.59607   0.60042
 Alpha virt. eigenvalues --    0.60205   0.60353   0.60743   0.61051   0.61300
 Alpha virt. eigenvalues --    0.61699   0.61981   0.62395   0.62669   0.62752
 Alpha virt. eigenvalues --    0.63162   0.63354   0.63529   0.63944   0.64321
 Alpha virt. eigenvalues --    0.64509   0.64971   0.65054   0.65139   0.65850
 Alpha virt. eigenvalues --    0.65878   0.66069   0.66352   0.66839   0.67113
 Alpha virt. eigenvalues --    0.67363   0.67911   0.68358   0.68746   0.69089
 Alpha virt. eigenvalues --    0.69121   0.69524   0.69849   0.70130   0.70297
 Alpha virt. eigenvalues --    0.70736   0.70899   0.71452   0.71606   0.71996
 Alpha virt. eigenvalues --    0.72239   0.72858   0.73203   0.73456   0.73647
 Alpha virt. eigenvalues --    0.73732   0.74175   0.74518   0.74720   0.75072
 Alpha virt. eigenvalues --    0.75586   0.75997   0.76125   0.76333   0.76727
 Alpha virt. eigenvalues --    0.77008   0.77338   0.77571   0.78066   0.78262
 Alpha virt. eigenvalues --    0.78357   0.78487   0.79004   0.79373   0.79583
 Alpha virt. eigenvalues --    0.79771   0.80195   0.80433   0.80757   0.81183
 Alpha virt. eigenvalues --    0.81493   0.81928   0.82330   0.82684   0.83292
 Alpha virt. eigenvalues --    0.83483   0.83573   0.83781   0.83975   0.84418
 Alpha virt. eigenvalues --    0.84669   0.84928   0.85101   0.85408   0.85518
 Alpha virt. eigenvalues --    0.86032   0.86358   0.86692   0.86739   0.86855
 Alpha virt. eigenvalues --    0.87363   0.87412   0.87673   0.88223   0.88550
 Alpha virt. eigenvalues --    0.88813   0.89140   0.89290   0.89458   0.89776
 Alpha virt. eigenvalues --    0.89853   0.90376   0.90621   0.90889   0.91139
 Alpha virt. eigenvalues --    0.91330   0.91468   0.91870   0.92155   0.92410
 Alpha virt. eigenvalues --    0.93075   0.93242   0.93698   0.94035   0.94295
 Alpha virt. eigenvalues --    0.94543   0.94813   0.95048   0.95163   0.95342
 Alpha virt. eigenvalues --    0.95857   0.95934   0.96171   0.96581   0.96789
 Alpha virt. eigenvalues --    0.97332   0.97737   0.97885   0.98183   0.98571
 Alpha virt. eigenvalues --    0.99037   0.99196   1.00003   1.00128   1.00557
 Alpha virt. eigenvalues --    1.00940   1.01326   1.01506   1.01650   1.02035
 Alpha virt. eigenvalues --    1.02475   1.02611   1.02809   1.03003   1.03778
 Alpha virt. eigenvalues --    1.03922   1.04598   1.04815   1.04956   1.05495
 Alpha virt. eigenvalues --    1.05904   1.06295   1.06580   1.07163   1.07600
 Alpha virt. eigenvalues --    1.07915   1.08064   1.08418   1.08880   1.09538
 Alpha virt. eigenvalues --    1.09879   1.10134   1.10560   1.10697   1.10858
 Alpha virt. eigenvalues --    1.11393   1.12106   1.12333   1.12887   1.13064
 Alpha virt. eigenvalues --    1.13476   1.13761   1.13983   1.14112   1.14511
 Alpha virt. eigenvalues --    1.14946   1.15188   1.15848   1.16251   1.16359
 Alpha virt. eigenvalues --    1.16574   1.16832   1.17003   1.17394   1.17740
 Alpha virt. eigenvalues --    1.18539   1.18985   1.19469   1.19828   1.19988
 Alpha virt. eigenvalues --    1.20268   1.20909   1.21082   1.21267   1.21550
 Alpha virt. eigenvalues --    1.22261   1.22732   1.22839   1.23192   1.23650
 Alpha virt. eigenvalues --    1.24113   1.24623   1.24940   1.25139   1.25468
 Alpha virt. eigenvalues --    1.25838   1.26533   1.26896   1.27157   1.27349
 Alpha virt. eigenvalues --    1.27604   1.27988   1.28235   1.28647   1.28901
 Alpha virt. eigenvalues --    1.29584   1.30021   1.30533   1.30711   1.31191
 Alpha virt. eigenvalues --    1.31590   1.31766   1.32360   1.32713   1.33020
 Alpha virt. eigenvalues --    1.33089   1.33571   1.34236   1.34499   1.34984
 Alpha virt. eigenvalues --    1.35309   1.35359   1.35909   1.36337   1.36904
 Alpha virt. eigenvalues --    1.37365   1.37495   1.37702   1.38190   1.38628
 Alpha virt. eigenvalues --    1.38840   1.39251   1.39459   1.39577   1.40091
 Alpha virt. eigenvalues --    1.40527   1.40681   1.41023   1.41693   1.41993
 Alpha virt. eigenvalues --    1.42110   1.42750   1.43066   1.43213   1.43501
 Alpha virt. eigenvalues --    1.43843   1.44537   1.44625   1.44913   1.45048
 Alpha virt. eigenvalues --    1.45234   1.45571   1.45667   1.45974   1.46223
 Alpha virt. eigenvalues --    1.46413   1.46780   1.47000   1.47192   1.47830
 Alpha virt. eigenvalues --    1.48037   1.48220   1.48463   1.48555   1.49050
 Alpha virt. eigenvalues --    1.49370   1.49544   1.49824   1.50219   1.50700
 Alpha virt. eigenvalues --    1.51124   1.51291   1.51593   1.51827   1.52337
 Alpha virt. eigenvalues --    1.52527   1.52604   1.53189   1.53352   1.53827
 Alpha virt. eigenvalues --    1.53925   1.53986   1.54353   1.54585   1.54858
 Alpha virt. eigenvalues --    1.55275   1.55553   1.55769   1.55929   1.56152
 Alpha virt. eigenvalues --    1.56469   1.56789   1.57048   1.57102   1.57440
 Alpha virt. eigenvalues --    1.57641   1.57708   1.58184   1.58371   1.58897
 Alpha virt. eigenvalues --    1.58996   1.59109   1.59500   1.60080   1.60176
 Alpha virt. eigenvalues --    1.60559   1.61061   1.61381   1.61672   1.62048
 Alpha virt. eigenvalues --    1.62271   1.62642   1.62835   1.63219   1.63323
 Alpha virt. eigenvalues --    1.63762   1.64136   1.64410   1.64463   1.65060
 Alpha virt. eigenvalues --    1.65489   1.65626   1.65914   1.66151   1.66564
 Alpha virt. eigenvalues --    1.66840   1.67166   1.67504   1.67666   1.68253
 Alpha virt. eigenvalues --    1.68642   1.68938   1.69310   1.69634   1.70136
 Alpha virt. eigenvalues --    1.71040   1.71581   1.71643   1.72057   1.72156
 Alpha virt. eigenvalues --    1.72563   1.72732   1.73111   1.73151   1.73816
 Alpha virt. eigenvalues --    1.74132   1.74534   1.74929   1.75107   1.75287
 Alpha virt. eigenvalues --    1.75602   1.75715   1.76321   1.76572   1.76938
 Alpha virt. eigenvalues --    1.77630   1.77732   1.78380   1.79356   1.79416
 Alpha virt. eigenvalues --    1.79683   1.80413   1.80720   1.80969   1.81381
 Alpha virt. eigenvalues --    1.81785   1.82264   1.82653   1.83261   1.83462
 Alpha virt. eigenvalues --    1.83832   1.84403   1.84646   1.85035   1.85393
 Alpha virt. eigenvalues --    1.85553   1.86110   1.86776   1.86957   1.87250
 Alpha virt. eigenvalues --    1.87622   1.87944   1.88210   1.88564   1.88832
 Alpha virt. eigenvalues --    1.89321   1.89556   1.90077   1.90522   1.90950
 Alpha virt. eigenvalues --    1.91094   1.91504   1.91753   1.92220   1.92550
 Alpha virt. eigenvalues --    1.92766   1.93453   1.93483   1.94169   1.94517
 Alpha virt. eigenvalues --    1.94857   1.95336   1.95562   1.96049   1.96254
 Alpha virt. eigenvalues --    1.96760   1.96804   1.97386   1.97763   1.97917
 Alpha virt. eigenvalues --    1.98436   1.98776   1.99186   1.99224   2.00220
 Alpha virt. eigenvalues --    2.00539   2.00706   2.01081   2.01124   2.02091
 Alpha virt. eigenvalues --    2.02200   2.02575   2.02977   2.03307   2.03524
 Alpha virt. eigenvalues --    2.03888   2.04738   2.05058   2.05271   2.05747
 Alpha virt. eigenvalues --    2.05945   2.06356   2.06856   2.06998   2.07332
 Alpha virt. eigenvalues --    2.08119   2.08221   2.08712   2.08742   2.08916
 Alpha virt. eigenvalues --    2.09383   2.10010   2.10383   2.10871   2.11158
 Alpha virt. eigenvalues --    2.11670   2.12201   2.12734   2.13056   2.13347
 Alpha virt. eigenvalues --    2.13715   2.13897   2.14748   2.14923   2.15022
 Alpha virt. eigenvalues --    2.15393   2.15807   2.16488   2.16745   2.16787
 Alpha virt. eigenvalues --    2.17361   2.17743   2.18168   2.18475   2.18657
 Alpha virt. eigenvalues --    2.19274   2.19626   2.19872   2.20312   2.20793
 Alpha virt. eigenvalues --    2.21052   2.21163   2.21636   2.21714   2.22466
 Alpha virt. eigenvalues --    2.22580   2.23342   2.23837   2.24059   2.24308
 Alpha virt. eigenvalues --    2.24756   2.25456   2.25696   2.26167   2.26501
 Alpha virt. eigenvalues --    2.26978   2.27408   2.27634   2.27919   2.28226
 Alpha virt. eigenvalues --    2.28423   2.28757   2.28989   2.29256   2.29799
 Alpha virt. eigenvalues --    2.30301   2.30439   2.30827   2.31105   2.31395
 Alpha virt. eigenvalues --    2.32179   2.32497   2.33404   2.33530   2.33648
 Alpha virt. eigenvalues --    2.34047   2.34352   2.34882   2.35385   2.35823
 Alpha virt. eigenvalues --    2.36232   2.36425   2.36780   2.37040   2.37983
 Alpha virt. eigenvalues --    2.38557   2.38843   2.39409   2.39693   2.40171
 Alpha virt. eigenvalues --    2.40294   2.40990   2.41464   2.41507   2.42325
 Alpha virt. eigenvalues --    2.42666   2.42911   2.43481   2.44019   2.44191
 Alpha virt. eigenvalues --    2.44415   2.44776   2.45170   2.45581   2.45958
 Alpha virt. eigenvalues --    2.46003   2.46549   2.46827   2.47238   2.47607
 Alpha virt. eigenvalues --    2.48018   2.48353   2.48722   2.49099   2.49218
 Alpha virt. eigenvalues --    2.49301   2.49889   2.50174   2.50215   2.50561
 Alpha virt. eigenvalues --    2.50729   2.51058   2.51337   2.51529   2.52186
 Alpha virt. eigenvalues --    2.52401   2.52701   2.53152   2.53672   2.54087
 Alpha virt. eigenvalues --    2.54246   2.54475   2.54965   2.55287   2.55401
 Alpha virt. eigenvalues --    2.55647   2.55899   2.56133   2.56489   2.56864
 Alpha virt. eigenvalues --    2.57281   2.57774   2.57915   2.58430   2.58594
 Alpha virt. eigenvalues --    2.59115   2.60135   2.60312   2.60601   2.60802
 Alpha virt. eigenvalues --    2.61407   2.61754   2.62112   2.62184   2.62648
 Alpha virt. eigenvalues --    2.62969   2.63346   2.63975   2.64072   2.64246
 Alpha virt. eigenvalues --    2.64481   2.64917   2.65207   2.65724   2.65865
 Alpha virt. eigenvalues --    2.66167   2.66905   2.67086   2.67617   2.67786
 Alpha virt. eigenvalues --    2.67981   2.68385   2.68856   2.69136   2.69802
 Alpha virt. eigenvalues --    2.70029   2.70382   2.70488   2.70755   2.71054
 Alpha virt. eigenvalues --    2.71786   2.71940   2.72227   2.72752   2.72985
 Alpha virt. eigenvalues --    2.73381   2.73603   2.73912   2.74281   2.74702
 Alpha virt. eigenvalues --    2.75384   2.75712   2.75961   2.76343   2.76440
 Alpha virt. eigenvalues --    2.76925   2.77070   2.77408   2.77646   2.78421
 Alpha virt. eigenvalues --    2.78951   2.79495   2.79656   2.80168   2.80511
 Alpha virt. eigenvalues --    2.80814   2.81308   2.81504   2.81884   2.82066
 Alpha virt. eigenvalues --    2.82109   2.82731   2.82979   2.83370   2.83657
 Alpha virt. eigenvalues --    2.84105   2.84483   2.84959   2.85120   2.85332
 Alpha virt. eigenvalues --    2.85732   2.85950   2.86632   2.87015   2.87121
 Alpha virt. eigenvalues --    2.87392   2.87962   2.88163   2.88710   2.88781
 Alpha virt. eigenvalues --    2.89396   2.89520   2.89686   2.90496   2.90709
 Alpha virt. eigenvalues --    2.91161   2.91378   2.91790   2.92139   2.92361
 Alpha virt. eigenvalues --    2.92654   2.92926   2.93793   2.93968   2.94215
 Alpha virt. eigenvalues --    2.94651   2.95140   2.95239   2.95450   2.95882
 Alpha virt. eigenvalues --    2.96009   2.96850   2.96957   2.97165   2.97253
 Alpha virt. eigenvalues --    2.97842   2.98061   2.98355   2.98480   2.98834
 Alpha virt. eigenvalues --    2.98992   2.99349   2.99640   2.99753   3.00110
 Alpha virt. eigenvalues --    3.00326   3.00508   3.00964   3.01032   3.01393
 Alpha virt. eigenvalues --    3.01567   3.02170   3.02174   3.02464   3.02523
 Alpha virt. eigenvalues --    3.03152   3.03474   3.03706   3.03891   3.04414
 Alpha virt. eigenvalues --    3.04922   3.05037   3.05185   3.05507   3.05750
 Alpha virt. eigenvalues --    3.06117   3.06261   3.06475   3.07081   3.07273
 Alpha virt. eigenvalues --    3.07994   3.08141   3.08189   3.08716   3.08817
 Alpha virt. eigenvalues --    3.09281   3.09430   3.09679   3.10179   3.10211
 Alpha virt. eigenvalues --    3.10762   3.10926   3.11087   3.11344   3.11546
 Alpha virt. eigenvalues --    3.11962   3.12140   3.12521   3.12740   3.12980
 Alpha virt. eigenvalues --    3.13127   3.13259   3.13658   3.14156   3.14398
 Alpha virt. eigenvalues --    3.14432   3.14643   3.14823   3.15002   3.15435
 Alpha virt. eigenvalues --    3.15649   3.15869   3.16021   3.16466   3.16655
 Alpha virt. eigenvalues --    3.16857   3.17241   3.17450   3.17544   3.18036
 Alpha virt. eigenvalues --    3.18509   3.18653   3.18847   3.19149   3.19344
 Alpha virt. eigenvalues --    3.19512   3.19846   3.20156   3.20548   3.20878
 Alpha virt. eigenvalues --    3.20983   3.21242   3.21630   3.22140   3.22515
 Alpha virt. eigenvalues --    3.22858   3.23170   3.23371   3.23514   3.23800
 Alpha virt. eigenvalues --    3.23999   3.24213   3.24710   3.25043   3.25405
 Alpha virt. eigenvalues --    3.25816   3.26079   3.26529   3.26671   3.26841
 Alpha virt. eigenvalues --    3.27020   3.27395   3.27663   3.27870   3.28045
 Alpha virt. eigenvalues --    3.28717   3.28899   3.29008   3.29445   3.29886
 Alpha virt. eigenvalues --    3.30077   3.30112   3.30279   3.30548   3.30682
 Alpha virt. eigenvalues --    3.31206   3.31701   3.31862   3.32045   3.32586
 Alpha virt. eigenvalues --    3.32963   3.33141   3.33630   3.33806   3.34052
 Alpha virt. eigenvalues --    3.34497   3.34801   3.34952   3.35250   3.35647
 Alpha virt. eigenvalues --    3.35763   3.36254   3.36593   3.37113   3.37180
 Alpha virt. eigenvalues --    3.37345   3.38134   3.38562   3.38722   3.38921
 Alpha virt. eigenvalues --    3.39309   3.39374   3.39738   3.40146   3.40776
 Alpha virt. eigenvalues --    3.40877   3.41348   3.41930   3.42079   3.42147
 Alpha virt. eigenvalues --    3.42621   3.42730   3.42878   3.43465   3.43625
 Alpha virt. eigenvalues --    3.44047   3.44495   3.44709   3.45143   3.45364
 Alpha virt. eigenvalues --    3.45830   3.46374   3.46635   3.46860   3.47186
 Alpha virt. eigenvalues --    3.47493   3.48035   3.48084   3.48459   3.49244
 Alpha virt. eigenvalues --    3.49540   3.50213   3.50631   3.50866   3.51255
 Alpha virt. eigenvalues --    3.51520   3.51760   3.51857   3.52230   3.52454
 Alpha virt. eigenvalues --    3.53084   3.53735   3.53986   3.54048   3.54343
 Alpha virt. eigenvalues --    3.54724   3.55005   3.55455   3.55879   3.56270
 Alpha virt. eigenvalues --    3.56642   3.57133   3.57546   3.57745   3.58160
 Alpha virt. eigenvalues --    3.58382   3.58853   3.59310   3.59360   3.59893
 Alpha virt. eigenvalues --    3.60567   3.60645   3.61214   3.61997   3.62615
 Alpha virt. eigenvalues --    3.62882   3.63496   3.63893   3.64046   3.64558
 Alpha virt. eigenvalues --    3.64721   3.65063   3.65335   3.65756   3.66010
 Alpha virt. eigenvalues --    3.66123   3.66401   3.66807   3.67676   3.67815
 Alpha virt. eigenvalues --    3.68166   3.68644   3.69172   3.69750   3.69936
 Alpha virt. eigenvalues --    3.70714   3.71351   3.71390   3.71937   3.72598
 Alpha virt. eigenvalues --    3.73243   3.73902   3.74268   3.74784   3.74988
 Alpha virt. eigenvalues --    3.75607   3.76398   3.76798   3.77000   3.77374
 Alpha virt. eigenvalues --    3.77418   3.78314   3.78951   3.79292   3.79545
 Alpha virt. eigenvalues --    3.80046   3.80648   3.81095   3.81289   3.82064
 Alpha virt. eigenvalues --    3.82967   3.83885   3.84528   3.84844   3.85477
 Alpha virt. eigenvalues --    3.85995   3.86284   3.86843   3.87235   3.87920
 Alpha virt. eigenvalues --    3.88595   3.88886   3.89208   3.90329   3.90792
 Alpha virt. eigenvalues --    3.91250   3.91319   3.91978   3.92403   3.92932
 Alpha virt. eigenvalues --    3.93373   3.94055   3.94285   3.94883   3.95422
 Alpha virt. eigenvalues --    3.96061   3.96108   3.96528   3.97137   3.98145
 Alpha virt. eigenvalues --    3.98340   3.99384   3.99520   4.00130   4.00596
 Alpha virt. eigenvalues --    4.00742   4.01580   4.01904   4.02654   4.03152
 Alpha virt. eigenvalues --    4.03665   4.04224   4.04924   4.05340   4.06056
 Alpha virt. eigenvalues --    4.06492   4.06824   4.07505   4.08374   4.08393
 Alpha virt. eigenvalues --    4.09104   4.09302   4.10037   4.11119   4.11437
 Alpha virt. eigenvalues --    4.12003   4.12051   4.12543   4.12846   4.13599
 Alpha virt. eigenvalues --    4.13847   4.14690   4.15799   4.16053   4.16594
 Alpha virt. eigenvalues --    4.17017   4.17669   4.18551   4.18901   4.19948
 Alpha virt. eigenvalues --    4.20285   4.20667   4.21599   4.21718   4.22213
 Alpha virt. eigenvalues --    4.22364   4.23146   4.23174   4.24422   4.24674
 Alpha virt. eigenvalues --    4.26303   4.26638   4.27194   4.27320   4.27427
 Alpha virt. eigenvalues --    4.28469   4.28639   4.29139   4.29449   4.30107
 Alpha virt. eigenvalues --    4.30714   4.30993   4.31934   4.32080   4.33141
 Alpha virt. eigenvalues --    4.33609   4.34089   4.34466   4.35200   4.35523
 Alpha virt. eigenvalues --    4.36117   4.36778   4.36945   4.37411   4.38100
 Alpha virt. eigenvalues --    4.38727   4.39421   4.39834   4.41255   4.41646
 Alpha virt. eigenvalues --    4.42059   4.42906   4.43242   4.44336   4.44518
 Alpha virt. eigenvalues --    4.45422   4.46466   4.46908   4.47289   4.47682
 Alpha virt. eigenvalues --    4.48504   4.49312   4.50148   4.50443   4.51533
 Alpha virt. eigenvalues --    4.52705   4.53028   4.53726   4.54628   4.55042
 Alpha virt. eigenvalues --    4.55928   4.56064   4.56707   4.57184   4.57775
 Alpha virt. eigenvalues --    4.58313   4.58944   4.59910   4.60368   4.60947
 Alpha virt. eigenvalues --    4.61307   4.61907   4.62340   4.63686   4.64335
 Alpha virt. eigenvalues --    4.64853   4.65346   4.65802   4.66719   4.66786
 Alpha virt. eigenvalues --    4.67679   4.68255   4.68780   4.69979   4.70149
 Alpha virt. eigenvalues --    4.70976   4.72074   4.72589   4.72755   4.73331
 Alpha virt. eigenvalues --    4.73777   4.74633   4.75643   4.76442   4.76790
 Alpha virt. eigenvalues --    4.78345   4.78679   4.80280   4.80709   4.81723
 Alpha virt. eigenvalues --    4.82113   4.82310   4.83459   4.84342   4.85597
 Alpha virt. eigenvalues --    4.86253   4.86804   4.87209   4.88012   4.89288
 Alpha virt. eigenvalues --    4.89765   4.90067   4.90953   4.92845   4.93243
 Alpha virt. eigenvalues --    4.93894   4.95097   4.95586   4.95983   4.96729
 Alpha virt. eigenvalues --    4.97432   4.98083   4.99332   5.00123   5.01460
 Alpha virt. eigenvalues --    5.02063   5.02792   5.03465   5.04285   5.04795
 Alpha virt. eigenvalues --    5.07107   5.08218   5.09171   5.09237   5.10500
 Alpha virt. eigenvalues --    5.11313   5.12277   5.12809   5.13802   5.14188
 Alpha virt. eigenvalues --    5.14559   5.14820   5.15588   5.15662   5.16325
 Alpha virt. eigenvalues --    5.16587   5.17754   5.19231   5.20381   5.20921
 Alpha virt. eigenvalues --    5.22129   5.22925   5.23498   5.23565   5.25221
 Alpha virt. eigenvalues --    5.25737   5.26131   5.28271   5.28622   5.29627
 Alpha virt. eigenvalues --    5.30255   5.32110   5.32904   5.34137   5.34427
 Alpha virt. eigenvalues --    5.35730   5.36895   5.39181   5.39286   5.41078
 Alpha virt. eigenvalues --    5.41839   5.42555   5.44887   5.46045   5.46970
 Alpha virt. eigenvalues --    5.47148   5.48184   5.49045   5.49491   5.49972
 Alpha virt. eigenvalues --    5.51610   5.53537   5.54487   5.55208   5.56354
 Alpha virt. eigenvalues --    5.57785   5.58214   5.60373   5.61319   5.62792
 Alpha virt. eigenvalues --    5.65092   5.65589   5.67286   5.69225   5.70098
 Alpha virt. eigenvalues --    5.71493   5.76564   5.77796   5.83325   5.84410
 Alpha virt. eigenvalues --    5.85400   5.88803   5.89370   5.90281   5.91062
 Alpha virt. eigenvalues --    5.91651   5.93321   5.94531   5.94994   5.96971
 Alpha virt. eigenvalues --    5.97913   5.99087   6.00809   6.04730   6.05420
 Alpha virt. eigenvalues --    6.06445   6.07720   6.10251   6.12522   6.13605
 Alpha virt. eigenvalues --    6.14779   6.18859   6.20345   6.21321   6.23830
 Alpha virt. eigenvalues --    6.26674   6.32806   6.33949   6.39748   6.40608
 Alpha virt. eigenvalues --    6.45004   6.46015   6.48016   6.58165   6.60481
 Alpha virt. eigenvalues --    6.67683   6.69074   6.76797   6.80537   6.82401
 Alpha virt. eigenvalues --    6.84398   6.91995   6.94349   7.03980   7.06814
 Alpha virt. eigenvalues --    7.07037   7.08739   7.19838   7.25386   8.96324
 Alpha virt. eigenvalues --    9.08163   9.35638  19.61169  22.18829  22.29900
 Alpha virt. eigenvalues --   22.43986  22.45640  22.46172  22.46685  22.52349
 Alpha virt. eigenvalues --   22.53343  22.54632  22.57605  22.58637  22.63596
 Alpha virt. eigenvalues --   22.68732  22.71876  22.72436  22.75833  22.83577
 Alpha virt. eigenvalues --   22.87412  22.90237  22.94958  22.98086  23.01134
 Alpha virt. eigenvalues --   23.02094  23.05948  23.08025  23.17852  23.19995
 Alpha virt. eigenvalues --   23.22941  23.32645  23.40716  23.43797  23.45781
 Alpha virt. eigenvalues --   23.51545  23.51679  23.54583  23.60323  23.67289
 Alpha virt. eigenvalues --   23.68309  32.39701  32.69764  32.84930  32.93186
 Alpha virt. eigenvalues --   33.03457  33.22824  43.85294  43.86521  43.90859
 Alpha virt. eigenvalues --   44.05470
  Beta  occ. eigenvalues -- -256.49386 -89.13218 -30.24657 -26.08470 -26.07172
  Beta  occ. eigenvalues --  -26.06966 -19.33848 -19.33453 -19.25761 -19.24327
  Beta  occ. eigenvalues --  -14.53367 -14.50821 -14.49828 -14.47988 -14.47644
  Beta  occ. eigenvalues --  -14.47543 -10.43159 -10.42178 -10.37052 -10.36199
  Beta  occ. eigenvalues --  -10.35838 -10.35773 -10.35750 -10.34898 -10.34743
  Beta  occ. eigenvalues --  -10.34489 -10.34468 -10.34453 -10.33764 -10.33058
  Beta  occ. eigenvalues --  -10.32993 -10.32976 -10.32826 -10.32762 -10.32710
  Beta  occ. eigenvalues --  -10.32452 -10.32359 -10.32302 -10.32097 -10.32091
  Beta  occ. eigenvalues --  -10.31885 -10.31696 -10.31609 -10.31597 -10.31171
  Beta  occ. eigenvalues --  -10.30996 -10.30967 -10.30861 -10.30631 -10.30458
  Beta  occ. eigenvalues --  -10.30238 -10.29982 -10.29365 -10.28588  -8.11729
  Beta  occ. eigenvalues --   -6.05371  -6.05030  -6.04510  -3.56032  -2.34186
  Beta  occ. eigenvalues --   -2.30319  -2.28444  -1.24610  -1.23238  -1.14832
  Beta  occ. eigenvalues --   -1.11045  -1.10004  -1.08653  -1.08633  -1.07885
  Beta  occ. eigenvalues --   -1.06608  -0.99609  -0.94937  -0.93977  -0.93563
  Beta  occ. eigenvalues --   -0.92335  -0.91714  -0.91308  -0.90846  -0.89530
  Beta  occ. eigenvalues --   -0.89127  -0.88351  -0.87675  -0.86761  -0.85844
  Beta  occ. eigenvalues --   -0.85499  -0.83631  -0.82074  -0.81627  -0.81332
  Beta  occ. eigenvalues --   -0.80813  -0.78600  -0.78171  -0.77884  -0.75748
  Beta  occ. eigenvalues --   -0.75198  -0.74669  -0.73330  -0.72587  -0.70918
  Beta  occ. eigenvalues --   -0.70790  -0.69266  -0.68793  -0.68142  -0.65734
  Beta  occ. eigenvalues --   -0.65639  -0.65245  -0.64663  -0.63836  -0.62969
  Beta  occ. eigenvalues --   -0.62132  -0.61656  -0.61484  -0.61037  -0.60532
  Beta  occ. eigenvalues --   -0.59319  -0.58708  -0.58225  -0.57968  -0.57347
  Beta  occ. eigenvalues --   -0.57266  -0.56639  -0.56398  -0.56117  -0.55827
  Beta  occ. eigenvalues --   -0.55643  -0.55045  -0.54752  -0.54490  -0.54209
  Beta  occ. eigenvalues --   -0.53916  -0.53605  -0.53461  -0.53384  -0.53163
  Beta  occ. eigenvalues --   -0.52802  -0.52504  -0.52317  -0.52138  -0.51922
  Beta  occ. eigenvalues --   -0.51544  -0.51272  -0.51147  -0.50854  -0.50728
  Beta  occ. eigenvalues --   -0.50668  -0.50368  -0.50291  -0.50264  -0.50078
  Beta  occ. eigenvalues --   -0.49400  -0.49026  -0.48977  -0.48591  -0.48425
  Beta  occ. eigenvalues --   -0.48028  -0.47905  -0.47664  -0.47046  -0.46867
  Beta  occ. eigenvalues --   -0.46359  -0.46029  -0.45359  -0.45324  -0.44475
  Beta  occ. eigenvalues --   -0.44229  -0.43470  -0.43214  -0.43007  -0.42471
  Beta  occ. eigenvalues --   -0.42255  -0.41457  -0.41121  -0.40417  -0.39342
  Beta  occ. eigenvalues --   -0.39158  -0.38557  -0.38294  -0.37922  -0.36166
  Beta  occ. eigenvalues --   -0.35472  -0.35235  -0.34951  -0.34703  -0.33459
  Beta  occ. eigenvalues --   -0.32918  -0.32235  -0.29467  -0.28179
  Beta virt. eigenvalues --   -0.20313  -0.19243  -0.17740  -0.14716  -0.13745
  Beta virt. eigenvalues --   -0.12316  -0.11832  -0.10056  -0.08748  -0.08506
  Beta virt. eigenvalues --   -0.08410  -0.06691  -0.06442  -0.06092  -0.05783
  Beta virt. eigenvalues --   -0.05453  -0.04695  -0.04029  -0.03774  -0.03671
  Beta virt. eigenvalues --   -0.03194  -0.03012  -0.02496  -0.02206  -0.01914
  Beta virt. eigenvalues --   -0.01574  -0.01317  -0.01050  -0.00830  -0.00638
  Beta virt. eigenvalues --   -0.00299   0.00335   0.00561   0.00942   0.01105
  Beta virt. eigenvalues --    0.01315   0.01573   0.01938   0.01979   0.02467
  Beta virt. eigenvalues --    0.02773   0.03103   0.03270   0.03442   0.03588
  Beta virt. eigenvalues --    0.03718   0.03982   0.04316   0.04767   0.04945
  Beta virt. eigenvalues --    0.05156   0.05293   0.05404   0.05735   0.05899
  Beta virt. eigenvalues --    0.06151   0.06395   0.06533   0.06705   0.06919
  Beta virt. eigenvalues --    0.07006   0.07301   0.07577   0.07722   0.07766
  Beta virt. eigenvalues --    0.08136   0.08305   0.08558   0.08648   0.08970
  Beta virt. eigenvalues --    0.09147   0.09374   0.09605   0.09784   0.10334
  Beta virt. eigenvalues --    0.10399   0.10491   0.10815   0.10954   0.11139
  Beta virt. eigenvalues --    0.11678   0.11782   0.12010   0.12114   0.12279
  Beta virt. eigenvalues --    0.12556   0.12842   0.13143   0.13469   0.13652
  Beta virt. eigenvalues --    0.13863   0.14025   0.14331   0.14351   0.14560
  Beta virt. eigenvalues --    0.14642   0.15011   0.15060   0.15336   0.15739
  Beta virt. eigenvalues --    0.16127   0.16252   0.16434   0.16691   0.17127
  Beta virt. eigenvalues --    0.17190   0.17333   0.17561   0.17858   0.18112
  Beta virt. eigenvalues --    0.18335   0.18441   0.18642   0.18861   0.19390
  Beta virt. eigenvalues --    0.19485   0.19782   0.20135   0.20249   0.20433
  Beta virt. eigenvalues --    0.20662   0.20701   0.21374   0.21586   0.21828
  Beta virt. eigenvalues --    0.22089   0.22378   0.22589   0.22630   0.22864
  Beta virt. eigenvalues --    0.23056   0.23204   0.23446   0.23723   0.23966
  Beta virt. eigenvalues --    0.24022   0.24230   0.24590   0.24833   0.24909
  Beta virt. eigenvalues --    0.25524   0.25625   0.25951   0.26353   0.26708
  Beta virt. eigenvalues --    0.26997   0.27055   0.27158   0.27490   0.27641
  Beta virt. eigenvalues --    0.27845   0.28260   0.28427   0.28797   0.28881
  Beta virt. eigenvalues --    0.28981   0.29300   0.29434   0.29729   0.29871
  Beta virt. eigenvalues --    0.30121   0.30292   0.30528   0.30794   0.31090
  Beta virt. eigenvalues --    0.31218   0.31399   0.31784   0.31817   0.31858
  Beta virt. eigenvalues --    0.32280   0.32489   0.32808   0.32874   0.32894
  Beta virt. eigenvalues --    0.33176   0.33365   0.33416   0.33569   0.33758
  Beta virt. eigenvalues --    0.34041   0.34229   0.34389   0.34616   0.34786
  Beta virt. eigenvalues --    0.35033   0.35099   0.35250   0.35673   0.35756
  Beta virt. eigenvalues --    0.36104   0.36307   0.36592   0.36639   0.36949
  Beta virt. eigenvalues --    0.37058   0.37151   0.37359   0.37534   0.37645
  Beta virt. eigenvalues --    0.37987   0.38146   0.38314   0.38413   0.38568
  Beta virt. eigenvalues --    0.38744   0.38951   0.39266   0.39511   0.39753
  Beta virt. eigenvalues --    0.39801   0.39992   0.40202   0.40233   0.40555
  Beta virt. eigenvalues --    0.40672   0.40917   0.41053   0.41275   0.41413
  Beta virt. eigenvalues --    0.41540   0.41952   0.42064   0.42328   0.42465
  Beta virt. eigenvalues --    0.42652   0.42719   0.43040   0.43151   0.43344
  Beta virt. eigenvalues --    0.43513   0.43730   0.43964   0.44074   0.44249
  Beta virt. eigenvalues --    0.44472   0.44673   0.44830   0.45102   0.45186
  Beta virt. eigenvalues --    0.45460   0.45715   0.45958   0.46112   0.46282
  Beta virt. eigenvalues --    0.46581   0.46789   0.46889   0.47394   0.47556
  Beta virt. eigenvalues --    0.47769   0.47958   0.48020   0.48353   0.48527
  Beta virt. eigenvalues --    0.48586   0.48921   0.49219   0.49578   0.49751
  Beta virt. eigenvalues --    0.49832   0.50336   0.50689   0.50809   0.51056
  Beta virt. eigenvalues --    0.51105   0.51434   0.51919   0.52006   0.52263
  Beta virt. eigenvalues --    0.52483   0.52762   0.53010   0.53238   0.53362
  Beta virt. eigenvalues --    0.53683   0.53804   0.53959   0.54401   0.54572
  Beta virt. eigenvalues --    0.55120   0.55332   0.55414   0.55967   0.56568
  Beta virt. eigenvalues --    0.56697   0.56862   0.57112   0.57369   0.57517
  Beta virt. eigenvalues --    0.57792   0.58162   0.58233   0.58643   0.58817
  Beta virt. eigenvalues --    0.59187   0.59412   0.59718   0.59867   0.60203
  Beta virt. eigenvalues --    0.60382   0.60493   0.61000   0.61340   0.61602
  Beta virt. eigenvalues --    0.62012   0.62165   0.62529   0.62886   0.62970
  Beta virt. eigenvalues --    0.63330   0.63508   0.63692   0.64112   0.64566
  Beta virt. eigenvalues --    0.64734   0.65078   0.65234   0.65307   0.65990
  Beta virt. eigenvalues --    0.66032   0.66255   0.66545   0.67087   0.67289
  Beta virt. eigenvalues --    0.67462   0.68023   0.68565   0.68869   0.69310
  Beta virt. eigenvalues --    0.69403   0.69672   0.70096   0.70240   0.70457
  Beta virt. eigenvalues --    0.70877   0.71116   0.71574   0.71834   0.72379
  Beta virt. eigenvalues --    0.72614   0.72970   0.73427   0.73695   0.73765
  Beta virt. eigenvalues --    0.74008   0.74335   0.74698   0.74923   0.75245
  Beta virt. eigenvalues --    0.75873   0.76191   0.76309   0.76554   0.76878
  Beta virt. eigenvalues --    0.77270   0.77802   0.78023   0.78382   0.78580
  Beta virt. eigenvalues --    0.78641   0.78739   0.79354   0.79685   0.79741
  Beta virt. eigenvalues --    0.80147   0.80459   0.80668   0.81062   0.81434
  Beta virt. eigenvalues --    0.81935   0.82122   0.82591   0.82904   0.83458
  Beta virt. eigenvalues --    0.83654   0.83938   0.83979   0.84213   0.84709
  Beta virt. eigenvalues --    0.84881   0.85126   0.85257   0.85626   0.85890
  Beta virt. eigenvalues --    0.86526   0.86554   0.86915   0.87024   0.87086
  Beta virt. eigenvalues --    0.87752   0.87888   0.88276   0.88684   0.88920
  Beta virt. eigenvalues --    0.89070   0.89451   0.89688   0.89926   0.90138
  Beta virt. eigenvalues --    0.90242   0.90678   0.90862   0.91119   0.91310
  Beta virt. eigenvalues --    0.91630   0.91796   0.92154   0.92444   0.92872
  Beta virt. eigenvalues --    0.93494   0.93555   0.94151   0.94311   0.94680
  Beta virt. eigenvalues --    0.94718   0.95116   0.95174   0.95595   0.95672
  Beta virt. eigenvalues --    0.96007   0.96360   0.96721   0.96868   0.97264
  Beta virt. eigenvalues --    0.97642   0.98005   0.98042   0.98846   0.99205
  Beta virt. eigenvalues --    0.99252   0.99542   1.00334   1.00670   1.00804
  Beta virt. eigenvalues --    1.01428   1.01597   1.01766   1.02029   1.02277
  Beta virt. eigenvalues --    1.02875   1.03016   1.03228   1.03417   1.04083
  Beta virt. eigenvalues --    1.04589   1.05005   1.05075   1.05441   1.05655
  Beta virt. eigenvalues --    1.06094   1.06515   1.06828   1.07396   1.07871
  Beta virt. eigenvalues --    1.08159   1.08338   1.08745   1.09182   1.09820
  Beta virt. eigenvalues --    1.10227   1.10299   1.10775   1.10993   1.11141
  Beta virt. eigenvalues --    1.11676   1.12290   1.12536   1.13050   1.13438
  Beta virt. eigenvalues --    1.13570   1.13981   1.14204   1.14287   1.14877
  Beta virt. eigenvalues --    1.15203   1.15510   1.16100   1.16461   1.16544
  Beta virt. eigenvalues --    1.16961   1.17195   1.17280   1.17573   1.18032
  Beta virt. eigenvalues --    1.18717   1.19320   1.19670   1.20230   1.20369
  Beta virt. eigenvalues --    1.20600   1.21223   1.21246   1.21556   1.22091
  Beta virt. eigenvalues --    1.22733   1.23075   1.23187   1.23589   1.23879
  Beta virt. eigenvalues --    1.24284   1.25015   1.25110   1.25575   1.25790
  Beta virt. eigenvalues --    1.25942   1.26805   1.27217   1.27415   1.27575
  Beta virt. eigenvalues --    1.27858   1.28248   1.28488   1.29046   1.29083
  Beta virt. eigenvalues --    1.29746   1.30237   1.30759   1.31191   1.31426
  Beta virt. eigenvalues --    1.31787   1.32307   1.32600   1.32884   1.33304
  Beta virt. eigenvalues --    1.33520   1.33912   1.34442   1.34826   1.35180
  Beta virt. eigenvalues --    1.35481   1.36042   1.36199   1.36653   1.37146
  Beta virt. eigenvalues --    1.37557   1.37680   1.38035   1.38494   1.38959
  Beta virt. eigenvalues --    1.39080   1.39584   1.39773   1.39887   1.40337
  Beta virt. eigenvalues --    1.40885   1.40957   1.41674   1.41890   1.42243
  Beta virt. eigenvalues --    1.42648   1.43167   1.43468   1.43733   1.43930
  Beta virt. eigenvalues --    1.44041   1.44690   1.44915   1.45156   1.45489
  Beta virt. eigenvalues --    1.45628   1.45834   1.45961   1.46189   1.46465
  Beta virt. eigenvalues --    1.46515   1.46898   1.47162   1.47414   1.48090
  Beta virt. eigenvalues --    1.48270   1.48533   1.48785   1.49143   1.49233
  Beta virt. eigenvalues --    1.49487   1.49791   1.50236   1.50530   1.50980
  Beta virt. eigenvalues --    1.51307   1.51710   1.51730   1.52049   1.52554
  Beta virt. eigenvalues --    1.52706   1.52975   1.53487   1.53535   1.54066
  Beta virt. eigenvalues --    1.54149   1.54423   1.54637   1.54854   1.55072
  Beta virt. eigenvalues --    1.55425   1.55855   1.56000   1.56242   1.56473
  Beta virt. eigenvalues --    1.56697   1.56924   1.57203   1.57360   1.57593
  Beta virt. eigenvalues --    1.57825   1.58155   1.58308   1.58673   1.59014
  Beta virt. eigenvalues --    1.59122   1.59423   1.59652   1.60234   1.60540
  Beta virt. eigenvalues --    1.60812   1.61397   1.61683   1.61944   1.62393
  Beta virt. eigenvalues --    1.62526   1.62771   1.63117   1.63359   1.63725
  Beta virt. eigenvalues --    1.64030   1.64357   1.64590   1.64844   1.65451
  Beta virt. eigenvalues --    1.65718   1.65850   1.66058   1.66422   1.66703
  Beta virt. eigenvalues --    1.67122   1.67341   1.67696   1.67858   1.68579
  Beta virt. eigenvalues --    1.68909   1.69188   1.69640   1.69786   1.70310
  Beta virt. eigenvalues --    1.71111   1.71651   1.71793   1.72276   1.72431
  Beta virt. eigenvalues --    1.72817   1.72998   1.73367   1.73502   1.74211
  Beta virt. eigenvalues --    1.74619   1.74815   1.75118   1.75372   1.75573
  Beta virt. eigenvalues --    1.75804   1.76314   1.76466   1.76847   1.77541
  Beta virt. eigenvalues --    1.77948   1.78475   1.78738   1.79518   1.79777
  Beta virt. eigenvalues --    1.79919   1.80594   1.81009   1.81059   1.81665
  Beta virt. eigenvalues --    1.81960   1.82535   1.82883   1.83572   1.83632
  Beta virt. eigenvalues --    1.83999   1.84595   1.85086   1.85352   1.85646
  Beta virt. eigenvalues --    1.85762   1.86727   1.87101   1.87165   1.87446
  Beta virt. eigenvalues --    1.87896   1.88137   1.88615   1.88889   1.89094
  Beta virt. eigenvalues --    1.89457   1.89687   1.90226   1.90742   1.91253
  Beta virt. eigenvalues --    1.91363   1.91768   1.92107   1.92530   1.92773
  Beta virt. eigenvalues --    1.93089   1.93598   1.93942   1.94352   1.94634
  Beta virt. eigenvalues --    1.95153   1.95454   1.96176   1.96280   1.96410
  Beta virt. eigenvalues --    1.96958   1.97161   1.97586   1.98015   1.98270
  Beta virt. eigenvalues --    1.98725   1.99010   1.99407   1.99671   2.00425
  Beta virt. eigenvalues --    2.00682   2.00870   2.01170   2.01381   2.02395
  Beta virt. eigenvalues --    2.02482   2.02754   2.03309   2.03652   2.03831
  Beta virt. eigenvalues --    2.04206   2.04926   2.05243   2.05551   2.05917
[...]
  1594. RY*(   2) H  70                  0.00030     2.05114   
  1595. RY*(   3) H  70                  0.00023     1.76366   
  1596. RY*(   4) H  70                  0.00011     2.08975   
  1597. RY*(   5) H  70                  0.00000     3.18501   
  1598. RY*(   1) H  71                  0.00093     0.70968   
  1599. RY*(   2) H  71                  0.00016     2.09641   
  1600. RY*(   3) H  71                  0.00012     2.15090   
  1601. RY*(   4) H  71                  0.00006     2.92553   
  1602. RY*(   5) H  71                  0.00001     3.21471   
  1603. RY*(   1) H  72                  0.00044     1.17680   
  1604. RY*(   2) H  72                  0.00034     1.65647   
  1605. RY*(   3) H  72                  0.00019     2.04913   
  1606. RY*(   4) H  72                  0.00012     1.94682   
  1607. RY*(   5) H  72                  0.00000     3.16548   
  1608. RY*(   1) H  73                  0.00040     0.88036   
  1609. RY*(   2) H  73                  0.00007     1.71116   
  1610. RY*(   3) H  73                  0.00006     2.33464   
  1611. RY*(   4) H  73                  0.00003     2.39806   
  1612. RY*(   5) H  73                  0.00001     2.74121   
  1613. RY*(   1) H  74                  0.00038     1.11074   
  1614. RY*(   2) H  74                  0.00005     1.58870   
  1615. RY*(   3) H  74                  0.00006     2.38025   
  1616. RY*(   4) H  74                  0.00005     2.47205   
  1617. RY*(   5) H  74                  0.00001     2.92425   
  1618. RY*(   1) H  75                  0.00035     1.50935   
  1619. RY*(   2) H  75                  0.00009     2.53831   
  1620. RY*(   3) H  75                  0.00006     1.55713   
  1621. RY*(   4) H  75                  0.00005     2.17543   
  1622. RY*(   5) H  75                  0.00000     2.82402   
  1623. RY*(   1) H  76                  0.00032     1.65508   
  1624. RY*(   2) H  76                  0.00011     2.48284   
  1625. RY*(   3) H  76                  0.00006     2.26196   
  1626. RY*(   4) H  76                  0.00003     1.34206   
  1627. RY*(   5) H  76                  0.00001     3.04804   
  1628. RY*(   1) H  77                  0.00038     0.86851   
  1629. RY*(   2) H  77                  0.00007     1.63180   
  1630. RY*(   3) H  77                  0.00007     2.11341   
  1631. RY*(   4) H  77                  0.00003     2.10358   
  1632. RY*(   5) H  77                  0.00000     2.93095   
  1633. RY*(   1) H  78                  0.00022     1.17897   
  1634. RY*(   2) H  78                  0.00008     1.80542   
  1635. RY*(   3) H  78                  0.00003     2.07433   
  1636. RY*(   4) H  78                  0.00001     1.94961   
  1637. RY*(   5) H  78                  0.00000     2.62535   
  1638. RY*(   1) H  79                  0.00039     1.01726   
  1639. RY*(   2) H  79                  0.00007     1.56352   
  1640. RY*(   3) H  79                  0.00003     2.05955   
  1641. RY*(   4) H  79                  0.00003     1.96264   
  1642. RY*(   5) H  79                  0.00000     2.88538   
  1643. RY*(   1) H  80                  0.00079     0.53013   
  1644. RY*(   2) H  80                  0.00017     2.02288   
  1645. RY*(   3) H  80                  0.00012     2.16380   
  1646. RY*(   4) H  80                  0.00006     2.87442   
  1647. RY*(   5) H  80                  0.00001     3.10397   
  1648. RY*(   1) H  81                  0.00105     0.62081   
  1649. RY*(   2) H  81                  0.00015     2.07366   
  1650. RY*(   3) H  81                  0.00011     2.22220   
  1651. RY*(   4) H  81                  0.00006     2.91970   
  1652. RY*(   5) H  81                  0.00001     3.15065   
  1653. RY*(   1) H  82                  0.00019     1.46110   
  1654. RY*(   2) H  82                  0.00007     1.71275   
  1655. RY*(   3) H  82                  0.00004     2.01299   
  1656. RY*(   4) H  82                  0.00003     2.09386   
  1657. RY*(   5) H  82                  0.00001     2.95306   
  1658. RY*(   1) H  83                  0.00032     1.34266   
  1659. RY*(   2) H  83                  0.00006     1.25842   
  1660. RY*(   3) H  83                  0.00004     2.37869   
  1661. RY*(   4) H  83                  0.00004     2.19082   
  1662. RY*(   5) H  83                  0.00000     3.01827   
  1663. RY*(   1) H  84                  0.00032     1.03949   
  1664. RY*(   2) H  84                  0.00009     1.45449   
  1665. RY*(   3) H  84                  0.00005     2.18688   
  1666. RY*(   4) H  84                  0.00004     2.28650   
  1667. RY*(   5) H  84                  0.00001     2.97109   
  1668. RY*(   1) H  85                  0.00029     1.05438   
  1669. RY*(   2) H  85                  0.00010     1.65700   
  1670. RY*(   3) H  85                  0.00003     2.05596   
  1671. RY*(   4) H  85                  0.00002     1.96509   
  1672. RY*(   5) H  85                  0.00001     2.89923   
  1673. RY*(   1) H  86                  0.00028     1.04754   
  1674. RY*(   2) H  86                  0.00007     1.81462   
  1675. RY*(   3) H  86                  0.00003     1.77445   
  1676. RY*(   4) H  86                  0.00003     2.02119   
  1677. RY*(   5) H  86                  0.00000     2.96711   
  1678. RY*(   1) H  87                  0.00021     1.03741   
  1679. RY*(   2) H  87                  0.00012     1.76909   
  1680. RY*(   3) H  87                  0.00003     2.07341   
  1681. RY*(   4) H  87                  0.00001     2.03962   
  1682. RY*(   5) H  87                  0.00001     2.76865   
  1683. RY*(   1) H  88                  0.00023     1.39838   
  1684. RY*(   2) H  88                  0.00012     1.30915   
  1685. RY*(   3) H  88                  0.00003     2.01217   
  1686. RY*(   4) H  88                  0.00002     2.18368   
  1687. RY*(   5) H  88                  0.00001     3.02028   
  1688. RY*(   1) H  89                  0.00017     1.92088   
  1689. RY*(   2) H  89                  0.00008     0.72581   
  1690. RY*(   3) H  89                  0.00002     2.15248   
  1691. RY*(   4) H  89                  0.00000     2.51366   
  1692. RY*(   5) H  89                  0.00000     2.52250   
  1693. RY*(   1) H  90                  0.00025     1.60278   
  1694. RY*(   2) H  90                  0.00008     1.47417   
  1695. RY*(   3) H  90                  0.00005     2.34587   
  1696. RY*(   4) H  90                  0.00001     2.68446   
  1697. RY*(   5) H  90                  0.00001     2.42372   
  1698. BD*(   1) C   1 - C   2          0.00663     0.30045   
  1699. BD*(   1) C   1 - H  51          0.00236     0.31727   
  1700. BD*(   1) C   1 - H  52          0.00239     0.32189   
  1701. BD*(   1) C   1 - H  53          0.00508     0.31876   
  1702. BD*(   1) C   2 - N   3          0.01329     0.33402   
  1703. BD*(   2) C   2 - N   3          0.37174    -0.13080  1708(v),176(v),1701(v)
                                                    222(g),1700(v),1699(v)
                                                    278(v),248(g)
  1704. BD*(   1) C   2 - C   4          0.00997     0.48053   
  1705. BD*(   1) N   3 - C   5          0.00980     0.39350   
  1706. BD*(   1) N   3 - H  56          0.00698     0.31050   
  1707. BD*(   1) C   4 - N   6          0.00736     0.40351   
  1708. BD*(   2) C   4 - N   6          0.32804    -0.10104  1703(v),176(v),179(v),327(g)
                                                    274(g),1788(r),1756(r)
                                                    300(v),273(g)
  1709. BD*(   1) C   4 - H  54          0.00675     0.33762   
  1710. BD*(   1) C   5 - N   6          0.00760     0.44612   
  1711. BD*(   1) C   5 - H  55          0.00827     0.30637   
  1712. BD*(   1) N   6 -Fe   7          0.04802     0.19967   
  1713. BD*(   1)Fe   7 - N  12          0.06564     0.30053   
  1714. BD*(   2)Fe   7 - N  12          0.13738    -0.12690  1723(v),180(v),1712(g)
                                                    978(r),484(g),1717(g),326(v)
  1715. BD*(   1)Fe   7 - N  23          0.04037     0.26418   
  1716. BD*(   1)Fe   7 - N  39          0.03772     0.28431   
  1717. BD*(   1)Fe   7 - S  50          0.03230     0.25956   
  1718. BD*(   1) C   8 - C  13          0.01065     0.46747   
  1719. BD*(   1) C   8 - C  43          0.01077     0.50594   
  1720. BD*(   2) C   8 - C  43          0.17307    -0.04353  1792(v),180(v),1788(v)
                                                    378(g),1738(r),1292(g)
  1721. BD*(   1) C   8 - H  71          0.00839     0.35372   
  1722. BD*(   1) C   9 - C  16          0.01038     0.44870   
  1723. BD*(   2) C   9 - C  16          0.19990    -0.06450  1756(v),1738(v),1714(v)
                                                    404(g),590(g)
  1724. BD*(   1) C   9 - C  24          0.01012     0.45229   
  1725. BD*(   1) C   9 - H  80          0.00631     0.35297   
  1726. BD*(   1) C  10 - C  27          0.01275     0.50041   
  1727. BD*(   1) C  10 - C  32          0.01153     0.47721   
  1728. BD*(   2) C  10 - C  32          0.17293    -0.05565  1775(v),185(v),1731(r)
                                                    430(g),1771(g),1006(g)
  1729. BD*(   1) C  10 - H  81          0.00824     0.35242   
  1730. BD*(   1) C  11 - C  35          0.01240     0.47935   
  1731. BD*(   2) C  11 - C  35          0.18650    -0.06037  1788(v),1775(v),1728(r)
                                                    456(g),1084(g),1783(r)
  1732. BD*(   1) C  11 - C  40          0.01002     0.49536   
  1733. BD*(   1) C  11 - H  62          0.00723     0.35136   
  1734. BD*(   1) N  12 - C  13          0.02182     0.29815   
  1735. BD*(   1) N  12 - C  16          0.01802     0.34544   
  1736. BD*(   1) C  13 - C  14          0.01636     0.38686   
  1737. BD*(   1) C  14 - C  15          0.01020     0.50619   
  1738. BD*(   2) C  14 - C  15          0.13198    -0.03135  1723(v),180(v),1753(r)
                                                    1744(v),1745(v),562(g)
                                                    1742(v),1720(r),1746(v)
  1739. BD*(   1) C  14 - C  18          0.01154     0.22740   
  1740. BD*(   1) C  15 - C  16          0.01647     0.37805   
  1741. BD*(   1) C  15 - C  17          0.00997     0.27192   
  1742. BD*(   1) C  17 - H  77          0.00349     0.32118   
  1743. BD*(   1) C  17 - H  78          0.00224     0.32407   
  1744. BD*(   1) C  17 - H  79          0.00401     0.31791   
  1745. BD*(   1) C  18 - C  19          0.00546     0.22932   
  1746. BD*(   1) C  18 - H  75          0.00594     0.31960   
  1747. BD*(   1) C  18 - H  76          0.00552     0.32087   
  1748. BD*(   1) C  19 - C  20          0.03720     0.25948   
  1749. BD*(   1) C  19 - H  73          0.00708     0.30389   
  1750. BD*(   1) C  19 - H  74          0.00556     0.31456   
  1751. BD*(   1) C  20 - O  21          0.03582     0.39924   
  1752. BD*(   1) C  20 - O  22          0.02713     0.45203   
  1753. BD*(   2) C  20 - O  22          0.09013    -0.03184   
  1754. BD*(   1) O  21 - H  72          0.00734     0.29858   
  1755. BD*(   1) N  23 - C  24          0.01365     0.43239   
  1756. BD*(   2) N  23 - C  24          0.31197    -0.09103  1723(v),1760(v),185(v)
                                                    179(v),796(g),770(g),1788(r)
                                                    1708(r),1712(v)
  1757. BD*(   1) N  23 - C  27          0.01214     0.41148   
  1758. BD*(   1) C  24 - C  25          0.01804     0.36904   
  1759. BD*(   1) C  25 - C  26          0.00962     0.55721   
  1760. BD*(   2) C  25 - C  26          0.10994    -0.01358  1756(v),186(v),185(v)
                                                    1764(v),1766(v)
  1761. BD*(   1) C  25 - C  28          0.01081     0.28899   
  1762. BD*(   1) C  26 - C  27          0.01587     0.38356   
  1763. BD*(   1) C  26 - C  29          0.01191     0.28845   
  1764. BD*(   1) C  28 - H  85          0.00323     0.32757   
  1765. BD*(   1) C  28 - H  86          0.00289     0.34375   
  1766. BD*(   1) C  28 - H  87          0.00253     0.32789   
  1767. BD*(   1) C  29 - C  30          0.00217     0.59012   
  1768. BD*(   1) C  29 - H  90          0.00464     0.35954   
  1769. BD*(   1) C  30 - H  88          0.00251     0.36375   
  1770. BD*(   1) C  30 - H  89          0.00226     0.36594   
  1771. BD*(   1) N  31 - C  32          0.02902     0.27753   
  1772. BD*(   1) N  31 - C  35          0.02399     0.33133   
  1773. BD*(   1) C  32 - C  33          0.01611     0.38966   
  1774. BD*(   1) C  33 - C  34          0.01081     0.53299   
  1775. BD*(   2) C  33 - C  34          0.13814    -0.03077  1783(v),1728(v),1731(v)
                                                    1781(v),1776(g),1056(g)
  1776. BD*(   1) C  33 - C  36          0.00870     0.26203   
  1777. BD*(   1) C  34 - C  35          0.01676     0.38304   
  1778. BD*(   1) C  34 - C  37          0.01710     0.27059   
  1779. BD*(   1) C  36 - H  82          0.00279     0.32828   
  1780. BD*(   1) C  36 - H  83          0.00310     0.33688   
  1781. BD*(   1) C  36 - H  84          0.00361     0.32673   
  1782. BD*(   1) C  37 - C  38          0.00221     0.49296   
  1783. BD*(   2) C  37 - C  38          0.02430    -0.04338   
  1784. BD*(   1) C  37 - H  61          0.00825     0.35009   
  1785. BD*(   1) C  38 - H  59          0.00465     0.35217   
  1786. BD*(   1) C  38 - H  60          0.00330     0.35522   
  1787. BD*(   1) N  39 - C  40          0.01453     0.39593   
  1788. BD*(   2) N  39 - C  40          0.30092    -0.08933  1731(v),1792(v),1720(v)
                                                    179(v),1212(g),1186(g)
                                                    1756(r),456(v),1708(r)
  1789. BD*(   1) N  39 - C  43          0.01431     0.38364   
  1790. BD*(   1) C  40 - C  41          0.01764     0.36409   
  1791. BD*(   1) C  41 - C  42          0.01018     0.51906   
  1792. BD*(   2) C  41 - C  42          0.10289    -0.02263  1720(v),1788(v),1798(v)
                                                    1799(v)
  1793. BD*(   1) C  41 - C  44          0.00898     0.27979   
  1794. BD*(   1) C  42 - C  43          0.01748     0.37771   
  1795. BD*(   1) C  42 - C  45          0.01082     0.27921   
  1796. BD*(   1) C  44 - H  63          0.00269     0.33377   
  1797. BD*(   1) C  44 - H  64          0.00297     0.32385   
  1798. BD*(   1) C  44 - H  65          0.00418     0.32587   
  1799. BD*(   1) C  45 - C  46          0.00630     0.23645   
  1800. BD*(   1) C  45 - H  66          0.00567     0.33213   
  1801. BD*(   1) C  45 - H  67          0.00572     0.33206   
  1802. BD*(   1) C  46 - C  47          0.03243     0.27403   
  1803. BD*(   1) C  46 - H  68          0.00479     0.32654   
  1804. BD*(   1) C  46 - H  69          0.00645     0.32064   
  1805. BD*(   1) C  47 - O  48          0.01584     0.47098   
  1806. BD*(   2) C  47 - O  48          0.11780    -0.06952  1799(v),1394(g),1403(g)
  1807. BD*(   1) C  47 - O  49          0.03630     0.40295   
  1808. BD*(   1) O  49 - H  70          0.00659     0.32203   
  1809. BD*(   1) S  50 - H  57          0.00688     0.11619   
  1810. BD*(   1) S  50 - H  58          0.00795     0.11657   
       -------------------------------
              Total Lewis  183.61934  ( 97.1531%)
        Valence non-Lewis    5.02523  (  2.6589%)
        Rydberg non-Lewis    0.35543  (  0.1881%)
       -------------------------------
            Total unit  1  189.00000  (100.0000%)
           Charge unit  1    3.00000
 1\1\GINC-NODE413\SP\UPBE1PBE\def2TZVP\C38H40Fe1N6O4S1(1+,6)\ZHARTOVSKA
 \14-Nov-2022\0\\# PBE1PBE/def2TZVP empiricaldispersion=GD3BJ int=(grid
 =ultrafine) geom=check pop=nbo guess=read\\1moh_III_H\\1,6\C,0,11.542,
 -1.461,-4.191\C,0,12.241,-2.153,-3.057\N,0,13.612,-2.335,-2.989\C,0,11
 .717,-2.757,-1.952\C,0,13.898,-3.038,-1.892\N,0,12.765,-3.294,-1.259\F
 e,0,12.592,-4.355,0.602\C,0,14.027,-7.044,-0.7\C,0,15.574,-3.206,1.845
 \C,0,11.15,-1.576,1.763\C,0,9.499,-5.549,-0.294\N,0,14.273,-4.799,0.52
 7\C,0,14.706,-5.95,-0.194\C,0,16.141001,-6.097,-0.291\C,0,16.608999,-5
 .056,0.433\C,0,15.493,-4.283,0.955\C,0,18.101,-4.838,0.734\C,0,16.989,
 -7.312,-0.817\C,0,17.655001,-6.727,-2.085\C,0,16.681999,-6.717,-3.243\
 O,0,16.389,-7.753,-3.898\O,0,16.049999,-5.694,-3.524\N,0,13.184,-2.658
 ,1.6\C,0,14.413,-2.479,2.117\C,0,14.414,-1.233,2.895\C,0,13.248,-0.613
 ,2.75\C,0,12.446,-1.681,2.188\C,0,15.783,-0.909,3.502\C,0,12.715,0.739
 ,3.303\C,0,13.375,1.372,4.261\N,0,10.984,-3.881,0.664\C,0,10.499,-2.66
 7,1.232\C,0,9.085,-2.4,1.174\C,0,8.582,-3.539,0.693\C,0,9.718,-4.397,0
 .428\C,0,8.182,-1.369,1.886\C,0,7.087,-3.88,0.424\C,0,6.02,-3.141,0.00
 9\N,0,11.93,-5.922,-0.359\C,0,10.623,-6.27,-0.59\C,0,10.545,-7.599,-1.
 219\C,0,11.817,-7.983,-1.478\C,0,12.676,-6.973,-0.862\C,0,9.144,-8.084
 ,-1.618\C,0,12.297,-9.241,-2.219\C,0,12.221,-10.359,-1.132\C,0,12.747,
 -11.726,-1.522\O,0,13.962,-11.983,-1.316\O,0,11.958,-12.536,-2.085\S,0
 ,12.452,-5.431,2.618\H,0,12.14907565,-1.51524004,-5.0704414\H,0,10.602
 76344,-1.93905866,-4.37591782\H,0,11.37591954,-0.43544947,-3.93494652\
 H,0,10.6831357,-2.80173201,-1.67992712\H,0,14.87474041,-3.34216595,-1.
 57837402\H,0,14.27811025,-1.99531741,-3.65301271\H,0,13.5443171,-5.771
 50213,3.25596682\H,0,11.27957672,-5.70617115,3.1335623\H,0,6.13295164,
 -2.44183326,-0.79306471\H,0,5.06920775,-3.25988068,0.48519479\H,0,6.84
 773829,-4.90763082,0.6018447\H,0,8.52144228,-5.85740008,-0.60087179\H,
 0,9.17591,-9.13277516,-1.82764833\H,0,8.46116651,-7.90147327,-0.814680
 38\H,0,8.81853825,-7.55575789,-2.48974246\H,0,13.30338268,-9.11571847,
 -2.56017215\H,0,11.64585025,-9.46705238,-3.03741574\H,0,12.77174724,-1
 0.02557965,-0.27736069\H,0,11.1963207,-10.46995844,-0.84456208\H,0,12.
 30743368,-13.27021183,-2.59532254\H,0,14.55695151,-7.93607265,-0.96126
 192\H,0,17.08600336,-8.31097556,-4.25077413\H,0,18.50473531,-7.3235268
 3,-2.34385777\H,0,17.97500071,-5.72575986,-1.88495406\H,0,17.7274261,-
 7.59975934,-0.09809704\H,0,16.35590659,-8.13769242,-1.06664926\H,0,18.
 65826131,-4.87618002,-0.17863471\H,0,18.23592063,-3.8816538,1.19454139
 \H,0,18.44709097,-5.60446152,1.39555708\H,0,16.50369963,-2.94565229,2.
 3062783\H,0,10.63860079,-0.63959713,1.84374975\H,0,8.68223036,-0.42396
 136,1.92564277\H,0,7.26470104,-1.26459176,1.34511042\H,0,7.9734657,-1.
 70416495,2.88052396\H,0,16.49401163,-0.75617672,2.71713854\H,0,15.7093
 4897,-0.02101946,4.09442391\H,0,16.1016803,-1.72353848,4.11833589\H,0,
 14.38297762,1.69064997,4.09564186\H,0,12.90024255,1.56475571,5.2003351
 9\H,0,11.81319339,1.15879465,2.90877\\Version=ES64L-G16RevA.03\State=6
 -A\HF=-3761.1167047\S2=8.807451\S2-1=0.\S2A=8.751016\RMSD=7.919e-10\Di
 pole=0.3023263,0.6811124,-0.425773\Quadrupole=14.7038803,0.6363767,-15
 .340257,-5.7177566,-6.0271879,20.255161\PG=C01 [X(C38H40Fe1N6O4S1)]\\@


 THESE ARE THE TIMES THAT TRY MENS SOULS.
 THE SUMMER SOLDIER AND THE SUNSHINE PATRIOT WILL IN THIS CRISIS,
 SHRINK FROM THE SERVICE OF HIS COUNTRY.  BUT HE THAT STANDS NOW,
 DESERVES THE LOVE AND THANKS OF MAN AND WOMAN.
 TYRANNY, LIKE HELL, IS NOT EASILY CONQUERED,
 YET WE HAVE THIS CONSOLATION WITH US,
 THAT THE HARDER THE CONFLICT, THE MORE GLORIOUS THE TRIUMPH.
 WHAT WE OBTAIN TOO CHEAP, WE ESTEEM TOO LIGHTLY, 
 'TIS DEARNESS ONLY THAT GIVES EVERYTHING ITS VALUE.

                                              -- TOM PAINE
 Job cpu time:       0 days  4 hours 28 minutes 19.0 seconds.
 Elapsed time:       0 days  1 hours  7 minutes 23.7 seconds.
 File lengths (MBytes):  RWF=   2984 Int=      0 D2E=      0 Chk=    252 Scr=      1
 Normal termination of Gaussian 16 at Mon Nov 14 10:36:00 2022.
