 Entering Gaussian System, Link 0=g16
 Input=/net/homes/chemie/zhartovska/work/BioModel/Konrad/1gu2/PDB/1gu212/1gu216/1gu216.com
 Output=/net/homes/chemie/zhartovska/work/BioModel/Konrad/1gu2/PDB/1gu212/1gu216/1gu216.log
 Initial command:
 /afs/math/software/gaussian/g16.A03/g16/l1.exe "/scratch/zhartovska_gaussian.1B4AOzt/Gau-18532.inp" -scrdir="/scratch/zhartovska_gaussian.1B4AOzt/"
 Entering Link 1 = /afs/math/software/gaussian/g16.A03/g16/l1.exe PID=     18533.
  
 Copyright (c) 1988,1990,1992,1993,1995,1998,2003,2009,2016,
            Gaussian, Inc.  All Rights Reserved.
  
 This is part of the Gaussian(R) 16 program.  It is based on
 the Gaussian(R) 09 system (copyright 2009, Gaussian, Inc.),
 the Gaussian(R) 03 system (copyright 2003, Gaussian, Inc.),
 the Gaussian(R) 98 system (copyright 1998, Gaussian, Inc.),
 the Gaussian(R) 94 system (copyright 1995, Gaussian, Inc.),
 the Gaussian 92(TM) system (copyright 1992, Gaussian, Inc.),
 the Gaussian 90(TM) system (copyright 1990, Gaussian, Inc.),
 the Gaussian 88(TM) system (copyright 1988, Gaussian, Inc.),
 the Gaussian 86(TM) system (copyright 1986, Carnegie Mellon
 University), and the Gaussian 82(TM) system (copyright 1983,
 Carnegie Mellon University). Gaussian is a federally registered
 trademark of Gaussian, Inc.
  
 This software contains proprietary and confidential information,
 including trade secrets, belonging to Gaussian, Inc.
  
 This software is provided under written license and may be
 used, copied, transmitted, or stored only in accord with that
 written license.
  
 The following legend is applicable only to US Government
 contracts under FAR:
  
                    RESTRICTED RIGHTS LEGEND
  
 Use, reproduction and disclosure by the US Government is
 subject to restrictions as set forth in subparagraphs (a)
 and (c) of the Commercial Computer Software - Restricted
 Rights clause in FAR 52.227-19.
  
 Gaussian, Inc.
 340 Quinnipiac St., Bldg. 40, Wallingford CT 06492
  
  
 ---------------------------------------------------------------
 Warning -- This program may not be used in any manner that
 competes with the business of Gaussian, Inc. or will provide
 assistance to any competitor of Gaussian, Inc.  The licensee
 of this program is prohibited from giving any competitor of
 Gaussian, Inc. access to this program.  By using this program,
 the user acknowledges that Gaussian, Inc. is engaged in the
 business of creating and licensing software in the field of
 computational chemistry and represents and warrants to the
 licensee that it is not a competitor of Gaussian, Inc. and that
 it will not use this program in any manner prohibited above.
 ---------------------------------------------------------------
  

 Cite this work as:
 Gaussian 16, Revision A.03,
 M. J. Frisch, G. W. Trucks, H. B. Schlegel, G. E. Scuseria, 
 M. A. Robb, J. R. Cheeseman, G. Scalmani, V. Barone, 
 G. A. Petersson, H. Nakatsuji, X. Li, M. Caricato, A. V. Marenich, 
 J. Bloino, B. G. Janesko, R. Gomperts, B. Mennucci, H. P. Hratchian, 
 J. V. Ortiz, A. F. Izmaylov, J. L. Sonnenberg, D. Williams-Young, 
 F. Ding, F. Lipparini, F. Egidi, J. Goings, B. Peng, A. Petrone, 
 T. Henderson, D. Ranasinghe, V. G. Zakrzewski, J. Gao, N. Rega, 
 G. Zheng, W. Liang, M. Hada, M. Ehara, K. Toyota, R. Fukuda, 
 J. Hasegawa, M. Ishida, T. Nakajima, Y. Honda, O. Kitao, H. Nakai, 
 T. Vreven, K. Throssell, J. A. Montgomery, Jr., J. E. Peralta, 
 F. Ogliaro, M. J. Bearpark, J. J. Heyd, E. N. Brothers, K. N. Kudin, 
 V. N. Staroverov, T. A. Keith, R. Kobayashi, J. Normand, 
 K. Raghavachari, A. P. Rendell, J. C. Burant, S. S. Iyengar, 
 J. Tomasi, M. Cossi, J. M. Millam, M. Klene, C. Adamo, R. Cammi, 
 J. W. Ochterski, R. L. Martin, K. Morokuma, O. Farkas, 
 J. B. Foresman, and D. J. Fox, Gaussian, Inc., Wallingford CT, 2016.
 
 ******************************************
 Gaussian 16:  AM64L-G16RevA.03 25-Dec-2016
                14-Mar-2023 
 ******************************************
 %nprocs=12
 Will use up to   12 processors via shared memory.
 %mem=16GB
 %oldchk=1gu2_III_D.chk
 %chk=1gu2_III_H.chk
 Copying data from "1gu2_III_D.chk" to current chk file "1gu2_III_H.chk"
 IOpt=  2 FromEx=T IUOpen= 4 IOptOp= 5 NList=   0 IFRang= 0 IUIn= 4 IUOut= 2.
 ----------------------------------------------------------------------
 # PBE1PBE/def2TZVP empiricaldispersion=GD3BJ scf=maxcycle=999 geom=che
 ck pop=nbo
 ----------------------------------------------------------------------
 1/29=2,38=1,172=1/1;
 2/12=2,40=1/2;
 3/5=44,7=101,11=2,14=-4,25=1,30=1,74=-13,124=41/1,2,3;
 4//1;
 5/5=2,7=999,38=5/2;
 6/7=2,8=2,9=2,10=2,28=1,40=1/1,7;
 99/5=1,9=1/99;
 ----------
 1gu2_III_H
 ----------
 Structure from the checkpoint file:  "1gu2_III_H.chk"
 Charge =  1 Multiplicity = 6
 Z-Matrix found in chk file.
 C,0,7.741,3.503,14.891
 C,0,9.027,3.472,14.126
 N,0,9.297,4.319,13.076
 C,0,10.117,2.702,14.195
 C,0,10.507,4.054,12.555
 N,0,11.039,3.068,13.231
 C,0,16.892,-0.274,9.982
 C,0,16.143999,0.552,10.979
 N,0,16.707001,1.622,11.66
 C,0,14.864,0.516,11.388
 C,0,15.795,2.193,12.429
 N,0,14.639,1.534,12.28
 Fe,0,12.834,2.272,12.755
 C,0,13.059,3.697,9.65
 C,0,11.207,-0.399,11.392
 C,0,13.062,0.642,15.771
 C,0,14.138,5.119,14.157
 N,0,12.194,1.775,10.922
 C,0,12.388,2.489,9.727
 C,0,11.81,1.765,8.629
 C,0,11.25,0.648,9.123
 C,0,11.521,0.629,10.54
 C,0,10.495,-0.467,8.356
 C,0,11.841,2.227,7.162
 C,0,13.046,1.656,6.392
 C,0,13.086,2.124,4.978
 O,0,14.201,2.26,4.429
 O,0,12.037,2.373,4.361
 N,0,12.262,0.47,13.431
 C,0,11.628,-0.511,12.721
 C,0,11.497,-1.703,13.549
 C,0,12.043,-1.418,14.765
 C,0,12.495,-0.047,14.694
 C,0,10.865,-3.035,13.109
 C,0,12.161,-2.307,16.025
 C,0,12.955,-3.58,15.74
 N,0,13.459,2.785,14.588
 C,0,13.44,1.975,15.725
 C,0,13.845,2.753,16.875999
 C,0,14.127,4.016,16.437
 C,0,13.9,4.038,15.019
 C,0,13.855,2.166,18.302
 C,0,14.506,5.269,17.226999
 C,0,15.775,5.095,18.055
 N,0,13.456,4.028,12.049
 C,0,14.006,5.084,12.789
 C,0,14.516,6.093,11.899
 C,0,14.383,5.614,10.626
 C,0,13.61,4.395,10.712
 C,0,15.14,7.432,12.331
 C,0,15.002,6.242,9.351
 C,0,14.241,7.503,8.87
 C,0,13.115,7.209,7.901
 O,0,12.172,8.037,7.738
 O,0,13.146,6.139,7.238
 H,0,17.82690069,-0.58062057,10.40252886
 H,0,16.31394392,-1.13826952,9.72943443
 H,0,17.07042231,0.30580735,9.10058698
 H,0,15.95423003,3.03955825,13.06373217
 H,0,17.65923464,1.91701376,11.58114588
 H,0,14.13318142,-0.19673012,11.06734445
 H,0,13.88672375,-3.54424957,16.26489309
 H,0,12.39415423,-4.43076581,16.0664193
 H,0,13.14043899,-3.65691348,14.68900205
 H,0,11.73919763,-2.06097406,16.97707878
 H,0,11.51503653,-3.84274482,13.37338761
 H,0,9.92194991,-3.16123136,13.59851217
 H,0,10.71849322,-3.02735466,12.04910505
 H,0,10.58728554,-1.18179612,11.00718288
 H,0,11.08418822,-1.3601699,8.35381561
 H,0,9.5582799,-0.65881147,8.83627472
 H,0,10.32123406,-0.1518823,7.34832633
 H,0,13.94670405,1.95987592,6.88321445
 H,0,12.98887598,0.58757197,6.40191928
 H,0,11.88901547,3.29562232,7.13668486
 H,0,10.94016655,1.909106,6.6799808
 H,0,12.07696195,2.7319584,3.4715328
 H,0,12.36873263,8.95893122,7.55650871
 H,0,13.8331058,8.00098863,9.72471027
 H,0,14.93800244,8.15967596,8.39264868
 H,0,16.01706165,6.51027374,9.55734693
 H,0,14.99028728,5.51314018,8.56772089
 H,0,13.1618523,4.1329459,8.67826311
 H,0,16.08323104,7.56007446,11.84231592
 H,0,14.48597131,8.23425363,12.05982556
 H,0,15.28460118,7.43254198,13.39118404
 H,0,14.44649026,6.04332018,14.59900222
 H,0,16.55640402,5.69742024,17.64099805
 H,0,15.58710661,5.39844252,19.06372132
 H,0,16.07175531,4.06706768,18.04116407
 H,0,13.93860665,6.17581719,17.2015556
 H,0,14.7309458,2.49882418,18.81857238
 H,0,12.98367985,2.49451121,18.82904989
 H,0,13.85731283,1.09737582,18.2478057
 H,0,13.21317257,0.10795988,16.68579397
 H,0,7.88145868,4.04477169,15.80295109
 H,0,6.98761083,3.98398187,14.30281534
 H,0,7.43453476,2.50240916,15.11415249
 H,0,8.67881284,5.03257559,12.74637215
 H,0,10.95827742,4.56234659,11.72866324
 H,0,10.25750645,1.90974449,14.9003291
 Recover connectivity data from disk.
 Stoichiometry    C42H46FeN8O4(1+,6)
 Framework group  C1[X(C42H46FeN8O4)]
 Deg. of freedom   297
 Full point group                 C1      NOp   1
 Largest Abelian subgroup         C1      NOp   1
 Largest concise Abelian subgroup C1      NOp   1
                         Standard orientation:                         
 ---------------------------------------------------------------------
 Center     Atomic      Atomic             Coordinates (Angstroms)
 Number     Number       Type             X           Y           Z
 ---------------------------------------------------------------------
      1          6           0        2.698918    0.347018    5.433796
      2          6           0        1.938739    0.438656    4.147828
      3          7           0        0.671762    0.967721    4.060266
      4          6           0        2.204570    0.054638    2.895779
      5          6           0        0.217809    0.898852    2.797353
      6          7           0        1.145405    0.348909    2.056190
      7          6           0       -1.113624   -2.085795   -4.648404
      8          6           0       -0.393403   -1.234251   -3.652440
      9          7           0       -0.091089    0.102830   -3.867974
     10          6           0        0.048347   -1.493245   -2.409559
     11          6           0        0.495534    0.607666   -2.795519
     12          7           0        0.592931   -0.355205   -1.870202
     13         26           0        0.877727   -0.031142    0.089943
     14          6           0       -2.519947    0.390862    0.090728
     15          6           0        0.450880   -3.327379    0.859204
     16          6           0        4.238724   -0.543388   -0.406490
     17          6           0        1.298327    3.349264   -0.319176
     18          7           0       -0.693516   -1.215087    0.472004
     19          6           0       -2.055300   -0.872145    0.413760
     20          6           0       -2.859758   -2.023750    0.714619
     21          6           0       -2.029785   -3.047021    0.978035
     22          6           0       -0.684508   -2.561065    0.788910
     23          6           0       -2.393923   -4.503734    1.361349
     24          6           0       -4.397954   -2.037832    0.730338
     25          6           0       -4.995046   -2.462852   -0.623842
     26          6           0       -6.484942   -2.452941   -0.612293
     27          8           0       -7.085137   -2.190174   -1.677112
     28          8           0       -7.114122   -2.699345    0.430064
     29          7           0        2.090837   -1.627940    0.189760
     30          6           0        1.736006   -2.911966    0.496014
     31          6           0        2.892790   -3.785233    0.344803
     32          6           0        3.944876   -3.007423   -0.037460
     33          6           0        3.443181   -1.653672   -0.105621
     34          6           0        2.902186   -5.307377    0.568938
     35          6           0        5.411914   -3.405128   -0.322897
     36          6           0        5.504423   -4.436525   -1.445328
     37          7           0        2.444562    1.163307   -0.273378
     38          6           0        3.774846    0.763008   -0.412423
     39          6           0        4.618830    1.932660   -0.529526
     40          6           0        3.805552    3.029862   -0.483297
     41          6           0        2.456976    2.558374   -0.335715
     42          6           0        6.154929    1.831415   -0.620627
     43          6           0        4.161565    4.516713   -0.466643
     44          6           0        4.961420    4.955657   -1.688847
     45          7           0       -0.351478    1.528246   -0.071983
     46          6           0        0.011679    2.866860   -0.275612
     47          6           0       -1.160418    3.657913   -0.541510
     48          6           0       -2.220799    2.798659   -0.611744
     49          6           0       -1.740911    1.500444   -0.193139
     50          6           0       -1.179308    5.181838   -0.756497
     51          6           0       -3.646196    3.155070   -1.106099
     52          6           0       -4.464949    3.952520   -0.060001
     53          6           0       -5.260423    3.082709    0.890747
     54          8           0       -5.638214    3.531403    2.012063
     55          8           0       -5.564904    1.913509    0.536216
     56          1           0       -0.650049   -1.982705   -5.607243
     57          1           0       -1.070739   -3.109400   -4.339708
     58          1           0       -2.135469   -1.774642   -4.710971
     59          1           0        0.835302    1.616330   -2.685725
     60          1           0       -0.287307    0.608664   -4.707992
     61          1           0       -0.014957   -2.440898   -1.916764
     62          1           0        5.962654   -3.990125   -2.303028
     63          1           0        6.093517   -5.267726   -1.118260
     64          1           0        4.521914   -4.774375   -1.701127
     65          1           0        6.256240   -3.007481    0.200450
     66          1           0        3.379765   -5.786980   -0.259796
     67          1           0        3.437205   -5.532225    1.467881
     68          1           0        1.896122   -5.661493    0.654603
     69          1           0        0.344354   -4.328052    1.222805
     70          1           0       -2.141874   -5.158706    0.553648
     71          1           0       -1.847835   -4.789520    2.236000
     72          1           0       -3.443484   -4.568778    1.559064
     73          1           0       -4.649886   -1.790348   -1.381142
     74          1           0       -4.656868   -3.450892   -0.856889
     75          1           0       -4.750546   -1.056768    0.971362
     76          1           0       -4.730073   -2.720383    1.484474
     77          1           0       -8.071566   -2.630118    0.440536
     78          1           0       -6.099356    4.371907    2.062075
     79          1           0       -3.790808    4.554508    0.512751
     80          1           0       -5.142695    4.598042   -0.578521
     81          1           0       -3.564906    3.740057   -1.998333
     82          1           0       -4.168106    2.249203   -1.333949
     83          1           0       -3.581266    0.522654    0.057086
     84          1           0       -1.714109    5.408668   -1.655071
     85          1           0       -1.661535    5.653279    0.074226
     86          1           0       -0.175412    5.542994   -0.838104
     87          1           0        1.426073    4.411360   -0.342283
     88          1           0        4.357809    5.593913   -2.299734
     89          1           0        5.834476    5.486841   -1.371804
     90          1           0        5.253112    4.094159   -2.252440
     91          1           0        3.878345    5.181736    0.322299
     92          1           0        6.516165    2.531257   -1.344940
     93          1           0        6.584207    2.052710    0.334176
     94          1           0        6.430233    0.840028   -0.914328
     95          1           0        5.267623   -0.712521   -0.646614
     96          1           0        3.396316    1.156261    5.494309
     97          1           0        2.016579    0.401964    6.256167
     98          1           0        3.227331   -0.582686    5.470284
     99          1           0        0.159884    1.350300    4.829431
    100          1           0       -0.738632    1.236058    2.456159
    101          1           0        3.113512   -0.416595    2.584873
 ---------------------------------------------------------------------
 Rotational constants (GHZ):           0.0641938           0.0431141           0.0346874
 Standard basis: def2TZVP (5D, 7F)
 There are  2272 symmetry adapted cartesian basis functions of A   symmetry.
 There are  1995 symmetry adapted basis functions of A   symmetry.
  1995 basis functions,  3224 primitive gaussians,  2272 cartesian basis functions
   208 alpha electrons      203 beta electrons
       nuclear repulsion energy      9003.0705262015 Hartrees.
 NAtoms=  101 NActive=  101 NUniq=  101 SFac= 1.00D+00 NAtFMM=   60 NAOKFM=T Big=T
 Integral buffers will be    131072 words long.
 Raffenetti 2 integral format.
 Two-electron integral symmetry is turned on.
 Nuclear repulsion after empirical dispersion term =     9002.9251973243 Hartrees.
 One-electron integrals computed using PRISM.
   1 Symmetry operations used in ECPInt.
 ECPInt:  NShTT=  314821 NPrTT=  970913 LenC2=  229699 LenP2D=  456703.
 LDataN:  DoStor=T MaxTD1= 6 Len=  172
 NBasis=  1995 RedAO= T EigKep=  3.28D-06  NBF=  1995
 NBsUse=  1995 1.00D-06 EigRej= -1.00D+00 NBFU=  1995
 ExpMin= 4.20D-02 ExpMax= 3.01D+05 ExpMxC= 2.91D+03 IAcc=3 IRadAn=         5 AccDes= 0.00D+00
 Harris functional with IExCor= 1009 and IRadAn=       5 diagonalized for initial guess.
 HarFok:  IExCor= 1009 AccDes= 0.00D+00 IRadAn=         5 IDoV= 1 UseB2=F ITyADJ=14
 ICtDFT=  3500011 ScaDFX=  1.000000  1.000000  1.000000  1.000000
 FoFCou: FMM=F IPFlag=           0 FMFlag=      100000 FMFlg1=        2001
         NFxFlg=           0 DoJE=T BraDBF=F KetDBF=T FulRan=T
         wScrn=  0.000000 ICntrl=       500 IOpCl=  0 I1Cent=   200000004 NGrid=           0
         NMat0=    1 NMatS0=      1 NMatT0=    0 NMatD0=    1 NMtDS0=    0 NMtDT0=    0
 Petite list used in FoFCou.
 Initial guess <Sx>= 0.0000 <Sy>= 0.0000 <Sz>= 2.5000 <S**2>= 8.7500 S= 2.5000
 Requested convergence on RMS density matrix=1.00D-08 within 999 cycles.
 Requested convergence on MAX density matrix=1.00D-06.
 Requested convergence on             energy=1.00D-06.
 No special actions if energy rises.
 EnCoef did   100 forward-backward iterations
 EnCoef did   100 forward-backward iterations
 EnCoef did     6 forward-backward iterations
 EnCoef did     3 forward-backward iterations
 EnCoef did    12 forward-backward iterations
 EnCoef did    12 forward-backward iterations
 EnCoef did     9 forward-backward iterations
 EnCoef did     9 forward-backward iterations
 EnCoef did   100 forward-backward iterations
 EnCoef did   100 forward-backward iterations
 Restarting incremental Fock formation.
 Rare condition: small coef for last iteration:  0.000D+00
 Restarting incremental Fock formation.
 SCF Done:  E(UPBE1PBE) =  -3628.67180930     A.U. after   58 cycles
            NFock= 58  Conv=0.16D-08     -V/T= 2.0035
 <Sx>= 0.0000 <Sy>= 0.0000 <Sz>= 2.5000 <S**2>= 8.8186 S= 2.5114
 <L.S>= 0.000000000000E+00
 Annihilation of the first spin contaminant:
 S**2 before annihilation     8.8186,   after     8.7512
 Hyperfine terms turned off by default for NAtoms > 100.

 **********************************************************************

            Population analysis using the SCF density.

 **********************************************************************

 Orbital symmetries:
 Alpha Orbitals:
       Occupied  (A) (A) (A) (A) (A) (A) (A) (A) (A) (A) (A) (A)
                 (A) (A) (A) (A) (A) (A) (A) (A) (A) (A) (A) (A)
                 (A) (A) (A) (A) (A) (A) (A) (A) (A) (A) (A) (A)
                 (A) (A) (A) (A) (A) (A) (A) (A) (A) (A) (A) (A)
                 (A) (A) (A) (A) (A) (A) (A) (A) (A) (A) (A) (A)
                 (A) (A) (A) (A) (A) (A) (A) (A) (A) (A) (A) (A)
                 (A) (A) (A) (A) (A) (A) (A) (A) (A) (A) (A) (A)
                 (A) (A) (A) (A) (A) (A) (A) (A) (A) (A) (A) (A)
                 (A) (A) (A) (A) (A) (A) (A) (A) (A) (A) (A) (A)
                 (A) (A) (A) (A) (A) (A) (A) (A) (A) (A) (A) (A)
                 (A) (A) (A) (A) (A) (A) (A) (A) (A) (A) (A) (A)
                 (A) (A) (A) (A) (A) (A) (A) (A) (A) (A) (A) (A)
                 (A) (A) (A) (A) (A) (A) (A) (A) (A) (A) (A) (A)
                 (A) (A) (A) (A) (A) (A) (A) (A) (A) (A) (A) (A)
                 (A) (A) (A) (A) (A) (A) (A) (A) (A) (A) (A) (A)
                 (A) (A) (A) (A) (A) (A) (A) (A) (A) (A) (A) (A)
                 (A) (A) (A) (A) (A) (A) (A) (A) (A) (A) (A) (A)
                 (A) (A) (A) (A)
       Virtual   (A) (A) (A) (A) (A) (A) (A) (A) (A) (A) (A) (A)
                 (A) (A) (A) (A) (A) (A) (A) (A) (A) (A) (A) (A)
                 (A) (A) (A) (A) (A) (A) (A) (A) (A) (A) (A) (A)
                 (A) (A) (A) (A) (A) (A) (A) (A) (A) (A) (A) (A)
                 (A) (A) (A) (A) (A) (A) (A) (A) (A) (A) (A) (A)
                 (A) (A) (A) (A) (A) (A) (A) (A) (A) (A) (A) (A)
                 (A) (A) (A) (A) (A) (A) (A) (A) (A) (A) (A) (A)
                 (A) (A) (A) (A) (A) (A) (A) (A) (A) (A) (A) (A)
                 (A) (A) (A) (A) (A) (A) (A) (A) (A) (A) (A) (A)
                 (A) (A) (A) (A) (A) (A) (A) (A) (A) (A) (A) (A)
                 (A) (A) (A) (A) (A) (A) (A) (A) (A) (A) (A) (A)
                 (A) (A) (A) (A) (A) (A) (A) (A) (A) (A) (A) (A)
                 (A) (A) (A) (A) (A) (A) (A) (A) (A) (A) (A) (A)
                 (A) (A) (A) (A) (A) (A) (A) (A) (A) (A) (A) (A)
                 (A) (A) (A) (A) (A) (A) (A) (A) (A) (A) (A) (A)
                 (A) (A) (A) (A) (A) (A) (A) (A) (A) (A) (A) (A)
                 (A) (A) (A) (A) (A) (A) (A) (A) (A) (A) (A) (A)
                 (A) (A) (A) (A) (A) (A) (A) (A) (A) (A) (A) (A)
                 (A) (A) (A) (A) (A) (A) (A) (A) (A) (A) (A) (A)
                 (A) (A) (A) (A) (A) (A) (A) (A) (A) (A) (A) (A)
                 (A) (A) (A) (A) (A) (A) (A) (A) (A) (A) (A) (A)
                 (A) (A) (A) (A) (A) (A) (A) (A) (A) (A) (A) (A)
                 (A) (A) (A) (A) (A) (A) (A) (A) (A) (A) (A) (A)
                 (A) (A) (A) (A) (A) (A) (A) (A) (A) (A) (A) (A)
                 (A) (A) (A) (A) (A) (A) (A) (A) (A) (A) (A) (A)
                 (A) (A) (A) (A) (A) (A) (A) (A) (A) (A) (A) (A)
                 (A) (A) (A) (A) (A) (A) (A) (A) (A) (A) (A) (A)
                 (A) (A) (A) (A) (A) (A) (A) (A) (A) (A) (A) (A)
                 (A) (A) (A) (A) (A) (A) (A) (A) (A) (A) (A) (A)
                 (A) (A) (A) (A) (A) (A) (A) (A) (A) (A) (A) (A)
                 (A) (A) (A) (A) (A) (A) (A) (A) (A) (A) (A) (A)
                 (A) (A) (A) (A) (A) (A) (A) (A) (A) (A) (A) (A)
                 (A) (A) (A) (A) (A) (A) (A) (A) (A) (A) (A) (A)
                 (A) (A) (A) (A) (A) (A) (A) (A) (A) (A) (A) (A)
                 (A) (A) (A) (A) (A) (A) (A) (A) (A) (A) (A) (A)
                 (A) (A) (A) (A) (A) (A) (A) (A) (A) (A) (A) (A)
                 (A) (A) (A) (A) (A) (A) (A) (A) (A) (A) (A) (A)
                 (A) (A) (A) (A) (A) (A) (A) (A) (A) (A) (A) (A)
                 (A) (A) (A) (A) (A) (A) (A) (A) (A) (A) (A) (A)
                 (A) (A) (A) (A) (A) (A) (A) (A) (A) (A) (A) (A)
                 (A) (A) (A) (A) (A) (A) (A) (A) (A) (A) (A) (A)
                 (A) (A) (A) (A) (A) (A) (A) (A) (A) (A) (A) (A)
                 (A) (A) (A) (A) (A) (A) (A) (A) (A) (A) (A) (A)
                 (A) (A) (A) (A) (A) (A) (A) (A) (A) (A) (A) (A)
                 (A) (A) (A) (A) (A) (A) (A) (A) (A) (A) (A) (A)
                 (A) (A) (A) (A) (A) (A) (A) (A) (A) (A) (A) (A)
                 (A) (A) (A) (A) (A) (A) (A) (A) (A) (A) (A) (A)
                 (A) (A) (A) (A) (A) (A) (A) (A) (A) (A) (A) (A)
                 (A) (A) (A) (A) (A) (A) (A) (A) (A) (A) (A) (A)
                 (A) (A) (A) (A) (A) (A) (A) (A) (A) (A) (A) (A)
                 (A) (A) (A) (A) (A) (A) (A) (A) (A) (A) (A) (A)
                 (A) (A) (A) (A) (A) (A) (A) (A) (A) (A) (A) (A)
                 (A) (A) (A) (A) (A) (A) (A) (A) (A) (A) (A) (A)
                 (A) (A) (A) (A) (A) (A) (A) (A) (A) (A) (A) (A)
                 (A) (A) (A) (A) (A) (A) (A) (A) (A) (A) (A) (A)
                 (A) (A) (A) (A) (A) (A) (A) (A) (A) (A) (A) (A)
                 (A) (A) (A) (A) (A) (A) (A) (A) (A) (A) (A) (A)
                 (A) (A) (A) (A) (A) (A) (A) (A) (A) (A) (A) (A)
                 (A) (A) (A) (A) (A) (A) (A) (A) (A) (A) (A) (A)
                 (A) (A) (A) (A) (A) (A) (A) (A) (A) (A) (A) (A)
                 (A) (A) (A) (A) (A) (A) (A) (A) (A) (A) (A) (A)
                 (A) (A) (A) (A) (A) (A) (A) (A) (A) (A) (A) (A)
                 (A) (A) (A) (A) (A) (A) (A) (A) (A) (A) (A) (A)
                 (A) (A) (A) (A) (A) (A) (A) (A) (A) (A) (A) (A)
                 (A) (A) (A) (A) (A) (A) (A) (A) (A) (A) (A) (A)
                 (A) (A) (A) (A) (A) (A) (A) (A) (A) (A) (A) (A)
                 (A) (A) (A) (A) (A) (A) (A) (A) (A) (A) (A) (A)
                 (A) (A) (A) (A) (A) (A) (A) (A) (A) (A) (A) (A)
                 (A) (A) (A) (A) (A) (A) (A) (A) (A) (A) (A) (A)
                 (A) (A) (A) (A) (A) (A) (A) (A) (A) (A) (A) (A)
                 (A) (A) (A) (A) (A) (A) (A) (A) (A) (A) (A) (A)
                 (A) (A) (A) (A) (A) (A) (A) (A) (A) (A) (A) (A)
                 (A) (A) (A) (A) (A) (A) (A) (A) (A) (A) (A) (A)
                 (A) (A) (A) (A) (A) (A) (A) (A) (A) (A) (A) (A)
                 (A) (A) (A) (A) (A) (A) (A) (A) (A) (A) (A) (A)
                 (A) (A) (A) (A) (A) (A) (A) (A) (A) (A) (A) (A)
                 (A) (A) (A) (A) (A) (A) (A) (A) (A) (A) (A) (A)
                 (A) (A) (A) (A) (A) (A) (A) (A) (A) (A) (A) (A)
                 (A) (A) (A) (A) (A) (A) (A) (A) (A) (A) (A) (A)
                 (A) (A) (A) (A) (A) (A) (A) (A) (A) (A) (A) (A)
                 (A) (A) (A) (A) (A) (A) (A) (A) (A) (A) (A) (A)
                 (A) (A) (A) (A) (A) (A) (A) (A) (A) (A) (A) (A)
                 (A) (A) (A) (A) (A) (A) (A) (A) (A) (A) (A) (A)
                 (A) (A) (A) (A) (A) (A) (A) (A) (A) (A) (A) (A)
                 (A) (A) (A) (A) (A) (A) (A) (A) (A) (A) (A) (A)
                 (A) (A) (A) (A) (A) (A) (A) (A) (A) (A) (A) (A)
                 (A) (A) (A) (A) (A) (A) (A) (A) (A) (A) (A) (A)
                 (A) (A) (A) (A) (A) (A) (A) (A) (A) (A) (A) (A)
                 (A) (A) (A) (A) (A) (A) (A) (A) (A) (A) (A) (A)
                 (A) (A) (A) (A) (A) (A) (A) (A) (A) (A) (A) (A)
                 (A) (A) (A) (A) (A) (A) (A) (A) (A) (A) (A) (A)
                 (A) (A) (A) (A) (A) (A) (A) (A) (A) (A) (A) (A)
                 (A) (A) (A) (A) (A) (A) (A) (A) (A) (A) (A) (A)
                 (A) (A) (A) (A) (A) (A) (A) (A) (A) (A) (A) (A)
                 (A) (A) (A) (A) (A) (A) (A) (A) (A) (A) (A) (A)
                 (A) (A) (A) (A) (A) (A) (A) (A) (A) (A) (A) (A)
                 (A) (A) (A) (A) (A) (A) (A) (A) (A) (A) (A) (A)
                 (A) (A) (A) (A) (A) (A) (A) (A) (A) (A) (A) (A)
                 (A) (A) (A) (A) (A) (A) (A) (A) (A) (A) (A) (A)
                 (A) (A) (A) (A) (A) (A) (A) (A) (A) (A) (A) (A)
                 (A) (A) (A) (A) (A) (A) (A) (A) (A) (A) (A) (A)
                 (A) (A) (A) (A) (A) (A) (A) (A) (A) (A) (A) (A)
                 (A) (A) (A) (A) (A) (A) (A) (A) (A) (A) (A) (A)
                 (A) (A) (A) (A) (A) (A) (A) (A) (A) (A) (A) (A)
                 (A) (A) (A) (A) (A) (A) (A) (A) (A) (A) (A) (A)
                 (A) (A) (A) (A) (A) (A) (A) (A) (A) (A) (A) (A)
                 (A) (A) (A) (A) (A) (A) (A) (A) (A) (A) (A) (A)
                 (A) (A) (A) (A) (A) (A) (A) (A) (A) (A) (A) (A)
                 (A) (A) (A) (A) (A) (A) (A) (A) (A) (A) (A) (A)
                 (A) (A) (A) (A) (A) (A) (A) (A) (A) (A) (A) (A)
                 (A) (A) (A) (A) (A) (A) (A) (A) (A) (A) (A) (A)
                 (A) (A) (A) (A) (A) (A) (A) (A) (A) (A) (A) (A)
                 (A) (A) (A) (A) (A) (A) (A) (A) (A) (A) (A) (A)
                 (A) (A) (A) (A) (A) (A) (A) (A) (A) (A) (A) (A)
                 (A) (A) (A) (A) (A) (A) (A) (A) (A) (A) (A) (A)
                 (A) (A) (A) (A) (A) (A) (A) (A) (A) (A) (A) (A)
                 (A) (A) (A) (A) (A) (A) (A) (A) (A) (A) (A) (A)
                 (A) (A) (A) (A) (A) (A) (A) (A) (A) (A) (A) (A)
                 (A) (A) (A) (A) (A) (A) (A) (A) (A) (A) (A) (A)
                 (A) (A) (A) (A) (A) (A) (A) (A) (A) (A) (A) (A)
                 (A) (A) (A) (A) (A) (A) (A) (A) (A) (A) (A) (A)
                 (A) (A) (A) (A) (A) (A) (A) (A) (A) (A) (A) (A)
                 (A) (A) (A) (A) (A) (A) (A) (A) (A) (A) (A) (A)
                 (A) (A) (A) (A) (A) (A) (A) (A) (A) (A) (A) (A)
                 (A) (A) (A) (A) (A) (A) (A) (A) (A) (A) (A) (A)
                 (A) (A) (A) (A) (A) (A) (A) (A) (A) (A) (A) (A)
                 (A) (A) (A) (A) (A) (A) (A) (A) (A) (A) (A) (A)
                 (A) (A) (A) (A) (A) (A) (A) (A) (A) (A) (A) (A)
                 (A) (A) (A) (A) (A) (A) (A) (A) (A) (A) (A) (A)
                 (A) (A) (A) (A) (A) (A) (A) (A) (A) (A) (A) (A)
                 (A) (A) (A) (A) (A) (A) (A) (A) (A) (A) (A) (A)
                 (A) (A) (A) (A) (A) (A) (A) (A) (A) (A) (A) (A)
                 (A) (A) (A) (A) (A) (A) (A) (A) (A) (A) (A) (A)
                 (A) (A) (A) (A) (A) (A) (A) (A) (A) (A) (A) (A)
                 (A) (A) (A) (A) (A) (A) (A) (A) (A) (A) (A) (A)
                 (A) (A) (A) (A) (A) (A) (A) (A) (A) (A) (A) (A)
                 (A) (A) (A) (A) (A) (A) (A) (A) (A) (A) (A) (A)
                 (A) (A) (A) (A) (A) (A) (A) (A) (A) (A) (A) (A)
                 (A) (A) (A) (A) (A) (A) (A) (A) (A) (A) (A) (A)
                 (A) (A) (A) (A) (A) (A) (A) (A) (A) (A) (A) (A)
                 (A) (A) (A) (A) (A) (A) (A) (A) (A) (A) (A) (A)
                 (A) (A) (A) (A) (A) (A) (A) (A) (A) (A) (A) (A)
                 (A) (A) (A) (A) (A) (A) (A) (A) (A) (A) (A) (A)
                 (A) (A) (A) (A) (A) (A) (A) (A) (A) (A) (A) (A)
                 (A) (A) (A) (A) (A) (A) (A) (A) (A) (A) (A) (A)
                 (A) (A) (A) (A) (A) (A) (A) (A) (A) (A) (A) (A)
                 (A) (A) (A) (A) (A) (A) (A) (A) (A) (A) (A) (A)
                 (A) (A) (A) (A) (A) (A) (A) (A) (A) (A) (A) (A)
                 (A) (A) (A) (A) (A) (A) (A) (A) (A) (A) (A)
 Beta  Orbitals:
       Occupied  (A) (A) (A) (A) (A) (A) (A) (A) (A) (A) (A) (A)
                 (A) (A) (A) (A) (A) (A) (A) (A) (A) (A) (A) (A)
                 (A) (A) (A) (A) (A) (A) (A) (A) (A) (A) (A) (A)
                 (A) (A) (A) (A) (A) (A) (A) (A) (A) (A) (A) (A)
                 (A) (A) (A) (A) (A) (A) (A) (A) (A) (A) (A) (A)
                 (A) (A) (A) (A) (A) (A) (A) (A) (A) (A) (A) (A)
                 (A) (A) (A) (A) (A) (A) (A) (A) (A) (A) (A) (A)
                 (A) (A) (A) (A) (A) (A) (A) (A) (A) (A) (A) (A)
                 (A) (A) (A) (A) (A) (A) (A) (A) (A) (A) (A) (A)
                 (A) (A) (A) (A) (A) (A) (A) (A) (A) (A) (A) (A)
                 (A) (A) (A) (A) (A) (A) (A) (A) (A) (A) (A) (A)
                 (A) (A) (A) (A) (A) (A) (A) (A) (A) (A) (A) (A)
                 (A) (A) (A) (A) (A) (A) (A) (A) (A) (A) (A) (A)
                 (A) (A) (A) (A) (A) (A) (A) (A) (A) (A) (A) (A)
                 (A) (A) (A) (A) (A) (A) (A) (A) (A) (A) (A) (A)
                 (A) (A) (A) (A) (A) (A) (A) (A) (A) (A) (A) (A)
                 (A) (A) (A) (A) (A) (A) (A) (A) (A) (A) (A)
       Virtual   (A) (A) (A) (A) (A) (A) (A) (A) (A) (A) (A) (A)
                 (A) (A) (A) (A) (A) (A) (A) (A) (A) (A) (A) (A)
                 (A) (A) (A) (A) (A) (A) (A) (A) (A) (A) (A) (A)
                 (A) (A) (A) (A) (A) (A) (A) (A) (A) (A) (A) (A)
                 (A) (A) (A) (A) (A) (A) (A) (A) (A) (A) (A) (A)
                 (A) (A) (A) (A) (A) (A) (A) (A) (A) (A) (A) (A)
                 (A) (A) (A) (A) (A) (A) (A) (A) (A) (A) (A) (A)
                 (A) (A) (A) (A) (A) (A) (A) (A) (A) (A) (A) (A)
                 (A) (A) (A) (A) (A) (A) (A) (A) (A) (A) (A) (A)
                 (A) (A) (A) (A) (A) (A) (A) (A) (A) (A) (A) (A)
                 (A) (A) (A) (A) (A) (A) (A) (A) (A) (A) (A) (A)
                 (A) (A) (A) (A) (A) (A) (A) (A) (A) (A) (A) (A)
                 (A) (A) (A) (A) (A) (A) (A) (A) (A) (A) (A) (A)
                 (A) (A) (A) (A) (A) (A) (A) (A) (A) (A) (A) (A)
                 (A) (A) (A) (A) (A) (A) (A) (A) (A) (A) (A) (A)
                 (A) (A) (A) (A) (A) (A) (A) (A) (A) (A) (A) (A)
                 (A) (A) (A) (A) (A) (A) (A) (A) (A) (A) (A) (A)
                 (A) (A) (A) (A) (A) (A) (A) (A) (A) (A) (A) (A)
                 (A) (A) (A) (A) (A) (A) (A) (A) (A) (A) (A) (A)
                 (A) (A) (A) (A) (A) (A) (A) (A) (A) (A) (A) (A)
                 (A) (A) (A) (A) (A) (A) (A) (A) (A) (A) (A) (A)
                 (A) (A) (A) (A) (A) (A) (A) (A) (A) (A) (A) (A)
                 (A) (A) (A) (A) (A) (A) (A) (A) (A) (A) (A) (A)
                 (A) (A) (A) (A) (A) (A) (A) (A) (A) (A) (A) (A)
                 (A) (A) (A) (A) (A) (A) (A) (A) (A) (A) (A) (A)
                 (A) (A) (A) (A) (A) (A) (A) (A) (A) (A) (A) (A)
                 (A) (A) (A) (A) (A) (A) (A) (A) (A) (A) (A) (A)
                 (A) (A) (A) (A) (A) (A) (A) (A) (A) (A) (A) (A)
                 (A) (A) (A) (A) (A) (A) (A) (A) (A) (A) (A) (A)
                 (A) (A) (A) (A) (A) (A) (A) (A) (A) (A) (A) (A)
                 (A) (A) (A) (A) (A) (A) (A) (A) (A) (A) (A) (A)
                 (A) (A) (A) (A) (A) (A) (A) (A) (A) (A) (A) (A)
                 (A) (A) (A) (A) (A) (A) (A) (A) (A) (A) (A) (A)
                 (A) (A) (A) (A) (A) (A) (A) (A) (A) (A) (A) (A)
                 (A) (A) (A) (A) (A) (A) (A) (A) (A) (A) (A) (A)
                 (A) (A) (A) (A) (A) (A) (A) (A) (A) (A) (A) (A)
                 (A) (A) (A) (A) (A) (A) (A) (A) (A) (A) (A) (A)
                 (A) (A) (A) (A) (A) (A) (A) (A) (A) (A) (A) (A)
                 (A) (A) (A) (A) (A) (A) (A) (A) (A) (A) (A) (A)
                 (A) (A) (A) (A) (A) (A) (A) (A) (A) (A) (A) (A)
                 (A) (A) (A) (A) (A) (A) (A) (A) (A) (A) (A) (A)
                 (A) (A) (A) (A) (A) (A) (A) (A) (A) (A) (A) (A)
                 (A) (A) (A) (A) (A) (A) (A) (A) (A) (A) (A) (A)
                 (A) (A) (A) (A) (A) (A) (A) (A) (A) (A) (A) (A)
                 (A) (A) (A) (A) (A) (A) (A) (A) (A) (A) (A) (A)
                 (A) (A) (A) (A) (A) (A) (A) (A) (A) (A) (A) (A)
                 (A) (A) (A) (A) (A) (A) (A) (A) (A) (A) (A) (A)
                 (A) (A) (A) (A) (A) (A) (A) (A) (A) (A) (A) (A)
                 (A) (A) (A) (A) (A) (A) (A) (A) (A) (A) (A) (A)
                 (A) (A) (A) (A) (A) (A) (A) (A) (A) (A) (A) (A)
                 (A) (A) (A) (A) (A) (A) (A) (A) (A) (A) (A) (A)
                 (A) (A) (A) (A) (A) (A) (A) (A) (A) (A) (A) (A)
                 (A) (A) (A) (A) (A) (A) (A) (A) (A) (A) (A) (A)
                 (A) (A) (A) (A) (A) (A) (A) (A) (A) (A) (A) (A)
                 (A) (A) (A) (A) (A) (A) (A) (A) (A) (A) (A) (A)
                 (A) (A) (A) (A) (A) (A) (A) (A) (A) (A) (A) (A)
                 (A) (A) (A) (A) (A) (A) (A) (A) (A) (A) (A) (A)
                 (A) (A) (A) (A) (A) (A) (A) (A) (A) (A) (A) (A)
                 (A) (A) (A) (A) (A) (A) (A) (A) (A) (A) (A) (A)
                 (A) (A) (A) (A) (A) (A) (A) (A) (A) (A) (A) (A)
                 (A) (A) (A) (A) (A) (A) (A) (A) (A) (A) (A) (A)
                 (A) (A) (A) (A) (A) (A) (A) (A) (A) (A) (A) (A)
                 (A) (A) (A) (A) (A) (A) (A) (A) (A) (A) (A) (A)
                 (A) (A) (A) (A) (A) (A) (A) (A) (A) (A) (A) (A)
                 (A) (A) (A) (A) (A) (A) (A) (A) (A) (A) (A) (A)
                 (A) (A) (A) (A) (A) (A) (A) (A) (A) (A) (A) (A)
                 (A) (A) (A) (A) (A) (A) (A) (A) (A) (A) (A) (A)
                 (A) (A) (A) (A) (A) (A) (A) (A) (A) (A) (A) (A)
                 (A) (A) (A) (A) (A) (A) (A) (A) (A) (A) (A) (A)
                 (A) (A) (A) (A) (A) (A) (A) (A) (A) (A) (A) (A)
                 (A) (A) (A) (A) (A) (A) (A) (A) (A) (A) (A) (A)
                 (A) (A) (A) (A) (A) (A) (A) (A) (A) (A) (A) (A)
                 (A) (A) (A) (A) (A) (A) (A) (A) (A) (A) (A) (A)
                 (A) (A) (A) (A) (A) (A) (A) (A) (A) (A) (A) (A)
                 (A) (A) (A) (A) (A) (A) (A) (A) (A) (A) (A) (A)
                 (A) (A) (A) (A) (A) (A) (A) (A) (A) (A) (A) (A)
                 (A) (A) (A) (A) (A) (A) (A) (A) (A) (A) (A) (A)
                 (A) (A) (A) (A) (A) (A) (A) (A) (A) (A) (A) (A)
                 (A) (A) (A) (A) (A) (A) (A) (A) (A) (A) (A) (A)
                 (A) (A) (A) (A) (A) (A) (A) (A) (A) (A) (A) (A)
                 (A) (A) (A) (A) (A) (A) (A) (A) (A) (A) (A) (A)
                 (A) (A) (A) (A) (A) (A) (A) (A) (A) (A) (A) (A)
                 (A) (A) (A) (A) (A) (A) (A) (A) (A) (A) (A) (A)
                 (A) (A) (A) (A) (A) (A) (A) (A) (A) (A) (A) (A)
                 (A) (A) (A) (A) (A) (A) (A) (A) (A) (A) (A) (A)
                 (A) (A) (A) (A) (A) (A) (A) (A) (A) (A) (A) (A)
                 (A) (A) (A) (A) (A) (A) (A) (A) (A) (A) (A) (A)
                 (A) (A) (A) (A) (A) (A) (A) (A) (A) (A) (A) (A)
                 (A) (A) (A) (A) (A) (A) (A) (A) (A) (A) (A) (A)
                 (A) (A) (A) (A) (A) (A) (A) (A) (A) (A) (A) (A)
                 (A) (A) (A) (A) (A) (A) (A) (A) (A) (A) (A) (A)
                 (A) (A) (A) (A) (A) (A) (A) (A) (A) (A) (A) (A)
                 (A) (A) (A) (A) (A) (A) (A) (A) (A) (A) (A) (A)
                 (A) (A) (A) (A) (A) (A) (A) (A) (A) (A) (A) (A)
                 (A) (A) (A) (A) (A) (A) (A) (A) (A) (A) (A) (A)
                 (A) (A) (A) (A) (A) (A) (A) (A) (A) (A) (A) (A)
                 (A) (A) (A) (A) (A) (A) (A) (A) (A) (A) (A) (A)
                 (A) (A) (A) (A) (A) (A) (A) (A) (A) (A) (A) (A)
                 (A) (A) (A) (A) (A) (A) (A) (A) (A) (A) (A) (A)
                 (A) (A) (A) (A) (A) (A) (A) (A) (A) (A) (A) (A)
                 (A) (A) (A) (A) (A) (A) (A) (A) (A) (A) (A) (A)
                 (A) (A) (A) (A) (A) (A) (A) (A) (A) (A) (A) (A)
                 (A) (A) (A) (A) (A) (A) (A) (A) (A) (A) (A) (A)
                 (A) (A) (A) (A) (A) (A) (A) (A) (A) (A) (A) (A)
                 (A) (A) (A) (A) (A) (A) (A) (A) (A) (A) (A) (A)
                 (A) (A) (A) (A) (A) (A) (A) (A) (A) (A) (A) (A)
                 (A) (A) (A) (A) (A) (A) (A) (A) (A) (A) (A) (A)
                 (A) (A) (A) (A) (A) (A) (A) (A) (A) (A) (A) (A)
                 (A) (A) (A) (A) (A) (A) (A) (A) (A) (A) (A) (A)
                 (A) (A) (A) (A) (A) (A) (A) (A) (A) (A) (A) (A)
                 (A) (A) (A) (A) (A) (A) (A) (A) (A) (A) (A) (A)
                 (A) (A) (A) (A) (A) (A) (A) (A) (A) (A) (A) (A)
                 (A) (A) (A) (A) (A) (A) (A) (A) (A) (A) (A) (A)
                 (A) (A) (A) (A) (A) (A) (A) (A) (A) (A) (A) (A)
                 (A) (A) (A) (A) (A) (A) (A) (A) (A) (A) (A) (A)
                 (A) (A) (A) (A) (A) (A) (A) (A) (A) (A) (A) (A)
                 (A) (A) (A) (A) (A) (A) (A) (A) (A) (A) (A) (A)
                 (A) (A) (A) (A) (A) (A) (A) (A) (A) (A) (A) (A)
                 (A) (A) (A) (A) (A) (A) (A) (A) (A) (A) (A) (A)
                 (A) (A) (A) (A) (A) (A) (A) (A) (A) (A) (A) (A)
                 (A) (A) (A) (A) (A) (A) (A) (A) (A) (A) (A) (A)
                 (A) (A) (A) (A) (A) (A) (A) (A) (A) (A) (A) (A)
                 (A) (A) (A) (A) (A) (A) (A) (A) (A) (A) (A) (A)
                 (A) (A) (A) (A) (A) (A) (A) (A) (A) (A) (A) (A)
                 (A) (A) (A) (A) (A) (A) (A) (A) (A) (A) (A) (A)
                 (A) (A) (A) (A) (A) (A) (A) (A) (A) (A) (A) (A)
                 (A) (A) (A) (A) (A) (A) (A) (A) (A) (A) (A) (A)
                 (A) (A) (A) (A) (A) (A) (A) (A) (A) (A) (A) (A)
                 (A) (A) (A) (A) (A) (A) (A) (A) (A) (A) (A) (A)
                 (A) (A) (A) (A) (A) (A) (A) (A) (A) (A) (A) (A)
                 (A) (A) (A) (A) (A) (A) (A) (A) (A) (A) (A) (A)
                 (A) (A) (A) (A) (A) (A) (A) (A) (A) (A) (A) (A)
                 (A) (A) (A) (A) (A) (A) (A) (A) (A) (A) (A) (A)
                 (A) (A) (A) (A) (A) (A) (A) (A) (A) (A) (A) (A)
                 (A) (A) (A) (A) (A) (A) (A) (A) (A) (A) (A) (A)
                 (A) (A) (A) (A) (A) (A) (A) (A) (A) (A) (A) (A)
                 (A) (A) (A) (A) (A) (A) (A) (A) (A) (A) (A) (A)
                 (A) (A) (A) (A) (A) (A) (A) (A) (A) (A) (A) (A)
                 (A) (A) (A) (A) (A) (A) (A) (A) (A) (A) (A) (A)
                 (A) (A) (A) (A) (A) (A) (A) (A) (A) (A) (A) (A)
                 (A) (A) (A) (A) (A) (A) (A) (A) (A) (A) (A) (A)
                 (A) (A) (A) (A) (A) (A) (A) (A) (A) (A) (A) (A)
                 (A) (A) (A) (A) (A) (A) (A) (A) (A) (A) (A) (A)
                 (A) (A) (A) (A) (A) (A) (A) (A) (A) (A) (A) (A)
                 (A) (A) (A) (A) (A) (A) (A) (A) (A) (A) (A) (A)
                 (A) (A) (A) (A) (A) (A) (A) (A) (A) (A) (A) (A)
                 (A) (A) (A) (A) (A) (A) (A) (A) (A) (A) (A) (A)
                 (A) (A) (A) (A) (A) (A) (A) (A) (A) (A) (A) (A)
                 (A) (A) (A) (A) (A) (A) (A) (A) (A) (A) (A) (A)
                 (A) (A) (A) (A)
 The electronic state is 6-A.
 Alpha  occ. eigenvalues -- -256.49361 -30.30245 -26.13522 -26.11529 -26.11509
 Alpha  occ. eigenvalues --  -19.33879 -19.32530 -19.26181 -19.22436 -14.53761
 Alpha  occ. eigenvalues --  -14.53365 -14.47954 -14.47831 -14.47507 -14.47384
 Alpha  occ. eigenvalues --  -14.47375 -14.47215 -10.43685 -10.40596 -10.37694
 Alpha  occ. eigenvalues --  -10.37364 -10.34808 -10.34786 -10.34753 -10.34686
 Alpha  occ. eigenvalues --  -10.34614 -10.34591 -10.34482 -10.34433 -10.34310
 Alpha  occ. eigenvalues --  -10.34107 -10.32555 -10.32500 -10.32289 -10.32125
 Alpha  occ. eigenvalues --  -10.32120 -10.31934 -10.31892 -10.31800 -10.31716
 Alpha  occ. eigenvalues --  -10.31619 -10.31564 -10.31484 -10.31461 -10.31416
 Alpha  occ. eigenvalues --  -10.31268 -10.31093 -10.31085 -10.30951 -10.30784
 Alpha  occ. eigenvalues --  -10.30593 -10.30318 -10.30014 -10.29851 -10.29594
 Alpha  occ. eigenvalues --  -10.29297 -10.29057 -10.28417 -10.28276  -3.69752
 Alpha  occ. eigenvalues --   -2.49384  -2.43704  -2.43650  -1.24004  -1.23388
 Alpha  occ. eigenvalues --   -1.15474  -1.15429  -1.10453  -1.07440  -1.07286
 Alpha  occ. eigenvalues --   -1.06372  -1.05953  -1.05094  -1.00309  -1.00133
 Alpha  occ. eigenvalues --   -0.92909  -0.91989  -0.91666  -0.90801  -0.90606
 Alpha  occ. eigenvalues --   -0.90132  -0.90079  -0.90050  -0.89889  -0.87698
 Alpha  occ. eigenvalues --   -0.87209  -0.85639  -0.84847  -0.84754  -0.82776
 Alpha  occ. eigenvalues --   -0.81732  -0.81248  -0.81155  -0.80620  -0.79913
 Alpha  occ. eigenvalues --   -0.78272  -0.77765  -0.77034  -0.75258  -0.74812
 Alpha  occ. eigenvalues --   -0.74255  -0.73990  -0.73685  -0.72654  -0.71600
 Alpha  occ. eigenvalues --   -0.71295  -0.71142  -0.70898  -0.68452  -0.67149
 Alpha  occ. eigenvalues --   -0.66055  -0.65836  -0.65164  -0.63977  -0.63711
 Alpha  occ. eigenvalues --   -0.62842  -0.61752  -0.61353  -0.60807  -0.60506
 Alpha  occ. eigenvalues --   -0.59054  -0.58906  -0.57986  -0.57650  -0.57470
 Alpha  occ. eigenvalues --   -0.57290  -0.57043  -0.56915  -0.56733  -0.56674
 Alpha  occ. eigenvalues --   -0.55852  -0.55383  -0.55114  -0.54530  -0.54329
 Alpha  occ. eigenvalues --   -0.54127  -0.53766  -0.53570  -0.53242  -0.53082
 Alpha  occ. eigenvalues --   -0.52660  -0.52521  -0.52429  -0.52279  -0.52253
 Alpha  occ. eigenvalues --   -0.52023  -0.51900  -0.51573  -0.51559  -0.51415
 Alpha  occ. eigenvalues --   -0.51142  -0.51031  -0.50753  -0.50667  -0.50414
 Alpha  occ. eigenvalues --   -0.50360  -0.50118  -0.49932  -0.49837  -0.49512
 Alpha  occ. eigenvalues --   -0.49207  -0.49071  -0.48704  -0.48457  -0.48270
 Alpha  occ. eigenvalues --   -0.47901  -0.47760  -0.47632  -0.47510  -0.46950
 Alpha  occ. eigenvalues --   -0.46853  -0.46652  -0.46352  -0.46294  -0.46021
 Alpha  occ. eigenvalues --   -0.45701  -0.45446  -0.45078  -0.44235  -0.44053
 Alpha  occ. eigenvalues --   -0.43985  -0.43663  -0.43420  -0.43219  -0.42961
 Alpha  occ. eigenvalues --   -0.42156  -0.41669  -0.41542  -0.41340  -0.40866
 Alpha  occ. eigenvalues --   -0.39213  -0.39073  -0.37653  -0.37502  -0.37351
 Alpha  occ. eigenvalues --   -0.36068  -0.34563  -0.34328  -0.33833  -0.33721
 Alpha  occ. eigenvalues --   -0.33538  -0.32692  -0.32253  -0.30136  -0.29554
 Alpha  occ. eigenvalues --   -0.28729  -0.28497  -0.27333
 Alpha virt. eigenvalues --   -0.16859  -0.16535  -0.16287  -0.10070  -0.08892
 Alpha virt. eigenvalues --   -0.07478  -0.06902  -0.05878  -0.05086  -0.04781
 Alpha virt. eigenvalues --   -0.04577  -0.04431  -0.03934  -0.03706  -0.03405
 Alpha virt. eigenvalues --   -0.03304  -0.02830  -0.02371  -0.02111  -0.01806
 Alpha virt. eigenvalues --   -0.01285  -0.01136  -0.00976  -0.00961  -0.00594
 Alpha virt. eigenvalues --   -0.00254   0.00170   0.00346   0.00663   0.00883
 Alpha virt. eigenvalues --    0.01141   0.01387   0.01693   0.02033   0.02110
 Alpha virt. eigenvalues --    0.02453   0.02847   0.02940   0.03261   0.03559
 Alpha virt. eigenvalues --    0.03601   0.03730   0.04036   0.04315   0.04342
 Alpha virt. eigenvalues --    0.04493   0.04830   0.04921   0.04956   0.05192
 Alpha virt. eigenvalues --    0.05342   0.05566   0.05766   0.05950   0.06350
 Alpha virt. eigenvalues --    0.06583   0.06669   0.06697   0.06938   0.07161
 Alpha virt. eigenvalues --    0.07383   0.07568   0.07603   0.07724   0.08093
 Alpha virt. eigenvalues --    0.08238   0.08585   0.08855   0.08894   0.09021
 Alpha virt. eigenvalues --    0.09304   0.09427   0.09596   0.09708   0.10046
 Alpha virt. eigenvalues --    0.10288   0.10558   0.10692   0.11035   0.11184
 Alpha virt. eigenvalues --    0.11436   0.11580   0.11778   0.12030   0.12176
 Alpha virt. eigenvalues --    0.12292   0.12652   0.12898   0.13228   0.13432
 Alpha virt. eigenvalues --    0.13728   0.13963   0.14100   0.14299   0.14633
 Alpha virt. eigenvalues --    0.14669   0.14784   0.15125   0.15230   0.15419
 Alpha virt. eigenvalues --    0.15465   0.15602   0.15799   0.16000   0.16182
 Alpha virt. eigenvalues --    0.16504   0.16647   0.16715   0.17048   0.17241
 Alpha virt. eigenvalues --    0.17536   0.17702   0.17915   0.18006   0.18211
 Alpha virt. eigenvalues --    0.18367   0.18622   0.18788   0.18942   0.19106
 Alpha virt. eigenvalues --    0.19414   0.19847   0.20061   0.20105   0.20368
 Alpha virt. eigenvalues --    0.20599   0.20697   0.20769   0.20818   0.21275
 Alpha virt. eigenvalues --    0.21405   0.21532   0.21899   0.22030   0.22125
 Alpha virt. eigenvalues --    0.22519   0.22751   0.22869   0.23318   0.23470
 Alpha virt. eigenvalues --    0.23616   0.23965   0.24044   0.24353   0.24897
 Alpha virt. eigenvalues --    0.25160   0.25417   0.25549   0.25888   0.25934
 Alpha virt. eigenvalues --    0.26164   0.26389   0.26467   0.26693   0.26938
 Alpha virt. eigenvalues --    0.27336   0.27722   0.27765   0.27913   0.28062
 Alpha virt. eigenvalues --    0.28293   0.28515   0.28640   0.28778   0.29231
 Alpha virt. eigenvalues --    0.29433   0.29610   0.29915   0.29960   0.30215
 Alpha virt. eigenvalues --    0.30422   0.30462   0.30659   0.30857   0.30888
 Alpha virt. eigenvalues --    0.31336   0.31382   0.31666   0.31975   0.32123
 Alpha virt. eigenvalues --    0.32246   0.32383   0.32645   0.32851   0.33006
 Alpha virt. eigenvalues --    0.33158   0.33404   0.33516   0.33751   0.33804
 Alpha virt. eigenvalues --    0.34014   0.34365   0.34472   0.34622   0.34638
 Alpha virt. eigenvalues --    0.34914   0.35016   0.35211   0.35400   0.35654
 Alpha virt. eigenvalues --    0.35878   0.36032   0.36152   0.36356   0.36457
 Alpha virt. eigenvalues --    0.36591   0.36878   0.36960   0.37086   0.37446
 Alpha virt. eigenvalues --    0.37462   0.37810   0.38168   0.38271   0.38448
 Alpha virt. eigenvalues --    0.38587   0.38725   0.38760   0.38922   0.39039
 Alpha virt. eigenvalues --    0.39097   0.39266   0.39308   0.39555   0.39610
 Alpha virt. eigenvalues --    0.39840   0.40012   0.40291   0.40309   0.40584
 Alpha virt. eigenvalues --    0.40902   0.41024   0.41124   0.41358   0.41672
 Alpha virt. eigenvalues --    0.41745   0.41771   0.42031   0.42140   0.42354
 Alpha virt. eigenvalues --    0.42464   0.42650   0.42943   0.43065   0.43114
 Alpha virt. eigenvalues --    0.43323   0.43499   0.43615   0.43853   0.43905
 Alpha virt. eigenvalues --    0.43926   0.44192   0.44474   0.44527   0.44718
 Alpha virt. eigenvalues --    0.44861   0.44954   0.45237   0.45640   0.45850
 Alpha virt. eigenvalues --    0.45964   0.46231   0.46285   0.46480   0.46848
 Alpha virt. eigenvalues --    0.46911   0.47072   0.47153   0.47615   0.47714
 Alpha virt. eigenvalues --    0.47797   0.47939   0.48359   0.48531   0.48609
 Alpha virt. eigenvalues --    0.48704   0.49112   0.49194   0.49449   0.49527
 Alpha virt. eigenvalues --    0.49728   0.49916   0.50146   0.50194   0.50468
 Alpha virt. eigenvalues --    0.50678   0.51081   0.51236   0.51540   0.51855
 Alpha virt. eigenvalues --    0.52068   0.52267   0.52727   0.52822   0.53059
 Alpha virt. eigenvalues --    0.53227   0.53496   0.53711   0.53909   0.53984
 Alpha virt. eigenvalues --    0.54356   0.54814   0.55120   0.55235   0.55355
 Alpha virt. eigenvalues --    0.55699   0.56007   0.56199   0.56570   0.56653
 Alpha virt. eigenvalues --    0.57085   0.57155   0.57403   0.57589   0.57642
 Alpha virt. eigenvalues --    0.57827   0.58199   0.58593   0.58723   0.58846
 Alpha virt. eigenvalues --    0.59229   0.59422   0.59522   0.59972   0.60391
 Alpha virt. eigenvalues --    0.60534   0.60709   0.61284   0.61441   0.61642
 Alpha virt. eigenvalues --    0.61955   0.62474   0.62482   0.63051   0.63331
 Alpha virt. eigenvalues --    0.63638   0.64025   0.64154   0.64346   0.64608
 Alpha virt. eigenvalues --    0.64650   0.65180   0.65503   0.65719   0.66040
 Alpha virt. eigenvalues --    0.66597   0.66745   0.66937   0.67312   0.67421
 Alpha virt. eigenvalues --    0.67651   0.67846   0.68282   0.68471   0.68608
 Alpha virt. eigenvalues --    0.69137   0.69294   0.69708   0.70129   0.70554
 Alpha virt. eigenvalues --    0.70634   0.70868   0.71169   0.71623   0.71881
 Alpha virt. eigenvalues --    0.71976   0.72501   0.72714   0.72759   0.72929
 Alpha virt. eigenvalues --    0.73600   0.73709   0.74297   0.74399   0.74529
 Alpha virt. eigenvalues --    0.74689   0.75008   0.75206   0.75738   0.75825
 Alpha virt. eigenvalues --    0.76053   0.76890   0.76957   0.77233   0.77654
 Alpha virt. eigenvalues --    0.77809   0.78006   0.78488   0.78605   0.78757
 Alpha virt. eigenvalues --    0.79144   0.79324   0.79775   0.80223   0.80463
 Alpha virt. eigenvalues --    0.80901   0.81214   0.81258   0.81429   0.82009
 Alpha virt. eigenvalues --    0.82448   0.82561   0.82825   0.82976   0.83191
 Alpha virt. eigenvalues --    0.83342   0.83617   0.84068   0.84265   0.84496
 Alpha virt. eigenvalues --    0.84899   0.85036   0.85259   0.85649   0.85948
 Alpha virt. eigenvalues --    0.86092   0.86738   0.86900   0.87005   0.87114
 Alpha virt. eigenvalues --    0.87577   0.87846   0.87970   0.88186   0.88274
 Alpha virt. eigenvalues --    0.88503   0.88685   0.88853   0.89080   0.89367
 Alpha virt. eigenvalues --    0.89472   0.89606   0.89979   0.90199   0.90624
 Alpha virt. eigenvalues --    0.90795   0.90974   0.91155   0.91543   0.91843
 Alpha virt. eigenvalues --    0.92116   0.92453   0.93335   0.93379   0.93664
 Alpha virt. eigenvalues --    0.93825   0.94112   0.94236   0.94749   0.95010
 Alpha virt. eigenvalues --    0.95168   0.95273   0.95434   0.95866   0.96111
 Alpha virt. eigenvalues --    0.96401   0.96572   0.96771   0.97082   0.97197
 Alpha virt. eigenvalues --    0.97591   0.98091   0.98506   0.98722   0.99064
 Alpha virt. eigenvalues --    0.99196   0.99928   1.00066   1.00216   1.00586
 Alpha virt. eigenvalues --    1.00874   1.01399   1.01494   1.01541   1.02013
 Alpha virt. eigenvalues --    1.02392   1.02563   1.02963   1.03379   1.03627
 Alpha virt. eigenvalues --    1.04005   1.04043   1.04329   1.04499   1.04709
 Alpha virt. eigenvalues --    1.05460   1.05770   1.06040   1.06118   1.06297
 Alpha virt. eigenvalues --    1.06480   1.06744   1.06975   1.07556   1.08099
 Alpha virt. eigenvalues --    1.08612   1.08803   1.09200   1.09585   1.09616
 Alpha virt. eigenvalues --    1.09865   1.10374   1.10924   1.11041   1.11087
 Alpha virt. eigenvalues --    1.11925   1.11935   1.12262   1.12480   1.12766
 Alpha virt. eigenvalues --    1.13158   1.13321   1.13665   1.13993   1.14177
 Alpha virt. eigenvalues --    1.14416   1.14752   1.15371   1.15741   1.16019
 Alpha virt. eigenvalues --    1.16267   1.16495   1.17086   1.17161   1.17449
 Alpha virt. eigenvalues --    1.17764   1.18056   1.18571   1.19036   1.19176
 Alpha virt. eigenvalues --    1.19519   1.20133   1.20446   1.20640   1.20692
 Alpha virt. eigenvalues --    1.21399   1.21659   1.21867   1.22772   1.23027
 Alpha virt. eigenvalues --    1.23173   1.23288   1.23840   1.24400   1.24605
 Alpha virt. eigenvalues --    1.24737   1.25070   1.25982   1.26248   1.26468
 Alpha virt. eigenvalues --    1.26734   1.27160   1.27287   1.27731   1.28021
 Alpha virt. eigenvalues --    1.28420   1.28796   1.29068   1.29361   1.30080
 Alpha virt. eigenvalues --    1.30318   1.31284   1.31376   1.31835   1.32233
 Alpha virt. eigenvalues --    1.32524   1.32947   1.33336   1.33829   1.33906
 Alpha virt. eigenvalues --    1.34518   1.34936   1.35303   1.35621   1.35813
 Alpha virt. eigenvalues --    1.36136   1.36791   1.37332   1.37543   1.37609
 Alpha virt. eigenvalues --    1.38204   1.38312   1.38663   1.39151   1.39401
 Alpha virt. eigenvalues --    1.39835   1.39975   1.40183   1.40695   1.40948
 Alpha virt. eigenvalues --    1.41037   1.41600   1.41834   1.42145   1.42325
 Alpha virt. eigenvalues --    1.42606   1.43016   1.43464   1.43617   1.43955
 Alpha virt. eigenvalues --    1.44286   1.44614   1.44630   1.45066   1.45374
 Alpha virt. eigenvalues --    1.45493   1.45751   1.46003   1.46121   1.46181
 Alpha virt. eigenvalues --    1.46249   1.46710   1.46768   1.46988   1.47411
 Alpha virt. eigenvalues --    1.47473   1.47782   1.48047   1.48098   1.48256
 Alpha virt. eigenvalues --    1.48583   1.48765   1.48934   1.49269   1.49285
 Alpha virt. eigenvalues --    1.49700   1.50154   1.50274   1.50647   1.50818
 Alpha virt. eigenvalues --    1.51161   1.51526   1.51624   1.51830   1.52120
 Alpha virt. eigenvalues --    1.52262   1.52398   1.52679   1.52874   1.53212
 Alpha virt. eigenvalues --    1.53250   1.53885   1.54227   1.54458   1.54681
 Alpha virt. eigenvalues --    1.54798   1.54921   1.55153   1.55591   1.56040
 Alpha virt. eigenvalues --    1.56264   1.56501   1.56721   1.56983   1.57120
 Alpha virt. eigenvalues --    1.57262   1.57391   1.57770   1.57924   1.58061
 Alpha virt. eigenvalues --    1.58328   1.58459   1.58745   1.58888   1.59232
 Alpha virt. eigenvalues --    1.59583   1.59896   1.60151   1.60433   1.60482
 Alpha virt. eigenvalues --    1.61015   1.61317   1.61706   1.61801   1.62154
 Alpha virt. eigenvalues --    1.62546   1.62698   1.63050   1.63203   1.63412
 Alpha virt. eigenvalues --    1.63618   1.64068   1.64232   1.64397   1.64777
 Alpha virt. eigenvalues --    1.65124   1.65402   1.65529   1.66065   1.66318
 Alpha virt. eigenvalues --    1.66592   1.66903   1.67326   1.67927   1.68342
 Alpha virt. eigenvalues --    1.68648   1.68876   1.69113   1.69723   1.69992
 Alpha virt. eigenvalues --    1.70124   1.70578   1.71085   1.71150   1.71627
 Alpha virt. eigenvalues --    1.72143   1.72507   1.72781   1.73121   1.74069
 Alpha virt. eigenvalues --    1.74281   1.74469   1.75646   1.75901   1.76275
 Alpha virt. eigenvalues --    1.76395   1.76791   1.77377   1.77744   1.77818
 Alpha virt. eigenvalues --    1.78337   1.78527   1.79258   1.79520   1.79989
 Alpha virt. eigenvalues --    1.80197   1.80511   1.81010   1.81172   1.81999
 Alpha virt. eigenvalues --    1.82154   1.82478   1.82799   1.83135   1.83455
 Alpha virt. eigenvalues --    1.83853   1.84244   1.84562   1.84653   1.85014
 Alpha virt. eigenvalues --    1.85135   1.85726   1.86344   1.86927   1.87187
 Alpha virt. eigenvalues --    1.87456   1.87694   1.87897   1.88164   1.88206
 Alpha virt. eigenvalues --    1.88867   1.89223   1.89417   1.89777   1.90278
 Alpha virt. eigenvalues --    1.90523   1.90869   1.91173   1.91379   1.91874
 Alpha virt. eigenvalues --    1.92182   1.92311   1.92664   1.93058   1.93163
 Alpha virt. eigenvalues --    1.93241   1.93856   1.94461   1.94961   1.95280
 Alpha virt. eigenvalues --    1.95645   1.95992   1.96260   1.96536   1.96787
 Alpha virt. eigenvalues --    1.96999   1.97321   1.97818   1.97896   1.98502
 Alpha virt. eigenvalues --    1.98699   1.98934   1.99368   1.99805   2.00013
 Alpha virt. eigenvalues --    2.00112   2.00579   2.01132   2.01271   2.02120
 Alpha virt. eigenvalues --    2.02241   2.02427   2.03026   2.03464   2.03666
 Alpha virt. eigenvalues --    2.03999   2.04461   2.04661   2.04866   2.05082
 Alpha virt. eigenvalues --    2.05939   2.05991   2.06156   2.06467   2.06896
 Alpha virt. eigenvalues --    2.07148   2.07396   2.07714   2.07930   2.08099
 Alpha virt. eigenvalues --    2.08269   2.08735   2.08867   2.09484   2.09751
 Alpha virt. eigenvalues --    2.10124   2.10241   2.10694   2.10979   2.11112
 Alpha virt. eigenvalues --    2.11540   2.11743   2.12191   2.12495   2.12658
 Alpha virt. eigenvalues --    2.13304   2.13410   2.13653   2.13865   2.14111
 Alpha virt. eigenvalues --    2.14527   2.15031   2.15353   2.15827   2.16644
 Alpha virt. eigenvalues --    2.16822   2.16980   2.17416   2.17677   2.18283
 Alpha virt. eigenvalues --    2.18520   2.19498   2.19633   2.19944   2.20400
 Alpha virt. eigenvalues --    2.20683   2.20861   2.21156   2.21277   2.21793
 Alpha virt. eigenvalues --    2.22165   2.22280   2.23089   2.23413   2.23422
 Alpha virt. eigenvalues --    2.23887   2.24142   2.24695   2.24864   2.25414
 Alpha virt. eigenvalues --    2.25584   2.25747   2.26426   2.26749   2.27010
 Alpha virt. eigenvalues --    2.27225   2.27337   2.27869   2.28010   2.28375
 Alpha virt. eigenvalues --    2.28394   2.28580   2.28694   2.29394   2.29426
 Alpha virt. eigenvalues --    2.29830   2.30121   2.30466   2.30753   2.31291
 Alpha virt. eigenvalues --    2.31818   2.32078   2.32316   2.32763   2.33394
 Alpha virt. eigenvalues --    2.33615   2.33876   2.34280   2.34442   2.35337
 Alpha virt. eigenvalues --    2.35388   2.35779   2.36165   2.36539   2.36924
 Alpha virt. eigenvalues --    2.37223   2.37445   2.37821   2.38150   2.38396
 Alpha virt. eigenvalues --    2.38600   2.38653   2.39213   2.39461   2.39886
 Alpha virt. eigenvalues --    2.40736   2.41005   2.41493   2.41863   2.42024
 Alpha virt. eigenvalues --    2.42515   2.42710   2.43178   2.43734   2.43938
 Alpha virt. eigenvalues --    2.43997   2.44266   2.44948   2.45353   2.45914
 Alpha virt. eigenvalues --    2.46111   2.46304   2.46579   2.46781   2.47622
 Alpha virt. eigenvalues --    2.47903   2.48326   2.48677   2.48989   2.49356
 Alpha virt. eigenvalues --    2.49734   2.49779   2.50117   2.50438   2.50966
 Alpha virt. eigenvalues --    2.51038   2.51280   2.51642   2.51917   2.52188
 Alpha virt. eigenvalues --    2.52392   2.52718   2.53180   2.53715   2.53805
 Alpha virt. eigenvalues --    2.54341   2.54509   2.54840   2.54957   2.55172
 Alpha virt. eigenvalues --    2.55279   2.55704   2.55856   2.56186   2.56365
 Alpha virt. eigenvalues --    2.56485   2.56925   2.57182   2.57485   2.57721
 Alpha virt. eigenvalues --    2.58112   2.58261   2.58601   2.59039   2.59802
 Alpha virt. eigenvalues --    2.59920   2.60440   2.61073   2.61117   2.61370
 Alpha virt. eigenvalues --    2.61470   2.61894   2.62176   2.62584   2.62849
 Alpha virt. eigenvalues --    2.63060   2.63324   2.63643   2.63836   2.64409
 Alpha virt. eigenvalues --    2.64595   2.65155   2.65495   2.65785   2.65881
 Alpha virt. eigenvalues --    2.66340   2.66657   2.66976   2.67321   2.67616
 Alpha virt. eigenvalues --    2.67833   2.68404   2.68715   2.69111   2.69232
 Alpha virt. eigenvalues --    2.69828   2.70282   2.70583   2.71256   2.71499
 Alpha virt. eigenvalues --    2.71800   2.72006   2.72404   2.72457   2.72646
 Alpha virt. eigenvalues --    2.72911   2.73032   2.73572   2.74049   2.74222
 Alpha virt. eigenvalues --    2.74639   2.74779   2.75330   2.75623   2.75789
 Alpha virt. eigenvalues --    2.76249   2.76976   2.77358   2.77502   2.77766
 Alpha virt. eigenvalues --    2.77847   2.78262   2.78588   2.78888   2.79027
 Alpha virt. eigenvalues --    2.79529   2.80011   2.80397   2.80568   2.80794
 Alpha virt. eigenvalues --    2.81162   2.81446   2.81881   2.82035   2.82401
 Alpha virt. eigenvalues --    2.82462   2.82682   2.83085   2.83480   2.83766
 Alpha virt. eigenvalues --    2.84063   2.84448   2.84972   2.85234   2.85522
 Alpha virt. eigenvalues --    2.85752   2.85908   2.86266   2.86687   2.86898
 Alpha virt. eigenvalues --    2.87226   2.87338   2.87506   2.87854   2.88199
 Alpha virt. eigenvalues --    2.88528   2.88849   2.89152   2.89555   2.89952
 Alpha virt. eigenvalues --    2.90207   2.90412   2.90766   2.90835   2.91020
 Alpha virt. eigenvalues --    2.91223   2.91882   2.92347   2.92582   2.92736
 Alpha virt. eigenvalues --    2.93054   2.93267   2.93566   2.93857   2.94245
 Alpha virt. eigenvalues --    2.94338   2.94747   2.95119   2.95334   2.95704
 Alpha virt. eigenvalues --    2.96125   2.96385   2.96739   2.96987   2.97350
 Alpha virt. eigenvalues --    2.97543   2.97812   2.97930   2.98291   2.98559
 Alpha virt. eigenvalues --    2.98700   2.98971   2.99234   2.99829   3.00208
 Alpha virt. eigenvalues --    3.00293   3.00452   3.00926   3.00959   3.01076
 Alpha virt. eigenvalues --    3.01414   3.01675   3.01775   3.02166   3.02406
 Alpha virt. eigenvalues --    3.02511   3.02797   3.03222   3.03462   3.03826
 Alpha virt. eigenvalues --    3.03975   3.04239   3.04372   3.04582   3.04928
 Alpha virt. eigenvalues --    3.05296   3.05541   3.05720   3.05805   3.06392
 Alpha virt. eigenvalues --    3.06557   3.06738   3.06854   3.07169   3.07584
 Alpha virt. eigenvalues --    3.07651   3.07925   3.08124   3.08326   3.08642
 Alpha virt. eigenvalues --    3.08906   3.08926   3.09333   3.09587   3.09695
 Alpha virt. eigenvalues --    3.09959   3.10341   3.10611   3.10722   3.11106
 Alpha virt. eigenvalues --    3.11453   3.11568   3.11703   3.12165   3.12405
 Alpha virt. eigenvalues --    3.12966   3.13072   3.13271   3.13722   3.13904
 Alpha virt. eigenvalues --    3.14127   3.14409   3.14470   3.14634   3.15107
 Alpha virt. eigenvalues --    3.15330   3.15538   3.15805   3.15882   3.16202
 Alpha virt. eigenvalues --    3.16502   3.16591   3.16908   3.17141   3.17223
 Alpha virt. eigenvalues --    3.17621   3.18046   3.18211   3.18308   3.18458
 Alpha virt. eigenvalues --    3.18745   3.19050   3.19360   3.19790   3.19966
 Alpha virt. eigenvalues --    3.20095   3.20236   3.20877   3.21023   3.21201
 Alpha virt. eigenvalues --    3.21628   3.21871   3.22150   3.22333   3.22674
 Alpha virt. eigenvalues --    3.22891   3.23028   3.23068   3.23208   3.23745
 Alpha virt. eigenvalues --    3.23957   3.24352   3.24597   3.24867   3.24931
 Alpha virt. eigenvalues --    3.25307   3.25657   3.25980   3.26049   3.26487
 Alpha virt. eigenvalues --    3.26872   3.27191   3.27358   3.27602   3.27940
 Alpha virt. eigenvalues --    3.28031   3.28247   3.28411   3.28573   3.28861
 Alpha virt. eigenvalues --    3.28889   3.29183   3.29529   3.29765   3.29863
 Alpha virt. eigenvalues --    3.29977   3.30415   3.30645   3.30886   3.31107
 Alpha virt. eigenvalues --    3.31155   3.31487   3.31653   3.31974   3.32162
 Alpha virt. eigenvalues --    3.32420   3.32533   3.32904   3.33117   3.33422
 Alpha virt. eigenvalues --    3.33751   3.34086   3.34466   3.34798   3.34962
 Alpha virt. eigenvalues --    3.35044   3.35510   3.35790   3.35899   3.36233
 Alpha virt. eigenvalues --    3.36529   3.36763   3.36801   3.36982   3.37641
 Alpha virt. eigenvalues --    3.37826   3.38109   3.38316   3.38401   3.38617
 Alpha virt. eigenvalues --    3.38897   3.39421   3.39781   3.40153   3.40443
 Alpha virt. eigenvalues --    3.40628   3.41331   3.41537   3.41665   3.41888
 Alpha virt. eigenvalues --    3.42036   3.42305   3.42926   3.43239   3.43650
 Alpha virt. eigenvalues --    3.44116   3.44563   3.44841   3.45171   3.45216
 Alpha virt. eigenvalues --    3.45529   3.45993   3.46400   3.46585   3.46799
 Alpha virt. eigenvalues --    3.47265   3.47341   3.47751   3.48138   3.48390
 Alpha virt. eigenvalues --    3.49079   3.49470   3.49659   3.50003   3.50303
 Alpha virt. eigenvalues --    3.50598   3.50991   3.51191   3.51493   3.51670
 Alpha virt. eigenvalues --    3.51963   3.52449   3.52880   3.53174   3.53343
 Alpha virt. eigenvalues --    3.53606   3.53798   3.54156   3.54414   3.54662
 Alpha virt. eigenvalues --    3.55211   3.55420   3.55693   3.56152   3.56328
 Alpha virt. eigenvalues --    3.56748   3.57286   3.57396   3.57689   3.58001
 Alpha virt. eigenvalues --    3.58764   3.59358   3.59426   3.59624   3.59900
 Alpha virt. eigenvalues --    3.60105   3.60632   3.60780   3.61293   3.61695
 Alpha virt. eigenvalues --    3.61944   3.62432   3.62639   3.63335   3.63950
 Alpha virt. eigenvalues --    3.64341   3.64392   3.64621   3.65067   3.65235
 Alpha virt. eigenvalues --    3.65734   3.65949   3.66138   3.66660   3.66922
 Alpha virt. eigenvalues --    3.67253   3.67514   3.67754   3.67956   3.68232
 Alpha virt. eigenvalues --    3.68612   3.69004   3.69406   3.69823   3.69932
 Alpha virt. eigenvalues --    3.70276   3.70879   3.71424   3.71720   3.72251
 Alpha virt. eigenvalues --    3.72688   3.74011   3.74386   3.74451   3.75044
 Alpha virt. eigenvalues --    3.75456   3.75738   3.75921   3.76335   3.76507
 Alpha virt. eigenvalues --    3.76898   3.77501   3.78435   3.78509   3.78620
 Alpha virt. eigenvalues --    3.78868   3.79661   3.80065   3.80467   3.81439
 Alpha virt. eigenvalues --    3.81633   3.82133   3.82469   3.83054   3.83386
 Alpha virt. eigenvalues --    3.83871   3.84204   3.84639   3.84946   3.85272
 Alpha virt. eigenvalues --    3.85861   3.86197   3.86745   3.87240   3.87713
 Alpha virt. eigenvalues --    3.88197   3.88603   3.88989   3.89589   3.89997
 Alpha virt. eigenvalues --    3.90245   3.90659   3.91086   3.91320   3.91997
 Alpha virt. eigenvalues --    3.92218   3.92615   3.93094   3.94084   3.94190
 Alpha virt. eigenvalues --    3.94340   3.94858   3.95531   3.95818   3.96774
 Alpha virt. eigenvalues --    3.97089   3.97616   3.98111   3.98327   3.99049
 Alpha virt. eigenvalues --    3.99399   4.00198   4.01197   4.01883   4.02031
 Alpha virt. eigenvalues --    4.02488   4.03260   4.04177   4.04341   4.05243
 Alpha virt. eigenvalues --    4.05434   4.05922   4.06821   4.07201   4.07973
 Alpha virt. eigenvalues --    4.08906   4.09143   4.09561   4.10055   4.10604
 Alpha virt. eigenvalues --    4.10984   4.11273   4.12207   4.12390   4.13156
 Alpha virt. eigenvalues --    4.13432   4.13660   4.13980   4.14530   4.15103
 Alpha virt. eigenvalues --    4.15713   4.16491   4.16707   4.17369   4.17650
 Alpha virt. eigenvalues --    4.17918   4.18443   4.19040   4.19543   4.20210
 Alpha virt. eigenvalues --    4.20457   4.21008   4.21413   4.22290   4.22714
 Alpha virt. eigenvalues --    4.22840   4.23214   4.23750   4.24661   4.25028
 Alpha virt. eigenvalues --    4.25318   4.25500   4.26431   4.27010   4.27125
 Alpha virt. eigenvalues --    4.27561   4.28528   4.28562   4.29018   4.29959
 Alpha virt. eigenvalues --    4.30379   4.30563   4.30849   4.31372   4.31580
 Alpha virt. eigenvalues --    4.31867   4.32349   4.32610   4.32975   4.33414
 Alpha virt. eigenvalues --    4.33977   4.34440   4.35349   4.35677   4.36252
 Alpha virt. eigenvalues --    4.36504   4.37579   4.37813   4.38274   4.39126
 Alpha virt. eigenvalues --    4.39797   4.40353   4.40451   4.40731   4.41396
 Alpha virt. eigenvalues --    4.41557   4.42135   4.42741   4.42909   4.43209
 Alpha virt. eigenvalues --    4.43439   4.43796   4.44494   4.44992   4.45295
 Alpha virt. eigenvalues --    4.46430   4.47066   4.48158   4.49756   4.50831
 Alpha virt. eigenvalues --    4.51749   4.52307   4.52546   4.53915   4.54096
 Alpha virt. eigenvalues --    4.54755   4.55216   4.55617   4.56928   4.57092
 Alpha virt. eigenvalues --    4.57353   4.58110   4.58705   4.59177   4.60001
 Alpha virt. eigenvalues --    4.60121   4.60487   4.60983   4.61618   4.62268
 Alpha virt. eigenvalues --    4.62483   4.63133   4.63612   4.64201   4.64567
 Alpha virt. eigenvalues --    4.65065   4.66041   4.66549   4.66986   4.67144
 Alpha virt. eigenvalues --    4.68021   4.69113   4.69304   4.70097   4.70495
 Alpha virt. eigenvalues --    4.71275   4.71365   4.72205   4.72666   4.73252
 Alpha virt. eigenvalues --    4.74179   4.74474   4.74811   4.75335   4.75535
 Alpha virt. eigenvalues --    4.76314   4.76534   4.76884   4.77672   4.77910
 Alpha virt. eigenvalues --    4.78959   4.79776   4.80363   4.80981   4.81485
 Alpha virt. eigenvalues --    4.81853   4.82573   4.83223   4.84523   4.84664
 Alpha virt. eigenvalues --    4.85178   4.85897   4.85982   4.86297   4.87234
 Alpha virt. eigenvalues --    4.88946   4.89311   4.89453   4.90149   4.90506
 Alpha virt. eigenvalues --    4.91548   4.91962   4.93189   4.93962   4.94387
 Alpha virt. eigenvalues --    4.94847   4.95277   4.96094   4.96806   4.97495
 Alpha virt. eigenvalues --    4.98362   4.99200   5.00304   5.00603   5.01506
 Alpha virt. eigenvalues --    5.02624   5.03272   5.04406   5.05832   5.06971
 Alpha virt. eigenvalues --    5.07240   5.08179   5.09660   5.10075   5.11508
 Alpha virt. eigenvalues --    5.12327   5.12652   5.13163   5.13927   5.14107
 Alpha virt. eigenvalues --    5.14917   5.15192   5.15813   5.16427   5.16610
 Alpha virt. eigenvalues --    5.16967   5.17422   5.17991   5.18389   5.20045
 Alpha virt. eigenvalues --    5.21315   5.21565   5.22443   5.23619   5.24771
 Alpha virt. eigenvalues --    5.24904   5.26426   5.26898   5.26946   5.27242
 Alpha virt. eigenvalues --    5.28128   5.28819   5.30060   5.31056   5.33057
 Alpha virt. eigenvalues --    5.33583   5.34544   5.35031   5.35778   5.36541
 Alpha virt. eigenvalues --    5.36983   5.37349   5.37837   5.38475   5.39699
 Alpha virt. eigenvalues --    5.40182   5.41042   5.42878   5.44883   5.45495
 Alpha virt. eigenvalues --    5.46221   5.46539   5.47823   5.48432   5.48843
 Alpha virt. eigenvalues --    5.50133   5.50857   5.51310   5.52872   5.54028
 Alpha virt. eigenvalues --    5.54591   5.54778   5.56481   5.56594   5.57603
 Alpha virt. eigenvalues --    5.59162   5.60296   5.60644   5.62244   5.63553
 Alpha virt. eigenvalues --    5.64937   5.67037   5.69104   5.72079   5.73181
 Alpha virt. eigenvalues --    5.74455   5.75002   5.76371   5.78719   5.84384
 Alpha virt. eigenvalues --    5.85497   5.86937   5.87672   5.89453   5.90309
 Alpha virt. eigenvalues --    5.91664   5.92341   5.93269   5.94681   5.96136
 Alpha virt. eigenvalues --    5.97433   5.98762   6.01428   6.01786   6.02026
 Alpha virt. eigenvalues --    6.02649   6.04303   6.04464   6.08077   6.08285
 Alpha virt. eigenvalues --    6.09016   6.12293   6.12414   6.16900   6.18993
 Alpha virt. eigenvalues --    6.19494   6.19912   6.21439   6.23935   6.29364
 Alpha virt. eigenvalues --    6.30415   6.35946   6.40177   6.42100   6.43255
 Alpha virt. eigenvalues --    6.46502   6.47243   6.58031   6.63924   6.66925
 Alpha virt. eigenvalues --    6.69777   6.79142   6.81902   6.85775   6.87027
 Alpha virt. eigenvalues --    6.91470   6.95828   7.05307   7.07475   7.07687
 Alpha virt. eigenvalues --    7.11589   7.18191   7.32255  22.30863  22.31458
 Alpha virt. eigenvalues --   22.41737  22.42148  22.44358  22.44763  22.45365
 Alpha virt. eigenvalues --   22.46958  22.50633  22.51960  22.54807  22.59782
 Alpha virt. eigenvalues --   22.62447  22.63381  22.73902  22.74606  22.77573
 Alpha virt. eigenvalues --   22.79030  22.81792  22.85329  22.87651  22.95004
 Alpha virt. eigenvalues --   22.95996  23.04094  23.05195  23.06579  23.13337
 Alpha virt. eigenvalues --   23.15092  23.18671  23.23646  23.25229  23.27225
 Alpha virt. eigenvalues --   23.30102  23.34896  23.36014  23.41287  23.44352
 Alpha virt. eigenvalues --   23.55146  23.58157  23.60939  23.65297  23.75509
 Alpha virt. eigenvalues --   32.39206  32.39898  32.71854  32.78102  32.92438
 Alpha virt. eigenvalues --   32.95539  32.98603  33.30855  43.86624  43.88634
 Alpha virt. eigenvalues --   43.90564  43.91907
  Beta  occ. eigenvalues -- -256.49263 -30.23878 -26.07268 -26.07229 -26.06016
  Beta  occ. eigenvalues --  -19.33879 -19.32530 -19.26181 -19.22436 -14.53744
  Beta  occ. eigenvalues --  -14.53351 -14.47691 -14.47587 -14.47563 -14.47402
  Beta  occ. eigenvalues --  -14.47385 -14.47271 -10.43685 -10.40596 -10.37665
  Beta  occ. eigenvalues --  -10.37346 -10.34799 -10.34755 -10.34745 -10.34628
  Beta  occ. eigenvalues --  -10.34573 -10.34571 -10.34419 -10.34407 -10.34338
  Beta  occ. eigenvalues --  -10.34126 -10.32279 -10.32114 -10.32108 -10.31910
  Beta  occ. eigenvalues --  -10.31815 -10.31797 -10.31742 -10.31647 -10.31515
  Beta  occ. eigenvalues --  -10.31508 -10.31431 -10.31383 -10.31270 -10.31091
  Beta  occ. eigenvalues --  -10.31061 -10.31056 -10.31027 -10.30949 -10.30805
  Beta  occ. eigenvalues --  -10.30590 -10.30319 -10.30014 -10.29851 -10.29596
  Beta  occ. eigenvalues --  -10.29309 -10.29067 -10.28492 -10.28353  -3.54482
  Beta  occ. eigenvalues --   -2.30643  -2.30583  -2.26348  -1.24003  -1.23388
  Beta  occ. eigenvalues --   -1.15330  -1.15285  -1.10453  -1.07440  -1.07242
  Beta  occ. eigenvalues --   -1.06342  -1.05922  -1.05045  -1.00033  -0.99853
  Beta  occ. eigenvalues --   -0.92837  -0.91967  -0.91637  -0.90230  -0.90077
  Beta  occ. eigenvalues --   -0.90033  -0.90025  -0.89920  -0.89547  -0.87633
  Beta  occ. eigenvalues --   -0.87192  -0.84849  -0.84573  -0.83670  -0.82501
  Beta  occ. eigenvalues --   -0.81669  -0.81227  -0.81084  -0.80584  -0.79878
  Beta  occ. eigenvalues --   -0.78239  -0.77765  -0.77024  -0.75208  -0.74715
  Beta  occ. eigenvalues --   -0.73972  -0.73911  -0.73444  -0.72605  -0.71088
  Beta  occ. eigenvalues --   -0.70845  -0.70020  -0.69449  -0.68316  -0.67080
  Beta  occ. eigenvalues --   -0.65912  -0.65696  -0.64994  -0.63642  -0.63121
  Beta  occ. eigenvalues --   -0.62493  -0.61642  -0.61190  -0.60715  -0.60294
  Beta  occ. eigenvalues --   -0.58934  -0.58745  -0.57795  -0.57497  -0.57392
  Beta  occ. eigenvalues --   -0.57075  -0.56829  -0.56652  -0.56592  -0.56422
  Beta  occ. eigenvalues --   -0.55731  -0.55171  -0.55086  -0.54020  -0.53980
  Beta  occ. eigenvalues --   -0.53669  -0.53399  -0.53122  -0.52750  -0.52615
  Beta  occ. eigenvalues --   -0.52349  -0.52224  -0.52178  -0.51963  -0.51807
  Beta  occ. eigenvalues --   -0.51767  -0.51572  -0.51383  -0.51302  -0.50893
  Beta  occ. eigenvalues --   -0.50756  -0.50466  -0.50270  -0.50205  -0.50020
  Beta  occ. eigenvalues --   -0.49886  -0.49728  -0.49462  -0.49292  -0.49061
  Beta  occ. eigenvalues --   -0.48773  -0.48429  -0.48252  -0.48094  -0.47593
  Beta  occ. eigenvalues --   -0.47419  -0.47220  -0.47043  -0.46716  -0.46229
  Beta  occ. eigenvalues --   -0.46090  -0.45808  -0.45633  -0.45507  -0.44689
  Beta  occ. eigenvalues --   -0.44532  -0.43875  -0.43728  -0.43525  -0.43175
  Beta  occ. eigenvalues --   -0.43034  -0.42711  -0.42528  -0.42003  -0.41712
  Beta  occ. eigenvalues --   -0.41656  -0.40890  -0.39828  -0.39380  -0.37609
  Beta  occ. eigenvalues --   -0.37355  -0.37276  -0.36069  -0.34972  -0.34428
  Beta  occ. eigenvalues --   -0.34138  -0.33700  -0.33446  -0.33298  -0.32636
  Beta  occ. eigenvalues --   -0.32281  -0.28756  -0.28291
  Beta virt. eigenvalues --   -0.18121  -0.17891  -0.13834  -0.13796  -0.12520
  Beta virt. eigenvalues --   -0.11781  -0.09301  -0.08878  -0.08052  -0.07744
  Beta virt. eigenvalues --   -0.06647  -0.06350  -0.05579  -0.04977  -0.04681
  Beta virt. eigenvalues --   -0.04513  -0.04340  -0.03707  -0.03404  -0.03277
  Beta virt. eigenvalues --   -0.03161  -0.02522  -0.02050  -0.01847  -0.01615
  Beta virt. eigenvalues --   -0.01045  -0.00921  -0.00813  -0.00673  -0.00452
  Beta virt. eigenvalues --   -0.00182   0.00366   0.00545   0.00791   0.01086
  Beta virt. eigenvalues --    0.01275   0.01498   0.01793   0.02203   0.02248
  Beta virt. eigenvalues --    0.02631   0.02963   0.03182   0.03336   0.03808
  Beta virt. eigenvalues --    0.03864   0.03953   0.04224   0.04473   0.04633
  Beta virt. eigenvalues --    0.04758   0.04975   0.05091   0.05149   0.05303
  Beta virt. eigenvalues --    0.05505   0.05645   0.05946   0.06048   0.06451
  Beta virt. eigenvalues --    0.06670   0.06750   0.06874   0.07010   0.07326
  Beta virt. eigenvalues --    0.07455   0.07649   0.07752   0.07805   0.08174
  Beta virt. eigenvalues --    0.08357   0.08692   0.08933   0.08991   0.09117
  Beta virt. eigenvalues --    0.09428   0.09546   0.09737   0.09862   0.10117
  Beta virt. eigenvalues --    0.10439   0.10676   0.10764   0.11153   0.11460
  Beta virt. eigenvalues --    0.11502   0.11710   0.11912   0.12131   0.12315
  Beta virt. eigenvalues --    0.12453   0.12746   0.13187   0.13367   0.13558
  Beta virt. eigenvalues --    0.13941   0.14042   0.14280   0.14446   0.14749
  Beta virt. eigenvalues --    0.14802   0.14879   0.15277   0.15456   0.15530
  Beta virt. eigenvalues --    0.15604   0.15832   0.15876   0.16185   0.16370
  Beta virt. eigenvalues --    0.16681   0.16827   0.17033   0.17262   0.17364
  Beta virt. eigenvalues --    0.17719   0.17917   0.18015   0.18234   0.18429
  Beta virt. eigenvalues --    0.18546   0.18793   0.19009   0.19288   0.19460
  Beta virt. eigenvalues --    0.19549   0.20102   0.20290   0.20356   0.20642
  Beta virt. eigenvalues --    0.20712   0.20980   0.21188   0.21303   0.21495
  Beta virt. eigenvalues --    0.21679   0.21939   0.22189   0.22351   0.22776
  Beta virt. eigenvalues --    0.22941   0.23251   0.23385   0.23544   0.23716
  Beta virt. eigenvalues --    0.23978   0.24175   0.24291   0.24576   0.25178
  Beta virt. eigenvalues --    0.25410   0.25716   0.25811   0.26150   0.26286
  Beta virt. eigenvalues --    0.26379   0.26704   0.26878   0.26972   0.27215
  Beta virt. eigenvalues --    0.27602   0.27945   0.27998   0.28171   0.28285
  Beta virt. eigenvalues --    0.28533   0.28762   0.28849   0.29188   0.29445
  Beta virt. eigenvalues --    0.29609   0.29816   0.30071   0.30164   0.30464
  Beta virt. eigenvalues --    0.30530   0.30651   0.30821   0.31065   0.31241
  Beta virt. eigenvalues --    0.31502   0.31604   0.31928   0.32167   0.32344
  Beta virt. eigenvalues --    0.32451   0.32634   0.32925   0.33161   0.33318
  Beta virt. eigenvalues --    0.33433   0.33580   0.33687   0.33925   0.34086
  Beta virt. eigenvalues --    0.34268   0.34577   0.34715   0.34749   0.34909
  Beta virt. eigenvalues --    0.35129   0.35285   0.35528   0.35745   0.36049
  Beta virt. eigenvalues --    0.36120   0.36338   0.36401   0.36605   0.36649
  Beta virt. eigenvalues --    0.36725   0.37111   0.37185   0.37530   0.37649
  Beta virt. eigenvalues --    0.37755   0.37925   0.38447   0.38474   0.38546
  Beta virt. eigenvalues --    0.38699   0.38801   0.38965   0.39068   0.39113
  Beta virt. eigenvalues --    0.39228   0.39362   0.39557   0.39653   0.39802
  Beta virt. eigenvalues --    0.40111   0.40212   0.40495   0.40592   0.40758
  Beta virt. eigenvalues --    0.41070   0.41236   0.41367   0.41568   0.41857
  Beta virt. eigenvalues --    0.41882   0.42045   0.42168   0.42288   0.42471
  Beta virt. eigenvalues --    0.42578   0.42894   0.43149   0.43242   0.43443
  Beta virt. eigenvalues --    0.43533   0.43622   0.43852   0.43955   0.44031
  Beta virt. eigenvalues --    0.44131   0.44345   0.44650   0.44700   0.44857
  Beta virt. eigenvalues --    0.44983   0.45213   0.45373   0.45785   0.45972
  Beta virt. eigenvalues --    0.46070   0.46388   0.46478   0.46628   0.46988
  Beta virt. eigenvalues --    0.47079   0.47146   0.47283   0.47829   0.47881
  Beta virt. eigenvalues --    0.47999   0.48063   0.48613   0.48689   0.48751
[...]
  1735. RY*(   2) H  75                  0.00008     2.29762   
  1736. RY*(   3) H  75                  0.00008     2.64416   
  1737. RY*(   4) H  75                  0.00006     2.41286   
  1738. RY*(   5) H  75                  0.00000     3.02871   
  1739. RY*(   1) H  76                  0.00035     1.68683   
  1740. RY*(   2) H  76                  0.00007     2.62305   
  1741. RY*(   3) H  76                  0.00007     2.32135   
  1742. RY*(   4) H  76                  0.00003     1.47155   
  1743. RY*(   5) H  76                  0.00000     2.82575   
  1744. RY*(   1) H  77                  0.00083     0.88873   
  1745. RY*(   2) H  77                  0.00029     2.06220   
  1746. RY*(   3) H  77                  0.00025     1.75524   
  1747. RY*(   4) H  77                  0.00010     2.06366   
  1748. RY*(   5) H  77                  0.00000     3.12632   
  1749. RY*(   1) H  78                  0.00040     1.56414   
  1750. RY*(   2) H  78                  0.00034     1.22097   
  1751. RY*(   3) H  78                  0.00019     1.99811   
  1752. RY*(   4) H  78                  0.00013     1.94533   
  1753. RY*(   5) H  78                  0.00000     3.25532   
  1754. RY*(   1) H  79                  0.00047     0.99024   
  1755. RY*(   2) H  79                  0.00006     1.64096   
  1756. RY*(   3) H  79                  0.00006     2.44580   
  1757. RY*(   4) H  79                  0.00003     2.26380   
  1758. RY*(   5) H  79                  0.00001     2.96207   
  1759. RY*(   1) H  80                  0.00028     1.07425   
  1760. RY*(   2) H  80                  0.00007     1.57995   
  1761. RY*(   3) H  80                  0.00005     2.37753   
  1762. RY*(   4) H  80                  0.00005     2.18080   
  1763. RY*(   5) H  80                  0.00001     2.84609   
  1764. RY*(   1) H  81                  0.00029     1.76703   
  1765. RY*(   2) H  81                  0.00008     2.67192   
  1766. RY*(   3) H  81                  0.00006     2.35879   
  1767. RY*(   4) H  81                  0.00003     1.30525   
  1768. RY*(   5) H  81                  0.00001     2.82672   
  1769. RY*(   1) H  82                  0.00037     1.66920   
  1770. RY*(   2) H  82                  0.00009     2.63064   
  1771. RY*(   3) H  82                  0.00006     2.39866   
  1772. RY*(   4) H  82                  0.00003     1.32668   
  1773. RY*(   5) H  82                  0.00000     2.83835   
  1774. RY*(   1) H  83                  0.00056     0.89592   
  1775. RY*(   2) H  83                  0.00017     2.17594   
  1776. RY*(   3) H  83                  0.00012     2.21362   
  1777. RY*(   4) H  83                  0.00005     3.01317   
  1778. RY*(   5) H  83                  0.00001     3.23672   
  1779. RY*(   1) H  84                  0.00040     0.99259   
  1780. RY*(   2) H  84                  0.00008     1.70815   
  1781. RY*(   3) H  84                  0.00003     2.07410   
  1782. RY*(   4) H  84                  0.00003     1.92274   
  1783. RY*(   5) H  84                  0.00000     2.77940   
  1784. RY*(   1) H  85                  0.00041     0.92137   
  1785. RY*(   2) H  85                  0.00008     1.68138   
  1786. RY*(   3) H  85                  0.00003     2.02490   
  1787. RY*(   4) H  85                  0.00003     1.95560   
  1788. RY*(   5) H  85                  0.00000     2.92336   
  1789. RY*(   1) H  86                  0.00023     1.26599   
  1790. RY*(   2) H  86                  0.00008     1.83516   
  1791. RY*(   3) H  86                  0.00004     2.04343   
  1792. RY*(   4) H  86                  0.00001     1.94166   
  1793. RY*(   5) H  86                  0.00000     2.58703   
  1794. RY*(   1) H  87                  0.00076     0.60515   
  1795. RY*(   2) H  87                  0.00014     2.03843   
  1796. RY*(   3) H  87                  0.00013     2.17911   
  1797. RY*(   4) H  87                  0.00005     2.97138   
  1798. RY*(   5) H  87                  0.00000     3.14501   
  1799. RY*(   1) H  88                  0.00016     1.61756   
  1800. RY*(   2) H  88                  0.00004     1.51711   
  1801. RY*(   3) H  88                  0.00004     1.99148   
  1802. RY*(   4) H  88                  0.00001     1.57429   
  1803. RY*(   5) H  88                  0.00001     2.52971   
  1804. RY*(   1) H  89                  0.00023     1.33086   
  1805. RY*(   2) H  89                  0.00005     1.56819   
  1806. RY*(   3) H  89                  0.00003     1.81143   
  1807. RY*(   4) H  89                  0.00002     1.75127   
  1808. RY*(   5) H  89                  0.00000     2.81249   
  1809. RY*(   1) H  90                  0.00031     1.08109   
  1810. RY*(   2) H  90                  0.00006     1.97635   
  1811. RY*(   3) H  90                  0.00002     1.99081   
  1812. RY*(   4) H  90                  0.00003     1.59859   
  1813. RY*(   5) H  90                  0.00000     2.87386   
  1814. RY*(   1) H  91                  0.00024     1.18377   
  1815. RY*(   2) H  91                  0.00014     1.26963   
  1816. RY*(   3) H  91                  0.00004     2.21081   
  1817. RY*(   4) H  91                  0.00002     2.88967   
  1818. RY*(   5) H  91                  0.00000     1.96638   
  1819. RY*(   1) H  92                  0.00033     0.88505   
  1820. RY*(   2) H  92                  0.00007     1.87722   
  1821. RY*(   3) H  92                  0.00005     1.79673   
  1822. RY*(   4) H  92                  0.00003     2.12790   
  1823. RY*(   5) H  92                  0.00000     2.89403   
  1824. RY*(   1) H  93                  0.00032     1.03156   
  1825. RY*(   2) H  93                  0.00007     1.59219   
  1826. RY*(   3) H  93                  0.00003     2.07448   
  1827. RY*(   4) H  93                  0.00002     1.95801   
  1828. RY*(   5) H  93                  0.00000     2.82893   
  1829. RY*(   1) H  94                  0.00020     1.32124   
  1830. RY*(   2) H  94                  0.00009     1.84708   
  1831. RY*(   3) H  94                  0.00003     2.08661   
  1832. RY*(   4) H  94                  0.00000     2.83904   
  1833. RY*(   5) H  94                  0.00001     1.68540   
  1834. RY*(   1) H  95                  0.00081     0.62811   
  1835. RY*(   2) H  95                  0.00014     2.05360   
  1836. RY*(   3) H  95                  0.00012     2.17166   
  1837. RY*(   4) H  95                  0.00006     2.96489   
  1838. RY*(   5) H  95                  0.00000     3.16050   
  1883. BD*(   1) C   7 - C   8          0.00657     0.30542   
  1884. BD*(   1) C   7 - H  56          0.00401     0.31568   
  1885. BD*(   1) C   7 - H  57          0.00166     0.32218   
  1886. BD*(   1) C   7 - H  58          0.00511     0.31773   
  1887. BD*(   1) C   8 - N   9          0.01483     0.32755   
  1888. BD*(   2) C   8 - N   9          0.38626    -0.13433  1893(v),192(v),1886(v)
                                                    1884(v),392(g),417(g),448(v)
                                                    397(g),366(v)
  1889. BD*(   1) C   8 - C  10          0.01011     0.51191   
  1890. BD*(   1) N   9 - C  11          0.00895     0.40655   
  1891. BD*(   1) N   9 - H  60          0.00725     0.30280   
  1892. BD*(   1) C  10 - N  12          0.00860     0.39025   
  1893. BD*(   2) C  10 - N  12          0.33148    -0.10336  1888(v),192(v),195(v),196(v)
                                                    444(g),1975(r),496(g),470(v)
  1894. BD*(   1) C  10 - H  61          0.00713     0.34218   
  1895. BD*(   1) C  11 - N  12          0.00937     0.41062   
  1896. BD*(   1) C  11 - H  59          0.00786     0.30004   
  1897. BD*(   1) N  12 -Fe  13          0.04938     0.24267   
  1898. BD*(   1)Fe  13 - N  18          0.02921     0.32939   
  1899. BD*(   1)Fe  13 - N  29          0.02953     0.32178   
  1900. BD*(   1)Fe  13 - N  37          0.02968     0.32286   
  1901. BD*(   1)Fe  13 - N  45          0.02919     0.33334   
  1902. BD*(   1) C  14 - C  19          0.01009     0.48454   
  1903. BD*(   2) C  14 - C  19          0.19462    -0.04294  1975(v),1922(v),1907(r)
                                                    548(g),1916(r),682(g)
  1904. BD*(   1) C  14 - C  49          0.01028     0.48073   
  1905. BD*(   1) C  14 - H  83          0.00770     0.37842   
  1906. BD*(   1) C  15 - C  22          0.01012     0.49978   
  1907. BD*(   2) C  15 - C  22          0.18672    -0.04061  1940(v),1922(v),1903(r)
                                                    760(g),574(g)
  1908. BD*(   1) C  15 - C  30          0.01022     0.46189   
  1909. BD*(   1) C  15 - H  69          0.00664     0.36011   
  1910. BD*(   1) C  16 - C  33          0.00996     0.46232   
  1911. BD*(   1) C  16 - C  38          0.00953     0.47705   
  1912. BD*(   2) C  16 - C  38          0.18996    -0.04443  1961(v),202(v),1958(v)
                                                    1916(r),601(g),1176(g)
  1913. BD*(   1) C  16 - H  95          0.00656     0.36346   
  1914. BD*(   1) C  17 - C  41          0.01019     0.45476   
  1915. BD*(   1) C  17 - C  46          0.00980     0.49139   
  1916. BD*(   2) C  17 - C  46          0.19171    -0.04632  1978(v),1958(v),1975(v)
                                                    1912(r),1903(r),1383(g)
                                                    627(g),626(g)
  1917. BD*(   1) C  17 - H  87          0.00664     0.35932   
  1918. BD*(   1) N  18 - C  19          0.01550     0.36007   
  1919. BD*(   1) N  18 - C  22          0.01484     0.38949   
  1920. BD*(   1) C  19 - C  20          0.01582     0.41450   
  1921. BD*(   1) C  20 - C  21          0.00976     0.54214   
  1922. BD*(   2) C  20 - C  21          0.11392    -0.01377  1907(v),1903(v),1929(v)
                                                    1926(v),1927(v)
  1923. BD*(   1) C  20 - C  24          0.01229     0.29722   
  1924. BD*(   1) C  21 - C  22          0.01676     0.40535   
  1925. BD*(   1) C  21 - C  23          0.00893     0.27336   
  1926. BD*(   1) C  23 - H  70          0.00351     0.33039   
  1927. BD*(   1) C  23 - H  71          0.00322     0.33136   
  1928. BD*(   1) C  23 - H  72          0.00225     0.33789   
  1929. BD*(   1) C  24 - C  25          0.00840     0.27529   
  1930. BD*(   1) C  24 - H  75          0.00607     0.34627   
  1931. BD*(   1) C  24 - H  76          0.00611     0.34191   
  1932. BD*(   1) C  25 - C  26          0.02970     0.30965   
  1933. BD*(   1) C  25 - H  73          0.00476     0.33341   
  1934. BD*(   1) C  25 - H  74          0.00610     0.32082   
  1935. BD*(   1) C  26 - O  27          0.01730     0.49358   
  1936. BD*(   2) C  26 - O  27          0.12175    -0.04109  1935(g),1934(v),869(g)
                                                    862(g),1929(v)
  1937. BD*(   1) C  26 - O  28          0.03515     0.45035   
  1938. BD*(   1) O  28 - H  77          0.00663     0.32978   
  1939. BD*(   1) N  29 - C  30          0.01387     0.40921   
  1940. BD*(   2) N  29 - C  30          0.32020    -0.08708  1907(v),1944(v),202(v)
                                                    196(v),966(g),940(g),194(v)
  1941. BD*(   1) N  29 - C  33          0.01486     0.38573   
  1942. BD*(   1) C  30 - C  31          0.01679     0.38956   
  1943. BD*(   1) C  31 - C  32          0.00901     0.50792   
  1944. BD*(   2) C  31 - C  32          0.12366    -0.01772  1940(v),202(v),203(v)
                                                    1949(v),1951(v),1952(v)
                                                    1948(v)
  1945. BD*(   1) C  31 - C  34          0.00850     0.28798   
  1946. BD*(   1) C  32 - C  33          0.01501     0.40077   
  1947. BD*(   1) C  32 - C  35          0.01022     0.30378   
  1948. BD*(   1) C  34 - H  66          0.00339     0.33859   
  1949. BD*(   1) C  34 - H  67          0.00380     0.33558   
  1950. BD*(   1) C  34 - H  68          0.00232     0.33723   
  1951. BD*(   1) C  35 - C  36          0.00242     0.30536   
  1952. BD*(   1) C  35 - H  65          0.00579     0.37429   
  1953. BD*(   1) C  36 - H  62          0.00135     0.34023   
  1954. BD*(   1) C  36 - H  63          0.00206     0.33925   
  1955. BD*(   1) C  36 - H  64          0.00276     0.33938   
  1956. BD*(   1) N  37 - C  38          0.01484     0.37119   
  1957. BD*(   1) N  37 - C  41          0.01452     0.37138   
  1958. BD*(   2) N  37 - C  41          0.30727    -0.09003  1916(v),1961(v),1912(v)
                                                    195(v),1251(g),1148(g)
                                                    194(v),1879(r)
  1959. BD*(   1) C  38 - C  39          0.01588     0.39636   
  1960. BD*(   1) C  39 - C  40          0.00974     0.50146   
  1961. BD*(   2) C  39 - C  40          0.12401    -0.01632  1912(v),1993(r),1958(v)
                                                    204(v),1966(v),1968(v)
                                                    1969(v),1965(v),1867(r)
  1962. BD*(   1) C  39 - C  42          0.00849     0.28185   
  1963. BD*(   1) C  40 - C  41          0.01416     0.41096   
  1964. BD*(   1) C  40 - C  43          0.01040     0.32002   
  1965. BD*(   1) C  42 - H  92          0.00314     0.33698   
  1966. BD*(   1) C  42 - H  93          0.00378     0.33345   
  1967. BD*(   1) C  42 - H  94          0.00243     0.33747   
  1968. BD*(   1) C  43 - C  44          0.00276     0.30658   
  1969. BD*(   1) C  43 - H  91          0.00605     0.37146   
  1970. BD*(   1) C  44 - H  88          0.00128     0.33711   
  1971. BD*(   1) C  44 - H  89          0.00209     0.33749   
  1972. BD*(   1) C  44 - H  90          0.00276     0.33745   
  1973. BD*(   1) N  45 - C  46          0.01586     0.36067   
  1974. BD*(   1) N  45 - C  49          0.01520     0.36989   
  1975. BD*(   2) N  45 - C  49          0.33412    -0.09810  1903(v),1978(v),1916(v)
                                                    196(v),1459(g),1355(g)
                                                    1893(r),1458(g),548(v)
                                                    194(v),195(v),1879(r),190(r)
  1976. BD*(   1) C  46 - C  47          0.01622     0.40403   
  1977. BD*(   1) C  47 - C  48          0.00997     0.49810   
  1978. BD*(   2) C  47 - C  48          0.11959    -0.02746  1916(v),1975(v),1985(v)
                                                    1983(v),1982(v),1986(v)
  1979. BD*(   1) C  47 - C  50          0.00873     0.27647   
  1980. BD*(   1) C  48 - C  49          0.01607     0.40038   
  1981. BD*(   1) C  48 - C  51          0.01130     0.27365   
  1982. BD*(   1) C  50 - H  84          0.00355     0.32356   
  1983. BD*(   1) C  50 - H  85          0.00409     0.32068   
  1984. BD*(   1) C  50 - H  86          0.00266     0.32960   
  1985. BD*(   1) C  51 - C  52          0.00718     0.25159   
  1986. BD*(   1) C  51 - H  81          0.00559     0.33175   
  1987. BD*(   1) C  51 - H  82          0.00590     0.34232   
  1988. BD*(   1) C  52 - C  53          0.03912     0.26103   
  1989. BD*(   1) C  52 - H  79          0.00579     0.30762   
  1990. BD*(   1) C  52 - H  80          0.00501     0.30513   
  1991. BD*(   1) C  53 - O  54          0.03390     0.39050   
  1992. BD*(   1) C  53 - O  55          0.02431     0.53780   
  1993. BD*(   2) C  53 - O  55          0.09454    -0.01477   
  1994. BD*(   1) O  54 - H  78          0.00692     4.22189   
       -------------------------------
              Total Lewis  176.17245  ( 97.2141%)
        Valence non-Lewis    4.70742  (  2.5976%)
        Rydberg non-Lewis    0.34123  (  0.1883%)
       -------------------------------
            Total unit  2  181.22111  (100.0000%)
           Charge unit  2    2.77889
 1\1\GINC-NODE837\SP\UPBE1PBE\def2TZVP\C42H46Fe1N8O4(1+,6)\ZHARTOVSKA\1
 7-Mar-2023\0\\# PBE1PBE/def2TZVP empiricaldispersion=GD3BJ scf=maxcycl
 e=999 geom=check pop=nbo\\1gu2_III_H\\1,6\C,0,7.741,3.503,14.891\C,0,9
 .027,3.472,14.126\N,0,9.297,4.319,13.076\C,0,10.117,2.702,14.195\C,0,1
 0.507,4.054,12.555\N,0,11.039,3.068,13.231\C,0,16.892,-0.274,9.982\C,0
 ,16.143999,0.552,10.979\N,0,16.707001,1.622,11.66\C,0,14.864,0.516,11.
 388\C,0,15.795,2.193,12.429\N,0,14.639,1.534,12.28\Fe,0,12.834,2.272,1
 2.755\C,0,13.059,3.697,9.65\C,0,11.207,-0.399,11.392\C,0,13.062,0.642,
 15.771\C,0,14.138,5.119,14.157\N,0,12.194,1.775,10.922\C,0,12.388,2.48
 9,9.727\C,0,11.81,1.765,8.629\C,0,11.25,0.648,9.123\C,0,11.521,0.629,1
 0.54\C,0,10.495,-0.467,8.356\C,0,11.841,2.227,7.162\C,0,13.046,1.656,6
 .392\C,0,13.086,2.124,4.978\O,0,14.201,2.26,4.429\O,0,12.037,2.373,4.3
 61\N,0,12.262,0.47,13.431\C,0,11.628,-0.511,12.721\C,0,11.497,-1.703,1
 3.549\C,0,12.043,-1.418,14.765\C,0,12.495,-0.047,14.694\C,0,10.865,-3.
 035,13.109\C,0,12.161,-2.307,16.025\C,0,12.955,-3.58,15.74\N,0,13.459,
 2.785,14.588\C,0,13.44,1.975,15.725\C,0,13.845,2.753,16.875999\C,0,14.
 127,4.016,16.437\C,0,13.9,4.038,15.019\C,0,13.855,2.166,18.302\C,0,14.
 506,5.269,17.226999\C,0,15.775,5.095,18.055\N,0,13.456,4.028,12.049\C,
 0,14.006,5.084,12.789\C,0,14.516,6.093,11.899\C,0,14.383,5.614,10.626\
 C,0,13.61,4.395,10.712\C,0,15.14,7.432,12.331\C,0,15.002,6.242,9.351\C
 ,0,14.241,7.503,8.87\C,0,13.115,7.209,7.901\O,0,12.172,8.037,7.738\O,0
 ,13.146,6.139,7.238\H,0,17.82690069,-0.58062057,10.40252886\H,0,16.313
 94392,-1.13826952,9.72943443\H,0,17.07042231,0.30580735,9.10058698\H,0
 ,15.95423003,3.03955825,13.06373217\H,0,17.65923464,1.91701376,11.5811
 4588\H,0,14.13318142,-0.19673012,11.06734445\H,0,13.88672375,-3.544249
 57,16.26489309\H,0,12.39415423,-4.43076581,16.0664193\H,0,13.14043899,
 -3.65691348,14.68900205\H,0,11.73919763,-2.06097406,16.97707878\H,0,11
 .51503653,-3.84274482,13.37338761\H,0,9.92194991,-3.16123136,13.598512
 17\H,0,10.71849322,-3.02735466,12.04910505\H,0,10.58728554,-1.18179612
 ,11.00718288\H,0,11.08418822,-1.3601699,8.35381561\H,0,9.5582799,-0.65
 881147,8.83627472\H,0,10.32123406,-0.1518823,7.34832633\H,0,13.9467040
 5,1.95987592,6.88321445\H,0,12.98887598,0.58757197,6.40191928\H,0,11.8
 8901547,3.29562232,7.13668486\H,0,10.94016655,1.909106,6.6799808\H,0,1
 2.07696195,2.7319584,3.4715328\H,0,12.36873263,8.95893122,7.55650871\H
 ,0,13.8331058,8.00098863,9.72471027\H,0,14.93800244,8.15967596,8.39264
 868\H,0,16.01706165,6.51027374,9.55734693\H,0,14.99028728,5.51314018,8
 .56772089\H,0,13.1618523,4.1329459,8.67826311\H,0,16.08323104,7.560074
 46,11.84231592\H,0,14.48597131,8.23425363,12.05982556\H,0,15.28460118,
 7.43254198,13.39118404\H,0,14.44649026,6.04332018,14.59900222\H,0,16.5
 5640402,5.69742024,17.64099805\H,0,15.58710661,5.39844252,19.06372132\
 H,0,16.07175531,4.06706768,18.04116407\H,0,13.93860665,6.17581719,17.2
 015556\H,0,14.7309458,2.49882418,18.81857238\H,0,12.98367985,2.4945112
 1,18.82904989\H,0,13.85731283,1.09737582,18.2478057\H,0,13.21317257,0.
 10795988,16.68579397\H,0,7.88145868,4.04477169,15.80295109\H,0,6.98761
 083,3.98398187,14.30281534\H,0,7.43453476,2.50240916,15.11415249\H,0,8
 .67881284,5.03257559,12.74637215\H,0,10.95827742,4.56234659,11.7286632
 4\H,0,10.25750645,1.90974449,14.9003291\\Version=AM64L-G16RevA.03\Stat
 e=6-A\HF=-3628.6718093\S2=8.818553\S2-1=0.\S2A=8.751193\RMSD=1.625e-09
 \Dipole=-0.4610002,1.6321918,1.637131\Quadrupole=-5.191411,20.8498486,
 -15.6584376,2.5232112,7.7742169,-11.5243066\PG=C01 [X(C42H46Fe1N8O4)]\
 \@


 YOU CANNOT THROW TO THE GROUND THE LETTERS OF
 THE GREEK ALPHABET AND PICK UP THE ILIAD.
        - RUFUS CHOATE, 1799-1859
 Job cpu time:      10 days 18 hours 51 minutes 39.7 seconds.
 Elapsed time:       2 days 17 hours  1 minutes 24.2 seconds.
 File lengths (MBytes):  RWF=   3654 Int=      0 D2E=      0 Chk=    305 Scr=      1
 Normal termination of Gaussian 16 at Fri Mar 17 04:36:43 2023.
