 Entering Gaussian System, Link 0=g16
 Input=/net/homes/chemie/zhartovska/work/BioModel/Konrad/1ebt/1ebt12/1ebt12.com
 Output=/net/homes/chemie/zhartovska/work/BioModel/Konrad/1ebt/1ebt12/1ebt12.log
 Initial command:
 /afs/math/software/gaussian/g16.A03/g16/l1.exe "/scratch/zhartovska_gaussian.pugPWj1/Gau-8829.inp" -scrdir="/scratch/zhartovska_gaussian.pugPWj1/"
 Entering Link 1 = /afs/math/software/gaussian/g16.A03/g16/l1.exe PID=      8830.
  
 Copyright (c) 1988,1990,1992,1993,1995,1998,2003,2009,2016,
            Gaussian, Inc.  All Rights Reserved.
  
 This is part of the Gaussian(R) 16 program.  It is based on
 the Gaussian(R) 09 system (copyright 2009, Gaussian, Inc.),
 the Gaussian(R) 03 system (copyright 2003, Gaussian, Inc.),
 the Gaussian(R) 98 system (copyright 1998, Gaussian, Inc.),
 the Gaussian(R) 94 system (copyright 1995, Gaussian, Inc.),
 the Gaussian 92(TM) system (copyright 1992, Gaussian, Inc.),
 the Gaussian 90(TM) system (copyright 1990, Gaussian, Inc.),
 the Gaussian 88(TM) system (copyright 1988, Gaussian, Inc.),
 the Gaussian 86(TM) system (copyright 1986, Carnegie Mellon
 University), and the Gaussian 82(TM) system (copyright 1983,
 Carnegie Mellon University). Gaussian is a federally registered
 trademark of Gaussian, Inc.
  
 This software contains proprietary and confidential information,
 including trade secrets, belonging to Gaussian, Inc.
  
 This software is provided under written license and may be
 used, copied, transmitted, or stored only in accord with that
 written license.
  
 The following legend is applicable only to US Government
 contracts under FAR:
  
                    RESTRICTED RIGHTS LEGEND
  
 Use, reproduction and disclosure by the US Government is
 subject to restrictions as set forth in subparagraphs (a)
 and (c) of the Commercial Computer Software - Restricted
 Rights clause in FAR 52.227-19.
  
 Gaussian, Inc.
 340 Quinnipiac St., Bldg. 40, Wallingford CT 06492
  
  
 ---------------------------------------------------------------
 Warning -- This program may not be used in any manner that
 competes with the business of Gaussian, Inc. or will provide
 assistance to any competitor of Gaussian, Inc.  The licensee
 of this program is prohibited from giving any competitor of
 Gaussian, Inc. access to this program.  By using this program,
 the user acknowledges that Gaussian, Inc. is engaged in the
 business of creating and licensing software in the field of
 computational chemistry and represents and warrants to the
 licensee that it is not a competitor of Gaussian, Inc. and that
 it will not use this program in any manner prohibited above.
 ---------------------------------------------------------------
  

 Cite this work as:
 Gaussian 16, Revision A.03,
 M. J. Frisch, G. W. Trucks, H. B. Schlegel, G. E. Scuseria, 
 M. A. Robb, J. R. Cheeseman, G. Scalmani, V. Barone, 
 G. A. Petersson, H. Nakatsuji, X. Li, M. Caricato, A. V. Marenich, 
 J. Bloino, B. G. Janesko, R. Gomperts, B. Mennucci, H. P. Hratchian, 
 J. V. Ortiz, A. F. Izmaylov, J. L. Sonnenberg, D. Williams-Young, 
 F. Ding, F. Lipparini, F. Egidi, J. Goings, B. Peng, A. Petrone, 
 T. Henderson, D. Ranasinghe, V. G. Zakrzewski, J. Gao, N. Rega, 
 G. Zheng, W. Liang, M. Hada, M. Ehara, K. Toyota, R. Fukuda, 
 J. Hasegawa, M. Ishida, T. Nakajima, Y. Honda, O. Kitao, H. Nakai, 
 T. Vreven, K. Throssell, J. A. Montgomery, Jr., J. E. Peralta, 
 F. Ogliaro, M. J. Bearpark, J. J. Heyd, E. N. Brothers, K. N. Kudin, 
 V. N. Staroverov, T. A. Keith, R. Kobayashi, J. Normand, 
 K. Raghavachari, A. P. Rendell, J. C. Burant, S. S. Iyengar, 
 J. Tomasi, M. Cossi, J. M. Millam, M. Klene, C. Adamo, R. Cammi, 
 J. W. Ochterski, R. L. Martin, K. Morokuma, O. Farkas, 
 J. B. Foresman, and D. J. Fox, Gaussian, Inc., Wallingford CT, 2016.
 
 ******************************************
 Gaussian 16:  ES64L-G16RevA.03 25-Dec-2016
                27-Dec-2022 
 ******************************************
 %nprocs=12
 Will use up to   12 processors via shared memory.
 %mem=16GB
 %oldchk=1ebt_III_D.chk
 %chk=1ebt_III_Dn.chk
 Copying data from "1ebt_III_D.chk" to current chk file "1ebt_III_Dn.chk"
 IOpt=  2 FromEx=T IUOpen= 4 IOptOp= 5 NList=   0 IFRang= 0 IUIn= 4 IUOut= 2.
 ----------------------------------------------------------------------
 # PBE1PBE/def2TZVP empiricaldispersion=GD3BJ scf=maxcycle=999 geom=che
 ck guess=read pop=nbo
 ----------------------------------------------------------------------
 1/29=2,38=1,172=1/1;
 2/12=2,40=1/2;
 3/5=44,7=101,11=2,14=-4,25=1,30=1,74=-13,116=-2,124=41/1,2,3;
 4/5=1/1;
 5/5=2,7=999,38=6/2;
 6/7=2,8=2,9=2,10=2,28=1,40=1/1,7;
 99/5=1,9=1/99;
 ----------
 1ebt_III_D
 ----------
 Structure from the checkpoint file:  "1ebt_III_Dn.chk"
 Charge =  1 Multiplicity = 2
 Z-Matrix found in chk file.
 C,0,7.538,-1.23,24.59
 C,0,6.88,-1.983,23.444
 N,0,5.502,-2.166,23.388
 C,0,7.468,-2.627,22.35
 C,0,5.296,-2.931,22.263
 N,0,6.441,-3.17,21.646
 C,0,7.038,-5.435,17.6
 N,0,5.75422617,-5.34740722,17.46713455
 Fe,0,6.526,-4.236,19.781
 C,0,5.087,-6.882,21.247
 C,0,3.495,-3.215,18.551001
 C,0,7.885,-1.384,18.549999
 C,0,9.645,-5.4,20.575001
 N,0,4.693,-4.819,19.875
 C,0,4.279,-5.937,20.639
 C,0,2.856,-6.027,20.59
 C,0,2.405,-5.036,19.853001
 C,0,3.53,-4.277,19.405001
 C,0,0.941,-4.723,19.504
 C,0,2.003,-7.105,21.275
 C,0,1.47,-6.63,22.625
 C,0,2.535,-6.653,23.695
 O,0,3.,-7.754,24.059999
 O,0,3.059,-5.574,24.
 N,0,5.827,-2.58,18.775
 C,0,4.586,-2.457,18.263
 C,0,4.5,-1.26,17.461
 C,0,5.699,-0.694,17.465
 C,0,6.561,-1.558,18.254999
 C,0,3.168,-0.88,16.780001
 C,0,6.147,0.596,16.733999
 C,0,7.119,1.295,17.289
 N,0,8.332,-3.571,19.657
 C,0,8.729,-2.357,19.077999
 C,0,10.155,-2.268,19.101999
 C,0,10.629,-3.378,19.639999
 C,0,9.526,-4.171,19.993999
 C,0,10.982,-1.087,18.545
 C,0,12.104,-3.791,19.933001
 C,0,13.0176336,-2.84820362,20.26911954
 N,0,7.277,-5.814,20.743
 C,0,8.562,-6.156,20.931999
 C,0,8.613,-7.48,21.577
 C,0,7.358,-7.884,21.792999
 C,0,6.468,-6.873,21.222
 C,0,9.954,-8.134,21.969
 C,0,6.878,-9.196,22.42
 C,0,7.048,-10.402,21.452999
 C,0,6.745,-11.767,22.033001
 O,0,5.536,-12.093,22.055
 O,0,7.71,-12.433,22.511999
 H,0,8.47996426,-0.83942522,24.26587861
 H,0,6.9046411,-0.42432056,24.89763152
 H,0,7.69230268,-1.89651295,25.41270965
 H,0,8.51077212,-2.68069645,22.11624159
 H,0,4.81351426,-1.81844603,24.02454821
 H,0,4.34125974,-3.28377972,21.93297349
 H,0,8.09987275,-5.50745024,17.70989642
 H,0,5.28953029,-13.01871612,22.1174688
 H,0,6.40357459,-10.24755422,20.61290234
 H,0,8.05901498,-10.40691494,21.10267835
 H,0,7.44184547,-9.38231687,23.31009231
 H,0,5.84381027,-9.10012079,22.6772135
 H,0,4.60627487,-7.67852181,21.77554172
 H,0,1.10328599,-5.63016087,22.52135371
 H,0,0.66371964,-7.26686698,22.92368448
 H,0,2.60074748,-7.97980293,21.42439138
 H,0,1.17691123,-7.35095775,20.6409794
 H,0,0.8677546,-4.47036473,18.46683534
 H,0,0.33489223,-5.58140723,19.70566903
 H,0,0.60132342,-3.89936171,20.09657049
 H,0,2.56438908,-2.9662352,18.08519054
 H,0,3.30161438,-0.86528314,15.71847822
 H,0,2.41879656,-1.60003606,17.03523086
 H,0,2.86020547,0.08874695,17.11420435
 H,0,7.51166862,1.00337102,18.24066375
 H,0,7.51446415,2.15340348,16.78735115
 H,0,5.68823655,0.90688159,15.818691
 H,0,8.30736495,-0.41961017,18.35905371
 H,0,11.91091086,-1.45242923,18.15966107
 H,0,10.4347658,-0.60684321,17.76085449
 H,0,11.17283833,-0.3841457,19.32888556
 H,0,10.62502202,-5.78815758,20.75882303
 H,0,10.69587929,-7.37447825,22.10182256
 H,0,9.83222359,-8.67730624,22.88272252
 H,0,10.26405144,-8.80384782,21.19435686
 H,0,12.39466162,-4.8187524,19.86865175
 H,0,14.01128699,-2.90188825,19.87583732
 H,0,12.74534142,-2.05013394,20.92778619
 H,0,3.95029305,-7.88325546,24.10284924
 Recover connectivity data from disk.
 Stoichiometry    C39H39FeN7O4(1+,2)
 Framework group  C1[X(C39H39FeN7O4)]
 Deg. of freedom   264
 Full point group                 C1      NOp   1
 Largest Abelian subgroup         C1      NOp   1
 Largest concise Abelian subgroup C1      NOp   1
                         Standard orientation:                         
 ---------------------------------------------------------------------
 Center     Atomic      Atomic             Coordinates (Angstroms)
 Number     Number       Type             X           Y           Z
 ---------------------------------------------------------------------
      1          6           0       -1.719666    0.749413    5.201262
      2          6           0       -1.350137    0.172314    3.843435
      3          7           0       -0.851877   -1.119933    3.711738
      4          6           0       -1.381084    0.777315    2.582352
      5          6           0       -0.581578   -1.255669    2.369426
      6          7           0       -0.920673   -0.159083    1.712654
      7          6           0       -0.724808    0.527829   -2.907578
      8          7           0       -0.519451   -0.746314   -2.995834
      9         26           0       -0.761399   -0.020771   -0.426811
     10          6           0        2.526595   -0.621362   -0.204143
     11          6           0       -1.360303   -3.321103   -1.127825
     12          6           0       -4.114177    0.478387   -0.350188
     13          6           0       -0.236191    3.352273   -0.181394
     14          7           0        0.267109   -1.640626   -0.590681
     15          6           0        1.663995   -1.691748   -0.364607
     16          6           0        2.095322   -3.048907   -0.451256
     17          6           0        1.046931   -3.799444   -0.708588
     18          6           0       -0.093615   -2.942664   -0.795155
     19          6           0        1.014553   -5.324401   -0.899695
     20          6           0        3.540073   -3.541708   -0.281667
     21          6           0        3.808155   -4.025997    1.141643
     22          6           0        3.981780   -2.878720    2.107700
     23          8           0        4.972742   -2.127971    1.981128
     24          8           0        3.021938   -2.598352    2.837041
     25          7           0       -2.436523   -1.198209   -0.651697
     26          6           0       -2.426476   -2.479874   -1.069534
     27          6           0       -3.777180   -2.934264   -1.298749
     28          6           0       -4.585381   -1.911841   -1.054954
     29          6           0       -3.734432   -0.789324   -0.695123
     30          6           0       -4.036872   -4.383158   -1.763129
     31          6           0       -6.128625   -1.865494   -1.179118
     32          6           0       -6.771571   -1.035315   -0.379847
     33          7           0       -1.866845    1.550238   -0.256047
     34          6           0       -3.268749    1.581697   -0.273992
     35          6           0       -3.710078    2.939330   -0.210467
     36          6           0       -2.643728    3.719326   -0.183570
     37          6           0       -1.517084    2.881902   -0.196543
     38          6           0       -5.186643    3.396044   -0.220825
     39          6           0       -2.549170    5.272838   -0.085066
     40          6           0       -3.478957    5.965133    0.616926
     41          7           0        0.813976    1.183536   -0.209170
     42          6           0        0.853995    2.525630   -0.176130
     43          6           0        2.261800    2.959880   -0.142712
     44          6           0        3.031456    1.868106   -0.119142
     45          6           0        2.147385    0.706741   -0.218689
     46          6           0        2.642658    4.452183   -0.055309
     47          6           0        4.560365    1.785063   -0.098766
     48          6           0        5.182722    2.134431   -1.480446
     49          6           0        6.692821    2.229888   -1.524340
     50          8           0        7.303734    1.143229   -1.644333
     51          8           0        7.217675    3.371409   -1.364098
     52          1           0       -2.439329    1.530753    5.072840
     53          1           0       -2.136105   -0.021684    5.815174
     54          1           0       -0.843530    1.145164    5.671014
     55          1           0       -1.701149    1.771733    2.350858
     56          1           0       -0.719465   -1.799760    4.433057
     57          1           0       -0.155830   -2.127983    1.919196
     58          1           0       -0.894672    1.581735   -2.834578
     59          1           0        8.204975    1.133202   -1.974884
     60          1           0        4.876681    1.386139   -2.181373
     61          1           0        4.781134    3.074137   -1.797588
     62          1           0        4.935611    2.468517    0.634024
     63          1           0        4.850676    0.791343    0.171681
     64          1           0        3.564033   -0.838763   -0.058000
     65          1           0        2.985695   -4.629897    1.463768
     66          1           0        4.697975   -4.620230    1.144548
     67          1           0        4.210956   -2.739830   -0.509279
     68          1           0        3.715779   -4.347726   -0.963108
     69          1           0        0.393460   -5.565837   -1.736865
     70          1           0        2.007060   -5.682815   -1.076807
     71          1           0        0.620601   -5.786012   -0.018436
     72          1           0       -1.523049   -4.328325   -1.450188
     73          1           0       -4.513331   -4.370675   -2.721112
     74          1           0       -3.106615   -4.907051   -1.834254
     75          1           0       -4.670696   -4.876167   -1.055945
     76          1           0       -6.234367   -0.485359    0.364371
     77          1           0       -7.830100   -0.912131   -0.475988
     78          1           0       -6.650740   -2.479975   -1.882473
     79          1           0       -5.147205    0.635271   -0.119667
     80          1           0       -5.264841    4.338929   -0.720578
     81          1           0       -5.781056    2.669680   -0.734602
     82          1           0       -5.536225    3.495697    0.785536
     83          1           0       -0.078025    4.410487   -0.173305
     84          1           0        1.836384    5.000866    0.384883
     85          1           0        3.519743    4.561711    0.547704
     86          1           0        2.836020    4.829075   -1.037889
     87          1           0       -1.750178    5.792127   -0.571738
     88          1           0       -3.850596    6.895165    0.240329
     89          1           0       -3.841432    5.581703    1.547783
     90          1           0        4.854792   -1.175320    1.969130
 ---------------------------------------------------------------------
 Rotational constants (GHZ):           0.0735144           0.0495078           0.0378356
 Standard basis: def2TZVP (5D, 7F)
 There are  2086 symmetry adapted cartesian basis functions of A   symmetry.
 There are  1829 symmetry adapted basis functions of A   symmetry.
  1829 basis functions,  2964 primitive gaussians,  2086 cartesian basis functions
   190 alpha electrons      189 beta electrons
       nuclear repulsion energy      7859.2002935854 Hartrees.
 NAtoms=   90 NActive=   90 NUniq=   90 SFac= 1.00D+00 NAtFMM=   60 NAOKFM=T Big=T
 Integral buffers will be    131072 words long.
 Raffenetti 2 integral format.
 Two-electron integral symmetry is turned on.
 Nuclear repulsion after empirical dispersion term =     7859.0645842356 Hartrees.
 One-electron integrals computed using PRISM.
   1 Symmetry operations used in ECPInt.
 ECPInt:  NShTT=  260281 NPrTT=  808361 LenC2=  192808 LenP2D=  388357.
 LDataN:  DoStor=T MaxTD1= 6 Len=  172
 NBasis=  1829 RedAO= T EigKep=  2.84D-06  NBF=  1829
 NBsUse=  1829 1.00D-06 EigRej= -1.00D+00 NBFU=  1829
 Initial guess from the checkpoint file:  "1ebt_III_Dn.chk"
 B after Tr=    -0.000000   -0.000000    0.000000
         Rot=    1.000000    0.000000   -0.000000    0.000000 Ang=   0.00 deg.
 Initial guess <Sx>= 0.0000 <Sy>= 0.0000 <Sz>= 0.5000 <S**2>= 0.8084 S= 0.5288
 Requested convergence on RMS density matrix=1.00D-08 within 999 cycles.
 Requested convergence on MAX density matrix=1.00D-06.
 Requested convergence on             energy=1.00D-06.
 No special actions if energy rises.
 Restarting incremental Fock formation.
 SCF Done:  E(UPBE1PBE) =  -3455.38188176     A.U. after   37 cycles
            NFock= 37  Conv=0.26D-08     -V/T= 2.0034
 <Sx>= 0.0000 <Sy>= 0.0000 <Sz>= 0.5000 <S**2>= 0.8083 S= 0.5287
 <L.S>= 0.000000000000E+00
 Annihilation of the first spin contaminant:
 S**2 before annihilation     0.8083,   after     0.7528

 **********************************************************************

            Population analysis using the SCF density.

 **********************************************************************

 Orbital symmetries:
 Alpha Orbitals:
       Occupied  (A) (A) (A) (A) (A) (A) (A) (A) (A) (A) (A) (A)
                 (A) (A) (A) (A) (A) (A) (A) (A) (A) (A) (A) (A)
                 (A) (A) (A) (A) (A) (A) (A) (A) (A) (A) (A) (A)
                 (A) (A) (A) (A) (A) (A) (A) (A) (A) (A) (A) (A)
                 (A) (A) (A) (A) (A) (A) (A) (A) (A) (A) (A) (A)
                 (A) (A) (A) (A) (A) (A) (A) (A) (A) (A) (A) (A)
                 (A) (A) (A) (A) (A) (A) (A) (A) (A) (A) (A) (A)
                 (A) (A) (A) (A) (A) (A) (A) (A) (A) (A) (A) (A)
                 (A) (A) (A) (A) (A) (A) (A) (A) (A) (A) (A) (A)
                 (A) (A) (A) (A) (A) (A) (A) (A) (A) (A) (A) (A)
                 (A) (A) (A) (A) (A) (A) (A) (A) (A) (A) (A) (A)
                 (A) (A) (A) (A) (A) (A) (A) (A) (A) (A) (A) (A)
                 (A) (A) (A) (A) (A) (A) (A) (A) (A) (A) (A) (A)
                 (A) (A) (A) (A) (A) (A) (A) (A) (A) (A) (A) (A)
                 (A) (A) (A) (A) (A) (A) (A) (A) (A) (A) (A) (A)
                 (A) (A) (A) (A) (A) (A) (A) (A) (A) (A)
       Virtual   (A) (A) (A) (A) (A) (A) (A) (A) (A) (A) (A) (A)
                 (A) (A) (A) (A) (A) (A) (A) (A) (A) (A) (A) (A)
                 (A) (A) (A) (A) (A) (A) (A) (A) (A) (A) (A) (A)
                 (A) (A) (A) (A) (A) (A) (A) (A) (A) (A) (A) (A)
                 (A) (A) (A) (A) (A) (A) (A) (A) (A) (A) (A) (A)
                 (A) (A) (A) (A) (A) (A) (A) (A) (A) (A) (A) (A)
                 (A) (A) (A) (A) (A) (A) (A) (A) (A) (A) (A) (A)
                 (A) (A) (A) (A) (A) (A) (A) (A) (A) (A) (A) (A)
                 (A) (A) (A) (A) (A) (A) (A) (A) (A) (A) (A) (A)
                 (A) (A) (A) (A) (A) (A) (A) (A) (A) (A) (A) (A)
                 (A) (A) (A) (A) (A) (A) (A) (A) (A) (A) (A) (A)
                 (A) (A) (A) (A) (A) (A) (A) (A) (A) (A) (A) (A)
                 (A) (A) (A) (A) (A) (A) (A) (A) (A) (A) (A) (A)
                 (A) (A) (A) (A) (A) (A) (A) (A) (A) (A) (A) (A)
                 (A) (A) (A) (A) (A) (A) (A) (A) (A) (A) (A) (A)
                 (A) (A) (A) (A) (A) (A) (A) (A) (A) (A) (A) (A)
                 (A) (A) (A) (A) (A) (A) (A) (A) (A) (A) (A) (A)
                 (A) (A) (A) (A) (A) (A) (A) (A) (A) (A) (A) (A)
                 (A) (A) (A) (A) (A) (A) (A) (A) (A) (A) (A) (A)
                 (A) (A) (A) (A) (A) (A) (A) (A) (A) (A) (A) (A)
                 (A) (A) (A) (A) (A) (A) (A) (A) (A) (A) (A) (A)
                 (A) (A) (A) (A) (A) (A) (A) (A) (A) (A) (A) (A)
                 (A) (A) (A) (A) (A) (A) (A) (A) (A) (A) (A) (A)
                 (A) (A) (A) (A) (A) (A) (A) (A) (A) (A) (A) (A)
                 (A) (A) (A) (A) (A) (A) (A) (A) (A) (A) (A) (A)
                 (A) (A) (A) (A) (A) (A) (A) (A) (A) (A) (A) (A)
                 (A) (A) (A) (A) (A) (A) (A) (A) (A) (A) (A) (A)
                 (A) (A) (A) (A) (A) (A) (A) (A) (A) (A) (A) (A)
                 (A) (A) (A) (A) (A) (A) (A) (A) (A) (A) (A) (A)
                 (A) (A) (A) (A) (A) (A) (A) (A) (A) (A) (A) (A)
                 (A) (A) (A) (A) (A) (A) (A) (A) (A) (A) (A) (A)
                 (A) (A) (A) (A) (A) (A) (A) (A) (A) (A) (A) (A)
                 (A) (A) (A) (A) (A) (A) (A) (A) (A) (A) (A) (A)
                 (A) (A) (A) (A) (A) (A) (A) (A) (A) (A) (A) (A)
                 (A) (A) (A) (A) (A) (A) (A) (A) (A) (A) (A) (A)
                 (A) (A) (A) (A) (A) (A) (A) (A) (A) (A) (A) (A)
                 (A) (A) (A) (A) (A) (A) (A) (A) (A) (A) (A) (A)
                 (A) (A) (A) (A) (A) (A) (A) (A) (A) (A) (A) (A)
                 (A) (A) (A) (A) (A) (A) (A) (A) (A) (A) (A) (A)
                 (A) (A) (A) (A) (A) (A) (A) (A) (A) (A) (A) (A)
                 (A) (A) (A) (A) (A) (A) (A) (A) (A) (A) (A) (A)
                 (A) (A) (A) (A) (A) (A) (A) (A) (A) (A) (A) (A)
                 (A) (A) (A) (A) (A) (A) (A) (A) (A) (A) (A) (A)
                 (A) (A) (A) (A) (A) (A) (A) (A) (A) (A) (A) (A)
                 (A) (A) (A) (A) (A) (A) (A) (A) (A) (A) (A) (A)
                 (A) (A) (A) (A) (A) (A) (A) (A) (A) (A) (A) (A)
                 (A) (A) (A) (A) (A) (A) (A) (A) (A) (A) (A) (A)
                 (A) (A) (A) (A) (A) (A) (A) (A) (A) (A) (A) (A)
                 (A) (A) (A) (A) (A) (A) (A) (A) (A) (A) (A) (A)
                 (A) (A) (A) (A) (A) (A) (A) (A) (A) (A) (A) (A)
                 (A) (A) (A) (A) (A) (A) (A) (A) (A) (A) (A) (A)
                 (A) (A) (A) (A) (A) (A) (A) (A) (A) (A) (A) (A)
                 (A) (A) (A) (A) (A) (A) (A) (A) (A) (A) (A) (A)
                 (A) (A) (A) (A) (A) (A) (A) (A) (A) (A) (A) (A)
                 (A) (A) (A) (A) (A) (A) (A) (A) (A) (A) (A) (A)
                 (A) (A) (A) (A) (A) (A) (A) (A) (A) (A) (A) (A)
                 (A) (A) (A) (A) (A) (A) (A) (A) (A) (A) (A) (A)
                 (A) (A) (A) (A) (A) (A) (A) (A) (A) (A) (A) (A)
                 (A) (A) (A) (A) (A) (A) (A) (A) (A) (A) (A) (A)
                 (A) (A) (A) (A) (A) (A) (A) (A) (A) (A) (A) (A)
                 (A) (A) (A) (A) (A) (A) (A) (A) (A) (A) (A) (A)
                 (A) (A) (A) (A) (A) (A) (A) (A) (A) (A) (A) (A)
                 (A) (A) (A) (A) (A) (A) (A) (A) (A) (A) (A) (A)
                 (A) (A) (A) (A) (A) (A) (A) (A) (A) (A) (A) (A)
                 (A) (A) (A) (A) (A) (A) (A) (A) (A) (A) (A) (A)
                 (A) (A) (A) (A) (A) (A) (A) (A) (A) (A) (A) (A)
                 (A) (A) (A) (A) (A) (A) (A) (A) (A) (A) (A) (A)
                 (A) (A) (A) (A) (A) (A) (A) (A) (A) (A) (A) (A)
                 (A) (A) (A) (A) (A) (A) (A) (A) (A) (A) (A) (A)
                 (A) (A) (A) (A) (A) (A) (A) (A) (A) (A) (A) (A)
                 (A) (A) (A) (A) (A) (A) (A) (A) (A) (A) (A) (A)
                 (A) (A) (A) (A) (A) (A) (A) (A) (A) (A) (A) (A)
                 (A) (A) (A) (A) (A) (A) (A) (A) (A) (A) (A) (A)
                 (A) (A) (A) (A) (A) (A) (A) (A) (A) (A) (A) (A)
                 (A) (A) (A) (A) (A) (A) (A) (A) (A) (A) (A) (A)
                 (A) (A) (A) (A) (A) (A) (A) (A) (A) (A) (A) (A)
                 (A) (A) (A) (A) (A) (A) (A) (A) (A) (A) (A) (A)
                 (A) (A) (A) (A) (A) (A) (A) (A) (A) (A) (A) (A)
                 (A) (A) (A) (A) (A) (A) (A) (A) (A) (A) (A) (A)
                 (A) (A) (A) (A) (A) (A) (A) (A) (A) (A) (A) (A)
                 (A) (A) (A) (A) (A) (A) (A) (A) (A) (A) (A) (A)
                 (A) (A) (A) (A) (A) (A) (A) (A) (A) (A) (A) (A)
                 (A) (A) (A) (A) (A) (A) (A) (A) (A) (A) (A) (A)
                 (A) (A) (A) (A) (A) (A) (A) (A) (A) (A) (A) (A)
                 (A) (A) (A) (A) (A) (A) (A) (A) (A) (A) (A) (A)
                 (A) (A) (A) (A) (A) (A) (A) (A) (A) (A) (A) (A)
                 (A) (A) (A) (A) (A) (A) (A) (A) (A) (A) (A) (A)
                 (A) (A) (A) (A) (A) (A) (A) (A) (A) (A) (A) (A)
                 (A) (A) (A) (A) (A) (A) (A) (A) (A) (A) (A) (A)
                 (A) (A) (A) (A) (A) (A) (A) (A) (A) (A) (A) (A)
                 (A) (A) (A) (A) (A) (A) (A) (A) (A) (A) (A) (A)
                 (A) (A) (A) (A) (A) (A) (A) (A) (A) (A) (A) (A)
                 (A) (A) (A) (A) (A) (A) (A) (A) (A) (A) (A) (A)
                 (A) (A) (A) (A) (A) (A) (A) (A) (A) (A) (A) (A)
                 (A) (A) (A) (A) (A) (A) (A) (A) (A) (A) (A) (A)
                 (A) (A) (A) (A) (A) (A) (A) (A) (A) (A) (A) (A)
                 (A) (A) (A) (A) (A) (A) (A) (A) (A) (A) (A) (A)
                 (A) (A) (A) (A) (A) (A) (A) (A) (A) (A) (A) (A)
                 (A) (A) (A) (A) (A) (A) (A) (A) (A) (A) (A) (A)
                 (A) (A) (A) (A) (A) (A) (A) (A) (A) (A) (A) (A)
                 (A) (A) (A) (A) (A) (A) (A) (A) (A) (A) (A) (A)
                 (A) (A) (A) (A) (A) (A) (A) (A) (A) (A) (A) (A)
                 (A) (A) (A) (A) (A) (A) (A) (A) (A) (A) (A) (A)
                 (A) (A) (A) (A) (A) (A) (A) (A) (A) (A) (A) (A)
                 (A) (A) (A) (A) (A) (A) (A) (A) (A) (A) (A) (A)
                 (A) (A) (A) (A) (A) (A) (A) (A) (A) (A) (A) (A)
                 (A) (A) (A) (A) (A) (A) (A) (A) (A) (A) (A) (A)
                 (A) (A) (A) (A) (A) (A) (A) (A) (A) (A) (A) (A)
                 (A) (A) (A) (A) (A) (A) (A) (A) (A) (A) (A) (A)
                 (A) (A) (A) (A) (A) (A) (A) (A) (A) (A) (A) (A)
                 (A) (A) (A) (A) (A) (A) (A) (A) (A) (A) (A) (A)
                 (A) (A) (A) (A) (A) (A) (A) (A) (A) (A) (A) (A)
                 (A) (A) (A) (A) (A) (A) (A) (A) (A) (A) (A) (A)
                 (A) (A) (A) (A) (A) (A) (A) (A) (A) (A) (A) (A)
                 (A) (A) (A) (A) (A) (A) (A) (A) (A) (A) (A) (A)
                 (A) (A) (A) (A) (A) (A) (A) (A) (A) (A) (A) (A)
                 (A) (A) (A) (A) (A) (A) (A) (A) (A) (A) (A) (A)
                 (A) (A) (A) (A) (A) (A) (A) (A) (A) (A) (A) (A)
                 (A) (A) (A) (A) (A) (A) (A) (A) (A) (A) (A) (A)
                 (A) (A) (A) (A) (A) (A) (A) (A) (A) (A) (A) (A)
                 (A) (A) (A) (A) (A) (A) (A) (A) (A) (A) (A) (A)
                 (A) (A) (A) (A) (A) (A) (A) (A) (A) (A) (A) (A)
                 (A) (A) (A) (A) (A) (A) (A) (A) (A) (A) (A) (A)
                 (A) (A) (A) (A) (A) (A) (A) (A) (A) (A) (A) (A)
                 (A) (A) (A) (A) (A) (A) (A) (A) (A) (A) (A) (A)
                 (A) (A) (A) (A) (A) (A) (A) (A) (A) (A) (A) (A)
                 (A) (A) (A) (A) (A) (A) (A) (A) (A) (A) (A) (A)
                 (A) (A) (A) (A) (A) (A) (A) (A) (A) (A) (A) (A)
                 (A) (A) (A) (A) (A) (A) (A) (A) (A) (A) (A) (A)
                 (A) (A) (A) (A) (A) (A) (A) (A) (A) (A) (A) (A)
                 (A) (A) (A) (A) (A) (A) (A) (A) (A) (A) (A) (A)
                 (A) (A) (A) (A) (A) (A) (A) (A) (A) (A) (A) (A)
                 (A) (A) (A) (A) (A) (A) (A) (A) (A) (A) (A) (A)
                 (A) (A) (A) (A) (A) (A) (A) (A) (A) (A) (A) (A)
                 (A) (A) (A) (A) (A) (A) (A) (A) (A) (A) (A) (A)
                 (A) (A) (A) (A) (A) (A) (A) (A) (A) (A) (A) (A)
                 (A) (A) (A) (A) (A) (A) (A)
 Beta  Orbitals:
       Occupied  (A) (A) (A) (A) (A) (A) (A) (A) (A) (A) (A) (A)
                 (A) (A) (A) (A) (A) (A) (A) (A) (A) (A) (A) (A)
                 (A) (A) (A) (A) (A) (A) (A) (A) (A) (A) (A) (A)
                 (A) (A) (A) (A) (A) (A) (A) (A) (A) (A) (A) (A)
                 (A) (A) (A) (A) (A) (A) (A) (A) (A) (A) (A) (A)
                 (A) (A) (A) (A) (A) (A) (A) (A) (A) (A) (A) (A)
                 (A) (A) (A) (A) (A) (A) (A) (A) (A) (A) (A) (A)
                 (A) (A) (A) (A) (A) (A) (A) (A) (A) (A) (A) (A)
                 (A) (A) (A) (A) (A) (A) (A) (A) (A) (A) (A) (A)
                 (A) (A) (A) (A) (A) (A) (A) (A) (A) (A) (A) (A)
                 (A) (A) (A) (A) (A) (A) (A) (A) (A) (A) (A) (A)
                 (A) (A) (A) (A) (A) (A) (A) (A) (A) (A) (A) (A)
                 (A) (A) (A) (A) (A) (A) (A) (A) (A) (A) (A) (A)
                 (A) (A) (A) (A) (A) (A) (A) (A) (A) (A) (A) (A)
                 (A) (A) (A) (A) (A) (A) (A) (A) (A) (A) (A) (A)
                 (A) (A) (A) (A) (A) (A) (A) (A) (A)
       Virtual   (A) (A) (A) (A) (A) (A) (A) (A) (A) (A) (A) (A)
                 (A) (A) (A) (A) (A) (A) (A) (A) (A) (A) (A) (A)
                 (A) (A) (A) (A) (A) (A) (A) (A) (A) (A) (A) (A)
                 (A) (A) (A) (A) (A) (A) (A) (A) (A) (A) (A) (A)
                 (A) (A) (A) (A) (A) (A) (A) (A) (A) (A) (A) (A)
                 (A) (A) (A) (A) (A) (A) (A) (A) (A) (A) (A) (A)
                 (A) (A) (A) (A) (A) (A) (A) (A) (A) (A) (A) (A)
                 (A) (A) (A) (A) (A) (A) (A) (A) (A) (A) (A) (A)
                 (A) (A) (A) (A) (A) (A) (A) (A) (A) (A) (A) (A)
                 (A) (A) (A) (A) (A) (A) (A) (A) (A) (A) (A) (A)
                 (A) (A) (A) (A) (A) (A) (A) (A) (A) (A) (A) (A)
                 (A) (A) (A) (A) (A) (A) (A) (A) (A) (A) (A) (A)
                 (A) (A) (A) (A) (A) (A) (A) (A) (A) (A) (A) (A)
                 (A) (A) (A) (A) (A) (A) (A) (A) (A) (A) (A) (A)
                 (A) (A) (A) (A) (A) (A) (A) (A) (A) (A) (A) (A)
                 (A) (A) (A) (A) (A) (A) (A) (A) (A) (A) (A) (A)
                 (A) (A) (A) (A) (A) (A) (A) (A) (A) (A) (A) (A)
                 (A) (A) (A) (A) (A) (A) (A) (A) (A) (A) (A) (A)
                 (A) (A) (A) (A) (A) (A) (A) (A) (A) (A) (A) (A)
                 (A) (A) (A) (A) (A) (A) (A) (A) (A) (A) (A) (A)
                 (A) (A) (A) (A) (A) (A) (A) (A) (A) (A) (A) (A)
                 (A) (A) (A) (A) (A) (A) (A) (A) (A) (A) (A) (A)
                 (A) (A) (A) (A) (A) (A) (A) (A) (A) (A) (A) (A)
                 (A) (A) (A) (A) (A) (A) (A) (A) (A) (A) (A) (A)
                 (A) (A) (A) (A) (A) (A) (A) (A) (A) (A) (A) (A)
                 (A) (A) (A) (A) (A) (A) (A) (A) (A) (A) (A) (A)
                 (A) (A) (A) (A) (A) (A) (A) (A) (A) (A) (A) (A)
                 (A) (A) (A) (A) (A) (A) (A) (A) (A) (A) (A) (A)
                 (A) (A) (A) (A) (A) (A) (A) (A) (A) (A) (A) (A)
                 (A) (A) (A) (A) (A) (A) (A) (A) (A) (A) (A) (A)
                 (A) (A) (A) (A) (A) (A) (A) (A) (A) (A) (A) (A)
                 (A) (A) (A) (A) (A) (A) (A) (A) (A) (A) (A) (A)
                 (A) (A) (A) (A) (A) (A) (A) (A) (A) (A) (A) (A)
                 (A) (A) (A) (A) (A) (A) (A) (A) (A) (A) (A) (A)
                 (A) (A) (A) (A) (A) (A) (A) (A) (A) (A) (A) (A)
                 (A) (A) (A) (A) (A) (A) (A) (A) (A) (A) (A) (A)
                 (A) (A) (A) (A) (A) (A) (A) (A) (A) (A) (A) (A)
                 (A) (A) (A) (A) (A) (A) (A) (A) (A) (A) (A) (A)
                 (A) (A) (A) (A) (A) (A) (A) (A) (A) (A) (A) (A)
                 (A) (A) (A) (A) (A) (A) (A) (A) (A) (A) (A) (A)
                 (A) (A) (A) (A) (A) (A) (A) (A) (A) (A) (A) (A)
                 (A) (A) (A) (A) (A) (A) (A) (A) (A) (A) (A) (A)
                 (A) (A) (A) (A) (A) (A) (A) (A) (A) (A) (A) (A)
                 (A) (A) (A) (A) (A) (A) (A) (A) (A) (A) (A) (A)
                 (A) (A) (A) (A) (A) (A) (A) (A) (A) (A) (A) (A)
                 (A) (A) (A) (A) (A) (A) (A) (A) (A) (A) (A) (A)
                 (A) (A) (A) (A) (A) (A) (A) (A) (A) (A) (A) (A)
                 (A) (A) (A) (A) (A) (A) (A) (A) (A) (A) (A) (A)
                 (A) (A) (A) (A) (A) (A) (A) (A) (A) (A) (A) (A)
                 (A) (A) (A) (A) (A) (A) (A) (A) (A) (A) (A) (A)
                 (A) (A) (A) (A) (A) (A) (A) (A) (A) (A) (A) (A)
                 (A) (A) (A) (A) (A) (A) (A) (A) (A) (A) (A) (A)
                 (A) (A) (A) (A) (A) (A) (A) (A) (A) (A) (A) (A)
                 (A) (A) (A) (A) (A) (A) (A) (A) (A) (A) (A) (A)
                 (A) (A) (A) (A) (A) (A) (A) (A) (A) (A) (A) (A)
                 (A) (A) (A) (A) (A) (A) (A) (A) (A) (A) (A) (A)
                 (A) (A) (A) (A) (A) (A) (A) (A) (A) (A) (A) (A)
                 (A) (A) (A) (A) (A) (A) (A) (A) (A) (A) (A) (A)
                 (A) (A) (A) (A) (A) (A) (A) (A) (A) (A) (A) (A)
                 (A) (A) (A) (A) (A) (A) (A) (A) (A) (A) (A) (A)
                 (A) (A) (A) (A) (A) (A) (A) (A) (A) (A) (A) (A)
                 (A) (A) (A) (A) (A) (A) (A) (A) (A) (A) (A) (A)
                 (A) (A) (A) (A) (A) (A) (A) (A) (A) (A) (A) (A)
                 (A) (A) (A) (A) (A) (A) (A) (A) (A) (A) (A) (A)
                 (A) (A) (A) (A) (A) (A) (A) (A) (A) (A) (A) (A)
                 (A) (A) (A) (A) (A) (A) (A) (A) (A) (A) (A) (A)
                 (A) (A) (A) (A) (A) (A) (A) (A) (A) (A) (A) (A)
                 (A) (A) (A) (A) (A) (A) (A) (A) (A) (A) (A) (A)
                 (A) (A) (A) (A) (A) (A) (A) (A) (A) (A) (A) (A)
                 (A) (A) (A) (A) (A) (A) (A) (A) (A) (A) (A) (A)
                 (A) (A) (A) (A) (A) (A) (A) (A) (A) (A) (A) (A)
                 (A) (A) (A) (A) (A) (A) (A) (A) (A) (A) (A) (A)
                 (A) (A) (A) (A) (A) (A) (A) (A) (A) (A) (A) (A)
                 (A) (A) (A) (A) (A) (A) (A) (A) (A) (A) (A) (A)
                 (A) (A) (A) (A) (A) (A) (A) (A) (A) (A) (A) (A)
                 (A) (A) (A) (A) (A) (A) (A) (A) (A) (A) (A) (A)
                 (A) (A) (A) (A) (A) (A) (A) (A) (A) (A) (A) (A)
                 (A) (A) (A) (A) (A) (A) (A) (A) (A) (A) (A) (A)
                 (A) (A) (A) (A) (A) (A) (A) (A) (A) (A) (A) (A)
                 (A) (A) (A) (A) (A) (A) (A) (A) (A) (A) (A) (A)
                 (A) (A) (A) (A) (A) (A) (A) (A) (A) (A) (A) (A)
                 (A) (A) (A) (A) (A) (A) (A) (A) (A) (A) (A) (A)
                 (A) (A) (A) (A) (A) (A) (A) (A) (A) (A) (A) (A)
                 (A) (A) (A) (A) (A) (A) (A) (A) (A) (A) (A) (A)
                 (A) (A) (A) (A) (A) (A) (A) (A) (A) (A) (A) (A)
                 (A) (A) (A) (A) (A) (A) (A) (A) (A) (A) (A) (A)
                 (A) (A) (A) (A) (A) (A) (A) (A) (A) (A) (A) (A)
                 (A) (A) (A) (A) (A) (A) (A) (A) (A) (A) (A) (A)
                 (A) (A) (A) (A) (A) (A) (A) (A) (A) (A) (A) (A)
                 (A) (A) (A) (A) (A) (A) (A) (A) (A) (A) (A) (A)
                 (A) (A) (A) (A) (A) (A) (A) (A) (A) (A) (A) (A)
                 (A) (A) (A) (A) (A) (A) (A) (A) (A) (A) (A) (A)
                 (A) (A) (A) (A) (A) (A) (A) (A) (A) (A) (A) (A)
                 (A) (A) (A) (A) (A) (A) (A) (A) (A) (A) (A) (A)
                 (A) (A) (A) (A) (A) (A) (A) (A) (A) (A) (A) (A)
                 (A) (A) (A) (A) (A) (A) (A) (A) (A) (A) (A) (A)
                 (A) (A) (A) (A) (A) (A) (A) (A) (A) (A) (A) (A)
                 (A) (A) (A) (A) (A) (A) (A) (A) (A) (A) (A) (A)
                 (A) (A) (A) (A) (A) (A) (A) (A) (A) (A) (A) (A)
                 (A) (A) (A) (A) (A) (A) (A) (A) (A) (A) (A) (A)
                 (A) (A) (A) (A) (A) (A) (A) (A) (A) (A) (A) (A)
                 (A) (A) (A) (A) (A) (A) (A) (A) (A) (A) (A) (A)
                 (A) (A) (A) (A) (A) (A) (A) (A) (A) (A) (A) (A)
                 (A) (A) (A) (A) (A) (A) (A) (A) (A) (A) (A) (A)
                 (A) (A) (A) (A) (A) (A) (A) (A) (A) (A) (A) (A)
                 (A) (A) (A) (A) (A) (A) (A) (A) (A) (A) (A) (A)
                 (A) (A) (A) (A) (A) (A) (A) (A) (A) (A) (A) (A)
                 (A) (A) (A) (A) (A) (A) (A) (A) (A) (A) (A) (A)
                 (A) (A) (A) (A) (A) (A) (A) (A) (A) (A) (A) (A)
                 (A) (A) (A) (A) (A) (A) (A) (A) (A) (A) (A) (A)
                 (A) (A) (A) (A) (A) (A) (A) (A) (A) (A) (A) (A)
                 (A) (A) (A) (A) (A) (A) (A) (A) (A) (A) (A) (A)
                 (A) (A) (A) (A) (A) (A) (A) (A) (A) (A) (A) (A)
                 (A) (A) (A) (A) (A) (A) (A) (A) (A) (A) (A) (A)
                 (A) (A) (A) (A) (A) (A) (A) (A) (A) (A) (A) (A)
                 (A) (A) (A) (A) (A) (A) (A) (A) (A) (A) (A) (A)
                 (A) (A) (A) (A) (A) (A) (A) (A) (A) (A) (A) (A)
                 (A) (A) (A) (A) (A) (A) (A) (A) (A) (A) (A) (A)
                 (A) (A) (A) (A) (A) (A) (A) (A) (A) (A) (A) (A)
                 (A) (A) (A) (A) (A) (A) (A) (A) (A) (A) (A) (A)
                 (A) (A) (A) (A) (A) (A) (A) (A) (A) (A) (A) (A)
                 (A) (A) (A) (A) (A) (A) (A) (A) (A) (A) (A) (A)
                 (A) (A) (A) (A) (A) (A) (A) (A) (A) (A) (A) (A)
                 (A) (A) (A) (A) (A) (A) (A) (A) (A) (A) (A) (A)
                 (A) (A) (A) (A) (A) (A) (A) (A) (A) (A) (A) (A)
                 (A) (A) (A) (A) (A) (A) (A) (A) (A) (A) (A) (A)
                 (A) (A) (A) (A) (A) (A) (A) (A) (A) (A) (A) (A)
                 (A) (A) (A) (A) (A) (A) (A) (A) (A) (A) (A) (A)
                 (A) (A) (A) (A) (A) (A) (A) (A) (A) (A) (A) (A)
                 (A) (A) (A) (A) (A) (A) (A) (A) (A) (A) (A) (A)
                 (A) (A) (A) (A) (A) (A) (A) (A) (A) (A) (A) (A)
                 (A) (A) (A) (A) (A) (A) (A) (A) (A) (A) (A) (A)
                 (A) (A) (A) (A) (A) (A) (A) (A) (A) (A) (A) (A)
                 (A) (A) (A) (A) (A) (A) (A) (A) (A) (A) (A) (A)
                 (A) (A) (A) (A) (A) (A) (A) (A) (A) (A) (A) (A)
                 (A) (A) (A) (A) (A) (A) (A) (A) (A) (A) (A) (A)
                 (A) (A) (A) (A) (A) (A) (A) (A)
 The electronic state is 2-A.
 Alpha  occ. eigenvalues -- -256.43634 -30.20373 -26.03311 -26.02880 -26.02669
 Alpha  occ. eigenvalues --  -19.34722 -19.34692 -19.26282 -19.25103 -14.54181
 Alpha  occ. eigenvalues --  -14.53980 -14.49357 -14.49057 -14.48978 -14.48841
 Alpha  occ. eigenvalues --  -14.48025 -10.43530 -10.43005 -10.40814 -10.38032
 Alpha  occ. eigenvalues --  -10.37601 -10.37560 -10.37047 -10.36897 -10.36719
 Alpha  occ. eigenvalues --  -10.36463 -10.36381 -10.36001 -10.36000 -10.33854
 Alpha  occ. eigenvalues --  -10.33667 -10.33352 -10.33311 -10.33309 -10.33292
 Alpha  occ. eigenvalues --  -10.33071 -10.33065 -10.32993 -10.32872 -10.32840
 Alpha  occ. eigenvalues --  -10.32592 -10.32569 -10.32457 -10.32381 -10.32367
 Alpha  occ. eigenvalues --  -10.32159 -10.31745 -10.31464 -10.31284 -10.31131
 Alpha  occ. eigenvalues --  -10.30926 -10.30792 -10.30425 -10.30327 -10.30249
 Alpha  occ. eigenvalues --   -3.54967  -2.31111  -2.30316  -2.29970  -1.25684
 Alpha  occ. eigenvalues --   -1.24651  -1.14134  -1.11547  -1.10220  -1.09325
 Alpha  occ. eigenvalues --   -1.09171  -1.08901  -1.07993  -1.00544  -0.99992
 Alpha  occ. eigenvalues --   -0.95923  -0.94398  -0.93789  -0.93166  -0.92769
 Alpha  occ. eigenvalues --   -0.92640  -0.92351  -0.89589  -0.88894  -0.88818
 Alpha  occ. eigenvalues --   -0.87912  -0.87478  -0.86896  -0.85070  -0.82867
 Alpha  occ. eigenvalues --   -0.82251  -0.81576  -0.80778  -0.79978  -0.79810
 Alpha  occ. eigenvalues --   -0.79291  -0.77527  -0.77227  -0.74674  -0.74058
 Alpha  occ. eigenvalues --   -0.73924  -0.72615  -0.71676  -0.70804  -0.70488
 Alpha  occ. eigenvalues --   -0.70267  -0.69371  -0.66787  -0.66499  -0.65886
 Alpha  occ. eigenvalues --   -0.65013  -0.64464  -0.64020  -0.62901  -0.62782
 Alpha  occ. eigenvalues --   -0.61493  -0.60449  -0.59950  -0.59711  -0.59190
 Alpha  occ. eigenvalues --   -0.59069  -0.58266  -0.58106  -0.57782  -0.57253
 Alpha  occ. eigenvalues --   -0.56959  -0.56788  -0.56489  -0.56089  -0.55872
 Alpha  occ. eigenvalues --   -0.55264  -0.55195  -0.54953  -0.54525  -0.54302
 Alpha  occ. eigenvalues --   -0.54004  -0.53830  -0.53502  -0.53240  -0.53059
 Alpha  occ. eigenvalues --   -0.52366  -0.52237  -0.52027  -0.51675  -0.51436
 Alpha  occ. eigenvalues --   -0.51225  -0.50953  -0.50863  -0.50697  -0.50496
 Alpha  occ. eigenvalues --   -0.50396  -0.50058  -0.49829  -0.49602  -0.49514
 Alpha  occ. eigenvalues --   -0.49438  -0.48873  -0.48780  -0.48285  -0.47907
 Alpha  occ. eigenvalues --   -0.47773  -0.47533  -0.47007  -0.46565  -0.46441
 Alpha  occ. eigenvalues --   -0.45794  -0.45430  -0.44944  -0.44883  -0.44751
 Alpha  occ. eigenvalues --   -0.44598  -0.44089  -0.43739  -0.43103  -0.42614
 Alpha  occ. eigenvalues --   -0.42127  -0.41836  -0.40799  -0.40428  -0.40082
 Alpha  occ. eigenvalues --   -0.39665  -0.39174  -0.38512  -0.36620  -0.36393
 Alpha  occ. eigenvalues --   -0.35866  -0.34890  -0.34310  -0.33636  -0.32809
 Alpha  occ. eigenvalues --   -0.32328  -0.31488  -0.30945  -0.30342  -0.30256
 Alpha virt. eigenvalues --   -0.18743  -0.18111  -0.13783  -0.13199  -0.12299
 Alpha virt. eigenvalues --   -0.11157  -0.10358  -0.09858  -0.08507  -0.07794
 Alpha virt. eigenvalues --   -0.07575  -0.06538  -0.06133  -0.05811  -0.05443
 Alpha virt. eigenvalues --   -0.04667  -0.04423  -0.04162  -0.03839  -0.03360
 Alpha virt. eigenvalues --   -0.02980  -0.02578  -0.02402  -0.02107  -0.01929
 Alpha virt. eigenvalues --   -0.01675  -0.01194  -0.00820  -0.00622  -0.00200
 Alpha virt. eigenvalues --    0.00050   0.00327   0.00696   0.01008   0.01303
 Alpha virt. eigenvalues --    0.01686   0.01842   0.02161   0.02332   0.02498
 Alpha virt. eigenvalues --    0.02732   0.03117   0.03453   0.03585   0.03775
 Alpha virt. eigenvalues --    0.03913   0.04218   0.04785   0.05073   0.05237
 Alpha virt. eigenvalues --    0.05425   0.05622   0.05672   0.05813   0.05935
 Alpha virt. eigenvalues --    0.06113   0.06168   0.06232   0.06718   0.06831
 Alpha virt. eigenvalues --    0.06935   0.07129   0.07471   0.07648   0.08013
 Alpha virt. eigenvalues --    0.08161   0.08524   0.08725   0.09024   0.09320
 Alpha virt. eigenvalues --    0.09378   0.09816   0.09975   0.10075   0.10312
 Alpha virt. eigenvalues --    0.10443   0.10815   0.11109   0.11388   0.11572
 Alpha virt. eigenvalues --    0.11902   0.12292   0.12412   0.12647   0.12953
 Alpha virt. eigenvalues --    0.13131   0.13482   0.13795   0.13961   0.14045
 Alpha virt. eigenvalues --    0.14112   0.14452   0.14517   0.14888   0.14928
 Alpha virt. eigenvalues --    0.15233   0.15471   0.15607   0.15830   0.15996
 Alpha virt. eigenvalues --    0.16226   0.16373   0.16516   0.16581   0.16875
 Alpha virt. eigenvalues --    0.16943   0.17100   0.17442   0.17900   0.18048
 Alpha virt. eigenvalues --    0.18094   0.18636   0.18717   0.19001   0.19214
 Alpha virt. eigenvalues --    0.19328   0.19630   0.19818   0.19973   0.20039
 Alpha virt. eigenvalues --    0.20330   0.20601   0.20763   0.20894   0.21244
 Alpha virt. eigenvalues --    0.21553   0.21813   0.22039   0.22297   0.22412
 Alpha virt. eigenvalues --    0.22605   0.22804   0.23048   0.23144   0.23526
 Alpha virt. eigenvalues --    0.23702   0.23939   0.24465   0.24603   0.24805
 Alpha virt. eigenvalues --    0.25184   0.25390   0.25609   0.25703   0.26071
 Alpha virt. eigenvalues --    0.26331   0.26461   0.26834   0.27179   0.27259
 Alpha virt. eigenvalues --    0.27549   0.27634   0.27903   0.28332   0.28655
 Alpha virt. eigenvalues --    0.28741   0.28888   0.29154   0.29435   0.29588
 Alpha virt. eigenvalues --    0.29709   0.29973   0.30276   0.30339   0.30561
 Alpha virt. eigenvalues --    0.30658   0.30897   0.31250   0.31502   0.31714
 Alpha virt. eigenvalues --    0.31995   0.32053   0.32271   0.32396   0.32682
 Alpha virt. eigenvalues --    0.32886   0.33176   0.33319   0.33501   0.33853
 Alpha virt. eigenvalues --    0.33999   0.34261   0.34419   0.34645   0.34891
 Alpha virt. eigenvalues --    0.35017   0.35209   0.35231   0.35550   0.35803
 Alpha virt. eigenvalues --    0.35874   0.36011   0.36163   0.36356   0.36415
 Alpha virt. eigenvalues --    0.36742   0.37184   0.37399   0.37511   0.37732
 Alpha virt. eigenvalues --    0.37826   0.38036   0.38083   0.38228   0.38425
 Alpha virt. eigenvalues --    0.38589   0.38623   0.38911   0.39031   0.39289
 Alpha virt. eigenvalues --    0.39462   0.39751   0.40104   0.40139   0.40345
 Alpha virt. eigenvalues --    0.40524   0.40708   0.40834   0.41181   0.41393
 Alpha virt. eigenvalues --    0.41547   0.41739   0.41884   0.42190   0.42345
 Alpha virt. eigenvalues --    0.42441   0.42709   0.42839   0.42980   0.43167
 Alpha virt. eigenvalues --    0.43270   0.43457   0.43617   0.43849   0.44049
 Alpha virt. eigenvalues --    0.44316   0.44555   0.44974   0.45249   0.45323
 Alpha virt. eigenvalues --    0.45353   0.45647   0.45864   0.46049   0.46247
 Alpha virt. eigenvalues --    0.46450   0.46514   0.46787   0.47047   0.47282
 Alpha virt. eigenvalues --    0.47437   0.47674   0.47990   0.48165   0.48559
 Alpha virt. eigenvalues --    0.48691   0.48881   0.49059   0.49261   0.49763
 Alpha virt. eigenvalues --    0.50164   0.50290   0.50603   0.50977   0.51191
 Alpha virt. eigenvalues --    0.51356   0.51592   0.51915   0.52104   0.52338
 Alpha virt. eigenvalues --    0.52605   0.52778   0.52963   0.53690   0.53735
 Alpha virt. eigenvalues --    0.54173   0.54292   0.54494   0.54569   0.55112
 Alpha virt. eigenvalues --    0.55343   0.55463   0.55609   0.55790   0.55819
 Alpha virt. eigenvalues --    0.56196   0.56422   0.56691   0.56933   0.57605
 Alpha virt. eigenvalues --    0.57823   0.57993   0.58092   0.58416   0.58610
 Alpha virt. eigenvalues --    0.58729   0.58990   0.59054   0.59397   0.59834
 Alpha virt. eigenvalues --    0.59978   0.60169   0.60219   0.60950   0.61252
 Alpha virt. eigenvalues --    0.61605   0.61814   0.62138   0.62504   0.62693
 Alpha virt. eigenvalues --    0.62726   0.63145   0.63393   0.63885   0.64004
 Alpha virt. eigenvalues --    0.64173   0.64789   0.64970   0.65063   0.65573
 Alpha virt. eigenvalues --    0.66076   0.66361   0.66842   0.67010   0.67519
 Alpha virt. eigenvalues --    0.67574   0.67624   0.67945   0.68483   0.68646
 Alpha virt. eigenvalues --    0.68984   0.69309   0.69658   0.69800   0.70154
 Alpha virt. eigenvalues --    0.70459   0.70616   0.70930   0.71024   0.71166
 Alpha virt. eigenvalues --    0.71609   0.72306   0.72468   0.72697   0.73112
 Alpha virt. eigenvalues --    0.73339   0.73706   0.73977   0.74390   0.74624
 Alpha virt. eigenvalues --    0.74980   0.75581   0.75891   0.76070   0.76387
 Alpha virt. eigenvalues --    0.76625   0.76833   0.77256   0.77530   0.77670
 Alpha virt. eigenvalues --    0.78192   0.78508   0.78914   0.79114   0.79238
 Alpha virt. eigenvalues --    0.79522   0.79554   0.80047   0.80436   0.80810
 Alpha virt. eigenvalues --    0.80838   0.81051   0.81442   0.81694   0.81822
 Alpha virt. eigenvalues --    0.82273   0.82293   0.82702   0.83329   0.83408
 Alpha virt. eigenvalues --    0.83920   0.83966   0.84431   0.84695   0.85044
 Alpha virt. eigenvalues --    0.85334   0.85679   0.85817   0.86119   0.86177
 Alpha virt. eigenvalues --    0.86465   0.86879   0.87062   0.87294   0.87579
 Alpha virt. eigenvalues --    0.87770   0.88053   0.88275   0.88471   0.88783
 Alpha virt. eigenvalues --    0.89065   0.89287   0.89582   0.90044   0.90149
 Alpha virt. eigenvalues --    0.90521   0.90647   0.91397   0.91463   0.91751
 Alpha virt. eigenvalues --    0.92027   0.92458   0.92705   0.93148   0.93363
 Alpha virt. eigenvalues --    0.93700   0.93961   0.94265   0.94710   0.94772
 Alpha virt. eigenvalues --    0.95428   0.95521   0.96065   0.96334   0.96891
 Alpha virt. eigenvalues --    0.97088   0.97318   0.97501   0.97673   0.98514
 Alpha virt. eigenvalues --    0.98999   0.99235   0.99310   0.99650   0.99795
 Alpha virt. eigenvalues --    1.00030   1.00338   1.00561   1.01290   1.01624
 Alpha virt. eigenvalues --    1.01759   1.02102   1.02917   1.03123   1.03532
 Alpha virt. eigenvalues --    1.03881   1.04012   1.04774   1.05040   1.05380
 Alpha virt. eigenvalues --    1.05664   1.05873   1.06337   1.06395   1.07103
 Alpha virt. eigenvalues --    1.07403   1.07771   1.08124   1.08663   1.08692
 Alpha virt. eigenvalues --    1.08883   1.09263   1.09882   1.10374   1.10810
 Alpha virt. eigenvalues --    1.11211   1.11447   1.11837   1.11969   1.12574
 Alpha virt. eigenvalues --    1.12766   1.13192   1.13657   1.13684   1.14069
 Alpha virt. eigenvalues --    1.14267   1.14672   1.15002   1.15288   1.15658
 Alpha virt. eigenvalues --    1.15965   1.16552   1.16641   1.17073   1.17324
 Alpha virt. eigenvalues --    1.17706   1.17915   1.18334   1.18573   1.18775
 Alpha virt. eigenvalues --    1.19332   1.19789   1.20279   1.20609   1.20840
 Alpha virt. eigenvalues --    1.21324   1.21673   1.21854   1.22233   1.22480
 Alpha virt. eigenvalues --    1.23294   1.23484   1.23825   1.24023   1.24376
 Alpha virt. eigenvalues --    1.25233   1.25320   1.25363   1.26206   1.26375
 Alpha virt. eigenvalues --    1.27127   1.27305   1.27851   1.28030   1.28771
 Alpha virt. eigenvalues --    1.29012   1.29376   1.29747   1.29936   1.30818
 Alpha virt. eigenvalues --    1.31142   1.31527   1.31714   1.31910   1.32393
 Alpha virt. eigenvalues --    1.32665   1.32903   1.33470   1.33937   1.34218
 Alpha virt. eigenvalues --    1.34669   1.35066   1.35172   1.35500   1.36139
 Alpha virt. eigenvalues --    1.36734   1.36995   1.37265   1.37744   1.38163
 Alpha virt. eigenvalues --    1.38515   1.38777   1.39221   1.39615   1.40251
 Alpha virt. eigenvalues --    1.40370   1.40761   1.41151   1.41432   1.41581
 Alpha virt. eigenvalues --    1.41813   1.42062   1.42439   1.42611   1.43192
 Alpha virt. eigenvalues --    1.43385   1.43678   1.44050   1.44184   1.44615
 Alpha virt. eigenvalues --    1.44648   1.44803   1.45219   1.45279   1.45509
 Alpha virt. eigenvalues --    1.45977   1.46266   1.46445   1.46765   1.46855
 Alpha virt. eigenvalues --    1.46952   1.47160   1.47680   1.48057   1.48223
 Alpha virt. eigenvalues --    1.48460   1.48608   1.48872   1.48986   1.49399
 Alpha virt. eigenvalues --    1.49696   1.49898   1.50850   1.51049   1.51230
 Alpha virt. eigenvalues --    1.51410   1.52022   1.52242   1.52584   1.52743
 Alpha virt. eigenvalues --    1.52958   1.53206   1.53390   1.53729   1.53763
 Alpha virt. eigenvalues --    1.54136   1.54194   1.54374   1.54673   1.55276
 Alpha virt. eigenvalues --    1.55417   1.55628   1.55786   1.55927   1.56262
 Alpha virt. eigenvalues --    1.56547   1.56795   1.57324   1.57462   1.57997
 Alpha virt. eigenvalues --    1.58179   1.58332   1.58501   1.58830   1.58914
 Alpha virt. eigenvalues --    1.59565   1.59871   1.60414   1.60668   1.60887
 Alpha virt. eigenvalues --    1.61034   1.61609   1.62019   1.62330   1.62548
 Alpha virt. eigenvalues --    1.62742   1.63052   1.63548   1.64052   1.64350
 Alpha virt. eigenvalues --    1.64752   1.64870   1.65374   1.65421   1.65675
 Alpha virt. eigenvalues --    1.66156   1.66292   1.66639   1.67304   1.67585
 Alpha virt. eigenvalues --    1.67675   1.67815   1.68464   1.68601   1.69159
 Alpha virt. eigenvalues --    1.69322   1.70568   1.70816   1.71078   1.71793
 Alpha virt. eigenvalues --    1.72237   1.72763   1.72972   1.73267   1.73749
 Alpha virt. eigenvalues --    1.73954   1.74290   1.74607   1.74838   1.75583
 Alpha virt. eigenvalues --    1.75769   1.76503   1.76828   1.77381   1.77767
 Alpha virt. eigenvalues --    1.78182   1.78746   1.79327   1.79815   1.79924
 Alpha virt. eigenvalues --    1.80344   1.80708   1.80942   1.81252   1.81971
 Alpha virt. eigenvalues --    1.82234   1.82694   1.83090   1.83346   1.83611
 Alpha virt. eigenvalues --    1.83922   1.84331   1.84467   1.84900   1.85124
 Alpha virt. eigenvalues --    1.85788   1.86394   1.86593   1.87162   1.87283
 Alpha virt. eigenvalues --    1.87765   1.87935   1.88193   1.88593   1.88847
 Alpha virt. eigenvalues --    1.89222   1.89409   1.89519   1.90043   1.90317
 Alpha virt. eigenvalues --    1.90772   1.90959   1.91518   1.91754   1.92237
 Alpha virt. eigenvalues --    1.92424   1.93606   1.93945   1.94346   1.94387
 Alpha virt. eigenvalues --    1.94487   1.94884   1.95074   1.95809   1.96177
 Alpha virt. eigenvalues --    1.96223   1.96723   1.97195   1.97950   1.98327
 Alpha virt. eigenvalues --    1.98717   1.99272   1.99624   1.99866   2.00271
 Alpha virt. eigenvalues --    2.00617   2.01012   2.01331   2.01369   2.01897
 Alpha virt. eigenvalues --    2.02497   2.02988   2.03042   2.03310   2.04142
 Alpha virt. eigenvalues --    2.04327   2.04450   2.04772   2.05039   2.05449
 Alpha virt. eigenvalues --    2.05844   2.06059   2.06602   2.07365   2.07604
 Alpha virt. eigenvalues --    2.07698   2.07918   2.08632   2.08691   2.08888
 Alpha virt. eigenvalues --    2.09327   2.09590   2.10045   2.10281   2.10634
 Alpha virt. eigenvalues --    2.11272   2.11647   2.12190   2.12903   2.12957
 Alpha virt. eigenvalues --    2.13451   2.13959   2.14130   2.14303   2.14859
 Alpha virt. eigenvalues --    2.15156   2.15862   2.16704   2.16802   2.17127
 Alpha virt. eigenvalues --    2.17606   2.18034   2.18293   2.18422   2.18787
 Alpha virt. eigenvalues --    2.19170   2.19748   2.20148   2.20460   2.21186
 Alpha virt. eigenvalues --    2.21430   2.21943   2.22834   2.23211   2.23820
 Alpha virt. eigenvalues --    2.24238   2.24601   2.25081   2.25262   2.25858
 Alpha virt. eigenvalues --    2.26243   2.26743   2.26916   2.27452   2.27736
 Alpha virt. eigenvalues --    2.27880   2.28170   2.28747   2.28784   2.29184
 Alpha virt. eigenvalues --    2.29604   2.29782   2.30164   2.30725   2.31281
 Alpha virt. eigenvalues --    2.31459   2.31815   2.31891   2.32248   2.32692
 Alpha virt. eigenvalues --    2.32837   2.33292   2.33326   2.33462   2.34805
 Alpha virt. eigenvalues --    2.35216   2.35410   2.36076   2.36175   2.36219
 Alpha virt. eigenvalues --    2.36716   2.36934   2.37210   2.37711   2.38087
 Alpha virt. eigenvalues --    2.38350   2.38404   2.39206   2.39485   2.39820
 Alpha virt. eigenvalues --    2.40378   2.40812   2.41115   2.41185   2.42249
 Alpha virt. eigenvalues --    2.42780   2.43164   2.43319   2.44074   2.44361
 Alpha virt. eigenvalues --    2.44575   2.45048   2.45237   2.45596   2.46152
 Alpha virt. eigenvalues --    2.46362   2.46691   2.47232   2.47318   2.47450
 Alpha virt. eigenvalues --    2.48106   2.48448   2.48758   2.49165   2.49436
 Alpha virt. eigenvalues --    2.49884   2.49948   2.50211   2.50470   2.50598
 Alpha virt. eigenvalues --    2.50932   2.51201   2.51397   2.51627   2.52382
 Alpha virt. eigenvalues --    2.52583   2.52681   2.53143   2.53470   2.53623
 Alpha virt. eigenvalues --    2.53989   2.54509   2.54796   2.55218   2.55669
 Alpha virt. eigenvalues --    2.56063   2.56068   2.56623   2.56777   2.57211
 Alpha virt. eigenvalues --    2.57534   2.57548   2.58125   2.58263   2.58615
 Alpha virt. eigenvalues --    2.58893   2.59327   2.59745   2.59867   2.60257
 Alpha virt. eigenvalues --    2.60553   2.60799   2.61239   2.61497   2.61722
 Alpha virt. eigenvalues --    2.62083   2.62767   2.62783   2.63617   2.63717
 Alpha virt. eigenvalues --    2.64242   2.64520   2.64715   2.65194   2.65704
 Alpha virt. eigenvalues --    2.66086   2.66337   2.66614   2.66767   2.66956
 Alpha virt. eigenvalues --    2.67642   2.67941   2.68416   2.68610   2.68767
 Alpha virt. eigenvalues --    2.69109   2.69297   2.69476   2.69841   2.70595
 Alpha virt. eigenvalues --    2.70970   2.71086   2.71381   2.72137   2.72156
 Alpha virt. eigenvalues --    2.72600   2.73420   2.73643   2.74166   2.74731
 Alpha virt. eigenvalues --    2.74956   2.75279   2.75482   2.75800   2.76094
 Alpha virt. eigenvalues --    2.76652   2.77259   2.77532   2.77655   2.78140
 Alpha virt. eigenvalues --    2.78489   2.78819   2.79253   2.79459   2.79848
 Alpha virt. eigenvalues --    2.79903   2.80301   2.80673   2.81254   2.81602
 Alpha virt. eigenvalues --    2.81784   2.82653   2.82907   2.83361   2.83674
 Alpha virt. eigenvalues --    2.83809   2.84429   2.84619   2.84734   2.84970
 Alpha virt. eigenvalues --    2.85478   2.85762   2.85976   2.86353   2.86537
 Alpha virt. eigenvalues --    2.86793   2.87095   2.87266   2.87478   2.87939
 Alpha virt. eigenvalues --    2.88275   2.88626   2.88684   2.89071   2.89294
 Alpha virt. eigenvalues --    2.89361   2.90177   2.90348   2.90510   2.90597
 Alpha virt. eigenvalues --    2.91435   2.91739   2.92255   2.92376   2.92982
 Alpha virt. eigenvalues --    2.93086   2.93590   2.93714   2.94103   2.94202
 Alpha virt. eigenvalues --    2.94620   2.94752   2.95175   2.95359   2.95504
 Alpha virt. eigenvalues --    2.96088   2.96198   2.96342   2.96611   2.97128
 Alpha virt. eigenvalues --    2.97350   2.97432   2.97666   2.97997   2.98424
 Alpha virt. eigenvalues --    2.98832   2.99388   2.99562   2.99762   2.99961
 Alpha virt. eigenvalues --    3.00355   3.00747   3.00999   3.01318   3.01551
 Alpha virt. eigenvalues --    3.01653   3.01938   3.02048   3.02341   3.02668
 Alpha virt. eigenvalues --    3.03054   3.03468   3.03734   3.04024   3.04527
 Alpha virt. eigenvalues --    3.05120   3.05203   3.05506   3.05744   3.05930
 Alpha virt. eigenvalues --    3.06116   3.06419   3.06943   3.06946   3.07272
 Alpha virt. eigenvalues --    3.07462   3.07599   3.08281   3.08443   3.08621
 Alpha virt. eigenvalues --    3.08813   3.09063   3.09621   3.09733   3.09980
 Alpha virt. eigenvalues --    3.10444   3.10578   3.10953   3.11240   3.11544
 Alpha virt. eigenvalues --    3.11664   3.12007   3.12348   3.12619   3.12848
 Alpha virt. eigenvalues --    3.13093   3.13325   3.13536   3.13779   3.14018
 Alpha virt. eigenvalues --    3.14445   3.14538   3.14726   3.15023   3.15403
 Alpha virt. eigenvalues --    3.15475   3.15699   3.15839   3.16097   3.16646
 Alpha virt. eigenvalues --    3.16853   3.16934   3.17246   3.17664   3.18034
 Alpha virt. eigenvalues --    3.18192   3.18526   3.18820   3.19182   3.19535
 Alpha virt. eigenvalues --    3.19614   3.19713   3.19810   3.20266   3.20734
 Alpha virt. eigenvalues --    3.20951   3.21485   3.21802   3.22003   3.22242
 Alpha virt. eigenvalues --    3.22443   3.22685   3.23174   3.23598   3.23774
 Alpha virt. eigenvalues --    3.23953   3.24263   3.24574   3.24892   3.25272
 Alpha virt. eigenvalues --    3.25774   3.25960   3.26150   3.26403   3.26903
 Alpha virt. eigenvalues --    3.27070   3.27234   3.27490   3.27801   3.27856
 Alpha virt. eigenvalues --    3.28268   3.28387   3.28569   3.29036   3.29194
 Alpha virt. eigenvalues --    3.29593   3.29718   3.29966   3.30300   3.30719
 Alpha virt. eigenvalues --    3.30729   3.30838   3.31185   3.31550   3.31703
 Alpha virt. eigenvalues --    3.31932   3.32318   3.32595   3.32820   3.33441
 Alpha virt. eigenvalues --    3.33582   3.33698   3.33985   3.34321   3.34646
 Alpha virt. eigenvalues --    3.34737   3.35348   3.35476   3.35743   3.36137
 Alpha virt. eigenvalues --    3.36479   3.36681   3.37289   3.37653   3.37715
 Alpha virt. eigenvalues --    3.38041   3.38561   3.39206   3.39274   3.39786
 Alpha virt. eigenvalues --    3.39998   3.40514   3.40993   3.41134   3.41388
 Alpha virt. eigenvalues --    3.41455   3.41821   3.42168   3.42278   3.42533
 Alpha virt. eigenvalues --    3.43094   3.43431   3.44020   3.44375   3.44948
 Alpha virt. eigenvalues --    3.45251   3.45633   3.45811   3.46307   3.46585
 Alpha virt. eigenvalues --    3.46762   3.46993   3.47328   3.47632   3.47785
 Alpha virt. eigenvalues --    3.48778   3.48924   3.49557   3.49880   3.50102
 Alpha virt. eigenvalues --    3.50284   3.50778   3.51123   3.51389   3.51743
 Alpha virt. eigenvalues --    3.52036   3.52347   3.52604   3.53304   3.53551
 Alpha virt. eigenvalues --    3.53632   3.54095   3.54404   3.54664   3.55096
 Alpha virt. eigenvalues --    3.55545   3.55799   3.56015   3.56885   3.57029
 Alpha virt. eigenvalues --    3.57525   3.57726   3.58067   3.58427   3.58762
 Alpha virt. eigenvalues --    3.59178   3.59931   3.60116   3.60326   3.61044
 Alpha virt. eigenvalues --    3.61410   3.61761   3.61935   3.62505   3.62801
 Alpha virt. eigenvalues --    3.63478   3.63510   3.64073   3.64290   3.64916
 Alpha virt. eigenvalues --    3.65154   3.65604   3.65763   3.66370   3.66816
 Alpha virt. eigenvalues --    3.66906   3.67174   3.67648   3.68663   3.68712
 Alpha virt. eigenvalues --    3.69065   3.69952   3.70382   3.71269   3.72150
 Alpha virt. eigenvalues --    3.73137   3.73450   3.73572   3.73961   3.74349
 Alpha virt. eigenvalues --    3.74653   3.74719   3.75146   3.75871   3.77010
 Alpha virt. eigenvalues --    3.77149   3.77708   3.78131   3.78282   3.78777
 Alpha virt. eigenvalues --    3.79625   3.80024   3.80225   3.80339   3.81132
 Alpha virt. eigenvalues --    3.82049   3.82381   3.82953   3.83090   3.83477
 Alpha virt. eigenvalues --    3.84036   3.84272   3.84974   3.85080   3.85963
 Alpha virt. eigenvalues --    3.86180   3.87005   3.87717   3.88386   3.88731
 Alpha virt. eigenvalues --    3.89175   3.89873   3.90332   3.90737   3.91547
 Alpha virt. eigenvalues --    3.91987   3.92700   3.92937   3.93633   3.94001
 Alpha virt. eigenvalues --    3.94596   3.95203   3.95482   3.95806   3.96389
 Alpha virt. eigenvalues --    3.97088   3.97101   3.98215   3.99155   3.99460
 Alpha virt. eigenvalues --    3.99971   4.00696   4.01176   4.01966   4.02064
 Alpha virt. eigenvalues --    4.03063   4.03113   4.03761   4.04038   4.04355
 Alpha virt. eigenvalues --    4.05445   4.05996   4.06478   4.07085   4.07433
 Alpha virt. eigenvalues --    4.07986   4.08101   4.08873   4.09542   4.10130
 Alpha virt. eigenvalues --    4.10506   4.11710   4.11771   4.11979   4.12658
 Alpha virt. eigenvalues --    4.12962   4.13397   4.13871   4.14206   4.14690
 Alpha virt. eigenvalues --    4.15685   4.15731   4.16090   4.16620   4.18129
 Alpha virt. eigenvalues --    4.18476   4.18899   4.19606   4.19756   4.20146
 Alpha virt. eigenvalues --    4.20567   4.21527   4.22370   4.22451   4.22581
 Alpha virt. eigenvalues --    4.23739   4.24276   4.24427   4.25151   4.25731
 Alpha virt. eigenvalues --    4.25900   4.26252   4.26549   4.26945   4.27224
 Alpha virt. eigenvalues --    4.27533   4.28185   4.28844   4.29784   4.29990
 Alpha virt. eigenvalues --    4.30213   4.30787   4.30936   4.32303   4.32366
 Alpha virt. eigenvalues --    4.33057   4.33540   4.33768   4.34040   4.34348
 Alpha virt. eigenvalues --    4.34554   4.34812   4.35568   4.35783   4.36308
 Alpha virt. eigenvalues --    4.37269   4.37419   4.38117   4.38287   4.39324
 Alpha virt. eigenvalues --    4.39961   4.40223   4.41407   4.41568   4.43734
 Alpha virt. eigenvalues --    4.44373   4.44921   4.45432   4.46410   4.46909
 Alpha virt. eigenvalues --    4.47099   4.48148   4.49754   4.50335   4.51183
 Alpha virt. eigenvalues --    4.51734   4.52343   4.52767   4.53213   4.53392
 Alpha virt. eigenvalues --    4.54120   4.55068   4.55927   4.56361   4.56545
 Alpha virt. eigenvalues --    4.57145   4.58117   4.58782   4.59314   4.60109
 Alpha virt. eigenvalues --    4.60595   4.61074   4.61471   4.61854   4.62125
 Alpha virt. eigenvalues --    4.62729   4.63017   4.63519   4.64022   4.64148
 Alpha virt. eigenvalues --    4.64847   4.64999   4.65845   4.67135   4.67328
 Alpha virt. eigenvalues --    4.67741   4.68488   4.68992   4.70613   4.70904
 Alpha virt. eigenvalues --    4.71505   4.72415   4.72608   4.72961   4.73931
 Alpha virt. eigenvalues --    4.75299   4.75549   4.76462   4.76774   4.77368
 Alpha virt. eigenvalues --    4.77915   4.78363   4.78853   4.79776   4.80000
 Alpha virt. eigenvalues --    4.81450   4.82099   4.82586   4.83769   4.84441
 Alpha virt. eigenvalues --    4.85657   4.85808   4.86200   4.86823   4.87016
 Alpha virt. eigenvalues --    4.87567   4.88360   4.89501   4.89777   4.91205
 Alpha virt. eigenvalues --    4.91713   4.92901   4.93361   4.94212   4.94426
 Alpha virt. eigenvalues --    4.94844   4.95435   4.96616   4.97806   4.98467
 Alpha virt. eigenvalues --    4.98689   5.00374   5.00509   5.01280   5.02790
 Alpha virt. eigenvalues --    5.05210   5.06889   5.07107   5.09031   5.09129
 Alpha virt. eigenvalues --    5.10441   5.10662   5.11431   5.12367   5.12571
 Alpha virt. eigenvalues --    5.13395   5.14871   5.15322   5.15690   5.15988
 Alpha virt. eigenvalues --    5.16350   5.16538   5.18339   5.18881   5.19665
 Alpha virt. eigenvalues --    5.20720   5.21218   5.21354   5.21970   5.22873
 Alpha virt. eigenvalues --    5.24486   5.25807   5.26164   5.26812   5.27522
 Alpha virt. eigenvalues --    5.28302   5.29014   5.29619   5.30238   5.32283
 Alpha virt. eigenvalues --    5.32648   5.33562   5.35424   5.36622   5.38062
 Alpha virt. eigenvalues --    5.38288   5.39270   5.40022   5.40356   5.40874
 Alpha virt. eigenvalues --    5.42244   5.44769   5.45160   5.48081   5.48569
 Alpha virt. eigenvalues --    5.48841   5.49847   5.50092   5.50929   5.52074
 Alpha virt. eigenvalues --    5.52193   5.52379   5.54075   5.55854   5.56349
 Alpha virt. eigenvalues --    5.57471   5.57880   5.58729   5.60247   5.62752
 Alpha virt. eigenvalues --    5.64200   5.64409   5.66988   5.68564   5.68645
 Alpha virt. eigenvalues --    5.71655   5.71945   5.72959   5.79528   5.84060
 Alpha virt. eigenvalues --    5.86493   5.86615   5.87064   5.88152   5.89913
 Alpha virt. eigenvalues --    5.91851   5.92481   5.94690   5.95683   5.97506
 Alpha virt. eigenvalues --    5.99339   6.00710   6.00825   6.03182   6.04954
 Alpha virt. eigenvalues --    6.06620   6.07781   6.09690   6.11723   6.16731
 Alpha virt. eigenvalues --    6.18141   6.21780   6.23434   6.23861   6.26387
 Alpha virt. eigenvalues --    6.28162   6.29120   6.34991   6.35894   6.39061
 Alpha virt. eigenvalues --    6.40345   6.42515   6.47680   6.57688   6.57818
 Alpha virt. eigenvalues --    6.65853   6.70498   6.72458   6.78816   6.82067
 Alpha virt. eigenvalues --    6.88530   6.92338   6.94015   7.03519   7.06326
 Alpha virt. eigenvalues --    7.08355   7.12517   7.24595   7.24631  22.19911
 Alpha virt. eigenvalues --   22.24471  22.29463  22.40724  22.40989  22.46125
 Alpha virt. eigenvalues --   22.47125  22.48103  22.52349  22.57722  22.59792
 Alpha virt. eigenvalues --   22.66218  22.68352  22.68424  22.75897  22.78799
 Alpha virt. eigenvalues --   22.82285  22.85989  22.87937  22.89288  22.92000
 Alpha virt. eigenvalues --   22.96995  23.02848  23.10181  23.11145  23.16838
 Alpha virt. eigenvalues --   23.19712  23.22936  23.31222  23.36514  23.41277
 Alpha virt. eigenvalues --   23.45153  23.50406  23.52325  23.55010  23.64920
 Alpha virt. eigenvalues --   23.69868  23.73568  23.80106  32.12687  32.34154
 Alpha virt. eigenvalues --   32.65876  32.84000  32.92771  32.95355  33.04734
 Alpha virt. eigenvalues --   43.84518  43.86745  43.88927  44.03752
  Beta  occ. eigenvalues -- -256.43635 -30.20494 -26.03441 -26.02984 -26.02741
  Beta  occ. eigenvalues --  -19.34722 -19.34692 -19.26282 -19.25103 -14.54177
  Beta  occ. eigenvalues --  -14.53980 -14.49357 -14.49173 -14.49088 -14.48999
  Beta  occ. eigenvalues --  -14.48150 -10.43529 -10.43005 -10.40813 -10.37654
  Beta  occ. eigenvalues --  -10.37599 -10.37181 -10.36793 -10.36661 -10.36468
  Beta  occ. eigenvalues --  -10.36190 -10.36143 -10.35998 -10.35724 -10.33838
  Beta  occ. eigenvalues --  -10.33720 -10.33399 -10.33349 -10.33309 -10.33291
  Beta  occ. eigenvalues --  -10.33070 -10.33010 -10.32886 -10.32840 -10.32834
  Beta  occ. eigenvalues --  -10.32679 -10.32599 -10.32492 -10.32480 -10.32398
  Beta  occ. eigenvalues --  -10.32298 -10.31744 -10.31465 -10.31204 -10.31135
  Beta  occ. eigenvalues --  -10.30932 -10.30793 -10.30425 -10.30327 -10.30211
  Beta  occ. eigenvalues --   -3.55235  -2.31485  -2.30619  -2.30146  -1.25684
  Beta  occ. eigenvalues --   -1.24651  -1.14131  -1.11545  -1.10020  -1.09172
  Beta  occ. eigenvalues --   -1.09116  -1.08664  -1.07769  -1.00542  -0.99982
  Beta  occ. eigenvalues --   -0.95630  -0.94318  -0.93721  -0.93035  -0.92607
  Beta  occ. eigenvalues --   -0.92511  -0.92243  -0.89493  -0.88824  -0.88781
  Beta  occ. eigenvalues --   -0.87861  -0.87530  -0.86839  -0.84722  -0.82851
  Beta  occ. eigenvalues --   -0.82189  -0.81509  -0.80775  -0.79831  -0.79630
  Beta  occ. eigenvalues --   -0.79252  -0.77168  -0.76850  -0.74627  -0.74034
  Beta  occ. eigenvalues --   -0.73918  -0.72605  -0.71416  -0.70676  -0.70481
  Beta  occ. eigenvalues --   -0.70128  -0.69312  -0.66576  -0.66402  -0.65783
  Beta  occ. eigenvalues --   -0.65000  -0.64402  -0.63885  -0.62774  -0.62645
  Beta  occ. eigenvalues --   -0.61452  -0.60401  -0.59891  -0.59603  -0.59151
  Beta  occ. eigenvalues --   -0.59031  -0.58228  -0.58000  -0.57662  -0.57180
  Beta  occ. eigenvalues --   -0.56810  -0.56696  -0.56275  -0.56000  -0.55615
  Beta  occ. eigenvalues --   -0.54983  -0.54870  -0.54713  -0.54410  -0.54113
  Beta  occ. eigenvalues --   -0.53975  -0.53645  -0.53341  -0.53111  -0.53028
  Beta  occ. eigenvalues --   -0.52322  -0.52047  -0.51978  -0.51591  -0.51362
  Beta  occ. eigenvalues --   -0.51182  -0.50843  -0.50772  -0.50605  -0.50364
  Beta  occ. eigenvalues --   -0.50267  -0.49983  -0.49768  -0.49569  -0.49386
  Beta  occ. eigenvalues --   -0.49205  -0.48775  -0.48706  -0.48178  -0.47829
  Beta  occ. eigenvalues --   -0.47713  -0.47484  -0.46935  -0.46478  -0.46409
  Beta  occ. eigenvalues --   -0.45735  -0.45291  -0.44886  -0.44753  -0.44629
  Beta  occ. eigenvalues --   -0.44095  -0.43758  -0.43673  -0.43082  -0.42593
  Beta  occ. eigenvalues --   -0.42077  -0.41814  -0.40276  -0.40177  -0.39666
  Beta  occ. eigenvalues --   -0.39253  -0.38645  -0.38420  -0.36559  -0.36361
  Beta  occ. eigenvalues --   -0.35813  -0.34870  -0.34149  -0.33397  -0.32780
  Beta  occ. eigenvalues --   -0.32385  -0.31259  -0.31084  -0.30574
  Beta virt. eigenvalues --   -0.25441  -0.17673  -0.17188  -0.13789  -0.12751
  Beta virt. eigenvalues --   -0.12269  -0.10738  -0.10369  -0.09828  -0.08044
  Beta virt. eigenvalues --   -0.07724  -0.07519  -0.06290  -0.06015  -0.05470
  Beta virt. eigenvalues --   -0.05137  -0.04599  -0.04363  -0.03919  -0.03806
  Beta virt. eigenvalues --   -0.03028  -0.02905  -0.02328  -0.02008  -0.01951
  Beta virt. eigenvalues --   -0.01661  -0.01403  -0.00991  -0.00764  -0.00428
  Beta virt. eigenvalues --    0.00089   0.00331   0.00414   0.00970   0.01244
  Beta virt. eigenvalues --    0.01455   0.01821   0.01974   0.02300   0.02446
  Beta virt. eigenvalues --    0.02834   0.02873   0.03243   0.03604   0.03658
  Beta virt. eigenvalues --    0.03880   0.03988   0.04340   0.04803   0.05229
  Beta virt. eigenvalues --    0.05321   0.05514   0.05681   0.05776   0.05893
  Beta virt. eigenvalues --    0.06034   0.06195   0.06267   0.06291   0.06774
  Beta virt. eigenvalues --    0.06920   0.06965   0.07200   0.07518   0.07735
  Beta virt. eigenvalues --    0.08050   0.08234   0.08599   0.08810   0.09099
  Beta virt. eigenvalues --    0.09397   0.09545   0.09888   0.10044   0.10181
  Beta virt. eigenvalues --    0.10414   0.10514   0.10904   0.11146   0.11464
  Beta virt. eigenvalues --    0.11627   0.11982   0.12357   0.12485   0.12770
  Beta virt. eigenvalues --    0.13017   0.13177   0.13554   0.13854   0.14012
  Beta virt. eigenvalues --    0.14117   0.14179   0.14489   0.14600   0.14953
  Beta virt. eigenvalues --    0.15024   0.15379   0.15551   0.15734   0.15870
  Beta virt. eigenvalues --    0.16062   0.16313   0.16395   0.16605   0.16635
  Beta virt. eigenvalues --    0.16966   0.17044   0.17156   0.17589   0.17961
  Beta virt. eigenvalues --    0.18122   0.18162   0.18698   0.18802   0.19075
  Beta virt. eigenvalues --    0.19251   0.19422   0.19741   0.19947   0.20065
  Beta virt. eigenvalues --    0.20127   0.20430   0.20665   0.20831   0.20946
  Beta virt. eigenvalues --    0.21313   0.21652   0.21912   0.22149   0.22359
  Beta virt. eigenvalues --    0.22487   0.22731   0.22885   0.23107   0.23320
  Beta virt. eigenvalues --    0.23635   0.23804   0.24058   0.24533   0.24722
  Beta virt. eigenvalues --    0.24886   0.25283   0.25496   0.25694   0.25750
  Beta virt. eigenvalues --    0.26185   0.26429   0.26549   0.26955   0.27290
  Beta virt. eigenvalues --    0.27332   0.27660   0.27744   0.28030   0.28435
  Beta virt. eigenvalues --    0.28743   0.28899   0.28982   0.29272   0.29546
  Beta virt. eigenvalues --    0.29720   0.29823   0.30053   0.30344   0.30435
  Beta virt. eigenvalues --    0.30669   0.30776   0.31026   0.31349   0.31657
  Beta virt. eigenvalues --    0.31819   0.32089   0.32097   0.32356   0.32484
  Beta virt. eigenvalues --    0.32761   0.33018   0.33222   0.33425   0.33566
  Beta virt. eigenvalues --    0.33899   0.34099   0.34378   0.34451   0.34765
  Beta virt. eigenvalues --    0.34953   0.35083   0.35280   0.35341   0.35606
  Beta virt. eigenvalues --    0.35865   0.35950   0.36063   0.36207   0.36407
  Beta virt. eigenvalues --    0.36498   0.36827   0.37241   0.37449   0.37580
  Beta virt. eigenvalues --    0.37790   0.37937   0.38107   0.38162   0.38283
  Beta virt. eigenvalues --    0.38495   0.38670   0.38706   0.38972   0.39069
  Beta virt. eigenvalues --    0.39348   0.39516   0.39832   0.40142   0.40225
  Beta virt. eigenvalues --    0.40404   0.40584   0.40806   0.40896   0.41233
  Beta virt. eigenvalues --    0.41436   0.41624   0.41820   0.41931   0.42247
  Beta virt. eigenvalues --    0.42379   0.42508   0.42758   0.42892   0.43036
  Beta virt. eigenvalues --    0.43257   0.43345   0.43557   0.43687   0.43942
  Beta virt. eigenvalues --    0.44098   0.44356   0.44604   0.45045   0.45331
  Beta virt. eigenvalues --    0.45377   0.45432   0.45727   0.45989   0.46118
  Beta virt. eigenvalues --    0.46299   0.46549   0.46625   0.46904   0.47140
  Beta virt. eigenvalues --    0.47362   0.47530   0.47739   0.48059   0.48257
  Beta virt. eigenvalues --    0.48616   0.48786   0.48972   0.49141   0.49351
  Beta virt. eigenvalues --    0.49830   0.50239   0.50346   0.50678   0.51051
  Beta virt. eigenvalues --    0.51258   0.51433   0.51663   0.51994   0.52240
  Beta virt. eigenvalues --    0.52408   0.52712   0.52862   0.53035   0.53755
  Beta virt. eigenvalues --    0.53808   0.54235   0.54355   0.54572   0.54659
  Beta virt. eigenvalues --    0.55199   0.55455   0.55536   0.55727   0.55906
  Beta virt. eigenvalues --    0.55928   0.56287   0.56530   0.56774   0.57002
  Beta virt. eigenvalues --    0.57719   0.57924   0.58069   0.58167   0.58543
  Beta virt. eigenvalues --    0.58707   0.58771   0.59052   0.59139   0.59492
  Beta virt. eigenvalues --    0.59898   0.60031   0.60237   0.60300   0.61026
  Beta virt. eigenvalues --    0.61341   0.61668   0.61882   0.62234   0.62576
  Beta virt. eigenvalues --    0.62757   0.62842   0.63242   0.63484   0.63964
  Beta virt. eigenvalues --    0.64113   0.64248   0.64862   0.65073   0.65136
  Beta virt. eigenvalues --    0.65662   0.66167   0.66449   0.66927   0.67130
  Beta virt. eigenvalues --    0.67619   0.67660   0.67773   0.68033   0.68587
  Beta virt. eigenvalues --    0.68731   0.69064   0.69408   0.69777   0.69933
  Beta virt. eigenvalues --    0.70240   0.70528   0.70721   0.71005   0.71083
  Beta virt. eigenvalues --    0.71277   0.71720   0.72390   0.72560   0.72761
  Beta virt. eigenvalues --    0.73226   0.73453   0.73816   0.74074   0.74473
  Beta virt. eigenvalues --    0.74697   0.75064   0.75692   0.75971   0.76149
  Beta virt. eigenvalues --    0.76451   0.76701   0.76923   0.77354   0.77621
  Beta virt. eigenvalues --    0.77758   0.78245   0.78610   0.78984   0.79172
  Beta virt. eigenvalues --    0.79312   0.79622   0.79661   0.80151   0.80512
  Beta virt. eigenvalues --    0.80860   0.80905   0.81148   0.81546   0.81773
  Beta virt. eigenvalues --    0.81917   0.82349   0.82391   0.82764   0.83390
  Beta virt. eigenvalues --    0.83514   0.83997   0.84035   0.84538   0.84771
  Beta virt. eigenvalues --    0.85136   0.85409   0.85752   0.85917   0.86196
  Beta virt. eigenvalues --    0.86216   0.86525   0.86982   0.87154   0.87343
  Beta virt. eigenvalues --    0.87655   0.87857   0.88140   0.88355   0.88547
  Beta virt. eigenvalues --    0.88857   0.89149   0.89351   0.89669   0.90115
  Beta virt. eigenvalues --    0.90243   0.90590   0.90772   0.91459   0.91591
  Beta virt. eigenvalues --    0.91828   0.92106   0.92555   0.92766   0.93266
  Beta virt. eigenvalues --    0.93465   0.93801   0.94057   0.94341   0.94787
  Beta virt. eigenvalues --    0.94863   0.95515   0.95648   0.96146   0.96437
  Beta virt. eigenvalues --    0.96992   0.97225   0.97410   0.97618   0.97818
  Beta virt. eigenvalues --    0.98636   0.99107   0.99319   0.99417   0.99762
  Beta virt. eigenvalues --    0.99871   1.00111   1.00428   1.00656   1.01386
  Beta virt. eigenvalues --    1.01720   1.01872   1.02174   1.02962   1.03220
  Beta virt. eigenvalues --    1.03634   1.03979   1.04150   1.04876   1.05138
  Beta virt. eigenvalues --    1.05462   1.05766   1.05957   1.06438   1.06461
  Beta virt. eigenvalues --    1.07178   1.07513   1.07890   1.08182   1.08713
  Beta virt. eigenvalues --    1.08796   1.08992   1.09360   1.09964   1.10482
  Beta virt. eigenvalues --    1.10924   1.11311   1.11532   1.12002   1.12057
  Beta virt. eigenvalues --    1.12661   1.12850   1.13269   1.13750   1.13801
  Beta virt. eigenvalues --    1.14151   1.14371   1.14756   1.15138   1.15372
  Beta virt. eigenvalues --    1.15733   1.16061   1.16667   1.16795   1.17234
  Beta virt. eigenvalues --    1.17400   1.17813   1.18000   1.18453   1.18672
  Beta virt. eigenvalues --    1.18875   1.19490   1.19861   1.20392   1.20681
  Beta virt. eigenvalues --    1.21014   1.21460   1.21813   1.22015   1.22416
  Beta virt. eigenvalues --    1.22586   1.23439   1.23599   1.23933   1.24121
  Beta virt. eigenvalues --    1.24482   1.25317   1.25413   1.25486   1.26304
  Beta virt. eigenvalues --    1.26469   1.27193   1.27486   1.27939   1.28154
  Beta virt. eigenvalues --    1.28888   1.29110   1.29461   1.29881   1.30020
  Beta virt. eigenvalues --    1.30892   1.31253   1.31605   1.31789   1.32016
  Beta virt. eigenvalues --    1.32484   1.32778   1.33087   1.33591   1.34041
  Beta virt. eigenvalues --    1.34343   1.34784   1.35154   1.35275   1.35611
  Beta virt. eigenvalues --    1.36240   1.36857   1.37144   1.37329   1.37849
  Beta virt. eigenvalues --    1.38252   1.38616   1.38837   1.39347   1.39716
  Beta virt. eigenvalues --    1.40371   1.40455   1.40906   1.41298   1.41535
  Beta virt. eigenvalues --    1.41675   1.41882   1.42171   1.42509   1.42721
  Beta virt. eigenvalues --    1.43316   1.43425   1.43765   1.44110   1.44220
  Beta virt. eigenvalues --    1.44659   1.44703   1.44873   1.45266   1.45392
  Beta virt. eigenvalues --    1.45614   1.46165   1.46309   1.46572   1.46834
  Beta virt. eigenvalues --    1.46992   1.47103   1.47335   1.47747   1.48160
  Beta virt. eigenvalues --    1.48301   1.48525   1.48687   1.48938   1.49071
  Beta virt. eigenvalues --    1.49520   1.49769   1.49959   1.50945   1.51153
  Beta virt. eigenvalues --    1.51327   1.51477   1.52109   1.52328   1.52700
  Beta virt. eigenvalues --    1.52838   1.53026   1.53272   1.53472   1.53810
  Beta virt. eigenvalues --    1.53851   1.54199   1.54280   1.54480   1.54837
  Beta virt. eigenvalues --    1.55365   1.55484   1.55723   1.55887   1.56024
  Beta virt. eigenvalues --    1.56365   1.56630   1.56911   1.57415   1.57557
  Beta virt. eigenvalues --    1.58084   1.58278   1.58424   1.58601   1.58876
  Beta virt. eigenvalues --    1.58991   1.59691   1.59979   1.60478   1.60765
  Beta virt. eigenvalues --    1.60976   1.61138   1.61693   1.62084   1.62409
  Beta virt. eigenvalues --    1.62703   1.62822   1.63181   1.63651   1.64184
  Beta virt. eigenvalues --    1.64443   1.64805   1.64953   1.65424   1.65573
  Beta virt. eigenvalues --    1.65754   1.66222   1.66365   1.66702   1.67356
  Beta virt. eigenvalues --    1.67672   1.67780   1.67895   1.68552   1.68715
  Beta virt. eigenvalues --    1.69217   1.69450   1.70676   1.70876   1.71255
  Beta virt. eigenvalues --    1.71906   1.72336   1.72860   1.73061   1.73314
  Beta virt. eigenvalues --    1.73881   1.74102   1.74407   1.74691   1.74900
  Beta virt. eigenvalues --    1.75719   1.75903   1.76633   1.76947   1.77477
  Beta virt. eigenvalues --    1.77863   1.78294   1.78815   1.79430   1.79935
  Beta virt. eigenvalues --    1.80028   1.80390   1.80774   1.81026   1.81367
  Beta virt. eigenvalues --    1.82081   1.82379   1.82902   1.83264   1.83448
  Beta virt. eigenvalues --    1.83701   1.84040   1.84414   1.84610   1.85082
  Beta virt. eigenvalues --    1.85277   1.85847   1.86523   1.86712   1.87264
  Beta virt. eigenvalues --    1.87363   1.87908   1.88091   1.88311   1.88663
  Beta virt. eigenvalues --    1.89053   1.89361   1.89611   1.89621   1.90179
  Beta virt. eigenvalues --    1.90439   1.90871   1.91126   1.91639   1.91865
  Beta virt. eigenvalues --    1.92331   1.92642   1.93781   1.94053   1.94479
[...]
  1580. RY*(   5) H  62                  0.00000     2.78232   
  1581. RY*(   1) H  63                  0.00071     0.56169   
  1582. RY*(   2) H  63                  0.00010     2.44171   
  1583. RY*(   3) H  63                  0.00006     2.45352   
  1584. RY*(   4) H  63                  0.00006     2.35360   
  1585. RY*(   5) H  63                  0.00000     3.03439   
  1586. RY*(   1) H  64                  0.00095     0.72625   
  1587. RY*(   2) H  64                  0.00016     2.16147   
  1588. RY*(   3) H  64                  0.00012     2.14893   
  1589. RY*(   4) H  64                  0.00006     2.95270   
  1590. RY*(   5) H  64                  0.00001     3.19248   
  1591. RY*(   1) H  65                  0.00029     1.26188   
  1592. RY*(   2) H  65                  0.00005     1.38080   
  1593. RY*(   3) H  65                  0.00006     2.36745   
  1594. RY*(   4) H  65                  0.00003     2.44193   
  1595. RY*(   5) H  65                  0.00001     2.87125   
  1596. RY*(   1) H  66                  0.00030     0.97322   
  1597. RY*(   2) H  66                  0.00007     1.71870   
  1598. RY*(   3) H  66                  0.00006     2.31148   
  1599. RY*(   4) H  66                  0.00002     2.45346   
  1600. RY*(   5) H  66                  0.00000     2.71000   
  1601. RY*(   1) H  67                  0.00037     1.59951   
  1602. RY*(   2) H  67                  0.00009     2.67164   
  1603. RY*(   3) H  67                  0.00006     1.25999   
  1604. RY*(   4) H  67                  0.00006     2.37525   
  1605. RY*(   5) H  67                  0.00000     2.90152   
  1606. RY*(   1) H  68                  0.00031     1.61191   
  1607. RY*(   2) H  68                  0.00008     2.65150   
  1608. RY*(   3) H  68                  0.00006     2.40123   
  1609. RY*(   4) H  68                  0.00004     1.41595   
  1610. RY*(   5) H  68                  0.00000     2.75200   
  1611. RY*(   1) H  69                  0.00025     1.10694   
  1612. RY*(   2) H  69                  0.00008     1.69053   
  1613. RY*(   3) H  69                  0.00003     1.89586   
  1614. RY*(   4) H  69                  0.00003     1.99897   
  1615. RY*(   5) H  69                  0.00000     2.85384   
  1616. RY*(   1) H  70                  0.00028     1.10572   
  1617. RY*(   2) H  70                  0.00007     1.81557   
  1618. RY*(   3) H  70                  0.00003     1.69819   
  1619. RY*(   4) H  70                  0.00003     2.06095   
  1620. RY*(   5) H  70                  0.00000     2.88663   
  1621. RY*(   1) H  71                  0.00029     1.03109   
  1622. RY*(   2) H  71                  0.00008     1.61544   
  1623. RY*(   3) H  71                  0.00004     2.07207   
  1624. RY*(   4) H  71                  0.00002     1.88442   
  1625. RY*(   5) H  71                  0.00000     2.89912   
  1626. RY*(   1) H  72                  0.00098     0.63190   
  1627. RY*(   2) H  72                  0.00015     2.07081   
  1628. RY*(   3) H  72                  0.00013     2.15863   
  1629. RY*(   4) H  72                  0.00006     2.97624   
  1630. RY*(   5) H  72                  0.00001     3.19973   
  1631. RY*(   1) H  73                  0.00031     0.94947   
  1632. RY*(   2) H  73                  0.00008     1.70418   
  1633. RY*(   3) H  73                  0.00003     2.07910   
  1634. RY*(   4) H  73                  0.00002     1.87196   
  1635. RY*(   5) H  73                  0.00000     2.84286   
  1636. RY*(   1) H  74                  0.00020     1.36560   
  1637. RY*(   2) H  74                  0.00010     1.99863   
  1638. RY*(   3) H  74                  0.00004     2.00717   
  1639. RY*(   4) H  74                  0.00000     2.26412   
  1640. RY*(   5) H  74                  0.00000     2.24137   
  1641. RY*(   1) H  75                  0.00030     0.92625   
  1642. RY*(   2) H  75                  0.00008     1.72977   
  1643. RY*(   3) H  75                  0.00003     2.08464   
  1644. RY*(   4) H  75                  0.00002     1.87746   
  1645. RY*(   5) H  75                  0.00000     2.84090   
  1646. RY*(   1) H  76                  0.00038     1.00407   
  1647. RY*(   2) H  76                  0.00013     2.01254   
  1648. RY*(   3) H  76                  0.00007     2.06465   
  1649. RY*(   4) H  76                  0.00005     2.14181   
  1650. RY*(   5) H  76                  0.00001     3.02519   
  1651. RY*(   1) H  77                  0.00023     1.49383   
  1652. RY*(   2) H  77                  0.00011     0.89784   
  1653. RY*(   3) H  77                  0.00008     2.08834   
  1654. RY*(   4) H  77                  0.00003     2.44811   
  1655. RY*(   5) H  77                  0.00000     3.01825   
  1656. RY*(   1) H  78                  0.00034     1.27871   
  1657. RY*(   2) H  78                  0.00010     1.39262   
  1658. RY*(   3) H  78                  0.00006     2.47437   
  1659. RY*(   4) H  78                  0.00007     2.16156   
  1660. RY*(   5) H  78                  0.00000     3.01205   
  1661. RY*(   1) H  79                  0.00078     0.71869   
  1662. RY*(   2) H  79                  0.00019     2.07379   
  1663. RY*(   3) H  79                  0.00011     2.21299   
  1664. RY*(   4) H  79                  0.00007     2.96164   
  1665. RY*(   5) H  79                  0.00001     3.24427   
  1666. RY*(   1) H  80                  0.00028     1.09680   
  1667. RY*(   2) H  80                  0.00008     1.59540   
  1668. RY*(   3) H  80                  0.00003     1.83973   
  1669. RY*(   4) H  80                  0.00003     2.11414   
  1670. RY*(   5) H  80                  0.00000     2.89566   
  1671. RY*(   1) H  81                  0.00027     1.07032   
  1672. RY*(   2) H  81                  0.00008     1.80119   
  1673. RY*(   3) H  81                  0.00003     2.00939   
  1674. RY*(   4) H  81                  0.00003     2.06577   
  1675. RY*(   5) H  81                  0.00001     2.73561   
  1676. RY*(   1) H  82                  0.00028     1.06824   
  1677. RY*(   2) H  82                  0.00008     1.56640   
  1678. RY*(   3) H  82                  0.00004     2.10724   
  1679. RY*(   4) H  82                  0.00002     1.86243   
  1680. RY*(   5) H  82                  0.00001     2.92953   
  1681. RY*(   1) H  83                  0.00083     0.56848   
  1682. RY*(   2) H  83                  0.00013     2.07786   
  1683. RY*(   3) H  83                  0.00013     2.16202   
  1684. RY*(   4) H  83                  0.00006     2.98321   
  1685. RY*(   5) H  83                  0.00000     3.14142   
  1686. RY*(   1) H  84                  0.00022     1.18830   
  1687. RY*(   2) H  84                  0.00009     1.77854   
  1688. RY*(   3) H  84                  0.00002     1.74709   
  1689. RY*(   4) H  84                  0.00003     2.02268   
  1690. RY*(   5) H  84                  0.00000     2.89319   
  1691. RY*(   1) H  85                  0.00032     0.97515   
  1692. RY*(   2) H  85                  0.00007     1.64361   
  1693. RY*(   3) H  85                  0.00004     1.92217   
  1694. RY*(   4) H  85                  0.00003     2.12276   
  1695. RY*(   5) H  85                  0.00000     2.83266   
  1696. RY*(   1) H  86                  0.00032     1.02803   
  1697. RY*(   2) H  86                  0.00007     1.59839   
  1698. RY*(   3) H  86                  0.00004     2.08020   
  1699. RY*(   4) H  86                  0.00002     1.86459   
  1700. RY*(   5) H  86                  0.00000     2.91993   
  1701. RY*(   1) H  87                  0.00048     1.29730   
  1702. RY*(   2) H  87                  0.00011     1.58048   
  1703. RY*(   3) H  87                  0.00004     2.52471   
  1704. RY*(   4) H  87                  0.00005     1.95826   
  1705. RY*(   5) H  87                  0.00000     2.97546   
  1706. RY*(   1) H  88                  0.00037     1.43379   
  1707. RY*(   2) H  88                  0.00012     1.06830   
  1708. RY*(   3) H  88                  0.00006     2.03074   
  1709. RY*(   4) H  88                  0.00002     2.35150   
  1710. RY*(   5) H  88                  0.00001     2.91634   
  1711. RY*(   1) H  89                  0.00049     1.09501   
  1712. RY*(   2) H  89                  0.00016     1.59591   
  1713. RY*(   3) H  89                  0.00006     1.89889   
  1714. RY*(   4) H  89                  0.00003     2.33486   
  1715. RY*(   5) H  89                  0.00001     2.92886   
  1716. RY*(   1) H  90                  0.00067     1.23953   
  1717. RY*(   2) H  90                  0.00036     2.07415   
  1718. RY*(   3) H  90                  0.00014     2.11230   
  1719. RY*(   4) H  90                  0.00011     1.60802   
  1720. RY*(   5) H  90                  0.00000     3.19183   
  1739. BD*(   1) C  10 - C  15          0.01021     0.45715   
  1740. BD*(   1) C  10 - C  45          0.00940     0.46029   
  1741. BD*(   1) C  10 - H  64          0.00840     0.32577   
  1742. BD*(   1) C  11 - C  18          0.01142     0.50036   
  1743. BD*(   1) C  11 - C  26          0.01061     0.50311   
  1744. BD*(   1) C  11 - H  72          0.00882     0.34742   
  1745. BD*(   1) C  12 - C  29          0.01026     0.48822   
  1746. BD*(   1) C  12 - C  34          0.01098     0.45525   
  1747. BD*(   1) C  12 - H  79          0.00930     0.35198   
  1748. BD*(   1) C  13 - C  37          0.01132     0.49370   
  1749. BD*(   2) C  13 - C  37          0.15493    -0.05804  1809(v),1796(v),1792(v)
                                                    1804(r),512(g),1140(g)
                                                    1732(r)
  1750. BD*(   1) C  13 - C  42          0.01046     0.48554   
  1751. BD*(   1) C  13 - H  83          0.00729     0.33881   
  1752. BD*(   1) N  14 - C  15          0.01615     0.32407   
  1753. BD*(   2) N  14 - C  15          0.24065    -0.10376  1757(v),185(v),566(g),434(v)
                                                    538(g),180(r),1737(r),175(r)
                                                    177(r),1735(r),1731(r)
                                                    169(r)
  1754. BD*(   1) N  14 - C  18          0.01427     0.39172   
  1755. BD*(   1) C  15 - C  16          0.01611     0.40852   
  1756. BD*(   1) C  16 - C  17          0.01025     0.56799   
  1757. BD*(   2) C  16 - C  17          0.05939    -0.01793   
  1758. BD*(   1) C  16 - C  20          0.01408     0.27101   
  1759. BD*(   1) C  17 - C  18          0.01734     0.40910   
  1760. BD*(   1) C  17 - C  19          0.00963     0.26860   
  1761. BD*(   1) C  19 - H  69          0.00301     0.31665   
  1762. BD*(   1) C  19 - H  70          0.00251     0.32047   
  1763. BD*(   1) C  19 - H  71          0.00344     0.31486   
  1764. BD*(   1) C  20 - C  21          0.00698     0.25921   
  1765. BD*(   1) C  20 - H  67          0.00661     0.31399   
  1766. BD*(   1) C  20 - H  68          0.00592     0.31948   
  1767. BD*(   1) C  21 - C  22          0.03409     0.26260   
  1768. BD*(   1) C  21 - H  65          0.00492     0.31649   
  1769. BD*(   1) C  21 - H  66          0.00638     0.31082   
  1770. BD*(   1) C  22 - O  23          0.03600     0.41127   
  1771. BD*(   1) C  22 - O  24          0.01841     0.48592   
  1772. BD*(   2) C  22 - O  24          0.10462    -0.07841  1773(v),1764(v),1769(v)
                                                    748(g)
  1773. BD*(   1) O  23 - H  90          0.00746     0.29797   
  1774. BD*(   1) N  25 - C  26          0.01349     0.42346   
  1775. BD*(   2) N  25 - C  26          0.23691    -0.08265  1779(v),191(v),1735(r)
                                                    852(g),824(g),180(r),176(r)
                                                    1731(r),175(r),179(r)
  1776. BD*(   1) N  25 - C  29          0.01298     0.40352   
  1777. BD*(   1) C  26 - C  27          0.01812     0.39345   
  1778. BD*(   1) C  27 - C  28          0.00889     0.55655   
  1779. BD*(   2) C  27 - C  28          0.07414    -0.01980   
  1780. BD*(   1) C  27 - C  30          0.00925     0.26621   
  1781. BD*(   1) C  28 - C  29          0.01801     0.37712   
  1782. BD*(   1) C  28 - C  31          0.01520     0.28404   
  1783. BD*(   1) C  30 - H  73          0.00330     0.32338   
  1784. BD*(   1) C  30 - H  74          0.00287     0.33146   
  1785. BD*(   1) C  30 - H  75          0.00323     0.32387   
  1786. BD*(   1) C  31 - C  32          0.00239     0.54504   
  1787. BD*(   2) C  31 - C  32          0.01752    -0.02915   
  1788. BD*(   1) C  31 - H  78          0.00780     0.36246   
  1789. BD*(   1) C  32 - H  76          0.00609     0.35689   
  1790. BD*(   1) C  32 - H  77          0.00496     0.36528   
  1791. BD*(   1) N  33 - C  34          0.01598     0.34032   
  1792. BD*(   2) N  33 - C  34          0.26115    -0.10655  1796(v),1749(v),1731(r)
                                                    1060(g),1032(g),180(r)
                                                    176(r),175(r),1737(r)
  1793. BD*(   1) N  33 - C  37          0.01578     0.37399   
  1794. BD*(   1) C  34 - C  35          0.01567     0.40456   
  1795. BD*(   1) C  35 - C  36          0.01010     0.55876   
  1796. BD*(   2) C  35 - C  36          0.08888    -0.02447   
  1797. BD*(   1) C  35 - C  38          0.00959     0.26444   
  1798. BD*(   1) C  36 - C  37          0.01715     0.44028   
  1799. BD*(   1) C  36 - C  39          0.01565     0.26298   
  1800. BD*(   1) C  38 - H  80          0.00271     0.33142   
  1801. BD*(   1) C  38 - H  81          0.00363     0.32813   
  1802. BD*(   1) C  38 - H  82          0.00358     0.32162   
  1803. BD*(   1) C  39 - C  40          0.00202     0.49808   
  1804. BD*(   2) C  39 - C  40          0.02297    -0.05141   
  1805. BD*(   1) C  39 - H  87          0.00786     0.34959   
  1806. BD*(   1) C  40 - H  88          0.00388     0.35469   
  1807. BD*(   1) C  40 - H  89          0.00406     0.34874   
  1808. BD*(   1) N  41 - C  42          0.01255     0.42565   
  1809. BD*(   2) N  41 - C  42          0.21253    -0.08629  1749(v),1813(v),194(v)
                                                    1268(g),1735(r),1240(g)
                                                    180(r),512(v),176(r),1731(r)
                                                    175(r)
  1810. BD*(   1) N  41 - C  45          0.01493     0.32465   
  1811. BD*(   1) C  42 - C  43          0.01870     0.35192   
  1812. BD*(   1) C  43 - C  44          0.00973     0.53026   
  1813. BD*(   2) C  43 - C  44          0.05945    -0.02785   
  1814. BD*(   1) C  43 - C  46          0.00882     0.26394   
  1815. BD*(   1) C  44 - C  45          0.01690     0.35984   
  1816. BD*(   1) C  44 - C  47          0.01195     0.27459   
  1817. BD*(   1) C  46 - H  84          0.00258     0.31904   
  1818. BD*(   1) C  46 - H  85          0.00260     0.32387   
  1819. BD*(   1) C  46 - H  86          0.00336     0.31711   
  1820. BD*(   1) C  47 - C  48          0.00793     0.23652   
  1821. BD*(   1) C  47 - H  62          0.00710     0.32174   
  1822. BD*(   1) C  47 - H  63          0.00625     0.30665   
  1823. BD*(   1) C  48 - C  49          0.03282     0.26650   
  1824. BD*(   1) C  48 - H  60          0.00628     0.31014   
  1825. BD*(   1) C  48 - H  61          0.00453     0.31956   
  1826. BD*(   1) C  49 - O  50          0.03600     0.40947   
  1827. BD*(   1) C  49 - O  51          0.01908     0.44612   
  1828. BD*(   2) C  49 - O  51          0.11489    -0.07385  1820(v),1827(g),1459(g)
                                                    1450(g)
  1829. BD*(   1) O  50 - H  59          0.00701     0.30991   
       -------------------------------
              Total Lewis  143.43014  ( 97.3430%)
        Valence non-Lewis    3.61727  (  2.4550%)
        Rydberg non-Lewis    0.29769  (  0.2020%)
       -------------------------------
            Total unit  4  147.34510  (100.0000%)
           Charge unit  4    0.65490
 1\1\GINC-NODE527\SP\UPBE1PBE\def2TZVP\C39H39Fe1N7O4(1+,2)\ZHARTOVSKA\2
 8-Dec-2022\0\\# PBE1PBE/def2TZVP empiricaldispersion=GD3BJ scf=maxcycl
 e=999 geom=check guess=read pop=nbo\\1ebt_III_D\\1,2\C,0,7.538,-1.23,2
 4.59\C,0,6.88,-1.983,23.444\N,0,5.502,-2.166,23.388\C,0,7.468,-2.627,2
 2.35\C,0,5.296,-2.931,22.263\N,0,6.441,-3.17,21.646\C,0,7.038,-5.435,1
 7.6\N,0,5.75422617,-5.34740722,17.46713455\Fe,0,6.526,-4.236,19.781\C,
 0,5.087,-6.882,21.247\C,0,3.495,-3.215,18.551001\C,0,7.885,-1.384,18.5
 49999\C,0,9.645,-5.4,20.575001\N,0,4.693,-4.819,19.875\C,0,4.279,-5.93
 7,20.639\C,0,2.856,-6.027,20.59\C,0,2.405,-5.036,19.853001\C,0,3.53,-4
 .277,19.405001\C,0,0.941,-4.723,19.504\C,0,2.003,-7.105,21.275\C,0,1.4
 7,-6.63,22.625\C,0,2.535,-6.653,23.695\O,0,3.,-7.754,24.059999\O,0,3.0
 59,-5.574,24.\N,0,5.827,-2.58,18.775\C,0,4.586,-2.457,18.263\C,0,4.5,-
 1.26,17.461\C,0,5.699,-0.694,17.465\C,0,6.561,-1.558,18.254999\C,0,3.1
 68,-0.88,16.780001\C,0,6.147,0.596,16.733999\C,0,7.119,1.295,17.289\N,
 0,8.332,-3.571,19.657\C,0,8.729,-2.357,19.077999\C,0,10.155,-2.268,19.
 101999\C,0,10.629,-3.378,19.639999\C,0,9.526,-4.171,19.993999\C,0,10.9
 82,-1.087,18.545\C,0,12.104,-3.791,19.933001\C,0,13.0176336,-2.8482036
 2,20.26911954\N,0,7.277,-5.814,20.743\C,0,8.562,-6.156,20.931999\C,0,8
 .613,-7.48,21.577\C,0,7.358,-7.884,21.792999\C,0,6.468,-6.873,21.222\C
 ,0,9.954,-8.134,21.969\C,0,6.878,-9.196,22.42\C,0,7.048,-10.402,21.452
 999\C,0,6.745,-11.767,22.033001\O,0,5.536,-12.093,22.055\O,0,7.71,-12.
 433,22.511999\H,0,8.47996426,-0.83942522,24.26587861\H,0,6.9046411,-0.
 42432056,24.89763152\H,0,7.69230268,-1.89651295,25.41270965\H,0,8.5107
 7212,-2.68069645,22.11624159\H,0,4.81351426,-1.81844603,24.02454821\H,
 0,4.34125974,-3.28377972,21.93297349\H,0,8.09987275,-5.50745024,17.709
 89642\H,0,5.28953029,-13.01871612,22.1174688\H,0,6.40357459,-10.247554
 22,20.61290234\H,0,8.05901498,-10.40691494,21.10267835\H,0,7.44184547,
 -9.38231687,23.31009231\H,0,5.84381027,-9.10012079,22.6772135\H,0,4.60
 627487,-7.67852181,21.77554172\H,0,1.10328599,-5.63016087,22.52135371\
 H,0,0.66371964,-7.26686698,22.92368448\H,0,2.60074748,-7.97980293,21.4
 2439138\H,0,1.17691123,-7.35095775,20.6409794\H,0,0.8677546,-4.4703647
 3,18.46683534\H,0,0.33489223,-5.58140723,19.70566903\H,0,0.60132342,-3
 .89936171,20.09657049\H,0,2.56438908,-2.9662352,18.08519054\H,0,3.3016
 1438,-0.86528314,15.71847822\H,0,2.41879656,-1.60003606,17.03523086\H,
 0,2.86020547,0.08874695,17.11420435\H,0,7.51166862,1.00337102,18.24066
 375\H,0,7.51446415,2.15340348,16.78735115\H,0,5.68823655,0.90688159,15
 .818691\H,0,8.30736495,-0.41961017,18.35905371\H,0,11.91091086,-1.4524
 2923,18.15966107\H,0,10.4347658,-0.60684321,17.76085449\H,0,11.1728383
 3,-0.3841457,19.32888556\H,0,10.62502202,-5.78815758,20.75882303\H,0,1
 0.69587929,-7.37447825,22.10182256\H,0,9.83222359,-8.67730624,22.88272
 252\H,0,10.26405144,-8.80384782,21.19435686\H,0,12.39466162,-4.8187524
 ,19.86865175\H,0,14.01128699,-2.90188825,19.87583732\H,0,12.74534142,-
 2.05013394,20.92778619\H,0,3.95029305,-7.88325546,24.10284924\\Version
 =ES64L-G16RevA.03\State=2-A\HF=-3455.3818818\S2=0.808311\S2-1=0.\S2A=0
 .752787\RMSD=2.618e-09\Dipole=-0.4577364,1.4767697,-0.2473923\Quadrupo
 le=15.9425147,6.6659983,-22.6085129,20.173377,-2.921572,-6.646369\PG=C
 01 [X(C39H39Fe1N7O4)]\\@


 ALL THINGS ARE POSSIBLE EXCEPT SKIING THROUGH A REVOLVING DOOR.
 Job cpu time:       2 days  9 hours 12 minutes 17.1 seconds.
 Elapsed time:       0 days 14 hours 20 minutes 15.4 seconds.
 File lengths (MBytes):  RWF=   3084 Int=      0 D2E=      0 Chk=    279 Scr=      1
 Normal termination of Gaussian 16 at Wed Dec 28 05:12:54 2022.
