 Entering Gaussian System, Link 0=g16
 Input=/net/homes/chemie/zhartovska/work/BioModel/Konrad/1cry/1cry12/1cry12.com
 Output=/net/homes/chemie/zhartovska/work/BioModel/Konrad/1cry/1cry12/1cry12.log
 Initial command:
 /afs/math/software/gaussian/g16.A03/g16/l1.exe "/scratch/zhartovska_gaussian.GzhXLN3/Gau-15077.inp" -scrdir="/scratch/zhartovska_gaussian.GzhXLN3/"
 Entering Link 1 = /afs/math/software/gaussian/g16.A03/g16/l1.exe PID=     15078.
  
 Copyright (c) 1988,1990,1992,1993,1995,1998,2003,2009,2016,
            Gaussian, Inc.  All Rights Reserved.
  
 This is part of the Gaussian(R) 16 program.  It is based on
 the Gaussian(R) 09 system (copyright 2009, Gaussian, Inc.),
 the Gaussian(R) 03 system (copyright 2003, Gaussian, Inc.),
 the Gaussian(R) 98 system (copyright 1998, Gaussian, Inc.),
 the Gaussian(R) 94 system (copyright 1995, Gaussian, Inc.),
 the Gaussian 92(TM) system (copyright 1992, Gaussian, Inc.),
 the Gaussian 90(TM) system (copyright 1990, Gaussian, Inc.),
 the Gaussian 88(TM) system (copyright 1988, Gaussian, Inc.),
 the Gaussian 86(TM) system (copyright 1986, Carnegie Mellon
 University), and the Gaussian 82(TM) system (copyright 1983,
 Carnegie Mellon University). Gaussian is a federally registered
 trademark of Gaussian, Inc.
  
 This software contains proprietary and confidential information,
 including trade secrets, belonging to Gaussian, Inc.
  
 This software is provided under written license and may be
 used, copied, transmitted, or stored only in accord with that
 written license.
  
 The following legend is applicable only to US Government
 contracts under FAR:
  
                    RESTRICTED RIGHTS LEGEND
  
 Use, reproduction and disclosure by the US Government is
 subject to restrictions as set forth in subparagraphs (a)
 and (c) of the Commercial Computer Software - Restricted
 Rights clause in FAR 52.227-19.
  
 Gaussian, Inc.
 340 Quinnipiac St., Bldg. 40, Wallingford CT 06492
  
  
 ---------------------------------------------------------------
 Warning -- This program may not be used in any manner that
 competes with the business of Gaussian, Inc. or will provide
 assistance to any competitor of Gaussian, Inc.  The licensee
 of this program is prohibited from giving any competitor of
 Gaussian, Inc. access to this program.  By using this program,
 the user acknowledges that Gaussian, Inc. is engaged in the
 business of creating and licensing software in the field of
 computational chemistry and represents and warrants to the
 licensee that it is not a competitor of Gaussian, Inc. and that
 it will not use this program in any manner prohibited above.
 ---------------------------------------------------------------
  

 Cite this work as:
 Gaussian 16, Revision A.03,
 M. J. Frisch, G. W. Trucks, H. B. Schlegel, G. E. Scuseria, 
 M. A. Robb, J. R. Cheeseman, G. Scalmani, V. Barone, 
 G. A. Petersson, H. Nakatsuji, X. Li, M. Caricato, A. V. Marenich, 
 J. Bloino, B. G. Janesko, R. Gomperts, B. Mennucci, H. P. Hratchian, 
 J. V. Ortiz, A. F. Izmaylov, J. L. Sonnenberg, D. Williams-Young, 
 F. Ding, F. Lipparini, F. Egidi, J. Goings, B. Peng, A. Petrone, 
 T. Henderson, D. Ranasinghe, V. G. Zakrzewski, J. Gao, N. Rega, 
 G. Zheng, W. Liang, M. Hada, M. Ehara, K. Toyota, R. Fukuda, 
 J. Hasegawa, M. Ishida, T. Nakajima, Y. Honda, O. Kitao, H. Nakai, 
 T. Vreven, K. Throssell, J. A. Montgomery, Jr., J. E. Peralta, 
 F. Ogliaro, M. J. Bearpark, J. J. Heyd, E. N. Brothers, K. N. Kudin, 
 V. N. Staroverov, T. A. Keith, R. Kobayashi, J. Normand, 
 K. Raghavachari, A. P. Rendell, J. C. Burant, S. S. Iyengar, 
 J. Tomasi, M. Cossi, J. M. Millam, M. Klene, C. Adamo, R. Cammi, 
 J. W. Ochterski, R. L. Martin, K. Morokuma, O. Farkas, 
 J. B. Foresman, and D. J. Fox, Gaussian, Inc., Wallingford CT, 2016.
 
 ******************************************
 Gaussian 16:  ES64L-G16RevA.03 25-Dec-2016
                18-Feb-2023 
 ******************************************
 %nprocs=12
 Will use up to   12 processors via shared memory.
 %mem=16GB
 %oldchk=1cry_II_S.chk
 %chk=1cry_III_D.chk
 Copying data from "1cry_II_S.chk" to current chk file "1cry_III_D.chk"
 IOpt=  2 FromEx=T IUOpen= 4 IOptOp= 5 NList=   0 IFRang= 0 IUIn= 4 IUOut= 2.
 ----------------------------------------------------------------------
 # PBE1PBE/def2TZVP empiricaldispersion=GD3BJ scf=qc scf=maxcycle=999 g
 eom=check pop=nbo
 ----------------------------------------------------------------------
 1/29=2,38=1,172=1/1;
 2/12=2,40=1/2;
 3/5=44,7=101,11=2,14=-4,25=1,30=1,74=-13,124=41/1,2,3;
 4//1;
 5/5=2,7=999,8=3,38=5/8;
 6/7=2,8=2,9=2,10=2,28=1,40=1/1,7;
 99/5=1,9=1/99;
 ----------
 1cry_III_D
 ----------
 Structure from the checkpoint file:  "1cry_III_D.chk"
 Charge =  1 Multiplicity = 2
 Z-Matrix found in chk file.
 C,0,18.559999,-18.226,18.774
 C,0,19.341999,-18.736,17.632
 N,0,20.49,-19.462,17.771
 C,0,19.184,-18.620001,16.302999
 C,0,20.985001,-19.778,16.599001
 N,0,20.198,-19.274,15.685
 C,0,21.131001,-21.854,10.425
 C,0,20.629999,-20.459,10.334
 S,0,21.375999,-19.479,11.694
 C,0,21.546,-17.886999,10.877
 Fe,0,20.73,-19.146,13.891
 C,0,23.254,-21.370001,14.31
 C,0,22.868,-16.591,14.587
 C,0,18.344,-16.879,12.904
 C,0,18.507,-21.698999,13.581
 N,0,22.68,-18.997999,14.377
 C,0,23.587,-20.037001,14.464
 C,0,24.902,-19.514999,14.717
 C,0,24.801001,-18.184999,14.799
 C,0,23.416,-17.848,14.585
 C,0,25.927,-17.158001,15.083
 C,0,26.160999,-20.403999,14.944
 C,0,26.521,-20.389999,16.452
 C,0,27.712,-21.169001,16.908001
 O,0,28.504,-21.518999,15.987
 O,0,27.815001,-21.408001,18.153
 N,0,20.646999,-17.143,13.662
 C,0,21.584999,-16.266001,14.194
 C,0,21.02,-14.941,14.258
 C,0,19.784,-15.015,13.77
 C,0,19.527,-16.382999,13.392
 C,0,21.808001,-13.723,14.79
 C,0,18.775999,-13.826,13.614
 C,0,18.98,-13.086,12.477
 N,0,18.805,-19.26,13.375
 C,0,17.982,-18.209999,13.031
 C,0,16.663,-18.742001,12.746
 C,0,16.715,-20.063999,12.899
 C,0,18.046,-20.417999,13.314
 C,0,15.456,-17.882,12.29
 C,0,15.536,-21.084999,12.724
 C,0,15.273,-21.466,11.443
 N,0,20.843,-21.16,13.98
 C,0,19.826,-22.079,13.735
 C,0,20.391001,-23.407,13.668
 C,0,21.707001,-23.312,13.875
 C,0,22.002001,-21.91,14.065
 C,0,19.573,-24.687,13.407
 C,0,22.796,-24.406,13.931
 C,0,23.674999,-24.639999,12.707
 C,0,24.436001,-25.938999,12.584
 O,0,24.766001,-26.277,11.42
 O,0,24.688999,-26.58,13.638
 H,0,22.44946813,-17.87491319,10.30385144
 H,0,20.7099979,-17.72788642,10.22839868
 H,0,21.57973302,-17.11050307,11.61240204
 H,0,22.0737606,-21.86209275,10.93100282
 H,0,20.42889771,-22.45032767,10.96937513
 H,0,21.25132915,-22.25471195,9.44018983
 H,0,20.90976194,-20.0371363,9.39131038
 H,0,19.56422737,-20.45269331,10.42882116
 H,0,19.11168485,-17.45325494,19.26736374
 H,0,17.63013974,-17.83098518,18.42154426
 H,0,18.3709123,-19.02380764,19.46149486
 H,0,18.3890174,-18.09762548,15.81307403
 H,0,20.89769326,-19.71783949,18.6475457
 H,0,21.87399348,-20.34662265,16.42219416
 H,0,29.45271473,-21.4668627,16.12419389
 H,0,26.67424561,-19.37021217,16.73739552
 H,0,25.67133094,-20.7558672,16.98968295
 H,0,26.98079984,-20.01644378,14.37599688
 H,0,25.95247384,-21.40677587,14.63439412
 H,0,25.69428034,-26.34524809,11.1849688
 H,0,23.04962705,-24.55299626,11.8431479
 H,0,24.3909345,-23.84561151,12.67115492
 H,0,23.4435334,-24.1713433,14.74986307
 H,0,22.30861075,-25.33144513,14.15661699
 H,0,24.06044473,-22.06871691,14.38964284
 H,0,26.78655468,-17.39888989,14.49305229
 H,0,25.58556565,-16.17566851,14.83131475
 H,0,26.18606016,-17.19059601,16.12065379
 H,0,20.12417343,-25.53828786,13.74819911
 H,0,18.64324851,-24.62966176,13.93347365
 H,0,19.38371097,-24.78164326,12.35813761
 H,0,17.76876568,-22.46756657,13.67698947
 H,0,15.80370207,-22.36876715,11.22330297
 H,0,14.2222939,-21.63324196,11.32921594
 H,0,15.58640256,-20.69528887,10.77018265
 H,0,14.97572877,-21.45725028,13.55612087
 H,0,15.72681567,-17.31965487,11.4209046
 H,0,14.62992274,-18.5212937,12.05805189
 H,0,15.17836921,-17.2116063,13.07637995
 H,0,17.67403799,-16.21029812,12.40511253
 H,0,18.42799451,-12.1717357,12.54265616
 H,0,20.02245875,-12.86678921,12.37637006
 H,0,18.64866058,-13.64230027,11.62515248
 H,0,18.00464881,-13.61219561,14.32407504
 H,0,22.74139627,-13.64825325,14.27222959
 H,0,21.23839357,-12.83165514,14.62890463
 H,0,21.98989492,-13.84564041,15.83726975
 H,0,23.49136663,-15.78917473,14.92373474
 Recover connectivity data from disk.
 Stoichiometry    C41H48FeN6O4S(1+,2)
 Framework group  C1[X(C41H48FeN6O4S)]
 Deg. of freedom   297
 Full point group                 C1      NOp   1
 Largest Abelian subgroup         C1      NOp   1
 Largest concise Abelian subgroup C1      NOp   1
                         Standard orientation:                         
 ---------------------------------------------------------------------
 Center     Atomic      Atomic             Coordinates (Angstroms)
 Number     Number       Type             X           Y           Z
 ---------------------------------------------------------------------
      1          6           0        2.508484   -1.500272    4.973537
      2          6           0        1.730312   -1.104455    3.784603
      3          7           0        0.376573   -1.253928    3.687894
      4          6           0        2.089705   -0.580736    2.600872
      5          6           0       -0.055828   -0.831832    2.524567
      6          7           0        0.978015   -0.412111    1.843546
      7          6           0       -0.716279    3.046624   -2.668771
      8          6           0        0.562144    2.328581   -2.904054
      9         16           0        0.445406    0.661489   -2.146629
     10          6           0        1.427062   -0.284806   -3.317838
     11         26           0        0.876349   -0.093247   -0.001944
     12          6           0       -2.512300   -0.003416    0.034222
     13          6           0        0.779031   -3.425162   -0.689223
     14          6           0        4.257602   -0.067235   -0.612602
     15          6           0        0.991796    3.132095    1.065518
     16          7           0       -0.578127   -1.464092   -0.258625
     17          6           0       -1.940039   -1.229948   -0.247969
     18          6           0       -2.643792   -2.436396   -0.586990
     19          6           0       -1.733325   -3.394129   -0.786043
     20          6           0       -0.436158   -2.798140   -0.586676
     21          6           0       -1.976408   -4.881460   -1.149380
     22          6           0       -4.196557   -2.561188   -0.603618
     23          6           0       -4.649887   -3.362070    0.644156
     24          6           0       -6.109472   -3.620695    0.833856
     25          8           0       -6.821269   -3.435270   -0.194234
     26          8           0       -6.494473   -3.990472    1.988322
     27          7           0        2.238628   -1.434957   -0.646420
     28          6           0        2.013015   -2.805946   -0.684939
     29          6           0        3.276597   -3.498166   -0.740963
     30          6           0        4.233452   -2.573120   -0.746795
     31          6           0        3.608856   -1.274430   -0.686484
     32          6           0        3.381730   -5.038307   -0.807339
     33          6           0        5.776154   -2.835314   -0.820620
     34          6           0        6.231248   -3.046066   -2.097514
     35          7           0        2.337045    1.250590    0.211001
     36          6           0        3.673797    1.063261   -0.064988
     37          6           0        4.378238    2.291862    0.248563
     38          6           0        3.481013    3.178200    0.676564
     39          6           0        2.189273    2.545370    0.682670
     40          6           0        5.901408    2.499531    0.045551
     41          6           0        3.754788    4.647349    1.155890
     42          6           0        3.873093    5.576407    0.166877
     43          7           0       -0.498389    1.295150    0.507306
     44          6           0       -0.274824    2.627649    0.843967
     45          6           0       -1.539937    3.323260    0.897952
     46          6           0       -2.509574    2.449285    0.615634
     47          6           0       -1.869029    1.178571    0.363212
     48          6           0       -1.695203    4.819050    1.235815
     49          6           0       -4.041387    2.636259    0.548715
     50          6           0       -4.708314    2.807495   -0.811968
     51          6           0       -6.097624    3.396124   -0.882576
     52          8           0       -6.419073    3.921893   -1.977235
     53          8           0       -6.828310    3.315588    0.139882
     54          1           0        0.816620   -0.564402   -4.150957
     55          1           0        2.246535    0.311841   -3.660439
     56          1           0        1.802396   -1.165174   -2.839322
     57          1           0       -1.503691    2.336044   -2.527491
     58          1           0       -0.626483    3.657886   -1.795161
     59          1           0       -0.939800    3.663308   -3.514135
     60          1           0        0.733478    2.234478   -3.956046
     61          1           0        1.367574    2.871787   -2.455600
     62          1           0        2.516320   -2.567080    5.055750
     63          1           0        3.512377   -1.142521    4.878078
     64          1           0        2.061239   -1.078338    5.849233
     65          1           0        3.088560   -0.336922    2.304656
     66          1           0       -0.205782   -1.633703    4.406666
     67          1           0       -1.072842   -0.831009    2.192030
     68          1           0       -7.529161   -4.048535   -0.404933
     69          1           0       -4.155473   -4.310562    0.615565
     70          1           0       -4.300484   -2.837135    1.508598
     71          1           0       -4.505643   -3.073800   -1.490520
     72          1           0       -4.634992   -1.585373   -0.582169
     73          1           0       -7.141445    3.554986   -2.492170
     74          1           0       -4.068531    3.426316   -1.405801
     75          1           0       -4.746273    1.842618   -1.272914
     76          1           0       -4.488463    1.785718    1.019463
     77          1           0       -4.284543    3.497706    1.134960
     78          1           0       -3.580733    0.037849   -0.006381
     79          1           0       -2.711711   -4.943759   -1.924202
     80          1           0       -1.061507   -5.319568   -1.489848
     81          1           0       -2.323784   -5.407629   -0.284871
     82          1           0       -2.698153    5.010159    1.555922
     83          1           0       -1.014868    5.080224    2.019289
     84          1           0       -1.480376    5.405164    0.366781
     85          1           0        1.055668    4.066524    1.582879
     86          1           0        2.922857    6.037254   -0.005089
     87          1           0        4.582888    6.321361    0.460366
     88          1           0        4.206469    5.100435   -0.731572
     89          1           0        3.842708    4.902340    2.191337
     90          1           0        6.159523    2.277792   -0.968899
     91          1           0        6.155082    3.515778    0.264161
     92          1           0        6.440685    1.848323    0.701302
     93          1           0        5.254989    0.003540   -0.993537
     94          1           0        7.224186   -3.443131   -2.061279
     95          1           0        5.587371   -3.740519   -2.595568
     96          1           0        6.237144   -2.118927   -2.631628
     97          1           0        6.412037   -2.848696    0.039830
     98          1           0        2.781312   -5.402323   -1.614736
     99          1           0        4.401758   -5.319652   -0.966364
    100          1           0        3.034924   -5.459477    0.113118
    101          1           0        0.770093   -4.491191   -0.780891
 ---------------------------------------------------------------------
 Rotational constants (GHZ):           0.0645089           0.0441764           0.0330312
 Standard basis: def2TZVP (5D, 7F)
 There are  2218 symmetry adapted cartesian basis functions of A   symmetry.
 There are  1951 symmetry adapted basis functions of A   symmetry.
  1951 basis functions,  3156 primitive gaussians,  2218 cartesian basis functions
   205 alpha electrons      204 beta electrons
       nuclear repulsion energy      8949.8523112380 Hartrees.
 NAtoms=  101 NActive=  101 NUniq=  101 SFac= 1.00D+00 NAtFMM=   60 NAOKFM=T Big=T
 Integral buffers will be    131072 words long.
 Raffenetti 2 integral format.
 Two-electron integral symmetry is turned on.
 Nuclear repulsion after empirical dispersion term =     8949.7025978176 Hartrees.
 One-electron integrals computed using PRISM.
   1 Symmetry operations used in ECPInt.
 ECPInt:  NShTT=  305371 NPrTT=  941867 LenC2=  223075 LenP2D=  445226.
 LDataN:  DoStor=T MaxTD1= 6 Len=  172
 NBasis=  1951 RedAO= T EigKep=  3.01D-06  NBF=  1951
 NBsUse=  1951 1.00D-06 EigRej= -1.00D+00 NBFU=  1951
 ExpMin= 4.20D-02 ExpMax= 3.01D+05 ExpMxC= 2.91D+03 IAcc=3 IRadAn=         5 AccDes= 0.00D+00
 Harris functional with IExCor= 1009 and IRadAn=       5 diagonalized for initial guess.
 HarFok:  IExCor= 1009 AccDes= 0.00D+00 IRadAn=         5 IDoV= 1 UseB2=F ITyADJ=14
 ICtDFT=  3500011 ScaDFX=  1.000000  1.000000  1.000000  1.000000
 FoFCou: FMM=F IPFlag=           0 FMFlag=      100000 FMFlg1=        2001
         NFxFlg=           0 DoJE=T BraDBF=F KetDBF=T FulRan=T
         wScrn=  0.000000 ICntrl=       500 IOpCl=  0 I1Cent=   200000004 NGrid=           0
         NMat0=    1 NMatS0=      1 NMatT0=    0 NMatD0=    1 NMtDS0=    0 NMtDT0=    0
 Petite list used in FoFCou.
 Initial guess <Sx>= 0.0000 <Sy>= 0.0000 <Sz>= 0.5000 <S**2>= 0.7500 S= 0.5000
 Gradient too large for Newton-Raphson -- use scaled steepest descent instead.
     Minimum is close to point  2 DX= -8.49D-03 DF= -2.28D-03 DXR=  2.91D-02 DFR=  8.50D-04 which will be used.
 Gradient too large for Newton-Raphson -- use scaled steepest descent instead.
     Minimum is close to point  3 DX=  7.57D-03 DF= -1.03D-04 DXR=  1.86D-02 DFR=  3.05D-04 which will be used.
 Gradient too large for Newton-Raphson -- use scaled steepest descent instead.
 Gradient too large for Newton-Raphson -- use scaled steepest descent instead.
     Minimum is close to point  4 DX=  3.80D-02 DF= -4.54D-04 DXR=  4.53D-02 DFR=  2.43D-03 which will be used.
 Gradient too large for Newton-Raphson -- use scaled steepest descent instead.
 Gradient too large for Newton-Raphson -- use scaled steepest descent instead.
     Minimum is close to point  3 DX= -2.93D-02 DF= -1.92D-04 DXR=  7.91D-02 DFR=  6.30D-03 which will be used.
 Gradient too large for Newton-Raphson -- use scaled steepest descent instead.
     Accept linear search using points  1 and  2.
 Gradient too large for Newton-Raphson -- use scaled steepest descent instead.
 Restarting incremental Fock formation.
 Gradient too large for Newton-Raphson -- use scaled steepest descent instead.
 Gradient too large for Newton-Raphson -- use scaled steepest descent instead.
 Gradient too large for Newton-Raphson -- use scaled steepest descent instead.
     Accept linear search using points  1 and  2.
 Gradient too large for Newton-Raphson -- use scaled steepest descent instead.
     Accept linear search using points  3 and  4.
 Gradient too large for Newton-Raphson -- use scaled steepest descent instead.
 Restarting incremental Fock formation.
     Accept linear search using points  1 and  2.
 Gradient too large for Newton-Raphson -- use scaled steepest descent instead.
     Minimum is close to point  2 DX=  2.42D-02 DF= -2.06D-06 DXR=  2.36D-02 DFR=  5.59D-04 which will be used.
 Gradient too large for Newton-Raphson -- use scaled steepest descent instead.
 Gradient too large for Newton-Raphson -- use scaled steepest descent instead.
     Minimum is close to point  3 DX=  7.53D-03 DF= -1.64D-07 DXR=  1.85D-02 DFR=  3.41D-04 which will be used.
 Gradient too large for Newton-Raphson -- use scaled steepest descent instead.
     Minimum is close to point  2 DX= -1.85D-02 DF= -1.36D-06 DXR=  6.58D-02 DFR=  4.35D-03 which will be used.
 Gradient too large for Newton-Raphson -- use scaled steepest descent instead.
     Accept linear search using points  1 and  2.
 LinEq1:  Iter=  0 NonCon=     1 RMS=5.75D-05 Max=3.75D-02 NDo=     1
 AX will form     1 AO Fock derivatives at one time.
 LinEq1:  Iter=  1 NonCon=     1 RMS=3.17D-05 Max=5.29D-03 NDo=     1
 LinEq1:  Iter=  2 NonCon=     1 RMS=4.06D-05 Max=1.01D-02 NDo=     1
 LinEq1:  Iter=  3 NonCon=     1 RMS=2.26D-05 Max=5.92D-03 NDo=     1
 LinEq1:  Iter=  4 NonCon=     1 RMS=3.08D-05 Max=7.98D-03 NDo=     1
 LinEq1:  Iter=  5 NonCon=     1 RMS=3.17D-05 Max=6.02D-03 NDo=     1
 LinEq1:  Iter=  6 NonCon=     1 RMS=2.43D-05 Max=4.22D-03 NDo=     1
 LinEq1:  Iter=  7 NonCon=     1 RMS=2.70D-05 Max=4.28D-03 NDo=     1
 LinEq1:  Iter=  8 NonCon=     1 RMS=1.87D-05 Max=4.15D-03 NDo=     1
 LinEq1:  Iter=  9 NonCon=     1 RMS=2.33D-05 Max=4.79D-03 NDo=     1
 LinEq1:  Iter= 10 NonCon=     1 RMS=1.91D-05 Max=3.92D-03 NDo=     1
 LinEq1:  Iter= 11 NonCon=     1 RMS=2.23D-05 Max=4.25D-03 NDo=     1
 LinEq1:  Iter= 12 NonCon=     1 RMS=2.31D-05 Max=4.67D-03 NDo=     1
 LinEq1:  Iter= 13 NonCon=     1 RMS=1.81D-05 Max=1.89D-03 NDo=     1
 LinEq1:  Iter= 14 NonCon=     1 RMS=1.47D-05 Max=1.74D-03 NDo=     1
 LinEq1:  Iter= 15 NonCon=     1 RMS=1.43D-05 Max=1.65D-03 NDo=     1
 LinEq1:  Iter= 16 NonCon=     1 RMS=1.22D-05 Max=1.34D-03 NDo=     1
 LinEq1:  Iter= 17 NonCon=     1 RMS=1.08D-05 Max=1.32D-03 NDo=     1
 LinEq1:  Iter= 18 NonCon=     1 RMS=9.27D-06 Max=1.18D-03 NDo=     1
 LinEq1:  Iter= 19 NonCon=     1 RMS=6.71D-06 Max=1.02D-03 NDo=     1
 LinEq1:  Iter= 20 NonCon=     1 RMS=5.80D-06 Max=9.19D-04 NDo=     1
 LinEq1:  Iter= 21 NonCon=     1 RMS=4.27D-06 Max=5.70D-04 NDo=     1
 LinEq1:  Iter= 22 NonCon=     1 RMS=3.35D-06 Max=4.67D-04 NDo=     1
 LinEq1:  Iter= 23 NonCon=     1 RMS=2.47D-06 Max=4.67D-04 NDo=     1
 LinEq1:  Iter= 24 NonCon=     1 RMS=2.22D-06 Max=4.89D-04 NDo=     1
 LinEq1:  Iter= 25 NonCon=     1 RMS=2.06D-06 Max=3.67D-04 NDo=     1
 LinEq1:  Iter= 26 NonCon=     1 RMS=1.63D-06 Max=2.89D-04 NDo=     1
 LinEq1:  Iter= 27 NonCon=     1 RMS=8.67D-07 Max=1.17D-04 NDo=     1
 LinEq1:  Iter= 28 NonCon=     1 RMS=6.05D-07 Max=8.70D-05 NDo=     1
 LinEq1:  Iter= 29 NonCon=     1 RMS=5.55D-07 Max=8.79D-05 NDo=     1
 LinEq1:  Iter= 30 NonCon=     1 RMS=4.64D-07 Max=9.57D-05 NDo=     1
 LinEq1:  Iter= 31 NonCon=     1 RMS=3.92D-07 Max=9.48D-05 NDo=     1
 LinEq1:  Iter= 32 NonCon=     1 RMS=3.07D-07 Max=5.43D-05 NDo=     1
 LinEq1:  Iter= 33 NonCon=     1 RMS=2.67D-07 Max=3.67D-05 NDo=     1
 LinEq1:  Iter= 34 NonCon=     1 RMS=2.09D-07 Max=2.15D-05 NDo=     1
 LinEq1:  Iter= 35 NonCon=     1 RMS=1.33D-07 Max=1.63D-05 NDo=     1
 LinEq1:  Iter= 36 NonCon=     1 RMS=1.12D-07 Max=1.26D-05 NDo=     1
 LinEq1:  Iter= 37 NonCon=     1 RMS=8.47D-08 Max=9.52D-06 NDo=     1
 LinEq1:  Iter= 38 NonCon=     1 RMS=6.74D-08 Max=1.07D-05 NDo=     1
 LinEq1:  Iter= 39 NonCon=     1 RMS=5.33D-08 Max=7.11D-06 NDo=     1
 LinEq1:  Iter= 40 NonCon=     1 RMS=3.72D-08 Max=4.01D-06 NDo=     1
 LinEq1:  Iter= 41 NonCon=     1 RMS=3.02D-08 Max=3.60D-06 NDo=     1
 LinEq1:  Iter= 42 NonCon=     1 RMS=2.54D-08 Max=3.25D-06 NDo=     1
 LinEq1:  Iter= 43 NonCon=     1 RMS=1.80D-08 Max=2.53D-06 NDo=     1
 LinEq1:  Iter= 44 NonCon=     1 RMS=1.50D-08 Max=2.03D-06 NDo=     1
 LinEq1:  Iter= 45 NonCon=     1 RMS=1.18D-08 Max=2.05D-06 NDo=     1
 LinEq1:  Iter= 46 NonCon=     1 RMS=7.79D-09 Max=1.31D-06 NDo=     1
 LinEq1:  Iter= 47 NonCon=     1 RMS=5.56D-09 Max=8.81D-07 NDo=     1
 LinEq1:  Iter= 48 NonCon=     0 RMS=4.04D-09 Max=5.82D-07 NDo=     1
 Linear equations converged to 8.452D-08 8.452D-07 after    48 iterations.
     Minimum is close to point  6 DX=  1.82D-03 DF= -2.68D-07 DXR=  1.79D-02 DFR=  5.47D-04 which will be used.
 Gradient too large for Newton-Raphson -- use scaled steepest descent instead.
 Restarting incremental Fock formation.
 Gradient too large for Newton-Raphson -- use scaled steepest descent instead.
     Accept linear search using points  1 and  2.
 LinEq1:  Iter=  0 NonCon=     1 RMS=2.77D-05 Max=1.71D-02 NDo=     1
 LinEq1:  Iter=  1 NonCon=     1 RMS=1.35D-05 Max=2.07D-03 NDo=     1
 LinEq1:  Iter=  2 NonCon=     1 RMS=1.97D-05 Max=5.78D-03 NDo=     1
 LinEq1:  Iter=  3 NonCon=     1 RMS=1.47D-05 Max=2.54D-03 NDo=     1
 LinEq1:  Iter=  4 NonCon=     1 RMS=1.28D-05 Max=3.57D-03 NDo=     1
 LinEq1:  Iter=  5 NonCon=     1 RMS=9.57D-06 Max=1.96D-03 NDo=     1
 LinEq1:  Iter=  6 NonCon=     1 RMS=1.05D-05 Max=1.99D-03 NDo=     1
 LinEq1:  Iter=  7 NonCon=     1 RMS=1.27D-05 Max=2.27D-03 NDo=     1
 LinEq1:  Iter=  8 NonCon=     1 RMS=1.02D-05 Max=1.68D-03 NDo=     1
 LinEq1:  Iter=  9 NonCon=     1 RMS=1.15D-05 Max=2.20D-03 NDo=     1
 LinEq1:  Iter= 10 NonCon=     1 RMS=8.63D-06 Max=1.48D-03 NDo=     1
 LinEq1:  Iter= 11 NonCon=     1 RMS=9.18D-06 Max=1.26D-03 NDo=     1
 LinEq1:  Iter= 12 NonCon=     1 RMS=5.64D-06 Max=9.52D-04 NDo=     1
 LinEq1:  Iter= 13 NonCon=     1 RMS=5.98D-06 Max=1.12D-03 NDo=     1
 LinEq1:  Iter= 14 NonCon=     1 RMS=6.67D-06 Max=2.02D-03 NDo=     1
 LinEq1:  Iter= 15 NonCon=     1 RMS=7.50D-06 Max=1.78D-03 NDo=     1
 LinEq1:  Iter= 16 NonCon=     1 RMS=7.62D-06 Max=1.01D-03 NDo=     1
 LinEq1:  Iter= 17 NonCon=     1 RMS=6.64D-06 Max=8.06D-04 NDo=     1
 LinEq1:  Iter= 18 NonCon=     1 RMS=5.68D-06 Max=8.02D-04 NDo=     1
 LinEq1:  Iter= 19 NonCon=     1 RMS=4.71D-06 Max=7.04D-04 NDo=     1
 LinEq1:  Iter= 20 NonCon=     1 RMS=3.80D-06 Max=6.10D-04 NDo=     1
 LinEq1:  Iter= 21 NonCon=     1 RMS=2.98D-06 Max=4.11D-04 NDo=     1
 LinEq1:  Iter= 22 NonCon=     1 RMS=1.91D-06 Max=2.70D-04 NDo=     1
 LinEq1:  Iter= 23 NonCon=     1 RMS=1.74D-06 Max=2.42D-04 NDo=     1
 LinEq1:  Iter= 24 NonCon=     1 RMS=1.58D-06 Max=2.55D-04 NDo=     1
 LinEq1:  Iter= 25 NonCon=     1 RMS=1.21D-06 Max=2.03D-04 NDo=     1
 LinEq1:  Iter= 26 NonCon=     1 RMS=9.91D-07 Max=1.52D-04 NDo=     1
 LinEq1:  Iter= 27 NonCon=     1 RMS=7.41D-07 Max=1.09D-04 NDo=     1
 LinEq1:  Iter= 28 NonCon=     1 RMS=6.34D-07 Max=8.65D-05 NDo=     1
 LinEq1:  Iter= 29 NonCon=     1 RMS=5.00D-07 Max=6.28D-05 NDo=     1
 LinEq1:  Iter= 30 NonCon=     1 RMS=3.49D-07 Max=5.59D-05 NDo=     1
 LinEq1:  Iter= 31 NonCon=     1 RMS=2.66D-07 Max=4.72D-05 NDo=     1
 LinEq1:  Iter= 32 NonCon=     1 RMS=2.36D-07 Max=3.09D-05 NDo=     1
 LinEq1:  Iter= 33 NonCon=     1 RMS=1.69D-07 Max=2.24D-05 NDo=     1
 LinEq1:  Iter= 34 NonCon=     1 RMS=1.33D-07 Max=1.98D-05 NDo=     1
 LinEq1:  Iter= 35 NonCon=     1 RMS=9.82D-08 Max=1.72D-05 NDo=     1
 LinEq1:  Iter= 36 NonCon=     1 RMS=8.04D-08 Max=1.10D-05 NDo=     1
 LinEq1:  Iter= 37 NonCon=     1 RMS=5.80D-08 Max=7.56D-06 NDo=     1
 LinEq1:  Iter= 38 NonCon=     1 RMS=4.15D-08 Max=6.11D-06 NDo=     1
 LinEq1:  Iter= 39 NonCon=     1 RMS=2.83D-08 Max=3.76D-06 NDo=     1
 LinEq1:  Iter= 40 NonCon=     1 RMS=1.86D-08 Max=1.89D-06 NDo=     1
 LinEq1:  Iter= 41 NonCon=     1 RMS=1.23D-08 Max=1.39D-06 NDo=     1
 LinEq1:  Iter= 42 NonCon=     1 RMS=1.02D-08 Max=1.51D-06 NDo=     1
 LinEq1:  Iter= 43 NonCon=     1 RMS=7.79D-09 Max=1.07D-06 NDo=     1
 LinEq1:  Iter= 44 NonCon=     1 RMS=5.36D-09 Max=8.94D-07 NDo=     1
 LinEq1:  Iter= 45 NonCon=     1 RMS=3.88D-09 Max=7.04D-07 NDo=     1
 LinEq1:  Iter= 46 NonCon=     1 RMS=3.15D-09 Max=5.10D-07 NDo=     1
 LinEq1:  Iter= 47 NonCon=     0 RMS=2.29D-09 Max=2.95D-07 NDo=     1
 Linear equations converged to 5.078D-08 5.078D-07 after    47 iterations.
     Accept linear search using points  1 and  2.
     Minimum is close to point  2 DX= -4.49D-02 DF= -3.62D-07 DXR=  4.71D-02 DFR=  2.30D-03 which will be used.
 LinEq1:  Iter=  0 NonCon=     1 RMS=1.95D-06 Max=3.26D-04 NDo=     1
 LinEq1:  Iter=  1 NonCon=     1 RMS=4.63D-06 Max=1.28D-03 NDo=     1
 LinEq1:  Iter=  2 NonCon=     1 RMS=3.02D-06 Max=3.50D-04 NDo=     1
 LinEq1:  Iter=  3 NonCon=     1 RMS=3.52D-06 Max=7.22D-04 NDo=     1
 LinEq1:  Iter=  4 NonCon=     1 RMS=3.93D-06 Max=8.69D-04 NDo=     1
 LinEq1:  Iter=  5 NonCon=     1 RMS=4.04D-06 Max=9.07D-04 NDo=     1
 LinEq1:  Iter=  6 NonCon=     1 RMS=4.71D-06 Max=8.56D-04 NDo=     1
 LinEq1:  Iter=  7 NonCon=     1 RMS=3.58D-06 Max=6.16D-04 NDo=     1
 LinEq1:  Iter=  8 NonCon=     1 RMS=3.83D-06 Max=5.85D-04 NDo=     1
 LinEq1:  Iter=  9 NonCon=     1 RMS=2.74D-06 Max=7.40D-04 NDo=     1
 LinEq1:  Iter= 10 NonCon=     1 RMS=2.75D-06 Max=6.81D-04 NDo=     1
 LinEq1:  Iter= 11 NonCon=     1 RMS=2.70D-06 Max=6.40D-04 NDo=     1
 LinEq1:  Iter= 12 NonCon=     1 RMS=3.33D-06 Max=6.03D-04 NDo=     1
 LinEq1:  Iter= 13 NonCon=     1 RMS=3.22D-06 Max=3.82D-04 NDo=     1
 LinEq1:  Iter= 14 NonCon=     1 RMS=2.90D-06 Max=4.89D-04 NDo=     1
 LinEq1:  Iter= 15 NonCon=     1 RMS=2.46D-06 Max=4.52D-04 NDo=     1
 LinEq1:  Iter= 16 NonCon=     1 RMS=2.77D-06 Max=4.55D-04 NDo=     1
 LinEq1:  Iter= 17 NonCon=     1 RMS=2.08D-06 Max=2.82D-04 NDo=     1
 LinEq1:  Iter= 18 NonCon=     1 RMS=1.70D-06 Max=1.84D-04 NDo=     1
 LinEq1:  Iter= 19 NonCon=     1 RMS=1.25D-06 Max=1.25D-04 NDo=     1
 LinEq1:  Iter= 20 NonCon=     1 RMS=9.85D-07 Max=1.58D-04 NDo=     1
 LinEq1:  Iter= 21 NonCon=     1 RMS=9.08D-07 Max=1.34D-04 NDo=     1
 LinEq1:  Iter= 22 NonCon=     1 RMS=6.67D-07 Max=7.36D-05 NDo=     1
 LinEq1:  Iter= 23 NonCon=     1 RMS=5.32D-07 Max=7.36D-05 NDo=     1
 LinEq1:  Iter= 24 NonCon=     1 RMS=4.42D-07 Max=5.76D-05 NDo=     1
 LinEq1:  Iter= 25 NonCon=     1 RMS=3.04D-07 Max=4.92D-05 NDo=     1
 LinEq1:  Iter= 26 NonCon=     1 RMS=2.65D-07 Max=5.70D-05 NDo=     1
 LinEq1:  Iter= 27 NonCon=     1 RMS=2.38D-07 Max=3.95D-05 NDo=     1
 LinEq1:  Iter= 28 NonCon=     1 RMS=1.77D-07 Max=2.66D-05 NDo=     1
 LinEq1:  Iter= 29 NonCon=     1 RMS=1.34D-07 Max=2.26D-05 NDo=     1
 LinEq1:  Iter= 30 NonCon=     1 RMS=8.60D-08 Max=1.72D-05 NDo=     1
 LinEq1:  Iter= 31 NonCon=     1 RMS=6.25D-08 Max=1.34D-05 NDo=     1
 LinEq1:  Iter= 32 NonCon=     1 RMS=4.84D-08 Max=8.46D-06 NDo=     1
 LinEq1:  Iter= 33 NonCon=     1 RMS=3.45D-08 Max=4.24D-06 NDo=     1
 LinEq1:  Iter= 34 NonCon=     1 RMS=2.87D-08 Max=4.70D-06 NDo=     1
 LinEq1:  Iter= 35 NonCon=     1 RMS=2.13D-08 Max=2.83D-06 NDo=     1
 LinEq1:  Iter= 36 NonCon=     1 RMS=1.63D-08 Max=2.50D-06 NDo=     1
 LinEq1:  Iter= 37 NonCon=     1 RMS=1.31D-08 Max=1.85D-06 NDo=     1
 LinEq1:  Iter= 38 NonCon=     1 RMS=8.75D-09 Max=1.39D-06 NDo=     1
 LinEq1:  Iter= 39 NonCon=     1 RMS=7.07D-09 Max=9.47D-07 NDo=     1
 LinEq1:  Iter= 40 NonCon=     1 RMS=5.38D-09 Max=6.36D-07 NDo=     1
 LinEq1:  Iter= 41 NonCon=     1 RMS=3.99D-09 Max=5.00D-07 NDo=     1
 LinEq1:  Iter= 42 NonCon=     1 RMS=3.12D-09 Max=5.08D-07 NDo=     1
 LinEq1:  Iter= 43 NonCon=     1 RMS=2.54D-09 Max=4.80D-07 NDo=     1
 LinEq1:  Iter= 44 NonCon=     1 RMS=1.86D-09 Max=3.28D-07 NDo=     1
 LinEq1:  Iter= 45 NonCon=     1 RMS=1.32D-09 Max=1.81D-07 NDo=     1
 LinEq1:  Iter= 46 NonCon=     1 RMS=8.00D-10 Max=1.26D-07 NDo=     1
 LinEq1:  Iter= 47 NonCon=     0 RMS=4.68D-10 Max=7.33D-08 NDo=     1
 Linear equations converged to 9.661D-09 9.661D-08 after    47 iterations.
     Accept linear search using points  1 and  2.
     Minimum is close to point  2 DX= -1.44D-02 DF= -6.68D-11 DXR=  1.46D-02 DFR=  2.15D-04 which will be used.
 LinEq1:  Iter=  0 NonCon=     1 RMS=5.04D-08 Max=8.41D-06 NDo=     1
 LinEq1:  Iter=  1 NonCon=     1 RMS=5.24D-08 Max=6.90D-06 NDo=     1
 LinEq1:  Iter=  2 NonCon=     1 RMS=6.89D-08 Max=9.26D-06 NDo=     1
 LinEq1:  Iter=  3 NonCon=     1 RMS=1.01D-07 Max=1.64D-05 NDo=     1
 LinEq1:  Iter=  4 NonCon=     1 RMS=8.53D-08 Max=1.93D-05 NDo=     1
 LinEq1:  Iter=  5 NonCon=     1 RMS=1.22D-07 Max=3.21D-05 NDo=     1
 LinEq1:  Iter=  6 NonCon=     1 RMS=1.17D-07 Max=1.93D-05 NDo=     1
 LinEq1:  Iter=  7 NonCon=     1 RMS=1.01D-07 Max=1.25D-05 NDo=     1
 LinEq1:  Iter=  8 NonCon=     1 RMS=7.95D-08 Max=1.52D-05 NDo=     1
 LinEq1:  Iter=  9 NonCon=     1 RMS=6.68D-08 Max=1.06D-05 NDo=     1
 LinEq1:  Iter= 10 NonCon=     1 RMS=6.70D-08 Max=1.12D-05 NDo=     1
 LinEq1:  Iter= 11 NonCon=     1 RMS=6.06D-08 Max=9.47D-06 NDo=     1
 LinEq1:  Iter= 12 NonCon=     1 RMS=6.07D-08 Max=1.52D-05 NDo=     1
 LinEq1:  Iter= 13 NonCon=     1 RMS=8.02D-08 Max=1.83D-05 NDo=     1
 LinEq1:  Iter= 14 NonCon=     1 RMS=7.28D-08 Max=9.19D-06 NDo=     1
 LinEq1:  Iter= 15 NonCon=     1 RMS=4.79D-08 Max=7.67D-06 NDo=     1
 LinEq1:  Iter= 16 NonCon=     1 RMS=3.96D-08 Max=6.65D-06 NDo=     1
 LinEq1:  Iter= 17 NonCon=     1 RMS=3.28D-08 Max=7.35D-06 NDo=     1
 LinEq1:  Iter= 18 NonCon=     1 RMS=3.16D-08 Max=5.77D-06 NDo=     1
 LinEq1:  Iter= 19 NonCon=     1 RMS=2.45D-08 Max=3.97D-06 NDo=     1
 LinEq1:  Iter= 20 NonCon=     1 RMS=1.61D-08 Max=2.88D-06 NDo=     1
 LinEq1:  Iter= 21 NonCon=     1 RMS=1.50D-08 Max=2.16D-06 NDo=     1
 LinEq1:  Iter= 22 NonCon=     1 RMS=1.09D-08 Max=1.61D-06 NDo=     1
 LinEq1:  Iter= 23 NonCon=     1 RMS=8.23D-09 Max=1.28D-06 NDo=     1
 LinEq1:  Iter= 24 NonCon=     1 RMS=6.59D-09 Max=9.35D-07 NDo=     1
 LinEq1:  Iter= 25 NonCon=     1 RMS=5.99D-09 Max=8.11D-07 NDo=     1
 LinEq1:  Iter= 26 NonCon=     1 RMS=5.78D-09 Max=7.96D-07 NDo=     1
 LinEq1:  Iter= 27 NonCon=     1 RMS=4.53D-09 Max=6.29D-07 NDo=     1
 LinEq1:  Iter= 28 NonCon=     1 RMS=3.43D-09 Max=5.23D-07 NDo=     1
 LinEq1:  Iter= 29 NonCon=     1 RMS=2.94D-09 Max=5.09D-07 NDo=     1
 LinEq1:  Iter= 30 NonCon=     1 RMS=1.95D-09 Max=2.70D-07 NDo=     1
 LinEq1:  Iter= 31 NonCon=     1 RMS=1.30D-09 Max=1.93D-07 NDo=     1
 LinEq1:  Iter= 32 NonCon=     1 RMS=1.17D-09 Max=2.52D-07 NDo=     1
 LinEq1:  Iter= 33 NonCon=     1 RMS=9.80D-10 Max=1.65D-07 NDo=     1
 LinEq1:  Iter= 34 NonCon=     1 RMS=7.30D-10 Max=9.57D-08 NDo=     1
 LinEq1:  Iter= 35 NonCon=     1 RMS=4.71D-10 Max=5.43D-08 NDo=     1
 LinEq1:  Iter= 36 NonCon=     1 RMS=3.54D-10 Max=3.94D-08 NDo=     1
 LinEq1:  Iter= 37 NonCon=     1 RMS=2.50D-10 Max=4.33D-08 NDo=     1
 LinEq1:  Iter= 38 NonCon=     1 RMS=1.87D-10 Max=3.42D-08 NDo=     1
 LinEq1:  Iter= 39 NonCon=     1 RMS=1.42D-10 Max=1.69D-08 NDo=     1
 LinEq1:  Iter= 40 NonCon=     1 RMS=1.11D-10 Max=1.47D-08 NDo=     1
 LinEq1:  Iter= 41 NonCon=     1 RMS=8.35D-11 Max=9.56D-09 NDo=     1
 LinEq1:  Iter= 42 NonCon=     1 RMS=5.01D-11 Max=6.04D-09 NDo=     1
 LinEq1:  Iter= 43 NonCon=     0 RMS=3.39D-11 Max=4.27D-09 NDo=     1
 Linear equations converged to 4.926D-10 4.926D-09 after    43 iterations.
 SCF Done:  E(UPBE1PBE) =  -3880.35537621     a.u. after   25 cycles
            Convg  =    0.3538D-07                   252 Fock formations.
              S**2 =  1.7976                  -V/T =  2.0030
 <Sx>= 0.0000 <Sy>= 0.0000 <Sz>= 0.5000 <S**2>= 1.7976 S= 0.9309
 <L.S>= 0.000000000000E+00
 Annihilation of the first spin contaminant:
 S**2 before annihilation     1.7976,   after     0.9184
 Hyperfine terms turned off by default for NAtoms > 100.

 **********************************************************************

            Population analysis using the SCF density.

 **********************************************************************

 Orbital symmetries:
 Alpha Orbitals:
       Occupied  (A) (A) (A) (A) (A) (A) (A) (A) (A) (A) (A) (A)
                 (A) (A) (A) (A) (A) (A) (A) (A) (A) (A) (A) (A)
                 (A) (A) (A) (A) (A) (A) (A) (A) (A) (A) (A) (A)
                 (A) (A) (A) (A) (A) (A) (A) (A) (A) (A) (A) (A)
                 (A) (A) (A) (A) (A) (A) (A) (A) (A) (A) (A) (A)
                 (A) (A) (A) (A) (A) (A) (A) (A) (A) (A) (A) (A)
                 (A) (A) (A) (A) (A) (A) (A) (A) (A) (A) (A) (A)
                 (A) (A) (A) (A) (A) (A) (A) (A) (A) (A) (A) (A)
                 (A) (A) (A) (A) (A) (A) (A) (A) (A) (A) (A) (A)
                 (A) (A) (A) (A) (A) (A) (A) (A) (A) (A) (A) (A)
                 (A) (A) (A) (A) (A) (A) (A) (A) (A) (A) (A) (A)
                 (A) (A) (A) (A) (A) (A) (A) (A) (A) (A) (A) (A)
                 (A) (A) (A) (A) (A) (A) (A) (A) (A) (A) (A) (A)
                 (A) (A) (A) (A) (A) (A) (A) (A) (A) (A) (A) (A)
                 (A) (A) (A) (A) (A) (A) (A) (A) (A) (A) (A) (A)
                 (A) (A) (A) (A) (A) (A) (A) (A) (A) (A) (A) (A)
                 (A) (A) (A) (A) (A) (A) (A) (A) (A) (A) (A) (A)
                 (A)
       Virtual   (A) (A) (A) (A) (A) (A) (A) (A) (A) (A) (A) (A)
                 (A) (A) (A) (A) (A) (A) (A) (A) (A) (A) (A) (A)
                 (A) (A) (A) (A) (A) (A) (A) (A) (A) (A) (A) (A)
                 (A) (A) (A) (A) (A) (A) (A) (A) (A) (A) (A) (A)
                 (A) (A) (A) (A) (A) (A) (A) (A) (A) (A) (A) (A)
                 (A) (A) (A) (A) (A) (A) (A) (A) (A) (A) (A) (A)
                 (A) (A) (A) (A) (A) (A) (A) (A) (A) (A) (A) (A)
                 (A) (A) (A) (A) (A) (A) (A) (A) (A) (A) (A) (A)
                 (A) (A) (A) (A) (A) (A) (A) (A) (A) (A) (A) (A)
                 (A) (A) (A) (A) (A) (A) (A) (A) (A) (A) (A) (A)
                 (A) (A) (A) (A) (A) (A) (A) (A) (A) (A) (A) (A)
                 (A) (A) (A) (A) (A) (A) (A) (A) (A) (A) (A) (A)
                 (A) (A) (A) (A) (A) (A) (A) (A) (A) (A) (A) (A)
                 (A) (A) (A) (A) (A) (A) (A) (A) (A) (A) (A) (A)
                 (A) (A) (A) (A) (A) (A) (A) (A) (A) (A) (A) (A)
                 (A) (A) (A) (A) (A) (A) (A) (A) (A) (A) (A) (A)
                 (A) (A) (A) (A) (A) (A) (A) (A) (A) (A) (A) (A)
                 (A) (A) (A) (A) (A) (A) (A) (A) (A) (A) (A) (A)
                 (A) (A) (A) (A) (A) (A) (A) (A) (A) (A) (A) (A)
                 (A) (A) (A) (A) (A) (A) (A) (A) (A) (A) (A) (A)
                 (A) (A) (A) (A) (A) (A) (A) (A) (A) (A) (A) (A)
                 (A) (A) (A) (A) (A) (A) (A) (A) (A) (A) (A) (A)
                 (A) (A) (A) (A) (A) (A) (A) (A) (A) (A) (A) (A)
                 (A) (A) (A) (A) (A) (A) (A) (A) (A) (A) (A) (A)
                 (A) (A) (A) (A) (A) (A) (A) (A) (A) (A) (A) (A)
                 (A) (A) (A) (A) (A) (A) (A) (A) (A) (A) (A) (A)
                 (A) (A) (A) (A) (A) (A) (A) (A) (A) (A) (A) (A)
                 (A) (A) (A) (A) (A) (A) (A) (A) (A) (A) (A) (A)
                 (A) (A) (A) (A) (A) (A) (A) (A) (A) (A) (A) (A)
                 (A) (A) (A) (A) (A) (A) (A) (A) (A) (A) (A) (A)
                 (A) (A) (A) (A) (A) (A) (A) (A) (A) (A) (A) (A)
                 (A) (A) (A) (A) (A) (A) (A) (A) (A) (A) (A) (A)
                 (A) (A) (A) (A) (A) (A) (A) (A) (A) (A) (A) (A)
                 (A) (A) (A) (A) (A) (A) (A) (A) (A) (A) (A) (A)
                 (A) (A) (A) (A) (A) (A) (A) (A) (A) (A) (A) (A)
                 (A) (A) (A) (A) (A) (A) (A) (A) (A) (A) (A) (A)
                 (A) (A) (A) (A) (A) (A) (A) (A) (A) (A) (A) (A)
                 (A) (A) (A) (A) (A) (A) (A) (A) (A) (A) (A) (A)
                 (A) (A) (A) (A) (A) (A) (A) (A) (A) (A) (A) (A)
                 (A) (A) (A) (A) (A) (A) (A) (A) (A) (A) (A) (A)
                 (A) (A) (A) (A) (A) (A) (A) (A) (A) (A) (A) (A)
                 (A) (A) (A) (A) (A) (A) (A) (A) (A) (A) (A) (A)
                 (A) (A) (A) (A) (A) (A) (A) (A) (A) (A) (A) (A)
                 (A) (A) (A) (A) (A) (A) (A) (A) (A) (A) (A) (A)
                 (A) (A) (A) (A) (A) (A) (A) (A) (A) (A) (A) (A)
                 (A) (A) (A) (A) (A) (A) (A) (A) (A) (A) (A) (A)
                 (A) (A) (A) (A) (A) (A) (A) (A) (A) (A) (A) (A)
                 (A) (A) (A) (A) (A) (A) (A) (A) (A) (A) (A) (A)
                 (A) (A) (A) (A) (A) (A) (A) (A) (A) (A) (A) (A)
                 (A) (A) (A) (A) (A) (A) (A) (A) (A) (A) (A) (A)
                 (A) (A) (A) (A) (A) (A) (A) (A) (A) (A) (A) (A)
                 (A) (A) (A) (A) (A) (A) (A) (A) (A) (A) (A) (A)
                 (A) (A) (A) (A) (A) (A) (A) (A) (A) (A) (A) (A)
                 (A) (A) (A) (A) (A) (A) (A) (A) (A) (A) (A) (A)
                 (A) (A) (A) (A) (A) (A) (A) (A) (A) (A) (A) (A)
                 (A) (A) (A) (A) (A) (A) (A) (A) (A) (A) (A) (A)
                 (A) (A) (A) (A) (A) (A) (A) (A) (A) (A) (A) (A)
                 (A) (A) (A) (A) (A) (A) (A) (A) (A) (A) (A) (A)
                 (A) (A) (A) (A) (A) (A) (A) (A) (A) (A) (A) (A)
                 (A) (A) (A) (A) (A) (A) (A) (A) (A) (A) (A) (A)
                 (A) (A) (A) (A) (A) (A) (A) (A) (A) (A) (A) (A)
                 (A) (A) (A) (A) (A) (A) (A) (A) (A) (A) (A) (A)
                 (A) (A) (A) (A) (A) (A) (A) (A) (A) (A) (A) (A)
                 (A) (A) (A) (A) (A) (A) (A) (A) (A) (A) (A) (A)
                 (A) (A) (A) (A) (A) (A) (A) (A) (A) (A) (A) (A)
                 (A) (A) (A) (A) (A) (A) (A) (A) (A) (A) (A) (A)
                 (A) (A) (A) (A) (A) (A) (A) (A) (A) (A) (A) (A)
                 (A) (A) (A) (A) (A) (A) (A) (A) (A) (A) (A) (A)
                 (A) (A) (A) (A) (A) (A) (A) (A) (A) (A) (A) (A)
                 (A) (A) (A) (A) (A) (A) (A) (A) (A) (A) (A) (A)
                 (A) (A) (A) (A) (A) (A) (A) (A) (A) (A) (A) (A)
                 (A) (A) (A) (A) (A) (A) (A) (A) (A) (A) (A) (A)
                 (A) (A) (A) (A) (A) (A) (A) (A) (A) (A) (A) (A)
                 (A) (A) (A) (A) (A) (A) (A) (A) (A) (A) (A) (A)
                 (A) (A) (A) (A) (A) (A) (A) (A) (A) (A) (A) (A)
                 (A) (A) (A) (A) (A) (A) (A) (A) (A) (A) (A) (A)
                 (A) (A) (A) (A) (A) (A) (A) (A) (A) (A) (A) (A)
                 (A) (A) (A) (A) (A) (A) (A) (A) (A) (A) (A) (A)
                 (A) (A) (A) (A) (A) (A) (A) (A) (A) (A) (A) (A)
                 (A) (A) (A) (A) (A) (A) (A) (A) (A) (A) (A) (A)
                 (A) (A) (A) (A) (A) (A) (A) (A) (A) (A) (A) (A)
                 (A) (A) (A) (A) (A) (A) (A) (A) (A) (A) (A) (A)
                 (A) (A) (A) (A) (A) (A) (A) (A) (A) (A) (A) (A)
                 (A) (A) (A) (A) (A) (A) (A) (A) (A) (A) (A) (A)
                 (A) (A) (A) (A) (A) (A) (A) (A) (A) (A) (A) (A)
                 (A) (A) (A) (A) (A) (A) (A) (A) (A) (A) (A) (A)
                 (A) (A) (A) (A) (A) (A) (A) (A) (A) (A) (A) (A)
                 (A) (A) (A) (A) (A) (A) (A) (A) (A) (A) (A) (A)
                 (A) (A) (A) (A) (A) (A) (A) (A) (A) (A) (A) (A)
                 (A) (A) (A) (A) (A) (A) (A) (A) (A) (A) (A) (A)
                 (A) (A) (A) (A) (A) (A) (A) (A) (A) (A) (A) (A)
                 (A) (A) (A) (A) (A) (A) (A) (A) (A) (A) (A) (A)
                 (A) (A) (A) (A) (A) (A) (A) (A) (A) (A) (A) (A)
                 (A) (A) (A) (A) (A) (A) (A) (A) (A) (A) (A) (A)
                 (A) (A) (A) (A) (A) (A) (A) (A) (A) (A) (A) (A)
                 (A) (A) (A) (A) (A) (A) (A) (A) (A) (A) (A) (A)
                 (A) (A) (A) (A) (A) (A) (A) (A) (A) (A) (A) (A)
                 (A) (A) (A) (A) (A) (A) (A) (A) (A) (A) (A) (A)
                 (A) (A) (A) (A) (A) (A) (A) (A) (A) (A) (A) (A)
                 (A) (A) (A) (A) (A) (A) (A) (A) (A) (A) (A) (A)
                 (A) (A) (A) (A) (A) (A) (A) (A) (A) (A) (A) (A)
                 (A) (A) (A) (A) (A) (A) (A) (A) (A) (A) (A) (A)
                 (A) (A) (A) (A) (A) (A) (A) (A) (A) (A) (A) (A)
                 (A) (A) (A) (A) (A) (A) (A) (A) (A) (A) (A) (A)
                 (A) (A) (A) (A) (A) (A) (A) (A) (A) (A) (A) (A)
                 (A) (A) (A) (A) (A) (A) (A) (A) (A) (A) (A) (A)
                 (A) (A) (A) (A) (A) (A) (A) (A) (A) (A) (A) (A)
                 (A) (A) (A) (A) (A) (A) (A) (A) (A) (A) (A) (A)
                 (A) (A) (A) (A) (A) (A) (A) (A) (A) (A) (A) (A)
                 (A) (A) (A) (A) (A) (A) (A) (A) (A) (A) (A) (A)
                 (A) (A) (A) (A) (A) (A) (A) (A) (A) (A) (A) (A)
                 (A) (A) (A) (A) (A) (A) (A) (A) (A) (A) (A) (A)
                 (A) (A) (A) (A) (A) (A) (A) (A) (A) (A) (A) (A)
                 (A) (A) (A) (A) (A) (A) (A) (A) (A) (A) (A) (A)
                 (A) (A) (A) (A) (A) (A) (A) (A) (A) (A) (A) (A)
                 (A) (A) (A) (A) (A) (A) (A) (A) (A) (A) (A) (A)
                 (A) (A) (A) (A) (A) (A) (A) (A) (A) (A) (A) (A)
                 (A) (A) (A) (A) (A) (A) (A) (A) (A) (A) (A) (A)
                 (A) (A) (A) (A) (A) (A) (A) (A) (A) (A) (A) (A)
                 (A) (A) (A) (A) (A) (A) (A) (A) (A) (A) (A) (A)
                 (A) (A) (A) (A) (A) (A) (A) (A) (A) (A) (A) (A)
                 (A) (A) (A) (A) (A) (A) (A) (A) (A) (A) (A) (A)
                 (A) (A) (A) (A) (A) (A) (A) (A) (A) (A) (A) (A)
                 (A) (A) (A) (A) (A) (A) (A) (A) (A) (A) (A) (A)
                 (A) (A) (A) (A) (A) (A) (A) (A) (A) (A) (A) (A)
                 (A) (A) (A) (A) (A) (A) (A) (A) (A) (A) (A) (A)
                 (A) (A) (A) (A) (A) (A) (A) (A) (A) (A) (A) (A)
                 (A) (A) (A) (A) (A) (A) (A) (A) (A) (A) (A) (A)
                 (A) (A) (A) (A) (A) (A) (A) (A) (A) (A) (A) (A)
                 (A) (A) (A) (A) (A) (A) (A) (A) (A) (A) (A) (A)
                 (A) (A) (A) (A) (A) (A) (A) (A) (A) (A) (A) (A)
                 (A) (A) (A) (A) (A) (A) (A) (A) (A) (A) (A) (A)
                 (A) (A) (A) (A) (A) (A) (A) (A) (A) (A) (A) (A)
                 (A) (A) (A) (A) (A) (A) (A) (A) (A) (A) (A) (A)
                 (A) (A) (A) (A) (A) (A) (A) (A) (A) (A) (A) (A)
                 (A) (A) (A) (A) (A) (A) (A) (A) (A) (A) (A) (A)
                 (A) (A) (A) (A) (A) (A) (A) (A) (A) (A) (A) (A)
                 (A) (A) (A) (A) (A) (A) (A) (A) (A) (A) (A) (A)
                 (A) (A) (A) (A) (A) (A) (A) (A) (A) (A) (A) (A)
                 (A) (A) (A) (A) (A) (A) (A) (A) (A) (A) (A) (A)
                 (A) (A) (A) (A) (A) (A) (A) (A) (A) (A) (A) (A)
                 (A) (A) (A) (A) (A) (A) (A) (A) (A) (A) (A) (A)
                 (A) (A) (A) (A) (A) (A) (A) (A) (A) (A) (A) (A)
                 (A) (A) (A) (A) (A) (A) (A) (A) (A) (A) (A) (A)
                 (A) (A) (A) (A) (A) (A) (A) (A) (A) (A) (A) (A)
                 (A) (A) (A) (A) (A) (A)
 Beta  Orbitals:
       Occupied  (A) (A) (A) (A) (A) (A) (A) (A) (A) (A) (A) (A)
                 (A) (A) (A) (A) (A) (A) (A) (A) (A) (A) (A) (A)
                 (A) (A) (A) (A) (A) (A) (A) (A) (A) (A) (A) (A)
                 (A) (A) (A) (A) (A) (A) (A) (A) (A) (A) (A) (A)
                 (A) (A) (A) (A) (A) (A) (A) (A) (A) (A) (A) (A)
                 (A) (A) (A) (A) (A) (A) (A) (A) (A) (A) (A) (A)
                 (A) (A) (A) (A) (A) (A) (A) (A) (A) (A) (A) (A)
                 (A) (A) (A) (A) (A) (A) (A) (A) (A) (A) (A) (A)
                 (A) (A) (A) (A) (A) (A) (A) (A) (A) (A) (A) (A)
                 (A) (A) (A) (A) (A) (A) (A) (A) (A) (A) (A) (A)
                 (A) (A) (A) (A) (A) (A) (A) (A) (A) (A) (A) (A)
                 (A) (A) (A) (A) (A) (A) (A) (A) (A) (A) (A) (A)
                 (A) (A) (A) (A) (A) (A) (A) (A) (A) (A) (A) (A)
                 (A) (A) (A) (A) (A) (A) (A) (A) (A) (A) (A) (A)
                 (A) (A) (A) (A) (A) (A) (A) (A) (A) (A) (A) (A)
                 (A) (A) (A) (A) (A) (A) (A) (A) (A) (A) (A) (A)
                 (A) (A) (A) (A) (A) (A) (A) (A) (A) (A) (A) (A)
       Virtual   (A) (A) (A) (A) (A) (A) (A) (A) (A) (A) (A) (A)
                 (A) (A) (A) (A) (A) (A) (A) (A) (A) (A) (A) (A)
                 (A) (A) (A) (A) (A) (A) (A) (A) (A) (A) (A) (A)
                 (A) (A) (A) (A) (A) (A) (A) (A) (A) (A) (A) (A)
                 (A) (A) (A) (A) (A) (A) (A) (A) (A) (A) (A) (A)
                 (A) (A) (A) (A) (A) (A) (A) (A) (A) (A) (A) (A)
                 (A) (A) (A) (A) (A) (A) (A) (A) (A) (A) (A) (A)
                 (A) (A) (A) (A) (A) (A) (A) (A) (A) (A) (A) (A)
                 (A) (A) (A) (A) (A) (A) (A) (A) (A) (A) (A) (A)
                 (A) (A) (A) (A) (A) (A) (A) (A) (A) (A) (A) (A)
                 (A) (A) (A) (A) (A) (A) (A) (A) (A) (A) (A) (A)
                 (A) (A) (A) (A) (A) (A) (A) (A) (A) (A) (A) (A)
                 (A) (A) (A) (A) (A) (A) (A) (A) (A) (A) (A) (A)
                 (A) (A) (A) (A) (A) (A) (A) (A) (A) (A) (A) (A)
                 (A) (A) (A) (A) (A) (A) (A) (A) (A) (A) (A) (A)
                 (A) (A) (A) (A) (A) (A) (A) (A) (A) (A) (A) (A)
                 (A) (A) (A) (A) (A) (A) (A) (A) (A) (A) (A) (A)
                 (A) (A) (A) (A) (A) (A) (A) (A) (A) (A) (A) (A)
                 (A) (A) (A) (A) (A) (A) (A) (A) (A) (A) (A) (A)
                 (A) (A) (A) (A) (A) (A) (A) (A) (A) (A) (A) (A)
                 (A) (A) (A) (A) (A) (A) (A) (A) (A) (A) (A) (A)
                 (A) (A) (A) (A) (A) (A) (A) (A) (A) (A) (A) (A)
                 (A) (A) (A) (A) (A) (A) (A) (A) (A) (A) (A) (A)
                 (A) (A) (A) (A) (A) (A) (A) (A) (A) (A) (A) (A)
                 (A) (A) (A) (A) (A) (A) (A) (A) (A) (A) (A) (A)
                 (A) (A) (A) (A) (A) (A) (A) (A) (A) (A) (A) (A)
                 (A) (A) (A) (A) (A) (A) (A) (A) (A) (A) (A) (A)
                 (A) (A) (A) (A) (A) (A) (A) (A) (A) (A) (A) (A)
                 (A) (A) (A) (A) (A) (A) (A) (A) (A) (A) (A) (A)
                 (A) (A) (A) (A) (A) (A) (A) (A) (A) (A) (A) (A)
                 (A) (A) (A) (A) (A) (A) (A) (A) (A) (A) (A) (A)
                 (A) (A) (A) (A) (A) (A) (A) (A) (A) (A) (A) (A)
                 (A) (A) (A) (A) (A) (A) (A) (A) (A) (A) (A) (A)
                 (A) (A) (A) (A) (A) (A) (A) (A) (A) (A) (A) (A)
                 (A) (A) (A) (A) (A) (A) (A) (A) (A) (A) (A) (A)
                 (A) (A) (A) (A) (A) (A) (A) (A) (A) (A) (A) (A)
                 (A) (A) (A) (A) (A) (A) (A) (A) (A) (A) (A) (A)
                 (A) (A) (A) (A) (A) (A) (A) (A) (A) (A) (A) (A)
                 (A) (A) (A) (A) (A) (A) (A) (A) (A) (A) (A) (A)
                 (A) (A) (A) (A) (A) (A) (A) (A) (A) (A) (A) (A)
                 (A) (A) (A) (A) (A) (A) (A) (A) (A) (A) (A) (A)
                 (A) (A) (A) (A) (A) (A) (A) (A) (A) (A) (A) (A)
                 (A) (A) (A) (A) (A) (A) (A) (A) (A) (A) (A) (A)
                 (A) (A) (A) (A) (A) (A) (A) (A) (A) (A) (A) (A)
                 (A) (A) (A) (A) (A) (A) (A) (A) (A) (A) (A) (A)
                 (A) (A) (A) (A) (A) (A) (A) (A) (A) (A) (A) (A)
                 (A) (A) (A) (A) (A) (A) (A) (A) (A) (A) (A) (A)
                 (A) (A) (A) (A) (A) (A) (A) (A) (A) (A) (A) (A)
                 (A) (A) (A) (A) (A) (A) (A) (A) (A) (A) (A) (A)
                 (A) (A) (A) (A) (A) (A) (A) (A) (A) (A) (A) (A)
                 (A) (A) (A) (A) (A) (A) (A) (A) (A) (A) (A) (A)
                 (A) (A) (A) (A) (A) (A) (A) (A) (A) (A) (A) (A)
                 (A) (A) (A) (A) (A) (A) (A) (A) (A) (A) (A) (A)
                 (A) (A) (A) (A) (A) (A) (A) (A) (A) (A) (A) (A)
                 (A) (A) (A) (A) (A) (A) (A) (A) (A) (A) (A) (A)
                 (A) (A) (A) (A) (A) (A) (A) (A) (A) (A) (A) (A)
                 (A) (A) (A) (A) (A) (A) (A) (A) (A) (A) (A) (A)
                 (A) (A) (A) (A) (A) (A) (A) (A) (A) (A) (A) (A)
                 (A) (A) (A) (A) (A) (A) (A) (A) (A) (A) (A) (A)
                 (A) (A) (A) (A) (A) (A) (A) (A) (A) (A) (A) (A)
                 (A) (A) (A) (A) (A) (A) (A) (A) (A) (A) (A) (A)
                 (A) (A) (A) (A) (A) (A) (A) (A) (A) (A) (A) (A)
                 (A) (A) (A) (A) (A) (A) (A) (A) (A) (A) (A) (A)
                 (A) (A) (A) (A) (A) (A) (A) (A) (A) (A) (A) (A)
                 (A) (A) (A) (A) (A) (A) (A) (A) (A) (A) (A) (A)
                 (A) (A) (A) (A) (A) (A) (A) (A) (A) (A) (A) (A)
                 (A) (A) (A) (A) (A) (A) (A) (A) (A) (A) (A) (A)
                 (A) (A) (A) (A) (A) (A) (A) (A) (A) (A) (A) (A)
                 (A) (A) (A) (A) (A) (A) (A) (A) (A) (A) (A) (A)
                 (A) (A) (A) (A) (A) (A) (A) (A) (A) (A) (A) (A)
                 (A) (A) (A) (A) (A) (A) (A) (A) (A) (A) (A) (A)
                 (A) (A) (A) (A) (A) (A) (A) (A) (A) (A) (A) (A)
                 (A) (A) (A) (A) (A) (A) (A) (A) (A) (A) (A) (A)
                 (A) (A) (A) (A) (A) (A) (A) (A) (A) (A) (A) (A)
                 (A) (A) (A) (A) (A) (A) (A) (A) (A) (A) (A) (A)
                 (A) (A) (A) (A) (A) (A) (A) (A) (A) (A) (A) (A)
                 (A) (A) (A) (A) (A) (A) (A) (A) (A) (A) (A) (A)
                 (A) (A) (A) (A) (A) (A) (A) (A) (A) (A) (A) (A)
                 (A) (A) (A) (A) (A) (A) (A) (A) (A) (A) (A) (A)
                 (A) (A) (A) (A) (A) (A) (A) (A) (A) (A) (A) (A)
                 (A) (A) (A) (A) (A) (A) (A) (A) (A) (A) (A) (A)
                 (A) (A) (A) (A) (A) (A) (A) (A) (A) (A) (A) (A)
                 (A) (A) (A) (A) (A) (A) (A) (A) (A) (A) (A) (A)
                 (A) (A) (A) (A) (A) (A) (A) (A) (A) (A) (A) (A)
                 (A) (A) (A) (A) (A) (A) (A) (A) (A) (A) (A) (A)
                 (A) (A) (A) (A) (A) (A) (A) (A) (A) (A) (A) (A)
                 (A) (A) (A) (A) (A) (A) (A) (A) (A) (A) (A) (A)
                 (A) (A) (A) (A) (A) (A) (A) (A) (A) (A) (A) (A)
                 (A) (A) (A) (A) (A) (A) (A) (A) (A) (A) (A) (A)
                 (A) (A) (A) (A) (A) (A) (A) (A) (A) (A) (A) (A)
                 (A) (A) (A) (A) (A) (A) (A) (A) (A) (A) (A) (A)
                 (A) (A) (A) (A) (A) (A) (A) (A) (A) (A) (A) (A)
                 (A) (A) (A) (A) (A) (A) (A) (A) (A) (A) (A) (A)
                 (A) (A) (A) (A) (A) (A) (A) (A) (A) (A) (A) (A)
                 (A) (A) (A) (A) (A) (A) (A) (A) (A) (A) (A) (A)
                 (A) (A) (A) (A) (A) (A) (A) (A) (A) (A) (A) (A)
                 (A) (A) (A) (A) (A) (A) (A) (A) (A) (A) (A) (A)
                 (A) (A) (A) (A) (A) (A) (A) (A) (A) (A) (A) (A)
                 (A) (A) (A) (A) (A) (A) (A) (A) (A) (A) (A) (A)
                 (A) (A) (A) (A) (A) (A) (A) (A) (A) (A) (A) (A)
                 (A) (A) (A) (A) (A) (A) (A) (A) (A) (A) (A) (A)
                 (A) (A) (A) (A) (A) (A) (A) (A) (A) (A) (A) (A)
                 (A) (A) (A) (A) (A) (A) (A) (A) (A) (A) (A) (A)
                 (A) (A) (A) (A) (A) (A) (A) (A) (A) (A) (A) (A)
                 (A) (A) (A) (A) (A) (A) (A) (A) (A) (A) (A) (A)
                 (A) (A) (A) (A) (A) (A) (A) (A) (A) (A) (A) (A)
                 (A) (A) (A) (A) (A) (A) (A) (A) (A) (A) (A) (A)
                 (A) (A) (A) (A) (A) (A) (A) (A) (A) (A) (A) (A)
                 (A) (A) (A) (A) (A) (A) (A) (A) (A) (A) (A) (A)
                 (A) (A) (A) (A) (A) (A) (A) (A) (A) (A) (A) (A)
                 (A) (A) (A) (A) (A) (A) (A) (A) (A) (A) (A) (A)
                 (A) (A) (A) (A) (A) (A) (A) (A) (A) (A) (A) (A)
                 (A) (A) (A) (A) (A) (A) (A) (A) (A) (A) (A) (A)
                 (A) (A) (A) (A) (A) (A) (A) (A) (A) (A) (A) (A)
                 (A) (A) (A) (A) (A) (A) (A) (A) (A) (A) (A) (A)
                 (A) (A) (A) (A) (A) (A) (A) (A) (A) (A) (A) (A)
                 (A) (A) (A) (A) (A) (A) (A) (A) (A) (A) (A) (A)
                 (A) (A) (A) (A) (A) (A) (A) (A) (A) (A) (A) (A)
                 (A) (A) (A) (A) (A) (A) (A) (A) (A) (A) (A) (A)
                 (A) (A) (A) (A) (A) (A) (A) (A) (A) (A) (A) (A)
                 (A) (A) (A) (A) (A) (A) (A) (A) (A) (A) (A) (A)
                 (A) (A) (A) (A) (A) (A) (A) (A) (A) (A) (A) (A)
                 (A) (A) (A) (A) (A) (A) (A) (A) (A) (A) (A) (A)
                 (A) (A) (A) (A) (A) (A) (A) (A) (A) (A) (A) (A)
                 (A) (A) (A) (A) (A) (A) (A) (A) (A) (A) (A) (A)
                 (A) (A) (A) (A) (A) (A) (A) (A) (A) (A) (A) (A)
                 (A) (A) (A) (A) (A) (A) (A) (A) (A) (A) (A) (A)
                 (A) (A) (A) (A) (A) (A) (A) (A) (A) (A) (A) (A)
                 (A) (A) (A) (A) (A) (A) (A) (A) (A) (A) (A) (A)
                 (A) (A) (A) (A) (A) (A) (A) (A) (A) (A) (A) (A)
                 (A) (A) (A) (A) (A) (A) (A) (A) (A) (A) (A) (A)
                 (A) (A) (A) (A) (A) (A) (A) (A) (A) (A) (A) (A)
                 (A) (A) (A) (A) (A) (A) (A) (A) (A) (A) (A) (A)
                 (A) (A) (A) (A) (A) (A) (A) (A) (A) (A) (A) (A)
                 (A) (A) (A) (A) (A) (A) (A) (A) (A) (A) (A) (A)
                 (A) (A) (A) (A) (A) (A) (A) (A) (A) (A) (A) (A)
                 (A) (A) (A) (A) (A) (A) (A) (A) (A) (A) (A) (A)
                 (A) (A) (A) (A) (A) (A) (A) (A) (A) (A) (A) (A)
                 (A) (A) (A) (A) (A) (A) (A) (A) (A) (A) (A) (A)
                 (A) (A) (A) (A) (A) (A) (A) (A) (A) (A) (A) (A)
                 (A) (A) (A) (A) (A) (A) (A) (A) (A) (A) (A) (A)
                 (A) (A) (A) (A) (A) (A) (A) (A) (A) (A) (A) (A)
                 (A) (A) (A) (A) (A) (A) (A) (A) (A) (A) (A) (A)
                 (A) (A) (A) (A) (A) (A) (A) (A) (A) (A) (A) (A)
                 (A) (A) (A) (A) (A) (A) (A) (A) (A) (A) (A) (A)
                 (A) (A) (A) (A) (A) (A) (A)
 The electronic state is 2-A.
 Alpha  occ. eigenvalues -- -256.50297 -89.13513 -30.29038 -26.12371 -26.11574
 Alpha  occ. eigenvalues --  -26.10075 -19.33868 -19.33022 -19.25294 -19.24964
 Alpha  occ. eigenvalues --  -14.55122 -14.51251 -14.48821 -14.48560 -14.48551
 Alpha  occ. eigenvalues --  -14.48445 -10.42761 -10.42742 -10.38908 -10.36139
 Alpha  occ. eigenvalues --  -10.35454 -10.35343 -10.35335 -10.35252 -10.35138
 Alpha  occ. eigenvalues --  -10.35132 -10.35108 -10.34937 -10.34672 -10.34011
 Alpha  occ. eigenvalues --  -10.32523 -10.32306 -10.32200 -10.32190 -10.32185
 Alpha  occ. eigenvalues --  -10.32151 -10.32145 -10.32072 -10.32004 -10.31977
 Alpha  occ. eigenvalues --  -10.31919 -10.31912 -10.31785 -10.31767 -10.31701
 Alpha  occ. eigenvalues --  -10.31352 -10.30783 -10.30747 -10.30746 -10.30515
 Alpha  occ. eigenvalues --  -10.29944 -10.29938 -10.29921 -10.29805 -10.29405
 Alpha  occ. eigenvalues --  -10.27748 -10.27668  -8.11390  -6.05017  -6.04744
 Alpha  occ. eigenvalues --   -6.04246  -3.64761  -2.42588  -2.40783  -2.37532
 Alpha  occ. eigenvalues --   -1.23512  -1.23509  -1.18757  -1.09442  -1.08726
 Alpha  occ. eigenvalues --   -1.08670  -1.07779  -1.07441  -1.06579  -1.03061
 Alpha  occ. eigenvalues --   -0.94549  -0.94064  -0.92760  -0.92495  -0.92312
 Alpha  occ. eigenvalues --   -0.92157  -0.91635  -0.91181  -0.90909  -0.88377
 Alpha  occ. eigenvalues --   -0.88004  -0.87643  -0.87166  -0.87027  -0.85978
 Alpha  occ. eigenvalues --   -0.83867  -0.83335  -0.81844  -0.81310  -0.80742
 Alpha  occ. eigenvalues --   -0.79091  -0.78506  -0.78165  -0.76759  -0.76196
 Alpha  occ. eigenvalues --   -0.75981  -0.75834  -0.73638  -0.73410  -0.72833
 Alpha  occ. eigenvalues --   -0.71344  -0.70983  -0.69662  -0.69224  -0.68418
 Alpha  occ. eigenvalues --   -0.67957  -0.65670  -0.64783  -0.64325  -0.63399
 Alpha  occ. eigenvalues --   -0.62300  -0.62116  -0.61588  -0.59882  -0.59845
 Alpha  occ. eigenvalues --   -0.59503  -0.59064  -0.58989  -0.58949  -0.58771
 Alpha  occ. eigenvalues --   -0.58525  -0.58362  -0.57861  -0.57327  -0.56717
 Alpha  occ. eigenvalues --   -0.56196  -0.56020  -0.55525  -0.55141  -0.54953
 Alpha  occ. eigenvalues --   -0.54660  -0.54458  -0.54216  -0.54126  -0.53760
 Alpha  occ. eigenvalues --   -0.53704  -0.53633  -0.53362  -0.53056  -0.52974
 Alpha  occ. eigenvalues --   -0.52946  -0.52558  -0.52382  -0.52099  -0.51841
 Alpha  occ. eigenvalues --   -0.51611  -0.51286  -0.51017  -0.50897  -0.50636
 Alpha  occ. eigenvalues --   -0.50233  -0.49888  -0.49719  -0.49533  -0.49350
 Alpha  occ. eigenvalues --   -0.49080  -0.48799  -0.48638  -0.48404  -0.48276
 Alpha  occ. eigenvalues --   -0.48075  -0.47656  -0.47496  -0.47322  -0.46951
 Alpha  occ. eigenvalues --   -0.46752  -0.46659  -0.46396  -0.46022  -0.45613
 Alpha  occ. eigenvalues --   -0.45382  -0.45117  -0.45021  -0.44465  -0.44011
 Alpha  occ. eigenvalues --   -0.43782  -0.43447  -0.43147  -0.42769  -0.42610
 Alpha  occ. eigenvalues --   -0.42488  -0.41938  -0.41704  -0.40283  -0.39785
 Alpha  occ. eigenvalues --   -0.39225  -0.38921  -0.38158  -0.38015  -0.35821
 Alpha  occ. eigenvalues --   -0.35462  -0.35166  -0.34855  -0.34148  -0.33981
 Alpha  occ. eigenvalues --   -0.33542  -0.33469  -0.29751  -0.29234  -0.28767
 Alpha virt. eigenvalues --   -0.17764  -0.17577  -0.15857  -0.13635  -0.11947
 Alpha virt. eigenvalues --   -0.10705  -0.08376  -0.08304  -0.07659  -0.06942
 Alpha virt. eigenvalues --   -0.06672  -0.05569  -0.05385  -0.05006  -0.04710
 Alpha virt. eigenvalues --   -0.04014  -0.03470  -0.03238  -0.03015  -0.02789
 Alpha virt. eigenvalues --   -0.02617  -0.02453  -0.02243  -0.01910  -0.01707
 Alpha virt. eigenvalues --   -0.01131  -0.00937  -0.00867  -0.00554  -0.00311
 Alpha virt. eigenvalues --   -0.00088   0.00421   0.00681   0.01092   0.01157
 Alpha virt. eigenvalues --    0.01633   0.01776   0.02039   0.02338   0.02417
 Alpha virt. eigenvalues --    0.02483   0.02836   0.03111   0.03430   0.03458
 Alpha virt. eigenvalues --    0.03825   0.04019   0.04279   0.04370   0.04461
 Alpha virt. eigenvalues --    0.04592   0.04992   0.05162   0.05308   0.05448
 Alpha virt. eigenvalues --    0.05633   0.05977   0.06068   0.06225   0.06319
 Alpha virt. eigenvalues --    0.06750   0.06937   0.07127   0.07216   0.07326
 Alpha virt. eigenvalues --    0.07495   0.07630   0.07864   0.08038   0.08075
 Alpha virt. eigenvalues --    0.08338   0.08578   0.08910   0.09262   0.09387
 Alpha virt. eigenvalues --    0.09478   0.09634   0.10245   0.10394   0.10504
 Alpha virt. eigenvalues --    0.10715   0.10777   0.11064   0.11254   0.11522
 Alpha virt. eigenvalues --    0.11678   0.11847   0.12013   0.12346   0.12542
 Alpha virt. eigenvalues --    0.12736   0.13047   0.13100   0.13659   0.13767
 Alpha virt. eigenvalues --    0.13878   0.14089   0.14294   0.14436   0.14532
 Alpha virt. eigenvalues --    0.14900   0.14933   0.15134   0.15402   0.15536
 Alpha virt. eigenvalues --    0.15608   0.15728   0.15836   0.16013   0.16412
 Alpha virt. eigenvalues --    0.16634   0.16772   0.16829   0.17054   0.17472
 Alpha virt. eigenvalues --    0.17632   0.18039   0.18076   0.18346   0.18576
 Alpha virt. eigenvalues --    0.18803   0.19017   0.19168   0.19333   0.19510
 Alpha virt. eigenvalues --    0.19852   0.20002   0.20391   0.20534   0.20629
 Alpha virt. eigenvalues --    0.20794   0.21069   0.21458   0.21574   0.21708
 Alpha virt. eigenvalues --    0.22134   0.22389   0.22610   0.22826   0.23003
 Alpha virt. eigenvalues --    0.23249   0.23378   0.23454   0.23808   0.23920
 Alpha virt. eigenvalues --    0.24144   0.24382   0.24414   0.24579   0.24898
 Alpha virt. eigenvalues --    0.25058   0.25425   0.25566   0.26021   0.26307
 Alpha virt. eigenvalues --    0.26545   0.26666   0.27023   0.27232   0.27369
 Alpha virt. eigenvalues --    0.27398   0.27843   0.28069   0.28300   0.28444
 Alpha virt. eigenvalues --    0.28691   0.29011   0.29262   0.29473   0.29975
 Alpha virt. eigenvalues --    0.30146   0.30342   0.30500   0.30529   0.30788
 Alpha virt. eigenvalues --    0.30941   0.31149   0.31278   0.31544   0.31660
 Alpha virt. eigenvalues --    0.31777   0.32033   0.32208   0.32487   0.32756
 Alpha virt. eigenvalues --    0.32853   0.32929   0.33291   0.33492   0.33605
 Alpha virt. eigenvalues --    0.33798   0.33931   0.34066   0.34279   0.34579
 Alpha virt. eigenvalues --    0.34690   0.34914   0.34998   0.35234   0.35383
 Alpha virt. eigenvalues --    0.35717   0.35851   0.35959   0.36238   0.36244
 Alpha virt. eigenvalues --    0.36461   0.36823   0.36955   0.37081   0.37114
 Alpha virt. eigenvalues --    0.37228   0.37598   0.37786   0.37937   0.38086
 Alpha virt. eigenvalues --    0.38360   0.38480   0.38636   0.38712   0.38894
 Alpha virt. eigenvalues --    0.39073   0.39169   0.39384   0.39534   0.39620
 Alpha virt. eigenvalues --    0.39750   0.39842   0.40027   0.40234   0.40386
 Alpha virt. eigenvalues --    0.40446   0.40531   0.40767   0.40864   0.40990
 Alpha virt. eigenvalues --    0.41265   0.41455   0.41534   0.41904   0.41964
 Alpha virt. eigenvalues --    0.41999   0.42086   0.42472   0.42666   0.42865
 Alpha virt. eigenvalues --    0.43027   0.43162   0.43305   0.43581   0.43638
 Alpha virt. eigenvalues --    0.44023   0.44140   0.44368   0.44539   0.44726
 Alpha virt. eigenvalues --    0.44745   0.44947   0.45076   0.45240   0.45330
 Alpha virt. eigenvalues --    0.45584   0.45748   0.46201   0.46316   0.46479
 Alpha virt. eigenvalues --    0.46723   0.46834   0.47052   0.47188   0.47232
 Alpha virt. eigenvalues --    0.47525   0.47687   0.47748   0.48010   0.48245
 Alpha virt. eigenvalues --    0.48745   0.48856   0.49014   0.49247   0.49390
 Alpha virt. eigenvalues --    0.49604   0.49890   0.49980   0.50436   0.50492
 Alpha virt. eigenvalues --    0.50628   0.50734   0.51099   0.51278   0.51450
 Alpha virt. eigenvalues --    0.51934   0.52212   0.52360   0.52411   0.52971
 Alpha virt. eigenvalues --    0.53074   0.53187   0.53440   0.53761   0.53828
 Alpha virt. eigenvalues --    0.54129   0.54530   0.55069   0.55124   0.55419
 Alpha virt. eigenvalues --    0.55486   0.55629   0.56035   0.56271   0.56644
 Alpha virt. eigenvalues --    0.56720   0.56914   0.57006   0.57676   0.57788
 Alpha virt. eigenvalues --    0.57920   0.58482   0.58595   0.58662   0.59119
 Alpha virt. eigenvalues --    0.59346   0.59576   0.59618   0.60128   0.60231
 Alpha virt. eigenvalues --    0.60505   0.61028   0.61400   0.61637   0.61770
 Alpha virt. eigenvalues --    0.62109   0.62793   0.63031   0.63112   0.63403
 Alpha virt. eigenvalues --    0.63616   0.64052   0.64177   0.64206   0.65037
 Alpha virt. eigenvalues --    0.65254   0.65304   0.65665   0.66016   0.66253
 Alpha virt. eigenvalues --    0.66283   0.66547   0.66693   0.66993   0.67185
 Alpha virt. eigenvalues --    0.67574   0.67880   0.68146   0.68374   0.68732
 Alpha virt. eigenvalues --    0.69252   0.69413   0.69600   0.69930   0.69992
 Alpha virt. eigenvalues --    0.70319   0.70569   0.70992   0.71145   0.71508
 Alpha virt. eigenvalues --    0.71646   0.71982   0.72254   0.72767   0.72916
 Alpha virt. eigenvalues --    0.73496   0.73666   0.74139   0.74454   0.74749
 Alpha virt. eigenvalues --    0.75114   0.75245   0.75893   0.76159   0.76252
 Alpha virt. eigenvalues --    0.76356   0.77098   0.77165   0.77629   0.77737
 Alpha virt. eigenvalues --    0.78003   0.78356   0.78829   0.79181   0.79243
 Alpha virt. eigenvalues --    0.79395   0.79668   0.80205   0.80306   0.80538
 Alpha virt. eigenvalues --    0.80693   0.81043   0.81254   0.81608   0.81798
 Alpha virt. eigenvalues --    0.81972   0.82304   0.82528   0.83041   0.83228
 Alpha virt. eigenvalues --    0.83316   0.83421   0.83704   0.83837   0.84232
 Alpha virt. eigenvalues --    0.84598   0.84964   0.85314   0.85395   0.85733
 Alpha virt. eigenvalues --    0.85966   0.86303   0.86797   0.87044   0.87232
 Alpha virt. eigenvalues --    0.87377   0.87600   0.87787   0.88003   0.88113
 Alpha virt. eigenvalues --    0.88270   0.89001   0.89040   0.89241   0.89541
 Alpha virt. eigenvalues --    0.89881   0.90394   0.90570   0.90709   0.91224
 Alpha virt. eigenvalues --    0.91577   0.91782   0.92090   0.92400   0.92596
 Alpha virt. eigenvalues --    0.92977   0.93488   0.93736   0.94030   0.94221
 Alpha virt. eigenvalues --    0.94420   0.94579   0.95009   0.95122   0.95225
 Alpha virt. eigenvalues --    0.95655   0.95776   0.96189   0.96546   0.96706
 Alpha virt. eigenvalues --    0.96826   0.97259   0.97374   0.97546   0.98137
 Alpha virt. eigenvalues --    0.98333   0.98843   0.99034   0.99191   0.99555
 Alpha virt. eigenvalues --    0.99771   0.99951   1.00165   1.00444   1.00580
 Alpha virt. eigenvalues --    1.00861   1.01607   1.02065   1.02365   1.02484
 Alpha virt. eigenvalues --    1.02829   1.03116   1.03261   1.03524   1.03835
 Alpha virt. eigenvalues --    1.04280   1.04629   1.04996   1.05338   1.05543
 Alpha virt. eigenvalues --    1.05884   1.06403   1.06597   1.06687   1.06842
 Alpha virt. eigenvalues --    1.07609   1.07865   1.08135   1.08696   1.09034
 Alpha virt. eigenvalues --    1.09256   1.09421   1.09975   1.10179   1.10734
 Alpha virt. eigenvalues --    1.11072   1.11544   1.11722   1.11825   1.12491
 Alpha virt. eigenvalues --    1.12615   1.12919   1.13511   1.13725   1.13998
 Alpha virt. eigenvalues --    1.14266   1.14500   1.14935   1.15429   1.15484
 Alpha virt. eigenvalues --    1.15676   1.16038   1.16172   1.16722   1.16989
 Alpha virt. eigenvalues --    1.17319   1.17426   1.18063   1.18194   1.18747
 Alpha virt. eigenvalues --    1.19013   1.19759   1.20239   1.20548   1.20647
 Alpha virt. eigenvalues --    1.21066   1.21396   1.21976   1.22221   1.22526
 Alpha virt. eigenvalues --    1.23058   1.23142   1.23415   1.23753   1.24179
 Alpha virt. eigenvalues --    1.24486   1.24779   1.24889   1.25305   1.25961
 Alpha virt. eigenvalues --    1.26360   1.26789   1.27027   1.27070   1.27630
 Alpha virt. eigenvalues --    1.28093   1.28533   1.28617   1.29070   1.29570
 Alpha virt. eigenvalues --    1.30377   1.30888   1.31032   1.31182   1.31374
 Alpha virt. eigenvalues --    1.32156   1.32832   1.33638   1.33996   1.34140
 Alpha virt. eigenvalues --    1.34811   1.35246   1.35394   1.35778   1.36160
 Alpha virt. eigenvalues --    1.36613   1.37267   1.37608   1.37692   1.38135
 Alpha virt. eigenvalues --    1.38221   1.38416   1.38933   1.39141   1.39512
 Alpha virt. eigenvalues --    1.40159   1.40281   1.40634   1.40993   1.41357
 Alpha virt. eigenvalues --    1.41512   1.42114   1.42290   1.42395   1.43073
 Alpha virt. eigenvalues --    1.43244   1.43497   1.43593   1.43634   1.43876
 Alpha virt. eigenvalues --    1.44406   1.44703   1.45261   1.45438   1.45734
 Alpha virt. eigenvalues --    1.45870   1.45976   1.46124   1.46235   1.46638
 Alpha virt. eigenvalues --    1.46905   1.47250   1.47605   1.47792   1.48196
 Alpha virt. eigenvalues --    1.48327   1.48429   1.48821   1.49050   1.49295
 Alpha virt. eigenvalues --    1.49469   1.49552   1.49788   1.49948   1.50283
 Alpha virt. eigenvalues --    1.50350   1.50698   1.51010   1.51385   1.51423
 Alpha virt. eigenvalues --    1.51747   1.51931   1.52273   1.52547   1.52858
 Alpha virt. eigenvalues --    1.52935   1.53157   1.53282   1.53445   1.53937
 Alpha virt. eigenvalues --    1.54148   1.54252   1.54540   1.54840   1.55091
 Alpha virt. eigenvalues --    1.55238   1.55638   1.55816   1.55959   1.56332
 Alpha virt. eigenvalues --    1.56448   1.57106   1.57320   1.57382   1.57458
 Alpha virt. eigenvalues --    1.57652   1.57880   1.58346   1.58523   1.58651
 Alpha virt. eigenvalues --    1.59012   1.59442   1.59684   1.59935   1.60507
 Alpha virt. eigenvalues --    1.60598   1.60950   1.61035   1.61328   1.61656
 Alpha virt. eigenvalues --    1.61879   1.62336   1.62587   1.62888   1.63193
 Alpha virt. eigenvalues --    1.63249   1.63592   1.63808   1.64113   1.64274
 Alpha virt. eigenvalues --    1.64831   1.64932   1.65069   1.65451   1.65659
 Alpha virt. eigenvalues --    1.65802   1.66218   1.66727   1.67051   1.67276
 Alpha virt. eigenvalues --    1.67579   1.68144   1.68286   1.68616   1.69327
 Alpha virt. eigenvalues --    1.69807   1.70050   1.70347   1.71046   1.71318
 Alpha virt. eigenvalues --    1.71906   1.72158   1.72210   1.72542   1.72810
 Alpha virt. eigenvalues --    1.73419   1.73789   1.74278   1.74757   1.75143
 Alpha virt. eigenvalues --    1.75401   1.75902   1.76182   1.76218   1.76670
 Alpha virt. eigenvalues --    1.77039   1.77502   1.77799   1.78192   1.78595
 Alpha virt. eigenvalues --    1.78628   1.78974   1.79512   1.80159   1.80442
 Alpha virt. eigenvalues --    1.80853   1.80923   1.81545   1.81875   1.81950
 Alpha virt. eigenvalues --    1.82292   1.82641   1.82933   1.83235   1.83451
 Alpha virt. eigenvalues --    1.83711   1.84076   1.84614   1.84677   1.85429
 Alpha virt. eigenvalues --    1.85864   1.86073   1.86411   1.86956   1.87302
 Alpha virt. eigenvalues --    1.87515   1.87980   1.88243   1.88453   1.88857
 Alpha virt. eigenvalues --    1.88948   1.89056   1.89246   1.89569   1.89833
 Alpha virt. eigenvalues --    1.90207   1.90594   1.91081   1.91459   1.91532
 Alpha virt. eigenvalues --    1.92035   1.92342   1.92817   1.93106   1.93772
 Alpha virt. eigenvalues --    1.93854   1.94542   1.94777   1.94922   1.95221
 Alpha virt. eigenvalues --    1.95819   1.96193   1.96268   1.96626   1.96900
 Alpha virt. eigenvalues --    1.97719   1.97994   1.98135   1.98419   1.98607
 Alpha virt. eigenvalues --    1.98830   1.99377   1.99694   1.99862   1.99954
 Alpha virt. eigenvalues --    2.00364   2.00765   2.00849   2.01503   2.01765
 Alpha virt. eigenvalues --    2.02073   2.02582   2.02959   2.03041   2.03155
 Alpha virt. eigenvalues --    2.03650   2.04132   2.04329   2.04451   2.04800
 Alpha virt. eigenvalues --    2.05673   2.05975   2.06124   2.06235   2.06549
 Alpha virt. eigenvalues --    2.06622   2.06745   2.07177   2.07579   2.08217
 Alpha virt. eigenvalues --    2.08369   2.08676   2.09126   2.09532   2.09752
 Alpha virt. eigenvalues --    2.10156   2.10607   2.10882   2.11023   2.11745
 Alpha virt. eigenvalues --    2.11983   2.12322   2.12867   2.13170   2.13523
 Alpha virt. eigenvalues --    2.13568   2.13666   2.14126   2.14341   2.14712
 Alpha virt. eigenvalues --    2.15080   2.15680   2.16343   2.16571   2.17157
 Alpha virt. eigenvalues --    2.17489   2.17776   2.17879   2.18238   2.18534
 Alpha virt. eigenvalues --    2.18760   2.19414   2.19782   2.20143   2.20220
 Alpha virt. eigenvalues --    2.20490   2.20782   2.21322   2.21529   2.21756
 Alpha virt. eigenvalues --    2.22141   2.22272   2.22541   2.23201   2.23710
 Alpha virt. eigenvalues --    2.24176   2.24415   2.25131   2.25375   2.25493
 Alpha virt. eigenvalues --    2.25796   2.25986   2.26568   2.26715   2.27280
 Alpha virt. eigenvalues --    2.27816   2.27948   2.28386   2.28529   2.28831
 Alpha virt. eigenvalues --    2.29003   2.29359   2.29567   2.29808   2.29995
 Alpha virt. eigenvalues --    2.30312   2.30703   2.31111   2.31507   2.31643
 Alpha virt. eigenvalues --    2.32340   2.32618   2.32774   2.33201   2.33344
 Alpha virt. eigenvalues --    2.33874   2.34555   2.34818   2.35239   2.35470
 Alpha virt. eigenvalues --    2.35885   2.36170   2.36350   2.36674   2.37029
 Alpha virt. eigenvalues --    2.37411   2.37691   2.38131   2.38454   2.38697
 Alpha virt. eigenvalues --    2.39354   2.39497   2.39918   2.40196   2.40571
 Alpha virt. eigenvalues --    2.41005   2.41325   2.41644   2.41971   2.42009
 Alpha virt. eigenvalues --    2.42749   2.42834   2.43589   2.43708   2.44163
 Alpha virt. eigenvalues --    2.44505   2.44889   2.45074   2.45238   2.45518
 Alpha virt. eigenvalues --    2.46116   2.46469   2.46497   2.47405   2.47798
 Alpha virt. eigenvalues --    2.48092   2.48278   2.48620   2.48998   2.49348
 Alpha virt. eigenvalues --    2.49689   2.49959   2.50148   2.50765   2.50786
 Alpha virt. eigenvalues --    2.51202   2.51329   2.51443   2.51809   2.52068
 Alpha virt. eigenvalues --    2.52392   2.52658   2.52888   2.53433   2.53457
 Alpha virt. eigenvalues --    2.53903   2.53945   2.54118   2.54751   2.54844
 Alpha virt. eigenvalues --    2.55221   2.55671   2.55969   2.56241   2.56536
 Alpha virt. eigenvalues --    2.56812   2.57234   2.57403   2.57784   2.58090
 Alpha virt. eigenvalues --    2.58333   2.58965   2.59351   2.59411   2.59698
 Alpha virt. eigenvalues --    2.59834   2.60361   2.60620   2.60774   2.61108
 Alpha virt. eigenvalues --    2.61377   2.61825   2.62036   2.62418   2.62626
 Alpha virt. eigenvalues --    2.63043   2.63455   2.63780   2.64015   2.64109
 Alpha virt. eigenvalues --    2.64422   2.64699   2.65068   2.65366   2.65415
 Alpha virt. eigenvalues --    2.65753   2.66473   2.66746   2.67023   2.67563
 Alpha virt. eigenvalues --    2.67853   2.68072   2.68409   2.68964   2.69117
 Alpha virt. eigenvalues --    2.69415   2.69669   2.69872   2.70256   2.70291
 Alpha virt. eigenvalues --    2.70698   2.70937   2.71402   2.71461   2.72185
 Alpha virt. eigenvalues --    2.72301   2.72552   2.72843   2.73589   2.73869
 Alpha virt. eigenvalues --    2.74098   2.74295   2.74913   2.75150   2.75441
 Alpha virt. eigenvalues --    2.75825   2.75961   2.76561   2.76700   2.77379
 Alpha virt. eigenvalues --    2.77678   2.77937   2.78508   2.78799   2.79022
 Alpha virt. eigenvalues --    2.79790   2.79950   2.80011   2.80782   2.81143
 Alpha virt. eigenvalues --    2.81271   2.81366   2.81806   2.81882   2.82526
 Alpha virt. eigenvalues --    2.82771   2.83058   2.83367   2.83664   2.83974
 Alpha virt. eigenvalues --    2.84303   2.84469   2.84832   2.85144   2.85339
 Alpha virt. eigenvalues --    2.85666   2.86208   2.86309   2.86806   2.86959
 Alpha virt. eigenvalues --    2.87087   2.87141   2.87736   2.88049   2.88234
 Alpha virt. eigenvalues --    2.88426   2.89030   2.89163   2.89553   2.89697
 Alpha virt. eigenvalues --    2.89973   2.90582   2.90803   2.91411   2.91630
 Alpha virt. eigenvalues --    2.92222   2.92284   2.92868   2.93055   2.93105
 Alpha virt. eigenvalues --    2.93499   2.94043   2.94727   2.95207   2.95475
 Alpha virt. eigenvalues --    2.95733   2.95926   2.96117   2.96221   2.96603
 Alpha virt. eigenvalues --    2.96686   2.96837   2.97091   2.97820   2.98055
 Alpha virt. eigenvalues --    2.98346   2.98723   2.98875   2.99021   2.99499
 Alpha virt. eigenvalues --    2.99579   2.99724   3.00151   3.00244   3.00587
 Alpha virt. eigenvalues --    3.00922   3.01134   3.01401   3.01716   3.01971
 Alpha virt. eigenvalues --    3.02139   3.02409   3.02586   3.02981   3.03400
 Alpha virt. eigenvalues --    3.03738   3.03868   3.03951   3.04349   3.04810
 Alpha virt. eigenvalues --    3.05121   3.05244   3.05430   3.05820   3.06136
 Alpha virt. eigenvalues --    3.06161   3.06548   3.06657   3.06774   3.07000
 Alpha virt. eigenvalues --    3.07871   3.08097   3.08280   3.08645   3.08733
 Alpha virt. eigenvalues --    3.09033   3.09303   3.09495   3.09973   3.10034
 Alpha virt. eigenvalues --    3.10282   3.11053   3.11302   3.11582   3.11858
 Alpha virt. eigenvalues --    3.12300   3.12760   3.12871   3.13047   3.13238
 Alpha virt. eigenvalues --    3.13615   3.13789   3.13866   3.14045   3.14208
 Alpha virt. eigenvalues --    3.14872   3.15081   3.15230   3.15425   3.15815
 Alpha virt. eigenvalues --    3.16061   3.16306   3.16493   3.16756   3.16911
 Alpha virt. eigenvalues --    3.17186   3.17530   3.17756   3.17867   3.18045
 Alpha virt. eigenvalues --    3.18597   3.18886   3.18954   3.19305   3.19607
 Alpha virt. eigenvalues --    3.19949   3.20129   3.20316   3.20687   3.21069
 Alpha virt. eigenvalues --    3.21146   3.21331   3.21567   3.21940   3.22179
 Alpha virt. eigenvalues --    3.22422   3.22691   3.22969   3.23287   3.23441
 Alpha virt. eigenvalues --    3.23616   3.24068   3.24252   3.24300   3.24517
 Alpha virt. eigenvalues --    3.24649   3.24906   3.25142   3.25318   3.25799
 Alpha virt. eigenvalues --    3.26006   3.26239   3.26489   3.26847   3.27113
 Alpha virt. eigenvalues --    3.27574   3.27614   3.27831   3.27892   3.28309
 Alpha virt. eigenvalues --    3.28574   3.28703   3.29079   3.29424   3.29473
 Alpha virt. eigenvalues --    3.29724   3.29977   3.30072   3.30319   3.30593
 Alpha virt. eigenvalues --    3.30760   3.31263   3.31356   3.31596   3.31859
 Alpha virt. eigenvalues --    3.31968   3.32164   3.32543   3.32817   3.32987
 Alpha virt. eigenvalues --    3.33256   3.33387   3.33816   3.34007   3.34215
 Alpha virt. eigenvalues --    3.34499   3.34670   3.35144   3.35716   3.36110
 Alpha virt. eigenvalues --    3.36191   3.36257   3.36473   3.36534   3.36788
 Alpha virt. eigenvalues --    3.37385   3.37630   3.37800   3.38145   3.38433
 Alpha virt. eigenvalues --    3.38777   3.38965   3.39212   3.39402   3.39727
 Alpha virt. eigenvalues --    3.40212   3.40615   3.40786   3.40855   3.41252
 Alpha virt. eigenvalues --    3.41896   3.41969   3.42476   3.42629   3.43044
 Alpha virt. eigenvalues --    3.43562   3.44218   3.44359   3.44653   3.44897
 Alpha virt. eigenvalues --    3.45259   3.45595   3.45866   3.46322   3.46765
 Alpha virt. eigenvalues --    3.47342   3.47477   3.47887   3.48081   3.48291
[...]
  1735. RY*(   2) H  83                  0.00008     1.70522   
  1736. RY*(   3) H  83                  0.00003     2.10584   
  1737. RY*(   4) H  83                  0.00001     2.15295   
  1738. RY*(   5) H  83                  0.00001     2.44983   
  1739. RY*(   1) H  84                  0.00034     1.04986   
  1740. RY*(   2) H  84                  0.00008     1.68565   
  1741. RY*(   3) H  84                  0.00004     2.07039   
  1742. RY*(   4) H  84                  0.00001     2.26845   
  1743. RY*(   5) H  84                  0.00001     2.51717   
  1744. RY*(   1) H  85                  0.00093     0.62816   
  1745. RY*(   2) H  85                  0.00013     2.06410   
  1746. RY*(   3) H  85                  0.00011     2.16951   
  1747. RY*(   4) H  85                  0.00005     2.92123   
  1748. RY*(   5) H  85                  0.00000     3.06399   
  1749. RY*(   1) H  86                  0.00174     0.80682   
  1750. RY*(   2) H  86                  0.00011     1.68374   
  1751. RY*(   3) H  86                  0.00006     2.14417   
  1752. RY*(   4) H  86                  0.00001     2.88017   
  1753. RY*(   5) H  86                  0.00002     2.30665   
  1754. RY*(   1) H  87                  0.00060     1.11847   
  1755. RY*(   2) H  87                  0.00009     1.45109   
  1756. RY*(   3) H  87                  0.00004     2.15843   
  1757. RY*(   4) H  87                  0.00002     2.24452   
  1758. RY*(   5) H  87                  0.00000     2.93065   
  1759. RY*(   1) H  88                  0.00071     0.97814   
  1760. RY*(   2) H  88                  0.00007     1.57370   
  1761. RY*(   3) H  88                  0.00005     2.16557   
  1762. RY*(   4) H  88                  0.00003     2.30878   
  1763. RY*(   5) H  88                  0.00001     3.02678   
  1764. RY*(   1) H  89                  0.00032     1.37935   
  1765. RY*(   2) H  89                  0.00022     2.00000   
  1766. RY*(   3) H  89                  0.00010     1.43459   
  1767. RY*(   4) H  89                  0.00006     2.45808   
  1768. RY*(   5) H  89                  0.00001     2.97251   
  1769. RY*(   1) H  90                  0.00028     1.08771   
  1770. RY*(   2) H  90                  0.00009     1.66168   
  1771. RY*(   3) H  90                  0.00003     1.99778   
  1772. RY*(   4) H  90                  0.00002     1.98650   
  1773. RY*(   5) H  90                  0.00000     2.80266   
  1774. RY*(   1) H  91                  0.00026     1.02670   
  1775. RY*(   2) H  91                  0.00007     1.73347   
  1776. RY*(   3) H  91                  0.00003     1.88573   
  1777. RY*(   4) H  91                  0.00003     2.01739   
  1778. RY*(   5) H  91                  0.00000     2.93138   
  1779. RY*(   1) H  92                  0.00031     1.02661   
  1780. RY*(   2) H  92                  0.00009     1.66924   
  1781. RY*(   3) H  92                  0.00004     2.07099   
  1782. RY*(   4) H  92                  0.00001     2.20205   
  1783. RY*(   5) H  92                  0.00001     2.58071   
  1784. RY*(   1) H  93                  0.00064     0.53056   
  1785. RY*(   2) H  93                  0.00015     2.09638   
  1786. RY*(   3) H  93                  0.00011     2.17437   
  1787. RY*(   4) H  93                  0.00005     2.92498   
  1788. RY*(   5) H  93                  0.00000     3.09997   
  1789. RY*(   1) H  94                  0.00030     1.24117   
  1790. RY*(   2) H  94                  0.00007     1.33782   
  1791. RY*(   3) H  94                  0.00005     2.15822   
  1792. RY*(   4) H  94                  0.00002     2.25455   
  1793. RY*(   5) H  94                  0.00000     2.97621   
  1794. RY*(   1) H  95                  0.00031     1.22557   
  1795. RY*(   2) H  95                  0.00006     1.34055   
  1796. RY*(   3) H  95                  0.00005     2.15997   
  1797. RY*(   4) H  95                  0.00003     2.27550   
  1798. RY*(   5) H  95                  0.00001     3.00339   
  1799. RY*(   1) H  96                  0.00022     1.57701   
  1800. RY*(   2) H  96                  0.00006     1.95752   
  1801. RY*(   3) H  96                  0.00004     1.26383   
  1802. RY*(   4) H  96                  0.00002     2.82146   
  1803. RY*(   5) H  96                  0.00001     2.29587   
  1804. RY*(   1) H  97                  0.00029     1.16866   
  1805. RY*(   2) H  97                  0.00010     1.48730   
  1806. RY*(   3) H  97                  0.00007     2.43345   
  1807. RY*(   4) H  97                  0.00001     2.15794   
  1808. RY*(   5) H  97                  0.00001     2.97236   
  1809. RY*(   1) H  98                  0.00028     1.01361   
  1810. RY*(   2) H  98                  0.00009     1.69049   
  1811. RY*(   3) H  98                  0.00003     1.96766   
  1812. RY*(   4) H  98                  0.00003     2.00043   
  1813. RY*(   5) H  98                  0.00000     2.87473   
  1814. RY*(   1) H  99                  0.00024     1.04689   
  1815. RY*(   2) H  99                  0.00007     1.72214   
  1816. RY*(   3) H  99                  0.00003     2.03781   
  1817. RY*(   4) H  99                  0.00002     1.87252   
  1818. RY*(   5) H  99                  0.00000     2.88899   
  1819. RY*(   1) H 100                  0.00032     0.99809   
  1820. RY*(   2) H 100                  0.00009     1.64464   
  1821. RY*(   3) H 100                  0.00003     2.02438   
  1822. RY*(   4) H 100                  0.00002     2.02218   
  1823. RY*(   5) H 100                  0.00000     2.88586   
  1824. RY*(   1) H 101                  0.00080     0.55728   
  1825. RY*(   2) H 101                  0.00013     2.08527   
  1826. RY*(   3) H 101                  0.00012     2.17558   
  1827. RY*(   4) H 101                  0.00006     2.96793   
  1828. RY*(   5) H 101                  0.00000     3.09909   
  1843. BD*(   1) C   7 - C   8          0.00345     0.29405   
  1844. BD*(   1) C   7 - H  57          0.00473     0.32182   
  1845. BD*(   1) C   7 - H  58          0.00354     0.32462   
  1846. BD*(   1) C   7 - H  59          0.00333     0.31947   
  1847. BD*(   1) C   8 - S   9          0.02075     0.04993   
  1848. BD*(   1) C   8 - H  60          0.00708     0.28992   
  1849. BD*(   1) C   8 - H  61          0.00953     0.30044   
  1850. BD*(   1) S   9 - C  10          0.00926     0.07956   
  1851. BD*(   1) S   9 -Fe  11          0.06387     0.21763   
  1852. BD*(   1) C  10 - H  54          0.00638     0.30204   
  1853. BD*(   1) C  10 - H  55          0.00536     0.29659   
  1854. BD*(   1) C  10 - H  56          0.00554     0.32155   
  1855. BD*(   1)Fe  11 - N  16          0.04593     0.28609   
  1856. BD*(   1)Fe  11 - N  27          0.03797     0.27485   
  1857. BD*(   1)Fe  11 - N  35          0.04681     0.25198   
  1858. BD*(   1)Fe  11 - N  43          0.04288     0.27483   
  1859. BD*(   1) C  12 - C  17          0.01064     0.47515   
  1860. BD*(   2) C  12 - C  17          0.20521    -0.05648  1880(v),203(v),1877(v)
                                                    497(g),1865(r),631(g)
  1861. BD*(   1) C  12 - C  47          0.01070     0.47215   
  1862. BD*(   1) C  12 - H  78          0.00737     0.35526   
  1863. BD*(   1) C  13 - C  20          0.01022     0.49272   
  1864. BD*(   1) C  13 - C  28          0.01010     0.47905   
  1865. BD*(   2) C  13 - C  28          0.19227    -0.05262  1877(v),1901(v),1868(r)
                                                    523(g),1860(r),917(g)
  1866. BD*(   1) C  13 - H 101          0.00700     0.35077   
  1867. BD*(   1) C  14 - C  31          0.01004     0.48858   
  1868. BD*(   2) C  14 - C  31          0.20337    -0.05373  1914(v),1901(v),1865(r)
                                                    1872(r),549(g),995(g)
                                                    1870(g),1903(g)
  1869. BD*(   1) C  14 - C  36          0.01031     0.46762   
  1870. BD*(   1) C  14 - H  93          0.00626     0.35005   
  1871. BD*(   1) C  15 - C  39          0.00989     0.46605   
  1872. BD*(   2) C  15 - C  39          0.19321    -0.05535  1931(v),1918(v),1914(v)
                                                    1868(r),575(g),1203(g)
  1873. BD*(   1) C  15 - C  44          0.01015     0.47565   
  1874. BD*(   1) C  15 - H  85          0.00730     0.35153   
  1875. BD*(   1) N  16 - C  17          0.01447     0.37418   
  1876. BD*(   1) N  16 - C  20          0.01468     0.37502   
  1877. BD*(   2) N  16 - C  20          0.32791    -0.10298  1865(v),1880(v),1860(v)
                                                    195(v),707(g),603(g),1914(r)
                                                    194(v),1839(r),189(r)
  1878. BD*(   1) C  17 - C  18          0.01626     0.40468   
  1879. BD*(   1) C  18 - C  19          0.00957     0.54093   
  1880. BD*(   2) C  18 - C  19          0.11833    -0.02261  1860(v),1877(v),1887(v)
                                                    1886(v),1888(v),1884(v)
  1881. BD*(   1) C  18 - C  22          0.01200     0.26378   
  1882. BD*(   1) C  19 - C  20          0.01647     0.39796   
  1883. BD*(   1) C  19 - C  21          0.00910     0.26324   
  1884. BD*(   1) C  21 - H  79          0.00300     0.32458   
  1885. BD*(   1) C  21 - H  80          0.00232     0.32687   
  1886. BD*(   1) C  21 - H  81          0.00394     0.32142   
  1887. BD*(   1) C  22 - C  23          0.00856     0.25462   
  1888. BD*(   1) C  22 - H  71          0.00649     0.32997   
  1889. BD*(   1) C  22 - H  72          0.00538     0.32862   
  1890. BD*(   1) C  23 - C  24          0.03369     0.29200   
  1891. BD*(   1) C  23 - H  69          0.00585     0.31044   
  1892. BD*(   1) C  23 - H  70          0.00542     0.31628   
  1893. BD*(   1) C  24 - O  25          0.03782     0.39337   
  1894. BD*(   1) C  24 - O  26          0.02717     0.41283   
  1895. BD*(   2) C  24 - O  26          0.10100    -0.04423  1894(g),1891(v),1896(v)
  1896. BD*(   1) O  25 - H  68          0.00703     0.31352   
  1897. BD*(   1) N  27 - C  28          0.01458     0.36837   
  1898. BD*(   1) N  27 - C  31          0.01473     0.38201   
  1899. BD*(   1) C  28 - C  29          0.01684     0.39974   
  1900. BD*(   1) C  29 - C  30          0.00837     0.55277   
  1901. BD*(   2) C  29 - C  30          0.11008    -0.01678  1865(v),1868(v),1909(v)
                                                    1907(v),1905(v),1908(v)
  1902. BD*(   1) C  29 - C  32          0.00919     0.27328   
  1903. BD*(   1) C  30 - C  31          0.01576     0.39822   
  1904. BD*(   1) C  30 - C  33          0.01485     0.28498   
  1905. BD*(   1) C  32 - H  98          0.00310     0.32557   
  1906. BD*(   1) C  32 - H  99          0.00196     0.33620   
  1907. BD*(   1) C  32 - H 100          0.00375     0.32677   
  1908. BD*(   1) C  33 - C  34          0.00295     0.48855   
  1909. BD*(   1) C  33 - H  97          0.00819     0.37285   
  1910. BD*(   1) C  34 - H  94          0.00531     0.33480   
  1911. BD*(   1) C  34 - H  95          0.00346     0.33291   
  1912. BD*(   1) C  34 - H  96          0.00206     0.33057   
  1913. BD*(   1) N  35 - C  36          0.01464     0.38422   
  1914. BD*(   2) N  35 - C  36          0.32672    -0.10333  1868(v),1918(v),1872(v)
                                                    195(v),1123(g),1877(r)
                                                    1097(g),194(v),1840(r)
                                                    1841(r)
  1915. BD*(   1) N  35 - C  39          0.01576     0.37473   
  1916. BD*(   1) C  36 - C  37          0.01745     0.38764   
  1917. BD*(   1) C  37 - C  38          0.01490     0.54865   
  1918. BD*(   2) C  37 - C  38          0.11173    -0.01840  1872(v),1914(v),1926(v)
                                                    1924(v),1922(v),1925(v)
  1919. BD*(   1) C  37 - C  40          0.00893     0.26742   
  1920. BD*(   1) C  38 - C  39          0.02436     0.40066   
  1921. BD*(   1) C  38 - C  41          0.01556     0.26300   
  1922. BD*(   1) C  40 - H  90          0.00320     0.32558   
  1923. BD*(   1) C  40 - H  91          0.00254     0.33601   
  1924. BD*(   1) C  40 - H  92          0.00350     0.32774   
  1925. BD*(   1) C  41 - C  42          0.00271     0.48042   
  1926. BD*(   1) C  41 - H  89          0.00846     0.35290   
  1927. BD*(   1) C  42 - H  86          0.02304     0.31160   
  1928. BD*(   1) C  42 - H  87          0.00994     0.32766   
  1929. BD*(   1) C  42 - H  88          0.00931     0.32624   
  1930. BD*(   1) N  43 - C  44          0.01516     0.35956   
  1931. BD*(   2) N  43 - C  44          0.32433    -0.10702  1872(v),1935(v),203(v)
                                                    1331(g),195(v),1304(g)
                                                    1839(r),1330(g),194(v)
                                                    575(v),1333(g),189(r)
  1932. BD*(   1) N  43 - C  47          0.01444     0.37361   
  1933. BD*(   1) C  44 - C  45          0.01646     0.39420   
  1934. BD*(   1) C  45 - C  46          0.00983     0.54839   
  1935. BD*(   2) C  45 - C  46          0.11396    -0.01998  1931(v),203(v),1942(v)
                                                    1941(v)
  1936. BD*(   1) C  45 - C  48          0.00934     0.27636   
  1937. BD*(   1) C  46 - C  47          0.01714     0.39541   
  1938. BD*(   1) C  46 - C  49          0.01198     0.28589   
  1939. BD*(   1) C  48 - H  82          0.00256     0.33372   
  1940. BD*(   1) C  48 - H  83          0.00284     0.32694   
  1941. BD*(   1) C  48 - H  84          0.00401     0.32443   
  1942. BD*(   1) C  49 - C  50          0.00813     0.28541   
  1943. BD*(   1) C  49 - H  76          0.00643     0.32967   
  1944. BD*(   1) C  49 - H  77          0.00611     0.33910   
  1945. BD*(   1) C  50 - C  51          0.03795     0.27724   
  1946. BD*(   1) C  50 - H  74          0.00663     0.31586   
  1947. BD*(   1) C  50 - H  75          0.00599     0.30518   
  1948. BD*(   1) C  51 - O  52          0.03473     0.41312   
  1949. BD*(   1) C  51 - O  53          0.02132     0.46029   
  1950. BD*(   2) C  51 - O  53          0.09471    -0.07190   
  1951. BD*(   1) O  52 - H  73          0.00670     0.30948   
       -------------------------------
              Total Lewis  177.89903  ( 97.6287%)
        Valence non-Lewis    3.97252  (  2.1801%)
        Rydberg non-Lewis    0.34838  (  0.1912%)
       -------------------------------
            Total unit  2  182.21993  (100.0000%)
           Charge unit  2    0.78007
 1\1\GINC-NODE639\SP\UPBE1PBE\def2TZVP\C41H48Fe1N6O4S1(1+,2)\ZHARTOVSKA
 \23-Feb-2023\0\\# PBE1PBE/def2TZVP empiricaldispersion=GD3BJ scf=qc sc
 f=maxcycle=999 geom=check pop=nbo\\1cry_III_D\\1,2\C,0,18.559999,-18.2
 26,18.774\C,0,19.341999,-18.736,17.632\N,0,20.49,-19.462,17.771\C,0,19
 .184,-18.620001,16.302999\C,0,20.985001,-19.778,16.599001\N,0,20.198,-
 19.274,15.685\C,0,21.131001,-21.854,10.425\C,0,20.629999,-20.459,10.33
 4\S,0,21.375999,-19.479,11.694\C,0,21.546,-17.886999,10.877\Fe,0,20.73
 ,-19.146,13.891\C,0,23.254,-21.370001,14.31\C,0,22.868,-16.591,14.587\
 C,0,18.344,-16.879,12.904\C,0,18.507,-21.698999,13.581\N,0,22.68,-18.9
 97999,14.377\C,0,23.587,-20.037001,14.464\C,0,24.902,-19.514999,14.717
 \C,0,24.801001,-18.184999,14.799\C,0,23.416,-17.848,14.585\C,0,25.927,
 -17.158001,15.083\C,0,26.160999,-20.403999,14.944\C,0,26.521,-20.38999
 9,16.452\C,0,27.712,-21.169001,16.908001\O,0,28.504,-21.518999,15.987\
 O,0,27.815001,-21.408001,18.153\N,0,20.646999,-17.143,13.662\C,0,21.58
 4999,-16.266001,14.194\C,0,21.02,-14.941,14.258\C,0,19.784,-15.015,13.
 77\C,0,19.527,-16.382999,13.392\C,0,21.808001,-13.723,14.79\C,0,18.775
 999,-13.826,13.614\C,0,18.98,-13.086,12.477\N,0,18.805,-19.26,13.375\C
 ,0,17.982,-18.209999,13.031\C,0,16.663,-18.742001,12.746\C,0,16.715,-2
 0.063999,12.899\C,0,18.046,-20.417999,13.314\C,0,15.456,-17.882,12.29\
 C,0,15.536,-21.084999,12.724\C,0,15.273,-21.466,11.443\N,0,20.843,-21.
 16,13.98\C,0,19.826,-22.079,13.735\C,0,20.391001,-23.407,13.668\C,0,21
 .707001,-23.312,13.875\C,0,22.002001,-21.91,14.065\C,0,19.573,-24.687,
 13.407\C,0,22.796,-24.406,13.931\C,0,23.674999,-24.639999,12.707\C,0,2
 4.436001,-25.938999,12.584\O,0,24.766001,-26.277,11.42\O,0,24.688999,-
 26.58,13.638\H,0,22.44946813,-17.87491319,10.30385144\H,0,20.7099979,-
 17.72788642,10.22839868\H,0,21.57973302,-17.11050307,11.61240204\H,0,2
 2.0737606,-21.86209275,10.93100282\H,0,20.42889771,-22.45032767,10.969
 37513\H,0,21.25132915,-22.25471195,9.44018983\H,0,20.90976194,-20.0371
 363,9.39131038\H,0,19.56422737,-20.45269331,10.42882116\H,0,19.1116848
 5,-17.45325494,19.26736374\H,0,17.63013974,-17.83098518,18.42154426\H,
 0,18.3709123,-19.02380764,19.46149486\H,0,18.3890174,-18.09762548,15.8
 1307403\H,0,20.89769326,-19.71783949,18.6475457\H,0,21.87399348,-20.34
 662265,16.42219416\H,0,29.45271473,-21.4668627,16.12419389\H,0,26.6742
 4561,-19.37021217,16.73739552\H,0,25.67133094,-20.7558672,16.98968295\
 H,0,26.98079984,-20.01644378,14.37599688\H,0,25.95247384,-21.40677587,
 14.63439412\H,0,25.69428034,-26.34524809,11.1849688\H,0,23.04962705,-2
 4.55299626,11.8431479\H,0,24.3909345,-23.84561151,12.67115492\H,0,23.4
 435334,-24.1713433,14.74986307\H,0,22.30861075,-25.33144513,14.1566169
 9\H,0,24.06044473,-22.06871691,14.38964284\H,0,26.78655468,-17.3988898
 9,14.49305229\H,0,25.58556565,-16.17566851,14.83131475\H,0,26.18606016
 ,-17.19059601,16.12065379\H,0,20.12417343,-25.53828786,13.74819911\H,0
 ,18.64324851,-24.62966176,13.93347365\H,0,19.38371097,-24.78164326,12.
 35813761\H,0,17.76876568,-22.46756657,13.67698947\H,0,15.80370207,-22.
 36876715,11.22330297\H,0,14.2222939,-21.63324196,11.32921594\H,0,15.58
 640256,-20.69528887,10.77018265\H,0,14.97572877,-21.45725028,13.556120
 87\H,0,15.72681567,-17.31965487,11.4209046\H,0,14.62992274,-18.5212937
 ,12.05805189\H,0,15.17836921,-17.2116063,13.07637995\H,0,17.67403799,-
 16.21029812,12.40511253\H,0,18.42799451,-12.1717357,12.54265616\H,0,20
 .02245875,-12.86678921,12.37637006\H,0,18.64866058,-13.64230027,11.625
 15248\H,0,18.00464881,-13.61219561,14.32407504\H,0,22.74139627,-13.648
 25325,14.27222959\H,0,21.23839357,-12.83165514,14.62890463\H,0,21.9898
 9492,-13.84564041,15.83726975\H,0,23.49136663,-15.78917473,14.92373474
 \\Version=ES64L-G16RevA.03\State=2-A\HF=-3880.3553762\S2=1.79756\S2-1=
 0.\S2A=0.918419\RMSD=4.186e-11\Dipole=-0.9991443,2.1059414,-0.9944943\
 Quadrupole=23.1416486,-13.9015442,-9.2401044,-0.6294859,-14.6991502,20
 .1424483\PG=C01 [X(C41H48Fe1N6O4S1)]\\@


          EVOLUTION
 IN THE BEGINNING GOD MADE MAN.
 HE WORKED THE DIRT WITH HIS HANDS.
 THEN GOD DECIDED TO GIVE MAN SCIENCE,
 MAN SHOULD BE USEFUL (LIKE AN APPLIANCE.)
 BUT SOON MAN'S KNOWLEDGE GREW TOO GREAT,
 TO THE HEADING SCIENCE HE COULDN'T RELATE
 SO GOD SAID "LETS HAVE DIFFERENT FIELDS,
 WE'LL DIVIDE THEM UP, SEE WHAT IT YIELDS."
 ENTER PHYSICS, CHEMISTRY, BIO
 THEY SPRANG UP AROUND THE NILE.
 BUT CHEMISTRY SURPASSED THE REST
 FAR AND AWAY IT WAS THE BEST.
 EXPERIMENT WAS GOD'S DECREE
 EXPERIMENT DID CHEMISTS WITH LOTS OF GLEE
 BUT SOON THEIR TESTS BEGAN TO BOG,
 THEY FOUND THEMSELVES DEEP IN A FOG.
 "GIVE US SOME HELP" THEY CRIED TO GOD.
 GOD LOOKED AROUND, THEN GAVE THE NOD.
 ENTER EINSTEIN, HEISENBERG, BOHR,
 REACTION PATHS WERE CLEAR ONCE MORE.
 WITH THEORISTS GOD SEND DIRECTION
 AND THEN HE STOPPED, HE'D MADE PERFECTION.
          -- THOMAS A. HOLME, 1981
 Job cpu time:      20 days  4 hours  5 minutes 39.3 seconds.
 Elapsed time:       5 days  1 hours 33 minutes 51.8 seconds.
 File lengths (MBytes):  RWF=   3606 Int=      0 D2E=      0 Chk=    292 Scr=      1
 Normal termination of Gaussian 16 at Thu Feb 23 23:05:44 2023.
