 Entering Gaussian System, Link 0=g16
 Input=/net/homes/chemie/zhartovska/work/BioModel/Konrad/1cck/1cck05/Teil1/def2TZVP/nbo/1cck05.com
 Output=/net/homes/chemie/zhartovska/work/BioModel/Konrad/1cck/1cck05/Teil1/def2TZVP/nbo/1cck05.log
 Initial command:
 /afs/math/software/gaussian/g16.A03/g16/l1.exe "/scratch/zhartovska_gaussian.pcv3a58/Gau-24909.inp" -scrdir="/scratch/zhartovska_gaussian.pcv3a58/"
 Entering Link 1 = /afs/math/software/gaussian/g16.A03/g16/l1.exe PID=     24910.
  
 Copyright (c) 1988,1990,1992,1993,1995,1998,2003,2009,2016,
            Gaussian, Inc.  All Rights Reserved.
  
 This is part of the Gaussian(R) 16 program.  It is based on
 the Gaussian(R) 09 system (copyright 2009, Gaussian, Inc.),
 the Gaussian(R) 03 system (copyright 2003, Gaussian, Inc.),
 the Gaussian(R) 98 system (copyright 1998, Gaussian, Inc.),
 the Gaussian(R) 94 system (copyright 1995, Gaussian, Inc.),
 the Gaussian 92(TM) system (copyright 1992, Gaussian, Inc.),
 the Gaussian 90(TM) system (copyright 1990, Gaussian, Inc.),
 the Gaussian 88(TM) system (copyright 1988, Gaussian, Inc.),
 the Gaussian 86(TM) system (copyright 1986, Carnegie Mellon
 University), and the Gaussian 82(TM) system (copyright 1983,
 Carnegie Mellon University). Gaussian is a federally registered
 trademark of Gaussian, Inc.
  
 This software contains proprietary and confidential information,
 including trade secrets, belonging to Gaussian, Inc.
  
 This software is provided under written license and may be
 used, copied, transmitted, or stored only in accord with that
 written license.
  
 The following legend is applicable only to US Government
 contracts under FAR:
  
                    RESTRICTED RIGHTS LEGEND
  
 Use, reproduction and disclosure by the US Government is
 subject to restrictions as set forth in subparagraphs (a)
 and (c) of the Commercial Computer Software - Restricted
 Rights clause in FAR 52.227-19.
  
 Gaussian, Inc.
 340 Quinnipiac St., Bldg. 40, Wallingford CT 06492
  
  
 ---------------------------------------------------------------
 Warning -- This program may not be used in any manner that
 competes with the business of Gaussian, Inc. or will provide
 assistance to any competitor of Gaussian, Inc.  The licensee
 of this program is prohibited from giving any competitor of
 Gaussian, Inc. access to this program.  By using this program,
 the user acknowledges that Gaussian, Inc. is engaged in the
 business of creating and licensing software in the field of
 computational chemistry and represents and warrants to the
 licensee that it is not a competitor of Gaussian, Inc. and that
 it will not use this program in any manner prohibited above.
 ---------------------------------------------------------------
  

 Cite this work as:
 Gaussian 16, Revision A.03,
 M. J. Frisch, G. W. Trucks, H. B. Schlegel, G. E. Scuseria, 
 M. A. Robb, J. R. Cheeseman, G. Scalmani, V. Barone, 
 G. A. Petersson, H. Nakatsuji, X. Li, M. Caricato, A. V. Marenich, 
 J. Bloino, B. G. Janesko, R. Gomperts, B. Mennucci, H. P. Hratchian, 
 J. V. Ortiz, A. F. Izmaylov, J. L. Sonnenberg, D. Williams-Young, 
 F. Ding, F. Lipparini, F. Egidi, J. Goings, B. Peng, A. Petrone, 
 T. Henderson, D. Ranasinghe, V. G. Zakrzewski, J. Gao, N. Rega, 
 G. Zheng, W. Liang, M. Hada, M. Ehara, K. Toyota, R. Fukuda, 
 J. Hasegawa, M. Ishida, T. Nakajima, Y. Honda, O. Kitao, H. Nakai, 
 T. Vreven, K. Throssell, J. A. Montgomery, Jr., J. E. Peralta, 
 F. Ogliaro, M. J. Bearpark, J. J. Heyd, E. N. Brothers, K. N. Kudin, 
 V. N. Staroverov, T. A. Keith, R. Kobayashi, J. Normand, 
 K. Raghavachari, A. P. Rendell, J. C. Burant, S. S. Iyengar, 
 J. Tomasi, M. Cossi, J. M. Millam, M. Klene, C. Adamo, R. Cammi, 
 J. W. Ochterski, R. L. Martin, K. Morokuma, O. Farkas, 
 J. B. Foresman, and D. J. Fox, Gaussian, Inc., Wallingford CT, 2016.
 
 ******************************************
 Gaussian 16:  ES64L-G16RevA.03 25-Dec-2016
                 3-Nov-2022 
 ******************************************
 %nprocs=12
 Will use up to   12 processors via shared memory.
 %mem=16GB
 %oldchk=1cck_II_Qn.chk
 %chk=1cck_II_Q.chk
 Copying data from "1cck_II_Qn.chk" to current chk file "1cck_II_Q.chk"
 IOpt=  2 FromEx=T IUOpen= 4 IOptOp= 5 NList=   0 IFRang= 0 IUIn= 4 IUOut= 2.
 ----------------------------------------------------------------------
 # PBE1PBE/def2TZVP empiricaldispersion=GD3BJ scf=maxcycle=999 geom=che
 ck guess=read pop=nbo
 ----------------------------------------------------------------------
 1/29=2,38=1,172=1/1;
 2/12=2,40=1/2;
 3/5=44,7=101,11=2,14=-4,25=1,30=1,74=-13,116=-2,124=41/1,2,3;
 4/5=1/1;
 5/5=2,7=999,38=6/2;
 6/7=2,8=2,9=2,10=2,28=1,40=1/1,7;
 99/5=1,9=1/99;
 ---------
 1cck_II_Q
 ---------
 Structure from the checkpoint file:  "1cck_II_Q.chk"
 Charge =  0 Multiplicity = 5
 Z-Matrix found in chk file.
 C,0,-8.983,54.799,107.567001
 C,0,-8.54,55.606998,108.792
 N,0,-9.235,56.48,109.509003
 C,0,-7.314,55.534,109.401001
 C,0,-8.503,56.910999,110.500999
 N,0,-7.319,56.334999,110.436996
 H,0,-10.068,56.903999,109.240997
 Fe,0,-5.819,56.952,111.661003
 C,0,-5.402,53.929001,112.991997
 C,0,-7.54,57.979,114.383003
 C,0,-5.948,60.127998,110.458
 C,0,-3.64,56.141998,109.214996
 N,0,-6.453,56.078999,113.372002
 C,0,-6.162,54.831001,113.746002
 C,0,-6.72,54.561001,114.978996
 C,0,-7.402,55.723999,115.358002
 C,0,-7.134,56.641998,114.375
 C,0,-8.3,55.936001,116.572998
 C,0,-6.63,53.219002,115.699997
 C,0,-5.402,53.037998,116.555
 C,0,-5.327,51.671001,117.238998
 O,0,-6.233,51.285,117.983002
 O,0,-4.34,50.955002,117.054001
 N,0,-6.811,58.708,112.205002
 C,0,-7.412,58.931999,113.367996
 C,0,-7.948,60.220001,113.431
 C,0,-7.516,60.838001,112.250999
 C,0,-6.724,59.891998,111.598
 C,0,-8.881,60.683998,114.561996
 C,0,-7.822,62.084999,111.697998
 C,0,-8.33176962,62.9262641,112.69616128
 N,0,-4.944,57.963001,110.096001
 C,0,-5.105,59.257,109.750999
 C,0,-4.341,59.617001,108.634003
 C,0,-3.612,58.455002,108.348
 C,0,-4.065,57.478001,109.233002
 C,0,-4.249,61.014999,107.987
 C,0,-2.607,58.181999,107.403
 C,0,-2.176,58.978001,106.297997
 N,0,-4.692,55.285,111.160004
 C,0,-3.961,55.115002,110.064003
 C,0,-3.616,53.791,109.886002
 C,0,-4.152,53.131001,110.990997
 C,0,-4.763,54.104,111.761002
 C,0,-2.941,53.191002,108.672997
 C,0,-4.125,51.634998,111.255997
 C,0,-2.886,51.203999,112.029999
 C,0,-2.951,49.791,112.564003
 O,0,-2.38,49.560001,113.612
 O,0,-3.559,48.915001,111.950996
 O,0,-4.281,57.657001,113.107002
 H,0,-6.02075276,50.85383657,118.81405507
 H,0,-4.53580591,53.15947432,115.93867922
 H,0,-5.39545363,53.79770233,117.30846299
 H,0,-7.49290101,53.11366467,116.32386068
 H,0,-6.64652785,52.44080115,114.96581019
 H,0,-7.80365999,56.57085129,117.27692392
 H,0,-9.21621309,56.39406599,116.26375693
 H,0,-8.50993654,54.99177269,117.03044696
 H,0,-8.00987808,58.31744685,115.28276314
 H,0,-8.40289455,61.45945002,115.12323511
 H,0,-9.79188291,61.05708943,114.14247829
 H,0,-9.09738873,59.8582961,115.20720317
 H,0,-8.55324801,61.96324539,110.92640717
 H,0,-9.39447857,62.99771319,112.59396186
 H,0,-8.092229,62.52398892,113.65829171
 H,0,-6.00605471,61.12206124,110.06637782
 H,0,-3.35563943,61.07898593,107.40158343
 H,0,-5.0998343,61.17352026,107.3578323
 H,0,-4.22773686,61.76181106,108.75297625
 H,0,-3.42966867,58.10066188,113.107002
 H,0,-4.98306459,58.31175691,113.107002
 H,0,-3.0223172,59.2488198,105.70192286
 H,0,-1.69764829,59.86346229,106.66136726
 H,0,-2.88765363,57.24455215,106.97018717
 H,0,-2.96705916,55.88704928,108.42312999
 H,0,-2.00000711,52.77026722,108.96007647
 H,0,-3.56360037,52.42448775,108.26102044
 H,0,-2.78180374,53.95372908,107.93964582
 H,0,-5.29353662,52.95623425,113.4242707
 H,0,-4.14547357,51.11738831,110.31974861
 H,0,-4.99487428,51.36759288,111.81876981
 H,0,-2.03699757,51.28402804,111.38370942
 H,0,-2.75094383,51.87265857,112.85434978
 H,0,-3.07357034,48.23642198,111.47613965
 H,0,-8.81336631,57.61591516,111.24374119
 H,0,-6.49267758,54.92595861,109.08380208
 H,0,-8.24970345,54.05092057,107.34893372
 H,0,-9.92244831,54.32895732,107.77046291
 H,0,-9.08607588,55.45311462,106.72651934
 Recover connectivity data from disk.
 Stoichiometry    C38H40FeN6O5(5)
 Framework group  C1[X(C38H40FeN6O5)]
 Deg. of freedom   264
 Full point group                 C1      NOp   1
 Largest Abelian subgroup         C1      NOp   1
 Largest concise Abelian subgroup C1      NOp   1
                         Standard orientation:                         
 ---------------------------------------------------------------------
 Center     Atomic      Atomic             Coordinates (Angstroms)
 Number     Number       Type             X           Y           Z
 ---------------------------------------------------------------------
      1          6           0       -1.368806   -2.208983    4.940654
      2          6           0       -1.479203   -1.211500    3.781960
      3          7           0       -2.075098   -0.026779    3.757533
      4          6           0       -0.927204   -1.363969    2.536433
      5          6           0       -1.897537    0.526963    2.588139
      6          7           0       -1.195197   -0.293121    1.831894
      7          1           0       -2.719374    0.301471    4.407650
      8         26           0       -0.940744    0.109620   -0.143438
      9          6           0        2.380381    0.118184    0.088961
     10          6           0       -1.008055    3.489105   -0.163676
     11          6           0       -4.289239    0.101342   -0.725102
     12          6           0       -0.862758   -3.218087   -0.697857
     13          7           0        0.444264    1.573916    0.027429
     14          6           0        1.762538    1.374358    0.093648
     15          6           0        2.423966    2.583209    0.169359
     16          6           0        1.429592    3.569364    0.162103
     17          6           0        0.247385    2.895532   -0.008704
     18          6           0        1.593570    5.074121    0.352848
     19          6           0        3.936172    2.741186    0.300432
     20          6           0        4.689093    2.756661   -1.005189
     21          6           0        6.204857    2.885166   -0.837538
     22          8           0        6.695761    3.841906   -0.231702
     23          8           0        6.942937    2.027706   -1.328503
     24          7           0       -2.447189    1.556402   -0.174801
     25          6           0       -2.260885    2.870721   -0.217065
     26          6           0       -3.473618    3.561387   -0.266798
     27          6           0       -4.443870    2.558728   -0.386106
     28          6           0       -3.738046    1.355687   -0.441770
     29          6           0       -3.575034    5.087424   -0.105985
     30          6           0       -5.840408    2.620391   -0.367901
     31          6           0       -6.253880    3.929699   -0.648392
     32          7           0       -2.340887   -1.320041   -0.625772
     33          6           0       -3.663379   -1.150258   -0.829661
     34          6           0       -4.316749   -2.344584   -1.157791
     35          6           0       -3.274860   -3.278976   -1.227492
     36          6           0       -2.116573   -2.606978   -0.840503
     37          6           0       -5.813172   -2.519527   -1.491839
     38          6           0       -3.249795   -4.636576   -1.593382
     39          6           0       -4.345803   -5.527297   -1.807379
     40          7           0        0.530323   -1.345911   -0.275375
     41          6           0        0.348929   -2.656899   -0.388897
     42          6           0        1.509016   -3.353596   -0.119634
     43          6           0        2.465142   -2.370638    0.132407
     44          6           0        1.818935   -1.157387   -0.020547
     45          6           0        1.647940   -4.853090    0.019009
     46          6           0        3.907440   -2.594309    0.555166
     47          6           0        4.849139   -2.721200   -0.635239
     48          6           0        6.315647   -2.656009   -0.273219
     49          8           0        7.073200   -2.162660   -1.085880
     50          8           0        6.716690   -3.091898    0.804733
     51          8           0       -0.662430    0.698115   -2.271724
     52          1           0        7.471353    4.285507   -0.582807
     53          1           0        4.479424    1.848728   -1.531113
     54          1           0        4.339267    3.580593   -1.591411
     55          1           0        4.135385    3.658144    0.814634
     56          1           0        4.308742    1.932740    0.894155
     57          1           0        1.424046    5.572307   -0.578803
     58          1           0        0.886101    5.421070    1.076736
     59          1           0        2.585566    5.284342    0.694388
     60          1           0       -1.011017    4.555357   -0.253102
     61          1           0       -3.933272    5.519060   -1.017168
     62          1           0       -4.253341    5.318019    0.688764
     63          1           0       -2.609053    5.486983    0.122341
     64          1           0       -6.197540    2.332978    0.598924
     65          1           0       -6.557990    4.409652    0.258285
     66          1           0       -5.442874    4.473947   -1.085385
     67          1           0       -5.347013    0.095530   -0.886291
     68          1           0       -5.953727   -3.432580   -2.031726
     69          1           0       -6.379838   -2.550683   -0.584745
     70          1           0       -6.143517   -1.696616   -2.090663
     71          1           0       -0.897122    0.389467   -3.149935
     72          1           0       -1.372329    1.242562   -1.923556
     73          1           0       -4.996915   -5.502004   -0.958667
     74          1           0       -4.885786   -5.225119   -2.680309
     75          1           0       -2.656723   -5.110818   -0.839552
     76          1           0       -0.849985   -4.276739   -0.852753
     77          1           0        2.317510   -5.220073   -0.730591
     78          1           0        2.035122   -5.087277    0.988621
     79          1           0        0.689484   -5.312870   -0.102907
     80          1           0        3.446003    0.137299    0.183753
     81          1           0        3.962406   -3.490703    1.136851
     82          1           0        4.222757   -1.769406    1.159327
     83          1           0        4.660182   -3.656450   -1.119493
     84          1           0        4.634000   -1.931215   -1.324106
     85          1           0        7.204886   -3.917874    0.836796
     86          1           0       -2.262267    1.488441    2.292450
     87          1           0       -0.371839   -2.213461    2.197564
     88          1           0       -0.663531   -2.972859    4.687710
     89          1           0       -1.040319   -1.697718    5.821338
     90          1           0       -2.325508   -2.652647    5.121719
 ---------------------------------------------------------------------
 Rotational constants (GHZ):           0.0753431           0.0461685           0.0339717
 Standard basis: def2TZVP (5D, 7F)
 There are  2056 symmetry adapted cartesian basis functions of A   symmetry.
 There are  1804 symmetry adapted basis functions of A   symmetry.
  1804 basis functions,  2921 primitive gaussians,  2056 cartesian basis functions
   190 alpha electrons      186 beta electrons
       nuclear repulsion energy      7604.7015608305 Hartrees.
 NAtoms=   90 NActive=   90 NUniq=   90 SFac= 1.00D+00 NAtFMM=   60 NAOKFM=T Big=T
 Integral buffers will be    131072 words long.
 Raffenetti 2 integral format.
 Two-electron integral symmetry is turned on.
 Nuclear repulsion after empirical dispersion term =     7604.5764181603 Hartrees.
 One-electron integrals computed using PRISM.
   1 Symmetry operations used in ECPInt.
 ECPInt:  NShTT=  255255 NPrTT=  790653 LenC2=  185418 LenP2D=  372529.
 LDataN:  DoStor=T MaxTD1= 6 Len=  172
 NBasis=  1804 RedAO= T EigKep=  2.63D-06  NBF=  1804
 NBsUse=  1804 1.00D-06 EigRej= -1.00D+00 NBFU=  1804
 Initial guess from the checkpoint file:  "1cck_II_Q.chk"
 B after Tr=     0.000000   -0.000000    0.000000
         Rot=    1.000000    0.000000    0.000000    0.000000 Ang=   0.00 deg.
 Initial guess <Sx>= 0.0000 <Sy>= 0.0000 <Sz>= 2.0000 <S**2>= 6.1312 S= 2.0261
 Requested convergence on RMS density matrix=1.00D-08 within 999 cycles.
 Requested convergence on MAX density matrix=1.00D-06.
 Requested convergence on             energy=1.00D-06.
 No special actions if energy rises.
 SCF Done:  E(UPBE1PBE) =  -3438.46818715     A.U. after    1 cycles
            NFock=  1  Conv=0.11D-08     -V/T= 2.0025
 <Sx>= 0.0000 <Sy>= 0.0000 <Sz>= 2.0000 <S**2>= 6.1312 S= 2.0261
 <L.S>= 0.000000000000E+00
 Annihilation of the first spin contaminant:
 S**2 before annihilation     6.1312,   after     6.0052

 **********************************************************************

            Population analysis using the SCF density.

 **********************************************************************

 Orbital symmetries:
 Alpha Orbitals:
       Occupied  (A) (A) (A) (A) (A) (A) (A) (A) (A) (A) (A) (A)
                 (A) (A) (A) (A) (A) (A) (A) (A) (A) (A) (A) (A)
                 (A) (A) (A) (A) (A) (A) (A) (A) (A) (A) (A) (A)
                 (A) (A) (A) (A) (A) (A) (A) (A) (A) (A) (A) (A)
                 (A) (A) (A) (A) (A) (A) (A) (A) (A) (A) (A) (A)
                 (A) (A) (A) (A) (A) (A) (A) (A) (A) (A) (A) (A)
                 (A) (A) (A) (A) (A) (A) (A) (A) (A) (A) (A) (A)
                 (A) (A) (A) (A) (A) (A) (A) (A) (A) (A) (A) (A)
                 (A) (A) (A) (A) (A) (A) (A) (A) (A) (A) (A) (A)
                 (A) (A) (A) (A) (A) (A) (A) (A) (A) (A) (A) (A)
                 (A) (A) (A) (A) (A) (A) (A) (A) (A) (A) (A) (A)
                 (A) (A) (A) (A) (A) (A) (A) (A) (A) (A) (A) (A)
                 (A) (A) (A) (A) (A) (A) (A) (A) (A) (A) (A) (A)
                 (A) (A) (A) (A) (A) (A) (A) (A) (A) (A) (A) (A)
                 (A) (A) (A) (A) (A) (A) (A) (A) (A) (A) (A) (A)
                 (A) (A) (A) (A) (A) (A) (A) (A) (A) (A)
       Virtual   (A) (A) (A) (A) (A) (A) (A) (A) (A) (A) (A) (A)
                 (A) (A) (A) (A) (A) (A) (A) (A) (A) (A) (A) (A)
                 (A) (A) (A) (A) (A) (A) (A) (A) (A) (A) (A) (A)
                 (A) (A) (A) (A) (A) (A) (A) (A) (A) (A) (A) (A)
                 (A) (A) (A) (A) (A) (A) (A) (A) (A) (A) (A) (A)
                 (A) (A) (A) (A) (A) (A) (A) (A) (A) (A) (A) (A)
                 (A) (A) (A) (A) (A) (A) (A) (A) (A) (A) (A) (A)
                 (A) (A) (A) (A) (A) (A) (A) (A) (A) (A) (A) (A)
                 (A) (A) (A) (A) (A) (A) (A) (A) (A) (A) (A) (A)
                 (A) (A) (A) (A) (A) (A) (A) (A) (A) (A) (A) (A)
                 (A) (A) (A) (A) (A) (A) (A) (A) (A) (A) (A) (A)
                 (A) (A) (A) (A) (A) (A) (A) (A) (A) (A) (A) (A)
                 (A) (A) (A) (A) (A) (A) (A) (A) (A) (A) (A) (A)
                 (A) (A) (A) (A) (A) (A) (A) (A) (A) (A) (A) (A)
                 (A) (A) (A) (A) (A) (A) (A) (A) (A) (A) (A) (A)
                 (A) (A) (A) (A) (A) (A) (A) (A) (A) (A) (A) (A)
                 (A) (A) (A) (A) (A) (A) (A) (A) (A) (A) (A) (A)
                 (A) (A) (A) (A) (A) (A) (A) (A) (A) (A) (A) (A)
                 (A) (A) (A) (A) (A) (A) (A) (A) (A) (A) (A) (A)
                 (A) (A) (A) (A) (A) (A) (A) (A) (A) (A) (A) (A)
                 (A) (A) (A) (A) (A) (A) (A) (A) (A) (A) (A) (A)
                 (A) (A) (A) (A) (A) (A) (A) (A) (A) (A) (A) (A)
                 (A) (A) (A) (A) (A) (A) (A) (A) (A) (A) (A) (A)
                 (A) (A) (A) (A) (A) (A) (A) (A) (A) (A) (A) (A)
                 (A) (A) (A) (A) (A) (A) (A) (A) (A) (A) (A) (A)
                 (A) (A) (A) (A) (A) (A) (A) (A) (A) (A) (A) (A)
                 (A) (A) (A) (A) (A) (A) (A) (A) (A) (A) (A) (A)
                 (A) (A) (A) (A) (A) (A) (A) (A) (A) (A) (A) (A)
                 (A) (A) (A) (A) (A) (A) (A) (A) (A) (A) (A) (A)
                 (A) (A) (A) (A) (A) (A) (A) (A) (A) (A) (A) (A)
                 (A) (A) (A) (A) (A) (A) (A) (A) (A) (A) (A) (A)
                 (A) (A) (A) (A) (A) (A) (A) (A) (A) (A) (A) (A)
                 (A) (A) (A) (A) (A) (A) (A) (A) (A) (A) (A) (A)
                 (A) (A) (A) (A) (A) (A) (A) (A) (A) (A) (A) (A)
                 (A) (A) (A) (A) (A) (A) (A) (A) (A) (A) (A) (A)
                 (A) (A) (A) (A) (A) (A) (A) (A) (A) (A) (A) (A)
                 (A) (A) (A) (A) (A) (A) (A) (A) (A) (A) (A) (A)
                 (A) (A) (A) (A) (A) (A) (A) (A) (A) (A) (A) (A)
                 (A) (A) (A) (A) (A) (A) (A) (A) (A) (A) (A) (A)
                 (A) (A) (A) (A) (A) (A) (A) (A) (A) (A) (A) (A)
                 (A) (A) (A) (A) (A) (A) (A) (A) (A) (A) (A) (A)
                 (A) (A) (A) (A) (A) (A) (A) (A) (A) (A) (A) (A)
                 (A) (A) (A) (A) (A) (A) (A) (A) (A) (A) (A) (A)
                 (A) (A) (A) (A) (A) (A) (A) (A) (A) (A) (A) (A)
                 (A) (A) (A) (A) (A) (A) (A) (A) (A) (A) (A) (A)
                 (A) (A) (A) (A) (A) (A) (A) (A) (A) (A) (A) (A)
                 (A) (A) (A) (A) (A) (A) (A) (A) (A) (A) (A) (A)
                 (A) (A) (A) (A) (A) (A) (A) (A) (A) (A) (A) (A)
                 (A) (A) (A) (A) (A) (A) (A) (A) (A) (A) (A) (A)
                 (A) (A) (A) (A) (A) (A) (A) (A) (A) (A) (A) (A)
                 (A) (A) (A) (A) (A) (A) (A) (A) (A) (A) (A) (A)
                 (A) (A) (A) (A) (A) (A) (A) (A) (A) (A) (A) (A)
                 (A) (A) (A) (A) (A) (A) (A) (A) (A) (A) (A) (A)
                 (A) (A) (A) (A) (A) (A) (A) (A) (A) (A) (A) (A)
                 (A) (A) (A) (A) (A) (A) (A) (A) (A) (A) (A) (A)
                 (A) (A) (A) (A) (A) (A) (A) (A) (A) (A) (A) (A)
                 (A) (A) (A) (A) (A) (A) (A) (A) (A) (A) (A) (A)
                 (A) (A) (A) (A) (A) (A) (A) (A) (A) (A) (A) (A)
                 (A) (A) (A) (A) (A) (A) (A) (A) (A) (A) (A) (A)
                 (A) (A) (A) (A) (A) (A) (A) (A) (A) (A) (A) (A)
                 (A) (A) (A) (A) (A) (A) (A) (A) (A) (A) (A) (A)
                 (A) (A) (A) (A) (A) (A) (A) (A) (A) (A) (A) (A)
                 (A) (A) (A) (A) (A) (A) (A) (A) (A) (A) (A) (A)
                 (A) (A) (A) (A) (A) (A) (A) (A) (A) (A) (A) (A)
                 (A) (A) (A) (A) (A) (A) (A) (A) (A) (A) (A) (A)
                 (A) (A) (A) (A) (A) (A) (A) (A) (A) (A) (A) (A)
                 (A) (A) (A) (A) (A) (A) (A) (A) (A) (A) (A) (A)
                 (A) (A) (A) (A) (A) (A) (A) (A) (A) (A) (A) (A)
                 (A) (A) (A) (A) (A) (A) (A) (A) (A) (A) (A) (A)
                 (A) (A) (A) (A) (A) (A) (A) (A) (A) (A) (A) (A)
                 (A) (A) (A) (A) (A) (A) (A) (A) (A) (A) (A) (A)
                 (A) (A) (A) (A) (A) (A) (A) (A) (A) (A) (A) (A)
                 (A) (A) (A) (A) (A) (A) (A) (A) (A) (A) (A) (A)
                 (A) (A) (A) (A) (A) (A) (A) (A) (A) (A) (A) (A)
                 (A) (A) (A) (A) (A) (A) (A) (A) (A) (A) (A) (A)
                 (A) (A) (A) (A) (A) (A) (A) (A) (A) (A) (A) (A)
                 (A) (A) (A) (A) (A) (A) (A) (A) (A) (A) (A) (A)
                 (A) (A) (A) (A) (A) (A) (A) (A) (A) (A) (A) (A)
                 (A) (A) (A) (A) (A) (A) (A) (A) (A) (A) (A) (A)
                 (A) (A) (A) (A) (A) (A) (A) (A) (A) (A) (A) (A)
                 (A) (A) (A) (A) (A) (A) (A) (A) (A) (A) (A) (A)
                 (A) (A) (A) (A) (A) (A) (A) (A) (A) (A) (A) (A)
                 (A) (A) (A) (A) (A) (A) (A) (A) (A) (A) (A) (A)
                 (A) (A) (A) (A) (A) (A) (A) (A) (A) (A) (A) (A)
                 (A) (A) (A) (A) (A) (A) (A) (A) (A) (A) (A) (A)
                 (A) (A) (A) (A) (A) (A) (A) (A) (A) (A) (A) (A)
                 (A) (A) (A) (A) (A) (A) (A) (A) (A) (A) (A) (A)
                 (A) (A) (A) (A) (A) (A) (A) (A) (A) (A) (A) (A)
                 (A) (A) (A) (A) (A) (A) (A) (A) (A) (A) (A) (A)
                 (A) (A) (A) (A) (A) (A) (A) (A) (A) (A) (A) (A)
                 (A) (A) (A) (A) (A) (A) (A) (A) (A) (A) (A) (A)
                 (A) (A) (A) (A) (A) (A) (A) (A) (A) (A) (A) (A)
                 (A) (A) (A) (A) (A) (A) (A) (A) (A) (A) (A) (A)
                 (A) (A) (A) (A) (A) (A) (A) (A) (A) (A) (A) (A)
                 (A) (A) (A) (A) (A) (A) (A) (A) (A) (A) (A) (A)
                 (A) (A) (A) (A) (A) (A) (A) (A) (A) (A) (A) (A)
                 (A) (A) (A) (A) (A) (A) (A) (A) (A) (A) (A) (A)
                 (A) (A) (A) (A) (A) (A) (A) (A) (A) (A) (A) (A)
                 (A) (A) (A) (A) (A) (A) (A) (A) (A) (A) (A) (A)
                 (A) (A) (A) (A) (A) (A) (A) (A) (A) (A) (A) (A)
                 (A) (A) (A) (A) (A) (A) (A) (A) (A) (A) (A) (A)
                 (A) (A) (A) (A) (A) (A) (A) (A) (A) (A) (A) (A)
                 (A) (A) (A) (A) (A) (A) (A) (A) (A) (A) (A) (A)
                 (A) (A) (A) (A) (A) (A) (A) (A) (A) (A) (A) (A)
                 (A) (A) (A) (A) (A) (A) (A) (A) (A) (A) (A) (A)
                 (A) (A) (A) (A) (A) (A) (A) (A) (A) (A) (A) (A)
                 (A) (A) (A) (A) (A) (A) (A) (A) (A) (A) (A) (A)
                 (A) (A) (A) (A) (A) (A) (A) (A) (A) (A) (A) (A)
                 (A) (A) (A) (A) (A) (A) (A) (A) (A) (A) (A) (A)
                 (A) (A) (A) (A) (A) (A) (A) (A) (A) (A) (A) (A)
                 (A) (A) (A) (A) (A) (A) (A) (A) (A) (A) (A) (A)
                 (A) (A) (A) (A) (A) (A) (A) (A) (A) (A) (A) (A)
                 (A) (A) (A) (A) (A) (A) (A) (A) (A) (A) (A) (A)
                 (A) (A) (A) (A) (A) (A) (A) (A) (A) (A) (A) (A)
                 (A) (A) (A) (A) (A) (A) (A) (A) (A) (A) (A) (A)
                 (A) (A) (A) (A) (A) (A) (A) (A) (A) (A) (A) (A)
                 (A) (A) (A) (A) (A) (A) (A) (A) (A) (A) (A) (A)
                 (A) (A) (A) (A) (A) (A) (A) (A) (A) (A) (A) (A)
                 (A) (A) (A) (A) (A) (A) (A) (A) (A) (A) (A) (A)
                 (A) (A) (A) (A) (A) (A) (A) (A) (A) (A) (A) (A)
                 (A) (A) (A) (A) (A) (A) (A) (A) (A) (A) (A) (A)
                 (A) (A) (A) (A) (A) (A) (A) (A) (A) (A) (A) (A)
                 (A) (A) (A) (A) (A) (A) (A) (A) (A) (A) (A) (A)
                 (A) (A) (A) (A) (A) (A) (A) (A) (A) (A) (A) (A)
                 (A) (A) (A) (A) (A) (A) (A) (A) (A) (A) (A) (A)
                 (A) (A) (A) (A) (A) (A) (A) (A) (A) (A) (A) (A)
                 (A) (A) (A) (A) (A) (A) (A) (A) (A) (A) (A) (A)
                 (A) (A) (A) (A) (A) (A) (A) (A) (A) (A) (A) (A)
                 (A) (A) (A) (A) (A) (A) (A) (A) (A) (A) (A) (A)
                 (A) (A) (A) (A) (A) (A) (A) (A) (A) (A) (A) (A)
                 (A) (A) (A) (A) (A) (A) (A) (A) (A) (A) (A) (A)
                 (A) (A) (A) (A) (A) (A) (A) (A) (A) (A) (A) (A)
                 (A) (A) (A) (A) (A) (A) (A) (A) (A) (A) (A) (A)
                 (A) (A) (A) (A) (A) (A) (A) (A) (A) (A) (A) (A)
                 (A) (A) (A) (A) (A) (A)
 Beta  Orbitals:
       Occupied  (A) (A) (A) (A) (A) (A) (A) (A) (A) (A) (A) (A)
                 (A) (A) (A) (A) (A) (A) (A) (A) (A) (A) (A) (A)
                 (A) (A) (A) (A) (A) (A) (A) (A) (A) (A) (A) (A)
                 (A) (A) (A) (A) (A) (A) (A) (A) (A) (A) (A) (A)
                 (A) (A) (A) (A) (A) (A) (A) (A) (A) (A) (A) (A)
                 (A) (A) (A) (A) (A) (A) (A) (A) (A) (A) (A) (A)
                 (A) (A) (A) (A) (A) (A) (A) (A) (A) (A) (A) (A)
                 (A) (A) (A) (A) (A) (A) (A) (A) (A) (A) (A) (A)
                 (A) (A) (A) (A) (A) (A) (A) (A) (A) (A) (A) (A)
                 (A) (A) (A) (A) (A) (A) (A) (A) (A) (A) (A) (A)
                 (A) (A) (A) (A) (A) (A) (A) (A) (A) (A) (A) (A)
                 (A) (A) (A) (A) (A) (A) (A) (A) (A) (A) (A) (A)
                 (A) (A) (A) (A) (A) (A) (A) (A) (A) (A) (A) (A)
                 (A) (A) (A) (A) (A) (A) (A) (A) (A) (A) (A) (A)
                 (A) (A) (A) (A) (A) (A) (A) (A) (A) (A) (A) (A)
                 (A) (A) (A) (A) (A) (A)
       Virtual   (A) (A) (A) (A) (A) (A) (A) (A) (A) (A) (A) (A)
                 (A) (A) (A) (A) (A) (A) (A) (A) (A) (A) (A) (A)
                 (A) (A) (A) (A) (A) (A) (A) (A) (A) (A) (A) (A)
                 (A) (A) (A) (A) (A) (A) (A) (A) (A) (A) (A) (A)
                 (A) (A) (A) (A) (A) (A) (A) (A) (A) (A) (A) (A)
                 (A) (A) (A) (A) (A) (A) (A) (A) (A) (A) (A) (A)
                 (A) (A) (A) (A) (A) (A) (A) (A) (A) (A) (A) (A)
                 (A) (A) (A) (A) (A) (A) (A) (A) (A) (A) (A) (A)
                 (A) (A) (A) (A) (A) (A) (A) (A) (A) (A) (A) (A)
                 (A) (A) (A) (A) (A) (A) (A) (A) (A) (A) (A) (A)
                 (A) (A) (A) (A) (A) (A) (A) (A) (A) (A) (A) (A)
                 (A) (A) (A) (A) (A) (A) (A) (A) (A) (A) (A) (A)
                 (A) (A) (A) (A) (A) (A) (A) (A) (A) (A) (A) (A)
                 (A) (A) (A) (A) (A) (A) (A) (A) (A) (A) (A) (A)
                 (A) (A) (A) (A) (A) (A) (A) (A) (A) (A) (A) (A)
                 (A) (A) (A) (A) (A) (A) (A) (A) (A) (A) (A) (A)
                 (A) (A) (A) (A) (A) (A) (A) (A) (A) (A) (A) (A)
                 (A) (A) (A) (A) (A) (A) (A) (A) (A) (A) (A) (A)
                 (A) (A) (A) (A) (A) (A) (A) (A) (A) (A) (A) (A)
                 (A) (A) (A) (A) (A) (A) (A) (A) (A) (A) (A) (A)
                 (A) (A) (A) (A) (A) (A) (A) (A) (A) (A) (A) (A)
                 (A) (A) (A) (A) (A) (A) (A) (A) (A) (A) (A) (A)
                 (A) (A) (A) (A) (A) (A) (A) (A) (A) (A) (A) (A)
                 (A) (A) (A) (A) (A) (A) (A) (A) (A) (A) (A) (A)
                 (A) (A) (A) (A) (A) (A) (A) (A) (A) (A) (A) (A)
                 (A) (A) (A) (A) (A) (A) (A) (A) (A) (A) (A) (A)
                 (A) (A) (A) (A) (A) (A) (A) (A) (A) (A) (A) (A)
                 (A) (A) (A) (A) (A) (A) (A) (A) (A) (A) (A) (A)
                 (A) (A) (A) (A) (A) (A) (A) (A) (A) (A) (A) (A)
                 (A) (A) (A) (A) (A) (A) (A) (A) (A) (A) (A) (A)
                 (A) (A) (A) (A) (A) (A) (A) (A) (A) (A) (A) (A)
                 (A) (A) (A) (A) (A) (A) (A) (A) (A) (A) (A) (A)
                 (A) (A) (A) (A) (A) (A) (A) (A) (A) (A) (A) (A)
                 (A) (A) (A) (A) (A) (A) (A) (A) (A) (A) (A) (A)
                 (A) (A) (A) (A) (A) (A) (A) (A) (A) (A) (A) (A)
                 (A) (A) (A) (A) (A) (A) (A) (A) (A) (A) (A) (A)
                 (A) (A) (A) (A) (A) (A) (A) (A) (A) (A) (A) (A)
                 (A) (A) (A) (A) (A) (A) (A) (A) (A) (A) (A) (A)
                 (A) (A) (A) (A) (A) (A) (A) (A) (A) (A) (A) (A)
                 (A) (A) (A) (A) (A) (A) (A) (A) (A) (A) (A) (A)
                 (A) (A) (A) (A) (A) (A) (A) (A) (A) (A) (A) (A)
                 (A) (A) (A) (A) (A) (A) (A) (A) (A) (A) (A) (A)
                 (A) (A) (A) (A) (A) (A) (A) (A) (A) (A) (A) (A)
                 (A) (A) (A) (A) (A) (A) (A) (A) (A) (A) (A) (A)
                 (A) (A) (A) (A) (A) (A) (A) (A) (A) (A) (A) (A)
                 (A) (A) (A) (A) (A) (A) (A) (A) (A) (A) (A) (A)
                 (A) (A) (A) (A) (A) (A) (A) (A) (A) (A) (A) (A)
                 (A) (A) (A) (A) (A) (A) (A) (A) (A) (A) (A) (A)
                 (A) (A) (A) (A) (A) (A) (A) (A) (A) (A) (A) (A)
                 (A) (A) (A) (A) (A) (A) (A) (A) (A) (A) (A) (A)
                 (A) (A) (A) (A) (A) (A) (A) (A) (A) (A) (A) (A)
                 (A) (A) (A) (A) (A) (A) (A) (A) (A) (A) (A) (A)
                 (A) (A) (A) (A) (A) (A) (A) (A) (A) (A) (A) (A)
                 (A) (A) (A) (A) (A) (A) (A) (A) (A) (A) (A) (A)
                 (A) (A) (A) (A) (A) (A) (A) (A) (A) (A) (A) (A)
                 (A) (A) (A) (A) (A) (A) (A) (A) (A) (A) (A) (A)
                 (A) (A) (A) (A) (A) (A) (A) (A) (A) (A) (A) (A)
                 (A) (A) (A) (A) (A) (A) (A) (A) (A) (A) (A) (A)
                 (A) (A) (A) (A) (A) (A) (A) (A) (A) (A) (A) (A)
                 (A) (A) (A) (A) (A) (A) (A) (A) (A) (A) (A) (A)
                 (A) (A) (A) (A) (A) (A) (A) (A) (A) (A) (A) (A)
                 (A) (A) (A) (A) (A) (A) (A) (A) (A) (A) (A) (A)
                 (A) (A) (A) (A) (A) (A) (A) (A) (A) (A) (A) (A)
                 (A) (A) (A) (A) (A) (A) (A) (A) (A) (A) (A) (A)
                 (A) (A) (A) (A) (A) (A) (A) (A) (A) (A) (A) (A)
                 (A) (A) (A) (A) (A) (A) (A) (A) (A) (A) (A) (A)
                 (A) (A) (A) (A) (A) (A) (A) (A) (A) (A) (A) (A)
                 (A) (A) (A) (A) (A) (A) (A) (A) (A) (A) (A) (A)
                 (A) (A) (A) (A) (A) (A) (A) (A) (A) (A) (A) (A)
                 (A) (A) (A) (A) (A) (A) (A) (A) (A) (A) (A) (A)
                 (A) (A) (A) (A) (A) (A) (A) (A) (A) (A) (A) (A)
                 (A) (A) (A) (A) (A) (A) (A) (A) (A) (A) (A) (A)
                 (A) (A) (A) (A) (A) (A) (A) (A) (A) (A) (A) (A)
                 (A) (A) (A) (A) (A) (A) (A) (A) (A) (A) (A) (A)
                 (A) (A) (A) (A) (A) (A) (A) (A) (A) (A) (A) (A)
                 (A) (A) (A) (A) (A) (A) (A) (A) (A) (A) (A) (A)
                 (A) (A) (A) (A) (A) (A) (A) (A) (A) (A) (A) (A)
                 (A) (A) (A) (A) (A) (A) (A) (A) (A) (A) (A) (A)
                 (A) (A) (A) (A) (A) (A) (A) (A) (A) (A) (A) (A)
                 (A) (A) (A) (A) (A) (A) (A) (A) (A) (A) (A) (A)
                 (A) (A) (A) (A) (A) (A) (A) (A) (A) (A) (A) (A)
                 (A) (A) (A) (A) (A) (A) (A) (A) (A) (A) (A) (A)
                 (A) (A) (A) (A) (A) (A) (A) (A) (A) (A) (A) (A)
                 (A) (A) (A) (A) (A) (A) (A) (A) (A) (A) (A) (A)
                 (A) (A) (A) (A) (A) (A) (A) (A) (A) (A) (A) (A)
                 (A) (A) (A) (A) (A) (A) (A) (A) (A) (A) (A) (A)
                 (A) (A) (A) (A) (A) (A) (A) (A) (A) (A) (A) (A)
                 (A) (A) (A) (A) (A) (A) (A) (A) (A) (A) (A) (A)
                 (A) (A) (A) (A) (A) (A) (A) (A) (A) (A) (A) (A)
                 (A) (A) (A) (A) (A) (A) (A) (A) (A) (A) (A) (A)
                 (A) (A) (A) (A) (A) (A) (A) (A) (A) (A) (A) (A)
                 (A) (A) (A) (A) (A) (A) (A) (A) (A) (A) (A) (A)
                 (A) (A) (A) (A) (A) (A) (A) (A) (A) (A) (A) (A)
                 (A) (A) (A) (A) (A) (A) (A) (A) (A) (A) (A) (A)
                 (A) (A) (A) (A) (A) (A) (A) (A) (A) (A) (A) (A)
                 (A) (A) (A) (A) (A) (A) (A) (A) (A) (A) (A) (A)
                 (A) (A) (A) (A) (A) (A) (A) (A) (A) (A) (A) (A)
                 (A) (A) (A) (A) (A) (A) (A) (A) (A) (A) (A) (A)
                 (A) (A) (A) (A) (A) (A) (A) (A) (A) (A) (A) (A)
                 (A) (A) (A) (A) (A) (A) (A) (A) (A) (A) (A) (A)
                 (A) (A) (A) (A) (A) (A) (A) (A) (A) (A) (A) (A)
                 (A) (A) (A) (A) (A) (A) (A) (A) (A) (A) (A) (A)
                 (A) (A) (A) (A) (A) (A) (A) (A) (A) (A) (A) (A)
                 (A) (A) (A) (A) (A) (A) (A) (A) (A) (A) (A) (A)
                 (A) (A) (A) (A) (A) (A) (A) (A) (A) (A) (A) (A)
                 (A) (A) (A) (A) (A) (A) (A) (A) (A) (A) (A) (A)
                 (A) (A) (A) (A) (A) (A) (A) (A) (A) (A) (A) (A)
                 (A) (A) (A) (A) (A) (A) (A) (A) (A) (A) (A) (A)
                 (A) (A) (A) (A) (A) (A) (A) (A) (A) (A) (A) (A)
                 (A) (A) (A) (A) (A) (A) (A) (A) (A) (A) (A) (A)
                 (A) (A) (A) (A) (A) (A) (A) (A) (A) (A) (A) (A)
                 (A) (A) (A) (A) (A) (A) (A) (A) (A) (A) (A) (A)
                 (A) (A) (A) (A) (A) (A) (A) (A) (A) (A) (A) (A)
                 (A) (A) (A) (A) (A) (A) (A) (A) (A) (A) (A) (A)
                 (A) (A) (A) (A) (A) (A) (A) (A) (A) (A) (A) (A)
                 (A) (A) (A) (A) (A) (A) (A) (A) (A) (A) (A) (A)
                 (A) (A) (A) (A) (A) (A) (A) (A) (A) (A) (A) (A)
                 (A) (A) (A) (A) (A) (A) (A) (A) (A) (A) (A) (A)
                 (A) (A) (A) (A) (A) (A) (A) (A) (A) (A) (A) (A)
                 (A) (A) (A) (A) (A) (A) (A) (A) (A) (A) (A) (A)
                 (A) (A) (A) (A) (A) (A) (A) (A) (A) (A) (A) (A)
                 (A) (A) (A) (A) (A) (A) (A) (A) (A) (A) (A) (A)
                 (A) (A) (A) (A) (A) (A) (A) (A) (A) (A) (A) (A)
                 (A) (A) (A) (A) (A) (A) (A) (A) (A) (A) (A) (A)
                 (A) (A) (A) (A) (A) (A) (A) (A) (A) (A) (A) (A)
                 (A) (A) (A) (A) (A) (A) (A) (A) (A) (A) (A) (A)
                 (A) (A) (A) (A) (A) (A) (A) (A) (A) (A) (A) (A)
                 (A) (A) (A) (A) (A) (A) (A) (A) (A) (A) (A) (A)
                 (A) (A) (A) (A) (A) (A) (A) (A) (A) (A) (A) (A)
                 (A) (A) (A) (A) (A) (A) (A) (A) (A) (A) (A) (A)
                 (A) (A) (A) (A) (A) (A) (A) (A) (A) (A) (A) (A)
                 (A) (A) (A) (A) (A) (A) (A) (A) (A) (A) (A) (A)
                 (A) (A) (A) (A) (A) (A) (A) (A) (A) (A) (A) (A)
                 (A) (A) (A) (A) (A) (A) (A) (A) (A) (A) (A) (A)
                 (A) (A) (A) (A) (A) (A) (A) (A) (A) (A)
 The electronic state is 5-A.
 Alpha  occ. eigenvalues -- -256.32093 -30.10957 -25.93621 -25.93592 -25.92284
 Alpha  occ. eigenvalues --  -19.25399 -19.24680 -19.20276 -19.16563 -19.16283
 Alpha  occ. eigenvalues --  -14.45471 -14.38410 -14.37171 -14.36987 -14.35922
 Alpha  occ. eigenvalues --  -14.35228 -10.33883 -10.33461 -10.27794 -10.26299
 Alpha  occ. eigenvalues --  -10.24487 -10.24211 -10.24079 -10.23844 -10.23748
 Alpha  occ. eigenvalues --  -10.23550 -10.23342 -10.23271 -10.23145 -10.23115
 Alpha  occ. eigenvalues --  -10.23065 -10.22919 -10.22680 -10.22652 -10.22473
 Alpha  occ. eigenvalues --  -10.22395 -10.22286 -10.22220 -10.22074 -10.22051
 Alpha  occ. eigenvalues --  -10.22026 -10.21914 -10.21894 -10.21893 -10.21869
 Alpha  occ. eigenvalues --  -10.21816 -10.21670 -10.21659 -10.21561 -10.21503
 Alpha  occ. eigenvalues --  -10.21423 -10.21291 -10.21286 -10.20997  -3.49930
 Alpha  occ. eigenvalues --   -2.28093  -2.26415  -2.23070  -1.17174  -1.17086
 Alpha  occ. eigenvalues --   -1.09361  -1.04397  -1.02908  -1.01723  -1.00644
 Alpha  occ. eigenvalues --   -0.99805  -0.99275  -0.98590  -0.93514  -0.85341
 Alpha  occ. eigenvalues --   -0.84428  -0.83854  -0.83362  -0.83108  -0.81731
 Alpha  occ. eigenvalues --   -0.81609  -0.81379  -0.79495  -0.78562  -0.77912
 Alpha  occ. eigenvalues --   -0.77357  -0.75189  -0.74731  -0.73300  -0.72804
 Alpha  occ. eigenvalues --   -0.72730  -0.72480  -0.70385  -0.69555  -0.69181
 Alpha  occ. eigenvalues --   -0.67072  -0.66927  -0.66664  -0.65574  -0.65107
 Alpha  occ. eigenvalues --   -0.63654  -0.63270  -0.61910  -0.59096  -0.58444
 Alpha  occ. eigenvalues --   -0.57626  -0.57050  -0.56756  -0.55760  -0.55256
 Alpha  occ. eigenvalues --   -0.53800  -0.53293  -0.52641  -0.52397  -0.51723
 Alpha  occ. eigenvalues --   -0.51390  -0.50890  -0.50365  -0.50064  -0.49872
 Alpha  occ. eigenvalues --   -0.49311  -0.48755  -0.48489  -0.48469  -0.48066
 Alpha  occ. eigenvalues --   -0.46889  -0.46546  -0.45866  -0.45657  -0.45334
 Alpha  occ. eigenvalues --   -0.45074  -0.44829  -0.44483  -0.44293  -0.44276
 Alpha  occ. eigenvalues --   -0.44064  -0.44032  -0.43637  -0.43338  -0.43226
 Alpha  occ. eigenvalues --   -0.43074  -0.42794  -0.42653  -0.42281  -0.42208
 Alpha  occ. eigenvalues --   -0.41710  -0.41258  -0.40931  -0.40739  -0.40441
 Alpha  occ. eigenvalues --   -0.40264  -0.39888  -0.39578  -0.39115  -0.38871
 Alpha  occ. eigenvalues --   -0.38582  -0.38290  -0.37867  -0.37779  -0.37642
 Alpha  occ. eigenvalues --   -0.37011  -0.36719  -0.36607  -0.36198  -0.35899
 Alpha  occ. eigenvalues --   -0.35729  -0.35526  -0.34878  -0.34290  -0.34140
 Alpha  occ. eigenvalues --   -0.33664  -0.33103  -0.32735  -0.32496  -0.31844
 Alpha  occ. eigenvalues --   -0.31186  -0.30606  -0.30033  -0.29189  -0.28610
 Alpha  occ. eigenvalues --   -0.27912  -0.26894  -0.26619  -0.26525  -0.25867
 Alpha  occ. eigenvalues --   -0.25546  -0.24402  -0.24303  -0.23649  -0.22641
 Alpha  occ. eigenvalues --   -0.21811  -0.20998  -0.19726  -0.18488  -0.17502
 Alpha virt. eigenvalues --   -0.08621  -0.07051  -0.05425  -0.01356  -0.00878
 Alpha virt. eigenvalues --   -0.00245   0.00625   0.01635   0.01933   0.03424
 Alpha virt. eigenvalues --    0.03781   0.04381   0.04631   0.04835   0.05160
 Alpha virt. eigenvalues --    0.05435   0.05626   0.06062   0.06156   0.06503
 Alpha virt. eigenvalues --    0.07128   0.07775   0.07881   0.07922   0.08355
 Alpha virt. eigenvalues --    0.08718   0.08774   0.08963   0.09381   0.09504
 Alpha virt. eigenvalues --    0.09815   0.10283   0.10821   0.11142   0.11562
 Alpha virt. eigenvalues --    0.11716   0.11875   0.12322   0.12351   0.12679
 Alpha virt. eigenvalues --    0.12879   0.13178   0.13299   0.13356   0.13707
 Alpha virt. eigenvalues --    0.13893   0.14042   0.14138   0.14723   0.14950
 Alpha virt. eigenvalues --    0.15019   0.15278   0.15430   0.15500   0.16009
 Alpha virt. eigenvalues --    0.16065   0.16489   0.16715   0.16834   0.17154
 Alpha virt. eigenvalues --    0.17504   0.17670   0.18209   0.18406   0.18461
 Alpha virt. eigenvalues --    0.18693   0.18806   0.19175   0.19350   0.19671
 Alpha virt. eigenvalues --    0.19857   0.20119   0.20520   0.20689   0.20931
 Alpha virt. eigenvalues --    0.21059   0.21156   0.21537   0.21748   0.21979
 Alpha virt. eigenvalues --    0.22206   0.22419   0.22741   0.23000   0.23291
 Alpha virt. eigenvalues --    0.23513   0.23665   0.23717   0.24005   0.24332
 Alpha virt. eigenvalues --    0.24478   0.24688   0.24805   0.25166   0.25212
 Alpha virt. eigenvalues --    0.25425   0.25701   0.26032   0.26082   0.26308
 Alpha virt. eigenvalues --    0.26632   0.26930   0.27109   0.27284   0.27495
 Alpha virt. eigenvalues --    0.27699   0.27850   0.28095   0.28201   0.28316
 Alpha virt. eigenvalues --    0.28630   0.28675   0.28886   0.29055   0.29522
 Alpha virt. eigenvalues --    0.29587   0.30009   0.30507   0.30552   0.30919
 Alpha virt. eigenvalues --    0.30967   0.31068   0.31400   0.31445   0.31707
 Alpha virt. eigenvalues --    0.31835   0.32024   0.32440   0.32791   0.32887
 Alpha virt. eigenvalues --    0.33181   0.33389   0.33949   0.34154   0.34573
 Alpha virt. eigenvalues --    0.34685   0.34863   0.35265   0.35518   0.35681
 Alpha virt. eigenvalues --    0.35877   0.36287   0.36295   0.36912   0.37106
 Alpha virt. eigenvalues --    0.37471   0.37823   0.37860   0.38106   0.38530
 Alpha virt. eigenvalues --    0.38635   0.38864   0.38957   0.39222   0.39327
 Alpha virt. eigenvalues --    0.39717   0.39849   0.39993   0.40149   0.40302
 Alpha virt. eigenvalues --    0.40682   0.40782   0.41038   0.41169   0.41299
 Alpha virt. eigenvalues --    0.41685   0.41853   0.41953   0.42039   0.42258
 Alpha virt. eigenvalues --    0.42406   0.42657   0.42880   0.43022   0.43381
 Alpha virt. eigenvalues --    0.43520   0.43652   0.43712   0.44091   0.44296
 Alpha virt. eigenvalues --    0.44454   0.44581   0.44739   0.45088   0.45269
 Alpha virt. eigenvalues --    0.45407   0.45578   0.45844   0.46066   0.46172
 Alpha virt. eigenvalues --    0.46334   0.46865   0.46929   0.47301   0.47456
 Alpha virt. eigenvalues --    0.47505   0.47711   0.48083   0.48167   0.48330
 Alpha virt. eigenvalues --    0.48580   0.48642   0.48897   0.49291   0.49359
 Alpha virt. eigenvalues --    0.49466   0.49676   0.49749   0.49989   0.50167
 Alpha virt. eigenvalues --    0.50505   0.50606   0.50739   0.51057   0.51323
 Alpha virt. eigenvalues --    0.51418   0.51662   0.51771   0.51878   0.52031
 Alpha virt. eigenvalues --    0.52149   0.52390   0.52779   0.52902   0.53145
 Alpha virt. eigenvalues --    0.53289   0.53336   0.53608   0.53749   0.53884
 Alpha virt. eigenvalues --    0.54055   0.54236   0.54527   0.54727   0.54795
 Alpha virt. eigenvalues --    0.55118   0.55339   0.55829   0.56126   0.56223
 Alpha virt. eigenvalues --    0.56370   0.56498   0.56778   0.57116   0.57476
 Alpha virt. eigenvalues --    0.57623   0.58015   0.58391   0.58441   0.58681
 Alpha virt. eigenvalues --    0.58952   0.59011   0.59161   0.59337   0.59516
 Alpha virt. eigenvalues --    0.60280   0.60472   0.60575   0.60733   0.61131
 Alpha virt. eigenvalues --    0.61492   0.61516   0.61955   0.62243   0.62337
 Alpha virt. eigenvalues --    0.62604   0.63176   0.63580   0.63764   0.64128
 Alpha virt. eigenvalues --    0.64417   0.64658   0.64826   0.64995   0.65164
 Alpha virt. eigenvalues --    0.65350   0.65434   0.65778   0.66053   0.66189
 Alpha virt. eigenvalues --    0.66336   0.66711   0.66884   0.67341   0.67400
 Alpha virt. eigenvalues --    0.67580   0.67998   0.68205   0.68656   0.68807
 Alpha virt. eigenvalues --    0.68946   0.69455   0.69610   0.69950   0.70059
 Alpha virt. eigenvalues --    0.70403   0.70558   0.70932   0.71046   0.71472
 Alpha virt. eigenvalues --    0.71844   0.72176   0.72398   0.72755   0.73021
 Alpha virt. eigenvalues --    0.73266   0.73677   0.73708   0.74474   0.74723
 Alpha virt. eigenvalues --    0.74897   0.75099   0.75406   0.75917   0.76042
 Alpha virt. eigenvalues --    0.76169   0.76480   0.76653   0.77031   0.77229
 Alpha virt. eigenvalues --    0.77551   0.77949   0.78091   0.78582   0.78841
 Alpha virt. eigenvalues --    0.79290   0.79426   0.79708   0.79957   0.80123
 Alpha virt. eigenvalues --    0.80301   0.80750   0.80890   0.81264   0.81459
 Alpha virt. eigenvalues --    0.81944   0.82356   0.82768   0.83101   0.83270
 Alpha virt. eigenvalues --    0.83982   0.84292   0.84529   0.84629   0.84889
 Alpha virt. eigenvalues --    0.85585   0.85735   0.85798   0.86055   0.86424
 Alpha virt. eigenvalues --    0.86740   0.86999   0.87229   0.87524   0.87886
 Alpha virt. eigenvalues --    0.88217   0.88709   0.88970   0.89367   0.89478
 Alpha virt. eigenvalues --    0.89565   0.90085   0.90298   0.90661   0.90909
 Alpha virt. eigenvalues --    0.91519   0.91615   0.91995   0.92518   0.92876
 Alpha virt. eigenvalues --    0.93200   0.93396   0.93994   0.94194   0.94529
 Alpha virt. eigenvalues --    0.94949   0.95116   0.95215   0.95311   0.95615
 Alpha virt. eigenvalues --    0.96050   0.96741   0.96766   0.97168   0.97356
 Alpha virt. eigenvalues --    0.97689   0.98185   0.98249   0.98647   0.99043
 Alpha virt. eigenvalues --    0.99271   0.99766   1.00090   1.00305   1.00516
 Alpha virt. eigenvalues --    1.00788   1.00978   1.01660   1.02011   1.02125
 Alpha virt. eigenvalues --    1.02590   1.02693   1.02923   1.03652   1.03920
 Alpha virt. eigenvalues --    1.04075   1.04564   1.04637   1.04925   1.05504
 Alpha virt. eigenvalues --    1.05696   1.06048   1.06147   1.06513   1.06628
 Alpha virt. eigenvalues --    1.06771   1.07231   1.07574   1.07787   1.08205
 Alpha virt. eigenvalues --    1.08387   1.08460   1.08642   1.09216   1.09546
 Alpha virt. eigenvalues --    1.09965   1.09997   1.10056   1.10804   1.11040
 Alpha virt. eigenvalues --    1.11253   1.11732   1.12175   1.12622   1.13090
 Alpha virt. eigenvalues --    1.13357   1.13736   1.13916   1.14434   1.14833
 Alpha virt. eigenvalues --    1.14903   1.15412   1.15700   1.16362   1.16434
 Alpha virt. eigenvalues --    1.16889   1.17058   1.17297   1.17981   1.18318
 Alpha virt. eigenvalues --    1.18558   1.18956   1.19225   1.19548   1.20173
 Alpha virt. eigenvalues --    1.20661   1.20940   1.21560   1.22049   1.22369
 Alpha virt. eigenvalues --    1.22426   1.22942   1.23631   1.23804   1.24370
 Alpha virt. eigenvalues --    1.24665   1.25031   1.25303   1.25748   1.26246
 Alpha virt. eigenvalues --    1.26552   1.27475   1.27513   1.27615   1.28194
 Alpha virt. eigenvalues --    1.28612   1.28830   1.29110   1.29492   1.29607
 Alpha virt. eigenvalues --    1.30005   1.30563   1.31251   1.31349   1.31835
 Alpha virt. eigenvalues --    1.32193   1.32483   1.33251   1.33668   1.33815
 Alpha virt. eigenvalues --    1.34183   1.34628   1.34649   1.35543   1.36332
 Alpha virt. eigenvalues --    1.36454   1.37034   1.37524   1.37997   1.38306
 Alpha virt. eigenvalues --    1.38497   1.38915   1.39039   1.39632   1.39921
 Alpha virt. eigenvalues --    1.40256   1.40402   1.40677   1.41484   1.41640
 Alpha virt. eigenvalues --    1.42093   1.42453   1.42780   1.42968   1.43288
 Alpha virt. eigenvalues --    1.43958   1.44179   1.44684   1.44935   1.45023
 Alpha virt. eigenvalues --    1.45957   1.46212   1.46612   1.46713   1.47071
 Alpha virt. eigenvalues --    1.47756   1.48239   1.48383   1.48865   1.49128
 Alpha virt. eigenvalues --    1.49635   1.49831   1.50204   1.50284   1.50671
 Alpha virt. eigenvalues --    1.50956   1.51246   1.51692   1.51992   1.52332
 Alpha virt. eigenvalues --    1.52397   1.52760   1.52818   1.52994   1.53200
 Alpha virt. eigenvalues --    1.53435   1.54151   1.54259   1.54452   1.54770
 Alpha virt. eigenvalues --    1.55024   1.55498   1.55565   1.56125   1.56351
 Alpha virt. eigenvalues --    1.56388   1.56604   1.56815   1.57320   1.57442
 Alpha virt. eigenvalues --    1.57770   1.58096   1.58270   1.58353   1.58640
 Alpha virt. eigenvalues --    1.58926   1.59310   1.59631   1.60092   1.60327
 Alpha virt. eigenvalues --    1.60914   1.60943   1.61153   1.61552   1.61894
 Alpha virt. eigenvalues --    1.62074   1.62604   1.62822   1.62931   1.63353
 Alpha virt. eigenvalues --    1.63664   1.63916   1.64260   1.64331   1.64751
 Alpha virt. eigenvalues --    1.65179   1.65420   1.65703   1.65730   1.66015
 Alpha virt. eigenvalues --    1.66326   1.66698   1.67028   1.67233   1.67399
 Alpha virt. eigenvalues --    1.67733   1.68168   1.68360   1.68623   1.69074
 Alpha virt. eigenvalues --    1.69924   1.69954   1.70243   1.70366   1.70865
 Alpha virt. eigenvalues --    1.71085   1.71296   1.71850   1.72012   1.72362
 Alpha virt. eigenvalues --    1.72959   1.73162   1.73363   1.73489   1.74049
 Alpha virt. eigenvalues --    1.74468   1.74743   1.74855   1.75445   1.75854
 Alpha virt. eigenvalues --    1.76173   1.76500   1.76677   1.77044   1.77804
 Alpha virt. eigenvalues --    1.77929   1.78274   1.78389   1.78787   1.79054
 Alpha virt. eigenvalues --    1.79206   1.80001   1.80944   1.81398   1.81584
 Alpha virt. eigenvalues --    1.81992   1.82462   1.82942   1.83148   1.83481
 Alpha virt. eigenvalues --    1.84161   1.84464   1.84642   1.84718   1.85937
 Alpha virt. eigenvalues --    1.86170   1.86429   1.86962   1.87442   1.87948
 Alpha virt. eigenvalues --    1.88235   1.88814   1.88956   1.89737   1.90201
 Alpha virt. eigenvalues --    1.90450   1.90883   1.90989   1.91169   1.91293
 Alpha virt. eigenvalues --    1.91830   1.92014   1.92680   1.93038   1.93352
 Alpha virt. eigenvalues --    1.93567   1.94003   1.94622   1.94837   1.94879
 Alpha virt. eigenvalues --    1.95453   1.95738   1.95903   1.96826   1.97013
 Alpha virt. eigenvalues --    1.97220   1.97418   1.97668   1.98136   1.98716
 Alpha virt. eigenvalues --    1.99151   1.99301   1.99440   1.99906   2.00342
 Alpha virt. eigenvalues --    2.00509   2.01119   2.01284   2.02151   2.02390
 Alpha virt. eigenvalues --    2.03060   2.03299   2.03953   2.04221   2.04320
 Alpha virt. eigenvalues --    2.04516   2.05015   2.05080   2.05744   2.06243
 Alpha virt. eigenvalues --    2.06589   2.06775   2.07038   2.07724   2.08231
 Alpha virt. eigenvalues --    2.08358   2.08628   2.08811   2.09320   2.09635
 Alpha virt. eigenvalues --    2.10065   2.10621   2.10890   2.11233   2.11793
 Alpha virt. eigenvalues --    2.12331   2.12556   2.12916   2.13185   2.13566
 Alpha virt. eigenvalues --    2.13817   2.14211   2.14683   2.15218   2.15600
 Alpha virt. eigenvalues --    2.15871   2.16306   2.17164   2.17549   2.17630
 Alpha virt. eigenvalues --    2.17915   2.18457   2.18765   2.19087   2.19411
 Alpha virt. eigenvalues --    2.19618   2.19943   2.20555   2.21035   2.21379
 Alpha virt. eigenvalues --    2.21520   2.22111   2.22422   2.22850   2.23197
 Alpha virt. eigenvalues --    2.23698   2.24048   2.24836   2.25282   2.25738
 Alpha virt. eigenvalues --    2.25990   2.26286   2.26526   2.26661   2.27492
 Alpha virt. eigenvalues --    2.27605   2.28067   2.28310   2.28534   2.29741
 Alpha virt. eigenvalues --    2.29987   2.30107   2.30344   2.30575   2.31173
 Alpha virt. eigenvalues --    2.31337   2.31774   2.32221   2.32835   2.33542
 Alpha virt. eigenvalues --    2.33899   2.34069   2.34358   2.34837   2.35011
 Alpha virt. eigenvalues --    2.35552   2.35896   2.36250   2.36479   2.36619
 Alpha virt. eigenvalues --    2.37050   2.37677   2.37829   2.38468   2.38929
 Alpha virt. eigenvalues --    2.39357   2.39392   2.40122   2.40665   2.40860
 Alpha virt. eigenvalues --    2.40975   2.41274   2.42277   2.42756   2.42819
 Alpha virt. eigenvalues --    2.43074   2.43366   2.43783   2.44227   2.44834
 Alpha virt. eigenvalues --    2.45015   2.45353   2.46086   2.46572   2.47296
 Alpha virt. eigenvalues --    2.47405   2.47975   2.48429   2.48879   2.49462
 Alpha virt. eigenvalues --    2.49658   2.50412   2.51046   2.51616   2.51770
 Alpha virt. eigenvalues --    2.52067   2.52214   2.52564   2.53103   2.53366
 Alpha virt. eigenvalues --    2.53464   2.54034   2.54483   2.54765   2.55154
 Alpha virt. eigenvalues --    2.55329   2.55502   2.56064   2.56404   2.56858
 Alpha virt. eigenvalues --    2.57333   2.57799   2.57995   2.58654   2.58843
 Alpha virt. eigenvalues --    2.59166   2.59466   2.59972   2.60129   2.60214
 Alpha virt. eigenvalues --    2.60728   2.61036   2.61378   2.61593   2.62062
 Alpha virt. eigenvalues --    2.62182   2.62446   2.63032   2.63232   2.63611
 Alpha virt. eigenvalues --    2.63896   2.64093   2.64355   2.64904   2.65035
 Alpha virt. eigenvalues --    2.65345   2.65665   2.66067   2.66433   2.66687
 Alpha virt. eigenvalues --    2.66857   2.67177   2.67218   2.67858   2.68029
 Alpha virt. eigenvalues --    2.68771   2.69113   2.69245   2.69884   2.70180
 Alpha virt. eigenvalues --    2.70293   2.70474   2.70650   2.71106   2.71328
 Alpha virt. eigenvalues --    2.71611   2.72037   2.72386   2.72996   2.73165
 Alpha virt. eigenvalues --    2.73751   2.74002   2.74020   2.74574   2.75012
 Alpha virt. eigenvalues --    2.75522   2.75904   2.76117   2.76321   2.76605
 Alpha virt. eigenvalues --    2.77192   2.77403   2.77859   2.78331   2.78471
 Alpha virt. eigenvalues --    2.78684   2.79237   2.79301   2.79658   2.80350
 Alpha virt. eigenvalues --    2.80807   2.81065   2.81506   2.81816   2.82566
 Alpha virt. eigenvalues --    2.83042   2.83124   2.83578   2.83683   2.84034
 Alpha virt. eigenvalues --    2.84529   2.84817   2.85329   2.85843   2.86024
 Alpha virt. eigenvalues --    2.86552   2.86604   2.86941   2.87263   2.87911
 Alpha virt. eigenvalues --    2.88226   2.88512   2.88891   2.89148   2.89441
 Alpha virt. eigenvalues --    2.90029   2.90210   2.90626   2.91173   2.91511
 Alpha virt. eigenvalues --    2.91771   2.92627   2.92760   2.93135   2.93315
 Alpha virt. eigenvalues --    2.93774   2.94103   2.94514   2.94594   2.94772
 Alpha virt. eigenvalues --    2.95357   2.95546   2.95716   2.96107   2.96322
 Alpha virt. eigenvalues --    2.96566   2.96786   2.97212   2.97557   2.97916
 Alpha virt. eigenvalues --    2.98101   2.98420   2.98707   2.99098   2.99384
 Alpha virt. eigenvalues --    2.99780   3.00123   3.00327   3.00691   3.01022
 Alpha virt. eigenvalues --    3.01449   3.01579   3.01732   3.02367   3.02523
 Alpha virt. eigenvalues --    3.02744   3.03253   3.03600   3.03982   3.04217
 Alpha virt. eigenvalues --    3.04561   3.05189   3.05468   3.05828   3.06078
 Alpha virt. eigenvalues --    3.06391   3.06796   3.07044   3.07303   3.07335
 Alpha virt. eigenvalues --    3.08170   3.08458   3.08536   3.09331   3.09658
 Alpha virt. eigenvalues --    3.09805   3.10172   3.10343   3.10660   3.11014
 Alpha virt. eigenvalues --    3.11156   3.11243   3.11790   3.11984   3.12295
 Alpha virt. eigenvalues --    3.12775   3.12997   3.13430   3.13504   3.13854
 Alpha virt. eigenvalues --    3.14375   3.14962   3.15045   3.15305   3.15527
 Alpha virt. eigenvalues --    3.16027   3.16094   3.16616   3.16773   3.17092
 Alpha virt. eigenvalues --    3.17430   3.17893   3.18157   3.18198   3.18491
 Alpha virt. eigenvalues --    3.18578   3.18705   3.19004   3.19386   3.19741
 Alpha virt. eigenvalues --    3.20038   3.20365   3.20589   3.20981   3.21333
 Alpha virt. eigenvalues --    3.21594   3.21742   3.22225   3.22512   3.23099
 Alpha virt. eigenvalues --    3.23110   3.23274   3.23910   3.24063   3.24285
 Alpha virt. eigenvalues --    3.24741   3.25058   3.25654   3.25860   3.25932
 Alpha virt. eigenvalues --    3.26176   3.26572   3.26768   3.27137   3.27253
 Alpha virt. eigenvalues --    3.27503   3.27849   3.28087   3.28249   3.28729
 Alpha virt. eigenvalues --    3.29039   3.29211   3.29300   3.29690   3.30020
 Alpha virt. eigenvalues --    3.30152   3.30578   3.30702   3.31070   3.31271
 Alpha virt. eigenvalues --    3.31884   3.32121   3.32293   3.32966   3.33333
 Alpha virt. eigenvalues --    3.33656   3.33800   3.33979   3.34419   3.34599
 Alpha virt. eigenvalues --    3.34636   3.34837   3.35165   3.35448   3.35694
 Alpha virt. eigenvalues --    3.35812   3.36228   3.36511   3.36573   3.36947
 Alpha virt. eigenvalues --    3.37036   3.37238   3.37768   3.38022   3.38196
 Alpha virt. eigenvalues --    3.38356   3.38622   3.38922   3.39064   3.39354
 Alpha virt. eigenvalues --    3.39519   3.39742   3.40063   3.40187   3.40531
 Alpha virt. eigenvalues --    3.40922   3.41313   3.41364   3.41432   3.41894
 Alpha virt. eigenvalues --    3.42310   3.42570   3.42671   3.43131   3.43377
 Alpha virt. eigenvalues --    3.43771   3.44087   3.44423   3.44864   3.45406
 Alpha virt. eigenvalues --    3.45728   3.46015   3.46435   3.46670   3.47098
 Alpha virt. eigenvalues --    3.47495   3.47948   3.48075   3.48149   3.48579
 Alpha virt. eigenvalues --    3.48695   3.49311   3.49402   3.49948   3.50588
 Alpha virt. eigenvalues --    3.50752   3.51236   3.51409   3.51701   3.52205
 Alpha virt. eigenvalues --    3.52443   3.52691   3.53341   3.53507   3.54024
 Alpha virt. eigenvalues --    3.54753   3.54810   3.55358   3.55679   3.55879
 Alpha virt. eigenvalues --    3.56127   3.56684   3.56959   3.57310   3.57424
 Alpha virt. eigenvalues --    3.58236   3.58276   3.58588   3.58732   3.59418
 Alpha virt. eigenvalues --    3.60185   3.60300   3.60657   3.61071   3.61592
 Alpha virt. eigenvalues --    3.62005   3.62515   3.63077   3.63262   3.63615
 Alpha virt. eigenvalues --    3.64108   3.64267   3.65014   3.65430   3.65853
 Alpha virt. eigenvalues --    3.65963   3.66710   3.66966   3.67325   3.67737
 Alpha virt. eigenvalues --    3.68237   3.68387   3.68781   3.69235   3.69406
 Alpha virt. eigenvalues --    3.69896   3.70438   3.70973   3.71227   3.71360
 Alpha virt. eigenvalues --    3.71861   3.72085   3.72663   3.73238   3.73297
 Alpha virt. eigenvalues --    3.73626   3.73933   3.74041   3.74713   3.74962
 Alpha virt. eigenvalues --    3.75242   3.75763   3.76025   3.76067   3.76135
 Alpha virt. eigenvalues --    3.76647   3.77002   3.77289   3.78038   3.78249
 Alpha virt. eigenvalues --    3.78414   3.78782   3.79231   3.79862   3.80327
 Alpha virt. eigenvalues --    3.80452   3.81156   3.81555   3.82255   3.82639
 Alpha virt. eigenvalues --    3.83072   3.83661   3.83720   3.83785   3.84097
 Alpha virt. eigenvalues --    3.84748   3.85520   3.85989   3.86641   3.86731
 Alpha virt. eigenvalues --    3.87062   3.87505   3.88096   3.88766   3.88937
 Alpha virt. eigenvalues --    3.89407   3.89832   3.90127   3.90365   3.91621
 Alpha virt. eigenvalues --    3.92352   3.93059   3.93195   3.93703   3.94517
 Alpha virt. eigenvalues --    3.94816   3.95561   3.95773   3.96084   3.97429
 Alpha virt. eigenvalues --    3.97644   3.98103   3.98453   3.98841   3.99518
 Alpha virt. eigenvalues --    3.99775   4.00402   4.00859   4.01441   4.01767
 Alpha virt. eigenvalues --    4.02163   4.02729   4.02922   4.03639   4.04407
 Alpha virt. eigenvalues --    4.04718   4.05386   4.05801   4.06142   4.06798
 Alpha virt. eigenvalues --    4.07096   4.07294   4.07755   4.08764   4.09781
 Alpha virt. eigenvalues --    4.10736   4.11028   4.11551   4.11761   4.12436
 Alpha virt. eigenvalues --    4.12925   4.13984   4.14105   4.14257   4.14804
 Alpha virt. eigenvalues --    4.15482   4.15925   4.16389   4.16778   4.16990
 Alpha virt. eigenvalues --    4.17515   4.18418   4.18604   4.19024   4.20101
 Alpha virt. eigenvalues --    4.20355   4.20913   4.21400   4.21742   4.22467
 Alpha virt. eigenvalues --    4.22728   4.23785   4.24254   4.24449   4.24997
 Alpha virt. eigenvalues --    4.25376   4.26090   4.26500   4.27190   4.27313
 Alpha virt. eigenvalues --    4.27875   4.28299   4.29241   4.30078   4.30590
 Alpha virt. eigenvalues --    4.30918   4.31351   4.31766   4.32049   4.32982
 Alpha virt. eigenvalues --    4.33312   4.34057   4.34373   4.35217   4.35570
 Alpha virt. eigenvalues --    4.35922   4.36191   4.36682   4.37687   4.37992
 Alpha virt. eigenvalues --    4.38897   4.39300   4.39794   4.40222   4.40949
 Alpha virt. eigenvalues --    4.41830   4.42312   4.42789   4.43181   4.43946
 Alpha virt. eigenvalues --    4.44909   4.45183   4.45684   4.46040   4.46466
 Alpha virt. eigenvalues --    4.46790   4.47467   4.48388   4.48680   4.48998
 Alpha virt. eigenvalues --    4.49605   4.50546   4.50775   4.51267   4.52036
 Alpha virt. eigenvalues --    4.52384   4.52965   4.54648   4.54880   4.55552
 Alpha virt. eigenvalues --    4.55937   4.56213   4.57137   4.57678   4.58815
 Alpha virt. eigenvalues --    4.59136   4.59566   4.61275   4.62734   4.63490
 Alpha virt. eigenvalues --    4.64354   4.65679   4.66174   4.66463   4.67176
 Alpha virt. eigenvalues --    4.67942   4.68393   4.69132   4.70013   4.70109
 Alpha virt. eigenvalues --    4.70947   4.72034   4.72565   4.73396   4.73502
 Alpha virt. eigenvalues --    4.74405   4.75260   4.76034   4.76829   4.77319
 Alpha virt. eigenvalues --    4.78276   4.78721   4.79066   4.80401   4.81018
 Alpha virt. eigenvalues --    4.81421   4.82461   4.82628   4.83010   4.84368
 Alpha virt. eigenvalues --    4.84689   4.85327   4.87037   4.88024   4.88405
 Alpha virt. eigenvalues --    4.89326   4.89709   4.90546   4.90811   4.91437
 Alpha virt. eigenvalues --    4.91913   4.92890   4.93557   4.94216   4.95202
 Alpha virt. eigenvalues --    4.96652   4.97244   4.97637   4.98173   4.99052
 Alpha virt. eigenvalues --    5.00069   5.02009   5.02784   5.02927   5.03389
 Alpha virt. eigenvalues --    5.03897   5.04800   5.05827   5.06781   5.07582
 Alpha virt. eigenvalues --    5.08223   5.08934   5.09826   5.10627   5.11087
 Alpha virt. eigenvalues --    5.11591   5.12043   5.12708   5.13292   5.13710
 Alpha virt. eigenvalues --    5.14362   5.15706   5.17248   5.17562   5.18296
 Alpha virt. eigenvalues --    5.18555   5.19994   5.20978   5.21609   5.21817
 Alpha virt. eigenvalues --    5.22073   5.22840   5.23385   5.23537   5.24820
 Alpha virt. eigenvalues --    5.25890   5.26096   5.26480   5.27785   5.28161
 Alpha virt. eigenvalues --    5.28434   5.29384   5.30348   5.31025   5.32742
 Alpha virt. eigenvalues --    5.32885   5.34626   5.34827   5.38917   5.39914
 Alpha virt. eigenvalues --    5.40289   5.41192   5.42158   5.43199   5.43853
 Alpha virt. eigenvalues --    5.44408   5.44758   5.45843   5.46709   5.47253
 Alpha virt. eigenvalues --    5.48289   5.48872   5.49336   5.50861   5.51255
 Alpha virt. eigenvalues --    5.52145   5.54486   5.56334   5.57312   5.57806
 Alpha virt. eigenvalues --    5.58451   5.59410   5.59767   5.60779   5.61492
 Alpha virt. eigenvalues --    5.62521   5.63535   5.65240   5.65872   5.66774
 Alpha virt. eigenvalues --    5.66960   5.67955   5.70364   5.70592   5.70905
 Alpha virt. eigenvalues --    5.71462   5.72477   5.73397   5.75012   5.76462
 Alpha virt. eigenvalues --    5.79376   5.81107   5.81409   5.84307   5.85542
 Alpha virt. eigenvalues --    5.85699   5.86113   5.88044   5.88916   5.90936
 Alpha virt. eigenvalues --    5.94456   5.97737   6.01192   6.01682   6.03323
 Alpha virt. eigenvalues --    6.05061   6.06990   6.10513   6.11765   6.13498
 Alpha virt. eigenvalues --    6.13920   6.15259   6.16543   6.19358   6.20037
 Alpha virt. eigenvalues --    6.23214   6.27086   6.27450   6.28276   6.29233
 Alpha virt. eigenvalues --    6.34022   6.35958   6.38393   6.40998   6.43010
 Alpha virt. eigenvalues --    6.43204   6.45186   6.45675   6.45946   6.48840
 Alpha virt. eigenvalues --    6.49709   6.52138   6.52522   6.54122   6.54338
 Alpha virt. eigenvalues --    6.55331   6.65846   6.68381   6.72860   6.78131
 Alpha virt. eigenvalues --    6.82813   6.85606   6.87320   6.97996   6.99361
 Alpha virt. eigenvalues --    7.04317   7.09033   7.11620   7.14606   7.15415
 Alpha virt. eigenvalues --    7.17174   7.21478   7.22893   7.29665   7.34242
 Alpha virt. eigenvalues --   22.35430  22.36300  22.46653  22.52251  22.54887
 Alpha virt. eigenvalues --   22.55519  22.57346  22.64723  22.66965  22.73541
 Alpha virt. eigenvalues --   22.77269  22.78223  22.81851  22.90147  22.98130
 Alpha virt. eigenvalues --   22.98567  22.99194  23.03239  23.08980  23.10138
 Alpha virt. eigenvalues --   23.12925  23.19490  23.21450  23.35266  23.40644
 Alpha virt. eigenvalues --   23.42461  23.45169  23.51264  23.53486  23.56366
 Alpha virt. eigenvalues --   23.59049  23.61857  23.68926  23.77024  23.83340
 Alpha virt. eigenvalues --   23.96595  23.97877  24.10236  32.50952  32.74060
 Alpha virt. eigenvalues --   32.99981  33.04021  33.05853  33.16837  43.94422
 Alpha virt. eigenvalues --   43.98849  43.99406  44.01992  44.13599
  Beta  occ. eigenvalues -- -256.32022 -30.06383 -25.90358 -25.89583 -25.88029
  Beta  occ. eigenvalues --  -19.25399 -19.24679 -19.20152 -19.16563 -19.16282
  Beta  occ. eigenvalues --  -14.45467 -14.38237 -14.37068 -14.36962 -14.36009
  Beta  occ. eigenvalues --  -14.35230 -10.33882 -10.33460 -10.27789 -10.26289
  Beta  occ. eigenvalues --  -10.24443 -10.24350 -10.24036 -10.23926 -10.23746
  Beta  occ. eigenvalues --  -10.23494 -10.23430 -10.23270 -10.23166 -10.23131
  Beta  occ. eigenvalues --  -10.23056 -10.22830 -10.22468 -10.22432 -10.22311
  Beta  occ. eigenvalues --  -10.22281 -10.22224 -10.22167 -10.22108 -10.22052
  Beta  occ. eigenvalues --  -10.21944 -10.21814 -10.21735 -10.21705 -10.21669
  Beta  occ. eigenvalues --  -10.21619 -10.21546 -10.21541 -10.21442 -10.21288
  Beta  occ. eigenvalues --  -10.21285 -10.21108 -10.20993 -10.20807  -3.38840
  Beta  occ. eigenvalues --   -2.16499  -2.14582  -2.10684  -1.17173  -1.17086
  Beta  occ. eigenvalues --   -1.09282  -1.04166  -1.02907  -1.01722  -1.00588
  Beta  occ. eigenvalues --   -0.99698  -0.99232  -0.98583  -0.93347  -0.85333
  Beta  occ. eigenvalues --   -0.84082  -0.83340  -0.83274  -0.82526  -0.81747
  Beta  occ. eigenvalues --   -0.81582  -0.81252  -0.79407  -0.78581  -0.77676
  Beta  occ. eigenvalues --   -0.76140  -0.75168  -0.74132  -0.73259  -0.72742
  Beta  occ. eigenvalues --   -0.72665  -0.71924  -0.70371  -0.69568  -0.69180
  Beta  occ. eigenvalues --   -0.66940  -0.66741  -0.66690  -0.65444  -0.65075
  Beta  occ. eigenvalues --   -0.63584  -0.62185  -0.61065  -0.59048  -0.58415
  Beta  occ. eigenvalues --   -0.57552  -0.56929  -0.56566  -0.55729  -0.54781
  Beta  occ. eigenvalues --   -0.53496  -0.53117  -0.52580  -0.52261  -0.51714
  Beta  occ. eigenvalues --   -0.51255  -0.50805  -0.50320  -0.49978  -0.49766
  Beta  occ. eigenvalues --   -0.49121  -0.48681  -0.48459  -0.48382  -0.48053
  Beta  occ. eigenvalues --   -0.46862  -0.45833  -0.45792  -0.45343  -0.45145
  Beta  occ. eigenvalues --   -0.45060  -0.44692  -0.44233  -0.44144  -0.44138
  Beta  occ. eigenvalues --   -0.43810  -0.43548  -0.43305  -0.43029  -0.42769
  Beta  occ. eigenvalues --   -0.42744  -0.42540  -0.42441  -0.42245  -0.42088
  Beta  occ. eigenvalues --   -0.41435  -0.41146  -0.40818  -0.40359  -0.40204
  Beta  occ. eigenvalues --   -0.40056  -0.39762  -0.39279  -0.38935  -0.38764
  Beta  occ. eigenvalues --   -0.38484  -0.38144  -0.37706  -0.37614  -0.37270
  Beta  occ. eigenvalues --   -0.36811  -0.36515  -0.36231  -0.35656  -0.35559
  Beta  occ. eigenvalues --   -0.34954  -0.34765  -0.34119  -0.33615  -0.33558
  Beta  occ. eigenvalues --   -0.33209  -0.32686  -0.32604  -0.32130  -0.31832
  Beta  occ. eigenvalues --   -0.30767  -0.30419  -0.28582  -0.28515  -0.26947
  Beta  occ. eigenvalues --   -0.26709  -0.26480  -0.25728  -0.24666  -0.23992
  Beta  occ. eigenvalues --   -0.23241  -0.23129  -0.20355  -0.20205  -0.18771
  Beta  occ. eigenvalues --   -0.16081
  Beta virt. eigenvalues --   -0.09461  -0.08153  -0.07094  -0.05306  -0.03762
  Beta virt. eigenvalues --   -0.00704  -0.00246   0.00492   0.00616   0.01673
  Beta virt. eigenvalues --    0.02198   0.03324   0.03785   0.04317   0.04603
  Beta virt. eigenvalues --    0.04845   0.05045   0.05199   0.05667   0.05952
  Beta virt. eigenvalues --    0.06107   0.06281   0.06508   0.07306   0.07379
  Beta virt. eigenvalues --    0.07935   0.08078   0.08154   0.08564   0.08773
  Beta virt. eigenvalues --    0.09256   0.09386   0.09547   0.09740   0.09975
  Beta virt. eigenvalues --    0.10402   0.10958   0.11283   0.11643   0.11771
  Beta virt. eigenvalues --    0.11941   0.12419   0.12510   0.12882   0.12973
  Beta virt. eigenvalues --    0.13243   0.13462   0.13522   0.13882   0.14045
  Beta virt. eigenvalues --    0.14169   0.14242   0.14790   0.15060   0.15072
  Beta virt. eigenvalues --    0.15459   0.15603   0.15641   0.16179   0.16296
  Beta virt. eigenvalues --    0.16633   0.16779   0.16948   0.17299   0.17572
  Beta virt. eigenvalues --    0.17758   0.18335   0.18529   0.18606   0.18792
  Beta virt. eigenvalues --    0.19055   0.19288   0.19647   0.19927   0.20250
  Beta virt. eigenvalues --    0.20658   0.20756   0.20924   0.21098   0.21262
  Beta virt. eigenvalues --    0.21513   0.21753   0.21902   0.22228   0.22252
  Beta virt. eigenvalues --    0.22578   0.22845   0.23157   0.23444   0.23725
  Beta virt. eigenvalues --    0.23819   0.23876   0.24102   0.24475   0.24691
  Beta virt. eigenvalues --    0.24805   0.25218   0.25378   0.25397   0.25774
  Beta virt. eigenvalues --    0.25981   0.26157   0.26183   0.26743   0.26815
  Beta virt. eigenvalues --    0.27204   0.27284   0.27760   0.27900   0.27981
  Beta virt. eigenvalues --    0.28046   0.28292   0.28536   0.28640   0.28885
  Beta virt. eigenvalues --    0.28959   0.29197   0.29574   0.29723   0.29962
  Beta virt. eigenvalues --    0.30456   0.30648   0.30778   0.31031   0.31113
  Beta virt. eigenvalues --    0.31558   0.31663   0.31714   0.32140   0.32166
  Beta virt. eigenvalues --    0.32781   0.32819   0.32965   0.33095   0.33336
  Beta virt. eigenvalues --    0.33854   0.34042   0.34401   0.34687   0.34960
  Beta virt. eigenvalues --    0.35293   0.35483   0.35812   0.35898   0.36062
  Beta virt. eigenvalues --    0.36379   0.36595   0.37110   0.37255   0.37639
  Beta virt. eigenvalues --    0.37929   0.37966   0.38349   0.38728   0.38909
  Beta virt. eigenvalues --    0.38998   0.39073   0.39379   0.39575   0.39836
  Beta virt. eigenvalues --    0.39944   0.40129   0.40379   0.40459   0.40787
  Beta virt. eigenvalues --    0.40943   0.41225   0.41406   0.41582   0.41872
  Beta virt. eigenvalues --    0.42010   0.42112   0.42291   0.42352   0.42753
  Beta virt. eigenvalues --    0.42801   0.42966   0.43120   0.43536   0.43729
  Beta virt. eigenvalues --    0.43781   0.43875   0.44255   0.44418   0.44609
  Beta virt. eigenvalues --    0.44759   0.44830   0.45365   0.45417   0.45489
  Beta virt. eigenvalues --    0.45853   0.46069   0.46320   0.46400   0.46480
  Beta virt. eigenvalues --    0.46958   0.47086   0.47456   0.47621   0.47656
  Beta virt. eigenvalues --    0.47842   0.48278   0.48382   0.48495   0.48705
  Beta virt. eigenvalues --    0.48791   0.49027   0.49429   0.49507   0.49621
  Beta virt. eigenvalues --    0.49844   0.49913   0.50134   0.50389   0.50693
  Beta virt. eigenvalues --    0.50817   0.51129   0.51204   0.51601   0.51751
  Beta virt. eigenvalues --    0.51919   0.51999   0.52168   0.52252   0.52390
  Beta virt. eigenvalues --    0.52793   0.52924   0.53051   0.53398   0.53408
  Beta virt. eigenvalues --    0.53561   0.53777   0.53852   0.54118   0.54167
  Beta virt. eigenvalues --    0.54400   0.54719   0.54918   0.54975   0.55230
  Beta virt. eigenvalues --    0.55493   0.55983   0.56193   0.56324   0.56542
  Beta virt. eigenvalues --    0.56673   0.56916   0.57242   0.57656   0.57883
  Beta virt. eigenvalues --    0.58106   0.58496   0.58575   0.58896   0.59073
  Beta virt. eigenvalues --    0.59180   0.59331   0.59508   0.59624   0.60356
  Beta virt. eigenvalues --    0.60561   0.60705   0.61045   0.61368   0.61683
  Beta virt. eigenvalues --    0.61775   0.62108   0.62478   0.62575   0.62836
  Beta virt. eigenvalues --    0.63402   0.63747   0.63946   0.64289   0.64604
  Beta virt. eigenvalues --    0.64776   0.65000   0.65227   0.65404   0.65489
  Beta virt. eigenvalues --    0.65690   0.65927   0.66168   0.66317   0.66507
  Beta virt. eigenvalues --    0.66817   0.67094   0.67486   0.67565   0.67790
  Beta virt. eigenvalues --    0.68126   0.68453   0.68800   0.68925   0.69074
  Beta virt. eigenvalues --    0.69691   0.69788   0.70024   0.70222   0.70522
  Beta virt. eigenvalues --    0.70650   0.71072   0.71226   0.71532   0.71990
  Beta virt. eigenvalues --    0.72331   0.72536   0.72888   0.73127   0.73389
  Beta virt. eigenvalues --    0.73810   0.73852   0.74623   0.74807   0.75018
  Beta virt. eigenvalues --    0.75287   0.75465   0.76116   0.76220   0.76334
  Beta virt. eigenvalues --    0.76594   0.76771   0.77113   0.77466   0.77626
  Beta virt. eigenvalues --    0.78029   0.78162   0.78747   0.78991   0.79438
  Beta virt. eigenvalues --    0.79581   0.79879   0.80052   0.80253   0.80515
  Beta virt. eigenvalues --    0.80881   0.80980   0.81443   0.81528   0.82113
  Beta virt. eigenvalues --    0.82481   0.82895   0.83388   0.83476   0.84282
  Beta virt. eigenvalues --    0.84471   0.84630   0.84826   0.85122   0.85798
  Beta virt. eigenvalues --    0.85934   0.86121   0.86478   0.86654   0.86847
  Beta virt. eigenvalues --    0.87123   0.87554   0.87797   0.88128   0.88608
  Beta virt. eigenvalues --    0.89055   0.89125   0.89623   0.89735   0.89936
  Beta virt. eigenvalues --    0.90330   0.90484   0.90925   0.91313   0.91696
  Beta virt. eigenvalues --    0.91817   0.92222   0.92676   0.93074   0.93320
  Beta virt. eigenvalues --    0.93532   0.94201   0.94436   0.94775   0.95113
  Beta virt. eigenvalues --    0.95304   0.95388   0.95448   0.95951   0.96275
  Beta virt. eigenvalues --    0.96858   0.97013   0.97396   0.97674   0.97977
  Beta virt. eigenvalues --    0.98263   0.98562   0.98865   0.99364   0.99414
  Beta virt. eigenvalues --    0.99951   1.00166   1.00470   1.00749   1.01119
  Beta virt. eigenvalues --    1.01373   1.01762   1.02172   1.02280   1.02920
  Beta virt. eigenvalues --    1.03069   1.03385   1.03860   1.04062   1.04224
  Beta virt. eigenvalues --    1.04689   1.04920   1.05229   1.05839   1.06067
  Beta virt. eigenvalues --    1.06322   1.06432   1.06740   1.06862   1.07184
  Beta virt. eigenvalues --    1.07689   1.07894   1.08151   1.08449   1.08687
  Beta virt. eigenvalues --    1.08960   1.09045   1.09552   1.09756   1.10147
  Beta virt. eigenvalues --    1.10237   1.10573   1.11186   1.11383   1.11636
  Beta virt. eigenvalues --    1.12016   1.12395   1.13099   1.13402   1.13588
  Beta virt. eigenvalues --    1.14136   1.14371   1.14721   1.14954   1.15282
  Beta virt. eigenvalues --    1.15561   1.16018   1.16621   1.16673   1.17250
  Beta virt. eigenvalues --    1.17408   1.17510   1.18185   1.18641   1.18714
  Beta virt. eigenvalues --    1.19255   1.19475   1.19943   1.20449   1.20890
  Beta virt. eigenvalues --    1.21107   1.21812   1.22241   1.22588   1.22700
  Beta virt. eigenvalues --    1.23167   1.23768   1.24070   1.24576   1.24995
  Beta virt. eigenvalues --    1.25248   1.25554   1.26105   1.26477   1.26706
  Beta virt. eigenvalues --    1.27659   1.27858   1.28102   1.28469   1.28850
  Beta virt. eigenvalues --    1.28994   1.29282   1.29699   1.29979   1.30443
  Beta virt. eigenvalues --    1.30639   1.31466   1.31580   1.32128   1.32414
  Beta virt. eigenvalues --    1.33090   1.33416   1.33793   1.34067   1.34297
  Beta virt. eigenvalues --    1.34793   1.35114   1.35765   1.36489   1.36756
  Beta virt. eigenvalues --    1.37584   1.37781   1.38173   1.38401   1.38806
  Beta virt. eigenvalues --    1.39081   1.39167   1.39881   1.40083   1.40457
  Beta virt. eigenvalues --    1.40564   1.41222   1.41745   1.41952   1.42488
  Beta virt. eigenvalues --    1.42777   1.43029   1.43228   1.43680   1.44177
  Beta virt. eigenvalues --    1.44604   1.44966   1.45153   1.45447   1.46045
  Beta virt. eigenvalues --    1.46385   1.46712   1.46888   1.47336   1.47898
  Beta virt. eigenvalues --    1.48495   1.48726   1.49110   1.49562   1.49832
  Beta virt. eigenvalues --    1.50116   1.50600   1.50785   1.50940   1.51184
  Beta virt. eigenvalues --    1.51582   1.51988   1.52304   1.52407   1.52602
  Beta virt. eigenvalues --    1.52931   1.52983   1.53156   1.53547   1.53824
  Beta virt. eigenvalues --    1.54357   1.54434   1.54631   1.55104   1.55424
  Beta virt. eigenvalues --    1.55780   1.55891   1.56292   1.56546   1.56734
  Beta virt. eigenvalues --    1.56888   1.57056   1.57605   1.57613   1.58065
  Beta virt. eigenvalues --    1.58219   1.58446   1.58494   1.58915   1.59133
  Beta virt. eigenvalues --    1.59382   1.59742   1.60395   1.60532   1.61034
  Beta virt. eigenvalues --    1.61100   1.61346   1.61711   1.62146   1.62257
  Beta virt. eigenvalues --    1.62700   1.62942   1.63220   1.63617   1.63765
  Beta virt. eigenvalues --    1.64039   1.64438   1.64490   1.64815   1.65309
  Beta virt. eigenvalues --    1.65679   1.65827   1.65852   1.66137   1.66396
  Beta virt. eigenvalues --    1.66809   1.67152   1.67427   1.67499   1.68091
  Beta virt. eigenvalues --    1.68246   1.68768   1.68924   1.69241   1.70176
  Beta virt. eigenvalues --    1.70339   1.70356   1.70818   1.70997   1.71382
  Beta virt. eigenvalues --    1.71929   1.72122   1.72279   1.72644   1.73127
  Beta virt. eigenvalues --    1.73266   1.73530   1.73821   1.74196   1.74669
  Beta virt. eigenvalues --    1.74879   1.74999   1.75591   1.76184   1.76307
  Beta virt. eigenvalues --    1.76635   1.76808   1.77445   1.77852   1.78370
  Beta virt. eigenvalues --    1.78473   1.78916   1.79096   1.79312   1.79763
  Beta virt. eigenvalues --    1.80066   1.81130   1.81536   1.81728   1.82136
  Beta virt. eigenvalues --    1.82559   1.83075   1.83199   1.83644   1.84258
  Beta virt. eigenvalues --    1.84608   1.84775   1.84952   1.86123   1.86285
  Beta virt. eigenvalues --    1.86542   1.87239   1.87610   1.88054   1.88401
  Beta virt. eigenvalues --    1.88997   1.89092   1.90064   1.90352   1.90612
  Beta virt. eigenvalues --    1.91000   1.91268   1.91358   1.91470   1.92166
  Beta virt. eigenvalues --    1.92240   1.92894   1.93154   1.93545   1.93765
  Beta virt. eigenvalues --    1.94366   1.94792   1.94984   1.95158   1.95582
  Beta virt. eigenvalues --    1.95965   1.96199   1.96932   1.97241   1.97341
  Beta virt. eigenvalues --    1.97689   1.97840   1.98238   1.98937   1.99346
  Beta virt. eigenvalues --    1.99526   1.99592   2.00107   2.00640   2.00669
  Beta virt. eigenvalues --    2.01223   2.01639   2.02320   2.02588   2.03393
  Beta virt. eigenvalues --    2.03506   2.04236   2.04330   2.04587   2.05138
  Beta virt. eigenvalues --    2.05199   2.05345   2.05954   2.06388   2.06679
  Beta virt. eigenvalues --    2.06890   2.07298   2.08009   2.08454   2.08513
  Beta virt. eigenvalues --    2.08727   2.09113   2.09477   2.09786   2.10314
  Beta virt. eigenvalues --    2.10864   2.11044   2.11466   2.11919   2.12492
  Beta virt. eigenvalues --    2.12775   2.13094   2.13378   2.13803   2.14239
  Beta virt. eigenvalues --    2.14377   2.14735   2.15288   2.15738   2.16227
  Beta virt. eigenvalues --    2.16633   2.17227   2.17611   2.17709   2.18033
[...]
  1619. RY*(   1) H  75                  0.00083     1.41107   
  1620. RY*(   2) H  75                  0.00008     1.81914   
  1621. RY*(   3) H  75                  0.00005     2.09368   
  1622. RY*(   4) H  75                  0.00002     2.55394   
  1623. RY*(   5) H  75                  0.00001     2.81076   
  1624. RY*(   1) H  76                  0.00104     0.71348   
  1625. RY*(   2) H  76                  0.00014     2.18957   
  1626. RY*(   3) H  76                  0.00012     2.26264   
  1627. RY*(   4) H  76                  0.00006     3.14161   
  1628. RY*(   5) H  76                  0.00001     3.26108   
  1629. RY*(   1) H  77                  0.00050     0.93796   
  1630. RY*(   2) H  77                  0.00008     1.78618   
  1631. RY*(   3) H  77                  0.00003     2.12950   
  1632. RY*(   4) H  77                  0.00003     2.15223   
  1633. RY*(   5) H  77                  0.00000     2.98874   
  1634. RY*(   1) H  78                  0.00049     0.98356   
  1635. RY*(   2) H  78                  0.00008     1.77935   
  1636. RY*(   3) H  78                  0.00003     2.17267   
  1637. RY*(   4) H  78                  0.00003     2.05790   
  1638. RY*(   5) H  78                  0.00000     2.94264   
  1639. RY*(   1) H  79                  0.00026     1.36159   
  1640. RY*(   2) H  79                  0.00009     1.97487   
  1641. RY*(   3) H  79                  0.00004     2.12692   
  1642. RY*(   4) H  79                  0.00001     2.15459   
  1643. RY*(   5) H  79                  0.00000     2.56406   
  1644. RY*(   1) H  80                  0.00067     0.70837   
  1645. RY*(   2) H  80                  0.00014     2.29644   
  1646. RY*(   3) H  80                  0.00012     2.28107   
  1647. RY*(   4) H  80                  0.00005     3.14715   
  1648. RY*(   5) H  80                  0.00000     3.29252   
  1649. RY*(   1) H  81                  0.00043     1.69484   
  1650. RY*(   2) H  81                  0.00008     2.71791   
  1651. RY*(   3) H  81                  0.00007     2.31463   
  1652. RY*(   4) H  81                  0.00003     1.61088   
  1653. RY*(   5) H  81                  0.00000     2.96203   
  1654. RY*(   1) H  82                  0.00066     0.60070   
  1655. RY*(   2) H  82                  0.00007     2.32599   
  1656. RY*(   3) H  82                  0.00007     2.71304   
  1657. RY*(   4) H  82                  0.00007     2.48222   
  1658. RY*(   5) H  82                  0.00000     3.06196   
  1659. RY*(   1) H  83                  0.00034     1.25408   
  1660. RY*(   2) H  83                  0.00007     2.20592   
  1661. RY*(   3) H  83                  0.00005     1.72105   
  1662. RY*(   4) H  83                  0.00003     2.50421   
  1663. RY*(   5) H  83                  0.00000     2.96373   
  1664. RY*(   1) H  84                  0.00036     1.37259   
  1665. RY*(   2) H  84                  0.00006     1.47837   
  1666. RY*(   3) H  84                  0.00006     2.57704   
  1667. RY*(   4) H  84                  0.00004     2.35350   
  1668. RY*(   5) H  84                  0.00001     3.04666   
  1669. RY*(   1) H  85                  0.00052     0.73161   
  1670. RY*(   2) H  85                  0.00040     2.06767   
  1671. RY*(   3) H  85                  0.00022     2.02972   
  1672. RY*(   4) H  85                  0.00012     2.18892   
  1673. RY*(   5) H  85                  0.00000     3.18877   
  1713. BD*(   1) C   9 - C  14          0.01166     0.56113   
  1714. BD*(   2) C   9 - C  14          0.21474     0.04744  1783(v),1732(v),1718(r)
                                                    386(g),1726(r),520(g),518(g)
                                                    174(r)
  1715. BD*(   1) C   9 - C  44          0.01202     0.56557   
  1716. BD*(   1) C   9 - H  80          0.00578     0.45515   
  1717. BD*(   1) C  10 - C  17          0.01203     0.56264   
  1718. BD*(   2) C  10 - C  17          0.21148     0.04388  1732(v),1750(v),1714(r)
                                                    412(g),598(g),170(r),174(r)
  1719. BD*(   1) C  10 - C  25          0.01208     0.55551   
  1720. BD*(   1) C  10 - H  60          0.00602     0.45158   
  1721. BD*(   1) C  11 - C  28          0.01154     0.55886   
  1722. BD*(   1) C  11 - C  33          0.01149     0.55311   
  1723. BD*(   1) C  11 - H  67          0.00591     0.45626   
  1724. BD*(   1) C  12 - C  36          0.01223     0.55900   
  1725. BD*(   1) C  12 - C  41          0.01202     0.60769   
  1726. BD*(   2) C  12 - C  41          0.20423     0.05600  1786(v),1783(v),188(v)
                                                    464(g),1714(r),175(r),174(r)
                                                    1710(r)
  1727. BD*(   1) C  12 - H  76          0.00728     0.45828   
  1728. BD*(   1) N  13 - C  14          0.01422     0.56095   
  1729. BD*(   1) N  13 - C  17          0.01446     0.55781   
  1730. BD*(   1) C  14 - C  15          0.01471     0.58171   
  1731. BD*(   1) C  15 - C  16          0.01137     0.56084   
  1732. BD*(   2) C  15 - C  16          0.14296     0.06046  1714(v),1718(v),1786(r)
                                                    1739(v),1736(v),1737(v)
  1733. BD*(   1) C  15 - C  19          0.01204     0.39417   
  1734. BD*(   1) C  16 - C  17          0.01484     0.59204   
  1735. BD*(   1) C  16 - C  18          0.00860     0.38337   
  1736. BD*(   1) C  18 - H  57          0.00515     0.40890   
  1737. BD*(   1) C  18 - H  58          0.00431     0.40993   
  1738. BD*(   1) C  18 - H  59          0.00275     0.41588   
  1739. BD*(   1) C  19 - C  20          0.00825     0.38071   
  1740. BD*(   1) C  19 - H  55          0.00755     0.41333   
  1741. BD*(   1) C  19 - H  56          0.00805     0.41091   
  1742. BD*(   1) C  20 - C  21          0.03562     0.34272   
  1743. BD*(   1) C  20 - H  53          0.00540     0.41425   
  1744. BD*(   1) C  20 - H  54          0.00675     0.39563   
  1745. BD*(   1) C  21 - O  22          0.03474     0.53350   
  1746. BD*(   1) C  21 - O  23          0.02047     0.58947   
  1747. BD*(   2) C  21 - O  23          0.10006     0.02853  1746(g),1748(v),1739(v)
                                                    709(g),1744(v)
  1748. BD*(   1) O  22 - H  52          0.00734     0.38260   
  1749. BD*(   1) N  24 - C  25          0.01461     0.55547   
  1750. BD*(   2) N  24 - C  25          0.31340     0.00994  1718(v),1754(v),175(r)
                                                    804(g),170(r),778(g),806(g)
                                                    412(v),174(r),1804(r)
                                                    1709(r)
  1751. BD*(   1) N  24 - C  28          0.01409     0.55131   
  1752. BD*(   1) C  25 - C  26          0.01646     0.54852   
  1753. BD*(   1) C  26 - C  27          0.01771     0.54628   
  1754. BD*(   2) C  26 - C  27          0.16664     0.04777  1750(v),1762(v),1763(v)
                                                    1758(v),1759(v)
  1755. BD*(   1) C  26 - C  29          0.00851     0.35666   
  1756. BD*(   1) C  27 - C  28          0.02125     0.55684   
  1757. BD*(   1) C  27 - C  30          0.01238     0.53435   
  1758. BD*(   1) C  29 - H  61          0.00489     0.39995   
  1759. BD*(   1) C  29 - H  62          0.00434     0.39996   
  1760. BD*(   1) C  29 - H  63          0.00452     0.41825   
  1761. BD*(   1) C  30 - C  31          0.00369     0.52508   
  1762. BD*(   2) C  30 - C  31          0.05021    -0.00743   
  1763. BD*(   1) C  30 - H  64          0.00981     0.41856   
  1764. BD*(   1) C  31 - H  65          0.00404     0.41727   
  1765. BD*(   1) C  31 - H  66          0.00722     0.44462   
  1766. BD*(   1) N  32 - C  33          0.01403     0.52832   
  1767. BD*(   2) N  32 - C  33          0.34348     0.00931  186(v),176(v),188(v),175(r)
                                                    170(r),985(g),1011(g)
                                                    1012(g),439(v),174(r)
                                                    1709(r)
  1768. BD*(   1) N  32 - C  36          0.01286     0.56943   
  1769. BD*(   1) C  33 - C  34          0.01501     0.54761   
  1770. BD*(   1) C  34 - C  35          0.01448     0.55663   
  1771. BD*(   1) C  34 - C  37          0.00766     0.36478   
  1772. BD*(   1) C  35 - C  36          0.01634     0.55851   
  1773. BD*(   1) C  35 - C  38          0.01081     0.55265   
  1774. BD*(   1) C  37 - H  68          0.00252     0.41594   
  1775. BD*(   1) C  37 - H  69          0.00335     0.40846   
  1776. BD*(   1) C  37 - H  70          0.00251     0.41242   
  1777. BD*(   1) C  38 - C  39          0.00312     0.52620   
  1778. BD*(   1) C  38 - H  75          0.00577     0.41688   
  1779. BD*(   1) C  39 - H  73          0.00110     0.43677   
  1780. BD*(   1) C  39 - H  74          0.00320     0.43141   
  1781. BD*(   1) N  40 - C  41          0.01437     0.57461   
  1782. BD*(   1) N  40 - C  44          0.01335     0.57569   
  1783. BD*(   2) N  40 - C  44          0.31453     0.02727  1714(v),1786(v),1726(v)
                                                    175(r),1298(g),174(r)
                                                    1193(g),169(r),1194(g)
                                                    1297(g),1197(g),171(r)
                                                    173(r),170(r)
  1784. BD*(   1) C  41 - C  42          0.01628     0.58659   
  1785. BD*(   1) C  42 - C  43          0.01161     0.56688   
  1786. BD*(   2) C  42 - C  43          0.14727     0.06047  1726(v),1783(v),1732(r)
                                                    1793(v),1790(v),1791(v)
  1787. BD*(   1) C  42 - C  45          0.00850     0.39659   
  1788. BD*(   1) C  43 - C  44          0.01550     0.58057   
  1789. BD*(   1) C  43 - C  46          0.01163     0.40108   
  1790. BD*(   1) C  45 - H  77          0.00504     0.40750   
  1791. BD*(   1) C  45 - H  78          0.00449     0.40716   
  1792. BD*(   1) C  45 - H  79          0.00284     0.41703   
  1793. BD*(   1) C  46 - C  47          0.00913     0.36907   
  1794. BD*(   1) C  46 - H  81          0.00688     0.41436   
  1795. BD*(   1) C  46 - H  82          0.00707     0.41338   
  1796. BD*(   1) C  47 - C  48          0.03951     0.36593   
  1797. BD*(   1) C  47 - H  83          0.00620     0.39361   
  1798. BD*(   1) C  47 - H  84          0.00541     0.41449   
  1799. BD*(   1) C  48 - O  49          0.01965     0.63279   
  1800. BD*(   2) C  48 - O  49          0.08561     0.02625   
  1801. BD*(   1) C  48 - O  50          0.03626     0.54536   
  1802. BD*(   1) O  50 - H  85          0.00714     0.37508   
       -------------------------------
              Total Lewis  142.87980  ( 96.8804%)
        Valence non-Lewis    4.29563  (  2.9127%)
        Rydberg non-Lewis    0.30522  (  0.2070%)
       -------------------------------
            Total unit  3  147.48065  (100.0000%)
           Charge unit  3    0.51935

 Molecular unit  4  (H2O)
   105. BD (   1) O  51 - H  71          0.99794    -0.76501  174(r),361(r),171(r),170(r)
                                                    494(r),360(r),175(r),329(r)
                                                    362(r),363(r),331(r),493(r)
                                                    364(r),498(r),491(r),1192(r)
   106. BD (   1) O  51 - H  72          0.97993    -0.78132  174(r),173(r),171(r),175(r)
                                                    170(r),1601(v),360(r),365(r)
                                                    361(r),330(r),359(r),363(r)
                                                    328(r),779(r),777(r),491(r)
                                                    493(r),1193(r),492(r),331(r)
                                                    366(r),1751(r)
   164. CR (   1) O  51                  0.99993   -18.98729  174(r),170(r),171(r),1601(v)
                                                    172(r),173(r),363(r)
   196. LP (   1) O  51                  0.99076    -0.43927  174(r),172(r),1605(v)
                                                    1599(v),171(r),170(r),175(r)
                                                    331(r),169(r),1750(r),360(r)
                                                    364(r),363(r),984(r),492(r)
   197. LP (   2) O  51                  0.93630    -0.47241  174(r),171(r),1804(g),170(r)
                                                    1600(v),1606(v),1605(v)
                                                    172(r),363(r),366(r),779(r)
                                                    331(r),360(r),365(r),1193(r)
                                                    492(r),777(r),985(r),987(r)
                                                    986(r),173(r),493(r),175(r)
                                                    362(r),364(r),781(r),778(r)
                                                    491(r),991(r),1194(r)
                                                    1729(r)
  1478. RY*(   1) O  51                  0.00126     0.91129   
  1479. RY*(   2) O  51                  0.00025     1.37926   
  1480. RY*(   3) O  51                  0.00015     0.95948   
  1481. RY*(   4) O  51                  0.00009     0.96093   
  1482. RY*(   5) O  51                  0.00001     3.14644   
  1483. RY*(   6) O  51                  0.00001     2.31026   
  1484. RY*(   7) O  51                  0.00000     3.05965   
  1485. RY*(   8) O  51                  0.00001     5.35770   
  1486. RY*(   9) O  51                  0.00001     3.34184   
  1487. RY*(  10) O  51                  0.00001     2.32701   
  1488. RY*(  11) O  51                  0.00000     6.44710   
  1489. RY*(  12) O  51                  0.00000    42.34236   
  1490. RY*(  13) O  51                  0.00000     6.58279   
  1491. RY*(  14) O  51                  0.00001     2.23478   
  1492. RY*(  15) O  51                  0.00000     6.52924   
  1493. RY*(  16) O  51                  0.00001     2.00237   
  1494. RY*(  17) O  51                  0.00000     6.29770   
  1495. RY*(  18) O  51                  0.00001     2.76931   
  1496. RY*(  19) O  51                  0.00000     6.70280   
  1497. RY*(  20) O  51                  0.00000     5.63373   
  1498. RY*(  21) O  51                  0.00000     5.49029   
  1499. RY*(  22) O  51                  0.00000     5.55099   
  1500. RY*(  23) O  51                  0.00000     5.26495   
  1501. RY*(  24) O  51                  0.00000     5.54065   
  1502. RY*(  25) O  51                  0.00000     5.33424   
  1503. RY*(  26) O  51                  0.00000     5.46151   
  1599. RY*(   1) H  71                  0.00048     1.89529   
  1600. RY*(   2) H  71                  0.00039     1.87081   
  1601. RY*(   3) H  71                  0.00022     2.29456   
  1602. RY*(   4) H  71                  0.00015     1.16033   
  1603. RY*(   5) H  71                  0.00000     2.94522   
  1604. RY*(   1) H  72                  0.00075     1.52345   
  1605. RY*(   2) H  72                  0.00054     2.03244   
  1606. RY*(   3) H  72                  0.00040     2.52357   
  1607. RY*(   4) H  72                  0.00008     2.20006   
  1608. RY*(   5) H  72                  0.00003     2.75963   
  1803. BD*(   1) O  51 - H  71          0.00202     0.46472   
  1804. BD*(   1) O  51 - H  72          0.00811     0.45568   
       -------------------------------
              Total Lewis    4.90485  ( 99.6958%)
        Valence non-Lewis    0.01013  (  0.2058%)
        Rydberg non-Lewis    0.00484  (  0.0984%)
       -------------------------------
            Total unit  4    4.91981  (100.0000%)
           Charge unit  4    0.08019
 1\1\GINC-NODE370\SP\UPBE1PBE\def2TZVP\C38H40Fe1N6O5(5)\ZHARTOVSKA\03-N
 ov-2022\0\\# PBE1PBE/def2TZVP empiricaldispersion=GD3BJ scf=maxcycle=9
 99 geom=check guess=read pop=nbo\\1cck_II_Q\\0,5\C,0,-8.983,54.799,107
 .567001\C,0,-8.54,55.606998,108.792\N,0,-9.235,56.48,109.509003\C,0,-7
 .314,55.534,109.401001\C,0,-8.503,56.910999,110.500999\N,0,-7.319,56.3
 34999,110.436996\H,0,-10.068,56.903999,109.240997\Fe,0,-5.819,56.952,1
 11.661003\C,0,-5.402,53.929001,112.991997\C,0,-7.54,57.979,114.383003\
 C,0,-5.948,60.127998,110.458\C,0,-3.64,56.141998,109.214996\N,0,-6.453
 ,56.078999,113.372002\C,0,-6.162,54.831001,113.746002\C,0,-6.72,54.561
 001,114.978996\C,0,-7.402,55.723999,115.358002\C,0,-7.134,56.641998,11
 4.375\C,0,-8.3,55.936001,116.572998\C,0,-6.63,53.219002,115.699997\C,0
 ,-5.402,53.037998,116.555\C,0,-5.327,51.671001,117.238998\O,0,-6.233,5
 1.285,117.983002\O,0,-4.34,50.955002,117.054001\N,0,-6.811,58.708,112.
 205002\C,0,-7.412,58.931999,113.367996\C,0,-7.948,60.220001,113.431\C,
 0,-7.516,60.838001,112.250999\C,0,-6.724,59.891998,111.598\C,0,-8.881,
 60.683998,114.561996\C,0,-7.822,62.084999,111.697998\C,0,-8.33176962,6
 2.9262641,112.69616128\N,0,-4.944,57.963001,110.096001\C,0,-5.105,59.2
 57,109.750999\C,0,-4.341,59.617001,108.634003\C,0,-3.612,58.455002,108
 .348\C,0,-4.065,57.478001,109.233002\C,0,-4.249,61.014999,107.987\C,0,
 -2.607,58.181999,107.403\C,0,-2.176,58.978001,106.297997\N,0,-4.692,55
 .285,111.160004\C,0,-3.961,55.115002,110.064003\C,0,-3.616,53.791,109.
 886002\C,0,-4.152,53.131001,110.990997\C,0,-4.763,54.104,111.761002\C,
 0,-2.941,53.191002,108.672997\C,0,-4.125,51.634998,111.255997\C,0,-2.8
 86,51.203999,112.029999\C,0,-2.951,49.791,112.564003\O,0,-2.38,49.5600
 01,113.612\O,0,-3.559,48.915001,111.950996\O,0,-4.281,57.657001,113.10
 7002\H,0,-6.02075276,50.85383657,118.81405507\H,0,-4.53580591,53.15947
 432,115.93867922\H,0,-5.39545363,53.79770233,117.30846299\H,0,-7.49290
 101,53.11366467,116.32386068\H,0,-6.64652785,52.44080115,114.96581019\
 H,0,-7.80365999,56.57085129,117.27692392\H,0,-9.21621309,56.39406599,1
 16.26375693\H,0,-8.50993654,54.99177269,117.03044696\H,0,-8.00987808,5
 8.31744685,115.28276314\H,0,-8.40289455,61.45945002,115.12323511\H,0,-
 9.79188291,61.05708943,114.14247829\H,0,-9.09738873,59.8582961,115.207
 20317\H,0,-8.55324801,61.96324539,110.92640717\H,0,-9.39447857,62.9977
 1319,112.59396186\H,0,-8.092229,62.52398892,113.65829171\H,0,-6.006054
 71,61.12206124,110.06637782\H,0,-3.35563943,61.07898593,107.40158343\H
 ,0,-5.0998343,61.17352026,107.3578323\H,0,-4.22773686,61.76181106,108.
 75297625\H,0,-3.42966867,58.10066188,113.107002\H,0,-4.98306459,58.311
 75691,113.107002\H,0,-3.0223172,59.2488198,105.70192286\H,0,-1.6976482
 9,59.86346229,106.66136726\H,0,-2.88765363,57.24455215,106.97018717\H,
 0,-2.96705916,55.88704928,108.42312999\H,0,-2.00000711,52.77026722,108
 .96007647\H,0,-3.56360037,52.42448775,108.26102044\H,0,-2.78180374,53.
 95372908,107.93964582\H,0,-5.29353662,52.95623425,113.4242707\H,0,-4.1
 4547357,51.11738831,110.31974861\H,0,-4.99487428,51.36759288,111.81876
 981\H,0,-2.03699757,51.28402804,111.38370942\H,0,-2.75094383,51.872658
 57,112.85434978\H,0,-3.07357034,48.23642198,111.47613965\H,0,-8.813366
 31,57.61591516,111.24374119\H,0,-6.49267758,54.92595861,109.08380208\H
 ,0,-8.24970345,54.05092057,107.34893372\H,0,-9.92244831,54.32895732,10
 7.77046291\H,0,-9.08607588,55.45311462,106.72651934\\Version=ES64L-G16
 RevA.03\State=5-A\HF=-3438.4681871\S2=6.131189\S2-1=0.\S2A=6.005237\RM
 SD=1.146e-09\Dipole=-3.009242,0.2024054,-1.3840403\Quadrupole=2.639017
 2,-16.6180097,13.9789925,3.5795994,-3.7049489,18.8942713\PG=C01 [X(C38
 H40Fe1N6O5)]\\@


 TIMES HAVE CHANGED. IN THE BIBLE WHEN AN ASS
 SPOKE IT WAS CONSIDERED A MIRACLE.
 Job cpu time:       0 days  4 hours 18 minutes 41.5 seconds.
 Elapsed time:       0 days  1 hours  4 minutes 59.8 seconds.
 File lengths (MBytes):  RWF=   2965 Int=      0 D2E=      0 Chk=    250 Scr=      1
 Normal termination of Gaussian 16 at Thu Nov  3 15:24:58 2022.
