 Entering Gaussian System, Link 0=g16
 Input=/net/homes/chemie/zhartovska/work/BioModel/Konrad/1ccg/1ccg05/1ccg05.com
 Output=/net/homes/chemie/zhartovska/work/BioModel/Konrad/1ccg/1ccg05/1ccg05.log
 Initial command:
 /afs/math/software/gaussian/g16.A03/g16/l1.exe "/scratch/zhartovska_gaussian.TzeOCnm/Gau-9336.inp" -scrdir="/scratch/zhartovska_gaussian.TzeOCnm/"
 Entering Link 1 = /afs/math/software/gaussian/g16.A03/g16/l1.exe PID=      9337.
  
 Copyright (c) 1988,1990,1992,1993,1995,1998,2003,2009,2016,
            Gaussian, Inc.  All Rights Reserved.
  
 This is part of the Gaussian(R) 16 program.  It is based on
 the Gaussian(R) 09 system (copyright 2009, Gaussian, Inc.),
 the Gaussian(R) 03 system (copyright 2003, Gaussian, Inc.),
 the Gaussian(R) 98 system (copyright 1998, Gaussian, Inc.),
 the Gaussian(R) 94 system (copyright 1995, Gaussian, Inc.),
 the Gaussian 92(TM) system (copyright 1992, Gaussian, Inc.),
 the Gaussian 90(TM) system (copyright 1990, Gaussian, Inc.),
 the Gaussian 88(TM) system (copyright 1988, Gaussian, Inc.),
 the Gaussian 86(TM) system (copyright 1986, Carnegie Mellon
 University), and the Gaussian 82(TM) system (copyright 1983,
 Carnegie Mellon University). Gaussian is a federally registered
 trademark of Gaussian, Inc.
  
 This software contains proprietary and confidential information,
 including trade secrets, belonging to Gaussian, Inc.
  
 This software is provided under written license and may be
 used, copied, transmitted, or stored only in accord with that
 written license.
  
 The following legend is applicable only to US Government
 contracts under FAR:
  
                    RESTRICTED RIGHTS LEGEND
  
 Use, reproduction and disclosure by the US Government is
 subject to restrictions as set forth in subparagraphs (a)
 and (c) of the Commercial Computer Software - Restricted
 Rights clause in FAR 52.227-19.
  
 Gaussian, Inc.
 340 Quinnipiac St., Bldg. 40, Wallingford CT 06492
  
  
 ---------------------------------------------------------------
 Warning -- This program may not be used in any manner that
 competes with the business of Gaussian, Inc. or will provide
 assistance to any competitor of Gaussian, Inc.  The licensee
 of this program is prohibited from giving any competitor of
 Gaussian, Inc. access to this program.  By using this program,
 the user acknowledges that Gaussian, Inc. is engaged in the
 business of creating and licensing software in the field of
 computational chemistry and represents and warrants to the
 licensee that it is not a competitor of Gaussian, Inc. and that
 it will not use this program in any manner prohibited above.
 ---------------------------------------------------------------
  

 Cite this work as:
 Gaussian 16, Revision A.03,
 M. J. Frisch, G. W. Trucks, H. B. Schlegel, G. E. Scuseria, 
 M. A. Robb, J. R. Cheeseman, G. Scalmani, V. Barone, 
 G. A. Petersson, H. Nakatsuji, X. Li, M. Caricato, A. V. Marenich, 
 J. Bloino, B. G. Janesko, R. Gomperts, B. Mennucci, H. P. Hratchian, 
 J. V. Ortiz, A. F. Izmaylov, J. L. Sonnenberg, D. Williams-Young, 
 F. Ding, F. Lipparini, F. Egidi, J. Goings, B. Peng, A. Petrone, 
 T. Henderson, D. Ranasinghe, V. G. Zakrzewski, J. Gao, N. Rega, 
 G. Zheng, W. Liang, M. Hada, M. Ehara, K. Toyota, R. Fukuda, 
 J. Hasegawa, M. Ishida, T. Nakajima, Y. Honda, O. Kitao, H. Nakai, 
 T. Vreven, K. Throssell, J. A. Montgomery, Jr., J. E. Peralta, 
 F. Ogliaro, M. J. Bearpark, J. J. Heyd, E. N. Brothers, K. N. Kudin, 
 V. N. Staroverov, T. A. Keith, R. Kobayashi, J. Normand, 
 K. Raghavachari, A. P. Rendell, J. C. Burant, S. S. Iyengar, 
 J. Tomasi, M. Cossi, J. M. Millam, M. Klene, C. Adamo, R. Cammi, 
 J. W. Ochterski, R. L. Martin, K. Morokuma, O. Farkas, 
 J. B. Foresman, and D. J. Fox, Gaussian, Inc., Wallingford CT, 2016.
 
 ******************************************
 Gaussian 16:  ES64L-G16RevA.03 25-Dec-2016
                 5-Dec-2022 
 ******************************************
 %nprocs=12
 Will use up to   12 processors via shared memory.
 %mem=16GB
 %oldchk=1ccg_II_Qn.chk
 %chk=1ccg_II_Q.chk
 Copying data from "1ccg_II_Qn.chk" to current chk file "1ccg_II_Q.chk"
 IOpt=  2 FromEx=T IUOpen= 4 IOptOp= 5 NList=   0 IFRang= 0 IUIn= 4 IUOut= 2.
 ----------------------------------------------------------------------
 # PBE1PBE/def2TZVP empiricaldispersion=GD3BJ int=(grid=ultrafine) geom
 =check pop=nbo guess=read
 ----------------------------------------------------------------------
 1/29=2,38=1,172=1/1;
 2/12=2,40=1/2;
 3/5=44,7=101,11=2,14=-4,25=1,30=1,74=-13,75=-5,116=-2,124=41/1,2,3;
 4/5=1/1;
 5/5=2,38=6/2;
 6/7=2,8=2,9=2,10=2,28=1,40=1/1,7;
 99/5=1,9=1/99;
 ---------
 1ccg_II_Q
 ---------
 Structure from the checkpoint file:  "1ccg_II_Q.chk"
 Charge =  0 Multiplicity = 5
 Z-Matrix found in chk file.
 C,0,-5.506,53.923,112.93
 C,0,-7.562,57.972,114.378
 C,0,-5.926,60.126,110.472
 C,0,-3.654,56.114,109.164
 C,0,-6.228,54.827,113.698
 C,0,-6.758,54.532,114.942
 C,0,-7.395,55.715,115.374
 C,0,-7.147,56.642,114.369
 C,0,-8.23,55.922,116.645
 C,0,-6.626,53.173,115.641
 C,0,-5.472,53.012,116.584
 C,0,-5.394,51.617,117.224
 O,0,-6.246,51.26,118.04
 O,0,-4.475,50.847,116.942
 C,0,-7.381,58.932,113.376
 C,0,-7.941,60.211,113.411
 C,0,-7.522,60.812,112.232
 C,0,-6.685,59.879,111.612
 C,0,-8.919,60.678,114.485
 C,0,-7.826,62.055,111.651
 C,0,-8.743,63.064,112.11
 C,0,-5.081,59.253,109.775
 C,0,-4.298,59.622,108.683
 C,0,-3.589,58.446,108.366
 C,0,-4.047,57.462,109.229
 C,0,-4.188,61.047,108.081
 C,0,-2.635,58.152,107.378
 C,0,-2.272,58.924,106.228
 C,0,-4.,55.082,110.014
 C,0,-3.674,53.753,109.834
 C,0,-4.208,53.123,110.964
 C,0,-4.83,54.109,111.715
 C,0,-3.02,53.099,108.613
 C,0,-4.19,51.63,111.27
 C,0,-3.016,51.229,112.145
 C,0,-3.008,49.79,112.601
 O,0,-2.443,49.528,113.657
 O,0,-3.547,48.922,111.918
 N,0,-6.462,56.1,113.359
 N,0,-6.701,58.711,112.255
 N,0,-4.921,57.955,110.104
 N,0,-4.723,55.274,111.116
 Fe,0,-5.857,56.937,111.603
 N,0,-9.264,56.772,109.591
 C,0,-8.576,56.828,110.692
 N,0,-7.374,56.4,110.42
 C,0,-7.308,56.079,109.165
 C,0,-8.548,56.317,108.604
 H,0,-10.166,57.108,109.493
 O,0,-4.422,57.485,112.862
 H,0,-5.45782113,52.93038101,113.32659342
 H,0,-8.08069798,58.29811361,115.25521281
 H,0,-5.99760271,61.11670263,110.07415412
 H,0,-3.00493273,55.8547598,108.35381101
 H,0,-8.29848407,56.96786322,116.86036031
 H,0,-9.21175387,55.52358038,116.49559734
 H,0,-7.7619019,55.41887131,117.4651498
 H,0,-6.44721884,52.46901742,114.85528642
 H,0,-7.5012008,53.08406969,116.25010997
 H,0,-5.65300175,53.69407989,117.38830429
 H,0,-4.58942939,53.11072806,115.98715673
 H,0,-8.46371308,61.44873123,115.07116311
 H,0,-9.8040266,61.05930165,114.01998713
 H,0,-9.17510627,59.85346206,115.11701801
 H,0,-7.30480633,62.28163664,110.74441686
 H,0,-9.30143044,62.91003662,113.00963921
 H,0,-8.86660125,63.96842137,111.55174851
 H,0,-3.96248284,61.38427734,107.09090606
 H,0,-3.16344207,60.7451661,108.01714588
 H,0,-5.06293474,60.70293935,107.57010718
 H,0,-2.1095021,57.22809277,107.50107472
 H,0,-2.75434073,59.86002192,106.03797265
 H,0,-1.5183987,58.56487385,105.5586619
 H,0,-2.27695181,52.4008133,108.93752229
 H,0,-3.76507449,52.58672515,108.04086497
 H,0,-2.56112515,53.85261299,108.00768906
 H,0,-4.04362608,51.13631942,110.33204789
 H,0,-5.07023292,51.43423488,111.84599134
 H,0,-3.11319677,51.81093673,113.0376379
 H,0,-2.14912823,51.33767231,111.52724304
 H,0,-8.9296665,57.16293665,111.64470008
 H,0,-6.44757409,55.69818255,108.65554409
 H,0,-8.85064928,56.16247035,107.58939466
 H,0,-3.67092348,58.08289971,112.862
 H,0,-4.10865359,56.57757836,112.862
 H,0,-5.97701984,50.89062643,118.88428244
 H,0,-3.01035,48.29644543,111.42577215
 Recover connectivity data from disk.
 Center=     -5.69504601     56.23397221    111.88815250
 Residue   0                        charge    0.00000000 layers R        AvRTP=      7.49740844    280.25480075     64.16799963
 Residue   4                        charge    0.00000000 layers R        AvRTP=      0.00000000      0.00000000      0.00000000
 Residue   2 PDB Number   575_A IMD charge    0.00000000 layers R        AvRTP=      3.58109175    174.28708208    130.98602261
 Residue   3 PDB Number   313_A HOH charge    0.00000000 layers R        AvRTP=      2.21717271     35.18893807     63.94527408
 Residue   1 PDB Number     1_A HEM charge    0.00000000 layers R        AvRTP=      0.29944987     23.66350593     57.69198574
 Stoichiometry    C37H38FeN6O5(5)
 Framework group  C1[X(C37H38FeN6O5)]
 Deg. of freedom   255
 Full point group                 C1      NOp   1
 Largest Abelian subgroup         C1      NOp   1
 Largest concise Abelian subgroup C1      NOp   1
                         Standard orientation:                         
 ---------------------------------------------------------------------
 Center     Atomic      Atomic             Coordinates (Angstroms)
 Number     Number       Type             X           Y           Z
 ---------------------------------------------------------------------
      1          6           0       -2.341147   -0.087175    0.262138
      2          6           0        0.995264   -3.454204   -0.237578
      3          6           0        4.282185   -0.048016   -0.646326
      4          6           0        0.880258    3.318637   -0.398269
      5          6           0       -1.739433   -1.335050    0.166899
      6          6           0       -2.438089   -2.529722    0.156800
      7          6           0       -1.460638   -3.540642    0.036331
      8          6           0       -0.253692   -2.860163   -0.068963
      9          6           0       -1.671537   -5.060417    0.072694
     10          6           0       -3.964882   -2.642523    0.252103
     11          6           0       -4.716174   -2.701943   -1.043627
     12          6           0       -6.240043   -2.788572   -0.864662
     13          8           0       -6.753382   -3.808122   -0.399679
     14          8           0       -6.965770   -1.850150   -1.195826
     15          6           0        2.242116   -2.822105   -0.302203
     16          6           0        3.460591   -3.503376   -0.345264
     17          6           0        4.422473   -2.503552   -0.389279
     18          6           0        3.711319   -1.300676   -0.442255
     19          6           0        3.589811   -5.017051   -0.203352
     20          6           0        5.826668   -2.547984   -0.353391
     21          6           0        6.688241   -3.688815   -0.192611
     22          6           0        3.655693    1.203852   -0.694268
     23          6           0        4.309907    2.399294   -0.985190
     24          6           0        3.276689    3.357698   -0.976926
     25          6           0        2.117318    2.687864   -0.616413
     26          6           0        5.810632    2.552230   -1.345141
     27          6           0        3.268335    4.743920   -1.202791
     28          6           0        4.379370    5.643972   -1.278697
     29          6           0       -0.336058    2.734044   -0.104899
     30          6           0       -1.495196    3.413133    0.211575
     31          6           0       -2.441354    2.395890    0.381751
     32          6           0       -1.777510    1.194879    0.181837
     33          6           0       -1.669620    4.913025    0.468814
     34          6           0       -3.898665    2.565334    0.794718
     35          6           0       -4.837188    2.634942   -0.396513
     36          6           0       -6.308954    2.666210   -0.062378
     37          8           0       -7.093116    2.218160   -0.891441
     38          8           0       -6.690412    3.138002    1.006424
     39          7           0       -0.424535   -1.539306    0.027156
     40          7           0        2.404121   -1.502698   -0.273888
     41          7           0        2.336094    1.381642   -0.480508
     42          7           0       -0.507987    1.413529   -0.078889
     43         26           0        0.959964   -0.045150   -0.000976
     44          7           0        2.280541   -0.306056    3.723406
     45          6           0        1.737098   -0.806619    2.654394
     46          7           0        1.259811    0.189171    1.959721
     47          6           0        1.499839    1.300357    2.584281
     48          6           0        2.171460    0.990545    3.751289
     49          1           0        2.780947   -0.819336    4.373207
     50          8           0        0.651998   -0.387767   -1.932913
     51          1           0       -3.399030   -0.106564    0.421534
     52          1           0        1.001868   -4.520318   -0.328448
     53          1           0        5.343079   -0.040119   -0.785404
     54          1           0        0.881058    4.386340   -0.468343
     55          1           0       -0.824353   -5.548564   -0.361923
     56          1           0       -1.785917   -5.380454    1.087284
     57          1           0       -2.551373   -5.311778   -0.481928
     58          1           0       -4.284954   -1.735671    0.721224
     59          1           0       -4.148069   -3.583896    0.726613
     60          1           0       -4.423065   -3.618794   -1.510930
     61          1           0       -4.530858   -1.768772   -1.533269
     62          1           0        3.941349   -5.432917   -1.124426
     63          1           0        4.284184   -5.243998    0.578466
     64          1           0        2.634516   -5.435739    0.035422
     65          1           0        6.322107   -1.605619   -0.460107
     66          1           0        6.266819   -4.665859   -0.079973
     67          1           0        7.750470   -3.560279   -0.185667
     68          1           0        6.492506    3.366680   -1.216231
     69          1           0        5.387840    3.251809   -2.035601
     70          1           0        5.879880    2.561583   -0.277425
     71          1           0        2.303197    5.186301   -1.335858
     72          1           0        5.376169    5.275014   -1.155558
     73          1           0        4.212819    6.685514   -1.458557
     74          1           0       -2.559535    5.256870   -0.015667
     75          1           0       -1.746436    5.087769    1.521650
     76          1           0       -0.824731    5.442179    0.080150
     77          1           0       -3.961501    3.517706    1.278390
     78          1           0       -4.161496    1.675911    1.328335
     79          1           0       -4.685522    1.721866   -0.933346
     80          1           0       -4.631324    3.573210   -0.867865
     81          1           0        1.689860   -1.843012    2.392559
     82          1           0        1.226705    2.281046    2.254818
     83          1           0        2.521993    1.663246    4.505942
     84          1           0        1.048135   -0.131521   -2.768983
     85          1           0       -0.208135    0.029447   -1.845145
     86          1           0       -7.489499   -4.224820   -0.853656
     87          1           0       -7.130146    3.991169    1.024820
 ---------------------------------------------------------------------
 Rotational constants (GHZ):           0.0819071           0.0475467           0.0338762
 Standard basis: def2TZVP (5D, 7F)
 There are  2008 symmetry adapted cartesian basis functions of A   symmetry.
 There are  1761 symmetry adapted basis functions of A   symmetry.
  1761 basis functions,  2854 primitive gaussians,  2008 cartesian basis functions
   186 alpha electrons      182 beta electrons
       nuclear repulsion energy      7371.5366171953 Hartrees.
 NAtoms=   87 NActive=   87 NUniq=   87 SFac= 1.00D+00 NAtFMM=   60 NAOKFM=T Big=T
 Integral buffers will be    131072 words long.
 Raffenetti 2 integral format.
 Two-electron integral symmetry is turned on.
 Nuclear repulsion after empirical dispersion term =     7371.4146188558 Hartrees.
 One-electron integrals computed using PRISM.
   1 Symmetry operations used in ECPInt.
 ECPInt:  NShTT=  241860 NPrTT=  750929 LenC2=  176350 LenP2D=  356217.
 LDataN:  DoStor=T MaxTD1= 6 Len=  172
 NBasis=  1761 RedAO= T EigKep=  2.74D-06  NBF=  1761
 NBsUse=  1761 1.00D-06 EigRej= -1.00D+00 NBFU=  1761
 Initial guess from the checkpoint file:  "1ccg_II_Q.chk"
 B after Tr=     0.000000    0.000000    0.000000
         Rot=    1.000000    0.000000    0.000000   -0.000000 Ang=   0.00 deg.
 Initial guess <Sx>= 0.0000 <Sy>= 0.0000 <Sz>= 2.0000 <S**2>= 6.0862 S= 2.0172
 Requested convergence on RMS density matrix=1.00D-08 within 128 cycles.
 Requested convergence on MAX density matrix=1.00D-06.
 Requested convergence on             energy=1.00D-06.
 No special actions if energy rises.
 SCF Done:  E(UPBE1PBE) =  -3399.14841881     A.U. after    1 cycles
            NFock=  1  Conv=0.34D-09     -V/T= 2.0023
 <Sx>= 0.0000 <Sy>= 0.0000 <Sz>= 2.0000 <S**2>= 6.0862 S= 2.0172
 <L.S>= 0.000000000000E+00
 Annihilation of the first spin contaminant:
 S**2 before annihilation     6.0862,   after     6.0003

 **********************************************************************

            Population analysis using the SCF density.

 **********************************************************************

 Orbital symmetries:
 Alpha Orbitals:
       Occupied  (A) (A) (A) (A) (A) (A) (A) (A) (A) (A) (A) (A)
                 (A) (A) (A) (A) (A) (A) (A) (A) (A) (A) (A) (A)
                 (A) (A) (A) (A) (A) (A) (A) (A) (A) (A) (A) (A)
                 (A) (A) (A) (A) (A) (A) (A) (A) (A) (A) (A) (A)
                 (A) (A) (A) (A) (A) (A) (A) (A) (A) (A) (A) (A)
                 (A) (A) (A) (A) (A) (A) (A) (A) (A) (A) (A) (A)
                 (A) (A) (A) (A) (A) (A) (A) (A) (A) (A) (A) (A)
                 (A) (A) (A) (A) (A) (A) (A) (A) (A) (A) (A) (A)
                 (A) (A) (A) (A) (A) (A) (A) (A) (A) (A) (A) (A)
                 (A) (A) (A) (A) (A) (A) (A) (A) (A) (A) (A) (A)
                 (A) (A) (A) (A) (A) (A) (A) (A) (A) (A) (A) (A)
                 (A) (A) (A) (A) (A) (A) (A) (A) (A) (A) (A) (A)
                 (A) (A) (A) (A) (A) (A) (A) (A) (A) (A) (A) (A)
                 (A) (A) (A) (A) (A) (A) (A) (A) (A) (A) (A) (A)
                 (A) (A) (A) (A) (A) (A) (A) (A) (A) (A) (A) (A)
                 (A) (A) (A) (A) (A) (A)
       Virtual   (A) (A) (A) (A) (A) (A) (A) (A) (A) (A) (A) (A)
                 (A) (A) (A) (A) (A) (A) (A) (A) (A) (A) (A) (A)
                 (A) (A) (A) (A) (A) (A) (A) (A) (A) (A) (A) (A)
                 (A) (A) (A) (A) (A) (A) (A) (A) (A) (A) (A) (A)
                 (A) (A) (A) (A) (A) (A) (A) (A) (A) (A) (A) (A)
                 (A) (A) (A) (A) (A) (A) (A) (A) (A) (A) (A) (A)
                 (A) (A) (A) (A) (A) (A) (A) (A) (A) (A) (A) (A)
                 (A) (A) (A) (A) (A) (A) (A) (A) (A) (A) (A) (A)
                 (A) (A) (A) (A) (A) (A) (A) (A) (A) (A) (A) (A)
                 (A) (A) (A) (A) (A) (A) (A) (A) (A) (A) (A) (A)
                 (A) (A) (A) (A) (A) (A) (A) (A) (A) (A) (A) (A)
                 (A) (A) (A) (A) (A) (A) (A) (A) (A) (A) (A) (A)
                 (A) (A) (A) (A) (A) (A) (A) (A) (A) (A) (A) (A)
                 (A) (A) (A) (A) (A) (A) (A) (A) (A) (A) (A) (A)
                 (A) (A) (A) (A) (A) (A) (A) (A) (A) (A) (A) (A)
                 (A) (A) (A) (A) (A) (A) (A) (A) (A) (A) (A) (A)
                 (A) (A) (A) (A) (A) (A) (A) (A) (A) (A) (A) (A)
                 (A) (A) (A) (A) (A) (A) (A) (A) (A) (A) (A) (A)
                 (A) (A) (A) (A) (A) (A) (A) (A) (A) (A) (A) (A)
                 (A) (A) (A) (A) (A) (A) (A) (A) (A) (A) (A) (A)
                 (A) (A) (A) (A) (A) (A) (A) (A) (A) (A) (A) (A)
                 (A) (A) (A) (A) (A) (A) (A) (A) (A) (A) (A) (A)
                 (A) (A) (A) (A) (A) (A) (A) (A) (A) (A) (A) (A)
                 (A) (A) (A) (A) (A) (A) (A) (A) (A) (A) (A) (A)
                 (A) (A) (A) (A) (A) (A) (A) (A) (A) (A) (A) (A)
                 (A) (A) (A) (A) (A) (A) (A) (A) (A) (A) (A) (A)
                 (A) (A) (A) (A) (A) (A) (A) (A) (A) (A) (A) (A)
                 (A) (A) (A) (A) (A) (A) (A) (A) (A) (A) (A) (A)
                 (A) (A) (A) (A) (A) (A) (A) (A) (A) (A) (A) (A)
                 (A) (A) (A) (A) (A) (A) (A) (A) (A) (A) (A) (A)
                 (A) (A) (A) (A) (A) (A) (A) (A) (A) (A) (A) (A)
                 (A) (A) (A) (A) (A) (A) (A) (A) (A) (A) (A) (A)
                 (A) (A) (A) (A) (A) (A) (A) (A) (A) (A) (A) (A)
                 (A) (A) (A) (A) (A) (A) (A) (A) (A) (A) (A) (A)
                 (A) (A) (A) (A) (A) (A) (A) (A) (A) (A) (A) (A)
                 (A) (A) (A) (A) (A) (A) (A) (A) (A) (A) (A) (A)
                 (A) (A) (A) (A) (A) (A) (A) (A) (A) (A) (A) (A)
                 (A) (A) (A) (A) (A) (A) (A) (A) (A) (A) (A) (A)
                 (A) (A) (A) (A) (A) (A) (A) (A) (A) (A) (A) (A)
                 (A) (A) (A) (A) (A) (A) (A) (A) (A) (A) (A) (A)
                 (A) (A) (A) (A) (A) (A) (A) (A) (A) (A) (A) (A)
                 (A) (A) (A) (A) (A) (A) (A) (A) (A) (A) (A) (A)
                 (A) (A) (A) (A) (A) (A) (A) (A) (A) (A) (A) (A)
                 (A) (A) (A) (A) (A) (A) (A) (A) (A) (A) (A) (A)
                 (A) (A) (A) (A) (A) (A) (A) (A) (A) (A) (A) (A)
                 (A) (A) (A) (A) (A) (A) (A) (A) (A) (A) (A) (A)
                 (A) (A) (A) (A) (A) (A) (A) (A) (A) (A) (A) (A)
                 (A) (A) (A) (A) (A) (A) (A) (A) (A) (A) (A) (A)
                 (A) (A) (A) (A) (A) (A) (A) (A) (A) (A) (A) (A)
                 (A) (A) (A) (A) (A) (A) (A) (A) (A) (A) (A) (A)
                 (A) (A) (A) (A) (A) (A) (A) (A) (A) (A) (A) (A)
                 (A) (A) (A) (A) (A) (A) (A) (A) (A) (A) (A) (A)
                 (A) (A) (A) (A) (A) (A) (A) (A) (A) (A) (A) (A)
                 (A) (A) (A) (A) (A) (A) (A) (A) (A) (A) (A) (A)
                 (A) (A) (A) (A) (A) (A) (A) (A) (A) (A) (A) (A)
                 (A) (A) (A) (A) (A) (A) (A) (A) (A) (A) (A) (A)
                 (A) (A) (A) (A) (A) (A) (A) (A) (A) (A) (A) (A)
                 (A) (A) (A) (A) (A) (A) (A) (A) (A) (A) (A) (A)
                 (A) (A) (A) (A) (A) (A) (A) (A) (A) (A) (A) (A)
                 (A) (A) (A) (A) (A) (A) (A) (A) (A) (A) (A) (A)
                 (A) (A) (A) (A) (A) (A) (A) (A) (A) (A) (A) (A)
                 (A) (A) (A) (A) (A) (A) (A) (A) (A) (A) (A) (A)
                 (A) (A) (A) (A) (A) (A) (A) (A) (A) (A) (A) (A)
                 (A) (A) (A) (A) (A) (A) (A) (A) (A) (A) (A) (A)
                 (A) (A) (A) (A) (A) (A) (A) (A) (A) (A) (A) (A)
                 (A) (A) (A) (A) (A) (A) (A) (A) (A) (A) (A) (A)
                 (A) (A) (A) (A) (A) (A) (A) (A) (A) (A) (A) (A)
                 (A) (A) (A) (A) (A) (A) (A) (A) (A) (A) (A) (A)
                 (A) (A) (A) (A) (A) (A) (A) (A) (A) (A) (A) (A)
                 (A) (A) (A) (A) (A) (A) (A) (A) (A) (A) (A) (A)
                 (A) (A) (A) (A) (A) (A) (A) (A) (A) (A) (A) (A)
                 (A) (A) (A) (A) (A) (A) (A) (A) (A) (A) (A) (A)
                 (A) (A) (A) (A) (A) (A) (A) (A) (A) (A) (A) (A)
                 (A) (A) (A) (A) (A) (A) (A) (A) (A) (A) (A) (A)
                 (A) (A) (A) (A) (A) (A) (A) (A) (A) (A) (A) (A)
                 (A) (A) (A) (A) (A) (A) (A) (A) (A) (A) (A) (A)
                 (A) (A) (A) (A) (A) (A) (A) (A) (A) (A) (A) (A)
                 (A) (A) (A) (A) (A) (A) (A) (A) (A) (A) (A) (A)
                 (A) (A) (A) (A) (A) (A) (A) (A) (A) (A) (A) (A)
                 (A) (A) (A) (A) (A) (A) (A) (A) (A) (A) (A) (A)
                 (A) (A) (A) (A) (A) (A) (A) (A) (A) (A) (A) (A)
                 (A) (A) (A) (A) (A) (A) (A) (A) (A) (A) (A) (A)
                 (A) (A) (A) (A) (A) (A) (A) (A) (A) (A) (A) (A)
                 (A) (A) (A) (A) (A) (A) (A) (A) (A) (A) (A) (A)
                 (A) (A) (A) (A) (A) (A) (A) (A) (A) (A) (A) (A)
                 (A) (A) (A) (A) (A) (A) (A) (A) (A) (A) (A) (A)
                 (A) (A) (A) (A) (A) (A) (A) (A) (A) (A) (A) (A)
                 (A) (A) (A) (A) (A) (A) (A) (A) (A) (A) (A) (A)
                 (A) (A) (A) (A) (A) (A) (A) (A) (A) (A) (A) (A)
                 (A) (A) (A) (A) (A) (A) (A) (A) (A) (A) (A) (A)
                 (A) (A) (A) (A) (A) (A) (A) (A) (A) (A) (A) (A)
                 (A) (A) (A) (A) (A) (A) (A) (A) (A) (A) (A) (A)
                 (A) (A) (A) (A) (A) (A) (A) (A) (A) (A) (A) (A)
                 (A) (A) (A) (A) (A) (A) (A) (A) (A) (A) (A) (A)
                 (A) (A) (A) (A) (A) (A) (A) (A) (A) (A) (A) (A)
                 (A) (A) (A) (A) (A) (A) (A) (A) (A) (A) (A) (A)
                 (A) (A) (A) (A) (A) (A) (A) (A) (A) (A) (A) (A)
                 (A) (A) (A) (A) (A) (A) (A) (A) (A) (A) (A) (A)
                 (A) (A) (A) (A) (A) (A) (A) (A) (A) (A) (A) (A)
                 (A) (A) (A) (A) (A) (A) (A) (A) (A) (A) (A) (A)
                 (A) (A) (A) (A) (A) (A) (A) (A) (A) (A) (A) (A)
                 (A) (A) (A) (A) (A) (A) (A) (A) (A) (A) (A) (A)
                 (A) (A) (A) (A) (A) (A) (A) (A) (A) (A) (A) (A)
                 (A) (A) (A) (A) (A) (A) (A) (A) (A) (A) (A) (A)
                 (A) (A) (A) (A) (A) (A) (A) (A) (A) (A) (A) (A)
                 (A) (A) (A) (A) (A) (A) (A) (A) (A) (A) (A) (A)
                 (A) (A) (A) (A) (A) (A) (A) (A) (A) (A) (A) (A)
                 (A) (A) (A) (A) (A) (A) (A) (A) (A) (A) (A) (A)
                 (A) (A) (A) (A) (A) (A) (A) (A) (A) (A) (A) (A)
                 (A) (A) (A) (A) (A) (A) (A) (A) (A) (A) (A) (A)
                 (A) (A) (A) (A) (A) (A) (A) (A) (A) (A) (A) (A)
                 (A) (A) (A) (A) (A) (A) (A) (A) (A) (A) (A) (A)
                 (A) (A) (A) (A) (A) (A) (A) (A) (A) (A) (A) (A)
                 (A) (A) (A) (A) (A) (A) (A) (A) (A) (A) (A) (A)
                 (A) (A) (A) (A) (A) (A) (A) (A) (A) (A) (A) (A)
                 (A) (A) (A) (A) (A) (A) (A) (A) (A) (A) (A) (A)
                 (A) (A) (A) (A) (A) (A) (A) (A) (A) (A) (A) (A)
                 (A) (A) (A) (A) (A) (A) (A) (A) (A) (A) (A) (A)
                 (A) (A) (A) (A) (A) (A) (A) (A) (A) (A) (A) (A)
                 (A) (A) (A) (A) (A) (A) (A) (A) (A) (A) (A) (A)
                 (A) (A) (A) (A) (A) (A) (A) (A) (A) (A) (A) (A)
                 (A) (A) (A) (A) (A) (A) (A) (A) (A) (A) (A) (A)
                 (A) (A) (A) (A) (A) (A) (A) (A) (A) (A) (A) (A)
                 (A) (A) (A) (A) (A) (A) (A) (A) (A) (A) (A) (A)
                 (A) (A) (A) (A) (A) (A) (A) (A) (A) (A) (A) (A)
                 (A) (A) (A) (A) (A) (A) (A) (A) (A) (A) (A) (A)
                 (A) (A) (A) (A) (A) (A) (A) (A) (A) (A) (A) (A)
                 (A) (A) (A) (A) (A) (A) (A) (A) (A) (A) (A) (A)
                 (A) (A) (A) (A) (A) (A) (A) (A) (A) (A) (A) (A)
                 (A) (A) (A) (A) (A) (A) (A) (A) (A) (A) (A) (A)
                 (A) (A) (A) (A) (A) (A) (A) (A) (A) (A) (A) (A)
                 (A) (A) (A)
 Beta  Orbitals:
       Occupied  (A) (A) (A) (A) (A) (A) (A) (A) (A) (A) (A) (A)
                 (A) (A) (A) (A) (A) (A) (A) (A) (A) (A) (A) (A)
                 (A) (A) (A) (A) (A) (A) (A) (A) (A) (A) (A) (A)
                 (A) (A) (A) (A) (A) (A) (A) (A) (A) (A) (A) (A)
                 (A) (A) (A) (A) (A) (A) (A) (A) (A) (A) (A) (A)
                 (A) (A) (A) (A) (A) (A) (A) (A) (A) (A) (A) (A)
                 (A) (A) (A) (A) (A) (A) (A) (A) (A) (A) (A) (A)
                 (A) (A) (A) (A) (A) (A) (A) (A) (A) (A) (A) (A)
                 (A) (A) (A) (A) (A) (A) (A) (A) (A) (A) (A) (A)
                 (A) (A) (A) (A) (A) (A) (A) (A) (A) (A) (A) (A)
                 (A) (A) (A) (A) (A) (A) (A) (A) (A) (A) (A) (A)
                 (A) (A) (A) (A) (A) (A) (A) (A) (A) (A) (A) (A)
                 (A) (A) (A) (A) (A) (A) (A) (A) (A) (A) (A) (A)
                 (A) (A) (A) (A) (A) (A) (A) (A) (A) (A) (A) (A)
                 (A) (A) (A) (A) (A) (A) (A) (A) (A) (A) (A) (A)
                 (A) (A)
       Virtual   (A) (A) (A) (A) (A) (A) (A) (A) (A) (A) (A) (A)
                 (A) (A) (A) (A) (A) (A) (A) (A) (A) (A) (A) (A)
                 (A) (A) (A) (A) (A) (A) (A) (A) (A) (A) (A) (A)
                 (A) (A) (A) (A) (A) (A) (A) (A) (A) (A) (A) (A)
                 (A) (A) (A) (A) (A) (A) (A) (A) (A) (A) (A) (A)
                 (A) (A) (A) (A) (A) (A) (A) (A) (A) (A) (A) (A)
                 (A) (A) (A) (A) (A) (A) (A) (A) (A) (A) (A) (A)
                 (A) (A) (A) (A) (A) (A) (A) (A) (A) (A) (A) (A)
                 (A) (A) (A) (A) (A) (A) (A) (A) (A) (A) (A) (A)
                 (A) (A) (A) (A) (A) (A) (A) (A) (A) (A) (A) (A)
                 (A) (A) (A) (A) (A) (A) (A) (A) (A) (A) (A) (A)
                 (A) (A) (A) (A) (A) (A) (A) (A) (A) (A) (A) (A)
                 (A) (A) (A) (A) (A) (A) (A) (A) (A) (A) (A) (A)
                 (A) (A) (A) (A) (A) (A) (A) (A) (A) (A) (A) (A)
                 (A) (A) (A) (A) (A) (A) (A) (A) (A) (A) (A) (A)
                 (A) (A) (A) (A) (A) (A) (A) (A) (A) (A) (A) (A)
                 (A) (A) (A) (A) (A) (A) (A) (A) (A) (A) (A) (A)
                 (A) (A) (A) (A) (A) (A) (A) (A) (A) (A) (A) (A)
                 (A) (A) (A) (A) (A) (A) (A) (A) (A) (A) (A) (A)
                 (A) (A) (A) (A) (A) (A) (A) (A) (A) (A) (A) (A)
                 (A) (A) (A) (A) (A) (A) (A) (A) (A) (A) (A) (A)
                 (A) (A) (A) (A) (A) (A) (A) (A) (A) (A) (A) (A)
                 (A) (A) (A) (A) (A) (A) (A) (A) (A) (A) (A) (A)
                 (A) (A) (A) (A) (A) (A) (A) (A) (A) (A) (A) (A)
                 (A) (A) (A) (A) (A) (A) (A) (A) (A) (A) (A) (A)
                 (A) (A) (A) (A) (A) (A) (A) (A) (A) (A) (A) (A)
                 (A) (A) (A) (A) (A) (A) (A) (A) (A) (A) (A) (A)
                 (A) (A) (A) (A) (A) (A) (A) (A) (A) (A) (A) (A)
                 (A) (A) (A) (A) (A) (A) (A) (A) (A) (A) (A) (A)
                 (A) (A) (A) (A) (A) (A) (A) (A) (A) (A) (A) (A)
                 (A) (A) (A) (A) (A) (A) (A) (A) (A) (A) (A) (A)
                 (A) (A) (A) (A) (A) (A) (A) (A) (A) (A) (A) (A)
                 (A) (A) (A) (A) (A) (A) (A) (A) (A) (A) (A) (A)
                 (A) (A) (A) (A) (A) (A) (A) (A) (A) (A) (A) (A)
                 (A) (A) (A) (A) (A) (A) (A) (A) (A) (A) (A) (A)
                 (A) (A) (A) (A) (A) (A) (A) (A) (A) (A) (A) (A)
                 (A) (A) (A) (A) (A) (A) (A) (A) (A) (A) (A) (A)
                 (A) (A) (A) (A) (A) (A) (A) (A) (A) (A) (A) (A)
                 (A) (A) (A) (A) (A) (A) (A) (A) (A) (A) (A) (A)
                 (A) (A) (A) (A) (A) (A) (A) (A) (A) (A) (A) (A)
                 (A) (A) (A) (A) (A) (A) (A) (A) (A) (A) (A) (A)
                 (A) (A) (A) (A) (A) (A) (A) (A) (A) (A) (A) (A)
                 (A) (A) (A) (A) (A) (A) (A) (A) (A) (A) (A) (A)
                 (A) (A) (A) (A) (A) (A) (A) (A) (A) (A) (A) (A)
                 (A) (A) (A) (A) (A) (A) (A) (A) (A) (A) (A) (A)
                 (A) (A) (A) (A) (A) (A) (A) (A) (A) (A) (A) (A)
                 (A) (A) (A) (A) (A) (A) (A) (A) (A) (A) (A) (A)
                 (A) (A) (A) (A) (A) (A) (A) (A) (A) (A) (A) (A)
                 (A) (A) (A) (A) (A) (A) (A) (A) (A) (A) (A) (A)
                 (A) (A) (A) (A) (A) (A) (A) (A) (A) (A) (A) (A)
                 (A) (A) (A) (A) (A) (A) (A) (A) (A) (A) (A) (A)
                 (A) (A) (A) (A) (A) (A) (A) (A) (A) (A) (A) (A)
                 (A) (A) (A) (A) (A) (A) (A) (A) (A) (A) (A) (A)
                 (A) (A) (A) (A) (A) (A) (A) (A) (A) (A) (A) (A)
                 (A) (A) (A) (A) (A) (A) (A) (A) (A) (A) (A) (A)
                 (A) (A) (A) (A) (A) (A) (A) (A) (A) (A) (A) (A)
                 (A) (A) (A) (A) (A) (A) (A) (A) (A) (A) (A) (A)
                 (A) (A) (A) (A) (A) (A) (A) (A) (A) (A) (A) (A)
                 (A) (A) (A) (A) (A) (A) (A) (A) (A) (A) (A) (A)
                 (A) (A) (A) (A) (A) (A) (A) (A) (A) (A) (A) (A)
                 (A) (A) (A) (A) (A) (A) (A) (A) (A) (A) (A) (A)
                 (A) (A) (A) (A) (A) (A) (A) (A) (A) (A) (A) (A)
                 (A) (A) (A) (A) (A) (A) (A) (A) (A) (A) (A) (A)
                 (A) (A) (A) (A) (A) (A) (A) (A) (A) (A) (A) (A)
                 (A) (A) (A) (A) (A) (A) (A) (A) (A) (A) (A) (A)
                 (A) (A) (A) (A) (A) (A) (A) (A) (A) (A) (A) (A)
                 (A) (A) (A) (A) (A) (A) (A) (A) (A) (A) (A) (A)
                 (A) (A) (A) (A) (A) (A) (A) (A) (A) (A) (A) (A)
                 (A) (A) (A) (A) (A) (A) (A) (A) (A) (A) (A) (A)
                 (A) (A) (A) (A) (A) (A) (A) (A) (A) (A) (A) (A)
                 (A) (A) (A) (A) (A) (A) (A) (A) (A) (A) (A) (A)
                 (A) (A) (A) (A) (A) (A) (A) (A) (A) (A) (A) (A)
                 (A) (A) (A) (A) (A) (A) (A) (A) (A) (A) (A) (A)
                 (A) (A) (A) (A) (A) (A) (A) (A) (A) (A) (A) (A)
                 (A) (A) (A) (A) (A) (A) (A) (A) (A) (A) (A) (A)
                 (A) (A) (A) (A) (A) (A) (A) (A) (A) (A) (A) (A)
                 (A) (A) (A) (A) (A) (A) (A) (A) (A) (A) (A) (A)
                 (A) (A) (A) (A) (A) (A) (A) (A) (A) (A) (A) (A)
                 (A) (A) (A) (A) (A) (A) (A) (A) (A) (A) (A) (A)
                 (A) (A) (A) (A) (A) (A) (A) (A) (A) (A) (A) (A)
                 (A) (A) (A) (A) (A) (A) (A) (A) (A) (A) (A) (A)
                 (A) (A) (A) (A) (A) (A) (A) (A) (A) (A) (A) (A)
                 (A) (A) (A) (A) (A) (A) (A) (A) (A) (A) (A) (A)
                 (A) (A) (A) (A) (A) (A) (A) (A) (A) (A) (A) (A)
                 (A) (A) (A) (A) (A) (A) (A) (A) (A) (A) (A) (A)
                 (A) (A) (A) (A) (A) (A) (A) (A) (A) (A) (A) (A)
                 (A) (A) (A) (A) (A) (A) (A) (A) (A) (A) (A) (A)
                 (A) (A) (A) (A) (A) (A) (A) (A) (A) (A) (A) (A)
                 (A) (A) (A) (A) (A) (A) (A) (A) (A) (A) (A) (A)
                 (A) (A) (A) (A) (A) (A) (A) (A) (A) (A) (A) (A)
                 (A) (A) (A) (A) (A) (A) (A) (A) (A) (A) (A) (A)
                 (A) (A) (A) (A) (A) (A) (A) (A) (A) (A) (A) (A)
                 (A) (A) (A) (A) (A) (A) (A) (A) (A) (A) (A) (A)
                 (A) (A) (A) (A) (A) (A) (A) (A) (A) (A) (A) (A)
                 (A) (A) (A) (A) (A) (A) (A) (A) (A) (A) (A) (A)
                 (A) (A) (A) (A) (A) (A) (A) (A) (A) (A) (A) (A)
                 (A) (A) (A) (A) (A) (A) (A) (A) (A) (A) (A) (A)
                 (A) (A) (A) (A) (A) (A) (A) (A) (A) (A) (A) (A)
                 (A) (A) (A) (A) (A) (A) (A) (A) (A) (A) (A) (A)
                 (A) (A) (A) (A) (A) (A) (A) (A) (A) (A) (A) (A)
                 (A) (A) (A) (A) (A) (A) (A) (A) (A) (A) (A) (A)
                 (A) (A) (A) (A) (A) (A) (A) (A) (A) (A) (A) (A)
                 (A) (A) (A) (A) (A) (A) (A) (A) (A) (A) (A) (A)
                 (A) (A) (A) (A) (A) (A) (A) (A) (A) (A) (A) (A)
                 (A) (A) (A) (A) (A) (A) (A) (A) (A) (A) (A) (A)
                 (A) (A) (A) (A) (A) (A) (A) (A) (A) (A) (A) (A)
                 (A) (A) (A) (A) (A) (A) (A) (A) (A) (A) (A) (A)
                 (A) (A) (A) (A) (A) (A) (A) (A) (A) (A) (A) (A)
                 (A) (A) (A) (A) (A) (A) (A) (A) (A) (A) (A) (A)
                 (A) (A) (A) (A) (A) (A) (A) (A) (A) (A) (A) (A)
                 (A) (A) (A) (A) (A) (A) (A) (A) (A) (A) (A) (A)
                 (A) (A) (A) (A) (A) (A) (A) (A) (A) (A) (A) (A)
                 (A) (A) (A) (A) (A) (A) (A) (A) (A) (A) (A) (A)
                 (A) (A) (A) (A) (A) (A) (A) (A) (A) (A) (A) (A)
                 (A) (A) (A) (A) (A) (A) (A) (A) (A) (A) (A) (A)
                 (A) (A) (A) (A) (A) (A) (A) (A) (A) (A) (A) (A)
                 (A) (A) (A) (A) (A) (A) (A) (A) (A) (A) (A) (A)
                 (A) (A) (A) (A) (A) (A) (A) (A) (A) (A) (A) (A)
                 (A) (A) (A) (A) (A) (A) (A) (A) (A) (A) (A) (A)
                 (A) (A) (A) (A) (A) (A) (A) (A) (A) (A) (A) (A)
                 (A) (A) (A) (A) (A) (A) (A) (A) (A) (A) (A) (A)
                 (A) (A) (A) (A) (A) (A) (A) (A) (A) (A) (A) (A)
                 (A) (A) (A) (A) (A) (A) (A) (A) (A) (A) (A) (A)
                 (A) (A) (A) (A) (A) (A) (A) (A) (A) (A) (A) (A)
                 (A) (A) (A) (A) (A) (A) (A) (A) (A) (A) (A) (A)
                 (A) (A) (A) (A) (A) (A) (A) (A) (A) (A) (A) (A)
                 (A) (A) (A) (A) (A) (A) (A) (A) (A) (A) (A) (A)
                 (A) (A) (A) (A) (A) (A) (A) (A) (A) (A) (A) (A)
                 (A) (A) (A) (A) (A) (A) (A) (A) (A) (A) (A) (A)
                 (A) (A) (A) (A) (A) (A) (A) (A) (A) (A) (A) (A)
                 (A) (A) (A) (A) (A) (A) (A) (A) (A) (A) (A) (A)
                 (A) (A) (A) (A) (A) (A) (A)
 The electronic state is 5-A.
 Alpha  occ. eigenvalues -- -256.31091 -30.11878 -25.95345 -25.93328 -25.92593
 Alpha  occ. eigenvalues --  -19.25229 -19.24845 -19.21991 -19.16697 -19.16583
 Alpha  occ. eigenvalues --  -14.46085 -14.38951 -14.35839 -14.35151 -14.35118
 Alpha  occ. eigenvalues --  -14.34853 -10.33973 -10.33622 -10.28349 -10.26871
 Alpha  occ. eigenvalues --  -10.25700 -10.24372 -10.24231 -10.23969 -10.23768
 Alpha  occ. eigenvalues --  -10.23759 -10.23692 -10.23685 -10.23571 -10.23547
 Alpha  occ. eigenvalues --  -10.23525 -10.23002 -10.22563 -10.22491 -10.22393
 Alpha  occ. eigenvalues --  -10.22316 -10.22301 -10.22206 -10.22133 -10.22065
 Alpha  occ. eigenvalues --  -10.21970 -10.21874 -10.21861 -10.21833 -10.21815
 Alpha  occ. eigenvalues --  -10.21775 -10.21697 -10.21677 -10.21556 -10.21527
 Alpha  occ. eigenvalues --  -10.21427 -10.21345 -10.19251  -3.55066  -2.34669
 Alpha  occ. eigenvalues --   -2.30479  -2.29014  -1.17301  -1.17161  -1.10943
 Alpha  occ. eigenvalues --   -1.06667  -1.02537  -1.01967  -1.00344  -0.99628
 Alpha  occ. eigenvalues --   -0.99231  -0.98461  -0.94731  -0.85037  -0.84433
 Alpha  occ. eigenvalues --   -0.83809  -0.83610  -0.82710  -0.81954  -0.81627
 Alpha  occ. eigenvalues --   -0.79953  -0.79722  -0.78935  -0.78317  -0.76303
 Alpha  occ. eigenvalues --   -0.75309  -0.74020  -0.73628  -0.72982  -0.71931
 Alpha  occ. eigenvalues --   -0.70739  -0.69725  -0.69499  -0.68053  -0.67032
 Alpha  occ. eigenvalues --   -0.66786  -0.65466  -0.64975  -0.64707  -0.62950
 Alpha  occ. eigenvalues --   -0.62095  -0.61091  -0.59375  -0.58839  -0.58448
 Alpha  occ. eigenvalues --   -0.57017  -0.55873  -0.55232  -0.54402  -0.53320
 Alpha  occ. eigenvalues --   -0.52967  -0.52921  -0.51536  -0.51223  -0.50905
 Alpha  occ. eigenvalues --   -0.50306  -0.50191  -0.50127  -0.50000  -0.49731
 Alpha  occ. eigenvalues --   -0.49369  -0.49179  -0.48978  -0.48739  -0.47919
 Alpha  occ. eigenvalues --   -0.46995  -0.46430  -0.46124  -0.45922  -0.45728
 Alpha  occ. eigenvalues --   -0.45154  -0.44991  -0.44781  -0.44577  -0.44456
 Alpha  occ. eigenvalues --   -0.44121  -0.43661  -0.43265  -0.42980  -0.42675
 Alpha  occ. eigenvalues --   -0.42259  -0.42108  -0.41744  -0.41474  -0.40902
 Alpha  occ. eigenvalues --   -0.40788  -0.40481  -0.39756  -0.39670  -0.39330
 Alpha  occ. eigenvalues --   -0.39171  -0.38939  -0.38593  -0.38230  -0.38192
 Alpha  occ. eigenvalues --   -0.37698  -0.37212  -0.37099  -0.36800  -0.36633
 Alpha  occ. eigenvalues --   -0.36458  -0.36363  -0.35618  -0.35172  -0.34817
 Alpha  occ. eigenvalues --   -0.34242  -0.34077  -0.33167  -0.32586  -0.32199
 Alpha  occ. eigenvalues --   -0.31970  -0.31912  -0.31358  -0.31079  -0.30654
 Alpha  occ. eigenvalues --   -0.30143  -0.28149  -0.27657  -0.27058  -0.26793
 Alpha  occ. eigenvalues --   -0.26665  -0.25628  -0.23977  -0.23394  -0.22557
 Alpha  occ. eigenvalues --   -0.21443  -0.20474  -0.20010  -0.19358  -0.18496
 Alpha  occ. eigenvalues --   -0.17756
 Alpha virt. eigenvalues --   -0.08209  -0.07888  -0.04039  -0.01017  -0.00827
 Alpha virt. eigenvalues --   -0.00496   0.00102   0.01373   0.01726   0.02198
 Alpha virt. eigenvalues --    0.03144   0.03589   0.04074   0.04417   0.04623
 Alpha virt. eigenvalues --    0.04740   0.04995   0.05669   0.06398   0.06988
 Alpha virt. eigenvalues --    0.07209   0.07610   0.07798   0.08040   0.08408
 Alpha virt. eigenvalues --    0.08712   0.08913   0.09134   0.09446   0.09551
 Alpha virt. eigenvalues --    0.10026   0.10393   0.10505   0.10907   0.11425
 Alpha virt. eigenvalues --    0.11820   0.12046   0.12582   0.12743   0.13118
 Alpha virt. eigenvalues --    0.13424   0.13658   0.13796   0.14091   0.14317
 Alpha virt. eigenvalues --    0.14580   0.14740   0.14937   0.15141   0.15389
 Alpha virt. eigenvalues --    0.15817   0.16025   0.16203   0.16549   0.16748
 Alpha virt. eigenvalues --    0.16902   0.17165   0.17421   0.17708   0.17802
 Alpha virt. eigenvalues --    0.18018   0.18266   0.18603   0.18837   0.19010
 Alpha virt. eigenvalues --    0.19305   0.19399   0.19707   0.19999   0.20228
 Alpha virt. eigenvalues --    0.20454   0.20738   0.20923   0.20994   0.21222
 Alpha virt. eigenvalues --    0.21505   0.22005   0.22176   0.22513   0.22657
 Alpha virt. eigenvalues --    0.22954   0.23010   0.23267   0.23343   0.23529
 Alpha virt. eigenvalues --    0.23910   0.24096   0.24147   0.24287   0.24489
 Alpha virt. eigenvalues --    0.24745   0.24973   0.25155   0.25363   0.25496
 Alpha virt. eigenvalues --    0.25684   0.26139   0.26540   0.26883   0.27123
 Alpha virt. eigenvalues --    0.27243   0.27533   0.27631   0.27956   0.28108
 Alpha virt. eigenvalues --    0.28395   0.28575   0.28767   0.29021   0.29135
 Alpha virt. eigenvalues --    0.29543   0.29896   0.29998   0.30100   0.30465
 Alpha virt. eigenvalues --    0.30670   0.30736   0.30769   0.31561   0.31864
 Alpha virt. eigenvalues --    0.32001   0.32260   0.32727   0.32801   0.33101
 Alpha virt. eigenvalues --    0.33343   0.33756   0.34000   0.34158   0.34976
 Alpha virt. eigenvalues --    0.35094   0.35100   0.35207   0.35507   0.35715
 Alpha virt. eigenvalues --    0.35988   0.36263   0.36750   0.37118   0.37271
 Alpha virt. eigenvalues --    0.37518   0.37609   0.38158   0.38281   0.38542
 Alpha virt. eigenvalues --    0.38626   0.38808   0.38898   0.39027   0.39356
 Alpha virt. eigenvalues --    0.39502   0.39650   0.39680   0.39974   0.40028
 Alpha virt. eigenvalues --    0.40191   0.40684   0.40784   0.41096   0.41288
 Alpha virt. eigenvalues --    0.41417   0.41550   0.41755   0.41942   0.42147
 Alpha virt. eigenvalues --    0.42437   0.42632   0.42874   0.42926   0.43214
 Alpha virt. eigenvalues --    0.43304   0.43423   0.43911   0.44085   0.44284
 Alpha virt. eigenvalues --    0.44401   0.44690   0.45067   0.45518   0.45569
 Alpha virt. eigenvalues --    0.45870   0.46096   0.46142   0.46490   0.46540
 Alpha virt. eigenvalues --    0.46783   0.46983   0.47259   0.47346   0.47508
 Alpha virt. eigenvalues --    0.47809   0.47898   0.48145   0.48281   0.48514
 Alpha virt. eigenvalues --    0.48743   0.48898   0.49041   0.49358   0.49568
 Alpha virt. eigenvalues --    0.49815   0.49936   0.50159   0.50317   0.50551
 Alpha virt. eigenvalues --    0.50761   0.50909   0.51051   0.51262   0.51388
 Alpha virt. eigenvalues --    0.51456   0.51880   0.52141   0.52294   0.52455
 Alpha virt. eigenvalues --    0.52647   0.52934   0.53107   0.53236   0.53490
 Alpha virt. eigenvalues --    0.53699   0.53865   0.54077   0.54511   0.54791
 Alpha virt. eigenvalues --    0.54846   0.55051   0.55185   0.55676   0.55831
 Alpha virt. eigenvalues --    0.56021   0.56303   0.56573   0.56759   0.56814
 Alpha virt. eigenvalues --    0.57243   0.57550   0.57599   0.57716   0.57948
 Alpha virt. eigenvalues --    0.58081   0.58783   0.59153   0.59204   0.59375
 Alpha virt. eigenvalues --    0.59582   0.59806   0.60050   0.60134   0.60221
 Alpha virt. eigenvalues --    0.60932   0.61200   0.61418   0.61671   0.62148
 Alpha virt. eigenvalues --    0.62567   0.62700   0.62996   0.63207   0.63452
 Alpha virt. eigenvalues --    0.63672   0.63862   0.64117   0.64341   0.64682
 Alpha virt. eigenvalues --    0.65210   0.65360   0.65641   0.65833   0.66215
 Alpha virt. eigenvalues --    0.66341   0.66847   0.67197   0.67413   0.67439
 Alpha virt. eigenvalues --    0.67689   0.67912   0.68081   0.68411   0.68674
 Alpha virt. eigenvalues --    0.68816   0.69013   0.69246   0.69473   0.69775
 Alpha virt. eigenvalues --    0.70012   0.70078   0.70478   0.70761   0.71120
 Alpha virt. eigenvalues --    0.71359   0.71566   0.71822   0.71951   0.72368
 Alpha virt. eigenvalues --    0.72587   0.72915   0.73074   0.73359   0.73721
 Alpha virt. eigenvalues --    0.74157   0.74299   0.74520   0.74945   0.75049
 Alpha virt. eigenvalues --    0.75525   0.75878   0.76184   0.76449   0.76813
 Alpha virt. eigenvalues --    0.76950   0.77374   0.77716   0.77788   0.78112
 Alpha virt. eigenvalues --    0.78269   0.78330   0.78709   0.79214   0.79596
 Alpha virt. eigenvalues --    0.79778   0.79905   0.80277   0.80466   0.80963
 Alpha virt. eigenvalues --    0.81596   0.81717   0.82167   0.82453   0.83020
 Alpha virt. eigenvalues --    0.83312   0.83427   0.83631   0.83851   0.84296
 Alpha virt. eigenvalues --    0.84587   0.84924   0.85151   0.85539   0.85952
 Alpha virt. eigenvalues --    0.86351   0.86567   0.86605   0.86927   0.87625
 Alpha virt. eigenvalues --    0.88132   0.88239   0.88421   0.88697   0.89209
 Alpha virt. eigenvalues --    0.89303   0.89735   0.89804   0.90568   0.90824
 Alpha virt. eigenvalues --    0.91138   0.91862   0.92025   0.92216   0.92537
 Alpha virt. eigenvalues --    0.92737   0.93300   0.93464   0.93933   0.94031
 Alpha virt. eigenvalues --    0.94271   0.94848   0.95070   0.95584   0.95861
 Alpha virt. eigenvalues --    0.96086   0.96329   0.96764   0.97006   0.97068
 Alpha virt. eigenvalues --    0.97439   0.97796   0.98734   0.98820   0.99473
 Alpha virt. eigenvalues --    0.99654   0.99746   1.00110   1.00148   1.00496
 Alpha virt. eigenvalues --    1.00904   1.00971   1.01428   1.01645   1.02239
 Alpha virt. eigenvalues --    1.02594   1.02868   1.03182   1.03475   1.03518
 Alpha virt. eigenvalues --    1.03829   1.04172   1.04640   1.05023   1.05232
 Alpha virt. eigenvalues --    1.05553   1.05924   1.06098   1.06319   1.06501
 Alpha virt. eigenvalues --    1.06751   1.07311   1.07723   1.07916   1.08042
 Alpha virt. eigenvalues --    1.08275   1.08789   1.09372   1.09523   1.09733
 Alpha virt. eigenvalues --    1.10074   1.10681   1.10970   1.11381   1.11787
 Alpha virt. eigenvalues --    1.12065   1.12466   1.12855   1.13076   1.13593
 Alpha virt. eigenvalues --    1.13909   1.14246   1.14382   1.14610   1.15112
 Alpha virt. eigenvalues --    1.15343   1.15972   1.16298   1.16517   1.16871
 Alpha virt. eigenvalues --    1.17270   1.17390   1.18113   1.18530   1.19241
 Alpha virt. eigenvalues --    1.19532   1.19781   1.19936   1.20227   1.21025
 Alpha virt. eigenvalues --    1.21437   1.21556   1.22087   1.22540   1.22875
 Alpha virt. eigenvalues --    1.23052   1.23388   1.23956   1.24369   1.24612
 Alpha virt. eigenvalues --    1.24805   1.25625   1.26141   1.26309   1.26718
 Alpha virt. eigenvalues --    1.26911   1.27239   1.27851   1.28236   1.28455
 Alpha virt. eigenvalues --    1.29207   1.29679   1.30225   1.30825   1.30968
 Alpha virt. eigenvalues --    1.31412   1.32127   1.32261   1.32657   1.32974
 Alpha virt. eigenvalues --    1.33397   1.33611   1.33960   1.34495   1.34585
 Alpha virt. eigenvalues --    1.35305   1.35633   1.35920   1.36653   1.36990
 Alpha virt. eigenvalues --    1.37118   1.37590   1.38283   1.38421   1.38898
 Alpha virt. eigenvalues --    1.39183   1.39450   1.40445   1.40578   1.40889
 Alpha virt. eigenvalues --    1.41439   1.41902   1.42199   1.42734   1.43154
 Alpha virt. eigenvalues --    1.43565   1.44031   1.44279   1.45260   1.45316
 Alpha virt. eigenvalues --    1.45593   1.45945   1.46020   1.46490   1.46864
 Alpha virt. eigenvalues --    1.47297   1.47323   1.47711   1.47914   1.48460
 Alpha virt. eigenvalues --    1.48650   1.48935   1.49289   1.49510   1.49552
 Alpha virt. eigenvalues --    1.49803   1.50275   1.50852   1.50964   1.51335
 Alpha virt. eigenvalues --    1.51493   1.51794   1.51879   1.52375   1.52863
 Alpha virt. eigenvalues --    1.53313   1.53504   1.53784   1.54023   1.55008
 Alpha virt. eigenvalues --    1.55361   1.55550   1.55888   1.56058   1.56334
 Alpha virt. eigenvalues --    1.56669   1.56870   1.57190   1.57448   1.57661
 Alpha virt. eigenvalues --    1.57796   1.58349   1.58667   1.58890   1.59058
 Alpha virt. eigenvalues --    1.59316   1.59532   1.60010   1.60299   1.60622
 Alpha virt. eigenvalues --    1.60850   1.60986   1.61539   1.61860   1.62083
 Alpha virt. eigenvalues --    1.62415   1.62556   1.62838   1.63000   1.63611
 Alpha virt. eigenvalues --    1.63774   1.64336   1.64522   1.64798   1.65052
 Alpha virt. eigenvalues --    1.65214   1.65496   1.65775   1.65854   1.66266
 Alpha virt. eigenvalues --    1.66931   1.67279   1.67414   1.67597   1.68206
 Alpha virt. eigenvalues --    1.68967   1.69213   1.69346   1.69566   1.69671
 Alpha virt. eigenvalues --    1.69993   1.70735   1.71216   1.71436   1.71657
 Alpha virt. eigenvalues --    1.71799   1.72471   1.72685   1.72846   1.73355
 Alpha virt. eigenvalues --    1.73891   1.74051   1.74301   1.74711   1.74827
 Alpha virt. eigenvalues --    1.75015   1.75604   1.75938   1.76195   1.76853
 Alpha virt. eigenvalues --    1.77114   1.77219   1.77350   1.77606   1.78315
 Alpha virt. eigenvalues --    1.78852   1.79400   1.79834   1.80160   1.80437
 Alpha virt. eigenvalues --    1.80718   1.81053   1.81166   1.81960   1.82579
 Alpha virt. eigenvalues --    1.82610   1.82821   1.83064   1.83394   1.83864
 Alpha virt. eigenvalues --    1.84146   1.84786   1.84964   1.85089   1.85294
 Alpha virt. eigenvalues --    1.85644   1.85938   1.86235   1.86678   1.87056
 Alpha virt. eigenvalues --    1.87626   1.88226   1.88678   1.88936   1.89123
 Alpha virt. eigenvalues --    1.89612   1.90136   1.90432   1.91254   1.91391
 Alpha virt. eigenvalues --    1.91733   1.92172   1.92622   1.92988   1.93263
 Alpha virt. eigenvalues --    1.93831   1.94203   1.94614   1.95314   1.95945
 Alpha virt. eigenvalues --    1.95961   1.96072   1.96165   1.96691   1.97263
 Alpha virt. eigenvalues --    1.97608   1.98255   1.98541   1.98681   1.99003
 Alpha virt. eigenvalues --    1.99362   1.99904   2.00288   2.00364   2.00631
 Alpha virt. eigenvalues --    2.00887   2.01440   2.01828   2.02280   2.02965
 Alpha virt. eigenvalues --    2.03167   2.03693   2.04234   2.04558   2.04757
 Alpha virt. eigenvalues --    2.05530   2.05567   2.05840   2.06252   2.06614
 Alpha virt. eigenvalues --    2.07588   2.07750   2.08455   2.08739   2.09179
 Alpha virt. eigenvalues --    2.09218   2.09985   2.10114   2.10609   2.11083
 Alpha virt. eigenvalues --    2.11467   2.11608   2.12139   2.12423   2.12832
 Alpha virt. eigenvalues --    2.13399   2.13588   2.14263   2.14525   2.14924
 Alpha virt. eigenvalues --    2.15260   2.15645   2.16134   2.16395   2.16724
 Alpha virt. eigenvalues --    2.17115   2.17506   2.17614   2.18440   2.18493
 Alpha virt. eigenvalues --    2.18888   2.19225   2.20000   2.20241   2.20603
 Alpha virt. eigenvalues --    2.20768   2.21035   2.21909   2.22177   2.22365
 Alpha virt. eigenvalues --    2.22756   2.23063   2.23248   2.23692   2.24235
 Alpha virt. eigenvalues --    2.24894   2.25412   2.25801   2.26374   2.26654
 Alpha virt. eigenvalues --    2.27105   2.27998   2.28603   2.28736   2.29247
 Alpha virt. eigenvalues --    2.29711   2.30426   2.30876   2.31472   2.32007
 Alpha virt. eigenvalues --    2.32172   2.33154   2.33305   2.33774   2.34210
 Alpha virt. eigenvalues --    2.34354   2.34499   2.35046   2.35413   2.35555
 Alpha virt. eigenvalues --    2.35857   2.36100   2.36568   2.36737   2.37404
 Alpha virt. eigenvalues --    2.37620   2.38224   2.38615   2.39164   2.39566
 Alpha virt. eigenvalues --    2.39836   2.40031   2.40314   2.40798   2.41039
 Alpha virt. eigenvalues --    2.41351   2.42018   2.42749   2.43161   2.43320
 Alpha virt. eigenvalues --    2.43663   2.44065   2.44561   2.45140   2.45719
 Alpha virt. eigenvalues --    2.46249   2.46368   2.47110   2.47971   2.48103
 Alpha virt. eigenvalues --    2.48439   2.48559   2.49209   2.49902   2.50512
 Alpha virt. eigenvalues --    2.50681   2.51300   2.51972   2.52195   2.52302
 Alpha virt. eigenvalues --    2.52990   2.53184   2.53386   2.53786   2.54117
 Alpha virt. eigenvalues --    2.54655   2.55058   2.55516   2.55692   2.55829
 Alpha virt. eigenvalues --    2.56175   2.56942   2.57219   2.57502   2.57656
 Alpha virt. eigenvalues --    2.57979   2.58357   2.58771   2.59064   2.59114
 Alpha virt. eigenvalues --    2.59191   2.59574   2.60099   2.60222   2.60577
 Alpha virt. eigenvalues --    2.60929   2.61250   2.61817   2.62344   2.62945
 Alpha virt. eigenvalues --    2.63284   2.63420   2.63727   2.63953   2.64427
 Alpha virt. eigenvalues --    2.64924   2.65395   2.65587   2.65715   2.66237
 Alpha virt. eigenvalues --    2.66700   2.67029   2.67244   2.67656   2.67983
 Alpha virt. eigenvalues --    2.68539   2.68936   2.69105   2.69363   2.69535
 Alpha virt. eigenvalues --    2.70086   2.70639   2.71071   2.71196   2.71587
 Alpha virt. eigenvalues --    2.72084   2.72230   2.72795   2.73142   2.73226
 Alpha virt. eigenvalues --    2.73931   2.74561   2.74721   2.75130   2.75324
 Alpha virt. eigenvalues --    2.75632   2.76073   2.76524   2.76917   2.77195
 Alpha virt. eigenvalues --    2.77682   2.77841   2.78156   2.78687   2.79079
 Alpha virt. eigenvalues --    2.79816   2.80099   2.80248   2.80756   2.80924
 Alpha virt. eigenvalues --    2.81394   2.81823   2.82264   2.82364   2.82644
 Alpha virt. eigenvalues --    2.83295   2.83483   2.83646   2.83736   2.84101
 Alpha virt. eigenvalues --    2.84851   2.85304   2.85601   2.85838   2.86085
 Alpha virt. eigenvalues --    2.86526   2.86924   2.87112   2.87594   2.88049
 Alpha virt. eigenvalues --    2.88416   2.88702   2.88888   2.89095   2.89404
 Alpha virt. eigenvalues --    2.90067   2.90759   2.90889   2.91581   2.91869
 Alpha virt. eigenvalues --    2.92609   2.92862   2.93040   2.93313   2.93605
 Alpha virt. eigenvalues --    2.94079   2.94404   2.94805   2.95161   2.95267
 Alpha virt. eigenvalues --    2.95572   2.95705   2.96048   2.96332   2.96830
 Alpha virt. eigenvalues --    2.97212   2.97435   2.97480   2.97909   2.98094
 Alpha virt. eigenvalues --    2.98644   2.99035   2.99422   2.99535   2.99647
 Alpha virt. eigenvalues --    2.99868   3.00140   3.00699   3.00853   3.01180
 Alpha virt. eigenvalues --    3.01528   3.01810   3.02093   3.02703   3.02906
 Alpha virt. eigenvalues --    3.02962   3.03305   3.03509   3.03763   3.03884
 Alpha virt. eigenvalues --    3.04492   3.04916   3.05134   3.05361   3.05712
 Alpha virt. eigenvalues --    3.06432   3.06564   3.06753   3.06910   3.07131
 Alpha virt. eigenvalues --    3.07470   3.07899   3.08429   3.08740   3.09426
 Alpha virt. eigenvalues --    3.09827   3.09928   3.10196   3.10458   3.10659
 Alpha virt. eigenvalues --    3.11119   3.11254   3.11458   3.12044   3.12281
 Alpha virt. eigenvalues --    3.12485   3.12663   3.13131   3.13538   3.13817
 Alpha virt. eigenvalues --    3.14027   3.14350   3.14411   3.14739   3.15039
 Alpha virt. eigenvalues --    3.15656   3.15906   3.16202   3.16562   3.16778
 Alpha virt. eigenvalues --    3.16925   3.17348   3.17483   3.17814   3.18103
 Alpha virt. eigenvalues --    3.18282   3.18681   3.18957   3.19170   3.20103
 Alpha virt. eigenvalues --    3.20329   3.20732   3.21231   3.21714   3.22079
 Alpha virt. eigenvalues --    3.22125   3.22324   3.22462   3.22917   3.23251
 Alpha virt. eigenvalues --    3.23928   3.24293   3.24700   3.24938   3.25034
 Alpha virt. eigenvalues --    3.25372   3.25668   3.26177   3.26242   3.26763
 Alpha virt. eigenvalues --    3.27058   3.27241   3.27663   3.28019   3.28057
 Alpha virt. eigenvalues --    3.28258   3.28419   3.28735   3.28739   3.29286
 Alpha virt. eigenvalues --    3.29420   3.29709   3.30171   3.30428   3.30969
 Alpha virt. eigenvalues --    3.31269   3.31469   3.31721   3.31933   3.32270
 Alpha virt. eigenvalues --    3.32608   3.32659   3.32925   3.33190   3.33528
 Alpha virt. eigenvalues --    3.33953   3.34435   3.34507   3.34653   3.35020
 Alpha virt. eigenvalues --    3.35275   3.35428   3.35496   3.35813   3.36028
 Alpha virt. eigenvalues --    3.36195   3.36402   3.36781   3.36919   3.37187
 Alpha virt. eigenvalues --    3.37494   3.37751   3.38038   3.38321   3.38474
 Alpha virt. eigenvalues --    3.38788   3.39154   3.39238   3.39719   3.39905
 Alpha virt. eigenvalues --    3.40531   3.40801   3.41233   3.41487   3.41694
 Alpha virt. eigenvalues --    3.42353   3.42586   3.42748   3.43127   3.43399
 Alpha virt. eigenvalues --    3.43566   3.43780   3.44360   3.44464   3.44673
 Alpha virt. eigenvalues --    3.45187   3.45894   3.46217   3.46641   3.46758
 Alpha virt. eigenvalues --    3.47210   3.47443   3.47834   3.48158   3.48468
 Alpha virt. eigenvalues --    3.48899   3.49156   3.49872   3.50169   3.50223
 Alpha virt. eigenvalues --    3.50556   3.50880   3.51230   3.51470   3.51993
 Alpha virt. eigenvalues --    3.52115   3.52338   3.52831   3.53368   3.53499
 Alpha virt. eigenvalues --    3.53649   3.54584   3.54792   3.55083   3.55399
 Alpha virt. eigenvalues --    3.55766   3.56770   3.56995   3.57234   3.57485
 Alpha virt. eigenvalues --    3.57622   3.58045   3.58259   3.58465   3.59100
 Alpha virt. eigenvalues --    3.59621   3.60151   3.60287   3.60788   3.61213
 Alpha virt. eigenvalues --    3.61492   3.61765   3.61971   3.62163   3.62741
 Alpha virt. eigenvalues --    3.63767   3.64083   3.64173   3.64856   3.65168
 Alpha virt. eigenvalues --    3.65467   3.65818   3.66447   3.66643   3.66915
 Alpha virt. eigenvalues --    3.67308   3.67546   3.67691   3.68046   3.68847
 Alpha virt. eigenvalues --    3.69283   3.69404   3.69587   3.69937   3.70287
 Alpha virt. eigenvalues --    3.70648   3.71449   3.71871   3.72493   3.72802
 Alpha virt. eigenvalues --    3.73028   3.73555   3.73801   3.74115   3.74518
 Alpha virt. eigenvalues --    3.74616   3.74944   3.75271   3.75626   3.76299
 Alpha virt. eigenvalues --    3.76684   3.77396   3.77738   3.77878   3.78022
 Alpha virt. eigenvalues --    3.78567   3.78586   3.79254   3.79912   3.80375
 Alpha virt. eigenvalues --    3.81146   3.81418   3.81863   3.82685   3.83321
 Alpha virt. eigenvalues --    3.83403   3.83919   3.84099   3.84785   3.84971
 Alpha virt. eigenvalues --    3.85922   3.86146   3.87092   3.87392   3.87830
 Alpha virt. eigenvalues --    3.87935   3.88617   3.88924   3.89816   3.90379
 Alpha virt. eigenvalues --    3.91212   3.91705   3.92118   3.92468   3.93419
 Alpha virt. eigenvalues --    3.93915   3.94244   3.95094   3.95596   3.96378
 Alpha virt. eigenvalues --    3.97013   3.97434   3.98198   3.98384   3.98797
 Alpha virt. eigenvalues --    3.99222   3.99401   3.99797   4.00168   4.01186
 Alpha virt. eigenvalues --    4.01971   4.02361   4.02588   4.03060   4.03780
 Alpha virt. eigenvalues --    4.04488   4.05323   4.05800   4.06075   4.06228
 Alpha virt. eigenvalues --    4.06993   4.07385   4.07912   4.09171   4.09570
 Alpha virt. eigenvalues --    4.10082   4.10206   4.10776   4.10933   4.12063
 Alpha virt. eigenvalues --    4.12093   4.13256   4.13417   4.14179   4.14304
 Alpha virt. eigenvalues --    4.15220   4.15365   4.15934   4.16435   4.17094
 Alpha virt. eigenvalues --    4.17500   4.17914   4.18099   4.18714   4.19638
 Alpha virt. eigenvalues --    4.19842   4.19996   4.21287   4.21463   4.21578
 Alpha virt. eigenvalues --    4.22455   4.22671   4.23168   4.23504   4.24057
 Alpha virt. eigenvalues --    4.24465   4.25164   4.25426   4.26350   4.26801
 Alpha virt. eigenvalues --    4.27315   4.27514   4.28200   4.28508   4.28608
 Alpha virt. eigenvalues --    4.29515   4.30134   4.30537   4.30789   4.31254
 Alpha virt. eigenvalues --    4.31986   4.32297   4.32757   4.32880   4.33244
 Alpha virt. eigenvalues --    4.34188   4.34901   4.35551   4.35922   4.36376
 Alpha virt. eigenvalues --    4.37083   4.37790   4.38675   4.39366   4.39871
 Alpha virt. eigenvalues --    4.40440   4.41686   4.42589   4.42783   4.44056
 Alpha virt. eigenvalues --    4.44438   4.44909   4.45822   4.46250   4.46760
 Alpha virt. eigenvalues --    4.47387   4.47973   4.48863   4.49147   4.50014
 Alpha virt. eigenvalues --    4.51513   4.52026   4.52253   4.53090   4.53386
 Alpha virt. eigenvalues --    4.54182   4.55385   4.56206   4.56753   4.56914
 Alpha virt. eigenvalues --    4.57403   4.58810   4.59075   4.60462   4.60814
 Alpha virt. eigenvalues --    4.61034   4.61690   4.62542   4.62832   4.63176
 Alpha virt. eigenvalues --    4.65313   4.65805   4.66453   4.67095   4.68188
 Alpha virt. eigenvalues --    4.68494   4.69346   4.70122   4.71467   4.71759
 Alpha virt. eigenvalues --    4.73237   4.73812   4.74620   4.74714   4.75832
 Alpha virt. eigenvalues --    4.75980   4.77558   4.78528   4.79159   4.79385
 Alpha virt. eigenvalues --    4.79529   4.80139   4.80713   4.81255   4.81893
 Alpha virt. eigenvalues --    4.82295   4.82605   4.83078   4.84135   4.84525
 Alpha virt. eigenvalues --    4.85027   4.85395   4.87426   4.89112   4.89414
 Alpha virt. eigenvalues --    4.90693   4.91427   4.91754   4.92050   4.92848
 Alpha virt. eigenvalues --    4.93991   4.95508   4.95892   4.96830   4.98278
 Alpha virt. eigenvalues --    4.98397   4.98978   5.00366   5.00598   5.01026
 Alpha virt. eigenvalues --    5.01371   5.02090   5.03702   5.05387   5.06444
 Alpha virt. eigenvalues --    5.07025   5.07558   5.08205   5.09879   5.10268
 Alpha virt. eigenvalues --    5.11428   5.11785   5.12035   5.13156   5.13962
 Alpha virt. eigenvalues --    5.14160   5.15015   5.16291   5.17323   5.17663
 Alpha virt. eigenvalues --    5.17986   5.18352   5.19705   5.20022   5.21098
 Alpha virt. eigenvalues --    5.21229   5.22013   5.22239   5.22865   5.23254
 Alpha virt. eigenvalues --    5.23754   5.24925   5.25783   5.25890   5.26694
 Alpha virt. eigenvalues --    5.28027   5.28404   5.28938   5.29342   5.30675
 Alpha virt. eigenvalues --    5.31184   5.32853   5.33982   5.34639   5.36121
 Alpha virt. eigenvalues --    5.38457   5.40046   5.40442   5.41489   5.42045
 Alpha virt. eigenvalues --    5.42851   5.43299   5.44314   5.44449   5.46113
 Alpha virt. eigenvalues --    5.46426   5.47179   5.47610   5.48810   5.48918
 Alpha virt. eigenvalues --    5.51323   5.51561   5.53271   5.53642   5.54754
 Alpha virt. eigenvalues --    5.56659   5.57834   5.58338   5.58693   5.59555
 Alpha virt. eigenvalues --    5.60352   5.61173   5.61458   5.62708   5.63898
 Alpha virt. eigenvalues --    5.64323   5.65544   5.66325   5.68294   5.68629
 Alpha virt. eigenvalues --    5.70308   5.70577   5.70859   5.72339   5.74144
 Alpha virt. eigenvalues --    5.75321   5.76378   5.78832   5.81091   5.81892
 Alpha virt. eigenvalues --    5.83682   5.85238   5.85667   5.86617   5.87583
 Alpha virt. eigenvalues --    5.91026   5.91590   5.94228   5.95471   5.98508
 Alpha virt. eigenvalues --    5.99964   6.03778   6.05123   6.06551   6.11143
 Alpha virt. eigenvalues --    6.11628   6.12756   6.15117   6.16813   6.17580
 Alpha virt. eigenvalues --    6.18130   6.21070   6.24767   6.26016   6.26664
 Alpha virt. eigenvalues --    6.27297   6.29168   6.33977   6.35517   6.38770
 Alpha virt. eigenvalues --    6.40852   6.41535   6.43781   6.44743   6.45117
 Alpha virt. eigenvalues --    6.46122   6.48468   6.52553   6.52663   6.53726
 Alpha virt. eigenvalues --    6.54434   6.55082   6.65636   6.66240   6.68302
 Alpha virt. eigenvalues --    6.74868   6.78888   6.82663   6.85670   6.87286
 Alpha virt. eigenvalues --    6.98234   6.98972   7.04714   7.08420   7.10058
 Alpha virt. eigenvalues --    7.13331   7.16593   7.17896   7.20709   7.21757
 Alpha virt. eigenvalues --    7.29220   7.32853  22.35515  22.36142  22.42650
 Alpha virt. eigenvalues --   22.51752  22.53291  22.54010  22.61298  22.65803
 Alpha virt. eigenvalues --   22.70022  22.70584  22.72100  22.80524  22.83921
 Alpha virt. eigenvalues --   22.97362  22.98973  23.02183  23.03098  23.08830
 Alpha virt. eigenvalues --   23.09524  23.12010  23.13159  23.19838  23.20771
 Alpha virt. eigenvalues --   23.34630  23.40764  23.45919  23.47456  23.49456
 Alpha virt. eigenvalues --   23.57316  23.60102  23.61150  23.69802  23.75237
 Alpha virt. eigenvalues --   23.84290  23.96755  23.99623  24.09493  32.47490
 Alpha virt. eigenvalues --   32.75707  33.03256  33.06907  33.09831  33.20415
 Alpha virt. eigenvalues --   43.94576  43.97704  43.99273  44.00305  44.23477
  Beta  occ. eigenvalues -- -256.30970 -30.03558 -25.87412 -25.86597 -25.86290
  Beta  occ. eigenvalues --  -19.25229 -19.24845 -19.21813 -19.16697 -19.16583
  Beta  occ. eigenvalues --  -14.46081 -14.38800 -14.35655 -14.34972 -14.34957
  Beta  occ. eigenvalues --  -14.34653 -10.33973 -10.33622 -10.28347 -10.26863
  Beta  occ. eigenvalues --  -10.25689 -10.24369 -10.24232 -10.23980 -10.23765
  Beta  occ. eigenvalues --  -10.23758 -10.23695 -10.23685 -10.23570 -10.23559
  Beta  occ. eigenvalues --  -10.23536 -10.22991 -10.22564 -10.22488 -10.22395
  Beta  occ. eigenvalues --  -10.22299 -10.22291 -10.22191 -10.22130 -10.22064
  Beta  occ. eigenvalues --  -10.21972 -10.21883 -10.21868 -10.21832 -10.21827
  Beta  occ. eigenvalues --  -10.21783 -10.21708 -10.21675 -10.21553 -10.21540
  Beta  occ. eigenvalues --  -10.21426 -10.21350 -10.19249  -3.34911  -2.09968
  Beta  occ. eigenvalues --   -2.09796  -2.09506  -1.17301  -1.17161  -1.10865
  Beta  occ. eigenvalues --   -1.06320  -1.02538  -1.01967  -1.00185  -0.99472
  Beta  occ. eigenvalues --   -0.99058  -0.98276  -0.94569  -0.84986  -0.84426
  Beta  occ. eigenvalues --   -0.83791  -0.83583  -0.82645  -0.81947  -0.81597
  Beta  occ. eigenvalues --   -0.79910  -0.79678  -0.78889  -0.78304  -0.76296
  Beta  occ. eigenvalues --   -0.75308  -0.74003  -0.73544  -0.72960  -0.71892
  Beta  occ. eigenvalues --   -0.70699  -0.69680  -0.69468  -0.67922  -0.67000
  Beta  occ. eigenvalues --   -0.66791  -0.65443  -0.64942  -0.64582  -0.62914
  Beta  occ. eigenvalues --   -0.62051  -0.61040  -0.59363  -0.58594  -0.58266
  Beta  occ. eigenvalues --   -0.56946  -0.55784  -0.55173  -0.54267  -0.53264
  Beta  occ. eigenvalues --   -0.52885  -0.52868  -0.51485  -0.51145  -0.50890
  Beta  occ. eigenvalues --   -0.50296  -0.50165  -0.50062  -0.49936  -0.49675
  Beta  occ. eigenvalues --   -0.49133  -0.48984  -0.48912  -0.48603  -0.47390
  Beta  occ. eigenvalues --   -0.46557  -0.46194  -0.46032  -0.45739  -0.45641
  Beta  occ. eigenvalues --   -0.45015  -0.44870  -0.44601  -0.44379  -0.44240
  Beta  occ. eigenvalues --   -0.44024  -0.43427  -0.43157  -0.42921  -0.42530
  Beta  occ. eigenvalues --   -0.42199  -0.41993  -0.41405  -0.41250  -0.40744
  Beta  occ. eigenvalues --   -0.40589  -0.40389  -0.39617  -0.39359  -0.39209
  Beta  occ. eigenvalues --   -0.38506  -0.38366  -0.38158  -0.37648  -0.37222
  Beta  occ. eigenvalues --   -0.37026  -0.36667  -0.36584  -0.36330  -0.36149
  Beta  occ. eigenvalues --   -0.35605  -0.35400  -0.34582  -0.34273  -0.34113
  Beta  occ. eigenvalues --   -0.33979  -0.33170  -0.32213  -0.31902  -0.31612
  Beta  occ. eigenvalues --   -0.31028  -0.30825  -0.30410  -0.30091  -0.28156
  Beta  occ. eigenvalues --   -0.27693  -0.26872  -0.26695  -0.25871  -0.24072
  Beta  occ. eigenvalues --   -0.23734  -0.23214  -0.21611  -0.20260  -0.19429
  Beta  occ. eigenvalues --   -0.18755  -0.15031
  Beta virt. eigenvalues --   -0.08440  -0.07677  -0.04104  -0.01324  -0.00907
  Beta virt. eigenvalues --   -0.00500   0.00094   0.00380   0.01353   0.01689
  Beta virt. eigenvalues --    0.01860   0.02303   0.03184   0.03601   0.04087
  Beta virt. eigenvalues --    0.04429   0.04719   0.04766   0.05210   0.05649
  Beta virt. eigenvalues --    0.06352   0.06712   0.07207   0.07502   0.07734
  Beta virt. eigenvalues --    0.08030   0.08385   0.08543   0.08789   0.08956
  Beta virt. eigenvalues --    0.09455   0.09615   0.09845   0.10081   0.10461
  Beta virt. eigenvalues --    0.10614   0.10750   0.11485   0.11531   0.11957
  Beta virt. eigenvalues --    0.12145   0.12630   0.12776   0.13176   0.13480
  Beta virt. eigenvalues --    0.13714   0.13851   0.14138   0.14322   0.14635
  Beta virt. eigenvalues --    0.14807   0.15100   0.15191   0.15417   0.15843
  Beta virt. eigenvalues --    0.16068   0.16245   0.16609   0.16828   0.16921
  Beta virt. eigenvalues --    0.17195   0.17446   0.17784   0.17832   0.18066
  Beta virt. eigenvalues --    0.18288   0.18666   0.18861   0.19034   0.19344
  Beta virt. eigenvalues --    0.19471   0.19749   0.20048   0.20246   0.20530
  Beta virt. eigenvalues --    0.20777   0.20937   0.21038   0.21260   0.21580
  Beta virt. eigenvalues --    0.22020   0.22223   0.22558   0.22741   0.22987
  Beta virt. eigenvalues --    0.23053   0.23328   0.23435   0.23562   0.23968
  Beta virt. eigenvalues --    0.24148   0.24168   0.24352   0.24580   0.24821
  Beta virt. eigenvalues --    0.25044   0.25209   0.25400   0.25583   0.25847
  Beta virt. eigenvalues --    0.26190   0.26566   0.26950   0.27162   0.27450
  Beta virt. eigenvalues --    0.27604   0.27799   0.28056   0.28262   0.28502
  Beta virt. eigenvalues --    0.28690   0.28917   0.29079   0.29201   0.29628
  Beta virt. eigenvalues --    0.30044   0.30121   0.30193   0.30552   0.30800
  Beta virt. eigenvalues --    0.30896   0.30948   0.31645   0.31970   0.32093
  Beta virt. eigenvalues --    0.32345   0.32790   0.32848   0.33242   0.33517
  Beta virt. eigenvalues --    0.33856   0.34187   0.34453   0.35019   0.35257
  Beta virt. eigenvalues --    0.35515   0.35585   0.35757   0.35871   0.36045
  Beta virt. eigenvalues --    0.36373   0.37136   0.37315   0.37398   0.37666
  Beta virt. eigenvalues --    0.37740   0.38336   0.38381   0.38622   0.38809
  Beta virt. eigenvalues --    0.38930   0.39079   0.39191   0.39466   0.39540
  Beta virt. eigenvalues --    0.39701   0.39798   0.40052   0.40085   0.40360
  Beta virt. eigenvalues --    0.40797   0.40840   0.41167   0.41367   0.41529
  Beta virt. eigenvalues --    0.41614   0.41836   0.42052   0.42239   0.42536
  Beta virt. eigenvalues --    0.42692   0.42936   0.43145   0.43276   0.43403
  Beta virt. eigenvalues --    0.43564   0.43980   0.44169   0.44415   0.44475
  Beta virt. eigenvalues --    0.44767   0.45175   0.45621   0.45663   0.45934
  Beta virt. eigenvalues --    0.46134   0.46243   0.46608   0.46666   0.46933
  Beta virt. eigenvalues --    0.47029   0.47288   0.47516   0.47589   0.47904
  Beta virt. eigenvalues --    0.48010   0.48257   0.48324   0.48553   0.48783
  Beta virt. eigenvalues --    0.48982   0.49130   0.49424   0.49665   0.49879
  Beta virt. eigenvalues --    0.49961   0.50270   0.50437   0.50597   0.50951
  Beta virt. eigenvalues --    0.50983   0.51113   0.51351   0.51474   0.51784
  Beta virt. eigenvalues --    0.52034   0.52194   0.52330   0.52498   0.52704
  Beta virt. eigenvalues --    0.52989   0.53178   0.53282   0.53581   0.53726
  Beta virt. eigenvalues --    0.53893   0.54218   0.54644   0.54876   0.54924
  Beta virt. eigenvalues --    0.55203   0.55323   0.55743   0.55887   0.56064
  Beta virt. eigenvalues --    0.56354   0.56643   0.56804   0.56900   0.57309
  Beta virt. eigenvalues --    0.57645   0.57700   0.57782   0.58014   0.58225
  Beta virt. eigenvalues --    0.58894   0.59222   0.59322   0.59469   0.59774
  Beta virt. eigenvalues --    0.59858   0.60157   0.60222   0.60293   0.61117
  Beta virt. eigenvalues --    0.61262   0.61482   0.61847   0.62276   0.62620
  Beta virt. eigenvalues --    0.62813   0.63040   0.63315   0.63536   0.63815
  Beta virt. eigenvalues --    0.63913   0.64273   0.64494   0.64731   0.65304
  Beta virt. eigenvalues --    0.65441   0.65723   0.65916   0.66321   0.66468
  Beta virt. eigenvalues --    0.66961   0.67267   0.67503   0.67547   0.67788
  Beta virt. eigenvalues --    0.68017   0.68187   0.68436   0.68759   0.68917
  Beta virt. eigenvalues --    0.69124   0.69344   0.69549   0.69904   0.70089
  Beta virt. eigenvalues --    0.70160   0.70578   0.70880   0.71194   0.71486
  Beta virt. eigenvalues --    0.71694   0.71897   0.72021   0.72520   0.72673
  Beta virt. eigenvalues --    0.72978   0.73131   0.73492   0.73775   0.74269
  Beta virt. eigenvalues --    0.74405   0.74599   0.75023   0.75099   0.75607
  Beta virt. eigenvalues --    0.76056   0.76242   0.76616   0.76899   0.77004
  Beta virt. eigenvalues --    0.77478   0.77772   0.77866   0.78175   0.78341
  Beta virt. eigenvalues --    0.78467   0.78763   0.79300   0.79738   0.79803
  Beta virt. eigenvalues --    0.80040   0.80371   0.80656   0.81026   0.81732
  Beta virt. eigenvalues --    0.81776   0.82257   0.82584   0.83141   0.83378
  Beta virt. eigenvalues --    0.83583   0.83799   0.83928   0.84384   0.84703
  Beta virt. eigenvalues --    0.84964   0.85207   0.85594   0.86048   0.86435
  Beta virt. eigenvalues --    0.86654   0.86669   0.87006   0.87733   0.88189
  Beta virt. eigenvalues --    0.88311   0.88468   0.88772   0.89319   0.89418
  Beta virt. eigenvalues --    0.89822   0.89913   0.90642   0.91062   0.91293
  Beta virt. eigenvalues --    0.91933   0.92063   0.92253   0.92610   0.92847
  Beta virt. eigenvalues --    0.93351   0.93512   0.93999   0.94111   0.94381
  Beta virt. eigenvalues --    0.94947   0.95173   0.95663   0.95907   0.96176
  Beta virt. eigenvalues --    0.96389   0.96834   0.97080   0.97195   0.97559
  Beta virt. eigenvalues --    0.97881   0.98756   0.98944   0.99534   0.99729
  Beta virt. eigenvalues --    0.99853   1.00146   1.00367   1.00588   1.00977
  Beta virt. eigenvalues --    1.01057   1.01616   1.01735   1.02504   1.02719
  Beta virt. eigenvalues --    1.02957   1.03291   1.03616   1.03689   1.03903
  Beta virt. eigenvalues --    1.04357   1.04714   1.05259   1.05358   1.05656
  Beta virt. eigenvalues --    1.06032   1.06228   1.06364   1.06669   1.06867
  Beta virt. eigenvalues --    1.07658   1.07837   1.08141   1.08185   1.08313
  Beta virt. eigenvalues --    1.08941   1.09562   1.09585   1.09921   1.10325
  Beta virt. eigenvalues --    1.10910   1.11156   1.11503   1.11943   1.12290
  Beta virt. eigenvalues --    1.12532   1.12915   1.13266   1.13903   1.13976
  Beta virt. eigenvalues --    1.14333   1.14419   1.14770   1.15330   1.15688
  Beta virt. eigenvalues --    1.16021   1.16395   1.16688   1.17028   1.17435
  Beta virt. eigenvalues --    1.17790   1.18375   1.18750   1.19440   1.19709
  Beta virt. eigenvalues --    1.19956   1.20110   1.20535   1.21086   1.21593
  Beta virt. eigenvalues --    1.21654   1.22240   1.22761   1.23067   1.23304
  Beta virt. eigenvalues --    1.23568   1.24065   1.24631   1.24929   1.25161
  Beta virt. eigenvalues --    1.25758   1.26438   1.26625   1.26921   1.27030
  Beta virt. eigenvalues --    1.27358   1.28248   1.28461   1.28553   1.29530
  Beta virt. eigenvalues --    1.30073   1.30491   1.31006   1.31356   1.31723
  Beta virt. eigenvalues --    1.32286   1.32376   1.32767   1.33088   1.33452
  Beta virt. eigenvalues --    1.33737   1.34508   1.34667   1.35106   1.35473
  Beta virt. eigenvalues --    1.35841   1.36234   1.36798   1.37045   1.37267
  Beta virt. eigenvalues --    1.37747   1.38432   1.38710   1.38958   1.39408
  Beta virt. eigenvalues --    1.39681   1.40584   1.40776   1.41003   1.41562
  Beta virt. eigenvalues --    1.42002   1.42264   1.42979   1.43259   1.43772
  Beta virt. eigenvalues --    1.44246   1.44418   1.45332   1.45379   1.45642
  Beta virt. eigenvalues --    1.46076   1.46130   1.46674   1.47189   1.47381
  Beta virt. eigenvalues --    1.47409   1.47744   1.48039   1.48528   1.48781
  Beta virt. eigenvalues --    1.49016   1.49348   1.49674   1.49692   1.49944
  Beta virt. eigenvalues --    1.50493   1.50984   1.51041   1.51442   1.51574
  Beta virt. eigenvalues --    1.51889   1.52092   1.52615   1.53012   1.53371
  Beta virt. eigenvalues --    1.53576   1.53870   1.54114   1.55125   1.55496
  Beta virt. eigenvalues --    1.55677   1.55980   1.56140   1.56375   1.56822
  Beta virt. eigenvalues --    1.56958   1.57365   1.57567   1.57763   1.58037
  Beta virt. eigenvalues --    1.58419   1.58717   1.58927   1.59140   1.59364
  Beta virt. eigenvalues --    1.59614   1.60075   1.60346   1.60705   1.60948
  Beta virt. eigenvalues --    1.61074   1.61606   1.61949   1.62123   1.62474
  Beta virt. eigenvalues --    1.62579   1.62898   1.63055   1.63668   1.63836
  Beta virt. eigenvalues --    1.64437   1.64582   1.64845   1.65122   1.65271
  Beta virt. eigenvalues --    1.65578   1.65803   1.65941   1.66295   1.67004
  Beta virt. eigenvalues --    1.67348   1.67468   1.67716   1.68377   1.69041
  Beta virt. eigenvalues --    1.69267   1.69383   1.69638   1.69710   1.70098
  Beta virt. eigenvalues --    1.70834   1.71283   1.71520   1.71725   1.71843
  Beta virt. eigenvalues --    1.72543   1.72737   1.72929   1.73419   1.73968
  Beta virt. eigenvalues --    1.74112   1.74347   1.74753   1.74889   1.75078
  Beta virt. eigenvalues --    1.75661   1.76083   1.76242   1.76939   1.77193
  Beta virt. eigenvalues --    1.77307   1.77418   1.77695   1.78394   1.78913
  Beta virt. eigenvalues --    1.79433   1.79913   1.80257   1.80544   1.80740
  Beta virt. eigenvalues --    1.81089   1.81233   1.82011   1.82641   1.82711
  Beta virt. eigenvalues --    1.82962   1.83112   1.83446   1.83954   1.84205
  Beta virt. eigenvalues --    1.84810   1.85044   1.85133   1.85369   1.85726
  Beta virt. eigenvalues --    1.86020   1.86310   1.86820   1.87183   1.87674
  Beta virt. eigenvalues --    1.88282   1.88732   1.89002   1.89219   1.89690
  Beta virt. eigenvalues --    1.90243   1.90528   1.91367   1.91528   1.91912
  Beta virt. eigenvalues --    1.92239   1.92692   1.93016   1.93320   1.93891
  Beta virt. eigenvalues --    1.94301   1.94752   1.95441   1.95988   1.96147
  Beta virt. eigenvalues --    1.96176   1.96297   1.96785   1.97380   1.97692
  Beta virt. eigenvalues --    1.98432   1.98687   1.98774   1.99069   1.99550
  Beta virt. eigenvalues --    1.99997   2.00410   2.00439   2.00817   2.01090
  Beta virt. eigenvalues --    2.01534   2.01918   2.02418   2.03054   2.03297
  Beta virt. eigenvalues --    2.03770   2.04303   2.04669   2.04824   2.05598
  Beta virt. eigenvalues --    2.05751   2.06034   2.06342   2.06712   2.07702
  Beta virt. eigenvalues --    2.07798   2.08618   2.08958   2.09256   2.09308
  Beta virt. eigenvalues --    2.10082   2.10284   2.10786   2.11155   2.11685
  Beta virt. eigenvalues --    2.11745   2.12299   2.12513   2.12879   2.13459
  Beta virt. eigenvalues --    2.13664   2.14343   2.14636   2.15135   2.15442
  Beta virt. eigenvalues --    2.15730   2.16257   2.16533   2.16821   2.17251
  Beta virt. eigenvalues --    2.17600   2.17791   2.18487   2.18563   2.18977
  Beta virt. eigenvalues --    2.19308   2.20081   2.20354   2.20648   2.21025
  Beta virt. eigenvalues --    2.21209   2.21965   2.22240   2.22597   2.22874
  Beta virt. eigenvalues --    2.23121   2.23312   2.23835   2.24303   2.24987
  Beta virt. eigenvalues --    2.25579   2.25893   2.26435   2.26671   2.27200
  Beta virt. eigenvalues --    2.28043   2.28706   2.28835   2.29370   2.29783
  Beta virt. eigenvalues --    2.30493   2.31038   2.31542   2.32130   2.32315
  Beta virt. eigenvalues --    2.33202   2.33418   2.33916   2.34257   2.34376
  Beta virt. eigenvalues --    2.34583   2.35092   2.35462   2.35609   2.35975
  Beta virt. eigenvalues --    2.36327   2.36653   2.36867   2.37528   2.37757
  Beta virt. eigenvalues --    2.38289   2.38775   2.39232   2.39652   2.39929
  Beta virt. eigenvalues --    2.40075   2.40446   2.40887   2.41108   2.41552
  Beta virt. eigenvalues --    2.42132   2.42861   2.43232   2.43415   2.43755
  Beta virt. eigenvalues --    2.44234   2.44657   2.45211   2.45947   2.46381
  Beta virt. eigenvalues --    2.46519   2.47278   2.48082   2.48297   2.48559
  Beta virt. eigenvalues --    2.48963   2.49476   2.50060   2.50750   2.50975
  Beta virt. eigenvalues --    2.51577   2.52129   2.52342   2.52785   2.53108
  Beta virt. eigenvalues --    2.53299   2.53481   2.54092   2.54546   2.54823
[...]
 
              Baa    -0.0126    -1.694    -0.605    -0.565  0.3580  0.0642  0.9315
    24 C(13)  Bbb    -0.0067    -0.899    -0.321    -0.300  0.7296 -0.6418 -0.2361
              Bcc     0.0193     2.593     0.925     0.865  0.5827  0.7642 -0.2766
 
              Baa    -0.0417    -5.590    -1.995    -1.865  0.1584  0.2130  0.9641
    25 C(13)  Bbb    -0.0132    -1.770    -0.632    -0.590  0.9437 -0.3199 -0.0844
              Bcc     0.0548     7.360     2.626     2.455  0.2904  0.9232 -0.2517
 
              Baa    -0.0037    -0.490    -0.175    -0.164 -0.5114  0.7588 -0.4032
    26 C(13)  Bbb    -0.0030    -0.399    -0.143    -0.133 -0.0188  0.4593  0.8881
              Bcc     0.0066     0.890     0.317     0.297  0.8591  0.4618 -0.2207
 
              Baa    -0.0047    -0.635    -0.227    -0.212  0.2856  0.0811  0.9549
    27 C(13)  Bbb    -0.0034    -0.453    -0.162    -0.151  0.8810 -0.4144 -0.2283
              Bcc     0.0081     1.087     0.388     0.363  0.3772  0.9065 -0.1898
 
              Baa    -0.0036    -0.489    -0.174    -0.163 -0.0378  0.1718  0.9844
    28 C(13)  Bbb    -0.0012    -0.158    -0.056    -0.053  0.8435 -0.5228  0.1236
              Bcc     0.0048     0.646     0.231     0.216  0.5359  0.8350 -0.1251
 
              Baa    -0.0399    -5.350    -1.909    -1.785  0.0959 -0.0809  0.9921
    29 C(13)  Bbb    -0.0116    -1.560    -0.556    -0.520  0.9462  0.3169 -0.0656
              Bcc     0.0515     6.910     2.466     2.305 -0.3091  0.9450  0.1070
 
              Baa    -0.0099    -1.330    -0.475    -0.444  0.7694  0.6238 -0.1373
    30 C(13)  Bbb    -0.0055    -0.742    -0.265    -0.247  0.1272  0.0610  0.9900
              Bcc     0.0154     2.072     0.739     0.691 -0.6260  0.7792  0.0324
 
              Baa    -0.0232    -3.108    -1.109    -1.037  0.1844 -0.0029  0.9829
    31 C(13)  Bbb    -0.0013    -0.173    -0.062    -0.058  0.6175  0.7783 -0.1136
              Bcc     0.0245     3.281     1.171     1.094  0.7646 -0.6279 -0.1453
 
              Baa    -0.0319    -4.282    -1.528    -1.428  0.2667  0.2378  0.9340
    32 C(13)  Bbb    -0.0169    -2.266    -0.808    -0.756  0.2695  0.9120 -0.3092
              Bcc     0.0488     6.547     2.336     2.184  0.9253 -0.3342 -0.1791
 
              Baa    -0.0038    -0.507    -0.181    -0.169 -0.5309 -0.3183  0.7854
    33 C(13)  Bbb    -0.0036    -0.480    -0.171    -0.160  0.7381  0.2817  0.6130
              Bcc     0.0074     0.987     0.352     0.329 -0.4164  0.9052  0.0854
 
              Baa    -0.0042    -0.561    -0.200    -0.187  0.2302  0.0881  0.9691
    34 C(13)  Bbb    -0.0037    -0.491    -0.175    -0.164  0.3914  0.9034 -0.1751
              Bcc     0.0078     1.052     0.376     0.351  0.8909 -0.4197 -0.1735
 
              Baa    -0.0024    -0.327    -0.117    -0.109  0.1169  0.1668  0.9790
    35 C(13)  Bbb    -0.0018    -0.240    -0.086    -0.080  0.4202  0.8849 -0.2009
              Bcc     0.0042     0.567     0.202     0.189  0.8999 -0.4349 -0.0334
 
              Baa    -0.0013    -0.174    -0.062    -0.058  0.3427  0.8454 -0.4097
    36 C(13)  Bbb    -0.0012    -0.163    -0.058    -0.054  0.1325  0.3883  0.9120
              Bcc     0.0025     0.337     0.120     0.112  0.9301 -0.3668  0.0211
 
              Baa    -0.0013     0.091     0.033     0.030  0.3621  0.7768 -0.5152
    37 O(17)  Bbb    -0.0008     0.060     0.021     0.020  0.0762  0.5262  0.8470
              Bcc     0.0021    -0.151    -0.054    -0.050  0.9290 -0.3460  0.1313
 
              Baa    -0.0010     0.075     0.027     0.025  0.2950  0.8282 -0.4765
    38 O(17)  Bbb    -0.0010     0.070     0.025     0.023  0.2714  0.4055  0.8729
              Bcc     0.0020    -0.145    -0.052    -0.048  0.9161 -0.3869 -0.1051
 
              Baa    -0.1306    -5.035    -1.797    -1.680  0.6912 -0.6910 -0.2119
    39 N(14)  Bbb    -0.0686    -2.645    -0.944    -0.882  0.1885 -0.1107  0.9758
              Bcc     0.1991     7.680     2.740     2.562  0.6977  0.7144 -0.0538
 
              Baa    -0.1169    -4.508    -1.609    -1.504  0.6878  0.7142 -0.1301
    40 N(14)  Bbb    -0.1054    -4.064    -1.450    -1.355  0.1734  0.0124  0.9848
              Bcc     0.2223     8.572     3.059     2.859  0.7049 -0.6999 -0.1153
 
              Baa    -0.1194    -4.606    -1.644    -1.536 -0.6911  0.6996  0.1815
    41 N(14)  Bbb    -0.0786    -3.033    -1.082    -1.012  0.2714  0.0185  0.9623
              Bcc     0.1981     7.639     2.726     2.548  0.6699  0.7143 -0.2027
 
              Baa    -0.1112    -4.288    -1.530    -1.430  0.6762  0.7068 -0.2079
    42 N(14)  Bbb    -0.0991    -3.822    -1.364    -1.275  0.1759  0.1192  0.9772
              Bcc     0.2103     8.110     2.894     2.705  0.7154 -0.6973 -0.0438
 
              Baa    -1.5088   -26.121    -9.321    -8.713  0.8565  0.2030  0.4745
    43 Fe(57) Bbb    -0.6166   -10.675    -3.809    -3.561  0.2040  0.7115 -0.6725
              Bcc     2.1254    36.796    13.130    12.274 -0.4741  0.6728  0.5680
 
              Baa    -0.0109    -0.421    -0.150    -0.140  0.6942  0.6613 -0.2843
    44 N(14)  Bbb    -0.0095    -0.365    -0.130    -0.122 -0.6023  0.7499  0.2737
              Bcc     0.0204     0.785     0.280     0.262  0.3941 -0.0188  0.9189
 
              Baa    -0.0321    -4.307    -1.537    -1.437  0.8622  0.4962 -0.1018
    45 C(13)  Bbb    -0.0186    -2.498    -0.891    -0.833 -0.4162  0.8086  0.4159
              Bcc     0.0507     6.805     2.428     2.270  0.2887 -0.3163  0.9037
 
              Baa    -0.1143    -4.408    -1.573    -1.470  0.0322  0.9918 -0.1240
    46 N(14)  Bbb    -0.0911    -3.515    -1.254    -1.172  0.9320 -0.0746 -0.3546
              Bcc     0.2054     7.923     2.827     2.643  0.3610  0.1042  0.9267
 
              Baa    -0.0285    -3.823    -1.364    -1.275  0.9428 -0.2895 -0.1654
    47 C(13)  Bbb    -0.0188    -2.528    -0.902    -0.843  0.1410  0.7958 -0.5889
              Bcc     0.0473     6.350     2.266     2.118  0.3021  0.5319  0.7911
 
              Baa    -0.0107    -1.436    -0.512    -0.479  0.0648  0.9672 -0.2456
    48 C(13)  Bbb    -0.0055    -0.739    -0.264    -0.247  0.9281 -0.1488 -0.3412
              Bcc     0.0162     2.175     0.776     0.726  0.3666  0.2058  0.9073
 
              Baa    -0.0056    -2.989    -1.066    -0.997  0.9205  0.0333 -0.3894
    49 H(1)   Bbb    -0.0052    -2.791    -0.996    -0.931  0.0355  0.9851  0.1681
              Bcc     0.0108     5.780     2.062     1.928  0.3892 -0.1686  0.9056
 
              Baa    -0.1339     9.690     3.458     3.232  0.9018  0.2149 -0.3750
    50 O(17)  Bbb    -0.0850     6.148     2.194     2.051 -0.3066  0.9296 -0.2045
              Bcc     0.2189   -15.838    -5.651    -5.283  0.3047  0.2994  0.9042
 
              Baa    -0.0072    -3.831    -1.367    -1.278  0.0796  0.0185  0.9967
    51 H(1)   Bbb    -0.0064    -3.440    -1.228    -1.147 -0.0246  0.9996 -0.0166
              Bcc     0.0136     7.271     2.595     2.425  0.9965  0.0232 -0.0800
 
              Baa    -0.0067    -3.565    -1.272    -1.189 -0.0818 -0.0629  0.9947
    52 H(1)   Bbb    -0.0064    -3.405    -1.215    -1.136  0.9967 -0.0059  0.0815
              Bcc     0.0131     6.970     2.487     2.325  0.0007  0.9980  0.0632
 
              Baa    -0.0069    -3.685    -1.315    -1.229  0.1654  0.1457  0.9754
    53 H(1)   Bbb    -0.0057    -3.051    -1.089    -1.018 -0.0453  0.9891 -0.1401
              Bcc     0.0126     6.736     2.404     2.247  0.9852  0.0210 -0.1702
 
              Baa    -0.0068    -3.624    -1.293    -1.209  0.1989  0.1147  0.9733
    54 H(1)   Bbb    -0.0060    -3.209    -1.145    -1.070  0.9800 -0.0207 -0.1978
              Bcc     0.0128     6.833     2.438     2.279 -0.0025  0.9932 -0.1165
 
              Baa    -0.0031    -1.669    -0.595    -0.557  0.3897 -0.1791  0.9034
    55 H(1)   Bbb    -0.0030    -1.599    -0.570    -0.533  0.8723 -0.2430 -0.4244
              Bcc     0.0061     3.267     1.166     1.090  0.2955  0.9534  0.0615
 
              Baa    -0.0027    -1.467    -0.523    -0.489  0.8818 -0.4672 -0.0642
    56 H(1)   Bbb    -0.0025    -1.343    -0.479    -0.448  0.1431  0.1354  0.9804
              Bcc     0.0053     2.809     1.002     0.937  0.4494  0.8737 -0.1863
 
              Baa    -0.0024    -1.279    -0.456    -0.427  0.7369 -0.4570 -0.4982
    57 H(1)   Bbb    -0.0023    -1.233    -0.440    -0.411  0.3738 -0.3387  0.8635
              Bcc     0.0047     2.512     0.896     0.838  0.5633  0.8225  0.0788
 
              Baa    -0.0035    -1.857    -0.663    -0.619  0.2907 -0.6002  0.7451
    58 H(1)   Bbb    -0.0033    -1.780    -0.635    -0.594 -0.1403  0.7436  0.6538
              Bcc     0.0068     3.637     1.298     1.213  0.9465  0.2946 -0.1320
 
              Baa    -0.0024    -1.295    -0.462    -0.432 -0.1036  0.3503  0.9309
    59 H(1)   Bbb    -0.0024    -1.255    -0.448    -0.419 -0.5708  0.7455 -0.3441
              Bcc     0.0048     2.550     0.910     0.851  0.8146  0.5670 -0.1227
 
              Baa    -0.0021    -1.096    -0.391    -0.366 -0.5316  0.5438  0.6494
    60 H(1)   Bbb    -0.0020    -1.057    -0.377    -0.353  0.2285 -0.6461  0.7282
              Bcc     0.0040     2.153     0.768     0.718  0.8156  0.5355  0.2192
 
              Baa    -0.0028    -1.501    -0.536    -0.501 -0.2868  0.9578 -0.0218
    61 H(1)   Bbb    -0.0027    -1.464    -0.522    -0.488 -0.2467 -0.0518  0.9677
              Bcc     0.0056     2.965     1.058     0.989  0.9257  0.2829  0.2512
 
              Baa    -0.0025    -1.355    -0.483    -0.452  0.8821  0.4709  0.0112
    62 H(1)   Bbb    -0.0024    -1.305    -0.466    -0.435  0.0761 -0.1658  0.9832
              Bcc     0.0050     2.660     0.949     0.887 -0.4649  0.8664  0.1821
 
              Baa    -0.0026    -1.401    -0.500    -0.467  0.8021  0.4522 -0.3900
    63 H(1)   Bbb    -0.0025    -1.316    -0.470    -0.439  0.2821  0.2887  0.9149
              Bcc     0.0051     2.717     0.970     0.906 -0.5263  0.8439 -0.1040
 
              Baa    -0.0033    -1.785    -0.637    -0.596  0.1978  0.0724  0.9776
    64 H(1)   Bbb    -0.0032    -1.726    -0.616    -0.576  0.9372  0.2782 -0.2103
              Bcc     0.0066     3.512     1.253     1.171 -0.2871  0.9578 -0.0128
 
              Baa    -0.0033    -1.741    -0.621    -0.581  0.0695 -0.0909  0.9934
    65 H(1)   Bbb    -0.0031    -1.647    -0.588    -0.550  0.2507  0.9655  0.0708
              Bcc     0.0064     3.388     1.209     1.130  0.9656 -0.2442 -0.0899
 
              Baa    -0.0024    -1.262    -0.450    -0.421  0.6060  0.7871 -0.1155
    66 H(1)   Bbb    -0.0018    -0.972    -0.347    -0.324  0.0707  0.0914  0.9933
              Bcc     0.0042     2.235     0.797     0.745  0.7923 -0.6101 -0.0003
 
              Baa    -0.0015    -0.777    -0.277    -0.259  0.1639  0.2045  0.9651
    67 H(1)   Bbb    -0.0012    -0.638    -0.228    -0.213  0.5966  0.7585 -0.2620
              Bcc     0.0027     1.415     0.505     0.472  0.7856 -0.6187 -0.0023
 
              Baa    -0.0021    -1.141    -0.407    -0.381  0.4629 -0.4911  0.7379
    68 H(1)   Bbb    -0.0020    -1.092    -0.390    -0.364 -0.3014  0.6957  0.6521
              Bcc     0.0042     2.233     0.797     0.745  0.8336  0.5243 -0.1740
 
              Baa    -0.0030    -1.585    -0.565    -0.529  0.3009  0.1828  0.9360
    69 H(1)   Bbb    -0.0027    -1.454    -0.519    -0.485 -0.6072  0.7936  0.0402
              Bcc     0.0057     3.039     1.084     1.014  0.7354  0.5804 -0.3497
 
              Baa    -0.0036    -1.906    -0.680    -0.636 -0.4762  0.8743 -0.0941
    70 H(1)   Bbb    -0.0033    -1.737    -0.620    -0.580 -0.0086  0.1024  0.9947
              Bcc     0.0068     3.643     1.300     1.215  0.8793  0.4744 -0.0413
 
              Baa    -0.0034    -1.805    -0.644    -0.602  0.8180 -0.3185 -0.4790
    71 H(1)   Bbb    -0.0034    -1.795    -0.640    -0.599  0.5281  0.0857  0.8449
              Bcc     0.0067     3.600     1.285     1.201  0.2280  0.9440 -0.2383
 
              Baa    -0.0018    -0.942    -0.336    -0.314 -0.4309  0.5042  0.7484
    72 H(1)   Bbb    -0.0017    -0.917    -0.327    -0.306  0.6536 -0.3975  0.6441
              Bcc     0.0035     1.859     0.663     0.620  0.6222  0.7667 -0.1582
 
              Baa    -0.0014    -0.745    -0.266    -0.248 -0.2644  0.3284  0.9068
    73 H(1)   Bbb    -0.0013    -0.684    -0.244    -0.228  0.8555 -0.3541  0.3777
              Bcc     0.0027     1.429     0.510     0.477  0.4451  0.8756 -0.1874
 
              Baa    -0.0024    -1.284    -0.458    -0.428 -0.5963 -0.3861  0.7038
    74 H(1)   Bbb    -0.0023    -1.221    -0.436    -0.407  0.5842  0.3926  0.7103
              Bcc     0.0047     2.505     0.894     0.835 -0.5506  0.8347 -0.0085
 
              Baa    -0.0028    -1.505    -0.537    -0.502  0.8453  0.4947 -0.2021
    75 H(1)   Bbb    -0.0027    -1.432    -0.511    -0.478  0.3023 -0.1309  0.9442
              Bcc     0.0055     2.937     1.048     0.980 -0.4406  0.8592  0.2602
 
              Baa    -0.0031    -1.655    -0.591    -0.552  0.1324  0.0315  0.9907
    76 H(1)   Bbb    -0.0030    -1.577    -0.563    -0.526  0.9464  0.2932 -0.1358
              Bcc     0.0061     3.232     1.153     1.078 -0.2947  0.9555  0.0090
 
              Baa    -0.0025    -1.341    -0.478    -0.447  0.0108 -0.3383  0.9410
    77 H(1)   Bbb    -0.0024    -1.271    -0.453    -0.424  0.6003  0.7547  0.2645
              Bcc     0.0049     2.611     0.932     0.871  0.7997 -0.5620 -0.2113
 
              Baa    -0.0034    -1.821    -0.650    -0.607  0.3712  0.5115  0.7749
    78 H(1)   Bbb    -0.0033    -1.761    -0.628    -0.587  0.1191  0.8014 -0.5861
              Bcc     0.0067     3.582     1.278     1.195  0.9209 -0.3098 -0.2366
 
              Baa    -0.0028    -1.485    -0.530    -0.495  0.1278  0.7383  0.6622
    79 H(1)   Bbb    -0.0027    -1.420    -0.507    -0.474 -0.3071 -0.6054  0.7343
              Bcc     0.0054     2.905     1.037     0.969  0.9430 -0.2973  0.1494
 
              Baa    -0.0020    -1.058    -0.377    -0.353  0.4898  0.6457 -0.5858
    80 H(1)   Bbb    -0.0019    -1.005    -0.359    -0.335  0.2316  0.5514  0.8014
              Bcc     0.0039     2.063     0.736     0.688  0.8405 -0.5282  0.1205
 
              Baa    -0.0200   -10.679    -3.810    -3.562  0.9691  0.0872 -0.2309
    81 H(1)   Bbb    -0.0193   -10.320    -3.682    -3.442  0.0692  0.8019  0.5935
              Bcc     0.0394    20.999     7.493     7.004  0.2369 -0.5911  0.7710
 
              Baa    -0.0176    -9.370    -3.343    -3.125  0.9808 -0.1853  0.0602
    82 H(1)   Bbb    -0.0168    -8.960    -3.197    -2.989 -0.1704 -0.6657  0.7265
              Bcc     0.0344    18.329     6.540     6.114  0.0945  0.7228  0.6845
 
              Baa    -0.0049    -2.598    -0.927    -0.867  0.5628  0.6778 -0.4732
    83 H(1)   Bbb    -0.0046    -2.460    -0.878    -0.820  0.7643 -0.6447 -0.0145
              Bcc     0.0095     5.058     1.805     1.687  0.3149  0.3535  0.8809
 
              Baa    -0.0306   -16.338    -5.830    -5.450 -0.5738  0.8182 -0.0367
    84 H(1)   Bbb    -0.0269   -14.375    -5.129    -4.795  0.8172  0.5749  0.0398
              Bcc     0.0576    30.713    10.959    10.245 -0.0537  0.0071  0.9985
 
              Baa    -0.0584   -31.138   -11.111   -10.387  0.3021  0.9398 -0.1597
    85 H(1)   Bbb    -0.0470   -25.097    -8.955    -8.371  0.7624 -0.3388 -0.5513
              Bcc     0.1054    56.235    20.066    18.758  0.5722 -0.0448  0.8189
 
              Baa    -0.0007    -0.373    -0.133    -0.124 -0.4313  0.8966 -0.1007
    86 H(1)   Bbb    -0.0007    -0.371    -0.132    -0.124 -0.1243  0.0516  0.9909
              Bcc     0.0014     0.744     0.266     0.248  0.8936  0.4399  0.0892
 
              Baa    -0.0008    -0.417    -0.149    -0.139  0.0563 -0.1353  0.9892
    87 H(1)   Bbb    -0.0008    -0.416    -0.149    -0.139  0.4515  0.8871  0.0957
              Bcc     0.0016     0.833     0.297     0.278  0.8905 -0.4412 -0.1110
 

 ---------------------------------------------------------------------------------

 1\1\GINC-NODE489\SP\UPBE1PBE\def2TZVP\C37H38Fe1N6O5(5)\ZHARTOVSKA\06-D
 ec-2022\0\\# PBE1PBE/def2TZVP empiricaldispersion=GD3BJ int=(grid=ultr
 afine) geom=check guess=read scrf=(smd,solvent=Chloroform)\\1ccg_II_Q_
 solv\\0,5\C,0,-5.506,53.923,112.93\C,0,-7.562,57.972,114.378\C,0,-5.92
 6,60.126,110.472\C,0,-3.654,56.114,109.164\C,0,-6.228,54.827,113.698\C
 ,0,-6.758,54.532,114.942\C,0,-7.395,55.715,115.374\C,0,-7.147,56.642,1
 14.369\C,0,-8.23,55.922,116.645\C,0,-6.626,53.173,115.641\C,0,-5.472,5
 3.012,116.584\C,0,-5.394,51.617,117.224\O,0,-6.246,51.26,118.04\O,0,-4
 .475,50.847,116.942\C,0,-7.381,58.932,113.376\C,0,-7.941,60.211,113.41
 1\C,0,-7.522,60.812,112.232\C,0,-6.685,59.879,111.612\C,0,-8.919,60.67
 8,114.485\C,0,-7.826,62.055,111.651\C,0,-8.743,63.064,112.11\C,0,-5.08
 1,59.253,109.775\C,0,-4.298,59.622,108.683\C,0,-3.589,58.446,108.366\C
 ,0,-4.047,57.462,109.229\C,0,-4.188,61.047,108.081\C,0,-2.635,58.152,1
 07.378\C,0,-2.272,58.924,106.228\C,0,-4.,55.082,110.014\C,0,-3.674,53.
 753,109.834\C,0,-4.208,53.123,110.964\C,0,-4.83,54.109,111.715\C,0,-3.
 02,53.099,108.613\C,0,-4.19,51.63,111.27\C,0,-3.016,51.229,112.145\C,0
 ,-3.008,49.79,112.601\O,0,-2.443,49.528,113.657\O,0,-3.547,48.922,111.
 918\N,0,-6.462,56.1,113.359\N,0,-6.701,58.711,112.255\N,0,-4.921,57.95
 5,110.104\N,0,-4.723,55.274,111.116\Fe,0,-5.857,56.937,111.603\N,0,-9.
 264,56.772,109.591\C,0,-8.576,56.828,110.692\N,0,-7.374,56.4,110.42\C,
 0,-7.308,56.079,109.165\C,0,-8.548,56.317,108.604\H,0,-10.166,57.108,1
 09.493\O,0,-4.422,57.485,112.862\H,0,-5.45782113,52.93038101,113.32659
 342\H,0,-8.08069798,58.29811361,115.25521281\H,0,-5.99760271,61.116702
 63,110.07415412\H,0,-3.00493273,55.8547598,108.35381101\H,0,-8.2984840
 7,56.96786322,116.86036031\H,0,-9.21175387,55.52358038,116.49559734\H,
 0,-7.7619019,55.41887131,117.4651498\H,0,-6.44721884,52.46901742,114.8
 5528642\H,0,-7.5012008,53.08406969,116.25010997\H,0,-5.65300175,53.694
 07989,117.38830429\H,0,-4.58942939,53.11072806,115.98715673\H,0,-8.463
 71308,61.44873123,115.07116311\H,0,-9.8040266,61.05930165,114.01998713
 \H,0,-9.17510627,59.85346206,115.11701801\H,0,-7.30480633,62.28163664,
 110.74441686\H,0,-9.30143044,62.91003662,113.00963921\H,0,-8.86660125,
 63.96842137,111.55174851\H,0,-3.96248284,61.38427734,107.09090606\H,0,
 -3.16344207,60.7451661,108.01714588\H,0,-5.06293474,60.70293935,107.57
 010718\H,0,-2.1095021,57.22809277,107.50107472\H,0,-2.75434073,59.8600
 2192,106.03797265\H,0,-1.5183987,58.56487385,105.5586619\H,0,-2.276951
 81,52.4008133,108.93752229\H,0,-3.76507449,52.58672515,108.04086497\H,
 0,-2.56112515,53.85261299,108.00768906\H,0,-4.04362608,51.13631942,110
 .33204789\H,0,-5.07023292,51.43423488,111.84599134\H,0,-3.11319677,51.
 81093673,113.0376379\H,0,-2.14912823,51.33767231,111.52724304\H,0,-8.9
 296665,57.16293665,111.64470008\H,0,-6.44757409,55.69818255,108.655544
 09\H,0,-8.85064928,56.16247035,107.58939466\H,0,-3.67092348,58.0828997
 1,112.862\H,0,-4.10865359,56.57757836,112.862\H,0,-5.97701984,50.89062
 643,118.88428244\H,0,-3.01035,48.29644543,111.42577215\\Version=ES64L-
 G16RevA.03\State=5-A\HF=-3399.2235889\S2=6.099202\S2-1=0.\S2A=6.00037\
 RMSD=2.093e-09\Dipole=-2.4500652,-0.4898944,-1.8835341\Quadrupole=8.39
 45422,-37.1186739,28.7241318,1.2599807,-13.8533978,18.7979042\PG=C01 [
 X(C37H38Fe1N6O5)]\\@


 Standing in the middle of the road is very dangerous;
 you get knocked down by the traffic from both sides.
                                -- Margaret Thatcher
 Job cpu time:       2 days 22 hours 36 minutes 12.0 seconds.
 Elapsed time:       0 days 17 hours 43 minutes 30.8 seconds.
 File lengths (MBytes):  RWF=   3521 Int=      0 D2E=      0 Chk=    240 Scr=      1
 Normal termination of Gaussian 16 at Tue Dec  6 04:05:25 2022.
