 Entering Gaussian System, Link 0=g16
 Input=/net/work/kleich/bench/splitthejobs/1ccg/gfcfail/1ccg/1ccg12/1ccg12.com
 Output=/net/work/kleich/bench/splitthejobs/1ccg/gfcfail/1ccg/1ccg12/1ccg12.log
 Initial command:
 /afs/math/software/gaussian/g16.A03/g16/l1.exe "/scratch/kleich_gaussian.DLB45oq/Gau-14980.inp" -scrdir="/scratch/kleich_gaussian.DLB45oq/"
 Entering Link 1 = /afs/math/software/gaussian/g16.A03/g16/l1.exe PID=     14981.
  
 Copyright (c) 1988,1990,1992,1993,1995,1998,2003,2009,2016,
            Gaussian, Inc.  All Rights Reserved.
  
 This is part of the Gaussian(R) 16 program.  It is based on
 the Gaussian(R) 09 system (copyright 2009, Gaussian, Inc.),
 the Gaussian(R) 03 system (copyright 2003, Gaussian, Inc.),
 the Gaussian(R) 98 system (copyright 1998, Gaussian, Inc.),
 the Gaussian(R) 94 system (copyright 1995, Gaussian, Inc.),
 the Gaussian 92(TM) system (copyright 1992, Gaussian, Inc.),
 the Gaussian 90(TM) system (copyright 1990, Gaussian, Inc.),
 the Gaussian 88(TM) system (copyright 1988, Gaussian, Inc.),
 the Gaussian 86(TM) system (copyright 1986, Carnegie Mellon
 University), and the Gaussian 82(TM) system (copyright 1983,
 Carnegie Mellon University). Gaussian is a federally registered
 trademark of Gaussian, Inc.
  
 This software contains proprietary and confidential information,
 including trade secrets, belonging to Gaussian, Inc.
  
 This software is provided under written license and may be
 used, copied, transmitted, or stored only in accord with that
 written license.
  
 The following legend is applicable only to US Government
 contracts under FAR:
  
                    RESTRICTED RIGHTS LEGEND
  
 Use, reproduction and disclosure by the US Government is
 subject to restrictions as set forth in subparagraphs (a)
 and (c) of the Commercial Computer Software - Restricted
 Rights clause in FAR 52.227-19.
  
 Gaussian, Inc.
 340 Quinnipiac St., Bldg. 40, Wallingford CT 06492
  
  
 ---------------------------------------------------------------
 Warning -- This program may not be used in any manner that
 competes with the business of Gaussian, Inc. or will provide
 assistance to any competitor of Gaussian, Inc.  The licensee
 of this program is prohibited from giving any competitor of
 Gaussian, Inc. access to this program.  By using this program,
 the user acknowledges that Gaussian, Inc. is engaged in the
 business of creating and licensing software in the field of
 computational chemistry and represents and warrants to the
 licensee that it is not a competitor of Gaussian, Inc. and that
 it will not use this program in any manner prohibited above.
 ---------------------------------------------------------------
  

 Cite this work as:
 Gaussian 16, Revision A.03,
 M. J. Frisch, G. W. Trucks, H. B. Schlegel, G. E. Scuseria, 
 M. A. Robb, J. R. Cheeseman, G. Scalmani, V. Barone, 
 G. A. Petersson, H. Nakatsuji, X. Li, M. Caricato, A. V. Marenich, 
 J. Bloino, B. G. Janesko, R. Gomperts, B. Mennucci, H. P. Hratchian, 
 J. V. Ortiz, A. F. Izmaylov, J. L. Sonnenberg, D. Williams-Young, 
 F. Ding, F. Lipparini, F. Egidi, J. Goings, B. Peng, A. Petrone, 
 T. Henderson, D. Ranasinghe, V. G. Zakrzewski, J. Gao, N. Rega, 
 G. Zheng, W. Liang, M. Hada, M. Ehara, K. Toyota, R. Fukuda, 
 J. Hasegawa, M. Ishida, T. Nakajima, Y. Honda, O. Kitao, H. Nakai, 
 T. Vreven, K. Throssell, J. A. Montgomery, Jr., J. E. Peralta, 
 F. Ogliaro, M. J. Bearpark, J. J. Heyd, E. N. Brothers, K. N. Kudin, 
 V. N. Staroverov, T. A. Keith, R. Kobayashi, J. Normand, 
 K. Raghavachari, A. P. Rendell, J. C. Burant, S. S. Iyengar, 
 J. Tomasi, M. Cossi, J. M. Millam, M. Klene, C. Adamo, R. Cammi, 
 J. W. Ochterski, R. L. Martin, K. Morokuma, O. Farkas, 
 J. B. Foresman, and D. J. Fox, Gaussian, Inc., Wallingford CT, 2016.
 
 ******************************************
 Gaussian 16:  ES64L-G16RevA.03 25-Dec-2016
                16-Sep-2022 
 ******************************************
 %nprocs=12
 Will use up to   12 processors via shared memory.
 %mem=16GB
 %oldchk=1ccg_II_S.chk
 %chk=1ccg_III_D.chk
 Copying data from "1ccg_II_S.chk" to current chk file "1ccg_III_D.chk"
 IOpt=  2 FromEx=T IUOpen= 4 IOptOp= 5 NList=   0 IFRang= 0 IUIn= 4 IUOut= 2.
 ----------------------------------------------------------------------
 # PBE1PBE/def2TZVP empiricaldispersion=GD3BJ int=(grid=ultrafine) geom
 =check pop=nbo
 ----------------------------------------------------------------------
 1/29=2,38=1,172=1/1;
 2/12=2,40=1/2;
 3/5=44,7=101,11=2,14=-4,25=1,30=1,74=-13,75=-5,124=41/1,2,3;
 4//1;
 5/5=2,38=5/2;
 6/7=2,8=2,9=2,10=2,28=1,40=1/1,7;
 99/5=1,9=1/99;
 ----------
 1ccg_III_D
 ----------
 Structure from the checkpoint file:  "1ccg_III_D.chk"
 Charge =  1 Multiplicity = 2
 Z-Matrix found in chk file.
 C,0,-5.506,53.923,112.93
 C,0,-7.562,57.972,114.378
 C,0,-5.926,60.126,110.472
 C,0,-3.654,56.114,109.164
 C,0,-6.228,54.827,113.698
 C,0,-6.758,54.532,114.942
 C,0,-7.395,55.715,115.374
 C,0,-7.147,56.642,114.369
 C,0,-8.23,55.922,116.645
 C,0,-6.626,53.173,115.641
 C,0,-5.472,53.012,116.584
 C,0,-5.394,51.617,117.224
 O,0,-6.246,51.26,118.04
 O,0,-4.475,50.847,116.942
 C,0,-7.381,58.932,113.376
 C,0,-7.941,60.211,113.411
 C,0,-7.522,60.812,112.232
 C,0,-6.685,59.879,111.612
 C,0,-8.919,60.678,114.485
 C,0,-7.826,62.055,111.651
 C,0,-8.743,63.064,112.11
 C,0,-5.081,59.253,109.775
 C,0,-4.298,59.622,108.683
 C,0,-3.589,58.446,108.366
 C,0,-4.047,57.462,109.229
 C,0,-4.188,61.047,108.081
 C,0,-2.635,58.152,107.378
 C,0,-2.272,58.924,106.228
 C,0,-4.,55.082,110.014
 C,0,-3.674,53.753,109.834
 C,0,-4.208,53.123,110.964
 C,0,-4.83,54.109,111.715
 C,0,-3.02,53.099,108.613
 C,0,-4.19,51.63,111.27
 C,0,-3.016,51.229,112.145
 C,0,-3.008,49.79,112.601
 O,0,-2.443,49.528,113.657
 O,0,-3.547,48.922,111.918
 N,0,-6.462,56.1,113.359
 N,0,-6.701,58.711,112.255
 N,0,-4.921,57.955,110.104
 N,0,-4.723,55.274,111.116
 Fe,0,-5.857,56.937,111.603
 N,0,-9.264,56.772,109.591
 C,0,-8.576,56.828,110.692
 N,0,-7.374,56.4,110.42
 C,0,-7.308,56.079,109.165
 C,0,-8.548,56.317,108.604
 H,0,-10.166,57.108,109.493
 O,0,-4.422,57.485,112.862
 H,0,-5.45782113,52.93038101,113.32659342
 H,0,-8.08069798,58.29811361,115.25521281
 H,0,-5.99760271,61.11670263,110.07415412
 H,0,-3.00493273,55.8547598,108.35381101
 H,0,-8.29848407,56.96786322,116.86036031
 H,0,-9.21175387,55.52358038,116.49559734
 H,0,-7.7619019,55.41887131,117.4651498
 H,0,-6.44721884,52.46901742,114.85528642
 H,0,-7.5012008,53.08406969,116.25010997
 H,0,-5.65300175,53.69407989,117.38830429
 H,0,-4.58942939,53.11072806,115.98715673
 H,0,-8.46371308,61.44873123,115.07116311
 H,0,-9.8040266,61.05930165,114.01998713
 H,0,-9.17510627,59.85346206,115.11701801
 H,0,-7.30480633,62.28163664,110.74441686
 H,0,-9.30143044,62.91003662,113.00963921
 H,0,-8.86660125,63.96842137,111.55174851
 H,0,-3.96248284,61.38427734,107.09090606
 H,0,-3.16344207,60.7451661,108.01714588
 H,0,-5.06293474,60.70293935,107.57010718
 H,0,-2.1095021,57.22809277,107.50107472
 H,0,-2.75434073,59.86002192,106.03797265
 H,0,-1.5183987,58.56487385,105.5586619
 H,0,-2.27695181,52.4008133,108.93752229
 H,0,-3.76507449,52.58672515,108.04086497
 H,0,-2.56112515,53.85261299,108.00768906
 H,0,-4.04362608,51.13631942,110.33204789
 H,0,-5.07023292,51.43423488,111.84599134
 H,0,-3.11319677,51.81093673,113.0376379
 H,0,-2.14912823,51.33767231,111.52724304
 H,0,-8.9296665,57.16293665,111.64470008
 H,0,-6.44757409,55.69818255,108.65554409
 H,0,-8.85064928,56.16247035,107.58939466
 H,0,-3.67092348,58.08289971,112.862
 H,0,-4.10865359,56.57757836,112.862
 H,0,-5.97701984,50.89062643,118.88428244
 H,0,-3.01035,48.29644543,111.42577215
 Recover connectivity data from disk.
 Center=     -5.69504601     56.23397221    111.88815250
 Residue   0                        charge    0.00000000 layers R        AvRTP=      7.49740844    280.25480075     64.16799963
 Residue   4                        charge    0.00000000 layers R        AvRTP=      0.00000000      0.00000000      0.00000000
 Residue   2 PDB Number   575_A IMD charge    0.00000000 layers R        AvRTP=      3.58109175    174.28708208    130.98602261
 Residue   3 PDB Number   313_A HOH charge    0.00000000 layers R        AvRTP=      2.21717271     35.18893807     63.94527408
 Residue   1 PDB Number     1_A HEM charge    0.00000000 layers R        AvRTP=      0.29944987     23.66350593     57.69198574
 Stoichiometry    C37H38FeN6O5(1+,2)
 Framework group  C1[X(C37H38FeN6O5)]
 Deg. of freedom   255
 Full point group                 C1      NOp   1
 Largest Abelian subgroup         C1      NOp   1
 Largest concise Abelian subgroup C1      NOp   1
                         Standard orientation:                         
 ---------------------------------------------------------------------
 Center     Atomic      Atomic             Coordinates (Angstroms)
 Number     Number       Type             X           Y           Z
 ---------------------------------------------------------------------
      1          6           0       -2.341147   -0.087175    0.262138
      2          6           0        0.995264   -3.454204   -0.237578
      3          6           0        4.282185   -0.048016   -0.646326
      4          6           0        0.880258    3.318637   -0.398269
      5          6           0       -1.739433   -1.335050    0.166899
      6          6           0       -2.438089   -2.529722    0.156800
      7          6           0       -1.460638   -3.540642    0.036331
      8          6           0       -0.253692   -2.860163   -0.068963
      9          6           0       -1.671537   -5.060417    0.072694
     10          6           0       -3.964882   -2.642523    0.252103
     11          6           0       -4.716174   -2.701943   -1.043627
     12          6           0       -6.240043   -2.788572   -0.864662
     13          8           0       -6.753382   -3.808122   -0.399679
     14          8           0       -6.965770   -1.850150   -1.195826
     15          6           0        2.242116   -2.822105   -0.302203
     16          6           0        3.460591   -3.503376   -0.345264
     17          6           0        4.422473   -2.503552   -0.389279
     18          6           0        3.711319   -1.300676   -0.442255
     19          6           0        3.589811   -5.017051   -0.203352
     20          6           0        5.826668   -2.547984   -0.353391
     21          6           0        6.688241   -3.688815   -0.192611
     22          6           0        3.655693    1.203852   -0.694268
     23          6           0        4.309907    2.399294   -0.985190
     24          6           0        3.276689    3.357698   -0.976926
     25          6           0        2.117318    2.687864   -0.616413
     26          6           0        5.810632    2.552230   -1.345141
     27          6           0        3.268335    4.743920   -1.202791
     28          6           0        4.379370    5.643972   -1.278697
     29          6           0       -0.336058    2.734044   -0.104899
     30          6           0       -1.495196    3.413133    0.211575
     31          6           0       -2.441354    2.395890    0.381751
     32          6           0       -1.777510    1.194879    0.181837
     33          6           0       -1.669620    4.913025    0.468814
     34          6           0       -3.898665    2.565334    0.794718
     35          6           0       -4.837188    2.634942   -0.396513
     36          6           0       -6.308954    2.666210   -0.062378
     37          8           0       -7.093116    2.218160   -0.891441
     38          8           0       -6.690412    3.138002    1.006424
     39          7           0       -0.424535   -1.539306    0.027156
     40          7           0        2.404121   -1.502698   -0.273888
     41          7           0        2.336094    1.381642   -0.480508
     42          7           0       -0.507987    1.413529   -0.078889
     43         26           0        0.959964   -0.045150   -0.000976
     44          7           0        2.280541   -0.306056    3.723406
     45          6           0        1.737098   -0.806619    2.654394
     46          7           0        1.259811    0.189171    1.959721
     47          6           0        1.499839    1.300357    2.584281
     48          6           0        2.171460    0.990545    3.751289
     49          1           0        2.780947   -0.819336    4.373207
     50          8           0        0.651998   -0.387767   -1.932913
     51          1           0       -3.399030   -0.106564    0.421534
     52          1           0        1.001868   -4.520318   -0.328448
     53          1           0        5.343079   -0.040119   -0.785404
     54          1           0        0.881058    4.386340   -0.468343
     55          1           0       -0.824353   -5.548564   -0.361923
     56          1           0       -1.785917   -5.380454    1.087284
     57          1           0       -2.551373   -5.311778   -0.481928
     58          1           0       -4.284954   -1.735671    0.721224
     59          1           0       -4.148069   -3.583896    0.726613
     60          1           0       -4.423065   -3.618794   -1.510930
     61          1           0       -4.530858   -1.768772   -1.533269
     62          1           0        3.941349   -5.432917   -1.124426
     63          1           0        4.284184   -5.243998    0.578466
     64          1           0        2.634516   -5.435739    0.035422
     65          1           0        6.322107   -1.605619   -0.460107
     66          1           0        6.266819   -4.665859   -0.079973
     67          1           0        7.750470   -3.560279   -0.185667
     68          1           0        6.492506    3.366680   -1.216231
     69          1           0        5.387840    3.251809   -2.035601
     70          1           0        5.879880    2.561583   -0.277425
     71          1           0        2.303197    5.186301   -1.335858
     72          1           0        5.376169    5.275014   -1.155558
     73          1           0        4.212819    6.685514   -1.458557
     74          1           0       -2.559535    5.256870   -0.015667
     75          1           0       -1.746436    5.087769    1.521650
     76          1           0       -0.824731    5.442179    0.080150
     77          1           0       -3.961501    3.517706    1.278390
     78          1           0       -4.161496    1.675911    1.328335
     79          1           0       -4.685522    1.721866   -0.933346
     80          1           0       -4.631324    3.573210   -0.867865
     81          1           0        1.689860   -1.843012    2.392559
     82          1           0        1.226705    2.281046    2.254818
     83          1           0        2.521993    1.663246    4.505942
     84          1           0        1.048135   -0.131521   -2.768983
     85          1           0       -0.208135    0.029447   -1.845145
     86          1           0       -7.489499   -4.224820   -0.853656
     87          1           0       -7.130146    3.991169    1.024820
 ---------------------------------------------------------------------
 Rotational constants (GHZ):           0.0819071           0.0475467           0.0338762
 Standard basis: def2TZVP (5D, 7F)
 There are  2008 symmetry adapted cartesian basis functions of A   symmetry.
 There are  1761 symmetry adapted basis functions of A   symmetry.
  1761 basis functions,  2854 primitive gaussians,  2008 cartesian basis functions
   184 alpha electrons      183 beta electrons
       nuclear repulsion energy      7371.5366171953 Hartrees.
 NAtoms=   87 NActive=   87 NUniq=   87 SFac= 1.00D+00 NAtFMM=   60 NAOKFM=T Big=T
 Integral buffers will be    131072 words long.
 Raffenetti 2 integral format.
 Two-electron integral symmetry is turned on.
 Nuclear repulsion after empirical dispersion term =     7371.4146188558 Hartrees.
 One-electron integrals computed using PRISM.
   1 Symmetry operations used in ECPInt.
 ECPInt:  NShTT=  241860 NPrTT=  750929 LenC2=  176350 LenP2D=  356217.
 LDataN:  DoStor=T MaxTD1= 6 Len=  172
 NBasis=  1761 RedAO= T EigKep=  2.74D-06  NBF=  1761
 NBsUse=  1761 1.00D-06 EigRej= -1.00D+00 NBFU=  1761
 ExpMin= 4.20D-02 ExpMax= 3.01D+05 ExpMxC= 2.91D+03 IAcc=3 IRadAn=         5 AccDes= 0.00D+00
 Harris functional with IExCor= 1009 and IRadAn=       5 diagonalized for initial guess.
 HarFok:  IExCor= 1009 AccDes= 0.00D+00 IRadAn=         5 IDoV= 1 UseB2=F ITyADJ=14
 ICtDFT=  3500011 ScaDFX=  1.000000  1.000000  1.000000  1.000000
 FoFCou: FMM=F IPFlag=           0 FMFlag=      100000 FMFlg1=        2001
         NFxFlg=           0 DoJE=T BraDBF=F KetDBF=T FulRan=T
         wScrn=  0.000000 ICntrl=       500 IOpCl=  0 I1Cent=   200000004 NGrid=           0
         NMat0=    1 NMatS0=      1 NMatT0=    0 NMatD0=    1 NMtDS0=    0 NMtDT0=    0
 Petite list used in FoFCou.
 Initial guess <Sx>= 0.0000 <Sy>= 0.0000 <Sz>= 0.5000 <S**2>= 0.7500 S= 0.5000
 Requested convergence on RMS density matrix=1.00D-08 within 128 cycles.
 Requested convergence on MAX density matrix=1.00D-06.
 Requested convergence on             energy=1.00D-06.
 No special actions if energy rises.
 EnCoef did     4 forward-backward iterations
 EnCoef did     4 forward-backward iterations
 Restarting incremental Fock formation.
 Restarting incremental Fock formation.
 Restarting incremental Fock formation.
 SCF Done:  E(UPBE1PBE) =  -3398.95775957     A.U. after   77 cycles
            NFock= 77  Conv=0.18D-08     -V/T= 2.0027
 <Sx>= 0.0000 <Sy>= 0.0000 <Sz>= 0.5000 <S**2>= 0.9059 S= 0.5751
 <L.S>= 0.000000000000E+00
 Annihilation of the first spin contaminant:
 S**2 before annihilation     0.9059,   after     0.7534

 **********************************************************************

            Population analysis using the SCF density.

 **********************************************************************

 Orbital symmetries:
 Alpha Orbitals:
       Occupied  (A) (A) (A) (A) (A) (A) (A) (A) (A) (A) (A) (A)
                 (A) (A) (A) (A) (A) (A) (A) (A) (A) (A) (A) (A)
                 (A) (A) (A) (A) (A) (A) (A) (A) (A) (A) (A) (A)
                 (A) (A) (A) (A) (A) (A) (A) (A) (A) (A) (A) (A)
                 (A) (A) (A) (A) (A) (A) (A) (A) (A) (A) (A) (A)
                 (A) (A) (A) (A) (A) (A) (A) (A) (A) (A) (A) (A)
                 (A) (A) (A) (A) (A) (A) (A) (A) (A) (A) (A) (A)
                 (A) (A) (A) (A) (A) (A) (A) (A) (A) (A) (A) (A)
                 (A) (A) (A) (A) (A) (A) (A) (A) (A) (A) (A) (A)
                 (A) (A) (A) (A) (A) (A) (A) (A) (A) (A) (A) (A)
                 (A) (A) (A) (A) (A) (A) (A) (A) (A) (A) (A) (A)
                 (A) (A) (A) (A) (A) (A) (A) (A) (A) (A) (A) (A)
                 (A) (A) (A) (A) (A) (A) (A) (A) (A) (A) (A) (A)
                 (A) (A) (A) (A) (A) (A) (A) (A) (A) (A) (A) (A)
                 (A) (A) (A) (A) (A) (A) (A) (A) (A) (A) (A) (A)
                 (A) (A) (A) (A)
       Virtual   (A) (A) (A) (A) (A) (A) (A) (A) (A) (A) (A) (A)
                 (A) (A) (A) (A) (A) (A) (A) (A) (A) (A) (A) (A)
                 (A) (A) (A) (A) (A) (A) (A) (A) (A) (A) (A) (A)
                 (A) (A) (A) (A) (A) (A) (A) (A) (A) (A) (A) (A)
                 (A) (A) (A) (A) (A) (A) (A) (A) (A) (A) (A) (A)
                 (A) (A) (A) (A) (A) (A) (A) (A) (A) (A) (A) (A)
                 (A) (A) (A) (A) (A) (A) (A) (A) (A) (A) (A) (A)
                 (A) (A) (A) (A) (A) (A) (A) (A) (A) (A) (A) (A)
                 (A) (A) (A) (A) (A) (A) (A) (A) (A) (A) (A) (A)
                 (A) (A) (A) (A) (A) (A) (A) (A) (A) (A) (A) (A)
                 (A) (A) (A) (A) (A) (A) (A) (A) (A) (A) (A) (A)
                 (A) (A) (A) (A) (A) (A) (A) (A) (A) (A) (A) (A)
                 (A) (A) (A) (A) (A) (A) (A) (A) (A) (A) (A) (A)
                 (A) (A) (A) (A) (A) (A) (A) (A) (A) (A) (A) (A)
                 (A) (A) (A) (A) (A) (A) (A) (A) (A) (A) (A) (A)
                 (A) (A) (A) (A) (A) (A) (A) (A) (A) (A) (A) (A)
                 (A) (A) (A) (A) (A) (A) (A) (A) (A) (A) (A) (A)
                 (A) (A) (A) (A) (A) (A) (A) (A) (A) (A) (A) (A)
                 (A) (A) (A) (A) (A) (A) (A) (A) (A) (A) (A) (A)
                 (A) (A) (A) (A) (A) (A) (A) (A) (A) (A) (A) (A)
                 (A) (A) (A) (A) (A) (A) (A) (A) (A) (A) (A) (A)
                 (A) (A) (A) (A) (A) (A) (A) (A) (A) (A) (A) (A)
                 (A) (A) (A) (A) (A) (A) (A) (A) (A) (A) (A) (A)
                 (A) (A) (A) (A) (A) (A) (A) (A) (A) (A) (A) (A)
                 (A) (A) (A) (A) (A) (A) (A) (A) (A) (A) (A) (A)
                 (A) (A) (A) (A) (A) (A) (A) (A) (A) (A) (A) (A)
                 (A) (A) (A) (A) (A) (A) (A) (A) (A) (A) (A) (A)
                 (A) (A) (A) (A) (A) (A) (A) (A) (A) (A) (A) (A)
                 (A) (A) (A) (A) (A) (A) (A) (A) (A) (A) (A) (A)
                 (A) (A) (A) (A) (A) (A) (A) (A) (A) (A) (A) (A)
                 (A) (A) (A) (A) (A) (A) (A) (A) (A) (A) (A) (A)
                 (A) (A) (A) (A) (A) (A) (A) (A) (A) (A) (A) (A)
                 (A) (A) (A) (A) (A) (A) (A) (A) (A) (A) (A) (A)
                 (A) (A) (A) (A) (A) (A) (A) (A) (A) (A) (A) (A)
                 (A) (A) (A) (A) (A) (A) (A) (A) (A) (A) (A) (A)
                 (A) (A) (A) (A) (A) (A) (A) (A) (A) (A) (A) (A)
                 (A) (A) (A) (A) (A) (A) (A) (A) (A) (A) (A) (A)
                 (A) (A) (A) (A) (A) (A) (A) (A) (A) (A) (A) (A)
                 (A) (A) (A) (A) (A) (A) (A) (A) (A) (A) (A) (A)
                 (A) (A) (A) (A) (A) (A) (A) (A) (A) (A) (A) (A)
                 (A) (A) (A) (A) (A) (A) (A) (A) (A) (A) (A) (A)
                 (A) (A) (A) (A) (A) (A) (A) (A) (A) (A) (A) (A)
                 (A) (A) (A) (A) (A) (A) (A) (A) (A) (A) (A) (A)
                 (A) (A) (A) (A) (A) (A) (A) (A) (A) (A) (A) (A)
                 (A) (A) (A) (A) (A) (A) (A) (A) (A) (A) (A) (A)
                 (A) (A) (A) (A) (A) (A) (A) (A) (A) (A) (A) (A)
                 (A) (A) (A) (A) (A) (A) (A) (A) (A) (A) (A) (A)
                 (A) (A) (A) (A) (A) (A) (A) (A) (A) (A) (A) (A)
                 (A) (A) (A) (A) (A) (A) (A) (A) (A) (A) (A) (A)
                 (A) (A) (A) (A) (A) (A) (A) (A) (A) (A) (A) (A)
                 (A) (A) (A) (A) (A) (A) (A) (A) (A) (A) (A) (A)
                 (A) (A) (A) (A) (A) (A) (A) (A) (A) (A) (A) (A)
                 (A) (A) (A) (A) (A) (A) (A) (A) (A) (A) (A) (A)
                 (A) (A) (A) (A) (A) (A) (A) (A) (A) (A) (A) (A)
                 (A) (A) (A) (A) (A) (A) (A) (A) (A) (A) (A) (A)
                 (A) (A) (A) (A) (A) (A) (A) (A) (A) (A) (A) (A)
                 (A) (A) (A) (A) (A) (A) (A) (A) (A) (A) (A) (A)
                 (A) (A) (A) (A) (A) (A) (A) (A) (A) (A) (A) (A)
                 (A) (A) (A) (A) (A) (A) (A) (A) (A) (A) (A) (A)
                 (A) (A) (A) (A) (A) (A) (A) (A) (A) (A) (A) (A)
                 (A) (A) (A) (A) (A) (A) (A) (A) (A) (A) (A) (A)
                 (A) (A) (A) (A) (A) (A) (A) (A) (A) (A) (A) (A)
                 (A) (A) (A) (A) (A) (A) (A) (A) (A) (A) (A) (A)
                 (A) (A) (A) (A) (A) (A) (A) (A) (A) (A) (A) (A)
                 (A) (A) (A) (A) (A) (A) (A) (A) (A) (A) (A) (A)
                 (A) (A) (A) (A) (A) (A) (A) (A) (A) (A) (A) (A)
                 (A) (A) (A) (A) (A) (A) (A) (A) (A) (A) (A) (A)
                 (A) (A) (A) (A) (A) (A) (A) (A) (A) (A) (A) (A)
                 (A) (A) (A) (A) (A) (A) (A) (A) (A) (A) (A) (A)
                 (A) (A) (A) (A) (A) (A) (A) (A) (A) (A) (A) (A)
                 (A) (A) (A) (A) (A) (A) (A) (A) (A) (A) (A) (A)
                 (A) (A) (A) (A) (A) (A) (A) (A) (A) (A) (A) (A)
                 (A) (A) (A) (A) (A) (A) (A) (A) (A) (A) (A) (A)
                 (A) (A) (A) (A) (A) (A) (A) (A) (A) (A) (A) (A)
                 (A) (A) (A) (A) (A) (A) (A) (A) (A) (A) (A) (A)
                 (A) (A) (A) (A) (A) (A) (A) (A) (A) (A) (A) (A)
                 (A) (A) (A) (A) (A) (A) (A) (A) (A) (A) (A) (A)
                 (A) (A) (A) (A) (A) (A) (A) (A) (A) (A) (A) (A)
                 (A) (A) (A) (A) (A) (A) (A) (A) (A) (A) (A) (A)
                 (A) (A) (A) (A) (A) (A) (A) (A) (A) (A) (A) (A)
                 (A) (A) (A) (A) (A) (A) (A) (A) (A) (A) (A) (A)
                 (A) (A) (A) (A) (A) (A) (A) (A) (A) (A) (A) (A)
                 (A) (A) (A) (A) (A) (A) (A) (A) (A) (A) (A) (A)
                 (A) (A) (A) (A) (A) (A) (A) (A) (A) (A) (A) (A)
                 (A) (A) (A) (A) (A) (A) (A) (A) (A) (A) (A) (A)
                 (A) (A) (A) (A) (A) (A) (A) (A) (A) (A) (A) (A)
                 (A) (A) (A) (A) (A) (A) (A) (A) (A) (A) (A) (A)
                 (A) (A) (A) (A) (A) (A) (A) (A) (A) (A) (A) (A)
                 (A) (A) (A) (A) (A) (A) (A) (A) (A) (A) (A) (A)
                 (A) (A) (A) (A) (A) (A) (A) (A) (A) (A) (A) (A)
                 (A) (A) (A) (A) (A) (A) (A) (A) (A) (A) (A) (A)
                 (A) (A) (A) (A) (A) (A) (A) (A) (A) (A) (A) (A)
                 (A) (A) (A) (A) (A) (A) (A) (A) (A) (A) (A) (A)
                 (A) (A) (A) (A) (A) (A) (A) (A) (A) (A) (A) (A)
                 (A) (A) (A) (A) (A) (A) (A) (A) (A) (A) (A) (A)
                 (A) (A) (A) (A) (A) (A) (A) (A) (A) (A) (A) (A)
                 (A) (A) (A) (A) (A) (A) (A) (A) (A) (A) (A) (A)
                 (A) (A) (A) (A) (A) (A) (A) (A) (A) (A) (A) (A)
                 (A) (A) (A) (A) (A) (A) (A) (A) (A) (A) (A) (A)
                 (A) (A) (A) (A) (A) (A) (A) (A) (A) (A) (A) (A)
                 (A) (A) (A) (A) (A) (A) (A) (A) (A) (A) (A) (A)
                 (A) (A) (A) (A) (A) (A) (A) (A) (A) (A) (A) (A)
                 (A) (A) (A) (A) (A) (A) (A) (A) (A) (A) (A) (A)
                 (A) (A) (A) (A) (A) (A) (A) (A) (A) (A) (A) (A)
                 (A) (A) (A) (A) (A) (A) (A) (A) (A) (A) (A) (A)
                 (A) (A) (A) (A) (A) (A) (A) (A) (A) (A) (A) (A)
                 (A) (A) (A) (A) (A) (A) (A) (A) (A) (A) (A) (A)
                 (A) (A) (A) (A) (A) (A) (A) (A) (A) (A) (A) (A)
                 (A) (A) (A) (A) (A) (A) (A) (A) (A) (A) (A) (A)
                 (A) (A) (A) (A) (A) (A) (A) (A) (A) (A) (A) (A)
                 (A) (A) (A) (A) (A) (A) (A) (A) (A) (A) (A) (A)
                 (A) (A) (A) (A) (A) (A) (A) (A) (A) (A) (A) (A)
                 (A) (A) (A) (A) (A) (A) (A) (A) (A) (A) (A) (A)
                 (A) (A) (A) (A) (A) (A) (A) (A) (A) (A) (A) (A)
                 (A) (A) (A) (A) (A) (A) (A) (A) (A) (A) (A) (A)
                 (A) (A) (A) (A) (A) (A) (A) (A) (A) (A) (A) (A)
                 (A) (A) (A) (A) (A) (A) (A) (A) (A) (A) (A) (A)
                 (A) (A) (A) (A) (A) (A) (A) (A) (A) (A) (A) (A)
                 (A) (A) (A) (A) (A) (A) (A) (A) (A) (A) (A) (A)
                 (A) (A) (A) (A) (A) (A) (A) (A) (A) (A) (A) (A)
                 (A) (A) (A) (A) (A) (A) (A) (A) (A) (A) (A) (A)
                 (A) (A) (A) (A) (A) (A) (A) (A) (A) (A) (A) (A)
                 (A) (A) (A) (A) (A) (A) (A) (A) (A) (A) (A) (A)
                 (A) (A) (A) (A) (A) (A) (A) (A) (A) (A) (A) (A)
                 (A) (A) (A) (A) (A) (A) (A) (A) (A) (A) (A) (A)
                 (A) (A) (A) (A) (A) (A) (A) (A) (A) (A) (A) (A)
                 (A) (A) (A) (A) (A) (A) (A) (A) (A) (A) (A) (A)
                 (A) (A) (A) (A) (A) (A) (A) (A) (A) (A) (A) (A)
                 (A) (A) (A) (A) (A) (A) (A) (A) (A) (A) (A) (A)
                 (A) (A) (A) (A) (A) (A) (A) (A) (A) (A) (A) (A)
                 (A) (A) (A) (A) (A) (A) (A) (A) (A) (A) (A) (A)
                 (A) (A) (A) (A) (A)
 Beta  Orbitals:
       Occupied  (A) (A) (A) (A) (A) (A) (A) (A) (A) (A) (A) (A)
                 (A) (A) (A) (A) (A) (A) (A) (A) (A) (A) (A) (A)
                 (A) (A) (A) (A) (A) (A) (A) (A) (A) (A) (A) (A)
                 (A) (A) (A) (A) (A) (A) (A) (A) (A) (A) (A) (A)
                 (A) (A) (A) (A) (A) (A) (A) (A) (A) (A) (A) (A)
                 (A) (A) (A) (A) (A) (A) (A) (A) (A) (A) (A) (A)
                 (A) (A) (A) (A) (A) (A) (A) (A) (A) (A) (A) (A)
                 (A) (A) (A) (A) (A) (A) (A) (A) (A) (A) (A) (A)
                 (A) (A) (A) (A) (A) (A) (A) (A) (A) (A) (A) (A)
                 (A) (A) (A) (A) (A) (A) (A) (A) (A) (A) (A) (A)
                 (A) (A) (A) (A) (A) (A) (A) (A) (A) (A) (A) (A)
                 (A) (A) (A) (A) (A) (A) (A) (A) (A) (A) (A) (A)
                 (A) (A) (A) (A) (A) (A) (A) (A) (A) (A) (A) (A)
                 (A) (A) (A) (A) (A) (A) (A) (A) (A) (A) (A) (A)
                 (A) (A) (A) (A) (A) (A) (A) (A) (A) (A) (A) (A)
                 (A) (A) (A)
       Virtual   (A) (A) (A) (A) (A) (A) (A) (A) (A) (A) (A) (A)
                 (A) (A) (A) (A) (A) (A) (A) (A) (A) (A) (A) (A)
                 (A) (A) (A) (A) (A) (A) (A) (A) (A) (A) (A) (A)
                 (A) (A) (A) (A) (A) (A) (A) (A) (A) (A) (A) (A)
                 (A) (A) (A) (A) (A) (A) (A) (A) (A) (A) (A) (A)
                 (A) (A) (A) (A) (A) (A) (A) (A) (A) (A) (A) (A)
                 (A) (A) (A) (A) (A) (A) (A) (A) (A) (A) (A) (A)
                 (A) (A) (A) (A) (A) (A) (A) (A) (A) (A) (A) (A)
                 (A) (A) (A) (A) (A) (A) (A) (A) (A) (A) (A) (A)
                 (A) (A) (A) (A) (A) (A) (A) (A) (A) (A) (A) (A)
                 (A) (A) (A) (A) (A) (A) (A) (A) (A) (A) (A) (A)
                 (A) (A) (A) (A) (A) (A) (A) (A) (A) (A) (A) (A)
                 (A) (A) (A) (A) (A) (A) (A) (A) (A) (A) (A) (A)
                 (A) (A) (A) (A) (A) (A) (A) (A) (A) (A) (A) (A)
                 (A) (A) (A) (A) (A) (A) (A) (A) (A) (A) (A) (A)
                 (A) (A) (A) (A) (A) (A) (A) (A) (A) (A) (A) (A)
                 (A) (A) (A) (A) (A) (A) (A) (A) (A) (A) (A) (A)
                 (A) (A) (A) (A) (A) (A) (A) (A) (A) (A) (A) (A)
                 (A) (A) (A) (A) (A) (A) (A) (A) (A) (A) (A) (A)
                 (A) (A) (A) (A) (A) (A) (A) (A) (A) (A) (A) (A)
                 (A) (A) (A) (A) (A) (A) (A) (A) (A) (A) (A) (A)
                 (A) (A) (A) (A) (A) (A) (A) (A) (A) (A) (A) (A)
                 (A) (A) (A) (A) (A) (A) (A) (A) (A) (A) (A) (A)
                 (A) (A) (A) (A) (A) (A) (A) (A) (A) (A) (A) (A)
                 (A) (A) (A) (A) (A) (A) (A) (A) (A) (A) (A) (A)
                 (A) (A) (A) (A) (A) (A) (A) (A) (A) (A) (A) (A)
                 (A) (A) (A) (A) (A) (A) (A) (A) (A) (A) (A) (A)
                 (A) (A) (A) (A) (A) (A) (A) (A) (A) (A) (A) (A)
                 (A) (A) (A) (A) (A) (A) (A) (A) (A) (A) (A) (A)
                 (A) (A) (A) (A) (A) (A) (A) (A) (A) (A) (A) (A)
                 (A) (A) (A) (A) (A) (A) (A) (A) (A) (A) (A) (A)
                 (A) (A) (A) (A) (A) (A) (A) (A) (A) (A) (A) (A)
                 (A) (A) (A) (A) (A) (A) (A) (A) (A) (A) (A) (A)
                 (A) (A) (A) (A) (A) (A) (A) (A) (A) (A) (A) (A)
                 (A) (A) (A) (A) (A) (A) (A) (A) (A) (A) (A) (A)
                 (A) (A) (A) (A) (A) (A) (A) (A) (A) (A) (A) (A)
                 (A) (A) (A) (A) (A) (A) (A) (A) (A) (A) (A) (A)
                 (A) (A) (A) (A) (A) (A) (A) (A) (A) (A) (A) (A)
                 (A) (A) (A) (A) (A) (A) (A) (A) (A) (A) (A) (A)
                 (A) (A) (A) (A) (A) (A) (A) (A) (A) (A) (A) (A)
                 (A) (A) (A) (A) (A) (A) (A) (A) (A) (A) (A) (A)
                 (A) (A) (A) (A) (A) (A) (A) (A) (A) (A) (A) (A)
                 (A) (A) (A) (A) (A) (A) (A) (A) (A) (A) (A) (A)
                 (A) (A) (A) (A) (A) (A) (A) (A) (A) (A) (A) (A)
                 (A) (A) (A) (A) (A) (A) (A) (A) (A) (A) (A) (A)
                 (A) (A) (A) (A) (A) (A) (A) (A) (A) (A) (A) (A)
                 (A) (A) (A) (A) (A) (A) (A) (A) (A) (A) (A) (A)
                 (A) (A) (A) (A) (A) (A) (A) (A) (A) (A) (A) (A)
                 (A) (A) (A) (A) (A) (A) (A) (A) (A) (A) (A) (A)
                 (A) (A) (A) (A) (A) (A) (A) (A) (A) (A) (A) (A)
                 (A) (A) (A) (A) (A) (A) (A) (A) (A) (A) (A) (A)
                 (A) (A) (A) (A) (A) (A) (A) (A) (A) (A) (A) (A)
                 (A) (A) (A) (A) (A) (A) (A) (A) (A) (A) (A) (A)
                 (A) (A) (A) (A) (A) (A) (A) (A) (A) (A) (A) (A)
                 (A) (A) (A) (A) (A) (A) (A) (A) (A) (A) (A) (A)
                 (A) (A) (A) (A) (A) (A) (A) (A) (A) (A) (A) (A)
                 (A) (A) (A) (A) (A) (A) (A) (A) (A) (A) (A) (A)
                 (A) (A) (A) (A) (A) (A) (A) (A) (A) (A) (A) (A)
                 (A) (A) (A) (A) (A) (A) (A) (A) (A) (A) (A) (A)
                 (A) (A) (A) (A) (A) (A) (A) (A) (A) (A) (A) (A)
                 (A) (A) (A) (A) (A) (A) (A) (A) (A) (A) (A) (A)
                 (A) (A) (A) (A) (A) (A) (A) (A) (A) (A) (A) (A)
                 (A) (A) (A) (A) (A) (A) (A) (A) (A) (A) (A) (A)
                 (A) (A) (A) (A) (A) (A) (A) (A) (A) (A) (A) (A)
                 (A) (A) (A) (A) (A) (A) (A) (A) (A) (A) (A) (A)
                 (A) (A) (A) (A) (A) (A) (A) (A) (A) (A) (A) (A)
                 (A) (A) (A) (A) (A) (A) (A) (A) (A) (A) (A) (A)
                 (A) (A) (A) (A) (A) (A) (A) (A) (A) (A) (A) (A)
                 (A) (A) (A) (A) (A) (A) (A) (A) (A) (A) (A) (A)
                 (A) (A) (A) (A) (A) (A) (A) (A) (A) (A) (A) (A)
                 (A) (A) (A) (A) (A) (A) (A) (A) (A) (A) (A) (A)
                 (A) (A) (A) (A) (A) (A) (A) (A) (A) (A) (A) (A)
                 (A) (A) (A) (A) (A) (A) (A) (A) (A) (A) (A) (A)
                 (A) (A) (A) (A) (A) (A) (A) (A) (A) (A) (A) (A)
                 (A) (A) (A) (A) (A) (A) (A) (A) (A) (A) (A) (A)
                 (A) (A) (A) (A) (A) (A) (A) (A) (A) (A) (A) (A)
                 (A) (A) (A) (A) (A) (A) (A) (A) (A) (A) (A) (A)
                 (A) (A) (A) (A) (A) (A) (A) (A) (A) (A) (A) (A)
                 (A) (A) (A) (A) (A) (A) (A) (A) (A) (A) (A) (A)
                 (A) (A) (A) (A) (A) (A) (A) (A) (A) (A) (A) (A)
                 (A) (A) (A) (A) (A) (A) (A) (A) (A) (A) (A) (A)
                 (A) (A) (A) (A) (A) (A) (A) (A) (A) (A) (A) (A)
                 (A) (A) (A) (A) (A) (A) (A) (A) (A) (A) (A) (A)
                 (A) (A) (A) (A) (A) (A) (A) (A) (A) (A) (A) (A)
                 (A) (A) (A) (A) (A) (A) (A) (A) (A) (A) (A) (A)
                 (A) (A) (A) (A) (A) (A) (A) (A) (A) (A) (A) (A)
                 (A) (A) (A) (A) (A) (A) (A) (A) (A) (A) (A) (A)
                 (A) (A) (A) (A) (A) (A) (A) (A) (A) (A) (A) (A)
                 (A) (A) (A) (A) (A) (A) (A) (A) (A) (A) (A) (A)
                 (A) (A) (A) (A) (A) (A) (A) (A) (A) (A) (A) (A)
                 (A) (A) (A) (A) (A) (A) (A) (A) (A) (A) (A) (A)
                 (A) (A) (A) (A) (A) (A) (A) (A) (A) (A) (A) (A)
                 (A) (A) (A) (A) (A) (A) (A) (A) (A) (A) (A) (A)
                 (A) (A) (A) (A) (A) (A) (A) (A) (A) (A) (A) (A)
                 (A) (A) (A) (A) (A) (A) (A) (A) (A) (A) (A) (A)
                 (A) (A) (A) (A) (A) (A) (A) (A) (A) (A) (A) (A)
                 (A) (A) (A) (A) (A) (A) (A) (A) (A) (A) (A) (A)
                 (A) (A) (A) (A) (A) (A) (A) (A) (A) (A) (A) (A)
                 (A) (A) (A) (A) (A) (A) (A) (A) (A) (A) (A) (A)
                 (A) (A) (A) (A) (A) (A) (A) (A) (A) (A) (A) (A)
                 (A) (A) (A) (A) (A) (A) (A) (A) (A) (A) (A) (A)
                 (A) (A) (A) (A) (A) (A) (A) (A) (A) (A) (A) (A)
                 (A) (A) (A) (A) (A) (A) (A) (A) (A) (A) (A) (A)
                 (A) (A) (A) (A) (A) (A) (A) (A) (A) (A) (A) (A)
                 (A) (A) (A) (A) (A) (A) (A) (A) (A) (A) (A) (A)
                 (A) (A) (A) (A) (A) (A) (A) (A) (A) (A) (A) (A)
                 (A) (A) (A) (A) (A) (A) (A) (A) (A) (A) (A) (A)
                 (A) (A) (A) (A) (A) (A) (A) (A) (A) (A) (A) (A)
                 (A) (A) (A) (A) (A) (A) (A) (A) (A) (A) (A) (A)
                 (A) (A) (A) (A) (A) (A) (A) (A) (A) (A) (A) (A)
                 (A) (A) (A) (A) (A) (A) (A) (A) (A) (A) (A) (A)
                 (A) (A) (A) (A) (A) (A) (A) (A) (A) (A) (A) (A)
                 (A) (A) (A) (A) (A) (A) (A) (A) (A) (A) (A) (A)
                 (A) (A) (A) (A) (A) (A) (A) (A) (A) (A) (A) (A)
                 (A) (A) (A) (A) (A) (A) (A) (A) (A) (A) (A) (A)
                 (A) (A) (A) (A) (A) (A) (A) (A) (A) (A) (A) (A)
                 (A) (A) (A) (A) (A) (A) (A) (A) (A) (A) (A) (A)
                 (A) (A) (A) (A) (A) (A) (A) (A) (A) (A) (A) (A)
                 (A) (A) (A) (A) (A) (A) (A) (A) (A) (A) (A) (A)
                 (A) (A) (A) (A) (A) (A) (A) (A) (A) (A) (A) (A)
                 (A) (A) (A) (A) (A) (A) (A) (A) (A) (A) (A) (A)
                 (A) (A) (A) (A) (A) (A) (A) (A) (A) (A) (A) (A)
                 (A) (A) (A) (A) (A) (A) (A) (A) (A) (A) (A) (A)
                 (A) (A) (A) (A) (A) (A) (A) (A) (A) (A) (A) (A)
                 (A) (A) (A) (A) (A) (A) (A) (A) (A) (A) (A) (A)
                 (A) (A) (A) (A) (A) (A) (A) (A) (A) (A) (A) (A)
                 (A) (A) (A) (A) (A) (A) (A) (A) (A) (A) (A) (A)
                 (A) (A) (A) (A) (A) (A) (A) (A) (A) (A) (A) (A)
                 (A) (A) (A) (A) (A) (A) (A) (A) (A) (A) (A) (A)
                 (A) (A) (A) (A) (A) (A) (A) (A) (A) (A) (A) (A)
                 (A) (A) (A) (A) (A) (A) (A) (A) (A) (A) (A) (A)
                 (A) (A) (A) (A) (A) (A)
 The electronic state is 2-A.
 Alpha  occ. eigenvalues -- -256.53337 -30.31889 -26.14971 -26.14413 -26.13247
 Alpha  occ. eigenvalues --  -19.36062 -19.31945 -19.31642 -19.23689 -19.23592
 Alpha  occ. eigenvalues --  -14.57596 -14.53180 -14.49439 -14.48761 -14.48758
 Alpha  occ. eigenvalues --  -14.48626 -10.41140 -10.40772 -10.40615 -10.37615
 Alpha  occ. eigenvalues --  -10.37104 -10.36087 -10.35936 -10.35666 -10.35251
 Alpha  occ. eigenvalues --  -10.35242 -10.35217 -10.35195 -10.35134 -10.35107
 Alpha  occ. eigenvalues --  -10.33167 -10.33023 -10.32984 -10.32937 -10.32882
 Alpha  occ. eigenvalues --  -10.32819 -10.32813 -10.32599 -10.32584 -10.32454
 Alpha  occ. eigenvalues --  -10.32447 -10.32330 -10.32195 -10.32090 -10.31525
 Alpha  occ. eigenvalues --  -10.31477 -10.31155 -10.31089 -10.30776 -10.30658
 Alpha  occ. eigenvalues --  -10.30619 -10.30086 -10.28965  -3.67630  -2.44807
 Alpha  occ. eigenvalues --   -2.43456  -2.41132  -1.24085  -1.24008  -1.22893
 Alpha  occ. eigenvalues --   -1.20031  -1.12224  -1.11460  -1.11103  -1.10349
 Alpha  occ. eigenvalues --   -1.09479  -1.08918  -1.06906  -0.95587  -0.95270
 Alpha  occ. eigenvalues --   -0.93632  -0.93410  -0.93155  -0.92708  -0.92513
 Alpha  occ. eigenvalues --   -0.91649  -0.89766  -0.88477  -0.88276  -0.86502
 Alpha  occ. eigenvalues --   -0.86225  -0.84023  -0.83973  -0.82505  -0.81867
 Alpha  occ. eigenvalues --   -0.80890  -0.79715  -0.78287  -0.78008  -0.77243
 Alpha  occ. eigenvalues --   -0.76883  -0.76562  -0.74047  -0.73488  -0.73081
 Alpha  occ. eigenvalues --   -0.72587  -0.72218  -0.71996  -0.70202  -0.69900
 Alpha  occ. eigenvalues --   -0.67549  -0.66559  -0.65734  -0.64871  -0.63835
 Alpha  occ. eigenvalues --   -0.63509  -0.63062  -0.61926  -0.61000  -0.60852
 Alpha  occ. eigenvalues --   -0.60626  -0.60277  -0.59835  -0.59589  -0.59417
 Alpha  occ. eigenvalues --   -0.58778  -0.58584  -0.58356  -0.58169  -0.57493
 Alpha  occ. eigenvalues --   -0.57263  -0.56862  -0.56222  -0.55957  -0.55676
 Alpha  occ. eigenvalues --   -0.55492  -0.55175  -0.54562  -0.54311  -0.53994
 Alpha  occ. eigenvalues --   -0.53485  -0.53382  -0.53217  -0.53057  -0.52377
 Alpha  occ. eigenvalues --   -0.52149  -0.51946  -0.51687  -0.51452  -0.51065
 Alpha  occ. eigenvalues --   -0.50833  -0.50741  -0.50218  -0.50068  -0.49572
 Alpha  occ. eigenvalues --   -0.49300  -0.48857  -0.48689  -0.48446  -0.48325
 Alpha  occ. eigenvalues --   -0.48118  -0.47670  -0.47345  -0.47274  -0.46677
 Alpha  occ. eigenvalues --   -0.46476  -0.45600  -0.45538  -0.45366  -0.45285
 Alpha  occ. eigenvalues --   -0.44288  -0.43846  -0.43330  -0.42706  -0.42503
 Alpha  occ. eigenvalues --   -0.42273  -0.41991  -0.41640  -0.41423  -0.41001
 Alpha  occ. eigenvalues --   -0.39380  -0.39049  -0.38918  -0.38351  -0.37279
 Alpha  occ. eigenvalues --   -0.35037  -0.34432  -0.34121  -0.33479  -0.33276
 Alpha  occ. eigenvalues --   -0.31908  -0.30685  -0.30091  -0.29333
 Alpha virt. eigenvalues --   -0.19113  -0.18763  -0.18680  -0.17211  -0.14210
 Alpha virt. eigenvalues --   -0.10804  -0.10318  -0.09961  -0.08665  -0.07977
 Alpha virt. eigenvalues --   -0.07405  -0.06928  -0.06802  -0.06385  -0.04641
 Alpha virt. eigenvalues --   -0.04365  -0.04278  -0.04092  -0.03424  -0.03338
 Alpha virt. eigenvalues --   -0.02418  -0.01936  -0.01798  -0.01509  -0.01198
 Alpha virt. eigenvalues --   -0.01080  -0.00966  -0.00871  -0.00450   0.00026
 Alpha virt. eigenvalues --    0.00312   0.00444   0.00609   0.01094   0.01806
 Alpha virt. eigenvalues --    0.02245   0.02693   0.02873   0.03144   0.03319
 Alpha virt. eigenvalues --    0.03676   0.03963   0.04208   0.04632   0.04715
 Alpha virt. eigenvalues --    0.04851   0.05084   0.05306   0.05510   0.05775
 Alpha virt. eigenvalues --    0.06397   0.06547   0.06804   0.06924   0.07137
 Alpha virt. eigenvalues --    0.07179   0.07788   0.07937   0.08071   0.08112
 Alpha virt. eigenvalues --    0.08504   0.08790   0.08910   0.09101   0.09255
 Alpha virt. eigenvalues --    0.09547   0.09572   0.09910   0.10206   0.10514
 Alpha virt. eigenvalues --    0.10713   0.11011   0.11202   0.11436   0.11834
 Alpha virt. eigenvalues --    0.11955   0.12289   0.12363   0.12678   0.12983
 Alpha virt. eigenvalues --    0.13107   0.13385   0.13438   0.13692   0.13779
 Alpha virt. eigenvalues --    0.14030   0.14247   0.14267   0.14568   0.14967
 Alpha virt. eigenvalues --    0.15087   0.15418   0.15549   0.15774   0.15971
 Alpha virt. eigenvalues --    0.16159   0.16351   0.16693   0.16926   0.17241
 Alpha virt. eigenvalues --    0.17303   0.17593   0.17643   0.17864   0.18068
 Alpha virt. eigenvalues --    0.18426   0.18637   0.18946   0.19166   0.19445
 Alpha virt. eigenvalues --    0.19814   0.20087   0.20372   0.20462   0.20661
 Alpha virt. eigenvalues --    0.20906   0.21148   0.21262   0.21515   0.21674
 Alpha virt. eigenvalues --    0.22049   0.22365   0.22634   0.23062   0.23159
 Alpha virt. eigenvalues --    0.23401   0.23574   0.23812   0.24332   0.24390
 Alpha virt. eigenvalues --    0.24742   0.24927   0.25206   0.25299   0.25573
 Alpha virt. eigenvalues --    0.25770   0.26233   0.26414   0.26878   0.26895
 Alpha virt. eigenvalues --    0.27428   0.27641   0.27979   0.28050   0.28247
 Alpha virt. eigenvalues --    0.28601   0.28921   0.29052   0.29265   0.29558
 Alpha virt. eigenvalues --    0.29704   0.29815   0.30014   0.30106   0.30228
 Alpha virt. eigenvalues --    0.30552   0.30673   0.30745   0.31036   0.31497
 Alpha virt. eigenvalues --    0.31660   0.31811   0.31872   0.32079   0.32280
 Alpha virt. eigenvalues --    0.32445   0.32689   0.32883   0.33170   0.33308
 Alpha virt. eigenvalues --    0.33597   0.33921   0.34076   0.34402   0.34527
 Alpha virt. eigenvalues --    0.34757   0.35021   0.35398   0.35454   0.35807
 Alpha virt. eigenvalues --    0.35944   0.36498   0.36691   0.36949   0.37020
 Alpha virt. eigenvalues --    0.37079   0.37314   0.37668   0.38134   0.38200
 Alpha virt. eigenvalues --    0.38271   0.38348   0.38667   0.38883   0.39117
 Alpha virt. eigenvalues --    0.39356   0.39432   0.39588   0.39746   0.39806
 Alpha virt. eigenvalues --    0.40060   0.40304   0.40472   0.40639   0.40812
 Alpha virt. eigenvalues --    0.40919   0.41183   0.41251   0.41645   0.41833
 Alpha virt. eigenvalues --    0.41884   0.42179   0.42222   0.42574   0.42959
 Alpha virt. eigenvalues --    0.43257   0.43378   0.43537   0.43845   0.43882
 Alpha virt. eigenvalues --    0.44135   0.44378   0.44457   0.44714   0.44922
 Alpha virt. eigenvalues --    0.45185   0.45366   0.45481   0.45631   0.45817
 Alpha virt. eigenvalues --    0.46013   0.46432   0.46879   0.47034   0.47209
 Alpha virt. eigenvalues --    0.47270   0.47522   0.47899   0.48157   0.48364
 Alpha virt. eigenvalues --    0.48391   0.48651   0.48831   0.48992   0.49216
 Alpha virt. eigenvalues --    0.49664   0.49841   0.50074   0.50207   0.50382
 Alpha virt. eigenvalues --    0.50725   0.51120   0.51285   0.51581   0.51888
 Alpha virt. eigenvalues --    0.52033   0.52810   0.53042   0.53063   0.53195
 Alpha virt. eigenvalues --    0.53402   0.53800   0.53984   0.54082   0.54570
 Alpha virt. eigenvalues --    0.54744   0.55008   0.55047   0.55497   0.55890
 Alpha virt. eigenvalues --    0.55980   0.56184   0.56860   0.57122   0.57229
 Alpha virt. eigenvalues --    0.57652   0.57921   0.58120   0.58353   0.58525
 Alpha virt. eigenvalues --    0.58679   0.58766   0.59174   0.59293   0.59545
 Alpha virt. eigenvalues --    0.59760   0.60060   0.60326   0.60451   0.60609
 Alpha virt. eigenvalues --    0.60959   0.61184   0.61431   0.61598   0.61888
 Alpha virt. eigenvalues --    0.62271   0.62419   0.62833   0.62939   0.63185
 Alpha virt. eigenvalues --    0.63552   0.63940   0.64022   0.64204   0.64525
 Alpha virt. eigenvalues --    0.64840   0.65309   0.65801   0.65982   0.66252
 Alpha virt. eigenvalues --    0.66389   0.66812   0.67016   0.67530   0.67590
 Alpha virt. eigenvalues --    0.67905   0.68203   0.68323   0.68588   0.68948
 Alpha virt. eigenvalues --    0.69157   0.69535   0.69696   0.69766   0.70425
 Alpha virt. eigenvalues --    0.70570   0.70827   0.71812   0.72211   0.72540
 Alpha virt. eigenvalues --    0.72697   0.72958   0.73156   0.73435   0.74033
 Alpha virt. eigenvalues --    0.74232   0.74484   0.75077   0.75217   0.76017
 Alpha virt. eigenvalues --    0.76188   0.76207   0.76411   0.76869   0.77179
 Alpha virt. eigenvalues --    0.77341   0.77574   0.77867   0.78446   0.78562
 Alpha virt. eigenvalues --    0.78864   0.79197   0.79539   0.79779   0.80133
 Alpha virt. eigenvalues --    0.80593   0.80958   0.81417   0.81791   0.82335
 Alpha virt. eigenvalues --    0.82696   0.82867   0.83109   0.83481   0.83702
 Alpha virt. eigenvalues --    0.84133   0.84258   0.84602   0.84788   0.85343
 Alpha virt. eigenvalues --    0.85672   0.86033   0.86217   0.86585   0.86861
 Alpha virt. eigenvalues --    0.87203   0.87442   0.87798   0.87860   0.88785
 Alpha virt. eigenvalues --    0.89237   0.89714   0.89939   0.90087   0.90138
 Alpha virt. eigenvalues --    0.90440   0.90634   0.91030   0.91275   0.91419
 Alpha virt. eigenvalues --    0.91753   0.92247   0.92576   0.92978   0.93058
 Alpha virt. eigenvalues --    0.93567   0.93999   0.94128   0.94413   0.94733
 Alpha virt. eigenvalues --    0.94884   0.95490   0.95689   0.95924   0.96183
 Alpha virt. eigenvalues --    0.96376   0.96943   0.97075   0.97373   0.97938
 Alpha virt. eigenvalues --    0.98008   0.98235   0.98981   0.99050   0.99531
 Alpha virt. eigenvalues --    0.99782   1.00049   1.00729   1.00821   1.01079
 Alpha virt. eigenvalues --    1.01623   1.01716   1.02345   1.02465   1.02856
 Alpha virt. eigenvalues --    1.03199   1.03544   1.04421   1.04461   1.04789
 Alpha virt. eigenvalues --    1.04971   1.05245   1.05505   1.06276   1.06485
 Alpha virt. eigenvalues --    1.06760   1.06906   1.07499   1.07663   1.08064
 Alpha virt. eigenvalues --    1.08666   1.08995   1.09324   1.09841   1.09926
 Alpha virt. eigenvalues --    1.10374   1.11151   1.11223   1.11838   1.12074
 Alpha virt. eigenvalues --    1.12457   1.12597   1.13305   1.13633   1.13996
 Alpha virt. eigenvalues --    1.14092   1.14268   1.14745   1.15178   1.15613
 Alpha virt. eigenvalues --    1.15951   1.16113   1.16787   1.17245   1.17670
 Alpha virt. eigenvalues --    1.18126   1.18210   1.19015   1.19680   1.20205
 Alpha virt. eigenvalues --    1.20390   1.20724   1.21315   1.21979   1.22115
 Alpha virt. eigenvalues --    1.22548   1.22716   1.23107   1.23235   1.23688
 Alpha virt. eigenvalues --    1.24154   1.24253   1.24967   1.25564   1.26045
 Alpha virt. eigenvalues --    1.26844   1.27090   1.27288   1.27545   1.28342
 Alpha virt. eigenvalues --    1.28705   1.29062   1.29213   1.29463   1.30376
 Alpha virt. eigenvalues --    1.30600   1.30955   1.31712   1.32129   1.32394
 Alpha virt. eigenvalues --    1.32862   1.33400   1.33477   1.34471   1.34731
 Alpha virt. eigenvalues --    1.35101   1.35179   1.35647   1.35779   1.36203
 Alpha virt. eigenvalues --    1.36461   1.36916   1.36969   1.37385   1.37754
 Alpha virt. eigenvalues --    1.38410   1.38557   1.38797   1.39051   1.39135
 Alpha virt. eigenvalues --    1.39536   1.39819   1.39976   1.40185   1.40620
 Alpha virt. eigenvalues --    1.41046   1.41237   1.41482   1.41832   1.42319
 Alpha virt. eigenvalues --    1.42476   1.43099   1.43548   1.43591   1.43907
 Alpha virt. eigenvalues --    1.44374   1.44525   1.45113   1.45502   1.45662
 Alpha virt. eigenvalues --    1.46197   1.46667   1.46764   1.46945   1.47353
 Alpha virt. eigenvalues --    1.47839   1.47954   1.48289   1.48546   1.48834
 Alpha virt. eigenvalues --    1.49186   1.49575   1.49604   1.49785   1.50397
 Alpha virt. eigenvalues --    1.50463   1.50870   1.51036   1.51274   1.51790
 Alpha virt. eigenvalues --    1.52039   1.52171   1.52315   1.52626   1.52873
 Alpha virt. eigenvalues --    1.53091   1.53757   1.53889   1.54113   1.54320
 Alpha virt. eigenvalues --    1.54702   1.55018   1.55247   1.55456   1.55874
 Alpha virt. eigenvalues --    1.56448   1.56861   1.56948   1.57248   1.57562
 Alpha virt. eigenvalues --    1.57957   1.58122   1.58947   1.59155   1.59499
 Alpha virt. eigenvalues --    1.59778   1.60018   1.60147   1.60735   1.61005
 Alpha virt. eigenvalues --    1.61476   1.61933   1.62314   1.62431   1.62607
 Alpha virt. eigenvalues --    1.63097   1.63420   1.63715   1.64082   1.64610
 Alpha virt. eigenvalues --    1.64712   1.65171   1.65365   1.65722   1.65789
 Alpha virt. eigenvalues --    1.66204   1.66662   1.66983   1.67287   1.67327
 Alpha virt. eigenvalues --    1.67934   1.68534   1.68748   1.69084   1.69460
 Alpha virt. eigenvalues --    1.70225   1.70750   1.71078   1.71359   1.71865
 Alpha virt. eigenvalues --    1.72109   1.72165   1.72691   1.73018   1.73444
 Alpha virt. eigenvalues --    1.73462   1.73789   1.74601   1.74826   1.74956
 Alpha virt. eigenvalues --    1.75393   1.75500   1.75812   1.76218   1.76381
 Alpha virt. eigenvalues --    1.77305   1.77388   1.77715   1.77877   1.78706
 Alpha virt. eigenvalues --    1.78871   1.79351   1.79885   1.80171   1.80615
 Alpha virt. eigenvalues --    1.80829   1.81305   1.81710   1.82159   1.82783
 Alpha virt. eigenvalues --    1.83190   1.83705   1.84040   1.84468   1.85138
 Alpha virt. eigenvalues --    1.85262   1.85508   1.85873   1.85956   1.86641
 Alpha virt. eigenvalues --    1.86833   1.87129   1.87846   1.88089   1.88273
 Alpha virt. eigenvalues --    1.88660   1.88791   1.88933   1.89734   1.89913
 Alpha virt. eigenvalues --    1.90179   1.90549   1.91053   1.91458   1.91976
 Alpha virt. eigenvalues --    1.92041   1.92446   1.92786   1.93540   1.93811
 Alpha virt. eigenvalues --    1.94652   1.94876   1.95305   1.95528   1.96161
 Alpha virt. eigenvalues --    1.96659   1.97304   1.97577   1.97944   1.98099
 Alpha virt. eigenvalues --    1.98246   1.99099   1.99719   1.99962   2.00179
 Alpha virt. eigenvalues --    2.00609   2.00825   2.01340   2.01572   2.02168
 Alpha virt. eigenvalues --    2.02801   2.02951   2.03138   2.03867   2.04104
 Alpha virt. eigenvalues --    2.04289   2.04697   2.05215   2.05547   2.05798
 Alpha virt. eigenvalues --    2.06057   2.06772   2.07042   2.07828   2.07869
 Alpha virt. eigenvalues --    2.08139   2.08516   2.08760   2.09576   2.09618
 Alpha virt. eigenvalues --    2.09838   2.10273   2.10490   2.10969   2.11604
 Alpha virt. eigenvalues --    2.11635   2.12038   2.12667   2.13142   2.14241
 Alpha virt. eigenvalues --    2.14328   2.14765   2.14883   2.15702   2.15906
 Alpha virt. eigenvalues --    2.16485   2.17213   2.17453   2.18324   2.18673
 Alpha virt. eigenvalues --    2.18725   2.19962   2.20102   2.20278   2.20654
 Alpha virt. eigenvalues --    2.21645   2.22050   2.22550   2.22767   2.23505
 Alpha virt. eigenvalues --    2.23573   2.24028   2.24573   2.24968   2.25210
 Alpha virt. eigenvalues --    2.25671   2.25747   2.25965   2.26340   2.26642
 Alpha virt. eigenvalues --    2.26846   2.27359   2.28133   2.28762   2.29523
 Alpha virt. eigenvalues --    2.29766   2.30046   2.30292   2.30506   2.30848
 Alpha virt. eigenvalues --    2.31040   2.31509   2.31696   2.32241   2.32845
 Alpha virt. eigenvalues --    2.33201   2.33772   2.33995   2.34219   2.34527
 Alpha virt. eigenvalues --    2.35215   2.35683   2.35808   2.36330   2.36575
 Alpha virt. eigenvalues --    2.37622   2.37710   2.38280   2.38607   2.38732
 Alpha virt. eigenvalues --    2.39317   2.40117   2.40398   2.40923   2.41662
 Alpha virt. eigenvalues --    2.41995   2.42134   2.42646   2.43207   2.43445
 Alpha virt. eigenvalues --    2.43852   2.44386   2.44601   2.44896   2.45514
 Alpha virt. eigenvalues --    2.45585   2.45765   2.46092   2.46637   2.47081
 Alpha virt. eigenvalues --    2.47711   2.47784   2.48231   2.48348   2.48720
 Alpha virt. eigenvalues --    2.48995   2.49189   2.49590   2.49827   2.49899
 Alpha virt. eigenvalues --    2.50330   2.50844   2.51369   2.51426   2.51668
 Alpha virt. eigenvalues --    2.52479   2.52814   2.53055   2.53452   2.53750
 Alpha virt. eigenvalues --    2.54347   2.54896   2.55147   2.55240   2.55481
 Alpha virt. eigenvalues --    2.55689   2.55982   2.56707   2.56751   2.57215
 Alpha virt. eigenvalues --    2.57549   2.57868   2.58199   2.58721   2.58951
 Alpha virt. eigenvalues --    2.59376   2.59912   2.60293   2.60397   2.61108
 Alpha virt. eigenvalues --    2.61274   2.61729   2.62465   2.62854   2.63084
 Alpha virt. eigenvalues --    2.63366   2.63751   2.63973   2.64576   2.64794
 Alpha virt. eigenvalues --    2.64997   2.65689   2.65845   2.66064   2.66769
 Alpha virt. eigenvalues --    2.67016   2.67440   2.67563   2.67714   2.67763
 Alpha virt. eigenvalues --    2.68378   2.68905   2.69530   2.69684   2.69960
 Alpha virt. eigenvalues --    2.70079   2.70661   2.71020   2.71167   2.72052
 Alpha virt. eigenvalues --    2.72386   2.72563   2.72749   2.73034   2.73740
 Alpha virt. eigenvalues --    2.73922   2.74183   2.74793   2.75117   2.75492
 Alpha virt. eigenvalues --    2.75795   2.76076   2.76326   2.76556   2.76865
 Alpha virt. eigenvalues --    2.77428   2.78022   2.78328   2.78421   2.78670
 Alpha virt. eigenvalues --    2.78834   2.79141   2.79887   2.80265   2.81047
 Alpha virt. eigenvalues --    2.81114   2.81848   2.82350   2.82585   2.82868
 Alpha virt. eigenvalues --    2.83043   2.83296   2.83601   2.84169   2.84373
 Alpha virt. eigenvalues --    2.85000   2.85126   2.85416   2.85811   2.86281
 Alpha virt. eigenvalues --    2.86425   2.86650   2.87053   2.87208   2.87406
 Alpha virt. eigenvalues --    2.88119   2.88213   2.88495   2.88926   2.89007
 Alpha virt. eigenvalues --    2.89285   2.89836   2.90078   2.90143   2.90468
 Alpha virt. eigenvalues --    2.90964   2.91204   2.91421   2.91493   2.92154
 Alpha virt. eigenvalues --    2.92500   2.92581   2.92911   2.93030   2.93307
 Alpha virt. eigenvalues --    2.93419   2.93825   2.94261   2.94777   2.94918
 Alpha virt. eigenvalues --    2.95322   2.95557   2.96087   2.96634   2.96970
 Alpha virt. eigenvalues --    2.97268   2.97563   2.97659   2.98078   2.98320
 Alpha virt. eigenvalues --    2.98599   2.99094   2.99393   2.99736   2.99839
 Alpha virt. eigenvalues --    3.00110   3.00417   3.01007   3.01199   3.01330
 Alpha virt. eigenvalues --    3.01728   3.02030   3.02392   3.02525   3.03111
 Alpha virt. eigenvalues --    3.03249   3.03503   3.03733   3.04144   3.04579
 Alpha virt. eigenvalues --    3.04711   3.05088   3.05409   3.05716   3.05808
 Alpha virt. eigenvalues --    3.06134   3.06546   3.06831   3.07163   3.07436
 Alpha virt. eigenvalues --    3.07831   3.07964   3.08319   3.08665   3.09066
 Alpha virt. eigenvalues --    3.09235   3.09547   3.10228   3.10720   3.11414
 Alpha virt. eigenvalues --    3.11593   3.11754   3.11887   3.12393   3.12476
 Alpha virt. eigenvalues --    3.12928   3.13404   3.13643   3.14237   3.14457
 Alpha virt. eigenvalues --    3.14766   3.15021   3.15352   3.15776   3.16032
 Alpha virt. eigenvalues --    3.16241   3.16651   3.16720   3.17010   3.17390
 Alpha virt. eigenvalues --    3.17628   3.17900   3.18112   3.18313   3.18516
 Alpha virt. eigenvalues --    3.18832   3.19613   3.19646   3.20017   3.20238
 Alpha virt. eigenvalues --    3.20471   3.20806   3.21206   3.21513   3.21578
 Alpha virt. eigenvalues --    3.21775   3.22061   3.22365   3.22406   3.22571
 Alpha virt. eigenvalues --    3.22969   3.23379   3.23892   3.24144   3.24153
 Alpha virt. eigenvalues --    3.24475   3.24771   3.24852   3.25103   3.25442
 Alpha virt. eigenvalues --    3.25511   3.25901   3.26216   3.26381   3.26535
 Alpha virt. eigenvalues --    3.26732   3.27040   3.27306   3.27520   3.27941
 Alpha virt. eigenvalues --    3.28003   3.28436   3.28749   3.29126   3.29530
 Alpha virt. eigenvalues --    3.29624   3.29967   3.30352   3.30863   3.31041
 Alpha virt. eigenvalues --    3.31474   3.31615   3.31975   3.32303   3.32494
 Alpha virt. eigenvalues --    3.32747   3.33100   3.33201   3.33573   3.33995
 Alpha virt. eigenvalues --    3.34568   3.34630   3.35287   3.35707   3.35785
 Alpha virt. eigenvalues --    3.36333   3.36996   3.37185   3.37381   3.37741
 Alpha virt. eigenvalues --    3.37873   3.38606   3.39180   3.39373   3.39517
 Alpha virt. eigenvalues --    3.40048   3.40188   3.40408   3.41005   3.41159
 Alpha virt. eigenvalues --    3.41542   3.41974   3.42431   3.42640   3.42722
 Alpha virt. eigenvalues --    3.43042   3.43378   3.43998   3.44305   3.44827
 Alpha virt. eigenvalues --    3.44984   3.45176   3.45428   3.46550   3.46850
 Alpha virt. eigenvalues --    3.46908   3.47412   3.47491   3.47968   3.48039
 Alpha virt. eigenvalues --    3.48266   3.48732   3.49254   3.49839   3.50448
 Alpha virt. eigenvalues --    3.50601   3.50989   3.51071   3.51720   3.52073
 Alpha virt. eigenvalues --    3.52535   3.53027   3.53569   3.53953   3.54023
 Alpha virt. eigenvalues --    3.54669   3.55275   3.55655   3.55711   3.56315
 Alpha virt. eigenvalues --    3.56465   3.56845   3.57128   3.57285   3.57319
 Alpha virt. eigenvalues --    3.57927   3.58327   3.58973   3.59251   3.59681
 Alpha virt. eigenvalues --    3.59933   3.60350   3.60620   3.61234   3.61543
 Alpha virt. eigenvalues --    3.61730   3.62354   3.62539   3.63096   3.63381
 Alpha virt. eigenvalues --    3.63501   3.63834   3.64211   3.64779   3.65156
 Alpha virt. eigenvalues --    3.65603   3.66130   3.66642   3.67222   3.67333
 Alpha virt. eigenvalues --    3.67425   3.67656   3.67938   3.68602   3.69111
 Alpha virt. eigenvalues --    3.69758   3.70178   3.70867   3.70983   3.71616
 Alpha virt. eigenvalues --    3.72183   3.72759   3.73268   3.73743   3.74102
 Alpha virt. eigenvalues --    3.74671   3.75192   3.75561   3.75728   3.76863
 Alpha virt. eigenvalues --    3.77482   3.77807   3.78451   3.78877   3.78953
 Alpha virt. eigenvalues --    3.79490   3.79926   3.80454   3.80816   3.81429
 Alpha virt. eigenvalues --    3.81803   3.82954   3.83071   3.84382   3.84418
 Alpha virt. eigenvalues --    3.85563   3.85812   3.86044   3.86385   3.87050
 Alpha virt. eigenvalues --    3.87963   3.88667   3.88870   3.89480   3.89963
 Alpha virt. eigenvalues --    3.90799   3.91178   3.91782   3.92007   3.92571
 Alpha virt. eigenvalues --    3.92994   3.93373   3.94410   3.94786   3.94888
 Alpha virt. eigenvalues --    3.95489   3.95743   3.96342   3.96887   3.97619
 Alpha virt. eigenvalues --    3.98419   3.98541   3.99560   3.99735   3.99953
 Alpha virt. eigenvalues --    4.00029   4.00614   4.01398   4.02383   4.02756
 Alpha virt. eigenvalues --    4.03286   4.03443   4.04264   4.04683   4.05329
 Alpha virt. eigenvalues --    4.05703   4.06813   4.06916   4.07141   4.08059
 Alpha virt. eigenvalues --    4.08601   4.08964   4.09205   4.09542   4.10362
 Alpha virt. eigenvalues --    4.10677   4.11398   4.11603   4.12227   4.12340
 Alpha virt. eigenvalues --    4.13006   4.13734   4.14370   4.14600   4.14960
 Alpha virt. eigenvalues --    4.15859   4.16460   4.16674   4.17016   4.17419
 Alpha virt. eigenvalues --    4.17709   4.18048   4.18999   4.19410   4.19664
 Alpha virt. eigenvalues --    4.20237   4.21160   4.21468   4.21786   4.22391
 Alpha virt. eigenvalues --    4.23110   4.23286   4.24054   4.24788   4.25531
 Alpha virt. eigenvalues --    4.25737   4.26468   4.26505   4.28261   4.28585
 Alpha virt. eigenvalues --    4.29079   4.29426   4.29970   4.31316   4.32211
 Alpha virt. eigenvalues --    4.32512   4.33534   4.34072   4.34498   4.35048
 Alpha virt. eigenvalues --    4.35756   4.36526   4.36946   4.37532   4.38325
 Alpha virt. eigenvalues --    4.38968   4.39216   4.41116   4.41700   4.42393
 Alpha virt. eigenvalues --    4.42646   4.43768   4.44088   4.44652   4.45822
 Alpha virt. eigenvalues --    4.46266   4.47019   4.47615   4.48502   4.49072
 Alpha virt. eigenvalues --    4.50462   4.50853   4.50961   4.51416   4.51939
 Alpha virt. eigenvalues --    4.53208   4.53943   4.54407   4.55540   4.56105
 Alpha virt. eigenvalues --    4.57031   4.58102   4.58206   4.58985   4.59971
 Alpha virt. eigenvalues --    4.60806   4.61192   4.62564   4.62934   4.63708
 Alpha virt. eigenvalues --    4.64290   4.64764   4.65215   4.66733   4.67859
 Alpha virt. eigenvalues --    4.68032   4.68715   4.69285   4.69672   4.70358
 Alpha virt. eigenvalues --    4.70871   4.71316   4.72023   4.72761   4.73199
 Alpha virt. eigenvalues --    4.74015   4.74351   4.74395   4.75168   4.76754
 Alpha virt. eigenvalues --    4.77980   4.79173   4.80167   4.80735   4.81163
 Alpha virt. eigenvalues --    4.81643   4.81985   4.83568   4.83991   4.84413
 Alpha virt. eigenvalues --    4.85413   4.86526   4.87345   4.87741   4.88546
 Alpha virt. eigenvalues --    4.89088   4.89801   4.90169   4.90599   4.92447
 Alpha virt. eigenvalues --    4.93692   4.95140   4.95942   4.96029   4.96732
 Alpha virt. eigenvalues --    4.98595   4.98785   4.99871   5.00257   5.00821
 Alpha virt. eigenvalues --    5.01363   5.02198   5.03112   5.03782   5.04633
 Alpha virt. eigenvalues --    5.05260   5.06161   5.08432   5.08692   5.09391
 Alpha virt. eigenvalues --    5.10470   5.10767   5.10953   5.11103   5.11170
 Alpha virt. eigenvalues --    5.12184   5.13876   5.14179   5.14876   5.16026
 Alpha virt. eigenvalues --    5.16297   5.17326   5.17668   5.18099   5.18451
 Alpha virt. eigenvalues --    5.18891   5.19721   5.21014   5.21340   5.22843
 Alpha virt. eigenvalues --    5.24205   5.26781   5.27180   5.28351   5.28630
 Alpha virt. eigenvalues --    5.29662   5.29918   5.30332   5.31731   5.32393
 Alpha virt. eigenvalues --    5.33167   5.34350   5.34456   5.35206   5.35801
 Alpha virt. eigenvalues --    5.36450   5.39579   5.39810   5.40800   5.41143
 Alpha virt. eigenvalues --    5.42001   5.42348   5.44771   5.45381   5.46545
 Alpha virt. eigenvalues --    5.47873   5.48520   5.49338   5.50998   5.51906
 Alpha virt. eigenvalues --    5.52187   5.52512   5.54403   5.54850   5.56218
 Alpha virt. eigenvalues --    5.57375   5.58654   5.59125   5.60175   5.61928
 Alpha virt. eigenvalues --    5.62954   5.63369   5.64091   5.65036   5.66579
 Alpha virt. eigenvalues --    5.69155   5.69915   5.72165   5.74801   5.75517
 Alpha virt. eigenvalues --    5.78362   5.78754   5.79137   5.79542   5.81867
 Alpha virt. eigenvalues --    5.86140   5.88603   5.91705   5.92573   5.93302
 Alpha virt. eigenvalues --    5.94474   5.98880   6.03002   6.04198   6.04296
 Alpha virt. eigenvalues --    6.05089   6.05585   6.05962   6.08706   6.14741
 Alpha virt. eigenvalues --    6.15438   6.16856   6.17862   6.19130   6.27146
 Alpha virt. eigenvalues --    6.27454   6.28664   6.31869   6.32010   6.34301
 Alpha virt. eigenvalues --    6.34723   6.37908   6.38207   6.39856   6.41532
 Alpha virt. eigenvalues --    6.41642   6.45814   6.47475   6.48118   6.52847
 Alpha virt. eigenvalues --    6.58897   6.61306   6.61508   6.72095   6.75785
 Alpha virt. eigenvalues --    6.78768   6.80409   6.91434   6.92179   6.96549
 Alpha virt. eigenvalues --    6.97871   7.01580   7.03121   7.06419   7.11046
 Alpha virt. eigenvalues --    7.13846   7.14833   7.22380   7.26082  22.25852
 Alpha virt. eigenvalues --   22.26484  22.32945  22.42606  22.44065  22.44873
 Alpha virt. eigenvalues --   22.53095  22.57629  22.58950  22.61103  22.63042
 Alpha virt. eigenvalues --   22.70864  22.74317  22.86226  22.87818  22.91201
 Alpha virt. eigenvalues --   22.92000  22.97477  22.98265  23.01074  23.02106
 Alpha virt. eigenvalues --   23.08065  23.09636  23.23694  23.29924  23.35083
 Alpha virt. eigenvalues --   23.36727  23.38437  23.46395  23.49143  23.50128
 Alpha virt. eigenvalues --   23.62005  23.67834  23.73295  23.85355  23.88295
 Alpha virt. eigenvalues --   23.98048  32.36009  32.61592  32.89669  32.93283
 Alpha virt. eigenvalues --   32.96283  33.06777  43.87629  43.90741  43.92488
 Alpha virt. eigenvalues --   43.93516  44.09481
  Beta  occ. eigenvalues -- -256.53303 -30.29652 -26.12736 -26.12518 -26.11743
  Beta  occ. eigenvalues --  -19.36115 -19.31945 -19.31642 -19.23688 -19.23591
  Beta  occ. eigenvalues --  -14.57591 -14.53274 -14.49495 -14.48829 -14.48807
  Beta  occ. eigenvalues --  -14.48679 -10.41140 -10.40772 -10.40587 -10.37601
  Beta  occ. eigenvalues --  -10.37105 -10.36088 -10.35934 -10.35666 -10.35247
  Beta  occ. eigenvalues --  -10.35241 -10.35216 -10.35194 -10.35135 -10.35104
  Beta  occ. eigenvalues --  -10.33172 -10.33024 -10.32985 -10.32942 -10.32892
  Beta  occ. eigenvalues --  -10.32824 -10.32824 -10.32607 -10.32566 -10.32452
  Beta  occ. eigenvalues --  -10.32434 -10.32347 -10.32178 -10.32083 -10.31494
  Beta  occ. eigenvalues --  -10.31478 -10.31155 -10.31089 -10.30777 -10.30656
  Beta  occ. eigenvalues --  -10.30619 -10.30084 -10.28957  -3.62139  -2.37676
  Beta  occ. eigenvalues --   -2.37490  -2.36488  -1.24085  -1.24008  -1.22898
  Beta  occ. eigenvalues --   -1.20116  -1.12257  -1.11500  -1.11135  -1.10381
  Beta  occ. eigenvalues --   -1.09478  -1.08917  -1.06959  -0.95581  -0.95278
  Beta  occ. eigenvalues --   -0.93630  -0.93410  -0.93166  -0.92714  -0.92535
  Beta  occ. eigenvalues --   -0.91637  -0.89774  -0.88484  -0.88277  -0.86517
  Beta  occ. eigenvalues --   -0.86232  -0.84018  -0.83979  -0.82505  -0.81867
  Beta  occ. eigenvalues --   -0.80898  -0.79747  -0.78297  -0.78018  -0.77245
  Beta  occ. eigenvalues --   -0.76885  -0.76592  -0.74046  -0.73490  -0.73083
  Beta  occ. eigenvalues --   -0.72590  -0.72205  -0.71886  -0.70202  -0.69908
  Beta  occ. eigenvalues --   -0.67560  -0.66569  -0.65744  -0.64883  -0.63852
  Beta  occ. eigenvalues --   -0.63528  -0.63078  -0.61794  -0.60993  -0.60832
  Beta  occ. eigenvalues --   -0.60618  -0.60279  -0.59800  -0.59567  -0.59415
  Beta  occ. eigenvalues --   -0.58803  -0.58586  -0.58347  -0.58182  -0.57519
  Beta  occ. eigenvalues --   -0.57260  -0.56856  -0.56212  -0.55953  -0.55674
  Beta  occ. eigenvalues --   -0.55419  -0.55069  -0.54555  -0.54293  -0.54015
  Beta  occ. eigenvalues --   -0.53447  -0.53381  -0.53191  -0.53062  -0.52361
  Beta  occ. eigenvalues --   -0.52111  -0.51914  -0.51672  -0.51449  -0.50987
  Beta  occ. eigenvalues --   -0.50812  -0.50713  -0.50237  -0.50039  -0.49388
  Beta  occ. eigenvalues --   -0.49120  -0.48952  -0.48454  -0.48331  -0.48051
  Beta  occ. eigenvalues --   -0.47662  -0.47177  -0.47114  -0.46700  -0.46636
  Beta  occ. eigenvalues --   -0.46133  -0.45631  -0.45516  -0.45244  -0.44250
  Beta  occ. eigenvalues --   -0.43861  -0.43088  -0.42756  -0.42466  -0.41820
  Beta  occ. eigenvalues --   -0.41509  -0.41267  -0.40505  -0.39609  -0.39374
  Beta  occ. eigenvalues --   -0.39147  -0.38912  -0.38084  -0.37306  -0.35162
  Beta  occ. eigenvalues --   -0.34363  -0.34145  -0.33568  -0.33227  -0.31925
  Beta  occ. eigenvalues --   -0.30719  -0.30049  -0.29281
  Beta virt. eigenvalues --   -0.20625  -0.18968  -0.17842  -0.16221  -0.14365
  Beta virt. eigenvalues --   -0.14140  -0.10723  -0.10286  -0.09705  -0.08613
  Beta virt. eigenvalues --   -0.07915  -0.07396  -0.06879  -0.06624  -0.06350
  Beta virt. eigenvalues --   -0.04599  -0.04355  -0.04272  -0.04089  -0.03421
  Beta virt. eigenvalues --   -0.03306  -0.02398  -0.01869  -0.01772  -0.01498
  Beta virt. eigenvalues --   -0.01186  -0.01066  -0.00953  -0.00747  -0.00443
  Beta virt. eigenvalues --    0.00058   0.00319   0.00461   0.00623   0.01100
  Beta virt. eigenvalues --    0.01823   0.02258   0.02701   0.02886   0.03149
  Beta virt. eigenvalues --    0.03341   0.03700   0.03979   0.04234   0.04637
  Beta virt. eigenvalues --    0.04725   0.04898   0.05099   0.05315   0.05520
  Beta virt. eigenvalues --    0.05784   0.06407   0.06552   0.06800   0.06933
  Beta virt. eigenvalues --    0.07139   0.07187   0.07799   0.07944   0.08070
  Beta virt. eigenvalues --    0.08132   0.08520   0.08798   0.08920   0.09104
  Beta virt. eigenvalues --    0.09267   0.09565   0.09587   0.09918   0.10207
  Beta virt. eigenvalues --    0.10521   0.10723   0.11028   0.11217   0.11443
  Beta virt. eigenvalues --    0.11850   0.11960   0.12317   0.12402   0.12695
  Beta virt. eigenvalues --    0.12984   0.13117   0.13397   0.13480   0.13704
  Beta virt. eigenvalues --    0.13791   0.14044   0.14249   0.14286   0.14583
  Beta virt. eigenvalues --    0.14995   0.15122   0.15449   0.15565   0.15780
  Beta virt. eigenvalues --    0.15995   0.16190   0.16358   0.16733   0.16962
  Beta virt. eigenvalues --    0.17250   0.17320   0.17628   0.17664   0.17886
  Beta virt. eigenvalues --    0.18095   0.18445   0.18664   0.18956   0.19186
  Beta virt. eigenvalues --    0.19470   0.19857   0.20112   0.20442   0.20476
  Beta virt. eigenvalues --    0.20666   0.20939   0.21185   0.21350   0.21521
  Beta virt. eigenvalues --    0.21708   0.22102   0.22406   0.22690   0.23077
  Beta virt. eigenvalues --    0.23226   0.23433   0.23664   0.23922   0.24346
  Beta virt. eigenvalues --    0.24415   0.24812   0.25016   0.25244   0.25345
  Beta virt. eigenvalues --    0.25601   0.25807   0.26337   0.26437   0.26891
  Beta virt. eigenvalues --    0.26948   0.27490   0.27658   0.28005   0.28087
  Beta virt. eigenvalues --    0.28270   0.28615   0.28939   0.29112   0.29283
  Beta virt. eigenvalues --    0.29597   0.29737   0.29845   0.30032   0.30146
  Beta virt. eigenvalues --    0.30253   0.30569   0.30677   0.30749   0.31059
  Beta virt. eigenvalues --    0.31524   0.31688   0.31841   0.31881   0.32110
  Beta virt. eigenvalues --    0.32301   0.32473   0.32698   0.32912   0.33205
  Beta virt. eigenvalues --    0.33329   0.33622   0.33952   0.34094   0.34415
  Beta virt. eigenvalues --    0.34546   0.34799   0.35052   0.35407   0.35482
  Beta virt. eigenvalues --    0.35821   0.35982   0.36509   0.36739   0.36968
  Beta virt. eigenvalues --    0.37035   0.37103   0.37338   0.37719   0.38144
  Beta virt. eigenvalues --    0.38210   0.38297   0.38355   0.38686   0.38895
  Beta virt. eigenvalues --    0.39128   0.39362   0.39438   0.39610   0.39782
  Beta virt. eigenvalues --    0.39813   0.40078   0.40322   0.40502   0.40655
  Beta virt. eigenvalues --    0.40837   0.40947   0.41203   0.41267   0.41651
  Beta virt. eigenvalues --    0.41845   0.41896   0.42199   0.42246   0.42597
  Beta virt. eigenvalues --    0.42973   0.43261   0.43382   0.43551   0.43855
  Beta virt. eigenvalues --    0.43904   0.44154   0.44412   0.44495   0.44740
  Beta virt. eigenvalues --    0.44938   0.45196   0.45375   0.45502   0.45645
  Beta virt. eigenvalues --    0.45820   0.46043   0.46450   0.46893   0.47065
  Beta virt. eigenvalues --    0.47233   0.47280   0.47572   0.47910   0.48201
  Beta virt. eigenvalues --    0.48375   0.48406   0.48679   0.48851   0.49050
  Beta virt. eigenvalues --    0.49253   0.49679   0.49853   0.50082   0.50223
  Beta virt. eigenvalues --    0.50465   0.50731   0.51121   0.51344   0.51594
  Beta virt. eigenvalues --    0.51901   0.52043   0.52832   0.53085   0.53106
  Beta virt. eigenvalues --    0.53228   0.53445   0.53805   0.53993   0.54087
  Beta virt. eigenvalues --    0.54590   0.54764   0.55018   0.55080   0.55501
  Beta virt. eigenvalues --    0.55897   0.56005   0.56193   0.56989   0.57146
  Beta virt. eigenvalues --    0.57263   0.57657   0.57953   0.58145   0.58370
  Beta virt. eigenvalues --    0.58550   0.58714   0.58800   0.59190   0.59326
  Beta virt. eigenvalues --    0.59549   0.59781   0.60107   0.60345   0.60457
  Beta virt. eigenvalues --    0.60636   0.60983   0.61206   0.61468   0.61605
  Beta virt. eigenvalues --    0.61898   0.62293   0.62442   0.62874   0.62994
  Beta virt. eigenvalues --    0.63227   0.63564   0.63943   0.64072   0.64232
  Beta virt. eigenvalues --    0.64539   0.64867   0.65315   0.65816   0.66004
  Beta virt. eigenvalues --    0.66261   0.66395   0.66844   0.67026   0.67549
  Beta virt. eigenvalues --    0.67625   0.67927   0.68238   0.68388   0.68621
  Beta virt. eigenvalues --    0.68963   0.69182   0.69590   0.69703   0.69840
  Beta virt. eigenvalues --    0.70437   0.70641   0.70845   0.71856   0.72226
  Beta virt. eigenvalues --    0.72576   0.72730   0.72992   0.73191   0.73452
  Beta virt. eigenvalues --    0.74051   0.74288   0.74523   0.75090   0.75236
  Beta virt. eigenvalues --    0.76039   0.76199   0.76265   0.76434   0.76879
  Beta virt. eigenvalues --    0.77212   0.77344   0.77628   0.77906   0.78464
  Beta virt. eigenvalues --    0.78589   0.78882   0.79227   0.79577   0.79816
  Beta virt. eigenvalues --    0.80228   0.80608   0.80983   0.81449   0.81831
  Beta virt. eigenvalues --    0.82348   0.82730   0.82884   0.83119   0.83500
  Beta virt. eigenvalues --    0.83721   0.84151   0.84303   0.84606   0.84807
  Beta virt. eigenvalues --    0.85371   0.85696   0.86051   0.86243   0.86612
  Beta virt. eigenvalues --    0.86885   0.87231   0.87459   0.87832   0.87891
  Beta virt. eigenvalues --    0.88876   0.89257   0.89740   0.89948   0.90128
  Beta virt. eigenvalues --    0.90156   0.90463   0.90670   0.91046   0.91302
  Beta virt. eigenvalues --    0.91505   0.91798   0.92384   0.92602   0.93025
  Beta virt. eigenvalues --    0.93106   0.93625   0.94070   0.94214   0.94440
  Beta virt. eigenvalues --    0.94751   0.94931   0.95538   0.95706   0.96000
  Beta virt. eigenvalues --    0.96235   0.96413   0.96966   0.97113   0.97422
  Beta virt. eigenvalues --    0.98029   0.98110   0.98288   0.99040   0.99106
  Beta virt. eigenvalues --    0.99547   0.99960   1.00122   1.00745   1.00853
  Beta virt. eigenvalues --    1.01090   1.01736   1.01808   1.02377   1.02503
  Beta virt. eigenvalues --    1.02870   1.03248   1.03619   1.04446   1.04523
  Beta virt. eigenvalues --    1.04867   1.04980   1.05318   1.05561   1.06324
  Beta virt. eigenvalues --    1.06508   1.06789   1.06947   1.07529   1.07674
  Beta virt. eigenvalues --    1.08211   1.08710   1.09040   1.09385   1.09880
  Beta virt. eigenvalues --    1.09959   1.10465   1.11202   1.11228   1.11841
  Beta virt. eigenvalues --    1.12128   1.12477   1.12636   1.13340   1.13638
  Beta virt. eigenvalues --    1.14031   1.14139   1.14427   1.14767   1.15156
  Beta virt. eigenvalues --    1.15728   1.16026   1.16140   1.16837   1.17238
  Beta virt. eigenvalues --    1.17696   1.18145   1.18259   1.19052   1.19708
  Beta virt. eigenvalues --    1.20248   1.20462   1.20761   1.21326   1.22010
  Beta virt. eigenvalues --    1.22137   1.22569   1.22761   1.23123   1.23268
  Beta virt. eigenvalues --    1.23710   1.24152   1.24291   1.25025   1.25606
  Beta virt. eigenvalues --    1.26064   1.26878   1.27141   1.27302   1.27571
  Beta virt. eigenvalues --    1.28371   1.28770   1.29099   1.29266   1.29480
  Beta virt. eigenvalues --    1.30393   1.30605   1.30965   1.31732   1.32157
  Beta virt. eigenvalues --    1.32411   1.32892   1.33455   1.33498   1.34488
  Beta virt. eigenvalues --    1.34743   1.35137   1.35192   1.35724   1.35811
  Beta virt. eigenvalues --    1.36218   1.36489   1.36943   1.36994   1.37420
  Beta virt. eigenvalues --    1.37772   1.38423   1.38607   1.38838   1.39064
  Beta virt. eigenvalues --    1.39196   1.39547   1.39876   1.40004   1.40226
  Beta virt. eigenvalues --    1.40646   1.41070   1.41273   1.41534   1.41860
  Beta virt. eigenvalues --    1.42352   1.42494   1.43120   1.43565   1.43614
  Beta virt. eigenvalues --    1.43924   1.44393   1.44551   1.45145   1.45524
  Beta virt. eigenvalues --    1.45708   1.46214   1.46687   1.46778   1.46974
  Beta virt. eigenvalues --    1.47365   1.47875   1.47972   1.48339   1.48574
  Beta virt. eigenvalues --    1.48857   1.49192   1.49594   1.49637   1.49789
  Beta virt. eigenvalues --    1.50409   1.50471   1.50887   1.51045   1.51296
  Beta virt. eigenvalues --    1.51810   1.52054   1.52184   1.52323   1.52631
  Beta virt. eigenvalues --    1.52885   1.53097   1.53756   1.53898   1.54132
  Beta virt. eigenvalues --    1.54338   1.54720   1.55045   1.55262   1.55466
  Beta virt. eigenvalues --    1.55876   1.56455   1.56886   1.56982   1.57275
  Beta virt. eigenvalues --    1.57569   1.57965   1.58142   1.58958   1.59170
  Beta virt. eigenvalues --    1.59510   1.59781   1.60026   1.60172   1.60752
  Beta virt. eigenvalues --    1.61008   1.61491   1.61944   1.62319   1.62445
  Beta virt. eigenvalues --    1.62621   1.63119   1.63429   1.63725   1.64097
  Beta virt. eigenvalues --    1.64625   1.64719   1.65187   1.65377   1.65728
  Beta virt. eigenvalues --    1.65803   1.66212   1.66672   1.66990   1.67295
  Beta virt. eigenvalues --    1.67337   1.67946   1.68545   1.68766   1.69097
  Beta virt. eigenvalues --    1.69501   1.70237   1.70759   1.71084   1.71382
  Beta virt. eigenvalues --    1.71891   1.72145   1.72182   1.72735   1.73035
  Beta virt. eigenvalues --    1.73455   1.73479   1.73821   1.74612   1.74841
  Beta virt. eigenvalues --    1.74979   1.75422   1.75527   1.75845   1.76259
  Beta virt. eigenvalues --    1.76404   1.77320   1.77397   1.77723   1.77892
  Beta virt. eigenvalues --    1.78734   1.78915   1.79365   1.79892   1.80201
  Beta virt. eigenvalues --    1.80638   1.80855   1.81319   1.81728   1.82226
  Beta virt. eigenvalues --    1.82809   1.83200   1.83714   1.84050   1.84528
  Beta virt. eigenvalues --    1.85216   1.85300   1.85530   1.85895   1.85978
  Beta virt. eigenvalues --    1.86648   1.86865   1.87143   1.87875   1.88103
  Beta virt. eigenvalues --    1.88295   1.88679   1.88814   1.88947   1.89800
  Beta virt. eigenvalues --    1.89932   1.90225   1.90566   1.91062   1.91515
  Beta virt. eigenvalues --    1.91967   1.92087   1.92475   1.92797   1.93556
  Beta virt. eigenvalues --    1.93821   1.94689   1.94891   1.95334   1.95592
  Beta virt. eigenvalues --    1.96192   1.96701   1.97315   1.97591   1.97990
  Beta virt. eigenvalues --    1.98162   1.98286   1.99153   1.99738   1.99995
  Beta virt. eigenvalues --    2.00200   2.00641   2.00843   2.01368   2.01596
  Beta virt. eigenvalues --    2.02199   2.02816   2.02959   2.03160   2.03886
  Beta virt. eigenvalues --    2.04123   2.04311   2.04711   2.05245   2.05589
  Beta virt. eigenvalues --    2.05818   2.06079   2.06790   2.07075   2.07860
  Beta virt. eigenvalues --    2.07881   2.08155   2.08530   2.08769   2.09589
  Beta virt. eigenvalues --    2.09652   2.09904   2.10282   2.10497   2.11001
  Beta virt. eigenvalues --    2.11640   2.11664   2.12062   2.12679   2.13159
  Beta virt. eigenvalues --    2.14271   2.14346   2.14795   2.14900   2.15726
  Beta virt. eigenvalues --    2.15921   2.16509   2.17233   2.17458   2.18333
  Beta virt. eigenvalues --    2.18691   2.18773   2.20021   2.20122   2.20289
  Beta virt. eigenvalues --    2.20667   2.21683   2.22074   2.22627   2.22779
  Beta virt. eigenvalues --    2.23519   2.23619   2.24051   2.24584   2.24986
  Beta virt. eigenvalues --    2.25248   2.25724   2.25799   2.25994   2.26366
[...]
    23 C(13)  Bbb    -0.0032    -0.434    -0.155    -0.145  0.8539  0.5168 -0.0607
              Bcc     0.0109     1.468     0.524     0.490  0.0203  0.0834  0.9963
 
              Baa    -0.0035    -0.468    -0.167    -0.156  0.9943 -0.1009  0.0336
    24 C(13)  Bbb    -0.0002    -0.027    -0.010    -0.009  0.0790  0.9120  0.4024
              Bcc     0.0037     0.495     0.177     0.165 -0.0712 -0.3975  0.9148
 
              Baa    -0.0073    -0.985    -0.351    -0.328  0.7655 -0.6091 -0.2075
    25 C(13)  Bbb     0.0014     0.187     0.067     0.062  0.6241  0.6242  0.4700
              Bcc     0.0059     0.797     0.285     0.266 -0.1568 -0.4892  0.8579
 
              Baa    -0.0029    -0.390    -0.139    -0.130 -0.4087  0.7025 -0.5826
    26 C(13)  Bbb    -0.0008    -0.108    -0.038    -0.036  0.7779  0.6020  0.1802
              Bcc     0.0037     0.497     0.178     0.166 -0.4773  0.3795  0.7925
 
              Baa    -0.0024    -0.325    -0.116    -0.109 -0.0228  0.1719  0.9848
    27 C(13)  Bbb     0.0002     0.023     0.008     0.008  0.8943 -0.4369  0.0969
              Bcc     0.0023     0.302     0.108     0.101  0.4469  0.8829 -0.1438
 
              Baa    -0.0020    -0.274    -0.098    -0.091  0.9470 -0.3051  0.1005
    28 C(13)  Bbb    -0.0009    -0.124    -0.044    -0.041  0.3190  0.9303 -0.1811
              Bcc     0.0030     0.398     0.142     0.133 -0.0383  0.2036  0.9783
 
              Baa    -0.0071    -0.957    -0.341    -0.319  0.7825  0.6223 -0.0206
    29 C(13)  Bbb    -0.0014    -0.182    -0.065    -0.061 -0.3444  0.4602  0.8183
              Bcc     0.0085     1.138     0.406     0.380 -0.5187  0.6332 -0.5744
 
              Baa    -0.0047    -0.632    -0.225    -0.211 -0.2399  0.0998  0.9657
    30 C(13)  Bbb    -0.0000    -0.002    -0.001    -0.001  0.8548  0.4933  0.1614
              Bcc     0.0047     0.634     0.226     0.211 -0.4603  0.8641 -0.2036
 
              Baa    -0.0076    -1.015    -0.362    -0.339  0.5080  0.8610 -0.0241
    31 C(13)  Bbb    -0.0037    -0.503    -0.179    -0.168  0.7654 -0.4640 -0.4459
              Bcc     0.0113     1.518     0.542     0.506  0.3951 -0.2080  0.8948
 
              Baa    -0.0073    -0.985    -0.352    -0.329 -0.0082 -0.0120  0.9999
    32 C(13)  Bbb    -0.0047    -0.630    -0.225    -0.210  0.3848  0.9229  0.0142
              Bcc     0.0120     1.615     0.576     0.539  0.9230 -0.3849  0.0029
 
              Baa    -0.0008    -0.101    -0.036    -0.034  0.1993  0.2412  0.9498
    33 C(13)  Bbb    -0.0005    -0.067    -0.024    -0.022  0.8440  0.4502 -0.2914
              Bcc     0.0013     0.168     0.060     0.056 -0.4979  0.8597 -0.1138
 
              Baa    -0.0009    -0.119    -0.043    -0.040  0.4251  0.8878 -0.1761
    34 C(13)  Bbb    -0.0006    -0.084    -0.030    -0.028  0.0727  0.1604  0.9844
              Bcc     0.0015     0.203     0.073     0.068  0.9022 -0.4313  0.0036
 
              Baa    -0.0011    -0.143    -0.051    -0.048  0.4028  0.7896 -0.4629
    35 C(13)  Bbb    -0.0006    -0.083    -0.030    -0.028 -0.1870  0.5660  0.8029
              Bcc     0.0017     0.226     0.081     0.075  0.8960 -0.2368  0.3757
 
              Baa    -0.0004    -0.054    -0.019    -0.018  0.1005  0.2566  0.9613
    36 C(13)  Bbb    -0.0004    -0.047    -0.017    -0.016  0.2387  0.9318 -0.2736
              Bcc     0.0007     0.100     0.036     0.034  0.9659 -0.2569 -0.0324
 
              Baa    -0.0006     0.041     0.015     0.014  0.0821  0.7521  0.6540
    37 O(17)  Bbb    -0.0004     0.027     0.010     0.009  0.1086 -0.6590  0.7442
              Bcc     0.0009    -0.069    -0.024    -0.023  0.9907  0.0100 -0.1358
 
              Baa    -0.0003     0.020     0.007     0.007  0.3557  0.5902  0.7247
    38 O(17)  Bbb    -0.0003     0.019     0.007     0.006  0.1680  0.7224 -0.6708
              Bcc     0.0005    -0.039    -0.014    -0.013  0.9194 -0.3603 -0.1579
 
              Baa    -0.0237    -0.912    -0.326    -0.304  0.6378  0.6967  0.3283
    39 N(14)  Bbb     0.0044     0.170     0.061     0.057  0.7615 -0.6343 -0.1334
              Bcc     0.0192     0.742     0.265     0.248 -0.1153 -0.3350  0.9351
 
              Baa    -0.0232    -0.896    -0.320    -0.299 -0.5661  0.7391  0.3651
    40 N(14)  Bbb     0.0107     0.412     0.147     0.137 -0.1047 -0.5038  0.8575
              Bcc     0.0126     0.485     0.173     0.162  0.8177  0.4471  0.3626
 
              Baa    -0.0267    -1.030    -0.367    -0.344 -0.3374 -0.5952  0.7293
    41 N(14)  Bbb     0.0065     0.250     0.089     0.083  0.7591 -0.6302 -0.1631
              Bcc     0.0202     0.780     0.278     0.260  0.5567  0.4986  0.6644
 
              Baa    -0.0308    -1.189    -0.424    -0.397  0.6361 -0.6280  0.4483
    42 N(14)  Bbb     0.0033     0.129     0.046     0.043  0.7092  0.7047 -0.0191
              Bcc     0.0275     1.061     0.378     0.354 -0.3039  0.3301  0.8937
 
              Baa    -0.9939   -17.207    -6.140    -5.740 -0.1751  0.9796 -0.0989
    43 Fe(57) Bbb     0.1076     1.863     0.665     0.622  0.9828  0.1798  0.0414
              Bcc     0.8862    15.343     5.475     5.118 -0.0583  0.0899  0.9942
 
              Baa    -0.0057    -0.218    -0.078    -0.073 -0.1186  0.9929  0.0125
    44 N(14)  Bbb    -0.0020    -0.077    -0.027    -0.026  0.8403  0.0937  0.5340
              Bcc     0.0077     0.295     0.105     0.098 -0.5290 -0.0738  0.8454
 
              Baa    -0.0186    -2.499    -0.892    -0.834 -0.0786  0.9741  0.2121
    45 C(13)  Bbb    -0.0032    -0.427    -0.153    -0.143  0.7569 -0.0802  0.6486
              Bcc     0.0218     2.927     1.044     0.976 -0.6488 -0.2115  0.7310
 
              Baa    -0.0381    -1.470    -0.525    -0.491  0.4788  0.1275  0.8686
    46 N(14)  Bbb     0.0146     0.561     0.200     0.187  0.0430  0.9848 -0.1682
              Bcc     0.0236     0.909     0.324     0.303  0.8769 -0.1179 -0.4661
 
              Baa    -0.0062    -0.834    -0.298    -0.278  0.2102  0.9539 -0.2143
    47 C(13)  Bbb    -0.0030    -0.406    -0.145    -0.136  0.9648 -0.1669  0.2032
              Bcc     0.0092     1.240     0.443     0.414 -0.1580  0.2495  0.9554
 
              Baa    -0.0044    -0.594    -0.212    -0.198 -0.5651  0.6935 -0.4469
    48 C(13)  Bbb    -0.0005    -0.071    -0.025    -0.024  0.6393  0.7105  0.2941
              Bcc     0.0050     0.665     0.237     0.222 -0.5215  0.1195  0.8448
 
              Baa    -0.0016    -0.864    -0.308    -0.288  0.3262  0.9417  0.0825
    49 H(1)   Bbb    -0.0013    -0.688    -0.246    -0.230  0.8583 -0.2585 -0.4433
              Bcc     0.0029     1.553     0.554     0.518  0.3961 -0.2155  0.8926
 
              Baa    -0.0527     3.816     1.362     1.273  0.5680  0.5721  0.5916
    50 O(17)  Bbb     0.0150    -1.087    -0.388    -0.362 -0.5565  0.7966 -0.2361
              Bcc     0.0377    -2.729    -0.974    -0.910 -0.6064 -0.1952  0.7709
 
              Baa    -0.0018    -0.959    -0.342    -0.320  0.0899  0.0080  0.9959
    51 H(1)   Bbb    -0.0014    -0.749    -0.267    -0.250 -0.0165  0.9998 -0.0065
              Bcc     0.0032     1.708     0.609     0.570  0.9958  0.0158 -0.0900
 
              Baa    -0.0015    -0.810    -0.289    -0.270  0.1563 -0.0681  0.9854
    52 H(1)   Bbb    -0.0012    -0.649    -0.232    -0.217  0.9875  0.0332 -0.1543
              Bcc     0.0027     1.459     0.521     0.487 -0.0222  0.9971  0.0725
 
              Baa    -0.0017    -0.886    -0.316    -0.296  0.1996  0.1706  0.9649
    53 H(1)   Bbb    -0.0012    -0.646    -0.230    -0.215 -0.0207  0.9852 -0.1699
              Bcc     0.0029     1.532     0.547     0.511  0.9797 -0.0139 -0.2001
 
              Baa    -0.0016    -0.847    -0.302    -0.282  0.7365 -0.0585 -0.6739
    54 H(1)   Bbb    -0.0015    -0.821    -0.293    -0.274  0.6763  0.0873  0.7315
              Bcc     0.0031     1.668     0.595     0.556 -0.0161  0.9945 -0.1039
 
              Baa    -0.0007    -0.385    -0.138    -0.129 -0.6231  0.1338  0.7706
    55 H(1)   Bbb    -0.0007    -0.364    -0.130    -0.122  0.7268 -0.2650  0.6337
              Bcc     0.0014     0.750     0.268     0.250  0.2890  0.9549  0.0678
 
              Baa    -0.0007    -0.375    -0.134    -0.125  0.0428  0.1689  0.9847
    56 H(1)   Bbb    -0.0006    -0.315    -0.112    -0.105  0.9135 -0.4058  0.0299
              Bcc     0.0013     0.689     0.246     0.230  0.4046  0.8982 -0.1716
 
              Baa    -0.0006    -0.337    -0.120    -0.113  0.3772 -0.3048  0.8746
    57 H(1)   Bbb    -0.0005    -0.291    -0.104    -0.097  0.7812 -0.4026 -0.4772
              Bcc     0.0012     0.628     0.224     0.210  0.4975  0.8631  0.0863
 
              Baa    -0.0009    -0.498    -0.178    -0.166  0.1279  0.0276  0.9914
    58 H(1)   Bbb    -0.0008    -0.415    -0.148    -0.139 -0.2527  0.9675  0.0057
              Bcc     0.0017     0.914     0.326     0.305  0.9591  0.2513 -0.1307
 
              Baa    -0.0007    -0.383    -0.137    -0.128 -0.5160  0.6391 -0.5704
    59 H(1)   Bbb    -0.0007    -0.362    -0.129    -0.121 -0.2389  0.5320  0.8123
              Bcc     0.0014     0.745     0.266     0.248  0.8226  0.5555 -0.1218
 
              Baa    -0.0006    -0.311    -0.111    -0.104 -0.2480  0.7145 -0.6542
    60 H(1)   Bbb    -0.0005    -0.264    -0.094    -0.088 -0.5646  0.4421  0.6970
              Bcc     0.0011     0.576     0.205     0.192  0.7872  0.5422  0.2937
 
              Baa    -0.0008    -0.413    -0.147    -0.138 -0.3806  0.5496  0.7437
    61 H(1)   Bbb    -0.0006    -0.316    -0.113    -0.105 -0.0384  0.7941 -0.6065
              Bcc     0.0014     0.729     0.260     0.243  0.9240  0.2594  0.2811
 
              Baa    -0.0006    -0.331    -0.118    -0.111 -0.0817 -0.2229  0.9714
    62 H(1)   Bbb    -0.0004    -0.220    -0.079    -0.074  0.8811  0.4394  0.1749
              Bcc     0.0010     0.552     0.197     0.184 -0.4658  0.8702  0.1605
 
              Baa    -0.0007    -0.354    -0.126    -0.118  0.2567  0.2152  0.9422
    63 H(1)   Bbb    -0.0004    -0.224    -0.080    -0.075  0.8179  0.4710 -0.3304
              Bcc     0.0011     0.578     0.206     0.193 -0.5149  0.8555 -0.0552
 
              Baa    -0.0008    -0.409    -0.146    -0.136  0.8142  0.2821 -0.5074
    64 H(1)   Bbb    -0.0007    -0.380    -0.136    -0.127  0.4856  0.1483  0.8615
              Bcc     0.0015     0.789     0.282     0.263 -0.3183  0.9479  0.0163
 
              Baa    -0.0012    -0.635    -0.226    -0.212  0.3873  0.9205  0.0518
    65 H(1)   Bbb    -0.0010    -0.518    -0.185    -0.173  0.0188 -0.0640  0.9978
              Bcc     0.0022     1.152     0.411     0.384  0.9217 -0.3855 -0.0421
 
              Baa    -0.0006    -0.330    -0.118    -0.110  0.8977 -0.1544  0.4127
    66 H(1)   Bbb    -0.0002    -0.124    -0.044    -0.041 -0.3933  0.1416  0.9084
              Bcc     0.0009     0.454     0.162     0.152  0.1987  0.9778 -0.0664
 
              Baa    -0.0013    -0.690    -0.246    -0.230  0.0081  0.9860 -0.1664
    67 H(1)   Bbb    -0.0002    -0.100    -0.036    -0.033  0.0364  0.1660  0.9855
              Bcc     0.0015     0.790     0.282     0.263  0.9993 -0.0140 -0.0345
 
              Baa    -0.0008    -0.422    -0.150    -0.141 -0.5608  0.6958 -0.4489
    68 H(1)   Bbb    -0.0004    -0.239    -0.085    -0.080 -0.1163  0.4705  0.8747
              Bcc     0.0012     0.661     0.236     0.221  0.8198  0.5427 -0.1829
 
              Baa    -0.0011    -0.568    -0.203    -0.190  0.2137  0.3837  0.8984
    69 H(1)   Bbb    -0.0005    -0.242    -0.086    -0.081 -0.6097  0.7709 -0.1842
              Bcc     0.0015     0.810     0.289     0.270  0.7633  0.5084 -0.3987
 
              Baa    -0.0012    -0.648    -0.231    -0.216 -0.3809  0.8416  0.3830
    70 H(1)   Bbb    -0.0005    -0.243    -0.087    -0.081  0.2132 -0.3231  0.9220
              Bcc     0.0017     0.891     0.318     0.297  0.8997  0.4328 -0.0564
 
              Baa    -0.0009    -0.466    -0.166    -0.155  0.9379 -0.3053 -0.1647
    71 H(1)   Bbb    -0.0008    -0.446    -0.159    -0.149  0.2251  0.1746  0.9586
              Bcc     0.0017     0.912     0.325     0.304  0.2639  0.9361 -0.2325
 
              Baa    -0.0004    -0.222    -0.079    -0.074 -0.0767  0.2627  0.9618
    72 H(1)   Bbb    -0.0003    -0.152    -0.054    -0.051  0.7552 -0.6145  0.2281
              Bcc     0.0007     0.373     0.133     0.124  0.6510  0.7439 -0.1512
 
              Baa    -0.0004    -0.234    -0.083    -0.078  0.9656 -0.2300  0.1216
    73 H(1)   Bbb    -0.0003    -0.156    -0.056    -0.052 -0.0669  0.2321  0.9704
              Bcc     0.0007     0.390     0.139     0.130  0.2514  0.9451 -0.2087
 
              Baa    -0.0006    -0.309    -0.110    -0.103  0.2076  0.1297  0.9696
    74 H(1)   Bbb    -0.0005    -0.267    -0.095    -0.089  0.8345  0.4936 -0.2447
              Bcc     0.0011     0.576     0.206     0.192 -0.5104  0.8599 -0.0058
 
              Baa    -0.0007    -0.397    -0.142    -0.132  0.0655 -0.2411  0.9683
    75 H(1)   Bbb    -0.0006    -0.317    -0.113    -0.106  0.9006  0.4321  0.0467
              Bcc     0.0013     0.714     0.255     0.238 -0.4296  0.8690  0.2455
 
              Baa    -0.0007    -0.390    -0.139    -0.130  0.8886  0.3122 -0.3359
    76 H(1)   Bbb    -0.0007    -0.380    -0.136    -0.127  0.3197  0.1033  0.9419
              Bcc     0.0014     0.770     0.275     0.257 -0.3288  0.9444  0.0080
 
              Baa    -0.0007    -0.386    -0.138    -0.129  0.6120  0.7834  0.1084
    77 H(1)   Bbb    -0.0006    -0.344    -0.123    -0.115  0.1085 -0.2189  0.9697
              Bcc     0.0014     0.729     0.260     0.243  0.7834 -0.5817 -0.2189
 
              Baa    -0.0009    -0.483    -0.172    -0.161  0.2835  0.1104  0.9526
    78 H(1)   Bbb    -0.0008    -0.428    -0.153    -0.143  0.2327  0.9558 -0.1800
              Bcc     0.0017     0.911     0.325     0.304  0.9303 -0.2726 -0.2452
 
              Baa    -0.0008    -0.402    -0.144    -0.134 -0.3063 -0.5702  0.7623
    79 H(1)   Bbb    -0.0006    -0.312    -0.111    -0.104  0.1103  0.7741  0.6234
              Bcc     0.0013     0.715     0.255     0.238  0.9455 -0.2751  0.1742
 
              Baa    -0.0006    -0.298    -0.106    -0.099  0.2941  0.6592  0.6921
    80 H(1)   Bbb    -0.0005    -0.248    -0.089    -0.083 -0.5064 -0.5066  0.6978
              Bcc     0.0010     0.546     0.195     0.182  0.8106 -0.5557  0.1848
 
              Baa    -0.0049    -2.608    -0.930    -0.870  0.9570 -0.0309 -0.2883
    81 H(1)   Bbb    -0.0042    -2.240    -0.799    -0.747  0.2077  0.7669  0.6072
              Bcc     0.0091     4.847     1.730     1.617  0.2024 -0.6410  0.7404
 
              Baa    -0.0043    -2.299    -0.820    -0.767 -0.0925 -0.6959  0.7122
    82 H(1)   Bbb    -0.0039    -2.081    -0.742    -0.694  0.9930 -0.1177  0.0140
              Bcc     0.0082     4.380     1.563     1.461  0.0740  0.7084  0.7019
 
              Baa    -0.0013    -0.678    -0.242    -0.226 -0.6240  0.7643 -0.1629
    83 H(1)   Bbb    -0.0009    -0.503    -0.179    -0.168  0.7280  0.4927 -0.4767
              Bcc     0.0022     1.181     0.421     0.394  0.2841  0.4160  0.8638
 
              Baa    -0.0080    -4.275    -1.526    -1.426  0.7912  0.6073 -0.0724
    84 H(1)   Bbb    -0.0051    -2.713    -0.968    -0.905 -0.6103  0.7915 -0.0309
              Bcc     0.0131     6.988     2.493     2.331  0.0386  0.0686  0.9969
 
              Baa    -0.0163    -8.709    -3.108    -2.905  0.8014 -0.3645 -0.4742
    85 H(1)   Bbb    -0.0137    -7.314    -2.610    -2.440  0.3338  0.9305 -0.1510
              Bcc     0.0300    16.023     5.718     5.345  0.4963 -0.0373  0.8673
 
              Baa    -0.0002    -0.097    -0.035    -0.032 -0.3285  0.4876  0.8089
    86 H(1)   Bbb    -0.0002    -0.097    -0.034    -0.032 -0.3097  0.7535 -0.5799
              Bcc     0.0004     0.194     0.069     0.065  0.8923  0.4410  0.0965
 
              Baa    -0.0002    -0.108    -0.039    -0.036  0.3156  0.7693 -0.5556
    87 H(1)   Bbb    -0.0002    -0.107    -0.038    -0.036  0.3395  0.4552  0.8231
              Bcc     0.0004     0.215     0.077     0.072  0.8861 -0.4484 -0.1175
 

 ---------------------------------------------------------------------------------

 1\1\GINC-NODE638\SP\UPBE1PBE\def2TZVP\C37H38Fe1N6O5(1+,2)\KLEICH\18-Se
 p-2022\0\\# PBE1PBE/def2TZVP empiricaldispersion=GD3BJ int=(grid=ultra
 fine) geom=check guess=read scrf=(smd,solvent=Chloroform)\\1ccg_III_D_
 solv\\1,2\C,0,-5.506,53.923,112.93\C,0,-7.562,57.972,114.378\C,0,-5.92
 6,60.126,110.472\C,0,-3.654,56.114,109.164\C,0,-6.228,54.827,113.698\C
 ,0,-6.758,54.532,114.942\C,0,-7.395,55.715,115.374\C,0,-7.147,56.642,1
 14.369\C,0,-8.23,55.922,116.645\C,0,-6.626,53.173,115.641\C,0,-5.472,5
 3.012,116.584\C,0,-5.394,51.617,117.224\O,0,-6.246,51.26,118.04\O,0,-4
 .475,50.847,116.942\C,0,-7.381,58.932,113.376\C,0,-7.941,60.211,113.41
 1\C,0,-7.522,60.812,112.232\C,0,-6.685,59.879,111.612\C,0,-8.919,60.67
 8,114.485\C,0,-7.826,62.055,111.651\C,0,-8.743,63.064,112.11\C,0,-5.08
 1,59.253,109.775\C,0,-4.298,59.622,108.683\C,0,-3.589,58.446,108.366\C
 ,0,-4.047,57.462,109.229\C,0,-4.188,61.047,108.081\C,0,-2.635,58.152,1
 07.378\C,0,-2.272,58.924,106.228\C,0,-4.,55.082,110.014\C,0,-3.674,53.
 753,109.834\C,0,-4.208,53.123,110.964\C,0,-4.83,54.109,111.715\C,0,-3.
 02,53.099,108.613\C,0,-4.19,51.63,111.27\C,0,-3.016,51.229,112.145\C,0
 ,-3.008,49.79,112.601\O,0,-2.443,49.528,113.657\O,0,-3.547,48.922,111.
 918\N,0,-6.462,56.1,113.359\N,0,-6.701,58.711,112.255\N,0,-4.921,57.95
 5,110.104\N,0,-4.723,55.274,111.116\Fe,0,-5.857,56.937,111.603\N,0,-9.
 264,56.772,109.591\C,0,-8.576,56.828,110.692\N,0,-7.374,56.4,110.42\C,
 0,-7.308,56.079,109.165\C,0,-8.548,56.317,108.604\H,0,-10.166,57.108,1
 09.493\O,0,-4.422,57.485,112.862\H,0,-5.45782113,52.93038101,113.32659
 342\H,0,-8.08069798,58.29811361,115.25521281\H,0,-5.99760271,61.116702
 63,110.07415412\H,0,-3.00493273,55.8547598,108.35381101\H,0,-8.2984840
 7,56.96786322,116.86036031\H,0,-9.21175387,55.52358038,116.49559734\H,
 0,-7.7619019,55.41887131,117.4651498\H,0,-6.44721884,52.46901742,114.8
 5528642\H,0,-7.5012008,53.08406969,116.25010997\H,0,-5.65300175,53.694
 07989,117.38830429\H,0,-4.58942939,53.11072806,115.98715673\H,0,-8.463
 71308,61.44873123,115.07116311\H,0,-9.8040266,61.05930165,114.01998713
 \H,0,-9.17510627,59.85346206,115.11701801\H,0,-7.30480633,62.28163664,
 110.74441686\H,0,-9.30143044,62.91003662,113.00963921\H,0,-8.86660125,
 63.96842137,111.55174851\H,0,-3.96248284,61.38427734,107.09090606\H,0,
 -3.16344207,60.7451661,108.01714588\H,0,-5.06293474,60.70293935,107.57
 010718\H,0,-2.1095021,57.22809277,107.50107472\H,0,-2.75434073,59.8600
 2192,106.03797265\H,0,-1.5183987,58.56487385,105.5586619\H,0,-2.276951
 81,52.4008133,108.93752229\H,0,-3.76507449,52.58672515,108.04086497\H,
 0,-2.56112515,53.85261299,108.00768906\H,0,-4.04362608,51.13631942,110
 .33204789\H,0,-5.07023292,51.43423488,111.84599134\H,0,-3.11319677,51.
 81093673,113.0376379\H,0,-2.14912823,51.33767231,111.52724304\H,0,-8.9
 296665,57.16293665,111.64470008\H,0,-6.44757409,55.69818255,108.655544
 09\H,0,-8.85064928,56.16247035,107.58939466\H,0,-3.67092348,58.0828997
 1,112.862\H,0,-4.10865359,56.57757836,112.862\H,0,-5.97701984,50.89062
 643,118.88428244\H,0,-3.01035,48.29644543,111.42577215\\Version=ES64L-
 G16RevA.03\State=2-A\HF=-3399.0748638\S2=0.884636\S2-1=0.\S2A=0.752684
 \RMSD=1.765e-09\Dipole=-2.9362607,1.5320714,-3.0577273\Quadrupole=-0.7
 094893,-29.0210219,29.7305112,-5.1276139,-21.4350076,11.4638113\PG=C01
  [X(C37H38Fe1N6O5)]\\@


 FRICTION IS A DRAG,
 AND ENTROPY AIN'T WHAT IT USED TO BE.
 Job cpu time:       2 days 23 hours 23 minutes 12.1 seconds.
 Elapsed time:       0 days 17 hours 53 minutes 26.8 seconds.
 File lengths (MBytes):  RWF=   3521 Int=      0 D2E=      0 Chk=    250 Scr=      1
 Normal termination of Gaussian 16 at Sun Sep 18 11:44:41 2022.
