 Entering Gaussian System, Link 0=g16
 Input=/net/homes/chemie/zhartovska/work/BioModel/Konrad/1mz4/1mz412/1mz416/1mz416.com
 Output=/net/homes/chemie/zhartovska/work/BioModel/Konrad/1mz4/1mz412/1mz416/1mz416.log
 Initial command:
 /afs/math/software/gaussian/g16.A03/g16/l1.exe "/scratch/zhartovska_gaussian.n0umSsp/Gau-16172.inp" -scrdir="/scratch/zhartovska_gaussian.n0umSsp/"
 Entering Link 1 = /afs/math/software/gaussian/g16.A03/g16/l1.exe PID=     16173.
  
 Copyright (c) 1988,1990,1992,1993,1995,1998,2003,2009,2016,
            Gaussian, Inc.  All Rights Reserved.
  
 This is part of the Gaussian(R) 16 program.  It is based on
 the Gaussian(R) 09 system (copyright 2009, Gaussian, Inc.),
 the Gaussian(R) 03 system (copyright 2003, Gaussian, Inc.),
 the Gaussian(R) 98 system (copyright 1998, Gaussian, Inc.),
 the Gaussian(R) 94 system (copyright 1995, Gaussian, Inc.),
 the Gaussian 92(TM) system (copyright 1992, Gaussian, Inc.),
 the Gaussian 90(TM) system (copyright 1990, Gaussian, Inc.),
 the Gaussian 88(TM) system (copyright 1988, Gaussian, Inc.),
 the Gaussian 86(TM) system (copyright 1986, Carnegie Mellon
 University), and the Gaussian 82(TM) system (copyright 1983,
 Carnegie Mellon University). Gaussian is a federally registered
 trademark of Gaussian, Inc.
  
 This software contains proprietary and confidential information,
 including trade secrets, belonging to Gaussian, Inc.
  
 This software is provided under written license and may be
 used, copied, transmitted, or stored only in accord with that
 written license.
  
 The following legend is applicable only to US Government
 contracts under FAR:
  
                    RESTRICTED RIGHTS LEGEND
  
 Use, reproduction and disclosure by the US Government is
 subject to restrictions as set forth in subparagraphs (a)
 and (c) of the Commercial Computer Software - Restricted
 Rights clause in FAR 52.227-19.
  
 Gaussian, Inc.
 340 Quinnipiac St., Bldg. 40, Wallingford CT 06492
  
  
 ---------------------------------------------------------------
 Warning -- This program may not be used in any manner that
 competes with the business of Gaussian, Inc. or will provide
 assistance to any competitor of Gaussian, Inc.  The licensee
 of this program is prohibited from giving any competitor of
 Gaussian, Inc. access to this program.  By using this program,
 the user acknowledges that Gaussian, Inc. is engaged in the
 business of creating and licensing software in the field of
 computational chemistry and represents and warrants to the
 licensee that it is not a competitor of Gaussian, Inc. and that
 it will not use this program in any manner prohibited above.
 ---------------------------------------------------------------
  

 Cite this work as:
 Gaussian 16, Revision A.03,
 M. J. Frisch, G. W. Trucks, H. B. Schlegel, G. E. Scuseria, 
 M. A. Robb, J. R. Cheeseman, G. Scalmani, V. Barone, 
 G. A. Petersson, H. Nakatsuji, X. Li, M. Caricato, A. V. Marenich, 
 J. Bloino, B. G. Janesko, R. Gomperts, B. Mennucci, H. P. Hratchian, 
 J. V. Ortiz, A. F. Izmaylov, J. L. Sonnenberg, D. Williams-Young, 
 F. Ding, F. Lipparini, F. Egidi, J. Goings, B. Peng, A. Petrone, 
 T. Henderson, D. Ranasinghe, V. G. Zakrzewski, J. Gao, N. Rega, 
 G. Zheng, W. Liang, M. Hada, M. Ehara, K. Toyota, R. Fukuda, 
 J. Hasegawa, M. Ishida, T. Nakajima, Y. Honda, O. Kitao, H. Nakai, 
 T. Vreven, K. Throssell, J. A. Montgomery, Jr., J. E. Peralta, 
 F. Ogliaro, M. J. Bearpark, J. J. Heyd, E. N. Brothers, K. N. Kudin, 
 V. N. Staroverov, T. A. Keith, R. Kobayashi, J. Normand, 
 K. Raghavachari, A. P. Rendell, J. C. Burant, S. S. Iyengar, 
 J. Tomasi, M. Cossi, J. M. Millam, M. Klene, C. Adamo, R. Cammi, 
 J. W. Ochterski, R. L. Martin, K. Morokuma, O. Farkas, 
 J. B. Foresman, and D. J. Fox, Gaussian, Inc., Wallingford CT, 2016.
 
 ******************************************
 Gaussian 16:  ES64L-G16RevA.03 25-Dec-2016
                 6-Apr-2023 
 ******************************************
 %nprocs=12
 Will use up to   12 processors via shared memory.
 %mem=16GB
 %oldchk=1mz4_III_D.chk
 %chk=1mz4_III_H.chk
 Copying data from "1mz4_III_D.chk" to current chk file "1mz4_III_H.chk"
 IOpt=  2 FromEx=T IUOpen= 4 IOptOp= 5 NList=   0 IFRang= 0 IUIn= 4 IUOut= 2.
 ----------------------------------------------------------------------
 # PBE1PBE/def2TZVP scf=maxcycle=999 empiricaldispersion=GD3BJ geom=che
 ck pop=nbo
 ----------------------------------------------------------------------
 1/29=2,38=1,172=1/1;
 2/12=2,40=1/2;
 3/5=44,7=101,11=2,14=-4,25=1,30=1,74=-13,124=41/1,2,3;
 4//1;
 5/5=2,7=999,38=5/2;
 6/7=2,8=2,9=2,10=2,28=1,40=1/1,7;
 99/5=1,9=1/99;
 ----------
 1mz4_III_H
 ----------
 Structure from the checkpoint file:  "1mz4_III_H.chk"
 Charge =  1 Multiplicity = 6
 Z-Matrix found in chk file.
 C,0,34.085999,19.643999,-0.493
 C,0,35.094002,19.747,-1.597
 N,0,34.847,19.309,-2.881
 C,0,36.374001,20.190001,-1.593
 C,0,35.931999,19.472,-3.617
 N,0,36.874001,20.006001,-2.858
 C,0,43.095001,22.656,-5.791
 C,0,42.304001,21.784,-4.866
 N,0,42.750999,21.436001,-3.61
 C,0,41.042,21.305,-4.966
 C,0,41.792,20.783001,-2.972
 N,0,40.743999,20.693001,-3.771
 Fe,0,38.798,20.395,-3.32
 C,0,38.473,18.780001,-6.344
 C,0,39.717999,17.438999,-1.83
 C,0,39.257,22.046,-0.304
 C,0,37.688,23.290001,-4.743
 N,0,39.014999,18.525,-3.951
 C,0,38.839001,18.027,-5.235
 C,0,39.139,16.608999,-5.288
 C,0,39.514999,16.245001,-4.037
 C,0,39.41,17.419001,-3.201
 C,0,40.009998,14.863,-3.611
 C,0,39.060001,15.673,-6.508
 C,0,37.627998,15.162,-6.665
 C,0,37.498001,14.067,-7.712
 O,0,36.372002,13.558,-7.906
 O,0,38.515999,13.713,-8.339
 N,0,39.374001,19.871,-1.487
 C,0,39.691002,18.591,-1.034
 C,0,40.054001,18.613001,0.365
 C,0,39.995998,19.908001,0.806
 C,0,39.547001,20.684999,-0.351
 C,0,40.375999,17.384001,1.21
 C,0,40.277,20.374001,2.11
 C,0,41.546001,20.233999,2.689
 N,0,38.563999,22.25,-2.671
 C,0,38.794998,22.778,-1.397
 C,0,38.389999,24.169001,-1.322
 C,0,37.938,24.521,-2.555
 C,0,38.055,23.327999,-3.395
 C,0,38.362999,25.041,-0.06
 C,0,37.334999,25.737,-2.921
 C,0,38.030998,26.934,-2.884
 N,0,38.198002,20.914,-5.138
 C,0,37.780998,22.172001,-5.563
 C,0,37.551998,22.190001,-6.995
 C,0,37.813,20.936001,-7.452
 C,0,38.174,20.136,-6.3
 C,0,37.068001,23.375999,-7.826
 C,0,37.875999,20.474001,-8.902
 C,0,39.249001,20.809999,-9.47
 C,0,39.432999,20.315001,-10.889
 O,0,39.932999,19.183001,-11.085
 O,0,39.063999,21.065001,-11.811
 H,0,44.02520663,22.18009204,-6.02149752
 H,0,42.5416564,22.81330741,-6.69319961
 H,0,43.28343151,23.59777908,-5.31935808
 H,0,40.39695424,21.38712408,-5.81574796
 H,0,43.65615405,21.64367718,-3.23910251
 H,0,41.85525559,20.39393378,-1.97725107
 H,0,34.4925253,20.06711221,0.40176901
 H,0,33.19963068,20.17629754,-0.76851674
 H,0,33.84607799,18.61503955,-0.32394274
 H,0,33.98124446,18.92733401,-3.20472585
 H,0,36.03153203,19.21560293,-4.65104725
 H,0,36.8982931,20.60629667,-0.75830502
 H,0,41.60855201,19.2889979,3.18695612
 H,0,42.29397104,20.28507051,1.92556531
 H,0,41.70407402,21.02106885,3.39641358
 H,0,38.73924202,26.95969281,-3.68564224
 H,0,37.34515894,27.74871426,-2.98775674
 H,0,38.54624472,27.01826246,-1.95001892
 H,0,36.31246229,25.73790245,-3.23614737
 H,0,39.49889453,20.8473109,2.67163121
 H,0,39.23023813,25.66743732,-0.04069805
 H,0,37.48320606,25.64995682,-0.06599669
 H,0,38.35672209,24.41376762,0.80685647
 H,0,39.39671666,22.55962422,0.62420764
 H,0,41.30524301,17.53441518,1.71870536
 H,0,39.59729097,17.23056818,1.92761562
 H,0,40.45126699,16.52517239,0.57624284
 H,0,39.99058296,16.51494169,-1.36447228
 H,0,40.95207273,14.95947703,-3.11291629
 H,0,39.29892793,14.41874027,-2.94623489
 H,0,40.12550033,14.24336051,-4.47564219
 H,0,37.30625395,24.19056681,-5.17676397
 H,0,38.41803008,18.28461108,-7.29081948
 H,0,37.78354298,23.59039141,-8.59211721
 H,0,36.12634563,23.13679366,-8.27429227
 H,0,36.9549443,24.23192256,-7.19392956
 H,0,39.9975418,20.36350458,-8.84933149
 H,0,39.37735576,21.87218066,-9.45602961
 H,0,40.88686522,19.07624173,-11.10348482
 H,0,37.71788867,19.41676731,-8.94845488
 H,0,37.12055358,20.97467978,-9.4707908
 H,0,39.72105083,14.84386605,-6.36499646
 H,0,39.34592425,16.20956041,-7.38848329
 H,0,37.29481564,14.77839406,-5.72333339
 H,0,36.99944,15.98144533,-6.94486462
 H,0,39.38796942,13.9104356,-7.98930475
 Recover connectivity data from disk.
 Stoichiometry    C42H46FeN8O4(1+,6)
 Framework group  C1[X(C42H46FeN8O4)]
 Deg. of freedom   297
 Full point group                 C1      NOp   1
 Largest Abelian subgroup         C1      NOp   1
 Largest concise Abelian subgroup C1      NOp   1
                         Standard orientation:                         
 ---------------------------------------------------------------------
 Center     Atomic      Atomic             Coordinates (Angstroms)
 Number     Number       Type             X           Y           Z
 ---------------------------------------------------------------------
      1          6           0        2.652192   -1.957398    4.905315
      2          6           0        1.789343   -1.366360    3.832160
      3          7           0        0.441607   -1.127899    4.000253
      4          6           0        2.074424   -1.016065    2.555177
      5          6           0       -0.066117   -0.662861    2.872670
      6          7           0        0.905473   -0.585140    1.979037
      7          6           0       -0.055051    2.968785   -4.406324
      8          6           0        0.293411    1.782913   -3.561356
      9          7           0        1.249874    0.862793   -3.931495
     10          6           0       -0.092036    1.446560   -2.308206
     11          6           0        1.443232    0.011381   -2.936084
     12          7           0        0.644178    0.345284   -1.938674
     13         26           0        0.791272   -0.077071    0.030868
     14          6           0       -2.649261   -0.034497    0.169966
     15          6           0        0.725411   -3.410312   -0.799558
     16          6           0        4.249295   -0.088037   -0.242435
     17          6           0        0.876277    3.175938    1.054961
     18          7           0       -0.647628   -1.420887   -0.225797
     19          6           0       -2.020364   -1.237068   -0.128632
     20          6           0       -2.731694   -2.463914   -0.432595
     21          6           0       -1.791109   -3.393654   -0.732185
     22          6           0       -0.501005   -2.761774   -0.575488
     23          6           0       -2.055322   -4.824121   -1.201637
     24          6           0       -4.253555   -2.697707   -0.428760
     25          6           0       -4.713412   -3.029972    0.990584
     26          6           0       -6.162927   -3.484724    1.055693
     27          8           0       -6.637765   -3.806183    2.167351
     28          8           0       -6.827140   -3.523508    0.001140
     29          7           0        2.175277   -1.431872   -0.433122
     30          6           0        1.974124   -2.780763   -0.723170
     31          6           0        3.228971   -3.442531   -1.000435
     32          6           0        4.233911   -2.516470   -0.914547
     33          6           0        3.570057   -1.267481   -0.536002
     34          6           0        3.395761   -4.934778   -1.271595
     35          6           0        5.614432   -2.740927   -1.115335
     36          6           0        6.122297   -3.177362   -2.346920
     37          7           0        2.237811    1.245441    0.305584
     38          6           0        3.619158    1.091168    0.152940
     39          6           0        4.331136    2.286766    0.563021
     40          6           0        3.396461    3.199510    0.939554
     41          6           0        2.094374    2.552540    0.770617
     42          6           0        5.853329    2.447297    0.667483
     43          6           0        3.627666    4.458675    1.520303
     44          6           0        4.272384    5.471069    0.828936
     45          7           0       -0.583293    1.266834    0.519718
     46          6           0       -0.373569    2.585845    0.911266
     47          6           0       -1.630891    3.294715    1.052810
     48          6           0       -2.619234    2.406522    0.763364
     49          6           0       -1.975535    1.142253    0.472328
     50          6           0       -1.814787    4.747132    1.486482
     51          6           0       -4.107158    2.694720    0.611916
     52          6           0       -4.369233    3.222769   -0.792767
     53          6           0       -5.839362    3.463725   -1.063135
     54          8           0       -6.527767    2.550615   -1.575160
     55          8           0       -6.306151    4.574090   -0.750179
     56          1           0       -0.435413    2.635463   -5.349256
     57          1           0       -0.799081    3.555037   -3.908703
     58          1           0        0.820313    3.563345   -4.564875
     59          1           0       -0.831187    1.944324   -1.715933
     60          1           0        1.722983    0.841416   -4.812240
     61          1           0        2.130627   -0.808606   -2.939110
     62          1           0        3.660597   -2.026828    4.554319
     63          1           0        2.619001   -1.333249    5.773782
     64          1           0        2.293094   -2.934148    5.154128
     65          1           0       -0.071653   -1.282865    4.844379
     66          1           0       -1.089178   -0.394796    2.710228
     67          1           0        3.033293   -1.066015    2.082975
     68          1           0        6.107721   -4.246752   -2.379950
     69          1           0        5.518679   -2.787773   -3.139868
     70          1           0        7.128131   -2.830679   -2.460979
     71          1           0        3.620992    5.857844    0.073295
     72          1           0        4.535984    6.254882    1.507944
     73          1           0        5.158214    5.082543    0.371494
     74          1           0        3.297233    4.639601    2.521792
     75          1           0        6.291617   -2.572965   -0.304095
     76          1           0        6.217721    2.962870   -0.196405
     77          1           0        6.093264    3.009275    1.545841
     78          1           0        6.310633    1.481707    0.725870
     79          1           0        5.316103   -0.086535   -0.325000
     80          1           0        3.963307   -5.073136   -2.168059
     81          1           0        3.908451   -5.391308   -0.450845
     82          1           0        2.432489   -5.386342   -1.386034
     83          1           0        0.703795   -4.451749   -1.044184
     84          1           0       -1.522290   -5.005059   -2.111603
     85          1           0       -1.724947   -5.512318   -0.451878
     86          1           0       -3.103680   -4.956334   -1.370052
     87          1           0        0.908550    4.184641    1.410457
     88          1           0       -3.719050   -0.013489    0.166826
     89          1           0       -2.344054    5.282178    0.725889
     90          1           0       -2.372757    4.778999    2.398926
     91          1           0       -0.856417    5.198030    1.638535
     92          1           0       -4.000073    2.512308   -1.502602
     93          1           0       -3.839943    4.144073   -0.919063
     94          1           0       -6.543949    2.438753   -2.528483
     95          1           0       -4.664110    1.794175    0.765943
     96          1           0       -4.405247    3.428029    1.331846
     97          1           0       -4.491054   -3.512281   -1.080652
     98          1           0       -4.751305   -1.813053   -0.767186
     99          1           0       -4.091176   -3.808461    1.380041
    100          1           0       -4.598636   -2.159200    1.601716
    101          1           0       -6.379295   -3.542759   -0.847779
 ---------------------------------------------------------------------
 Rotational constants (GHZ):           0.0608182           0.0426162           0.0334506
 Standard basis: def2TZVP (5D, 7F)
 There are  2272 symmetry adapted cartesian basis functions of A   symmetry.
 There are  1995 symmetry adapted basis functions of A   symmetry.
  1995 basis functions,  3224 primitive gaussians,  2272 cartesian basis functions
   208 alpha electrons      203 beta electrons
       nuclear repulsion energy      8959.8118039783 Hartrees.
 NAtoms=  101 NActive=  101 NUniq=  101 SFac= 1.00D+00 NAtFMM=   60 NAOKFM=T Big=T
 Integral buffers will be    131072 words long.
 Raffenetti 2 integral format.
 Two-electron integral symmetry is turned on.
 Nuclear repulsion after empirical dispersion term =     8959.6661819500 Hartrees.
 One-electron integrals computed using PRISM.
   1 Symmetry operations used in ECPInt.
 ECPInt:  NShTT=  314821 NPrTT=  970913 LenC2=  228990 LenP2D=  455133.
 LDataN:  DoStor=T MaxTD1= 6 Len=  172
 NBasis=  1995 RedAO= T EigKep=  2.88D-06  NBF=  1995
 NBsUse=  1995 1.00D-06 EigRej= -1.00D+00 NBFU=  1995
 ExpMin= 4.20D-02 ExpMax= 3.01D+05 ExpMxC= 2.91D+03 IAcc=3 IRadAn=         5 AccDes= 0.00D+00
 Harris functional with IExCor= 1009 and IRadAn=       5 diagonalized for initial guess.
 HarFok:  IExCor= 1009 AccDes= 0.00D+00 IRadAn=         5 IDoV= 1 UseB2=F ITyADJ=14
 ICtDFT=  3500011 ScaDFX=  1.000000  1.000000  1.000000  1.000000
 FoFCou: FMM=F IPFlag=           0 FMFlag=      100000 FMFlg1=        2001
         NFxFlg=           0 DoJE=T BraDBF=F KetDBF=T FulRan=T
         wScrn=  0.000000 ICntrl=       500 IOpCl=  0 I1Cent=   200000004 NGrid=           0
         NMat0=    1 NMatS0=      1 NMatT0=    0 NMatD0=    1 NMtDS0=    0 NMtDT0=    0
 Petite list used in FoFCou.
 Initial guess <Sx>= 0.0000 <Sy>= 0.0000 <Sz>= 2.5000 <S**2>= 8.7500 S= 2.5000
 Requested convergence on RMS density matrix=1.00D-08 within 999 cycles.
 Requested convergence on MAX density matrix=1.00D-06.
 Requested convergence on             energy=1.00D-06.
 No special actions if energy rises.
 EnCoef did   100 forward-backward iterations
 EnCoef did   100 forward-backward iterations
 EnCoef did   100 forward-backward iterations
 EnCoef did     2 forward-backward iterations
 EnCoef did    20 forward-backward iterations
 EnCoef did     8 forward-backward iterations
 EnCoef did     4 forward-backward iterations
 Restarting incremental Fock formation.
 Restarting incremental Fock formation.
 SCF Done:  E(UPBE1PBE) =  -3628.65023612     A.U. after   47 cycles
            NFock= 47  Conv=0.21D-08     -V/T= 2.0032
 <Sx>= 0.0000 <Sy>= 0.0000 <Sz>= 2.5000 <S**2>= 8.8174 S= 2.5112
 <L.S>= 0.000000000000E+00
 Annihilation of the first spin contaminant:
 S**2 before annihilation     8.8174,   after     8.7512
 Hyperfine terms turned off by default for NAtoms > 100.

 **********************************************************************

            Population analysis using the SCF density.

 **********************************************************************

 Orbital symmetries:
 Alpha Orbitals:
       Occupied  (A) (A) (A) (A) (A) (A) (A) (A) (A) (A) (A) (A)
                 (A) (A) (A) (A) (A) (A) (A) (A) (A) (A) (A) (A)
                 (A) (A) (A) (A) (A) (A) (A) (A) (A) (A) (A) (A)
                 (A) (A) (A) (A) (A) (A) (A) (A) (A) (A) (A) (A)
                 (A) (A) (A) (A) (A) (A) (A) (A) (A) (A) (A) (A)
                 (A) (A) (A) (A) (A) (A) (A) (A) (A) (A) (A) (A)
                 (A) (A) (A) (A) (A) (A) (A) (A) (A) (A) (A) (A)
                 (A) (A) (A) (A) (A) (A) (A) (A) (A) (A) (A) (A)
                 (A) (A) (A) (A) (A) (A) (A) (A) (A) (A) (A) (A)
                 (A) (A) (A) (A) (A) (A) (A) (A) (A) (A) (A) (A)
                 (A) (A) (A) (A) (A) (A) (A) (A) (A) (A) (A) (A)
                 (A) (A) (A) (A) (A) (A) (A) (A) (A) (A) (A) (A)
                 (A) (A) (A) (A) (A) (A) (A) (A) (A) (A) (A) (A)
                 (A) (A) (A) (A) (A) (A) (A) (A) (A) (A) (A) (A)
                 (A) (A) (A) (A) (A) (A) (A) (A) (A) (A) (A) (A)
                 (A) (A) (A) (A) (A) (A) (A) (A) (A) (A) (A) (A)
                 (A) (A) (A) (A) (A) (A) (A) (A) (A) (A) (A) (A)
                 (A) (A) (A) (A)
       Virtual   (A) (A) (A) (A) (A) (A) (A) (A) (A) (A) (A) (A)
                 (A) (A) (A) (A) (A) (A) (A) (A) (A) (A) (A) (A)
                 (A) (A) (A) (A) (A) (A) (A) (A) (A) (A) (A) (A)
                 (A) (A) (A) (A) (A) (A) (A) (A) (A) (A) (A) (A)
                 (A) (A) (A) (A) (A) (A) (A) (A) (A) (A) (A) (A)
                 (A) (A) (A) (A) (A) (A) (A) (A) (A) (A) (A) (A)
                 (A) (A) (A) (A) (A) (A) (A) (A) (A) (A) (A) (A)
                 (A) (A) (A) (A) (A) (A) (A) (A) (A) (A) (A) (A)
                 (A) (A) (A) (A) (A) (A) (A) (A) (A) (A) (A) (A)
                 (A) (A) (A) (A) (A) (A) (A) (A) (A) (A) (A) (A)
                 (A) (A) (A) (A) (A) (A) (A) (A) (A) (A) (A) (A)
                 (A) (A) (A) (A) (A) (A) (A) (A) (A) (A) (A) (A)
                 (A) (A) (A) (A) (A) (A) (A) (A) (A) (A) (A) (A)
                 (A) (A) (A) (A) (A) (A) (A) (A) (A) (A) (A) (A)
                 (A) (A) (A) (A) (A) (A) (A) (A) (A) (A) (A) (A)
                 (A) (A) (A) (A) (A) (A) (A) (A) (A) (A) (A) (A)
                 (A) (A) (A) (A) (A) (A) (A) (A) (A) (A) (A) (A)
                 (A) (A) (A) (A) (A) (A) (A) (A) (A) (A) (A) (A)
                 (A) (A) (A) (A) (A) (A) (A) (A) (A) (A) (A) (A)
                 (A) (A) (A) (A) (A) (A) (A) (A) (A) (A) (A) (A)
                 (A) (A) (A) (A) (A) (A) (A) (A) (A) (A) (A) (A)
                 (A) (A) (A) (A) (A) (A) (A) (A) (A) (A) (A) (A)
                 (A) (A) (A) (A) (A) (A) (A) (A) (A) (A) (A) (A)
                 (A) (A) (A) (A) (A) (A) (A) (A) (A) (A) (A) (A)
                 (A) (A) (A) (A) (A) (A) (A) (A) (A) (A) (A) (A)
                 (A) (A) (A) (A) (A) (A) (A) (A) (A) (A) (A) (A)
                 (A) (A) (A) (A) (A) (A) (A) (A) (A) (A) (A) (A)
                 (A) (A) (A) (A) (A) (A) (A) (A) (A) (A) (A) (A)
                 (A) (A) (A) (A) (A) (A) (A) (A) (A) (A) (A) (A)
                 (A) (A) (A) (A) (A) (A) (A) (A) (A) (A) (A) (A)
                 (A) (A) (A) (A) (A) (A) (A) (A) (A) (A) (A) (A)
                 (A) (A) (A) (A) (A) (A) (A) (A) (A) (A) (A) (A)
                 (A) (A) (A) (A) (A) (A) (A) (A) (A) (A) (A) (A)
                 (A) (A) (A) (A) (A) (A) (A) (A) (A) (A) (A) (A)
                 (A) (A) (A) (A) (A) (A) (A) (A) (A) (A) (A) (A)
                 (A) (A) (A) (A) (A) (A) (A) (A) (A) (A) (A) (A)
                 (A) (A) (A) (A) (A) (A) (A) (A) (A) (A) (A) (A)
                 (A) (A) (A) (A) (A) (A) (A) (A) (A) (A) (A) (A)
                 (A) (A) (A) (A) (A) (A) (A) (A) (A) (A) (A) (A)
                 (A) (A) (A) (A) (A) (A) (A) (A) (A) (A) (A) (A)
                 (A) (A) (A) (A) (A) (A) (A) (A) (A) (A) (A) (A)
                 (A) (A) (A) (A) (A) (A) (A) (A) (A) (A) (A) (A)
                 (A) (A) (A) (A) (A) (A) (A) (A) (A) (A) (A) (A)
                 (A) (A) (A) (A) (A) (A) (A) (A) (A) (A) (A) (A)
                 (A) (A) (A) (A) (A) (A) (A) (A) (A) (A) (A) (A)
                 (A) (A) (A) (A) (A) (A) (A) (A) (A) (A) (A) (A)
                 (A) (A) (A) (A) (A) (A) (A) (A) (A) (A) (A) (A)
                 (A) (A) (A) (A) (A) (A) (A) (A) (A) (A) (A) (A)
                 (A) (A) (A) (A) (A) (A) (A) (A) (A) (A) (A) (A)
                 (A) (A) (A) (A) (A) (A) (A) (A) (A) (A) (A) (A)
                 (A) (A) (A) (A) (A) (A) (A) (A) (A) (A) (A) (A)
                 (A) (A) (A) (A) (A) (A) (A) (A) (A) (A) (A) (A)
                 (A) (A) (A) (A) (A) (A) (A) (A) (A) (A) (A) (A)
                 (A) (A) (A) (A) (A) (A) (A) (A) (A) (A) (A) (A)
                 (A) (A) (A) (A) (A) (A) (A) (A) (A) (A) (A) (A)
                 (A) (A) (A) (A) (A) (A) (A) (A) (A) (A) (A) (A)
                 (A) (A) (A) (A) (A) (A) (A) (A) (A) (A) (A) (A)
                 (A) (A) (A) (A) (A) (A) (A) (A) (A) (A) (A) (A)
                 (A) (A) (A) (A) (A) (A) (A) (A) (A) (A) (A) (A)
                 (A) (A) (A) (A) (A) (A) (A) (A) (A) (A) (A) (A)
                 (A) (A) (A) (A) (A) (A) (A) (A) (A) (A) (A) (A)
                 (A) (A) (A) (A) (A) (A) (A) (A) (A) (A) (A) (A)
                 (A) (A) (A) (A) (A) (A) (A) (A) (A) (A) (A) (A)
                 (A) (A) (A) (A) (A) (A) (A) (A) (A) (A) (A) (A)
                 (A) (A) (A) (A) (A) (A) (A) (A) (A) (A) (A) (A)
                 (A) (A) (A) (A) (A) (A) (A) (A) (A) (A) (A) (A)
                 (A) (A) (A) (A) (A) (A) (A) (A) (A) (A) (A) (A)
                 (A) (A) (A) (A) (A) (A) (A) (A) (A) (A) (A) (A)
                 (A) (A) (A) (A) (A) (A) (A) (A) (A) (A) (A) (A)
                 (A) (A) (A) (A) (A) (A) (A) (A) (A) (A) (A) (A)
                 (A) (A) (A) (A) (A) (A) (A) (A) (A) (A) (A) (A)
                 (A) (A) (A) (A) (A) (A) (A) (A) (A) (A) (A) (A)
                 (A) (A) (A) (A) (A) (A) (A) (A) (A) (A) (A) (A)
                 (A) (A) (A) (A) (A) (A) (A) (A) (A) (A) (A) (A)
                 (A) (A) (A) (A) (A) (A) (A) (A) (A) (A) (A) (A)
                 (A) (A) (A) (A) (A) (A) (A) (A) (A) (A) (A) (A)
                 (A) (A) (A) (A) (A) (A) (A) (A) (A) (A) (A) (A)
                 (A) (A) (A) (A) (A) (A) (A) (A) (A) (A) (A) (A)
                 (A) (A) (A) (A) (A) (A) (A) (A) (A) (A) (A) (A)
                 (A) (A) (A) (A) (A) (A) (A) (A) (A) (A) (A) (A)
                 (A) (A) (A) (A) (A) (A) (A) (A) (A) (A) (A) (A)
                 (A) (A) (A) (A) (A) (A) (A) (A) (A) (A) (A) (A)
                 (A) (A) (A) (A) (A) (A) (A) (A) (A) (A) (A) (A)
                 (A) (A) (A) (A) (A) (A) (A) (A) (A) (A) (A) (A)
                 (A) (A) (A) (A) (A) (A) (A) (A) (A) (A) (A) (A)
                 (A) (A) (A) (A) (A) (A) (A) (A) (A) (A) (A) (A)
                 (A) (A) (A) (A) (A) (A) (A) (A) (A) (A) (A) (A)
                 (A) (A) (A) (A) (A) (A) (A) (A) (A) (A) (A) (A)
                 (A) (A) (A) (A) (A) (A) (A) (A) (A) (A) (A) (A)
                 (A) (A) (A) (A) (A) (A) (A) (A) (A) (A) (A) (A)
                 (A) (A) (A) (A) (A) (A) (A) (A) (A) (A) (A) (A)
                 (A) (A) (A) (A) (A) (A) (A) (A) (A) (A) (A) (A)
                 (A) (A) (A) (A) (A) (A) (A) (A) (A) (A) (A) (A)
                 (A) (A) (A) (A) (A) (A) (A) (A) (A) (A) (A) (A)
                 (A) (A) (A) (A) (A) (A) (A) (A) (A) (A) (A) (A)
                 (A) (A) (A) (A) (A) (A) (A) (A) (A) (A) (A) (A)
                 (A) (A) (A) (A) (A) (A) (A) (A) (A) (A) (A) (A)
                 (A) (A) (A) (A) (A) (A) (A) (A) (A) (A) (A) (A)
                 (A) (A) (A) (A) (A) (A) (A) (A) (A) (A) (A) (A)
                 (A) (A) (A) (A) (A) (A) (A) (A) (A) (A) (A) (A)
                 (A) (A) (A) (A) (A) (A) (A) (A) (A) (A) (A) (A)
                 (A) (A) (A) (A) (A) (A) (A) (A) (A) (A) (A) (A)
                 (A) (A) (A) (A) (A) (A) (A) (A) (A) (A) (A) (A)
                 (A) (A) (A) (A) (A) (A) (A) (A) (A) (A) (A) (A)
                 (A) (A) (A) (A) (A) (A) (A) (A) (A) (A) (A) (A)
                 (A) (A) (A) (A) (A) (A) (A) (A) (A) (A) (A) (A)
                 (A) (A) (A) (A) (A) (A) (A) (A) (A) (A) (A) (A)
                 (A) (A) (A) (A) (A) (A) (A) (A) (A) (A) (A) (A)
                 (A) (A) (A) (A) (A) (A) (A) (A) (A) (A) (A) (A)
                 (A) (A) (A) (A) (A) (A) (A) (A) (A) (A) (A) (A)
                 (A) (A) (A) (A) (A) (A) (A) (A) (A) (A) (A) (A)
                 (A) (A) (A) (A) (A) (A) (A) (A) (A) (A) (A) (A)
                 (A) (A) (A) (A) (A) (A) (A) (A) (A) (A) (A) (A)
                 (A) (A) (A) (A) (A) (A) (A) (A) (A) (A) (A) (A)
                 (A) (A) (A) (A) (A) (A) (A) (A) (A) (A) (A) (A)
                 (A) (A) (A) (A) (A) (A) (A) (A) (A) (A) (A) (A)
                 (A) (A) (A) (A) (A) (A) (A) (A) (A) (A) (A) (A)
                 (A) (A) (A) (A) (A) (A) (A) (A) (A) (A) (A) (A)
                 (A) (A) (A) (A) (A) (A) (A) (A) (A) (A) (A) (A)
                 (A) (A) (A) (A) (A) (A) (A) (A) (A) (A) (A) (A)
                 (A) (A) (A) (A) (A) (A) (A) (A) (A) (A) (A) (A)
                 (A) (A) (A) (A) (A) (A) (A) (A) (A) (A) (A) (A)
                 (A) (A) (A) (A) (A) (A) (A) (A) (A) (A) (A) (A)
                 (A) (A) (A) (A) (A) (A) (A) (A) (A) (A) (A) (A)
                 (A) (A) (A) (A) (A) (A) (A) (A) (A) (A) (A) (A)
                 (A) (A) (A) (A) (A) (A) (A) (A) (A) (A) (A) (A)
                 (A) (A) (A) (A) (A) (A) (A) (A) (A) (A) (A) (A)
                 (A) (A) (A) (A) (A) (A) (A) (A) (A) (A) (A) (A)
                 (A) (A) (A) (A) (A) (A) (A) (A) (A) (A) (A) (A)
                 (A) (A) (A) (A) (A) (A) (A) (A) (A) (A) (A) (A)
                 (A) (A) (A) (A) (A) (A) (A) (A) (A) (A) (A) (A)
                 (A) (A) (A) (A) (A) (A) (A) (A) (A) (A) (A) (A)
                 (A) (A) (A) (A) (A) (A) (A) (A) (A) (A) (A) (A)
                 (A) (A) (A) (A) (A) (A) (A) (A) (A) (A) (A) (A)
                 (A) (A) (A) (A) (A) (A) (A) (A) (A) (A) (A) (A)
                 (A) (A) (A) (A) (A) (A) (A) (A) (A) (A) (A) (A)
                 (A) (A) (A) (A) (A) (A) (A) (A) (A) (A) (A) (A)
                 (A) (A) (A) (A) (A) (A) (A) (A) (A) (A) (A) (A)
                 (A) (A) (A) (A) (A) (A) (A) (A) (A) (A) (A) (A)
                 (A) (A) (A) (A) (A) (A) (A) (A) (A) (A) (A) (A)
                 (A) (A) (A) (A) (A) (A) (A) (A) (A) (A) (A) (A)
                 (A) (A) (A) (A) (A) (A) (A) (A) (A) (A) (A) (A)
                 (A) (A) (A) (A) (A) (A) (A) (A) (A) (A) (A) (A)
                 (A) (A) (A) (A) (A) (A) (A) (A) (A) (A) (A) (A)
                 (A) (A) (A) (A) (A) (A) (A) (A) (A) (A) (A) (A)
                 (A) (A) (A) (A) (A) (A) (A) (A) (A) (A) (A) (A)
                 (A) (A) (A) (A) (A) (A) (A) (A) (A) (A) (A) (A)
                 (A) (A) (A) (A) (A) (A) (A) (A) (A) (A) (A) (A)
                 (A) (A) (A) (A) (A) (A) (A) (A) (A) (A) (A)
 Beta  Orbitals:
       Occupied  (A) (A) (A) (A) (A) (A) (A) (A) (A) (A) (A) (A)
                 (A) (A) (A) (A) (A) (A) (A) (A) (A) (A) (A) (A)
                 (A) (A) (A) (A) (A) (A) (A) (A) (A) (A) (A) (A)
                 (A) (A) (A) (A) (A) (A) (A) (A) (A) (A) (A) (A)
                 (A) (A) (A) (A) (A) (A) (A) (A) (A) (A) (A) (A)
                 (A) (A) (A) (A) (A) (A) (A) (A) (A) (A) (A) (A)
                 (A) (A) (A) (A) (A) (A) (A) (A) (A) (A) (A) (A)
                 (A) (A) (A) (A) (A) (A) (A) (A) (A) (A) (A) (A)
                 (A) (A) (A) (A) (A) (A) (A) (A) (A) (A) (A) (A)
                 (A) (A) (A) (A) (A) (A) (A) (A) (A) (A) (A) (A)
                 (A) (A) (A) (A) (A) (A) (A) (A) (A) (A) (A) (A)
                 (A) (A) (A) (A) (A) (A) (A) (A) (A) (A) (A) (A)
                 (A) (A) (A) (A) (A) (A) (A) (A) (A) (A) (A) (A)
                 (A) (A) (A) (A) (A) (A) (A) (A) (A) (A) (A) (A)
                 (A) (A) (A) (A) (A) (A) (A) (A) (A) (A) (A) (A)
                 (A) (A) (A) (A) (A) (A) (A) (A) (A) (A) (A) (A)
                 (A) (A) (A) (A) (A) (A) (A) (A) (A) (A) (A)
       Virtual   (A) (A) (A) (A) (A) (A) (A) (A) (A) (A) (A) (A)
                 (A) (A) (A) (A) (A) (A) (A) (A) (A) (A) (A) (A)
                 (A) (A) (A) (A) (A) (A) (A) (A) (A) (A) (A) (A)
                 (A) (A) (A) (A) (A) (A) (A) (A) (A) (A) (A) (A)
                 (A) (A) (A) (A) (A) (A) (A) (A) (A) (A) (A) (A)
                 (A) (A) (A) (A) (A) (A) (A) (A) (A) (A) (A) (A)
                 (A) (A) (A) (A) (A) (A) (A) (A) (A) (A) (A) (A)
                 (A) (A) (A) (A) (A) (A) (A) (A) (A) (A) (A) (A)
                 (A) (A) (A) (A) (A) (A) (A) (A) (A) (A) (A) (A)
                 (A) (A) (A) (A) (A) (A) (A) (A) (A) (A) (A) (A)
                 (A) (A) (A) (A) (A) (A) (A) (A) (A) (A) (A) (A)
                 (A) (A) (A) (A) (A) (A) (A) (A) (A) (A) (A) (A)
                 (A) (A) (A) (A) (A) (A) (A) (A) (A) (A) (A) (A)
                 (A) (A) (A) (A) (A) (A) (A) (A) (A) (A) (A) (A)
                 (A) (A) (A) (A) (A) (A) (A) (A) (A) (A) (A) (A)
                 (A) (A) (A) (A) (A) (A) (A) (A) (A) (A) (A) (A)
                 (A) (A) (A) (A) (A) (A) (A) (A) (A) (A) (A) (A)
                 (A) (A) (A) (A) (A) (A) (A) (A) (A) (A) (A) (A)
                 (A) (A) (A) (A) (A) (A) (A) (A) (A) (A) (A) (A)
                 (A) (A) (A) (A) (A) (A) (A) (A) (A) (A) (A) (A)
                 (A) (A) (A) (A) (A) (A) (A) (A) (A) (A) (A) (A)
                 (A) (A) (A) (A) (A) (A) (A) (A) (A) (A) (A) (A)
                 (A) (A) (A) (A) (A) (A) (A) (A) (A) (A) (A) (A)
                 (A) (A) (A) (A) (A) (A) (A) (A) (A) (A) (A) (A)
                 (A) (A) (A) (A) (A) (A) (A) (A) (A) (A) (A) (A)
                 (A) (A) (A) (A) (A) (A) (A) (A) (A) (A) (A) (A)
                 (A) (A) (A) (A) (A) (A) (A) (A) (A) (A) (A) (A)
                 (A) (A) (A) (A) (A) (A) (A) (A) (A) (A) (A) (A)
                 (A) (A) (A) (A) (A) (A) (A) (A) (A) (A) (A) (A)
                 (A) (A) (A) (A) (A) (A) (A) (A) (A) (A) (A) (A)
                 (A) (A) (A) (A) (A) (A) (A) (A) (A) (A) (A) (A)
                 (A) (A) (A) (A) (A) (A) (A) (A) (A) (A) (A) (A)
                 (A) (A) (A) (A) (A) (A) (A) (A) (A) (A) (A) (A)
                 (A) (A) (A) (A) (A) (A) (A) (A) (A) (A) (A) (A)
                 (A) (A) (A) (A) (A) (A) (A) (A) (A) (A) (A) (A)
                 (A) (A) (A) (A) (A) (A) (A) (A) (A) (A) (A) (A)
                 (A) (A) (A) (A) (A) (A) (A) (A) (A) (A) (A) (A)
                 (A) (A) (A) (A) (A) (A) (A) (A) (A) (A) (A) (A)
                 (A) (A) (A) (A) (A) (A) (A) (A) (A) (A) (A) (A)
                 (A) (A) (A) (A) (A) (A) (A) (A) (A) (A) (A) (A)
                 (A) (A) (A) (A) (A) (A) (A) (A) (A) (A) (A) (A)
                 (A) (A) (A) (A) (A) (A) (A) (A) (A) (A) (A) (A)
                 (A) (A) (A) (A) (A) (A) (A) (A) (A) (A) (A) (A)
                 (A) (A) (A) (A) (A) (A) (A) (A) (A) (A) (A) (A)
                 (A) (A) (A) (A) (A) (A) (A) (A) (A) (A) (A) (A)
                 (A) (A) (A) (A) (A) (A) (A) (A) (A) (A) (A) (A)
                 (A) (A) (A) (A) (A) (A) (A) (A) (A) (A) (A) (A)
                 (A) (A) (A) (A) (A) (A) (A) (A) (A) (A) (A) (A)
                 (A) (A) (A) (A) (A) (A) (A) (A) (A) (A) (A) (A)
                 (A) (A) (A) (A) (A) (A) (A) (A) (A) (A) (A) (A)
                 (A) (A) (A) (A) (A) (A) (A) (A) (A) (A) (A) (A)
                 (A) (A) (A) (A) (A) (A) (A) (A) (A) (A) (A) (A)
                 (A) (A) (A) (A) (A) (A) (A) (A) (A) (A) (A) (A)
                 (A) (A) (A) (A) (A) (A) (A) (A) (A) (A) (A) (A)
                 (A) (A) (A) (A) (A) (A) (A) (A) (A) (A) (A) (A)
                 (A) (A) (A) (A) (A) (A) (A) (A) (A) (A) (A) (A)
                 (A) (A) (A) (A) (A) (A) (A) (A) (A) (A) (A) (A)
                 (A) (A) (A) (A) (A) (A) (A) (A) (A) (A) (A) (A)
                 (A) (A) (A) (A) (A) (A) (A) (A) (A) (A) (A) (A)
                 (A) (A) (A) (A) (A) (A) (A) (A) (A) (A) (A) (A)
                 (A) (A) (A) (A) (A) (A) (A) (A) (A) (A) (A) (A)
                 (A) (A) (A) (A) (A) (A) (A) (A) (A) (A) (A) (A)
                 (A) (A) (A) (A) (A) (A) (A) (A) (A) (A) (A) (A)
                 (A) (A) (A) (A) (A) (A) (A) (A) (A) (A) (A) (A)
                 (A) (A) (A) (A) (A) (A) (A) (A) (A) (A) (A) (A)
                 (A) (A) (A) (A) (A) (A) (A) (A) (A) (A) (A) (A)
                 (A) (A) (A) (A) (A) (A) (A) (A) (A) (A) (A) (A)
                 (A) (A) (A) (A) (A) (A) (A) (A) (A) (A) (A) (A)
                 (A) (A) (A) (A) (A) (A) (A) (A) (A) (A) (A) (A)
                 (A) (A) (A) (A) (A) (A) (A) (A) (A) (A) (A) (A)
                 (A) (A) (A) (A) (A) (A) (A) (A) (A) (A) (A) (A)
                 (A) (A) (A) (A) (A) (A) (A) (A) (A) (A) (A) (A)
                 (A) (A) (A) (A) (A) (A) (A) (A) (A) (A) (A) (A)
                 (A) (A) (A) (A) (A) (A) (A) (A) (A) (A) (A) (A)
                 (A) (A) (A) (A) (A) (A) (A) (A) (A) (A) (A) (A)
                 (A) (A) (A) (A) (A) (A) (A) (A) (A) (A) (A) (A)
                 (A) (A) (A) (A) (A) (A) (A) (A) (A) (A) (A) (A)
                 (A) (A) (A) (A) (A) (A) (A) (A) (A) (A) (A) (A)
                 (A) (A) (A) (A) (A) (A) (A) (A) (A) (A) (A) (A)
                 (A) (A) (A) (A) (A) (A) (A) (A) (A) (A) (A) (A)
                 (A) (A) (A) (A) (A) (A) (A) (A) (A) (A) (A) (A)
                 (A) (A) (A) (A) (A) (A) (A) (A) (A) (A) (A) (A)
                 (A) (A) (A) (A) (A) (A) (A) (A) (A) (A) (A) (A)
                 (A) (A) (A) (A) (A) (A) (A) (A) (A) (A) (A) (A)
                 (A) (A) (A) (A) (A) (A) (A) (A) (A) (A) (A) (A)
                 (A) (A) (A) (A) (A) (A) (A) (A) (A) (A) (A) (A)
                 (A) (A) (A) (A) (A) (A) (A) (A) (A) (A) (A) (A)
                 (A) (A) (A) (A) (A) (A) (A) (A) (A) (A) (A) (A)
                 (A) (A) (A) (A) (A) (A) (A) (A) (A) (A) (A) (A)
                 (A) (A) (A) (A) (A) (A) (A) (A) (A) (A) (A) (A)
                 (A) (A) (A) (A) (A) (A) (A) (A) (A) (A) (A) (A)
                 (A) (A) (A) (A) (A) (A) (A) (A) (A) (A) (A) (A)
                 (A) (A) (A) (A) (A) (A) (A) (A) (A) (A) (A) (A)
                 (A) (A) (A) (A) (A) (A) (A) (A) (A) (A) (A) (A)
                 (A) (A) (A) (A) (A) (A) (A) (A) (A) (A) (A) (A)
                 (A) (A) (A) (A) (A) (A) (A) (A) (A) (A) (A) (A)
                 (A) (A) (A) (A) (A) (A) (A) (A) (A) (A) (A) (A)
                 (A) (A) (A) (A) (A) (A) (A) (A) (A) (A) (A) (A)
                 (A) (A) (A) (A) (A) (A) (A) (A) (A) (A) (A) (A)
                 (A) (A) (A) (A) (A) (A) (A) (A) (A) (A) (A) (A)
                 (A) (A) (A) (A) (A) (A) (A) (A) (A) (A) (A) (A)
                 (A) (A) (A) (A) (A) (A) (A) (A) (A) (A) (A) (A)
                 (A) (A) (A) (A) (A) (A) (A) (A) (A) (A) (A) (A)
                 (A) (A) (A) (A) (A) (A) (A) (A) (A) (A) (A) (A)
                 (A) (A) (A) (A) (A) (A) (A) (A) (A) (A) (A) (A)
                 (A) (A) (A) (A) (A) (A) (A) (A) (A) (A) (A) (A)
                 (A) (A) (A) (A) (A) (A) (A) (A) (A) (A) (A) (A)
                 (A) (A) (A) (A) (A) (A) (A) (A) (A) (A) (A) (A)
                 (A) (A) (A) (A) (A) (A) (A) (A) (A) (A) (A) (A)
                 (A) (A) (A) (A) (A) (A) (A) (A) (A) (A) (A) (A)
                 (A) (A) (A) (A) (A) (A) (A) (A) (A) (A) (A) (A)
                 (A) (A) (A) (A) (A) (A) (A) (A) (A) (A) (A) (A)
                 (A) (A) (A) (A) (A) (A) (A) (A) (A) (A) (A) (A)
                 (A) (A) (A) (A) (A) (A) (A) (A) (A) (A) (A) (A)
                 (A) (A) (A) (A) (A) (A) (A) (A) (A) (A) (A) (A)
                 (A) (A) (A) (A) (A) (A) (A) (A) (A) (A) (A) (A)
                 (A) (A) (A) (A) (A) (A) (A) (A) (A) (A) (A) (A)
                 (A) (A) (A) (A) (A) (A) (A) (A) (A) (A) (A) (A)
                 (A) (A) (A) (A) (A) (A) (A) (A) (A) (A) (A) (A)
                 (A) (A) (A) (A) (A) (A) (A) (A) (A) (A) (A) (A)
                 (A) (A) (A) (A) (A) (A) (A) (A) (A) (A) (A) (A)
                 (A) (A) (A) (A) (A) (A) (A) (A) (A) (A) (A) (A)
                 (A) (A) (A) (A) (A) (A) (A) (A) (A) (A) (A) (A)
                 (A) (A) (A) (A) (A) (A) (A) (A) (A) (A) (A) (A)
                 (A) (A) (A) (A) (A) (A) (A) (A) (A) (A) (A) (A)
                 (A) (A) (A) (A) (A) (A) (A) (A) (A) (A) (A) (A)
                 (A) (A) (A) (A) (A) (A) (A) (A) (A) (A) (A) (A)
                 (A) (A) (A) (A) (A) (A) (A) (A) (A) (A) (A) (A)
                 (A) (A) (A) (A) (A) (A) (A) (A) (A) (A) (A) (A)
                 (A) (A) (A) (A) (A) (A) (A) (A) (A) (A) (A) (A)
                 (A) (A) (A) (A) (A) (A) (A) (A) (A) (A) (A) (A)
                 (A) (A) (A) (A) (A) (A) (A) (A) (A) (A) (A) (A)
                 (A) (A) (A) (A) (A) (A) (A) (A) (A) (A) (A) (A)
                 (A) (A) (A) (A) (A) (A) (A) (A) (A) (A) (A) (A)
                 (A) (A) (A) (A) (A) (A) (A) (A) (A) (A) (A) (A)
                 (A) (A) (A) (A) (A) (A) (A) (A) (A) (A) (A) (A)
                 (A) (A) (A) (A) (A) (A) (A) (A) (A) (A) (A) (A)
                 (A) (A) (A) (A) (A) (A) (A) (A) (A) (A) (A) (A)
                 (A) (A) (A) (A) (A) (A) (A) (A) (A) (A) (A) (A)
                 (A) (A) (A) (A) (A) (A) (A) (A) (A) (A) (A) (A)
                 (A) (A) (A) (A) (A) (A) (A) (A) (A) (A) (A) (A)
                 (A) (A) (A) (A) (A) (A) (A) (A) (A) (A) (A) (A)
                 (A) (A) (A) (A) (A) (A) (A) (A) (A) (A) (A) (A)
                 (A) (A) (A) (A) (A) (A) (A) (A) (A) (A) (A) (A)
                 (A) (A) (A) (A) (A) (A) (A) (A) (A) (A) (A) (A)
                 (A) (A) (A) (A) (A) (A) (A) (A) (A) (A) (A) (A)
                 (A) (A) (A) (A) (A) (A) (A) (A) (A) (A) (A) (A)
                 (A) (A) (A) (A) (A) (A) (A) (A) (A) (A) (A) (A)
                 (A) (A) (A) (A) (A) (A) (A) (A) (A) (A) (A) (A)
                 (A) (A) (A) (A)
 The electronic state is 6-A.
 Alpha  occ. eigenvalues -- -256.50270 -30.31180 -26.14437 -26.12519 -26.12405
 Alpha  occ. eigenvalues --  -19.33754 -19.32536 -19.25350 -19.23542 -14.54589
 Alpha  occ. eigenvalues --  -14.54230 -14.48737 -14.48719 -14.48628 -14.48551
 Alpha  occ. eigenvalues --  -14.48465 -14.48386 -10.42394 -10.41696 -10.38405
 Alpha  occ. eigenvalues --  -10.38063 -10.36014 -10.35791 -10.35770 -10.35685
 Alpha  occ. eigenvalues --  -10.35633 -10.35630 -10.35611 -10.35573 -10.35571
 Alpha  occ. eigenvalues --  -10.35429 -10.33269 -10.32988 -10.32860 -10.32693
 Alpha  occ. eigenvalues --  -10.32639 -10.32621 -10.32583 -10.32508 -10.32492
 Alpha  occ. eigenvalues --  -10.32444 -10.32395 -10.32233 -10.32097 -10.31973
 Alpha  occ. eigenvalues --  -10.31823 -10.31534 -10.31432 -10.31412 -10.31092
 Alpha  occ. eigenvalues --  -10.31043 -10.30907 -10.30815 -10.30538 -10.30167
 Alpha  occ. eigenvalues --  -10.30112 -10.30102 -10.28692 -10.28081  -3.70659
 Alpha  occ. eigenvalues --   -2.50225  -2.44717  -2.44524  -1.24121  -1.23615
 Alpha  occ. eigenvalues --   -1.16661  -1.16350  -1.10102  -1.08700  -1.08071
 Alpha  occ. eigenvalues --   -1.06993  -1.06939  -1.05916  -1.01305  -1.00934
 Alpha  occ. eigenvalues --   -0.94231  -0.94214  -0.93616  -0.93288  -0.93009
 Alpha  occ. eigenvalues --   -0.91177  -0.90951  -0.90643  -0.90540  -0.88690
 Alpha  occ. eigenvalues --   -0.88088  -0.87687  -0.87466  -0.85536  -0.83721
 Alpha  occ. eigenvalues --   -0.82152  -0.81873  -0.81658  -0.81528  -0.81315
 Alpha  occ. eigenvalues --   -0.79058  -0.77940  -0.77563  -0.75938  -0.75775
 Alpha  occ. eigenvalues --   -0.75182  -0.74665  -0.74591  -0.74252  -0.73086
 Alpha  occ. eigenvalues --   -0.72681  -0.72301  -0.71939  -0.69344  -0.68019
 Alpha  occ. eigenvalues --   -0.66664  -0.66417  -0.65881  -0.64937  -0.64543
 Alpha  occ. eigenvalues --   -0.64091  -0.62777  -0.62439  -0.62240  -0.61272
 Alpha  occ. eigenvalues --   -0.60559  -0.60100  -0.59126  -0.58635  -0.58527
 Alpha  occ. eigenvalues --   -0.58418  -0.57935  -0.57876  -0.57660  -0.57510
 Alpha  occ. eigenvalues --   -0.56998  -0.56590  -0.55865  -0.55591  -0.55384
 Alpha  occ. eigenvalues --   -0.55038  -0.54685  -0.54514  -0.54448  -0.54089
 Alpha  occ. eigenvalues --   -0.53987  -0.53809  -0.53538  -0.53428  -0.53214
 Alpha  occ. eigenvalues --   -0.52910  -0.52721  -0.52572  -0.52476  -0.52384
 Alpha  occ. eigenvalues --   -0.52083  -0.51961  -0.51856  -0.51757  -0.51487
 Alpha  occ. eigenvalues --   -0.51335  -0.50928  -0.50768  -0.50699  -0.50525
 Alpha  occ. eigenvalues --   -0.50375  -0.50109  -0.49620  -0.49348  -0.49215
 Alpha  occ. eigenvalues --   -0.48897  -0.48684  -0.48638  -0.48285  -0.47959
 Alpha  occ. eigenvalues --   -0.47867  -0.47610  -0.47344  -0.47317  -0.46914
 Alpha  occ. eigenvalues --   -0.46710  -0.46555  -0.46229  -0.45507  -0.45149
 Alpha  occ. eigenvalues --   -0.44722  -0.44443  -0.44379  -0.44193  -0.43242
 Alpha  occ. eigenvalues --   -0.42985  -0.42518  -0.42437  -0.41361  -0.41072
 Alpha  occ. eigenvalues --   -0.40285  -0.39988  -0.38492  -0.38351  -0.38132
 Alpha  occ. eigenvalues --   -0.35455  -0.35206  -0.35081  -0.34675  -0.34400
 Alpha  occ. eigenvalues --   -0.34118  -0.33614  -0.33009  -0.30904  -0.30199
 Alpha  occ. eigenvalues --   -0.29758  -0.28567  -0.27508
 Alpha virt. eigenvalues --   -0.17638  -0.17494  -0.16991  -0.10913  -0.08928
 Alpha virt. eigenvalues --   -0.08128  -0.07750  -0.06724  -0.06394  -0.05819
 Alpha virt. eigenvalues --   -0.05514  -0.05220  -0.04821  -0.04715  -0.04242
 Alpha virt. eigenvalues --   -0.04033  -0.03860  -0.03381  -0.03250  -0.02979
 Alpha virt. eigenvalues --   -0.02662  -0.02493  -0.01959  -0.01559  -0.01512
 Alpha virt. eigenvalues --   -0.01254  -0.00829  -0.00635  -0.00448   0.00003
 Alpha virt. eigenvalues --    0.00265   0.00426   0.00953   0.01350   0.01536
 Alpha virt. eigenvalues --    0.01751   0.01951   0.02517   0.02578   0.02803
 Alpha virt. eigenvalues --    0.03149   0.03200   0.03571   0.03752   0.03984
 Alpha virt. eigenvalues --    0.04132   0.04194   0.04310   0.04563   0.04734
 Alpha virt. eigenvalues --    0.04848   0.04973   0.05123   0.05254   0.05357
 Alpha virt. eigenvalues --    0.05690   0.05863   0.06062   0.06314   0.06565
 Alpha virt. eigenvalues --    0.06614   0.06872   0.06993   0.07187   0.07478
 Alpha virt. eigenvalues --    0.07765   0.07888   0.07922   0.08197   0.08275
 Alpha virt. eigenvalues --    0.08528   0.08655   0.08975   0.09497   0.09709
 Alpha virt. eigenvalues --    0.10093   0.10334   0.10374   0.10447   0.10756
 Alpha virt. eigenvalues --    0.10991   0.11381   0.11529   0.11617   0.11761
 Alpha virt. eigenvalues --    0.12074   0.12218   0.12229   0.12469   0.12731
 Alpha virt. eigenvalues --    0.13076   0.13344   0.13379   0.13512   0.13825
 Alpha virt. eigenvalues --    0.14141   0.14200   0.14299   0.14581   0.14623
 Alpha virt. eigenvalues --    0.14805   0.15040   0.15215   0.15388   0.15541
 Alpha virt. eigenvalues --    0.15645   0.15715   0.16050   0.16338   0.16622
 Alpha virt. eigenvalues --    0.16987   0.17073   0.17417   0.17741   0.17807
 Alpha virt. eigenvalues --    0.18121   0.18301   0.18384   0.18699   0.18905
 Alpha virt. eigenvalues --    0.19098   0.19272   0.19470   0.19726   0.19837
 Alpha virt. eigenvalues --    0.20198   0.20398   0.20492   0.20626   0.21003
 Alpha virt. eigenvalues --    0.21178   0.21385   0.21580   0.21614   0.22010
 Alpha virt. eigenvalues --    0.22044   0.22274   0.22521   0.22621   0.22787
 Alpha virt. eigenvalues --    0.23013   0.23290   0.23351   0.23873   0.24061
 Alpha virt. eigenvalues --    0.24183   0.24721   0.25034   0.25306   0.25419
 Alpha virt. eigenvalues --    0.25543   0.25777   0.25892   0.26051   0.26449
 Alpha virt. eigenvalues --    0.26580   0.26813   0.27036   0.27265   0.27445
 Alpha virt. eigenvalues --    0.27828   0.27995   0.28281   0.28472   0.28715
 Alpha virt. eigenvalues --    0.28846   0.28978   0.29146   0.29364   0.29654
 Alpha virt. eigenvalues --    0.29829   0.30013   0.30178   0.30534   0.30659
 Alpha virt. eigenvalues --    0.30701   0.30932   0.31155   0.31283   0.31465
 Alpha virt. eigenvalues --    0.31542   0.31771   0.32035   0.32106   0.32532
 Alpha virt. eigenvalues --    0.32577   0.32684   0.32816   0.33026   0.33110
 Alpha virt. eigenvalues --    0.33384   0.33771   0.33923   0.33957   0.34062
 Alpha virt. eigenvalues --    0.34269   0.34448   0.34506   0.34727   0.34815
 Alpha virt. eigenvalues --    0.35095   0.35203   0.35397   0.35582   0.35913
 Alpha virt. eigenvalues --    0.36005   0.36128   0.36318   0.36372   0.36537
 Alpha virt. eigenvalues --    0.36856   0.36909   0.37081   0.37431   0.37447
 Alpha virt. eigenvalues --    0.37794   0.38087   0.38190   0.38253   0.38478
 Alpha virt. eigenvalues --    0.38539   0.38936   0.39030   0.39422   0.39545
 Alpha virt. eigenvalues --    0.39670   0.39832   0.40030   0.40118   0.40338
 Alpha virt. eigenvalues --    0.40404   0.40616   0.40828   0.41079   0.41189
 Alpha virt. eigenvalues --    0.41326   0.41400   0.41705   0.41798   0.41922
 Alpha virt. eigenvalues --    0.41999   0.42116   0.42376   0.42463   0.42687
 Alpha virt. eigenvalues --    0.42871   0.42942   0.43193   0.43214   0.43596
 Alpha virt. eigenvalues --    0.43733   0.43906   0.44112   0.44260   0.44285
 Alpha virt. eigenvalues --    0.44345   0.44550   0.44807   0.45077   0.45441
 Alpha virt. eigenvalues --    0.45578   0.45734   0.45961   0.46052   0.46211
 Alpha virt. eigenvalues --    0.46414   0.46526   0.46834   0.46905   0.47136
 Alpha virt. eigenvalues --    0.47470   0.47591   0.47828   0.47905   0.48305
 Alpha virt. eigenvalues --    0.48508   0.48548   0.48932   0.49110   0.49399
 Alpha virt. eigenvalues --    0.49582   0.49775   0.49948   0.50176   0.50375
 Alpha virt. eigenvalues --    0.50704   0.50926   0.51186   0.51517   0.51607
 Alpha virt. eigenvalues --    0.52042   0.52103   0.52257   0.52601   0.52692
 Alpha virt. eigenvalues --    0.52958   0.53156   0.53334   0.53649   0.53849
 Alpha virt. eigenvalues --    0.54089   0.54275   0.54450   0.54875   0.55136
 Alpha virt. eigenvalues --    0.55317   0.55522   0.55585   0.55941   0.56149
 Alpha virt. eigenvalues --    0.56481   0.56685   0.56761   0.57052   0.57332
 Alpha virt. eigenvalues --    0.57525   0.57604   0.58156   0.58172   0.58439
 Alpha virt. eigenvalues --    0.58889   0.59113   0.59358   0.59614   0.59749
 Alpha virt. eigenvalues --    0.60128   0.60402   0.60795   0.61072   0.61128
 Alpha virt. eigenvalues --    0.61341   0.61600   0.61720   0.62028   0.62342
 Alpha virt. eigenvalues --    0.62578   0.62944   0.63253   0.63600   0.63662
 Alpha virt. eigenvalues --    0.63897   0.64257   0.64584   0.65005   0.65118
 Alpha virt. eigenvalues --    0.65160   0.65476   0.65964   0.66156   0.66451
 Alpha virt. eigenvalues --    0.66748   0.67055   0.67186   0.67451   0.67819
 Alpha virt. eigenvalues --    0.68139   0.68531   0.69155   0.69348   0.69655
 Alpha virt. eigenvalues --    0.69802   0.69862   0.70233   0.70422   0.70548
 Alpha virt. eigenvalues --    0.71071   0.71127   0.71761   0.71951   0.72322
 Alpha virt. eigenvalues --    0.72483   0.72896   0.73220   0.73528   0.73884
 Alpha virt. eigenvalues --    0.74331   0.74784   0.74848   0.75179   0.75297
 Alpha virt. eigenvalues --    0.75517   0.76068   0.76303   0.76643   0.76884
 Alpha virt. eigenvalues --    0.77221   0.77374   0.77584   0.77727   0.77952
 Alpha virt. eigenvalues --    0.78264   0.78609   0.78796   0.79110   0.79759
 Alpha virt. eigenvalues --    0.80051   0.80106   0.80406   0.80790   0.81053
 Alpha virt. eigenvalues --    0.81101   0.81703   0.81961   0.82273   0.82483
 Alpha virt. eigenvalues --    0.82664   0.83122   0.83188   0.83681   0.84010
 Alpha virt. eigenvalues --    0.84219   0.84394   0.84870   0.84982   0.85073
 Alpha virt. eigenvalues --    0.85309   0.85478   0.85696   0.86208   0.86310
 Alpha virt. eigenvalues --    0.86424   0.86924   0.87252   0.87363   0.87653
 Alpha virt. eigenvalues --    0.87974   0.88083   0.88544   0.88598   0.88905
 Alpha virt. eigenvalues --    0.89305   0.89601   0.89798   0.90110   0.90476
 Alpha virt. eigenvalues --    0.90671   0.91001   0.91110   0.91392   0.91488
 Alpha virt. eigenvalues --    0.91853   0.92120   0.92239   0.92590   0.92661
 Alpha virt. eigenvalues --    0.92983   0.93597   0.93828   0.94258   0.94303
 Alpha virt. eigenvalues --    0.94578   0.94861   0.95153   0.95466   0.95561
 Alpha virt. eigenvalues --    0.95683   0.95918   0.96357   0.96443   0.96589
 Alpha virt. eigenvalues --    0.96762   0.97234   0.97590   0.97706   0.98287
 Alpha virt. eigenvalues --    0.98650   0.99072   0.99338   0.99558   0.99879
 Alpha virt. eigenvalues --    1.00241   1.00779   1.00989   1.01173   1.01354
 Alpha virt. eigenvalues --    1.01789   1.02391   1.02485   1.02880   1.03164
 Alpha virt. eigenvalues --    1.03433   1.03645   1.04327   1.04430   1.04468
 Alpha virt. eigenvalues --    1.04720   1.04758   1.05244   1.05446   1.05693
 Alpha virt. eigenvalues --    1.06113   1.06429   1.06795   1.07352   1.07727
 Alpha virt. eigenvalues --    1.08467   1.08687   1.08771   1.09095   1.09491
 Alpha virt. eigenvalues --    1.09878   1.10364   1.10800   1.11193   1.11443
 Alpha virt. eigenvalues --    1.11801   1.11953   1.12240   1.12593   1.13157
 Alpha virt. eigenvalues --    1.13306   1.13877   1.13961   1.14339   1.14628
 Alpha virt. eigenvalues --    1.14838   1.15473   1.15655   1.15955   1.15958
 Alpha virt. eigenvalues --    1.16288   1.16564   1.16961   1.17238   1.17645
 Alpha virt. eigenvalues --    1.17713   1.18852   1.19344   1.19456   1.19577
 Alpha virt. eigenvalues --    1.19932   1.20258   1.20332   1.20600   1.21053
 Alpha virt. eigenvalues --    1.21507   1.21769   1.21898   1.22531   1.22988
 Alpha virt. eigenvalues --    1.23208   1.23524   1.24168   1.24420   1.24843
 Alpha virt. eigenvalues --    1.25198   1.25298   1.25634   1.25911   1.26334
 Alpha virt. eigenvalues --    1.26434   1.26903   1.27322   1.27649   1.28020
 Alpha virt. eigenvalues --    1.28406   1.28558   1.28856   1.29429   1.29463
 Alpha virt. eigenvalues --    1.29669   1.29990   1.30446   1.30666   1.31113
 Alpha virt. eigenvalues --    1.31499   1.31725   1.32099   1.32386   1.33465
 Alpha virt. eigenvalues --    1.33930   1.34145   1.34569   1.34791   1.35420
 Alpha virt. eigenvalues --    1.35583   1.35869   1.36178   1.36746   1.36872
 Alpha virt. eigenvalues --    1.37419   1.37573   1.37997   1.38155   1.38414
 Alpha virt. eigenvalues --    1.38982   1.39142   1.39545   1.39750   1.39936
 Alpha virt. eigenvalues --    1.40144   1.40567   1.40615   1.41272   1.41321
 Alpha virt. eigenvalues --    1.41639   1.42057   1.42129   1.42538   1.42999
 Alpha virt. eigenvalues --    1.43393   1.43475   1.43817   1.44237   1.44482
 Alpha virt. eigenvalues --    1.44740   1.44868   1.44998   1.45372   1.45395
 Alpha virt. eigenvalues --    1.45748   1.46110   1.46176   1.46527   1.46781
 Alpha virt. eigenvalues --    1.47054   1.47079   1.47315   1.47510   1.47818
 Alpha virt. eigenvalues --    1.47991   1.48244   1.48445   1.48626   1.48935
 Alpha virt. eigenvalues --    1.49187   1.49299   1.49575   1.49720   1.50003
 Alpha virt. eigenvalues --    1.50167   1.50504   1.50772   1.50913   1.51146
 Alpha virt. eigenvalues --    1.51307   1.51652   1.51926   1.52020   1.52282
 Alpha virt. eigenvalues --    1.52705   1.52791   1.53087   1.53408   1.53730
 Alpha virt. eigenvalues --    1.53993   1.54219   1.54409   1.54462   1.54702
 Alpha virt. eigenvalues --    1.54806   1.55104   1.55524   1.55780   1.56007
 Alpha virt. eigenvalues --    1.56421   1.56525   1.56889   1.57129   1.57288
 Alpha virt. eigenvalues --    1.57595   1.57685   1.57886   1.58213   1.58452
 Alpha virt. eigenvalues --    1.58907   1.59196   1.59538   1.59814   1.60143
 Alpha virt. eigenvalues --    1.60499   1.60728   1.60766   1.60962   1.61303
 Alpha virt. eigenvalues --    1.61650   1.61845   1.62059   1.62227   1.62564
 Alpha virt. eigenvalues --    1.62821   1.63535   1.63639   1.63903   1.64349
 Alpha virt. eigenvalues --    1.64942   1.65161   1.65471   1.65568   1.65664
 Alpha virt. eigenvalues --    1.65975   1.66687   1.66827   1.67629   1.67770
 Alpha virt. eigenvalues --    1.68149   1.68604   1.68726   1.69320   1.69752
 Alpha virt. eigenvalues --    1.70338   1.70423   1.70921   1.71758   1.71959
 Alpha virt. eigenvalues --    1.72487   1.72762   1.73151   1.73527   1.73737
 Alpha virt. eigenvalues --    1.74439   1.74895   1.75092   1.75465   1.75796
 Alpha virt. eigenvalues --    1.75880   1.76204   1.76486   1.76891   1.77541
 Alpha virt. eigenvalues --    1.78048   1.78189   1.78505   1.78748   1.79072
 Alpha virt. eigenvalues --    1.79266   1.79757   1.80110   1.80352   1.80686
 Alpha virt. eigenvalues --    1.81439   1.81692   1.82061   1.82253   1.82554
 Alpha virt. eigenvalues --    1.83149   1.83506   1.83915   1.84194   1.84375
 Alpha virt. eigenvalues --    1.84606   1.84871   1.85556   1.85764   1.86560
 Alpha virt. eigenvalues --    1.86957   1.87224   1.87368   1.87711   1.87856
 Alpha virt. eigenvalues --    1.88247   1.88498   1.88596   1.89005   1.89510
 Alpha virt. eigenvalues --    1.89752   1.90230   1.90404   1.90770   1.91171
 Alpha virt. eigenvalues --    1.91451   1.91744   1.91879   1.92197   1.92719
 Alpha virt. eigenvalues --    1.92993   1.93097   1.93357   1.94336   1.94772
 Alpha virt. eigenvalues --    1.94821   1.95319   1.95552   1.95681   1.96280
 Alpha virt. eigenvalues --    1.96645   1.96934   1.97261   1.97582   1.98159
 Alpha virt. eigenvalues --    1.98405   1.98936   1.99527   1.99843   2.00050
 Alpha virt. eigenvalues --    2.00299   2.00813   2.00824   2.01627   2.01751
 Alpha virt. eigenvalues --    2.02070   2.02384   2.02695   2.03092   2.03451
 Alpha virt. eigenvalues --    2.03762   2.04157   2.04421   2.04628   2.04871
 Alpha virt. eigenvalues --    2.04929   2.05240   2.05631   2.05855   2.06328
 Alpha virt. eigenvalues --    2.06817   2.07094   2.07447   2.07693   2.08079
 Alpha virt. eigenvalues --    2.08559   2.08779   2.09318   2.09430   2.09458
 Alpha virt. eigenvalues --    2.10544   2.10685   2.10818   2.11265   2.11350
 Alpha virt. eigenvalues --    2.11444   2.11880   2.12286   2.12480   2.12689
 Alpha virt. eigenvalues --    2.13183   2.13585   2.13796   2.14313   2.14417
 Alpha virt. eigenvalues --    2.14747   2.15141   2.15689   2.16122   2.16686
 Alpha virt. eigenvalues --    2.17090   2.17494   2.17991   2.18471   2.18734
 Alpha virt. eigenvalues --    2.19306   2.19602   2.20151   2.20310   2.20694
 Alpha virt. eigenvalues --    2.20915   2.21107   2.21975   2.22325   2.22647
 Alpha virt. eigenvalues --    2.22950   2.23264   2.23453   2.23983   2.24407
 Alpha virt. eigenvalues --    2.24694   2.25166   2.25295   2.25510   2.25664
 Alpha virt. eigenvalues --    2.26123   2.26893   2.27069   2.27316   2.27401
 Alpha virt. eigenvalues --    2.27461   2.27881   2.28160   2.28345   2.28811
 Alpha virt. eigenvalues --    2.29341   2.29400   2.29800   2.30216   2.30417
 Alpha virt. eigenvalues --    2.30675   2.31046   2.31072   2.31536   2.32093
 Alpha virt. eigenvalues --    2.32566   2.32836   2.32935   2.33108   2.33442
 Alpha virt. eigenvalues --    2.33900   2.34152   2.34343   2.34936   2.35079
 Alpha virt. eigenvalues --    2.35587   2.35761   2.36043   2.36236   2.36763
 Alpha virt. eigenvalues --    2.36961   2.37217   2.37482   2.38071   2.38280
 Alpha virt. eigenvalues --    2.38858   2.39307   2.39515   2.40014   2.40495
 Alpha virt. eigenvalues --    2.41015   2.41215   2.41640   2.42003   2.42316
 Alpha virt. eigenvalues --    2.42770   2.43347   2.43891   2.43942   2.44013
 Alpha virt. eigenvalues --    2.44188   2.44903   2.45273   2.45403   2.45867
 Alpha virt. eigenvalues --    2.46309   2.46632   2.46878   2.46933   2.47381
 Alpha virt. eigenvalues --    2.47536   2.47734   2.47941   2.48341   2.48613
 Alpha virt. eigenvalues --    2.48978   2.49174   2.49687   2.49728   2.49913
 Alpha virt. eigenvalues --    2.50156   2.50289   2.50540   2.51341   2.51707
 Alpha virt. eigenvalues --    2.51881   2.52092   2.52351   2.52964   2.53105
 Alpha virt. eigenvalues --    2.53651   2.53747   2.53951   2.54532   2.54613
 Alpha virt. eigenvalues --    2.54977   2.55141   2.55406   2.55751   2.56065
 Alpha virt. eigenvalues --    2.56433   2.56829   2.56982   2.57574   2.57889
 Alpha virt. eigenvalues --    2.58074   2.58331   2.58619   2.59047   2.59317
 Alpha virt. eigenvalues --    2.59443   2.59913   2.60381   2.60669   2.60884
 Alpha virt. eigenvalues --    2.61181   2.61478   2.61823   2.62235   2.62592
 Alpha virt. eigenvalues --    2.62697   2.63157   2.63278   2.63629   2.64017
 Alpha virt. eigenvalues --    2.64243   2.64377   2.64642   2.65003   2.65073
 Alpha virt. eigenvalues --    2.65667   2.66040   2.66424   2.66631   2.66785
 Alpha virt. eigenvalues --    2.67625   2.67766   2.68089   2.68212   2.68561
 Alpha virt. eigenvalues --    2.68930   2.69453   2.69864   2.69964   2.70376
 Alpha virt. eigenvalues --    2.70776   2.70857   2.71223   2.71369   2.71867
 Alpha virt. eigenvalues --    2.72203   2.72590   2.72768   2.73035   2.73472
 Alpha virt. eigenvalues --    2.73962   2.74273   2.74408   2.74963   2.75198
 Alpha virt. eigenvalues --    2.75931   2.76010   2.76254   2.76866   2.77334
 Alpha virt. eigenvalues --    2.77649   2.78244   2.78388   2.79050   2.79599
 Alpha virt. eigenvalues --    2.80067   2.80228   2.80590   2.80735   2.80813
 Alpha virt. eigenvalues --    2.81175   2.81540   2.81918   2.82353   2.82580
 Alpha virt. eigenvalues --    2.83049   2.83460   2.83618   2.83809   2.84153
 Alpha virt. eigenvalues --    2.84423   2.84600   2.84816   2.85039   2.85496
 Alpha virt. eigenvalues --    2.85836   2.86135   2.86265   2.86601   2.87000
 Alpha virt. eigenvalues --    2.87298   2.87467   2.87699   2.87909   2.88264
 Alpha virt. eigenvalues --    2.88418   2.88868   2.89101   2.89214   2.89667
 Alpha virt. eigenvalues --    2.89807   2.90094   2.90414   2.90742   2.90831
 Alpha virt. eigenvalues --    2.90963   2.91351   2.91609   2.91764   2.92078
 Alpha virt. eigenvalues --    2.92335   2.92745   2.92849   2.93497   2.93782
 Alpha virt. eigenvalues --    2.93880   2.94023   2.94716   2.94884   2.95054
 Alpha virt. eigenvalues --    2.95302   2.95756   2.96261   2.96497   2.96723
 Alpha virt. eigenvalues --    2.96884   2.97059   2.97555   2.97862   2.97913
 Alpha virt. eigenvalues --    2.98004   2.98428   2.98807   2.99176   2.99387
 Alpha virt. eigenvalues --    2.99676   2.99822   3.00044   3.00332   3.00466
 Alpha virt. eigenvalues --    3.00641   3.01249   3.01641   3.01868   3.01961
 Alpha virt. eigenvalues --    3.02324   3.02510   3.02790   3.02836   3.03117
 Alpha virt. eigenvalues --    3.03253   3.03485   3.03945   3.03954   3.04229
 Alpha virt. eigenvalues --    3.04527   3.04688   3.04870   3.05247   3.05459
 Alpha virt. eigenvalues --    3.05850   3.05939   3.06449   3.06572   3.06724
 Alpha virt. eigenvalues --    3.06789   3.07341   3.07765   3.08073   3.08225
 Alpha virt. eigenvalues --    3.08471   3.08682   3.08978   3.09185   3.09465
 Alpha virt. eigenvalues --    3.09583   3.10031   3.10255   3.10478   3.10772
 Alpha virt. eigenvalues --    3.10962   3.11361   3.11825   3.12009   3.12187
 Alpha virt. eigenvalues --    3.12749   3.12949   3.13087   3.13272   3.13927
 Alpha virt. eigenvalues --    3.14170   3.14493   3.14703   3.14804   3.15344
 Alpha virt. eigenvalues --    3.15466   3.15636   3.15884   3.15910   3.16161
 Alpha virt. eigenvalues --    3.16539   3.16747   3.16809   3.17116   3.17299
 Alpha virt. eigenvalues --    3.17514   3.17730   3.18069   3.18282   3.18643
 Alpha virt. eigenvalues --    3.18751   3.19099   3.19349   3.19499   3.19847
 Alpha virt. eigenvalues --    3.20182   3.20473   3.20683   3.21059   3.21214
 Alpha virt. eigenvalues --    3.21456   3.21841   3.22056   3.22256   3.22541
 Alpha virt. eigenvalues --    3.22796   3.23331   3.23364   3.23623   3.23686
 Alpha virt. eigenvalues --    3.24020   3.24217   3.24551   3.24771   3.25062
 Alpha virt. eigenvalues --    3.25138   3.25548   3.25744   3.26163   3.26224
 Alpha virt. eigenvalues --    3.26714   3.26890   3.27224   3.27380   3.27538
 Alpha virt. eigenvalues --    3.27703   3.27869   3.28202   3.28333   3.28410
 Alpha virt. eigenvalues --    3.28500   3.29011   3.29161   3.29303   3.29699
 Alpha virt. eigenvalues --    3.29910   3.29981   3.30295   3.30483   3.30772
 Alpha virt. eigenvalues --    3.31215   3.31314   3.31703   3.31965   3.32072
 Alpha virt. eigenvalues --    3.32514   3.32732   3.33066   3.33120   3.33481
 Alpha virt. eigenvalues --    3.33560   3.34203   3.34377   3.34658   3.34866
 Alpha virt. eigenvalues --    3.34982   3.35341   3.35801   3.36052   3.36245
 Alpha virt. eigenvalues --    3.36523   3.36822   3.36871   3.37426   3.37688
 Alpha virt. eigenvalues --    3.38222   3.38361   3.38892   3.39017   3.39449
 Alpha virt. eigenvalues --    3.39691   3.39831   3.40137   3.40561   3.40853
 Alpha virt. eigenvalues --    3.41112   3.41572   3.42026   3.42132   3.42554
 Alpha virt. eigenvalues --    3.42629   3.42791   3.43334   3.43496   3.43660
 Alpha virt. eigenvalues --    3.44035   3.44737   3.44839   3.45089   3.45611
 Alpha virt. eigenvalues --    3.45800   3.45852   3.46401   3.46474   3.47159
 Alpha virt. eigenvalues --    3.47475   3.48063   3.48433   3.48881   3.49381
 Alpha virt. eigenvalues --    3.49450   3.49777   3.49934   3.50377   3.50561
 Alpha virt. eigenvalues --    3.50882   3.51245   3.51548   3.51898   3.52084
 Alpha virt. eigenvalues --    3.52298   3.52870   3.53368   3.53567   3.53749
 Alpha virt. eigenvalues --    3.54121   3.54646   3.54927   3.55095   3.55295
 Alpha virt. eigenvalues --    3.55566   3.56214   3.56366   3.56551   3.57068
 Alpha virt. eigenvalues --    3.57305   3.57583   3.58214   3.58323   3.58409
 Alpha virt. eigenvalues --    3.58903   3.59197   3.59881   3.59925   3.60130
 Alpha virt. eigenvalues --    3.60413   3.60666   3.61283   3.61643   3.62217
 Alpha virt. eigenvalues --    3.62302   3.62948   3.63358   3.63755   3.64312
 Alpha virt. eigenvalues --    3.64565   3.64824   3.64931   3.65329   3.65758
 Alpha virt. eigenvalues --    3.65866   3.66056   3.66830   3.67110   3.67266
 Alpha virt. eigenvalues --    3.67352   3.68033   3.68622   3.68969   3.69482
 Alpha virt. eigenvalues --    3.69858   3.70040   3.70183   3.71079   3.71780
 Alpha virt. eigenvalues --    3.72302   3.72386   3.72741   3.73423   3.73654
 Alpha virt. eigenvalues --    3.74021   3.74654   3.74830   3.75358   3.75649
 Alpha virt. eigenvalues --    3.75875   3.76010   3.76524   3.77183   3.77796
 Alpha virt. eigenvalues --    3.77891   3.78738   3.78993   3.79680   3.80356
 Alpha virt. eigenvalues --    3.80640   3.80874   3.81437   3.81601   3.82122
 Alpha virt. eigenvalues --    3.82677   3.83236   3.83530   3.83767   3.83878
 Alpha virt. eigenvalues --    3.84633   3.85083   3.85201   3.85981   3.86205
 Alpha virt. eigenvalues --    3.86525   3.87265   3.87520   3.87756   3.88222
 Alpha virt. eigenvalues --    3.88678   3.89193   3.89369   3.90289   3.90850
 Alpha virt. eigenvalues --    3.91752   3.92136   3.92557   3.93043   3.93369
 Alpha virt. eigenvalues --    3.93955   3.94230   3.94667   3.94841   3.95535
 Alpha virt. eigenvalues --    3.96155   3.96227   3.97365   3.98198   3.98414
 Alpha virt. eigenvalues --    3.98680   3.99315   4.00205   4.00610   4.00972
 Alpha virt. eigenvalues --    4.01396   4.01970   4.02181   4.02599   4.03429
 Alpha virt. eigenvalues --    4.04092   4.04247   4.04831   4.05223   4.05886
 Alpha virt. eigenvalues --    4.06339   4.06876   4.07382   4.08054   4.08462
 Alpha virt. eigenvalues --    4.08947   4.09436   4.09670   4.10031   4.10630
 Alpha virt. eigenvalues --    4.11630   4.11979   4.12386   4.13235   4.13343
 Alpha virt. eigenvalues --    4.13768   4.14202   4.14577   4.14884   4.15676
 Alpha virt. eigenvalues --    4.15824   4.16783   4.16902   4.17411   4.17741
 Alpha virt. eigenvalues --    4.18448   4.19067   4.19145   4.19920   4.20160
 Alpha virt. eigenvalues --    4.20331   4.20574   4.21744   4.21893   4.22528
 Alpha virt. eigenvalues --    4.22960   4.23260   4.23756   4.24293   4.25037
 Alpha virt. eigenvalues --    4.25703   4.25989   4.26618   4.26976   4.27371
 Alpha virt. eigenvalues --    4.27689   4.28385   4.28870   4.29225   4.29296
 Alpha virt. eigenvalues --    4.29913   4.30513   4.30723   4.31240   4.31516
 Alpha virt. eigenvalues --    4.32368   4.32555   4.33000   4.33266   4.33563
 Alpha virt. eigenvalues --    4.34460   4.34720   4.35449   4.35743   4.36924
 Alpha virt. eigenvalues --    4.37038   4.37629   4.38853   4.39581   4.39863
 Alpha virt. eigenvalues --    4.41054   4.41262   4.41585   4.41663   4.42380
 Alpha virt. eigenvalues --    4.43323   4.43674   4.44289   4.44857   4.46082
 Alpha virt. eigenvalues --    4.46185   4.47101   4.47564   4.48439   4.48935
 Alpha virt. eigenvalues --    4.49814   4.49979   4.50597   4.51193   4.51625
 Alpha virt. eigenvalues --    4.51778   4.52193   4.53009   4.53920   4.54115
 Alpha virt. eigenvalues --    4.54934   4.55239   4.55392   4.55710   4.56192
 Alpha virt. eigenvalues --    4.57100   4.57774   4.58069   4.58501   4.59093
 Alpha virt. eigenvalues --    4.59729   4.59833   4.60792   4.60911   4.62019
 Alpha virt. eigenvalues --    4.62407   4.62754   4.63623   4.64257   4.64848
 Alpha virt. eigenvalues --    4.65351   4.66152   4.66753   4.67277   4.68062
 Alpha virt. eigenvalues --    4.68488   4.68878   4.69572   4.69758   4.69965
 Alpha virt. eigenvalues --    4.70628   4.71541   4.72318   4.72610   4.73419
 Alpha virt. eigenvalues --    4.73568   4.74021   4.74430   4.74914   4.75752
 Alpha virt. eigenvalues --    4.76868   4.77112   4.78051   4.78669   4.79378
 Alpha virt. eigenvalues --    4.80388   4.80587   4.81715   4.82516   4.82626
 Alpha virt. eigenvalues --    4.83155   4.84069   4.84236   4.84646   4.85468
 Alpha virt. eigenvalues --    4.85935   4.86286   4.86365   4.86500   4.87498
 Alpha virt. eigenvalues --    4.87906   4.89073   4.89727   4.90135   4.90500
 Alpha virt. eigenvalues --    4.91078   4.93191   4.93804   4.94094   4.94235
 Alpha virt. eigenvalues --    4.95200   4.95777   4.96532   4.96685   4.99298
 Alpha virt. eigenvalues --    4.99717   5.00497   5.01163   5.02035   5.03134
 Alpha virt. eigenvalues --    5.03458   5.04486   5.05075   5.07326   5.08501
 Alpha virt. eigenvalues --    5.09477   5.09659   5.10928   5.11155   5.11541
 Alpha virt. eigenvalues --    5.11922   5.12351   5.13392   5.13933   5.15075
 Alpha virt. eigenvalues --    5.15689   5.16322   5.16596   5.16900   5.17205
 Alpha virt. eigenvalues --    5.17402   5.17718   5.18446   5.19131   5.20273
 Alpha virt. eigenvalues --    5.21452   5.22503   5.22770   5.22901   5.23286
 Alpha virt. eigenvalues --    5.24248   5.24497   5.27579   5.28053   5.28896
 Alpha virt. eigenvalues --    5.29123   5.29739   5.31167   5.32457   5.33137
 Alpha virt. eigenvalues --    5.33438   5.33638   5.34660   5.35319   5.35783
 Alpha virt. eigenvalues --    5.36144   5.36712   5.36963   5.37834   5.38610
 Alpha virt. eigenvalues --    5.38975   5.40427   5.41697   5.42269   5.44417
 Alpha virt. eigenvalues --    5.44763   5.47234   5.48889   5.49000   5.50500
 Alpha virt. eigenvalues --    5.50564   5.51470   5.52313   5.53485   5.54534
 Alpha virt. eigenvalues --    5.55130   5.56450   5.57235   5.57387   5.58397
 Alpha virt. eigenvalues --    5.59888   5.61121   5.62141   5.63649   5.64539
 Alpha virt. eigenvalues --    5.66114   5.68049   5.68638   5.70936   5.71889
 Alpha virt. eigenvalues --    5.72834   5.74732   5.78229   5.81505   5.84214
 Alpha virt. eigenvalues --    5.85780   5.87054   5.87763   5.88656   5.89599
 Alpha virt. eigenvalues --    5.91524   5.92398   5.93463   5.94214   5.95766
 Alpha virt. eigenvalues --    5.96554   5.98320   5.99884   6.00248   6.01198
 Alpha virt. eigenvalues --    6.01886   6.04355   6.08669   6.09397   6.10284
 Alpha virt. eigenvalues --    6.10868   6.11496   6.13230   6.17581   6.17858
 Alpha virt. eigenvalues --    6.18613   6.20901   6.21840   6.26609   6.28672
 Alpha virt. eigenvalues --    6.31711   6.34662   6.38383   6.40242   6.40336
 Alpha virt. eigenvalues --    6.44223   6.46924   6.59274   6.66530   6.69334
 Alpha virt. eigenvalues --    6.70653   6.78786   6.79692   6.87536   6.89040
 Alpha virt. eigenvalues --    6.90280   7.00030   7.05903   7.07080   7.10922
 Alpha virt. eigenvalues --    7.10972   7.17093   7.23760  22.43175  22.44315
 Alpha virt. eigenvalues --   22.44641  22.44808  22.45848  22.47898  22.52883
 Alpha virt. eigenvalues --   22.53911  22.57488  22.58034  22.63353  22.66022
 Alpha virt. eigenvalues --   22.69967  22.75091  22.75953  22.78787  22.79867
 Alpha virt. eigenvalues --   22.81751  22.82962  22.84167  22.88367  22.92880
 Alpha virt. eigenvalues --   22.94512  23.02248  23.04363  23.05077  23.11819
 Alpha virt. eigenvalues --   23.12508  23.15029  23.21729  23.23690  23.26737
 Alpha virt. eigenvalues --   23.29356  23.39538  23.41805  23.46413  23.52380
 Alpha virt. eigenvalues --   23.54173  23.63520  23.64432  23.65162  23.72727
 Alpha virt. eigenvalues --   32.38318  32.39494  32.69097  32.78510  32.86705
 Alpha virt. eigenvalues --   32.97245  32.99412  33.30837  43.86977  43.88347
 Alpha virt. eigenvalues --   43.90777  43.91962
  Beta  occ. eigenvalues -- -256.50173 -30.24844 -26.08344 -26.08091 -26.06956
  Beta  occ. eigenvalues --  -19.33754 -19.32535 -19.25350 -19.23542 -14.54570
  Beta  occ. eigenvalues --  -14.54214 -14.48784 -14.48599 -14.48592 -14.48530
  Beta  occ. eigenvalues --  -14.48450 -14.48099 -10.42393 -10.41696 -10.38379
  Beta  occ. eigenvalues --  -10.38042 -10.35907 -10.35765 -10.35663 -10.35658
  Beta  occ. eigenvalues --  -10.35657 -10.35632 -10.35603 -10.35597 -10.35512
  Beta  occ. eigenvalues --  -10.35420 -10.33261 -10.32982 -10.32860 -10.32646
  Beta  occ. eigenvalues --  -10.32610 -10.32465 -10.32462 -10.32448 -10.32447
  Beta  occ. eigenvalues --  -10.32362 -10.32305 -10.32206 -10.32143 -10.32141
  Beta  occ. eigenvalues --  -10.31825 -10.31617 -10.31531 -10.31089 -10.31043
  Beta  occ. eigenvalues --  -10.30903 -10.30540 -10.30182 -10.30115 -10.30112
  Beta  occ. eigenvalues --  -10.30032 -10.29466 -10.28778 -10.28167  -3.55478
  Beta  occ. eigenvalues --   -2.31888  -2.31398  -2.27304  -1.24121  -1.23615
  Beta  occ. eigenvalues --   -1.16511  -1.16200  -1.10101  -1.08700  -1.08017
  Beta  occ. eigenvalues --   -1.06904  -1.06886  -1.05808  -1.01016  -1.00638
  Beta  occ. eigenvalues --   -0.93795  -0.93296  -0.93146  -0.92847  -0.92527
  Beta  occ. eigenvalues --   -0.91057  -0.90905  -0.90528  -0.90486  -0.88473
  Beta  occ. eigenvalues --   -0.87999  -0.87095  -0.86685  -0.85467  -0.83604
  Beta  occ. eigenvalues --   -0.82083  -0.81835  -0.81614  -0.81476  -0.81244
  Beta  occ. eigenvalues --   -0.79013  -0.77931  -0.77553  -0.75795  -0.75605
  Beta  occ. eigenvalues --   -0.74869  -0.74539  -0.74378  -0.74182  -0.72242
  Beta  occ. eigenvalues --   -0.71995  -0.71880  -0.71301  -0.69110  -0.67941
  Beta  occ. eigenvalues --   -0.66530  -0.66298  -0.65748  -0.64712  -0.63935
  Beta  occ. eigenvalues --   -0.63530  -0.62460  -0.62247  -0.62094  -0.61078
  Beta  occ. eigenvalues --   -0.60415  -0.59752  -0.58910  -0.58455  -0.58358
  Beta  occ. eigenvalues --   -0.58118  -0.57742  -0.57566  -0.57425  -0.57301
  Beta  occ. eigenvalues --   -0.56785  -0.56296  -0.55497  -0.55239  -0.54898
  Beta  occ. eigenvalues --   -0.54535  -0.54359  -0.54297  -0.53731  -0.53513
  Beta  occ. eigenvalues --   -0.53441  -0.53229  -0.53055  -0.52931  -0.52856
  Beta  occ. eigenvalues --   -0.52388  -0.52343  -0.52235  -0.52063  -0.51862
  Beta  occ. eigenvalues --   -0.51800  -0.51708  -0.51448  -0.51128  -0.51091
  Beta  occ. eigenvalues --   -0.51069  -0.50528  -0.50356  -0.50029  -0.49965
  Beta  occ. eigenvalues --   -0.49755  -0.49326  -0.49187  -0.48967  -0.48771
  Beta  occ. eigenvalues --   -0.48395  -0.48257  -0.47771  -0.47664  -0.47583
  Beta  occ. eigenvalues --   -0.47267  -0.47093  -0.46561  -0.46291  -0.46126
  Beta  occ. eigenvalues --   -0.45300  -0.45223  -0.44873  -0.44366  -0.44103
  Beta  occ. eigenvalues --   -0.43700  -0.43564  -0.43222  -0.42852  -0.42340
  Beta  occ. eigenvalues --   -0.41383  -0.41298  -0.41071  -0.39951  -0.38440
  Beta  occ. eigenvalues --   -0.38300  -0.37986  -0.35927  -0.35432  -0.35188
  Beta  occ. eigenvalues --   -0.34797  -0.34448  -0.34304  -0.34133  -0.33650
  Beta  occ. eigenvalues --   -0.32987  -0.29722  -0.29120
  Beta virt. eigenvalues --   -0.19060  -0.18981  -0.14780  -0.14598  -0.13601
  Beta virt. eigenvalues --   -0.12760  -0.10079  -0.09164  -0.08820  -0.08394
  Beta virt. eigenvalues --   -0.07580  -0.07048  -0.06520  -0.06191  -0.05654
  Beta virt. eigenvalues --   -0.05485  -0.05177  -0.04686  -0.04464  -0.04001
  Beta virt. eigenvalues --   -0.03734  -0.03547  -0.03284  -0.03032  -0.02714
  Beta virt. eigenvalues --   -0.02283  -0.02082  -0.01766  -0.01451  -0.01357
  Beta virt. eigenvalues --   -0.01106  -0.00638  -0.00537  -0.00259   0.00190
  Beta virt. eigenvalues --    0.00360   0.00600   0.01186   0.01540   0.01681
  Beta virt. eigenvalues --    0.01892   0.02287   0.02635   0.02754   0.03060
  Beta virt. eigenvalues --    0.03218   0.03296   0.03653   0.03872   0.04177
  Beta virt. eigenvalues --    0.04265   0.04332   0.04655   0.04710   0.04924
  Beta virt. eigenvalues --    0.04966   0.05173   0.05287   0.05402   0.05467
  Beta virt. eigenvalues --    0.05789   0.05935   0.06160   0.06446   0.06704
  Beta virt. eigenvalues --    0.06767   0.06996   0.07150   0.07346   0.07671
  Beta virt. eigenvalues --    0.07921   0.08010   0.08044   0.08292   0.08472
  Beta virt. eigenvalues --    0.08594   0.08791   0.09137   0.09603   0.09819
  Beta virt. eigenvalues --    0.10193   0.10444   0.10555   0.10571   0.10854
  Beta virt. eigenvalues --    0.11136   0.11505   0.11625   0.11799   0.11842
  Beta virt. eigenvalues --    0.12211   0.12332   0.12405   0.12617   0.12848
  Beta virt. eigenvalues --    0.13276   0.13479   0.13501   0.13685   0.13923
  Beta virt. eigenvalues --    0.14269   0.14331   0.14414   0.14746   0.14867
  Beta virt. eigenvalues --    0.14976   0.15199   0.15379   0.15534   0.15622
  Beta virt. eigenvalues --    0.15723   0.15895   0.16205   0.16532   0.16817
  Beta virt. eigenvalues --    0.17102   0.17298   0.17568   0.17898   0.17913
  Beta virt. eigenvalues --    0.18286   0.18439   0.18583   0.18924   0.19074
  Beta virt. eigenvalues --    0.19293   0.19414   0.19583   0.19900   0.20155
  Beta virt. eigenvalues --    0.20442   0.20586   0.20772   0.20789   0.21189
  Beta virt. eigenvalues --    0.21551   0.21677   0.21781   0.21918   0.22173
  Beta virt. eigenvalues --    0.22232   0.22600   0.22796   0.23084   0.23187
  Beta virt. eigenvalues --    0.23439   0.23666   0.23829   0.24027   0.24276
  Beta virt. eigenvalues --    0.24393   0.24894   0.25291   0.25563   0.25597
  Beta virt. eigenvalues --    0.25748   0.25945   0.26138   0.26306   0.26806
  Beta virt. eigenvalues --    0.26846   0.27140   0.27442   0.27658   0.27707
  Beta virt. eigenvalues --    0.28083   0.28280   0.28440   0.28670   0.28885
  Beta virt. eigenvalues --    0.29040   0.29231   0.29416   0.29549   0.29770
  Beta virt. eigenvalues --    0.30026   0.30167   0.30413   0.30632   0.30911
  Beta virt. eigenvalues --    0.31009   0.31141   0.31408   0.31444   0.31723
  Beta virt. eigenvalues --    0.31763   0.32049   0.32281   0.32353   0.32652
  Beta virt. eigenvalues --    0.32728   0.32937   0.33198   0.33274   0.33421
  Beta virt. eigenvalues --    0.33593   0.33897   0.34135   0.34227   0.34357
  Beta virt. eigenvalues --    0.34479   0.34616   0.34730   0.34950   0.34972
  Beta virt. eigenvalues --    0.35344   0.35403   0.35665   0.35777   0.36105
  Beta virt. eigenvalues --    0.36123   0.36395   0.36530   0.36619   0.36735
  Beta virt. eigenvalues --    0.37042   0.37230   0.37341   0.37558   0.37629
  Beta virt. eigenvalues --    0.38001   0.38226   0.38416   0.38551   0.38671
  Beta virt. eigenvalues --    0.38759   0.39185   0.39272   0.39591   0.39806
  Beta virt. eigenvalues --    0.39922   0.39990   0.40282   0.40383   0.40492
  Beta virt. eigenvalues --    0.40692   0.40759   0.41010   0.41229   0.41311
  Beta virt. eigenvalues --    0.41492   0.41549   0.41869   0.41952   0.42128
  Beta virt. eigenvalues --    0.42193   0.42424   0.42618   0.42935   0.43047
  Beta virt. eigenvalues --    0.43085   0.43192   0.43350   0.43456   0.43816
  Beta virt. eigenvalues --    0.43912   0.44205   0.44349   0.44364   0.44555
  Beta virt. eigenvalues --    0.44648   0.44864   0.45012   0.45408   0.45609
  Beta virt. eigenvalues --    0.45812   0.45973   0.46167   0.46217   0.46373
[...]
  1786. RY*(   3) H  85                  0.00002     1.96934   
  1787. RY*(   4) H  85                  0.00003     2.04767   
  1788. RY*(   5) H  85                  0.00000     2.89129   
  1789. RY*(   1) H  86                  0.00027     1.12484   
  1790. RY*(   2) H  86                  0.00008     1.86411   
  1791. RY*(   3) H  86                  0.00003     1.68462   
  1792. RY*(   4) H  86                  0.00003     1.98355   
  1793. RY*(   5) H  86                  0.00000     2.95787   
  1794. RY*(   1) H  87                  0.00082     0.62249   
  1795. RY*(   2) H  87                  0.00013     2.06057   
  1796. RY*(   3) H  87                  0.00013     2.16807   
  1797. RY*(   4) H  87                  0.00005     2.96227   
  1798. RY*(   5) H  87                  0.00000     3.11919   
  1799. RY*(   1) H  88                  0.00065     0.70882   
  1800. RY*(   2) H  88                  0.00013     2.16219   
  1801. RY*(   3) H  88                  0.00012     2.01883   
  1802. RY*(   4) H  88                  0.00006     2.96310   
  1803. RY*(   5) H  88                  0.00000     3.16809   
  1804. RY*(   1) H  89                  0.00038     0.92612   
  1805. RY*(   2) H  89                  0.00009     1.62829   
  1806. RY*(   3) H  89                  0.00005     2.22282   
  1807. RY*(   4) H  89                  0.00004     2.34594   
  1808. RY*(   5) H  89                  0.00001     3.00644   
  1809. RY*(   1) H  90                  0.00033     1.00943   
  1810. RY*(   2) H  90                  0.00010     1.51491   
  1811. RY*(   3) H  90                  0.00005     2.16876   
  1812. RY*(   4) H  90                  0.00004     2.34836   
  1813. RY*(   5) H  90                  0.00001     2.98271   
  1814. RY*(   1) H  91                  0.00018     1.60852   
  1815. RY*(   2) H  91                  0.00006     2.07668   
  1816. RY*(   3) H  91                  0.00005     2.13563   
  1817. RY*(   4) H  91                  0.00002     1.58902   
  1818. RY*(   5) H  91                  0.00000     3.00800   
  1819. RY*(   1) H  92                  0.00044     1.16545   
  1820. RY*(   2) H  92                  0.00006     1.55771   
  1821. RY*(   3) H  92                  0.00006     2.36710   
  1822. RY*(   4) H  92                  0.00003     2.37645   
  1823. RY*(   5) H  92                  0.00001     2.96056   
  1824. RY*(   1) H  93                  0.00033     1.15706   
  1825. RY*(   2) H  93                  0.00008     2.14589   
  1826. RY*(   3) H  93                  0.00005     1.60415   
  1827. RY*(   4) H  93                  0.00003     2.40346   
  1828. RY*(   5) H  93                  0.00001     3.03121   
  1829. RY*(   1) H  94                  0.00040     2.03715   
  1830. RY*(   2) H  94                  0.00035     0.58726   
  1831. RY*(   3) H  94                  0.00021     2.01158   
  1832. RY*(   4) H  94                  0.00014     2.04392   
  1833. RY*(   5) H  94                  0.00000     3.21657   
  1834. RY*(   1) H  95                  0.00049     0.60992   
  1835. RY*(   2) H  95                  0.00008     2.57035   
  1836. RY*(   3) H  95                  0.00007     2.21185   
  1837. RY*(   4) H  95                  0.00007     2.38784   
  1838. RY*(   5) H  95                  0.00000     2.99207   
  1839. RY*(   1) H  96                  0.00038     1.67540   
  1840. RY*(   2) H  96                  0.00008     2.30013   
  1841. RY*(   3) H  96                  0.00006     2.33161   
  1842. RY*(   4) H  96                  0.00004     1.68801   
  1843. RY*(   5) H  96                  0.00000     2.83129   
  1844. RY*(   1) H  97                  0.00052     1.51788   
  1845. RY*(   2) H  97                  0.00010     1.89831   
  1846. RY*(   3) H  97                  0.00008     2.57630   
  1847. RY*(   4) H  97                  0.00003     1.90816   
  1848. RY*(   5) H  97                  0.00001     2.82245   
  1849. RY*(   1) H  98                  0.00036     1.56249   
  1850. RY*(   2) H  98                  0.00010     1.75580   
  1851. RY*(   3) H  98                  0.00007     2.40369   
  1852. RY*(   4) H  98                  0.00004     2.23301   
  1853. RY*(   5) H  98                  0.00000     2.82642   
  1854. RY*(   1) H  99                  0.00029     1.42430   
  1855. RY*(   2) H  99                  0.00006     1.90436   
  1856. RY*(   3) H  99                  0.00004     1.68554   
  1857. RY*(   4) H  99                  0.00004     2.30986   
  1858. RY*(   5) H  99                  0.00001     2.89012   
  1859. RY*(   1) H 100                  0.00029     1.46370   
  1860. RY*(   2) H 100                  0.00007     2.07132   
  1861. RY*(   3) H 100                  0.00004     1.61440   
  1862. RY*(   4) H 100                  0.00004     2.31887   
  1863. RY*(   5) H 100                  0.00001     2.89135   
  1864. RY*(   1) H 101                  0.00038     1.70665   
  1865. RY*(   2) H 101                  0.00027     2.08629   
  1866. RY*(   3) H 101                  0.00016     1.69186   
  1867. RY*(   4) H 101                  0.00005     1.43666   
  1868. RY*(   5) H 101                  0.00000     3.56560   
  1869. BD*(   1) C   1 - C   2          0.00674     0.29672   
  1870. BD*(   1) C   1 - H  62          0.00156     0.31697   
  1871. BD*(   1) C   1 - H  63          0.00448     0.31127   
  1872. BD*(   1) C   1 - H  64          0.00471     0.31156   
  1873. BD*(   1) C   2 - N   3          0.01415     0.33259   
  1874. BD*(   2) C   2 - N   3          0.37798    -0.13808  1879(v),190(v),1872(v)
                                                    1871(v),236(g),261(g),241(g)
                                                    292(v),210(v)
  1875. BD*(   1) C   2 - C   4          0.01002     0.49217   
  1876. BD*(   1) N   3 - C   5          0.00922     0.40360   
  1877. BD*(   1) N   3 - H  65          0.00719     0.29741   
  1878. BD*(   1) C   4 - N   6          0.00874     0.38328   
  1879. BD*(   2) C   4 - N   6          0.33095    -0.10963  1874(v),190(v),193(v),194(v)
                                                    288(g),340(g),1919(r),314(v)
  1880. BD*(   1) C   4 - H  67          0.00675     0.33712   
  1881. BD*(   1) C   5 - N   6          0.00891     0.43295   
  1882. BD*(   1) C   5 - H  66          0.00810     0.29260   
  1883. BD*(   1) N   6 -Fe  13          0.03047     0.30564   
  1884. BD*(   1) C   7 - C   8          0.00694     0.29372   
  1885. BD*(   1) C   7 - H  56          0.00462     0.30619   
  1886. BD*(   1) C   7 - H  57          0.00161     0.31190   
  1887. BD*(   1) C   7 - H  58          0.00467     0.30691   
  1888. BD*(   1) C   8 - N   9          0.01414     0.33041   
  1889. BD*(   2) C   8 - N   9          0.37731    -0.14148  1894(v),191(v),1887(v)
                                                    1885(v),417(g),392(g),397(g)
                                                    447(v),366(v)
  1890. BD*(   1) C   8 - C  10          0.01041     0.49082   
  1891. BD*(   1) N   9 - C  11          0.00953     0.39556   
  1892. BD*(   1) N   9 - H  60          0.00727     0.29279   
  1893. BD*(   1) C  10 - N  12          0.00882     0.38145   
  1894. BD*(   2) C  10 - N  12          0.33397    -0.11355  1889(v),191(v),193(v),443(g)
                                                    496(g),1919(r),194(v)
                                                    1959(r),470(v)
  1895. BD*(   1) C  10 - H  59          0.00684     0.33358   
  1896. BD*(   1) C  11 - N  12          0.00859     0.44001   
  1897. BD*(   1) C  11 - H  61          0.00827     0.29009   
  1898. BD*(   1) N  12 -Fe  13          0.03067     0.29574   
  1899. BD*(   1)Fe  13 - N  18          0.02713     0.33696   
  1900. BD*(   1)Fe  13 - N  29          0.02510     0.34178   
  1901. BD*(   1)Fe  13 - N  37          0.02638     0.33754   
  1902. BD*(   1)Fe  13 - N  45          0.02583     0.34265   
  1903. BD*(   1) C  14 - C  19          0.01027     0.46102   
  1904. BD*(   1) C  14 - C  49          0.01051     0.46205   
  1905. BD*(   2) C  14 - C  49          0.19620    -0.06089  1919(v),1978(v),548(g)
                                                    1916(r),1461(g)
  1906. BD*(   1) C  14 - H  88          0.00691     0.34708   
  1907. BD*(   1) C  15 - C  22          0.00979     0.44153   
  1908. BD*(   1) C  15 - C  30          0.00990     0.44737   
  1909. BD*(   1) C  15 - H  83          0.00616     0.35191   
  1910. BD*(   1) C  16 - C  33          0.00981     0.46062   
  1911. BD*(   1) C  16 - C  38          0.01001     0.45586   
  1912. BD*(   2) C  16 - C  38          0.19060    -0.05820  1962(v),201(v),1959(v)
                                                    1916(r),1176(g),600(g)
  1913. BD*(   1) C  16 - H  79          0.00640     0.35233   
  1914. BD*(   1) C  17 - C  41          0.00960     0.45564   
  1915. BD*(   1) C  17 - C  46          0.01033     0.46499   
  1916. BD*(   2) C  17 - C  46          0.19202    -0.05561  1959(v),1978(v),1905(r)
                                                    1912(r),1384(g),626(g)
  1917. BD*(   1) C  17 - H  87          0.00634     0.35268   
  1918. BD*(   1) N  18 - C  19          0.01429     0.36870   
  1919. BD*(   2) N  18 - C  19          0.31604    -0.10089  1905(v),1923(v),196(v)
                                                    193(v),680(g),654(g),1879(r)
                                                    1894(r),548(v),1898(v)
  1920. BD*(   1) N  18 - C  22          0.01420     0.36181   
  1921. BD*(   1) C  19 - C  20          0.01622     0.38320   
  1922. BD*(   1) C  20 - C  21          0.00968     0.50786   
  1923. BD*(   2) C  20 - C  21          0.12205    -0.03087  1919(v),196(v),1930(v)
                                                    1928(v),1927(v)
  1924. BD*(   1) C  20 - C  24          0.01273     0.27305   
  1925. BD*(   1) C  21 - C  22          0.01584     0.39003   
  1926. BD*(   1) C  21 - C  23          0.00855     0.28301   
  1927. BD*(   1) C  23 - H  84          0.00355     0.32022   
  1928. BD*(   1) C  23 - H  85          0.00392     0.32028   
  1929. BD*(   1) C  23 - H  86          0.00275     0.32415   
  1930. BD*(   1) C  24 - C  25          0.00842     0.26346   
  1931. BD*(   1) C  24 - H  97          0.00765     0.30180   
  1932. BD*(   1) C  24 - H  98          0.00699     0.31268   
  1933. BD*(   1) C  25 - C  26          0.03974     0.27041   
  1934. BD*(   1) C  25 - H  99          0.00541     0.31583   
  1935. BD*(   1) C  25 - H 100          0.00518     0.31310   
  1936. BD*(   1) C  26 - O  27          0.06499     0.25439   
  1937. BD*(   2) C  26 - O  27          0.06913     0.17371   
  1938. BD*(   1) C  26 - O  28          0.03676     0.43376   
  1939. BD*(   1) O  28 - H 101          0.00794     0.30844   
  1940. BD*(   1) N  29 - C  30          0.01452     0.36109   
  1941. BD*(   2) N  29 - C  30          0.33862    -0.10665  1945(v),201(v),194(v),966(g)
                                                    940(g),575(v)
  1942. BD*(   1) N  29 - C  33          0.01450     0.34263   
  1943. BD*(   1) C  30 - C  31          0.01570     0.39261   
  1944. BD*(   1) C  31 - C  32          0.01144     0.48967   
  1945. BD*(   2) C  31 - C  32          0.12980    -0.02896  1941(v),202(v),201(v)
                                                    1950(v),1953(v),1952(v)
                                                    1949(v),1944(g)
  1946. BD*(   1) C  31 - C  34          0.00838     0.29047   
  1947. BD*(   1) C  32 - C  33          0.01613     0.37049   
  1948. BD*(   1) C  32 - C  35          0.01123     0.45340   
  1949. BD*(   1) C  34 - H  80          0.00330     0.32389   
  1950. BD*(   1) C  34 - H  81          0.00377     0.32390   
  1951. BD*(   1) C  34 - H  82          0.00256     0.32874   
  1952. BD*(   1) C  35 - C  36          0.00455     0.44773   
  1953. BD*(   1) C  35 - H  75          0.01050     0.35700   
  1954. BD*(   1) C  36 - H  68          0.00184     0.32515   
  1955. BD*(   1) C  36 - H  69          0.00372     0.32273   
  1956. BD*(   1) C  36 - H  70          0.00300     0.32807   
  1957. BD*(   1) N  37 - C  38          0.01455     0.35514   
  1958. BD*(   1) N  37 - C  41          0.01409     0.36097   
  1959. BD*(   2) N  37 - C  41          0.30192    -0.09746  1916(v),1912(v),1962(v)
                                                    193(v),1252(g),1148(g)
                                                    1894(r),194(v)
  1960. BD*(   1) C  38 - C  39          0.01577     0.38812   
  1961. BD*(   1) C  39 - C  40          0.01143     0.50384   
  1962. BD*(   2) C  39 - C  40          0.11639    -0.02033  1912(v),1959(v),203(v)
                                                    1966(v),1970(v),1969(v)
                                                    1961(g),1967(v)
  1963. BD*(   1) C  39 - C  42          0.00818     0.28261   
  1964. BD*(   1) C  40 - C  41          0.01608     0.37404   
  1965. BD*(   1) C  40 - C  43          0.01202     0.46551   
  1966. BD*(   1) C  42 - H  76          0.00363     0.32356   
  1967. BD*(   1) C  42 - H  77          0.00237     0.33120   
  1968. BD*(   1) C  42 - H  78          0.00289     0.32816   
  1969. BD*(   1) C  43 - C  44          0.00487     0.47456   
  1970. BD*(   1) C  43 - H  74          0.01074     0.36422   
  1971. BD*(   1) C  44 - H  71          0.00213     0.32903   
  1972. BD*(   1) C  44 - H  72          0.00395     0.33305   
  1973. BD*(   1) C  44 - H  73          0.00352     0.33887   
  1974. BD*(   1) N  45 - C  46          0.01489     0.36397   
  1975. BD*(   1) N  45 - C  49          0.01519     0.35395   
  1976. BD*(   1) C  46 - C  47          0.01667     0.37819   
  1977. BD*(   1) C  47 - C  48          0.01076     0.49228   
  1978. BD*(   2) C  47 - C  48          0.11751    -0.03110  1916(v),1905(v),1985(v)
                                                    1983(v),1982(v)
  1979. BD*(   1) C  47 - C  50          0.00864     0.28533   
  1980. BD*(   1) C  48 - C  49          0.01661     0.38789   
  1981. BD*(   1) C  48 - C  51          0.01179     0.29260   
  1982. BD*(   1) C  50 - H  89          0.00365     0.32529   
  1983. BD*(   1) C  50 - H  90          0.00374     0.32584   
  1984. BD*(   1) C  50 - H  91          0.00231     0.32918   
  1985. BD*(   1) C  51 - C  52          0.00660     0.26873   
  1986. BD*(   1) C  51 - H  95          0.00671     0.32058   
  1987. BD*(   1) C  51 - H  96          0.00694     0.33119   
  1988. BD*(   1) C  52 - C  53          0.03932     0.27234   
  1989. BD*(   1) C  52 - H  92          0.00722     0.31051   
  1990. BD*(   1) C  52 - H  93          0.00586     0.32080   
  1991. BD*(   1) C  53 - O  54          0.03591     0.42232   
  1992. BD*(   1) C  53 - O  55          0.02214     0.81023   
  1993. BD*(   2) C  53 - O  55          0.07949    -0.05787   
  1994. BD*(   1) O  54 - H  94          0.00671     6.07073   
       -------------------------------
              Total Lewis  196.87836  ( 96.9844%)
        Valence non-Lewis    5.73387  (  2.8246%)
        Rydberg non-Lewis    0.38777  (  0.1910%)
       -------------------------------
            Total unit  1  203.00000  (100.0000%)
           Charge unit  1    3.00000
 1\1\GINC-NODE633\SP\UPBE1PBE\def2TZVP\C42H46Fe1N8O4(1+,6)\ZHARTOVSKA\0
 7-Apr-2023\0\\# PBE1PBE/def2TZVP scf=maxcycle=999 empiricaldispersion=
 GD3BJ geom=check pop=nbo\\1mz4_III_H\\1,6\C,0,34.085999,19.643999,-0.4
 93\C,0,35.094002,19.747,-1.597\N,0,34.847,19.309,-2.881\C,0,36.374001,
 20.190001,-1.593\C,0,35.931999,19.472,-3.617\N,0,36.874001,20.006001,-
 2.858\C,0,43.095001,22.656,-5.791\C,0,42.304001,21.784,-4.866\N,0,42.7
 50999,21.436001,-3.61\C,0,41.042,21.305,-4.966\C,0,41.792,20.783001,-2
 .972\N,0,40.743999,20.693001,-3.771\Fe,0,38.798,20.395,-3.32\C,0,38.47
 3,18.780001,-6.344\C,0,39.717999,17.438999,-1.83\C,0,39.257,22.046,-0.
 304\C,0,37.688,23.290001,-4.743\N,0,39.014999,18.525,-3.951\C,0,38.839
 001,18.027,-5.235\C,0,39.139,16.608999,-5.288\C,0,39.514999,16.245001,
 -4.037\C,0,39.41,17.419001,-3.201\C,0,40.009998,14.863,-3.611\C,0,39.0
 60001,15.673,-6.508\C,0,37.627998,15.162,-6.665\C,0,37.498001,14.067,-
 7.712\O,0,36.372002,13.558,-7.906\O,0,38.515999,13.713,-8.339\N,0,39.3
 74001,19.871,-1.487\C,0,39.691002,18.591,-1.034\C,0,40.054001,18.61300
 1,0.365\C,0,39.995998,19.908001,0.806\C,0,39.547001,20.684999,-0.351\C
 ,0,40.375999,17.384001,1.21\C,0,40.277,20.374001,2.11\C,0,41.546001,20
 .233999,2.689\N,0,38.563999,22.25,-2.671\C,0,38.794998,22.778,-1.397\C
 ,0,38.389999,24.169001,-1.322\C,0,37.938,24.521,-2.555\C,0,38.055,23.3
 27999,-3.395\C,0,38.362999,25.041,-0.06\C,0,37.334999,25.737,-2.921\C,
 0,38.030998,26.934,-2.884\N,0,38.198002,20.914,-5.138\C,0,37.780998,22
 .172001,-5.563\C,0,37.551998,22.190001,-6.995\C,0,37.813,20.936001,-7.
 452\C,0,38.174,20.136,-6.3\C,0,37.068001,23.375999,-7.826\C,0,37.87599
 9,20.474001,-8.902\C,0,39.249001,20.809999,-9.47\C,0,39.432999,20.3150
 01,-10.889\O,0,39.932999,19.183001,-11.085\O,0,39.063999,21.065001,-11
 .811\H,0,44.02520663,22.18009204,-6.02149752\H,0,42.5416564,22.8133074
 1,-6.69319961\H,0,43.28343151,23.59777908,-5.31935808\H,0,40.39695424,
 21.38712408,-5.81574796\H,0,43.65615405,21.64367718,-3.23910251\H,0,41
 .85525559,20.39393378,-1.97725107\H,0,34.4925253,20.06711221,0.4017690
 1\H,0,33.19963068,20.17629754,-0.76851674\H,0,33.84607799,18.61503955,
 -0.32394274\H,0,33.98124446,18.92733401,-3.20472585\H,0,36.03153203,19
 .21560293,-4.65104725\H,0,36.8982931,20.60629667,-0.75830502\H,0,41.60
 855201,19.2889979,3.18695612\H,0,42.29397104,20.28507051,1.92556531\H,
 0,41.70407402,21.02106885,3.39641358\H,0,38.73924202,26.95969281,-3.68
 564224\H,0,37.34515894,27.74871426,-2.98775674\H,0,38.54624472,27.0182
 6246,-1.95001892\H,0,36.31246229,25.73790245,-3.23614737\H,0,39.498894
 53,20.8473109,2.67163121\H,0,39.23023813,25.66743732,-0.04069805\H,0,3
 7.48320606,25.64995682,-0.06599669\H,0,38.35672209,24.41376762,0.80685
 647\H,0,39.39671666,22.55962422,0.62420764\H,0,41.30524301,17.53441518
 ,1.71870536\H,0,39.59729097,17.23056818,1.92761562\H,0,40.45126699,16.
 52517239,0.57624284\H,0,39.99058296,16.51494169,-1.36447228\H,0,40.952
 07273,14.95947703,-3.11291629\H,0,39.29892793,14.41874027,-2.94623489\
 H,0,40.12550033,14.24336051,-4.47564219\H,0,37.30625395,24.19056681,-5
 .17676397\H,0,38.41803008,18.28461108,-7.29081948\H,0,37.78354298,23.5
 9039141,-8.59211721\H,0,36.12634563,23.13679366,-8.27429227\H,0,36.954
 9443,24.23192256,-7.19392956\H,0,39.9975418,20.36350458,-8.84933149\H,
 0,39.37735576,21.87218066,-9.45602961\H,0,40.88686522,19.07624173,-11.
 10348482\H,0,37.71788867,19.41676731,-8.94845488\H,0,37.12055358,20.97
 467978,-9.4707908\H,0,39.72105083,14.84386605,-6.36499646\H,0,39.34592
 425,16.20956041,-7.38848329\H,0,37.29481564,14.77839406,-5.72333339\H,
 0,36.99944,15.98144533,-6.94486462\H,0,39.38796942,13.9104356,-7.98930
 475\\Version=ES64L-G16RevA.03\State=6-A\HF=-3628.6502361\S2=8.817428\S
 2-1=0.\S2A=8.751236\RMSD=2.138e-09\Dipole=2.3160336,1.7756515,3.724048
 1\Quadrupole=19.9734714,-7.1211199,-12.8523515,-15.9742637,-19.2421074
 ,-5.1996535\PG=C01 [X(C42H46Fe1N8O4)]\\@


 ... A MOLECULAR SYSTEM ... (PASSES) ... FROM ONE STATE OF EQUILIBRIUM 
 TO ANOTHER ... BY MEANS OF ALL POSSIBLE INTERMEDIATE PATHS, 
 BUT THE PATH MOST ECONOMICAL OF ENERGY WILL BE THE MORE OFTEN TRAVELED.

                      -- HENRY EYRING, 1945
 Job cpu time:       4 days 11 hours 53 minutes 47.4 seconds.
 Elapsed time:       1 days  3 hours  3 minutes 23.8 seconds.
 File lengths (MBytes):  RWF=   3654 Int=      0 D2E=      0 Chk=    305 Scr=      1
 Normal termination of Gaussian 16 at Fri Apr  7 16:14:45 2023.
