 Entering Gaussian System, Link 0=g16
 Input=/net/homes/chemie/zhartovska/work/BioModel/Konrad/1jdl/1jdl.com
 Output=/net/homes/chemie/zhartovska/work/BioModel/Konrad/1jdl/1jdl.log
 Initial command:
 /afs/math/software/gaussian/g16.A03/g16/l1.exe "/scratch/zhartovska_gaussian.eYZdpqk/Gau-6026.inp" -scrdir="/scratch/zhartovska_gaussian.eYZdpqk/"
 Entering Link 1 = /afs/math/software/gaussian/g16.A03/g16/l1.exe PID=      6027.
  
 Copyright (c) 1988,1990,1992,1993,1995,1998,2003,2009,2016,
            Gaussian, Inc.  All Rights Reserved.
  
 This is part of the Gaussian(R) 16 program.  It is based on
 the Gaussian(R) 09 system (copyright 2009, Gaussian, Inc.),
 the Gaussian(R) 03 system (copyright 2003, Gaussian, Inc.),
 the Gaussian(R) 98 system (copyright 1998, Gaussian, Inc.),
 the Gaussian(R) 94 system (copyright 1995, Gaussian, Inc.),
 the Gaussian 92(TM) system (copyright 1992, Gaussian, Inc.),
 the Gaussian 90(TM) system (copyright 1990, Gaussian, Inc.),
 the Gaussian 88(TM) system (copyright 1988, Gaussian, Inc.),
 the Gaussian 86(TM) system (copyright 1986, Carnegie Mellon
 University), and the Gaussian 82(TM) system (copyright 1983,
 Carnegie Mellon University). Gaussian is a federally registered
 trademark of Gaussian, Inc.
  
 This software contains proprietary and confidential information,
 including trade secrets, belonging to Gaussian, Inc.
  
 This software is provided under written license and may be
 used, copied, transmitted, or stored only in accord with that
 written license.
  
 The following legend is applicable only to US Government
 contracts under FAR:
  
                    RESTRICTED RIGHTS LEGEND
  
 Use, reproduction and disclosure by the US Government is
 subject to restrictions as set forth in subparagraphs (a)
 and (c) of the Commercial Computer Software - Restricted
 Rights clause in FAR 52.227-19.
  
 Gaussian, Inc.
 340 Quinnipiac St., Bldg. 40, Wallingford CT 06492
  
  
 ---------------------------------------------------------------
 Warning -- This program may not be used in any manner that
 competes with the business of Gaussian, Inc. or will provide
 assistance to any competitor of Gaussian, Inc.  The licensee
 of this program is prohibited from giving any competitor of
 Gaussian, Inc. access to this program.  By using this program,
 the user acknowledges that Gaussian, Inc. is engaged in the
 business of creating and licensing software in the field of
 computational chemistry and represents and warrants to the
 licensee that it is not a competitor of Gaussian, Inc. and that
 it will not use this program in any manner prohibited above.
 ---------------------------------------------------------------
  

 Cite this work as:
 Gaussian 16, Revision A.03,
 M. J. Frisch, G. W. Trucks, H. B. Schlegel, G. E. Scuseria, 
 M. A. Robb, J. R. Cheeseman, G. Scalmani, V. Barone, 
 G. A. Petersson, H. Nakatsuji, X. Li, M. Caricato, A. V. Marenich, 
 J. Bloino, B. G. Janesko, R. Gomperts, B. Mennucci, H. P. Hratchian, 
 J. V. Ortiz, A. F. Izmaylov, J. L. Sonnenberg, D. Williams-Young, 
 F. Ding, F. Lipparini, F. Egidi, J. Goings, B. Peng, A. Petrone, 
 T. Henderson, D. Ranasinghe, V. G. Zakrzewski, J. Gao, N. Rega, 
 G. Zheng, W. Liang, M. Hada, M. Ehara, K. Toyota, R. Fukuda, 
 J. Hasegawa, M. Ishida, T. Nakajima, Y. Honda, O. Kitao, H. Nakai, 
 T. Vreven, K. Throssell, J. A. Montgomery, Jr., J. E. Peralta, 
 F. Ogliaro, M. J. Bearpark, J. J. Heyd, E. N. Brothers, K. N. Kudin, 
 V. N. Staroverov, T. A. Keith, R. Kobayashi, J. Normand, 
 K. Raghavachari, A. P. Rendell, J. C. Burant, S. S. Iyengar, 
 J. Tomasi, M. Cossi, J. M. Millam, M. Klene, C. Adamo, R. Cammi, 
 J. W. Ochterski, R. L. Martin, K. Morokuma, O. Farkas, 
 J. B. Foresman, and D. J. Fox, Gaussian, Inc., Wallingford CT, 2016.
 
 ******************************************
 Gaussian 16:  ES64L-G16RevA.03 25-Dec-2016
                 7-Nov-2022 
 ******************************************
 %nprocs=12
 Will use up to   12 processors via shared memory.
 %mem=16GB
 %chk=1jdl_II_S.chk
 ---------------------------------------------------------------------
 # polar def2tzvp empiricaldispersion=gd3bj int=grid=ultrafine pbe1pbe
 ---------------------------------------------------------------------
 1/38=1,172=1/1;
 2/12=2,17=6,18=5,40=1/2;
 3/5=44,7=101,11=2,25=1,30=1,74=-13,75=-5,124=41/1,2,3;
 4//1;
 5/5=2,38=5,98=1/2;
 8/6=4,10=90,11=11/1;
 10/6=1,13=10/2;
 6/7=2,8=2,9=2,10=2,28=1/1;
 99/5=1,9=1/99;
 ---------
 1jdl_II_S
 ---------
 Symbolic Z-matrix:
 Charge =  0 Multiplicity = 1
 C                     4.158     5.19      5.944 
 C                     3.654     5.545     4.585 
 N                     2.436     6.156     4.378 
 C                     4.171     5.309     3.357 
 C                     2.221     6.273     3.081 
 N                     3.258     5.765     2.439 
 C                     3.71028   7.58951  -3.34906 
 C                     4.476     6.407    -2.727 
 S                     3.575     5.085    -1.904 
 C                     4.526     3.672    -2.412 
 C                     0.469     6.703    -0.316 
 C                     2.107     2.325     0.872 
 C                     6.617     4.059     0.951 
 C                     4.909     8.49      0.311 
 C                     0.529     5.333    -0.054 
 C                    -0.599     4.436    -0.141 
 C                    -0.122     3.206     0.19 
 C                     1.282     3.36      0.488 
 C                    -0.89      1.893     0.194 
 C                    -2.054     4.856    -0.39 
 C                    -2.672     5.169     0.972 
 C                    -4.095     5.731     0.903 
 O                    -4.685     5.79     -0.194 
 O                    -4.629     6.109     1.966 
 C                     3.482     2.435     1.023 
 C                     4.36      1.342     1.359 
 C                     5.627     1.809     1.146 
 C                     5.525     3.205     0.953 
 C                     3.908    -0.02      1.868 
 C                     6.819     1.12      0.84 
 C                     7.02     -0.37      0.624 
 C                     6.552     5.405     0.736 
 C                     7.691     6.299     0.727 
 C                     7.207     7.503     0.38 
 C                     5.762     7.404     0.427 
 C                     9.137     5.934     1.069 
 C                     7.883     8.632    -0.134 
 C                     9.377     8.909    -0.263 
 C                     3.543     8.408     0.162 
 C                     2.696     9.541    -0.128 
 C                     1.45      9.042    -0.386 
 C                     1.554     7.588    -0.223 
 C                     3.117     11.011   -0.209 
 C                     0.233     9.839    -0.865 
 C                     0.252     9.794    -2.397 
 C                    -0.811     10.655   -3.049 
 O                    -0.833     10.704   -4.298 
 O                    -1.624     11.279   -2.332 
 N                     1.685     4.666     0.313 
 N                     4.197     3.59      0.784 
 N                     5.367     6.089     0.529 
 N                     2.848     7.211     0.114 
 Fe                    3.539     5.379     0.397 
 H                    -4.08289   6.37353   2.7099 
 H                    -2.69042   4.26929   1.55086 
 H                    -2.04959   5.88209   1.471 
 H                    -2.081     5.72661  -1.01146 
 H                    -2.58928   4.05658  -0.8583 
 H                     0.30276   10.85199  -0.52754 
 H                    -0.66618   9.39102  -0.49664 
 H                     1.21206   10.12352  -2.73553 
 H                     0.10871   8.78082  -2.70977 
 H                    -1.3042    11.87323  -1.6492 
 H                    -0.47626   7.10906  -0.6101 
 H                     5.34539   9.46655   0.33942 
 H                     7.58122   3.63155   1.13119 
 H                     1.65754   1.37367   1.06657 
 H                     4.05504   11.08581  -0.71829 
 H                     2.37508   11.56549  -0.74472 
 H                     3.21506   11.4089   0.77941 
 H                    -0.31596   1.14557   0.70068 
 H                    -1.8242    2.02777   0.69799 
 H                    -1.07008   1.58206  -0.81386 
 H                     4.63639  -0.4054    2.5505 
 H                     2.96785   0.08047   2.36893 
 H                     3.80212  -0.69219   1.04226 
 H                     9.75967   6.79629   0.95227 
 H                     9.18847   5.5913    2.08133 
 H                     9.47407   5.15915   0.41257 
 H                     10.08683   8.1832    0.07501 
 H                     9.71547   9.82917  -0.69153 
 H                     7.24676   9.41587  -0.48847 
 H                     8.00929  -0.77345   0.56551 
 H                     6.1723   -1.01616   0.53033 
 H                     7.6961    1.72592   0.74802 
 H                     5.45491   3.65769  -1.88113 
 H                     3.97877   2.77791  -2.19743 
 H                     4.71684   3.72975  -3.46326 
 H                     5.05286   5.95779  -3.50824 
 H                     4.29095   8.01299  -4.14177 
 H                     2.77494   7.2441   -3.73729 
 H                     3.53294   8.33304  -2.60032 
 H                     5.16139   6.8144   -2.01344 
 H                     5.10078   5.66775   6.11081 
 H                     3.45614   5.5186    6.68178 
 H                     4.27846   4.1291    6.01384 
 H                     5.11454   4.85254   3.14188 
 H                     1.35423   6.7057    2.62672 
 H                     1.81293   6.46257   5.09759 
 
 Stoichiometry    C41H46FeN6O4S
 Framework group  C1[X(C41H46FeN6O4S)]
 Deg. of freedom   291
 Full point group                 C1      NOp   1
 Largest Abelian subgroup         C1      NOp   1
 Largest concise Abelian subgroup C1      NOp   1
                         Standard orientation:                         
 ---------------------------------------------------------------------
 Center     Atomic      Atomic             Coordinates (Angstroms)
 Number     Number       Type             X           Y           Z
 ---------------------------------------------------------------------
      1          6           0        2.628197   -1.653437    4.968101
      2          6           0        1.748235   -1.176809    3.861118
      3          7           0        0.372586   -1.186335    3.945932
      4          6           0        2.046149   -0.743884    2.614204
      5          6           0       -0.138560   -0.788081    2.796042
      6          7           0        0.855806   -0.515189    1.969990
      7          6           0       -0.739312    3.003911   -2.731769
      8          6           0        0.569495    2.199125   -2.627158
      9         16           0        0.513857    0.426977   -2.321855
     10          6           0        1.846977   -0.128049   -3.358084
     11          6           0       -2.575871   -0.206679   -0.122090
     12          6           0        0.982946   -3.406362   -0.720520
     13          6           0        4.226628    0.134754   -0.180032
     14          6           0        0.698568    3.174317    0.948896
     15          6           0       -1.883354   -1.388270   -0.393026
     16          6           0       -2.510979   -2.634633   -0.763470
     17          6           0       -1.496928   -3.524758   -0.934836
     18          6           0       -0.265109   -2.825284   -0.657178
     19          6           0       -1.611219   -4.971493   -1.390583
     20          6           0       -4.022390   -2.900731   -0.779420
     21          6           0       -4.413907   -3.359814    0.624465
     22          6           0       -5.920021   -3.549819    0.827078
     23          8           0       -6.694327   -3.439326   -0.144123
     24          8           0       -6.328114   -3.822468    1.974742
     25          6           0        2.177199   -2.711111   -0.594377
     26          6           0        3.486565   -3.299901   -0.725974
     27          6           0        4.357073   -2.248457   -0.799642
     28          6           0        3.630986   -1.086835   -0.453372
     29          6           0        3.777097   -4.794450   -0.744555
     30          6           0        5.635529   -2.155796   -1.388016
     31          6           0        6.403027   -3.220598   -2.152412
     32          6           0        3.549816    1.279575    0.125707
     33          6           0        4.168260    2.558566    0.405614
     34          6           0        3.155792    3.428939    0.552724
     35          6           0        1.936804    2.647933    0.617000
     36          6           0        5.667786    2.836749    0.528651
     37          6           0        3.160709    4.839283    0.470760
     38          6           0        4.329621    5.815657    0.394968
     39          6           0       -0.499300    2.505772    0.834699
     40          6           0       -1.788819    3.127881    1.022625
     41          6           0       -2.726000    2.206661    0.646958
     42          6           0       -1.979690    1.007552    0.251152
     43          6           0       -2.062936    4.563454    1.479455
     44          6           0       -4.237221    2.435493    0.549054
     45          6           0       -4.522676    2.884367   -0.888457
     46          6           0       -5.962039    3.292759   -1.128965
     47          8           0       -6.264316    3.711526   -2.267450
     48          8           0       -6.793143    3.198227   -0.199038
     49          7           0       -0.504776   -1.504065   -0.347971
     50          7           0        2.263013   -1.346479   -0.413305
     51          7           0        2.172036    1.345818    0.236454
     52          7           0       -0.609798    1.205371    0.371142
     53         26           0        0.839391   -0.064255   -0.077962
     54          1           0       -5.804586   -3.577348    2.741184
     55          1           0       -3.924645   -4.289841    0.825894
     56          1           0       -4.066100   -2.632811    1.328309
     57          1           0       -4.548121   -2.002941   -1.029380
     58          1           0       -4.250264   -3.667102   -1.490509
     59          1           0       -4.537458    3.197891    1.237173
     60          1           0       -4.759700    1.525670    0.759141
     61          1           0       -3.889817    3.716179   -1.117540
     62          1           0       -4.281859    2.079274   -1.550826
     63          1           0       -6.622239    3.626692    0.642870
     64          1           0       -3.642398   -0.228639   -0.205385
     65          1           0        0.671568    4.176671    1.322336
     66          1           0        5.295065    0.183535   -0.211053
     67          1           0        1.034461   -4.463553   -0.877342
     68          1           0       -1.376548    5.228193    0.997902
     69          1           0       -3.064634    4.835344    1.219496
     70          1           0       -1.939175    4.629973    2.540190
     71          1           0       -0.680933   -5.472827   -1.222858
     72          1           0       -2.384793   -5.460133   -0.835862
     73          1           0       -1.848328   -4.999194   -2.433613
     74          1           0        4.725511   -4.979168   -0.284893
     75          1           0        3.012285   -5.313201   -0.205241
     76          1           0        3.797660   -5.141240   -1.756590
     77          1           0        5.822972    3.878461    0.717473
     78          1           0        6.071701    2.263709    1.336968
     79          1           0        6.157329    2.562616   -0.382447
     80          1           0        5.334741    5.448999    0.409008
     81          1           0        4.144695    6.867410    0.327746
     82          1           0        2.192087    5.293772    0.460203
     83          1           0        7.433211   -3.065857   -2.396700
     84          1           0        5.913501   -4.125429   -2.446597
     85          1           0        6.129144   -1.212384   -1.282102
     86          1           0        2.781570    0.135138   -2.908453
     87          1           0        1.792246   -1.190655   -3.471106
     88          1           0        1.769671    0.337235   -4.318519
     89          1           0        1.104795    2.345717   -3.541961
     90          1           0       -0.575583    3.874710   -3.331603
     91          1           0       -1.496102    2.396978   -3.183213
     92          1           0       -1.055617    3.299214   -1.753174
     93          1           0        1.148191    2.637383   -1.841066
     94          1           0        3.288583   -0.865035    5.263418
     95          1           0        2.025308   -1.945079    5.802589
     96          1           0        3.201652   -2.491951    4.632027
     97          1           0        3.025852   -0.605726    2.206780
     98          1           0       -1.181018   -0.701033    2.571091
     99          1           0       -0.155405   -1.453126    4.752188
 ---------------------------------------------------------------------
 Rotational constants (GHZ):           0.0644837           0.0447948           0.0338920
 Standard basis: def2TZVP (5D, 7F)
 There are  2206 symmetry adapted cartesian basis functions of A   symmetry.
 There are  1939 symmetry adapted basis functions of A   symmetry.
  1939 basis functions,  3140 primitive gaussians,  2206 cartesian basis functions
   204 alpha electrons      204 beta electrons
       nuclear repulsion energy      8886.8140228756 Hartrees.
 NAtoms=   99 NActive=   99 NUniq=   99 SFac= 1.00D+00 NAtFMM=   60 NAOKFM=T Big=T
 Integral buffers will be    131072 words long.
 Raffenetti 2 integral format.
 Two-electron integral symmetry is turned on.
 Nuclear repulsion after empirical dispersion term =     8886.6652641962 Hartrees.
 One-electron integrals computed using PRISM.
   1 Symmetry operations used in ECPInt.
 ECPInt:  NShTT=  299151 NPrTT=  925475 LenC2=  219721 LenP2D=  439219.
 LDataN:  DoStor=T MaxTD1= 6 Len=  172
 NBasis=  1939 RedAO= T EigKep=  3.47D-06  NBF=  1939
 NBsUse=  1939 1.00D-06 EigRej= -1.00D+00 NBFU=  1939
 ExpMin= 4.20D-02 ExpMax= 3.01D+05 ExpMxC= 2.91D+03 IAcc=3 IRadAn=         5 AccDes= 0.00D+00
 Harris functional with IExCor= 1009 and IRadAn=       5 diagonalized for initial guess.
 HarFok:  IExCor= 1009 AccDes= 0.00D+00 IRadAn=         5 IDoV= 1 UseB2=F ITyADJ=14
 ICtDFT=  3500011 ScaDFX=  1.000000  1.000000  1.000000  1.000000
 FoFCou: FMM=F IPFlag=           0 FMFlag=      100000 FMFlg1=        2001
         NFxFlg=           0 DoJE=T BraDBF=F KetDBF=T FulRan=T
         wScrn=  0.000000 ICntrl=       500 IOpCl=  0 I1Cent=   200000004 NGrid=           0
         NMat0=    1 NMatS0=      1 NMatT0=    0 NMatD0=    1 NMtDS0=    0 NMtDT0=    0
 Petite list used in FoFCou.
 Requested convergence on RMS density matrix=1.00D-08 within 128 cycles.
 Requested convergence on MAX density matrix=1.00D-06.
 Requested convergence on             energy=1.00D-06.
 No special actions if energy rises.
 EnCoef did     5 forward-backward iterations
 EnCoef did     5 forward-backward iterations
 Restarting incremental Fock formation.
 SCF Done:  E(RPBE1PBE) =  -3879.40544531     A.U. after   23 cycles
            NFock= 23  Conv=0.31D-08     -V/T= 2.0033
 DoSCS=F DFT=T ScalE2(SS,OS)=  1.000000  1.000000
 Range of M.O.s used for correlation:     1  1939
 NBasis=  1939 NAE=   204 NBE=   204 NFC=     0 NFV=     0
 NROrb=   1939 NOA=   204 NOB=   204 NVA=  1735 NVB=  1735

 **** Warning!!: The largest alpha MO coefficient is  0.56001700D+02

          Differentiating once with respect to electric field.
                with respect to dipole field.
          Electric field/nuclear overlap derivatives assumed to be zero.
          There are     3 degrees of freedom in the 1st order CPHF.  IDoFFX=0 NUNeed=     3.
      3 vectors produced by pass  0 Test12= 1.18D-11 3.33D-08 XBig12= 2.12D+03 2.04D+01.
 AX will form     3 AO Fock derivatives at one time.
      3 vectors produced by pass  1 Test12= 1.18D-11 3.33D-08 XBig12= 1.37D+03 1.06D+01.
      3 vectors produced by pass  2 Test12= 1.18D-11 3.33D-08 XBig12= 7.41D+02 7.34D+00.
      3 vectors produced by pass  3 Test12= 1.18D-11 3.33D-08 XBig12= 7.72D+02 5.80D+00.
      3 vectors produced by pass  4 Test12= 1.18D-11 3.33D-08 XBig12= 3.24D+02 3.35D+00.
      3 vectors produced by pass  5 Test12= 1.18D-11 3.33D-08 XBig12= 1.60D+02 2.25D+00.
      3 vectors produced by pass  6 Test12= 1.18D-11 3.33D-08 XBig12= 1.16D+02 2.65D+00.
      3 vectors produced by pass  7 Test12= 1.18D-11 3.33D-08 XBig12= 5.76D+01 1.42D+00.
      3 vectors produced by pass  8 Test12= 1.18D-11 3.33D-08 XBig12= 2.39D+01 7.90D-01.
      3 vectors produced by pass  9 Test12= 1.18D-11 3.33D-08 XBig12= 1.40D+01 7.25D-01.
      3 vectors produced by pass 10 Test12= 1.18D-11 3.33D-08 XBig12= 6.54D+00 4.61D-01.
      3 vectors produced by pass 11 Test12= 1.18D-11 3.33D-08 XBig12= 3.37D+00 3.39D-01.
      3 vectors produced by pass 12 Test12= 1.18D-11 3.33D-08 XBig12= 1.90D+00 2.32D-01.
      3 vectors produced by pass 13 Test12= 1.18D-11 3.33D-08 XBig12= 6.39D-01 1.20D-01.
      3 vectors produced by pass 14 Test12= 1.18D-11 3.33D-08 XBig12= 3.21D-01 7.30D-02.
      3 vectors produced by pass 15 Test12= 1.18D-11 3.33D-08 XBig12= 1.23D-01 5.22D-02.
      3 vectors produced by pass 16 Test12= 1.18D-11 3.33D-08 XBig12= 6.73D-02 6.14D-02.
      3 vectors produced by pass 17 Test12= 1.18D-11 3.33D-08 XBig12= 2.81D-02 3.26D-02.
      3 vectors produced by pass 18 Test12= 1.18D-11 3.33D-08 XBig12= 9.77D-03 1.58D-02.
      3 vectors produced by pass 19 Test12= 1.18D-11 3.33D-08 XBig12= 3.63D-03 9.98D-03.
      3 vectors produced by pass 20 Test12= 1.18D-11 3.33D-08 XBig12= 1.00D-03 4.58D-03.
      3 vectors produced by pass 21 Test12= 1.18D-11 3.33D-08 XBig12= 2.49D-04 2.43D-03.
      3 vectors produced by pass 22 Test12= 1.18D-11 3.33D-08 XBig12= 6.30D-05 1.42D-03.
      3 vectors produced by pass 23 Test12= 1.18D-11 3.33D-08 XBig12= 2.27D-05 8.31D-04.
      3 vectors produced by pass 24 Test12= 1.18D-11 3.33D-08 XBig12= 5.19D-06 3.41D-04.
      3 vectors produced by pass 25 Test12= 1.18D-11 3.33D-08 XBig12= 1.09D-06 1.55D-04.
      3 vectors produced by pass 26 Test12= 1.18D-11 3.33D-08 XBig12= 1.91D-07 6.46D-05.
      3 vectors produced by pass 27 Test12= 1.18D-11 3.33D-08 XBig12= 4.20D-08 3.24D-05.
      3 vectors produced by pass 28 Test12= 1.18D-11 3.33D-08 XBig12= 9.54D-09 1.31D-05.
      3 vectors produced by pass 29 Test12= 1.18D-11 3.33D-08 XBig12= 1.67D-09 3.97D-06.
      3 vectors produced by pass 30 Test12= 1.18D-11 3.33D-08 XBig12= 3.32D-10 1.85D-06.
      3 vectors produced by pass 31 Test12= 1.18D-11 3.33D-08 XBig12= 6.22D-11 8.70D-07.
      3 vectors produced by pass 32 Test12= 1.18D-11 3.33D-08 XBig12= 1.18D-11 3.97D-07.
      2 vectors produced by pass 33 Test12= 1.18D-11 3.33D-08 XBig12= 5.47D-12 1.24D-07.
      2 vectors produced by pass 34 Test12= 1.18D-11 3.33D-08 XBig12= 7.36D-13 8.18D-08.
 InvSVY:  IOpt=1 It=  1 EMax= 1.42D-14
 Solved reduced A of dimension   103 with     3 vectors.
 Isotropic polarizability for W=    0.000000      711.88 Bohr**3.
 End of Minotr F.D. properties file   721 does not exist.
 End of Minotr F.D. properties file   722 does not exist.
 End of Minotr F.D. properties file   788 does not exist.

 **********************************************************************

            Population analysis using the SCF density.

 **********************************************************************

 Orbital symmetries:
       Occupied  (A) (A) (A) (A) (A) (A) (A) (A) (A) (A) (A) (A)
                 (A) (A) (A) (A) (A) (A) (A) (A) (A) (A) (A) (A)
                 (A) (A) (A) (A) (A) (A) (A) (A) (A) (A) (A) (A)
                 (A) (A) (A) (A) (A) (A) (A) (A) (A) (A) (A) (A)
                 (A) (A) (A) (A) (A) (A) (A) (A) (A) (A) (A) (A)
                 (A) (A) (A) (A) (A) (A) (A) (A) (A) (A) (A) (A)
                 (A) (A) (A) (A) (A) (A) (A) (A) (A) (A) (A) (A)
                 (A) (A) (A) (A) (A) (A) (A) (A) (A) (A) (A) (A)
                 (A) (A) (A) (A) (A) (A) (A) (A) (A) (A) (A) (A)
                 (A) (A) (A) (A) (A) (A) (A) (A) (A) (A) (A) (A)
                 (A) (A) (A) (A) (A) (A) (A) (A) (A) (A) (A) (A)
                 (A) (A) (A) (A) (A) (A) (A) (A) (A) (A) (A) (A)
                 (A) (A) (A) (A) (A) (A) (A) (A) (A) (A) (A) (A)
                 (A) (A) (A) (A) (A) (A) (A) (A) (A) (A) (A) (A)
                 (A) (A) (A) (A) (A) (A) (A) (A) (A) (A) (A) (A)
                 (A) (A) (A) (A) (A) (A) (A) (A) (A) (A) (A) (A)
                 (A) (A) (A) (A) (A) (A) (A) (A) (A) (A) (A) (A)
       Virtual   (A) (A) (A) (A) (A) (A) (A) (A) (A) (A) (A) (A)
                 (A) (A) (A) (A) (A) (A) (A) (A) (A) (A) (A) (A)
                 (A) (A) (A) (A) (A) (A) (A) (A) (A) (A) (A) (A)
                 (A) (A) (A) (A) (A) (A) (A) (A) (A) (A) (A) (A)
                 (A) (A) (A) (A) (A) (A) (A) (A) (A) (A) (A) (A)
                 (A) (A) (A) (A) (A) (A) (A) (A) (A) (A) (A) (A)
                 (A) (A) (A) (A) (A) (A) (A) (A) (A) (A) (A) (A)
                 (A) (A) (A) (A) (A) (A) (A) (A) (A) (A) (A) (A)
                 (A) (A) (A) (A) (A) (A) (A) (A) (A) (A) (A) (A)
                 (A) (A) (A) (A) (A) (A) (A) (A) (A) (A) (A) (A)
                 (A) (A) (A) (A) (A) (A) (A) (A) (A) (A) (A) (A)
                 (A) (A) (A) (A) (A) (A) (A) (A) (A) (A) (A) (A)
                 (A) (A) (A) (A) (A) (A) (A) (A) (A) (A) (A) (A)
                 (A) (A) (A) (A) (A) (A) (A) (A) (A) (A) (A) (A)
                 (A) (A) (A) (A) (A) (A) (A) (A) (A) (A) (A) (A)
                 (A) (A) (A) (A) (A) (A) (A) (A) (A) (A) (A) (A)
                 (A) (A) (A) (A) (A) (A) (A) (A) (A) (A) (A) (A)
                 (A) (A) (A) (A) (A) (A) (A) (A) (A) (A) (A) (A)
                 (A) (A) (A) (A) (A) (A) (A) (A) (A) (A) (A) (A)
                 (A) (A) (A) (A) (A) (A) (A) (A) (A) (A) (A) (A)
                 (A) (A) (A) (A) (A) (A) (A) (A) (A) (A) (A) (A)
                 (A) (A) (A) (A) (A) (A) (A) (A) (A) (A) (A) (A)
                 (A) (A) (A) (A) (A) (A) (A) (A) (A) (A) (A) (A)
                 (A) (A) (A) (A) (A) (A) (A) (A) (A) (A) (A) (A)
                 (A) (A) (A) (A) (A) (A) (A) (A) (A) (A) (A) (A)
                 (A) (A) (A) (A) (A) (A) (A) (A) (A) (A) (A) (A)
                 (A) (A) (A) (A) (A) (A) (A) (A) (A) (A) (A) (A)
                 (A) (A) (A) (A) (A) (A) (A) (A) (A) (A) (A) (A)
                 (A) (A) (A) (A) (A) (A) (A) (A) (A) (A) (A) (A)
                 (A) (A) (A) (A) (A) (A) (A) (A) (A) (A) (A) (A)
                 (A) (A) (A) (A) (A) (A) (A) (A) (A) (A) (A) (A)
                 (A) (A) (A) (A) (A) (A) (A) (A) (A) (A) (A) (A)
                 (A) (A) (A) (A) (A) (A) (A) (A) (A) (A) (A) (A)
                 (A) (A) (A) (A) (A) (A) (A) (A) (A) (A) (A) (A)
                 (A) (A) (A) (A) (A) (A) (A) (A) (A) (A) (A) (A)
                 (A) (A) (A) (A) (A) (A) (A) (A) (A) (A) (A) (A)
                 (A) (A) (A) (A) (A) (A) (A) (A) (A) (A) (A) (A)
                 (A) (A) (A) (A) (A) (A) (A) (A) (A) (A) (A) (A)
                 (A) (A) (A) (A) (A) (A) (A) (A) (A) (A) (A) (A)
                 (A) (A) (A) (A) (A) (A) (A) (A) (A) (A) (A) (A)
                 (A) (A) (A) (A) (A) (A) (A) (A) (A) (A) (A) (A)
                 (A) (A) (A) (A) (A) (A) (A) (A) (A) (A) (A) (A)
                 (A) (A) (A) (A) (A) (A) (A) (A) (A) (A) (A) (A)
                 (A) (A) (A) (A) (A) (A) (A) (A) (A) (A) (A) (A)
                 (A) (A) (A) (A) (A) (A) (A) (A) (A) (A) (A) (A)
                 (A) (A) (A) (A) (A) (A) (A) (A) (A) (A) (A) (A)
                 (A) (A) (A) (A) (A) (A) (A) (A) (A) (A) (A) (A)
                 (A) (A) (A) (A) (A) (A) (A) (A) (A) (A) (A) (A)
                 (A) (A) (A) (A) (A) (A) (A) (A) (A) (A) (A) (A)
                 (A) (A) (A) (A) (A) (A) (A) (A) (A) (A) (A) (A)
                 (A) (A) (A) (A) (A) (A) (A) (A) (A) (A) (A) (A)
                 (A) (A) (A) (A) (A) (A) (A) (A) (A) (A) (A) (A)
                 (A) (A) (A) (A) (A) (A) (A) (A) (A) (A) (A) (A)
                 (A) (A) (A) (A) (A) (A) (A) (A) (A) (A) (A) (A)
                 (A) (A) (A) (A) (A) (A) (A) (A) (A) (A) (A) (A)
                 (A) (A) (A) (A) (A) (A) (A) (A) (A) (A) (A) (A)
                 (A) (A) (A) (A) (A) (A) (A) (A) (A) (A) (A) (A)
                 (A) (A) (A) (A) (A) (A) (A) (A) (A) (A) (A) (A)
                 (A) (A) (A) (A) (A) (A) (A) (A) (A) (A) (A) (A)
                 (A) (A) (A) (A) (A) (A) (A) (A) (A) (A) (A) (A)
                 (A) (A) (A) (A) (A) (A) (A) (A) (A) (A) (A) (A)
                 (A) (A) (A) (A) (A) (A) (A) (A) (A) (A) (A) (A)
                 (A) (A) (A) (A) (A) (A) (A) (A) (A) (A) (A) (A)
                 (A) (A) (A) (A) (A) (A) (A) (A) (A) (A) (A) (A)
                 (A) (A) (A) (A) (A) (A) (A) (A) (A) (A) (A) (A)
                 (A) (A) (A) (A) (A) (A) (A) (A) (A) (A) (A) (A)
                 (A) (A) (A) (A) (A) (A) (A) (A) (A) (A) (A) (A)
                 (A) (A) (A) (A) (A) (A) (A) (A) (A) (A) (A) (A)
                 (A) (A) (A) (A) (A) (A) (A) (A) (A) (A) (A) (A)
                 (A) (A) (A) (A) (A) (A) (A) (A) (A) (A) (A) (A)
                 (A) (A) (A) (A) (A) (A) (A) (A) (A) (A) (A) (A)
                 (A) (A) (A) (A) (A) (A) (A) (A) (A) (A) (A) (A)
                 (A) (A) (A) (A) (A) (A) (A) (A) (A) (A) (A) (A)
                 (A) (A) (A) (A) (A) (A) (A) (A) (A) (A) (A) (A)
                 (A) (A) (A) (A) (A) (A) (A) (A) (A) (A) (A) (A)
                 (A) (A) (A) (A) (A) (A) (A) (A) (A) (A) (A) (A)
                 (A) (A) (A) (A) (A) (A) (A) (A) (A) (A) (A) (A)
                 (A) (A) (A) (A) (A) (A) (A) (A) (A) (A) (A) (A)
                 (A) (A) (A) (A) (A) (A) (A) (A) (A) (A) (A) (A)
                 (A) (A) (A) (A) (A) (A) (A) (A) (A) (A) (A) (A)
                 (A) (A) (A) (A) (A) (A) (A) (A) (A) (A) (A) (A)
                 (A) (A) (A) (A) (A) (A) (A) (A) (A) (A) (A) (A)
                 (A) (A) (A) (A) (A) (A) (A) (A) (A) (A) (A) (A)
                 (A) (A) (A) (A) (A) (A) (A) (A) (A) (A) (A) (A)
                 (A) (A) (A) (A) (A) (A) (A) (A) (A) (A) (A) (A)
                 (A) (A) (A) (A) (A) (A) (A) (A) (A) (A) (A) (A)
                 (A) (A) (A) (A) (A) (A) (A) (A) (A) (A) (A) (A)
                 (A) (A) (A) (A) (A) (A) (A) (A) (A) (A) (A) (A)
                 (A) (A) (A) (A) (A) (A) (A) (A) (A) (A) (A) (A)
                 (A) (A) (A) (A) (A) (A) (A) (A) (A) (A) (A) (A)
                 (A) (A) (A) (A) (A) (A) (A) (A) (A) (A) (A) (A)
                 (A) (A) (A) (A) (A) (A) (A) (A) (A) (A) (A) (A)
                 (A) (A) (A) (A) (A) (A) (A) (A) (A) (A) (A) (A)
                 (A) (A) (A) (A) (A) (A) (A) (A) (A) (A) (A) (A)
                 (A) (A) (A) (A) (A) (A) (A) (A) (A) (A) (A) (A)
                 (A) (A) (A) (A) (A) (A) (A) (A) (A) (A) (A) (A)
                 (A) (A) (A) (A) (A) (A) (A) (A) (A) (A) (A) (A)
                 (A) (A) (A) (A) (A) (A) (A) (A) (A) (A) (A) (A)
                 (A) (A) (A) (A) (A) (A) (A) (A) (A) (A) (A) (A)
                 (A) (A) (A) (A) (A) (A) (A) (A) (A) (A) (A) (A)
                 (A) (A) (A) (A) (A) (A) (A) (A) (A) (A) (A) (A)
                 (A) (A) (A) (A) (A) (A) (A) (A) (A) (A) (A) (A)
                 (A) (A) (A) (A) (A) (A) (A) (A) (A) (A) (A) (A)
                 (A) (A) (A) (A) (A) (A) (A) (A) (A) (A) (A) (A)
                 (A) (A) (A) (A) (A) (A) (A) (A) (A) (A) (A) (A)
                 (A) (A) (A) (A) (A) (A) (A) (A) (A) (A) (A) (A)
                 (A) (A) (A) (A) (A) (A) (A) (A) (A) (A) (A) (A)
                 (A) (A) (A) (A) (A) (A) (A) (A) (A) (A) (A) (A)
                 (A) (A) (A) (A) (A) (A) (A) (A) (A) (A) (A) (A)
                 (A) (A) (A) (A) (A) (A) (A) (A) (A) (A) (A) (A)
                 (A) (A) (A) (A) (A) (A) (A) (A) (A) (A) (A) (A)
                 (A) (A) (A) (A) (A) (A) (A) (A) (A) (A) (A) (A)
                 (A) (A) (A) (A) (A) (A) (A) (A) (A) (A) (A) (A)
                 (A) (A) (A) (A) (A) (A) (A) (A) (A) (A) (A) (A)
                 (A) (A) (A) (A) (A) (A) (A) (A) (A) (A) (A) (A)
                 (A) (A) (A) (A) (A) (A) (A) (A) (A) (A) (A) (A)
                 (A) (A) (A) (A) (A) (A) (A) (A) (A) (A) (A) (A)
                 (A) (A) (A) (A) (A) (A) (A) (A) (A) (A) (A) (A)
                 (A) (A) (A) (A) (A) (A) (A) (A) (A) (A) (A) (A)
                 (A) (A) (A) (A) (A) (A) (A) (A) (A) (A) (A) (A)
                 (A) (A) (A) (A) (A) (A) (A) (A) (A) (A) (A) (A)
                 (A) (A) (A) (A) (A) (A) (A) (A) (A) (A) (A) (A)
                 (A) (A) (A) (A) (A) (A) (A) (A) (A) (A) (A) (A)
                 (A) (A) (A) (A) (A) (A) (A) (A) (A) (A) (A) (A)
                 (A) (A) (A) (A) (A) (A) (A) (A) (A) (A) (A) (A)
                 (A) (A) (A) (A) (A) (A) (A) (A) (A) (A) (A) (A)
                 (A) (A) (A) (A) (A) (A) (A) (A) (A) (A) (A) (A)
                 (A) (A) (A) (A) (A) (A) (A) (A) (A) (A) (A) (A)
                 (A) (A) (A) (A) (A) (A) (A) (A) (A) (A) (A) (A)
                 (A) (A) (A) (A) (A) (A) (A) (A) (A) (A) (A) (A)
                 (A) (A) (A) (A) (A) (A) (A) (A) (A) (A) (A) (A)
                 (A) (A) (A) (A) (A) (A) (A) (A) (A) (A) (A) (A)
                 (A) (A) (A) (A) (A) (A) (A) (A) (A) (A) (A) (A)
                 (A) (A) (A) (A) (A) (A) (A) (A) (A) (A) (A) (A)
                 (A) (A) (A) (A) (A) (A) (A) (A) (A) (A) (A) (A)
                 (A) (A) (A) (A) (A) (A) (A) (A) (A) (A) (A) (A)
                 (A) (A) (A) (A) (A) (A) (A) (A) (A) (A) (A) (A)
                 (A) (A) (A) (A) (A) (A) (A) (A) (A) (A) (A) (A)
                 (A) (A) (A) (A) (A) (A) (A) (A) (A) (A) (A) (A)
                 (A) (A) (A) (A) (A) (A) (A) (A) (A) (A) (A) (A)
                 (A) (A) (A) (A) (A) (A) (A) (A) (A) (A) (A) (A)
                 (A) (A) (A) (A) (A) (A) (A) (A) (A) (A) (A) (A)
                 (A) (A) (A) (A) (A) (A) (A) (A) (A) (A) (A) (A)
                 (A) (A) (A) (A) (A) (A) (A) (A) (A) (A) (A) (A)
                 (A) (A) (A) (A) (A) (A) (A)
 The electronic state is 1-A.
 Alpha  occ. eigenvalues -- -256.31825 -89.02440 -30.08844 -25.91660 -25.91292
 Alpha  occ. eigenvalues --  -25.91232 -19.27642 -19.26239 -19.17931 -19.17493
 Alpha  occ. eigenvalues --  -14.45588 -14.39417 -14.37912 -14.37891 -14.37791
 Alpha  occ. eigenvalues --  -14.37313 -10.35550 -10.34963 -10.28631 -10.26628
 Alpha  occ. eigenvalues --  -10.25418 -10.24823 -10.24757 -10.24705 -10.24649
 Alpha  occ. eigenvalues --  -10.24633 -10.24590 -10.24577 -10.24417 -10.24414
 Alpha  occ. eigenvalues --  -10.24060 -10.24035 -10.23835 -10.23620 -10.23447
 Alpha  occ. eigenvalues --  -10.23129 -10.23088 -10.23027 -10.23001 -10.22900
 Alpha  occ. eigenvalues --  -10.22895 -10.22834 -10.22805 -10.22747 -10.22355
 Alpha  occ. eigenvalues --  -10.22345 -10.22267 -10.22067 -10.21935 -10.21813
 Alpha  occ. eigenvalues --  -10.21813 -10.21750 -10.21597 -10.21592 -10.21564
 Alpha  occ. eigenvalues --  -10.21496 -10.20239  -8.00259  -5.93913  -5.93614
 Alpha  occ. eigenvalues --   -5.93097  -3.43278  -2.19234  -2.18617  -2.18508
 Alpha  occ. eigenvalues --   -1.17980  -1.16893  -1.07372  -1.03113  -1.02348
 Alpha  occ. eigenvalues --   -0.98263  -0.97219  -0.96996  -0.96010  -0.91541
 Alpha  occ. eigenvalues --   -0.84582  -0.84136  -0.83916  -0.83632  -0.82959
 Alpha  occ. eigenvalues --   -0.82508  -0.82283  -0.81401  -0.81013  -0.79482
 Alpha  occ. eigenvalues --   -0.78831  -0.76733  -0.76529  -0.75709  -0.75186
 Alpha  occ. eigenvalues --   -0.73434  -0.73385  -0.72882  -0.71864  -0.71402
 Alpha  occ. eigenvalues --   -0.70298  -0.69945  -0.69571  -0.67568  -0.67212
 Alpha  occ. eigenvalues --   -0.66938  -0.65727  -0.65534  -0.65473  -0.63088
 Alpha  occ. eigenvalues --   -0.62896  -0.62237  -0.60231  -0.59547  -0.57923
 Alpha  occ. eigenvalues --   -0.57367  -0.56367  -0.55321  -0.54724  -0.54547
 Alpha  occ. eigenvalues --   -0.53978  -0.53812  -0.52767  -0.52473  -0.51716
 Alpha  occ. eigenvalues --   -0.51179  -0.50844  -0.49657  -0.49122  -0.48839
 Alpha  occ. eigenvalues --   -0.48759  -0.48467  -0.48353  -0.47763  -0.47521
 Alpha  occ. eigenvalues --   -0.46756  -0.46431  -0.46069  -0.45860  -0.45639
 Alpha  occ. eigenvalues --   -0.45127  -0.45008  -0.44833  -0.44665  -0.44616
 Alpha  occ. eigenvalues --   -0.44346  -0.44179  -0.43982  -0.43963  -0.43795
 Alpha  occ. eigenvalues --   -0.43670  -0.43482  -0.43293  -0.43106  -0.42672
 Alpha  occ. eigenvalues --   -0.42421  -0.41786  -0.41677  -0.41158  -0.41057
 Alpha  occ. eigenvalues --   -0.40940  -0.40701  -0.40378  -0.40254  -0.39733
 Alpha  occ. eigenvalues --   -0.39606  -0.39464  -0.39339  -0.39214  -0.38704
 Alpha  occ. eigenvalues --   -0.38440  -0.38230  -0.37965  -0.37749  -0.37542
 Alpha  occ. eigenvalues --   -0.37092  -0.36920  -0.36259  -0.36063  -0.35711
 Alpha  occ. eigenvalues --   -0.35642  -0.35318  -0.34991  -0.33649  -0.33280
 Alpha  occ. eigenvalues --   -0.33091  -0.32962  -0.32701  -0.32592  -0.32394
 Alpha  occ. eigenvalues --   -0.31286  -0.31116  -0.30589  -0.29985  -0.28250
 Alpha  occ. eigenvalues --   -0.27942  -0.27664  -0.27393  -0.25809  -0.25346
 Alpha  occ. eigenvalues --   -0.24841  -0.24038  -0.22257  -0.21968  -0.20915
 Alpha  occ. eigenvalues --   -0.19209  -0.19039  -0.18802  -0.18688
 Alpha virt. eigenvalues --   -0.07928  -0.07763  -0.04316  -0.02181  -0.00680
 Alpha virt. eigenvalues --   -0.00223   0.00807   0.01131   0.01360   0.01486
 Alpha virt. eigenvalues --    0.01855   0.02351   0.03553   0.03645   0.03960
 Alpha virt. eigenvalues --    0.04252   0.04520   0.05068   0.05319   0.05577
 Alpha virt. eigenvalues --    0.05620   0.06056   0.06254   0.06403   0.06454
 Alpha virt. eigenvalues --    0.07492   0.07626   0.07702   0.08263   0.08393
 Alpha virt. eigenvalues --    0.08574   0.09132   0.09298   0.09421   0.09698
 Alpha virt. eigenvalues --    0.10079   0.10377   0.10442   0.10980   0.11196
 Alpha virt. eigenvalues --    0.11473   0.11668   0.11831   0.11891   0.12085
 Alpha virt. eigenvalues --    0.12338   0.12462   0.12908   0.12952   0.13227
 Alpha virt. eigenvalues --    0.13426   0.13545   0.13692   0.13845   0.13995
 Alpha virt. eigenvalues --    0.14123   0.14255   0.14504   0.14788   0.15142
 Alpha virt. eigenvalues --    0.15243   0.15546   0.15631   0.15869   0.15926
 Alpha virt. eigenvalues --    0.16391   0.16517   0.16740   0.16772   0.16793
 Alpha virt. eigenvalues --    0.17148   0.17339   0.17439   0.17681   0.17795
 Alpha virt. eigenvalues --    0.18104   0.18399   0.18792   0.18929   0.19045
 Alpha virt. eigenvalues --    0.19408   0.19654   0.19846   0.20155   0.20312
 Alpha virt. eigenvalues --    0.20416   0.20617   0.20805   0.21099   0.21291
 Alpha virt. eigenvalues --    0.21547   0.21671   0.21810   0.21997   0.22366
 Alpha virt. eigenvalues --    0.22541   0.22600   0.22940   0.23173   0.23471
 Alpha virt. eigenvalues --    0.23595   0.23738   0.23969   0.24405   0.24546
 Alpha virt. eigenvalues --    0.24808   0.24949   0.25196   0.25251   0.25644
 Alpha virt. eigenvalues --    0.25825   0.25977   0.26127   0.26231   0.26428
 Alpha virt. eigenvalues --    0.26515   0.26732   0.27008   0.27137   0.27222
 Alpha virt. eigenvalues --    0.27296   0.27560   0.27957   0.28350   0.28736
 Alpha virt. eigenvalues --    0.28784   0.29069   0.29166   0.29396   0.29616
 Alpha virt. eigenvalues --    0.30026   0.30069   0.30397   0.30499   0.30786
 Alpha virt. eigenvalues --    0.30874   0.31015   0.31354   0.31594   0.31944
 Alpha virt. eigenvalues --    0.32185   0.32325   0.32550   0.32706   0.32941
 Alpha virt. eigenvalues --    0.33048   0.33290   0.33561   0.33704   0.33835
 Alpha virt. eigenvalues --    0.34084   0.34684   0.34829   0.34901   0.35079
 Alpha virt. eigenvalues --    0.35453   0.35824   0.36024   0.36183   0.36389
 Alpha virt. eigenvalues --    0.36674   0.36764   0.36981   0.37311   0.37381
 Alpha virt. eigenvalues --    0.37707   0.37849   0.38073   0.38246   0.38641
 Alpha virt. eigenvalues --    0.38660   0.38968   0.39310   0.39375   0.39587
 Alpha virt. eigenvalues --    0.39671   0.39776   0.39931   0.39974   0.40423
 Alpha virt. eigenvalues --    0.40672   0.40860   0.41111   0.41228   0.41314
 Alpha virt. eigenvalues --    0.41538   0.41621   0.41902   0.42276   0.42404
 Alpha virt. eigenvalues --    0.42495   0.42782   0.43090   0.43192   0.43353
 Alpha virt. eigenvalues --    0.43502   0.43588   0.43868   0.44143   0.44289
 Alpha virt. eigenvalues --    0.44367   0.44475   0.44649   0.44799   0.44953
 Alpha virt. eigenvalues --    0.45393   0.45504   0.45655   0.45750   0.45933
 Alpha virt. eigenvalues --    0.46035   0.46169   0.46242   0.46510   0.46540
 Alpha virt. eigenvalues --    0.46661   0.46844   0.46936   0.47111   0.47381
 Alpha virt. eigenvalues --    0.47591   0.47607   0.48136   0.48169   0.48391
 Alpha virt. eigenvalues --    0.48441   0.48611   0.48737   0.48971   0.49469
 Alpha virt. eigenvalues --    0.49522   0.49611   0.49733   0.49812   0.49990
 Alpha virt. eigenvalues --    0.50327   0.50447   0.50632   0.50822   0.51088
 Alpha virt. eigenvalues --    0.51228   0.51288   0.51554   0.51673   0.51781
 Alpha virt. eigenvalues --    0.51995   0.52255   0.52408   0.52754   0.52815
 Alpha virt. eigenvalues --    0.52946   0.53013   0.53175   0.53284   0.53596
 Alpha virt. eigenvalues --    0.53889   0.54003   0.54560   0.54665   0.54695
 Alpha virt. eigenvalues --    0.54939   0.55165   0.55386   0.55488   0.55803
 Alpha virt. eigenvalues --    0.55926   0.56053   0.56124   0.56353   0.56487
 Alpha virt. eigenvalues --    0.56635   0.57109   0.57315   0.57739   0.57872
 Alpha virt. eigenvalues --    0.57966   0.58122   0.58314   0.58466   0.58719
 Alpha virt. eigenvalues --    0.59081   0.59587   0.59842   0.60048   0.60147
 Alpha virt. eigenvalues --    0.60351   0.60684   0.60929   0.61234   0.61563
 Alpha virt. eigenvalues --    0.61699   0.61950   0.62570   0.62601   0.62750
 Alpha virt. eigenvalues --    0.63074   0.63276   0.63376   0.63511   0.63746
 Alpha virt. eigenvalues --    0.64464   0.64588   0.64791   0.64904   0.65163
 Alpha virt. eigenvalues --    0.65394   0.65524   0.65953   0.66197   0.66274
 Alpha virt. eigenvalues --    0.66590   0.66803   0.67011   0.67264   0.67678
 Alpha virt. eigenvalues --    0.67912   0.68158   0.68575   0.68690   0.68822
 Alpha virt. eigenvalues --    0.69100   0.69398   0.69686   0.70151   0.70407
 Alpha virt. eigenvalues --    0.70538   0.70813   0.71144   0.71570   0.71792
 Alpha virt. eigenvalues --    0.71960   0.72053   0.72477   0.72603   0.72919
 Alpha virt. eigenvalues --    0.73105   0.73392   0.73742   0.73981   0.74041
 Alpha virt. eigenvalues --    0.74195   0.74618   0.74776   0.75097   0.75304
 Alpha virt. eigenvalues --    0.75855   0.75981   0.76423   0.76679   0.76780
 Alpha virt. eigenvalues --    0.76982   0.77432   0.77533   0.78268   0.78546
 Alpha virt. eigenvalues --    0.78687   0.78783   0.79172   0.79181   0.79421
 Alpha virt. eigenvalues --    0.79639   0.80181   0.80276   0.80685   0.80901
 Alpha virt. eigenvalues --    0.81382   0.81462   0.81799   0.81918   0.82321
 Alpha virt. eigenvalues --    0.82422   0.82799   0.83346   0.83505   0.83925
 Alpha virt. eigenvalues --    0.84033   0.84246   0.84596   0.85033   0.85062
 Alpha virt. eigenvalues --    0.85568   0.85900   0.86166   0.86427   0.86863
 Alpha virt. eigenvalues --    0.87144   0.87567   0.87881   0.87991   0.88255
 Alpha virt. eigenvalues --    0.88466   0.88753   0.89303   0.89539   0.89921
 Alpha virt. eigenvalues --    0.90336   0.90459   0.90642   0.90875   0.91239
 Alpha virt. eigenvalues --    0.91541   0.91754   0.92065   0.92418   0.92764
 Alpha virt. eigenvalues --    0.92932   0.93198   0.93868   0.93999   0.94142
 Alpha virt. eigenvalues --    0.94539   0.94685   0.94935   0.95175   0.95443
 Alpha virt. eigenvalues --    0.95563   0.95983   0.96100   0.96468   0.96603
 Alpha virt. eigenvalues --    0.96926   0.97192   0.97272   0.97626   0.97790
 Alpha virt. eigenvalues --    0.97996   0.98138   0.98896   0.98948   0.99324
 Alpha virt. eigenvalues --    0.99750   0.99953   1.00069   1.00138   1.00430
 Alpha virt. eigenvalues --    1.00615   1.01029   1.01137   1.01381   1.01858
 Alpha virt. eigenvalues --    1.02225   1.02481   1.02665   1.02977   1.03215
 Alpha virt. eigenvalues --    1.03643   1.03875   1.04085   1.04319   1.04563
 Alpha virt. eigenvalues --    1.04591   1.05147   1.05415   1.05678   1.06013
 Alpha virt. eigenvalues --    1.06289   1.06500   1.06721   1.07001   1.07445
 Alpha virt. eigenvalues --    1.07565   1.07850   1.08259   1.08351   1.09136
 Alpha virt. eigenvalues --    1.09454   1.09532   1.09913   1.10369   1.10616
 Alpha virt. eigenvalues --    1.10708   1.11427   1.11442   1.11670   1.12028
 Alpha virt. eigenvalues --    1.12263   1.12323   1.12881   1.13088   1.13605
 Alpha virt. eigenvalues --    1.14012   1.14125   1.15118   1.15402   1.15638
 Alpha virt. eigenvalues --    1.15864   1.16333   1.16443   1.16924   1.17366
 Alpha virt. eigenvalues --    1.17645   1.18097   1.18124   1.18698   1.18866
 Alpha virt. eigenvalues --    1.19040   1.19730   1.19828   1.20485   1.20857
 Alpha virt. eigenvalues --    1.21095   1.21191   1.21540   1.21771   1.22257
 Alpha virt. eigenvalues --    1.22537   1.23052   1.23329   1.23355   1.24377
 Alpha virt. eigenvalues --    1.24712   1.25128   1.25397   1.25695   1.25951
 Alpha virt. eigenvalues --    1.26118   1.26505   1.27503   1.27694   1.28222
 Alpha virt. eigenvalues --    1.28530   1.28886   1.28931   1.29339   1.29835
 Alpha virt. eigenvalues --    1.29914   1.30506   1.31040   1.31215   1.31761
 Alpha virt. eigenvalues --    1.32008   1.32080   1.32358   1.32726   1.32861
 Alpha virt. eigenvalues --    1.33109   1.33276   1.34001   1.34273   1.34859
 Alpha virt. eigenvalues --    1.35057   1.35297   1.35812   1.35885   1.36399
 Alpha virt. eigenvalues --    1.36920   1.37305   1.37347   1.38649   1.38831
 Alpha virt. eigenvalues --    1.38910   1.39552   1.39873   1.40407   1.40806
 Alpha virt. eigenvalues --    1.40880   1.41629   1.41721   1.42169   1.42460
 Alpha virt. eigenvalues --    1.42939   1.43258   1.43768   1.43929   1.44288
 Alpha virt. eigenvalues --    1.45010   1.45189   1.45391   1.45658   1.45898
 Alpha virt. eigenvalues --    1.46565   1.46754   1.46864   1.47151   1.47586
 Alpha virt. eigenvalues --    1.47967   1.48152   1.48679   1.48875   1.49229
 Alpha virt. eigenvalues --    1.49311   1.50014   1.50397   1.50451   1.51130
 Alpha virt. eigenvalues --    1.51350   1.51520   1.51757   1.52442   1.52632
 Alpha virt. eigenvalues --    1.52744   1.52950   1.53313   1.53402   1.53625
 Alpha virt. eigenvalues --    1.53797   1.54054   1.54367   1.54703   1.54988
 Alpha virt. eigenvalues --    1.55236   1.55577   1.55757   1.56044   1.56205
 Alpha virt. eigenvalues --    1.56476   1.56732   1.57188   1.57638   1.57860
 Alpha virt. eigenvalues --    1.58006   1.58402   1.58528   1.58942   1.59224
 Alpha virt. eigenvalues --    1.59495   1.59585   1.59946   1.60170   1.60338
 Alpha virt. eigenvalues --    1.60516   1.60594   1.60722   1.61086   1.61387
 Alpha virt. eigenvalues --    1.61495   1.61612   1.62008   1.62172   1.62416
 Alpha virt. eigenvalues --    1.62729   1.62883   1.62992   1.63485   1.63595
 Alpha virt. eigenvalues --    1.63911   1.64326   1.64467   1.64675   1.64818
 Alpha virt. eigenvalues --    1.65191   1.65334   1.65339   1.65810   1.66011
 Alpha virt. eigenvalues --    1.66272   1.66607   1.66730   1.66954   1.67276
 Alpha virt. eigenvalues --    1.67752   1.68173   1.68314   1.68677   1.68822
 Alpha virt. eigenvalues --    1.68937   1.69249   1.69577   1.69840   1.70022
 Alpha virt. eigenvalues --    1.70256   1.70791   1.70850   1.71278   1.71771
 Alpha virt. eigenvalues --    1.72058   1.72286   1.72506   1.72643   1.72905
 Alpha virt. eigenvalues --    1.73087   1.73428   1.73619   1.73705   1.74017
 Alpha virt. eigenvalues --    1.74392   1.74675   1.74799   1.75121   1.75506
 Alpha virt. eigenvalues --    1.76459   1.76733   1.76829   1.77160   1.77566
 Alpha virt. eigenvalues --    1.77647   1.77987   1.78047   1.78342   1.79238
 Alpha virt. eigenvalues --    1.79633   1.80242   1.80904   1.81492   1.81973
 Alpha virt. eigenvalues --    1.82069   1.82306   1.83003   1.83353   1.83731
 Alpha virt. eigenvalues --    1.83994   1.84076   1.84265   1.84657   1.85125
 Alpha virt. eigenvalues --    1.85402   1.85526   1.85997   1.86660   1.86873
 Alpha virt. eigenvalues --    1.87036   1.87237   1.87975   1.88085   1.88189
 Alpha virt. eigenvalues --    1.88582   1.88882   1.89436   1.89646   1.89916
 Alpha virt. eigenvalues --    1.90231   1.90919   1.91272   1.91424   1.91678
 Alpha virt. eigenvalues --    1.91742   1.91900   1.92369   1.92764   1.92938
 Alpha virt. eigenvalues --    1.93307   1.93871   1.94343   1.94431   1.94943
 Alpha virt. eigenvalues --    1.95350   1.95452   1.95783   1.96210   1.96564
 Alpha virt. eigenvalues --    1.96711   1.97247   1.97679   1.98020   1.98130
 Alpha virt. eigenvalues --    1.98221   1.99058   1.99445   1.99783   1.99932
 Alpha virt. eigenvalues --    2.00203   2.00299   2.00398   2.01194   2.01419
 Alpha virt. eigenvalues --    2.01562   2.01888   2.02641   2.02856   2.03833
 Alpha virt. eigenvalues --    2.03972   2.04194   2.04446   2.04650   2.05182
 Alpha virt. eigenvalues --    2.05685   2.06174   2.06591   2.07179   2.07431
 Alpha virt. eigenvalues --    2.08069   2.08169   2.08719   2.09190   2.09541
 Alpha virt. eigenvalues --    2.09905   2.10219   2.10731   2.11178   2.11572
 Alpha virt. eigenvalues --    2.11799   2.12502   2.12711   2.12960   2.13141
 Alpha virt. eigenvalues --    2.13712   2.13752   2.13833   2.14177   2.14610
 Alpha virt. eigenvalues --    2.14800   2.14926   2.15445   2.15998   2.16040
 Alpha virt. eigenvalues --    2.16480   2.16700   2.17163   2.17582   2.17598
 Alpha virt. eigenvalues --    2.17762   2.18057   2.18474   2.18628   2.19066
 Alpha virt. eigenvalues --    2.19399   2.19904   2.20163   2.20453   2.20728
 Alpha virt. eigenvalues --    2.21035   2.21409   2.21793   2.22014   2.22638
 Alpha virt. eigenvalues --    2.22832   2.23119   2.23374   2.23501   2.24116
 Alpha virt. eigenvalues --    2.24515   2.24966   2.25225   2.26132   2.26303
 Alpha virt. eigenvalues --    2.26470   2.26879   2.27772   2.27987   2.28248
 Alpha virt. eigenvalues --    2.28417   2.28742   2.28968   2.29273   2.29652
 Alpha virt. eigenvalues --    2.29804   2.30179   2.30380   2.30872   2.31170
 Alpha virt. eigenvalues --    2.31826   2.32055   2.32527   2.32942   2.33264
 Alpha virt. eigenvalues --    2.33915   2.34258   2.34654   2.34978   2.35386
 Alpha virt. eigenvalues --    2.35576   2.36037   2.36268   2.36388   2.36699
 Alpha virt. eigenvalues --    2.37415   2.37584   2.38229   2.38428   2.38458
 Alpha virt. eigenvalues --    2.39059   2.39463   2.39783   2.40098   2.40413
 Alpha virt. eigenvalues --    2.40882   2.41250   2.41495   2.41967   2.42320
 Alpha virt. eigenvalues --    2.42694   2.43000   2.43270   2.43562   2.43992
 Alpha virt. eigenvalues --    2.44186   2.44679   2.44931   2.45062   2.45366
 Alpha virt. eigenvalues --    2.45740   2.46611   2.47177   2.47337   2.47490
 Alpha virt. eigenvalues --    2.47814   2.48301   2.48490   2.48801   2.49423
 Alpha virt. eigenvalues --    2.50047   2.50629   2.50880   2.51171   2.51278
 Alpha virt. eigenvalues --    2.51486   2.52050   2.52261   2.52787   2.53037
 Alpha virt. eigenvalues --    2.53386   2.53827   2.54095   2.54420   2.55041
 Alpha virt. eigenvalues --    2.55539   2.55582   2.55683   2.56099   2.56357
 Alpha virt. eigenvalues --    2.56769   2.57212   2.57582   2.57775   2.57835
 Alpha virt. eigenvalues --    2.58152   2.58547   2.58890   2.59071   2.59397
 Alpha virt. eigenvalues --    2.59503   2.59671   2.59843   2.60102   2.60784
 Alpha virt. eigenvalues --    2.61135   2.61213   2.61645   2.61927   2.62064
 Alpha virt. eigenvalues --    2.62369   2.62608   2.63018   2.63292   2.63625
 Alpha virt. eigenvalues --    2.64014   2.64369   2.64563   2.64924   2.64982
 Alpha virt. eigenvalues --    2.65569   2.65889   2.66309   2.66655   2.67004
 Alpha virt. eigenvalues --    2.67080   2.67421   2.67999   2.68169   2.68436
 Alpha virt. eigenvalues --    2.68771   2.69025   2.69201   2.69541   2.69611
 Alpha virt. eigenvalues --    2.69803   2.70161   2.70452   2.70859   2.71107
 Alpha virt. eigenvalues --    2.71630   2.71992   2.72005   2.72349   2.72630
 Alpha virt. eigenvalues --    2.73022   2.73257   2.73538   2.73767   2.74077
 Alpha virt. eigenvalues --    2.74174   2.74474   2.74980   2.75126   2.75388
 Alpha virt. eigenvalues --    2.75747   2.75841   2.76314   2.76536   2.77136
 Alpha virt. eigenvalues --    2.77328   2.77768   2.78064   2.78439   2.78537
 Alpha virt. eigenvalues --    2.78961   2.79271   2.79659   2.80570   2.80783
 Alpha virt. eigenvalues --    2.80887   2.81366   2.81668   2.82050   2.82259
 Alpha virt. eigenvalues --    2.82593   2.83024   2.83179   2.83253   2.84022
 Alpha virt. eigenvalues --    2.84086   2.84409   2.84829   2.85278   2.85841
 Alpha virt. eigenvalues --    2.86086   2.86167   2.86455   2.86793   2.86938
 Alpha virt. eigenvalues --    2.87713   2.87840   2.88073   2.88478   2.88849
 Alpha virt. eigenvalues --    2.88918   2.89396   2.89625   2.90040   2.90307
 Alpha virt. eigenvalues --    2.90912   2.91336   2.91506   2.91825   2.91862
 Alpha virt. eigenvalues --    2.92486   2.92813   2.93059   2.93419   2.93756
 Alpha virt. eigenvalues --    2.94070   2.94629   2.94815   2.94987   2.95339
 Alpha virt. eigenvalues --    2.95843   2.95874   2.96517   2.96565   2.96747
 Alpha virt. eigenvalues --    2.96874   2.97788   2.97929   2.98112   2.98441
 Alpha virt. eigenvalues --    2.99173   2.99222   2.99591   3.00243   3.00443
 Alpha virt. eigenvalues --    3.00658   3.00846   3.01213   3.01554   3.02057
 Alpha virt. eigenvalues --    3.02229   3.02606   3.03054   3.03472   3.03550
 Alpha virt. eigenvalues --    3.03692   3.04257   3.04847   3.05068   3.05382
 Alpha virt. eigenvalues --    3.05419   3.05746   3.06127   3.06503   3.06570
 Alpha virt. eigenvalues --    3.06936   3.07181   3.07290   3.07915   3.08276
 Alpha virt. eigenvalues --    3.08431   3.08638   3.08796   3.09033   3.09486
 Alpha virt. eigenvalues --    3.09955   3.10274   3.10341   3.10767   3.10889
 Alpha virt. eigenvalues --    3.10949   3.11441   3.11615   3.11824   3.12096
 Alpha virt. eigenvalues --    3.12209   3.12372   3.12704   3.12919   3.13018
 Alpha virt. eigenvalues --    3.13482   3.13851   3.14122   3.14673   3.14846
 Alpha virt. eigenvalues --    3.15127   3.15309   3.15565   3.15992   3.16140
 Alpha virt. eigenvalues --    3.16443   3.16576   3.16922   3.16966   3.17355
 Alpha virt. eigenvalues --    3.17617   3.17974   3.18068   3.18366   3.18466
 Alpha virt. eigenvalues --    3.18668   3.18914   3.19193   3.19610   3.19791
 Alpha virt. eigenvalues --    3.20155   3.20294   3.20692   3.20742   3.20893
 Alpha virt. eigenvalues --    3.21301   3.21903   3.21964   3.22172   3.22498
 Alpha virt. eigenvalues --    3.22879   3.23181   3.23559   3.23889   3.24102
 Alpha virt. eigenvalues --    3.24520   3.24714   3.24785   3.25154   3.25412
 Alpha virt. eigenvalues --    3.25859   3.25988   3.26286   3.26434   3.26464
 Alpha virt. eigenvalues --    3.27024   3.27133   3.27201   3.27502   3.27674
 Alpha virt. eigenvalues --    3.27833   3.28071   3.28328   3.28642   3.28957
 Alpha virt. eigenvalues --    3.29285   3.29541   3.29703   3.29914   3.29963
 Alpha virt. eigenvalues --    3.30388   3.30598   3.30776   3.30894   3.31080
 Alpha virt. eigenvalues --    3.31555   3.31796   3.31977   3.32049   3.32588
 Alpha virt. eigenvalues --    3.32743   3.33105   3.33165   3.33562   3.33932
 Alpha virt. eigenvalues --    3.34263   3.34548   3.34720   3.35065   3.35220
 Alpha virt. eigenvalues --    3.35404   3.35645   3.36119   3.36395   3.36724
 Alpha virt. eigenvalues --    3.36985   3.37106   3.37316   3.37461   3.37730
 Alpha virt. eigenvalues --    3.38123   3.38252   3.38544   3.38574   3.38745
 Alpha virt. eigenvalues --    3.38909   3.39194   3.39566   3.39774   3.39863
 Alpha virt. eigenvalues --    3.40049   3.40604   3.41004   3.41164   3.41551
 Alpha virt. eigenvalues --    3.42176   3.42300   3.42417   3.42544   3.42967
 Alpha virt. eigenvalues --    3.43152   3.43384   3.43761   3.44023   3.44193
 Alpha virt. eigenvalues --    3.44506   3.44880   3.45002   3.45365   3.45661
 Alpha virt. eigenvalues --    3.45909   3.46158   3.46280   3.46704   3.46946
 Alpha virt. eigenvalues --    3.47276   3.47375   3.47617   3.47934   3.48250
 Alpha virt. eigenvalues --    3.48590   3.48809   3.49218   3.49376   3.49838
 Alpha virt. eigenvalues --    3.50161   3.50349   3.50650   3.50799   3.51473
 Alpha virt. eigenvalues --    3.51594   3.51990   3.52262   3.52327   3.53087
 Alpha virt. eigenvalues --    3.53211   3.53552   3.53761   3.53974   3.54326
 Alpha virt. eigenvalues --    3.54670   3.54875   3.55589   3.55790   3.56078
 Alpha virt. eigenvalues --    3.56474   3.56598   3.57229   3.57369   3.57671
 Alpha virt. eigenvalues --    3.57975   3.58518   3.58831   3.59068   3.59557
 Alpha virt. eigenvalues --    3.60185   3.60510   3.60816   3.61261   3.61468
 Alpha virt. eigenvalues --    3.61844   3.62037   3.62500   3.63047   3.63257
 Alpha virt. eigenvalues --    3.63453   3.63911   3.64368   3.64713   3.65108
 Alpha virt. eigenvalues --    3.65342   3.65884   3.66177   3.66442   3.66815
 Alpha virt. eigenvalues --    3.66948   3.67023   3.67514   3.67827   3.67984
 Alpha virt. eigenvalues --    3.68439   3.68664   3.69594   3.70020   3.70160
 Alpha virt. eigenvalues --    3.70323   3.70874   3.71214   3.71295   3.71818
 Alpha virt. eigenvalues --    3.72081   3.72474   3.72924   3.73219   3.73778
 Alpha virt. eigenvalues --    3.74290   3.74499   3.74826   3.74987   3.75285
 Alpha virt. eigenvalues --    3.75847   3.76614   3.77155   3.77379   3.77434
 Alpha virt. eigenvalues --    3.77581   3.78087   3.78476   3.78655   3.79431
 Alpha virt. eigenvalues --    3.79884   3.80404   3.80555   3.80879   3.81545
 Alpha virt. eigenvalues --    3.82348   3.82534   3.82826   3.83403   3.83655
 Alpha virt. eigenvalues --    3.83923   3.84753   3.85178   3.85649   3.86065
 Alpha virt. eigenvalues --    3.86479   3.86663   3.87078   3.87318   3.87909
 Alpha virt. eigenvalues --    3.88325   3.89190   3.89495   3.89623   3.89869
 Alpha virt. eigenvalues --    3.90252   3.90943   3.91437   3.92187   3.92648
 Alpha virt. eigenvalues --    3.92862   3.93089   3.93709   3.94596   3.94827
 Alpha virt. eigenvalues --    3.95185   3.95500   3.96229   3.96793   3.96990
 Alpha virt. eigenvalues --    3.97174   3.97649   3.98744   3.99100   3.99631
 Alpha virt. eigenvalues --    4.00461   4.01149   4.01596   4.02200   4.02598
 Alpha virt. eigenvalues --    4.02780   4.03541   4.03800   4.04193   4.04420
 Alpha virt. eigenvalues --    4.05357   4.06077   4.06691   4.07073   4.07924
 Alpha virt. eigenvalues --    4.08317   4.08741   4.09578   4.10144   4.10538
 Alpha virt. eigenvalues --    4.11033   4.11190   4.12639   4.13257   4.13513
 Alpha virt. eigenvalues --    4.14272   4.15281   4.15862   4.16468   4.16551
 Alpha virt. eigenvalues --    4.17005   4.17551   4.18166   4.18657   4.19179
 Alpha virt. eigenvalues --    4.19270   4.19605   4.20044   4.20421   4.21228
 Alpha virt. eigenvalues --    4.21707   4.21958   4.22140   4.22477   4.23026
 Alpha virt. eigenvalues --    4.23344   4.23883   4.24683   4.25171   4.25975
 Alpha virt. eigenvalues --    4.26306   4.26502   4.27026   4.27665   4.28289
 Alpha virt. eigenvalues --    4.29109   4.29843   4.29976   4.30145   4.31303
 Alpha virt. eigenvalues --    4.31963   4.32194   4.32614   4.33211   4.33712
 Alpha virt. eigenvalues --    4.33792   4.34089   4.34135   4.34984   4.35326
 Alpha virt. eigenvalues --    4.36696   4.36933   4.37171   4.37671   4.38127
 Alpha virt. eigenvalues --    4.38864   4.39228   4.39519   4.39785   4.40597
 Alpha virt. eigenvalues --    4.40672   4.40897   4.41239   4.41606   4.42099
 Alpha virt. eigenvalues --    4.42288   4.42416   4.42556   4.43472   4.44323
 Alpha virt. eigenvalues --    4.44530   4.44551   4.45457   4.45678   4.46625
 Alpha virt. eigenvalues --    4.46967   4.47481   4.48039   4.48825   4.49872
 Alpha virt. eigenvalues --    4.49904   4.50720   4.51262   4.51962   4.53710
 Alpha virt. eigenvalues --    4.54238   4.54277   4.54993   4.55512   4.55672
 Alpha virt. eigenvalues --    4.56385   4.56908   4.57336   4.57830   4.58304
 Alpha virt. eigenvalues --    4.58739   4.59476   4.59986   4.61489   4.61737
 Alpha virt. eigenvalues --    4.63326   4.63770   4.64506   4.65410   4.66627
 Alpha virt. eigenvalues --    4.66724   4.67053   4.67208   4.67998   4.69154
 Alpha virt. eigenvalues --    4.69282   4.69771   4.70015   4.70187   4.70694
 Alpha virt. eigenvalues --    4.71119   4.71695   4.72327   4.72561   4.72939
 Alpha virt. eigenvalues --    4.73644   4.74429   4.75221   4.75585   4.76161
 Alpha virt. eigenvalues --    4.77246   4.77703   4.78470   4.79415   4.80399
 Alpha virt. eigenvalues --    4.80999   4.82164   4.83358   4.83516   4.83888
 Alpha virt. eigenvalues --    4.84064   4.85635   4.86107   4.87755   4.88193
 Alpha virt. eigenvalues --    4.89284   4.89592   4.90197   4.90971   4.91793
 Alpha virt. eigenvalues --    4.92218   4.92618   4.93511   4.93856   4.94944
 Alpha virt. eigenvalues --    4.95174   4.96475   4.97121   4.97630   4.98334
 Alpha virt. eigenvalues --    4.98706   4.99552   5.00710   5.01369   5.01895
 Alpha virt. eigenvalues --    5.02839   5.03532   5.03939   5.04656   5.05940
 Alpha virt. eigenvalues --    5.06205   5.06576   5.07952   5.09950   5.10729
 Alpha virt. eigenvalues --    5.12354   5.12857   5.13152   5.14523   5.16933
 Alpha virt. eigenvalues --    5.17459   5.17796   5.18586   5.20015   5.20504
 Alpha virt. eigenvalues --    5.20999   5.21568   5.21668   5.22145   5.22334
 Alpha virt. eigenvalues --    5.22812   5.23145   5.23465   5.24653   5.25846
 Alpha virt. eigenvalues --    5.26619   5.27057   5.27575   5.28973   5.29283
 Alpha virt. eigenvalues --    5.30631   5.31956   5.33665   5.34156   5.35410
 Alpha virt. eigenvalues --    5.36611   5.37321   5.38024   5.38684   5.40394
 Alpha virt. eigenvalues --    5.40954   5.41309   5.41935   5.43607   5.44802
 Alpha virt. eigenvalues --    5.46083   5.46155   5.47517   5.49183   5.49322
 Alpha virt. eigenvalues --    5.49727   5.50473   5.52005   5.52517   5.53970
 Alpha virt. eigenvalues --    5.55628   5.56684   5.57766   5.58283   5.58448
 Alpha virt. eigenvalues --    5.58865   5.60359   5.61682   5.64067   5.64547
 Alpha virt. eigenvalues --    5.65835   5.65868   5.66880   5.67803   5.68047
 Alpha virt. eigenvalues --    5.73172   5.75674   5.76413   5.78069   5.81990
 Alpha virt. eigenvalues --    5.83609   5.85163   5.86329   5.87372   5.92989
 Alpha virt. eigenvalues --    5.93243   5.95097   5.95298   5.97615   5.98708
 Alpha virt. eigenvalues --    5.98952   6.00462   6.00999   6.03222   6.03711
 Alpha virt. eigenvalues --    6.03919   6.07519   6.11715   6.14814   6.15357
 Alpha virt. eigenvalues --    6.15789   6.16022   6.18819   6.19239   6.20479
 Alpha virt. eigenvalues --    6.23976   6.28986   6.30213   6.30851   6.31950
 Alpha virt. eigenvalues --    6.35009   6.38403   6.38460   6.45207   6.46221
 Alpha virt. eigenvalues --    6.47395   6.49221   6.53002   6.54243   6.66331
 Alpha virt. eigenvalues --    6.71972   6.76091   6.77851   6.85489   6.85774
 Alpha virt. eigenvalues --    6.92464   6.95133   6.95709   7.02902   7.12493
 Alpha virt. eigenvalues --    7.13440   7.17729   7.18547   7.26608   7.27571
 Alpha virt. eigenvalues --    9.30836   9.53378   9.64460  20.21938  22.20571
 Alpha virt. eigenvalues --   22.22480  22.48855  22.54152  22.54313  22.54570
 Alpha virt. eigenvalues --   22.55445  22.55916  22.56977  22.59434  22.62415
 Alpha virt. eigenvalues --   22.68154  22.68696  22.70956  22.72987  22.73755
 Alpha virt. eigenvalues --   22.82786  22.92652  22.94119  22.95670  22.96619
 Alpha virt. eigenvalues --   22.98333  23.05747  23.07330  23.12821  23.16120
 Alpha virt. eigenvalues --   23.21071  23.28854  23.30393  23.32451  23.40256
 Alpha virt. eigenvalues --   23.40767  23.46821  23.52119  23.55700  23.59683
 Alpha virt. eigenvalues --   23.60257  23.70787  23.74598  23.78427  23.87486
 Alpha virt. eigenvalues --   32.47491  32.85440  32.96599  33.04841  33.09497
 Alpha virt. eigenvalues --   33.20013  43.92858  43.95599  43.96342  43.96965
          Condensed to atoms (all electrons):
 Mulliken charges:
               1
     1  C   -0.355115
     2  C    0.127722
     3  N   -0.217868
     4  C   -0.178738
     5  C    0.017729
     6  N   -0.016682
     7  C   -0.359490
     8  C   -0.158891
     9  S    0.065694
    10  C   -0.381003
    11  C   -0.553075
    12  C   -0.486751
    13  C   -0.493527
    14  C   -0.417890
    15  C    0.284080
    16  C   -0.012500
    17  C   -0.077957
    18  C    0.286628
    19  C   -0.395538
    20  C   -0.295809
    21  C   -0.308711
    22  C    0.313612
    23  O   -0.356123
    24  O   -0.289352
    25  C    0.210784
    26  C   -0.060348
    27  C   -0.010775
    28  C    0.233476
    29  C   -0.425310
    30  C   -0.154778
    31  C   -0.333217
    32  C    0.244856
    33  C   -0.093702
    34  C    0.035587
    35  C    0.148690
    36  C   -0.363746
    37  C   -0.156019
    38  C   -0.314279
    39  C    0.181710
    40  C   -0.092006
    41  C    0.081477
    42  C    0.178327
    43  C   -0.408347
    44  C   -0.356376
    45  C   -0.242337
    46  C    0.303102
    47  O   -0.348176
    48  O   -0.304516
    49  N    0.044277
    50  N    0.057320
    51  N    0.044371
    52  N    0.074097
    53  Fe  -0.530225
    54  H    0.338474
    55  H    0.142261
    56  H    0.126635
    57  H    0.134629
    58  H    0.137392
    59  H    0.122312
    60  H    0.128460
    61  H    0.143611
    62  H    0.147961
    63  H    0.343437
    64  H    0.109782
    65  H    0.119019
    66  H    0.117467
    67  H    0.099264
    68  H    0.139362
    69  H    0.118770
    70  H    0.144692
    71  H    0.124640
    72  H    0.123533
    73  H    0.148840
    74  H    0.158651
    75  H    0.130305
    76  H    0.142439
    77  H    0.111338
    78  H    0.136818
    79  H    0.138102
    80  H    0.117079
    81  H    0.135962
    82  H    0.107492
    83  H    0.136930
    84  H    0.136243
    85  H    0.101531
    86  H    0.152517
    87  H    0.150650
    88  H    0.152910
    89  H    0.120206
    90  H    0.127107
    91  H    0.122795
    92  H    0.127547
    93  H    0.131671
    94  H    0.149093
    95  H    0.112847
    96  H    0.150214
    97  H    0.162484
    98  H    0.165653
    99  H    0.226513
 Sum of Mulliken charges =  -0.00000
 Mulliken charges with hydrogens summed into heavy atoms:
               1
     1  C    0.057039
     2  C    0.127722
     3  N    0.008645
     4  C   -0.016254
     5  C    0.183382
     6  N   -0.016682
     7  C    0.017959
     8  C    0.092986
     9  S    0.065694
    10  C    0.075073
    11  C   -0.443292
    12  C   -0.387487
    13  C   -0.376061
    14  C   -0.298871
    15  C    0.284080
    16  C   -0.012500
    17  C   -0.077957
    18  C    0.286628
    19  C    0.001476
    20  C   -0.023788
    21  C   -0.039816
    22  C    0.313612
    23  O   -0.356123
    24  O    0.049122
    25  C    0.210784
    26  C   -0.060348
    27  C   -0.010775
    28  C    0.233476
    29  C    0.006085
    30  C   -0.053246
    31  C   -0.060044
    32  C    0.244856
    33  C   -0.093702
    34  C    0.035587
    35  C    0.148690
    36  C    0.022512
    37  C   -0.048527
    38  C   -0.061238
    39  C    0.181710
    40  C   -0.092006
    41  C    0.081477
    42  C    0.178327
    43  C   -0.005523
    44  C   -0.105604
    45  C    0.049236
    46  C    0.303102
    47  O   -0.348176
    48  O    0.038921
    49  N    0.044277
    50  N    0.057320
    51  N    0.044371
    52  N    0.074097
    53  Fe  -0.530225
 Electronic spatial extent (au):  <R**2>=          33825.4411
 Charge=             -0.0000 electrons
 Dipole moment (field-independent basis, Debye):
    X=              4.4366    Y=             -1.8341    Z=              9.8926  Tot=             10.9959
 Quadrupole moment (field-independent basis, Debye-Ang):
   XX=           -380.7254   YY=           -316.6188   ZZ=           -296.1392
   XY=             -5.4168   XZ=            -42.4074   YZ=             -2.6683
 Traceless Quadrupole moment (field-independent basis, Debye-Ang):
   XX=            -49.5642   YY=             14.5423   ZZ=             35.0219
   XY=             -5.4168   XZ=            -42.4074   YZ=             -2.6683
 Octapole moment (field-independent basis, Debye-Ang**2):
  XXX=            487.5168  YYY=            -50.2941  ZZZ=            169.8616  XYY=             21.3070
  XXY=             82.1268  XXZ=            280.0894  XZZ=            -18.0268  YZZ=           -109.2581
  YYZ=             81.9585  XYZ=            -73.4789
 Hexadecapole moment (field-independent basis, Debye-Ang**3):
 XXXX=         -28049.3954 YYYY=         -15364.6171 ZZZZ=          -5163.3000 XXXY=           -434.4881
 XXXZ=          -1539.6114 YYYX=           -213.9806 YYYZ=            135.1154 ZZZX=           -241.7262
 ZZZY=           -414.8079 XXYY=          -7468.6533 XXZZ=          -5059.3794 YYZZ=          -3622.6728
 XXYZ=            453.0267 YYXZ=           -616.2859 ZZXY=            266.8036
 N-N= 8.886665264196D+03 E-N=-2.689589599807D+04  KE= 3.866800260342D+03
  Exact polarizability: 877.144  -4.007 807.496 -34.590  66.712 450.999
 Approx polarizability:1549.261   0.7051480.579 -72.258 181.879 731.150

 ----------------------------------------------------------------------

 Electric dipole moment (input orientation):
 (Debye = 10**-18 statcoulomb cm , SI units = C m)
                  (au)            (Debye)         (10**-30 SI)
   Tot        0.432613D+01      0.109959D+02      0.366784D+02
   x          0.103814D+01      0.263868D+01      0.880168D+01
   y          0.113375D+00      0.288169D+00      0.961230D+00
   z          0.419819D+01      0.106707D+02      0.355937D+02

 Dipole polarizability, Alpha (input orientation).
 (esu units = cm**3 , SI units = C**2 m**2 J**-1)
 Alpha(0;0):
               (au)            (10**-24 esu)      (10**-40 SI)
   iso        0.711880D+03      0.105490D+03      0.117373D+03
   aniso      0.416844D+03      0.617699D+02      0.687283D+02
   xx         0.857386D+03      0.127051D+03      0.141364D+03
   yx        -0.252712D+02     -0.374480D+01     -0.416666D+01
   yy         0.825377D+03      0.122308D+03      0.136086D+03
   zx         0.289584D+02      0.429119D+01      0.477460D+01
   zy        -0.766429D+02     -0.113573D+02     -0.126367D+02
   zz         0.452876D+03      0.671093D+02      0.746692D+02

 First dipole hyperpolarizability, Beta (input orientation).
 ||, _|_  parallel and perpendicular components, (z) with respect to z axis,
 vector components x,y,z.  Values do not include the 1/n! factor of 1/2.
 (esu units = statvolt**-1 cm**4 , SI units = C**3 m**3 J**-2)
 Beta(0;0,0):
               (au)            (10**-30 esu)      (10**-50 SI)
   || (z)     0.273396D+03      0.236193D+01      0.876606D+00
   _|_(z)     0.911320D+02      0.787309D+00      0.292202D+00
   x          0.996959D+04      0.861295D+02      0.319661D+02
   y         -0.233687D+04     -0.201888D+02     -0.749286D+01
   z          0.136698D+04      0.118096D+02      0.438303D+01
   ||         0.206613D+04      0.178498D+02      0.662476D+01
   xxx        0.158694D+04      0.137099D+02      0.508831D+01
   xxy        0.951848D+03      0.822322D+01      0.305197D+01
   yxy        0.160674D+04      0.138809D+02      0.515177D+01
   yyy       -0.166532D+04     -0.143871D+02     -0.533962D+01
   xxz       -0.749449D+02     -0.647466D+00     -0.240300D+00
   yxz       -0.161577D+03     -0.139590D+01     -0.518075D+00
   yyz        0.243160D+03      0.210072D+01      0.779660D+00
   zxz        0.129520D+03      0.111895D+01      0.415287D+00
   zyz       -0.654851D+02     -0.565740D+00     -0.209969D+00
   zzz        0.287444D+03      0.248330D+01      0.921650D+00

 ----------------------------------------------------------------------

 Dipole orientation:
     6          4.90108673          9.48481151         13.04293092
     6          4.59063138         10.22577329         10.33977056
     7          2.44639540         11.39759107          9.43809125
     6          6.09735915          9.83765062          8.31057337
     6          2.63943035         11.68414127          6.96789680
     7          4.83600158         10.75003495          6.23566715
     6          8.27945630         14.48057206         -4.08325242
     6          9.40920531         12.21131094         -2.65382650
    16          7.39108416          9.67863974         -1.61862783
     6          9.37458101          7.02880985         -2.18894091
     6          0.96325082         12.67524001         -0.03485444
     6          3.45583678          4.33618899          2.66972568
     6         11.68314646          7.58071843          4.94564908
     6          8.81332120         15.99317308          3.21689517
     6          0.96277302         10.07388045          0.40497255
     6         -1.06167990          8.39049883         -0.31051519
     6         -0.32930564          6.04767651          0.45187954
     6          2.11026702          6.31536682          1.64267067
     6         -1.73209603          3.57176488          0.04592060
     6         -3.62049430          9.20501415         -1.40614863
     6         -5.37373666          9.73256796          0.82679552
     6         -7.95632914         10.80622355          0.08279705
     8         -8.54157681         10.97556478         -2.19355503
     8         -9.42027635         11.47086778          1.80873383
     6          5.90913525          4.52821527          3.57561237
     6          7.37405013          2.44152902          4.53580484
     6          9.79213465          3.32663048          4.74287817
     6          9.68411683          5.97394195          4.41182783
     6          6.32225186         -0.15386240          5.19680714
     6         12.12177712          2.03302804          4.68814392
     6         12.59744888         -0.77219757          4.30939222
     6         11.65328316         10.13444291          4.58855665
     6         13.74146734         11.81684528          5.13283534
     6         13.00366400         14.11138645          4.33663720
     6         10.33209603         13.93075636          3.76265245
     6         16.24126627         11.10167722          6.39765850
     6         14.47006281         16.26552176          3.75650517
     6         17.26763269         16.78617129          4.21115056
     6          6.37545740         15.85388736          2.32014412
     6          4.94631086         18.01367124          1.46034703
     6          2.78053089         17.09131875          0.39747292
     6          2.90617179         14.33591502          0.67154259
     6          5.74650067         20.79207265          1.57551942
     6          0.76035299         18.62796757         -0.99334614
     6          1.49020466         18.61871565         -3.79640275
     6         -0.16939504         20.28390361         -5.43147148
     8          0.35634160         20.43845604         -7.72948840
     8         -1.98974869         21.43207646         -4.45438043
     7          2.92105168          8.78872499          1.56917754
     7          7.32221691          6.71761203          3.51875973
     7          9.56914538         11.44396358          3.70545729
     7          5.12946657         13.59924253          1.85767396
    26          6.27982139         10.12028806          2.59927471
     1         -8.75737649         11.93044691          3.43367818
     1         -5.66460707          8.00439940          1.83542824
     1         -4.46251043         11.05118311          2.05944834
     1         -3.39345771         10.88059163         -2.51493473
     1         -4.38527817          7.72127960         -2.54726630
     1          0.72917900         20.52444374         -0.29269043
     1         -1.05353195         17.76888255         -0.74777234
     1          3.40296301         19.25217136         -3.96552256
     1          1.37528914         16.72109507         -4.48512813
     1         -1.71629219         22.51888169         -3.02778685
     1         -0.63991483         13.46258282         -0.98272750
     1          9.59510460         17.83390801          3.51526032
     1         13.37286504          6.75848878          5.69217545
     1          2.54880535          2.53213951          2.77561054
     1          7.69784142         20.95296241          1.07064724
     1          4.62504127         21.87054429          0.28410938
     1          5.47577528         21.49420030          3.45228170
     1         -0.90427375          2.13126952          1.19839424
     1         -3.67524553          3.80702131          0.55320412
     1         -1.60353171          3.03537674         -1.89939971
     1          7.35131239         -0.92010000          6.75963360
     1          4.36978757          0.01679998          5.69406932
     1          6.50652820         -1.38213981          3.60122294
     1         17.43129420         12.73263549          6.50865752
     1         15.87868466         10.40385071          8.26047487
     1         17.16196883          9.66841715          5.30835391
     1         18.42091540         15.39405979          5.11695221
     1         18.07732749         18.54360819          3.62436100
     1         13.45889618         17.76769749          2.85677061
     1         14.44126494         -1.53742106          4.63077595
     1         11.08871596         -1.98309266          3.72119993
     1         13.76886690          3.17692107          4.94721164
     1         10.83801821          6.96989212         -0.79488482
     1          8.27877159          5.33248943         -2.08789223
     1         10.20104621          7.18881318         -4.02738219
     1         10.82444363         11.39793284         -3.84715324
     1          9.70160036         15.31632221         -5.25267111
     1          6.74170817         13.85294433         -5.23647668
     1          7.61010491         15.84914406         -2.75378204
     1         10.34050667         12.94145012         -1.01428794
     1          6.55208277         10.37337427         13.80001768
     1          3.27698462         10.07326372         14.09389640
     1          5.09679548          7.47651210         13.17309874
     1          7.92858769          8.98033031          8.32134312
     1          1.25272900         12.52926927          5.76318514
     1          0.97521430         11.94483733         10.49033292

 Electric dipole moment (dipole orientation):
 (Debye = 10**-18 statcoulomb cm , SI units = C m)
                  (au)            (Debye)         (10**-30 SI)
   Tot        0.432613D+01      0.109959D+02      0.366784D+02
   x          0.000000D+00      0.000000D+00      0.000000D+00
   y          0.000000D+00      0.000000D+00      0.000000D+00
   z          0.432613D+01      0.109959D+02      0.366784D+02

 Dipole polarizability, Alpha (dipole orientation).
 (esu units = cm**3 , SI units = C**2 m**2 J**-1)
 Alpha(0;0):
[...]
  1680. RY*(   4) H  72                  0.00006     2.19999   
  1681. RY*(   5) H  72                  0.00000     2.88067   
  1682. RY*(   1) H  73                  0.00089     1.03645   
  1683. RY*(   2) H  73                  0.00016     1.68161   
  1684. RY*(   3) H  73                  0.00006     2.14594   
  1685. RY*(   4) H  73                  0.00004     2.03093   
  1686. RY*(   5) H  73                  0.00001     2.97204   
  1687. RY*(   1) H  74                  0.00081     0.94571   
  1688. RY*(   2) H  74                  0.00016     1.77548   
  1689. RY*(   3) H  74                  0.00006     2.17995   
  1690. RY*(   4) H  74                  0.00004     2.03152   
  1691. RY*(   5) H  74                  0.00001     2.98210   
  1692. RY*(   1) H  75                  0.00059     1.11121   
  1693. RY*(   2) H  75                  0.00018     1.81308   
  1694. RY*(   3) H  75                  0.00007     2.14473   
  1695. RY*(   4) H  75                  0.00005     2.11105   
  1696. RY*(   5) H  75                  0.00001     2.82598   
  1697. RY*(   1) H  76                  0.00119     0.89584   
  1698. RY*(   2) H  76                  0.00016     1.75346   
  1699. RY*(   3) H  76                  0.00007     2.17248   
  1700. RY*(   4) H  76                  0.00005     2.10055   
  1701. RY*(   5) H  76                  0.00001     3.01820   
  1702. RY*(   1) H  77                  0.00074     1.16956   
  1703. RY*(   2) H  77                  0.00018     1.65151   
  1704. RY*(   3) H  77                  0.00008     2.34136   
  1705. RY*(   4) H  77                  0.00008     2.13665   
  1706. RY*(   5) H  77                  0.00001     2.89838   
  1707. RY*(   1) H  78                  0.00065     1.08034   
  1708. RY*(   2) H  78                  0.00019     1.79253   
  1709. RY*(   3) H  78                  0.00007     2.17021   
  1710. RY*(   4) H  78                  0.00004     2.02139   
  1711. RY*(   5) H  78                  0.00001     2.91555   
  1712. RY*(   1) H  79                  0.00083     1.02552   
  1713. RY*(   2) H  79                  0.00018     1.81263   
  1714. RY*(   3) H  79                  0.00007     2.16658   
  1715. RY*(   4) H  79                  0.00005     1.94504   
  1716. RY*(   5) H  79                  0.00001     3.00082   
  1717. RY*(   1) H  80                  0.00064     0.98956   
  1718. RY*(   2) H  80                  0.00019     1.91530   
  1719. RY*(   3) H  80                  0.00016     1.82601   
  1720. RY*(   4) H  80                  0.00010     2.23357   
  1721. RY*(   5) H  80                  0.00002     2.82231   
  1722. RY*(   1) H  81                  0.00032     1.72987   
  1723. RY*(   2) H  81                  0.00017     1.95151   
  1724. RY*(   3) H  81                  0.00012     1.07163   
  1725. RY*(   4) H  81                  0.00003     2.57988   
  1726. RY*(   5) H  81                  0.00001     2.09734   
  1727. RY*(   1) H  82                  0.00069     1.48850   
  1728. RY*(   2) H  82                  0.00026     1.50606   
  1729. RY*(   3) H  82                  0.00014     2.14547   
  1730. RY*(   4) H  82                  0.00009     2.06681   
  1731. RY*(   5) H  82                  0.00002     3.09018   
  1732. RY*(   1) H  83                  0.00034     1.70635   
  1733. RY*(   2) H  83                  0.00017     1.97264   
  1734. RY*(   3) H  83                  0.00011     1.11435   
  1735. RY*(   4) H  83                  0.00001     1.77013   
  1736. RY*(   5) H  83                  0.00002     2.87371   
  1737. RY*(   1) H  84                  0.00066     1.08147   
  1738. RY*(   2) H  84                  0.00019     1.73668   
  1739. RY*(   3) H  84                  0.00014     1.75441   
  1740. RY*(   4) H  84                  0.00006     2.14346   
  1741. RY*(   5) H  84                  0.00002     2.90376   
  1742. RY*(   1) H  85                  0.00069     1.63847   
  1743. RY*(   2) H  85                  0.00023     1.49163   
  1744. RY*(   3) H  85                  0.00015     2.13551   
  1745. RY*(   4) H  85                  0.00009     1.93416   
  1746. RY*(   5) H  85                  0.00002     3.10722   
  1747. RY*(   1) H  86                  0.00143     0.83062   
  1748. RY*(   2) H  86                  0.00025     2.34977   
  1749. RY*(   3) H  86                  0.00009     2.29647   
  1750. RY*(   4) H  86                  0.00007     2.79241   
  1751. RY*(   5) H  86                  0.00004     2.64128   
  1752. RY*(   1) H  87                  0.00035     1.48574   
  1753. RY*(   2) H  87                  0.00019     1.60445   
  1754. RY*(   3) H  87                  0.00010     2.31915   
  1755. RY*(   4) H  87                  0.00008     1.88898   
  1756. RY*(   5) H  87                  0.00002     3.05923   
  1757. RY*(   1) H  88                  0.00097     1.03338   
  1758. RY*(   2) H  88                  0.00018     1.67032   
  1759. RY*(   3) H  88                  0.00011     2.20871   
  1760. RY*(   4) H  88                  0.00007     2.14981   
  1761. RY*(   5) H  88                  0.00001     3.00680   
  1762. RY*(   1) H  89                  0.00082     1.18329   
  1763. RY*(   2) H  89                  0.00023     1.71638   
  1764. RY*(   3) H  89                  0.00012     2.34841   
  1765. RY*(   4) H  89                  0.00007     2.05096   
  1766. RY*(   5) H  89                  0.00001     3.08504   
  1767. RY*(   1) H  90                  0.00040     1.56756   
  1768. RY*(   2) H  90                  0.00017     1.10669   
  1769. RY*(   3) H  90                  0.00009     2.11666   
  1770. RY*(   4) H  90                  0.00009     2.12468   
  1771. RY*(   5) H  90                  0.00000     2.83167   
  1772. RY*(   1) H  91                  0.00097     1.06335   
  1773. RY*(   2) H  91                  0.00021     1.80955   
  1774. RY*(   3) H  91                  0.00012     2.15530   
  1775. RY*(   4) H  91                  0.00007     1.97175   
  1776. RY*(   5) H  91                  0.00001     2.97968   
  1777. RY*(   1) H  92                  0.00121     0.85163   
  1778. RY*(   2) H  92                  0.00033     2.40965   
  1779. RY*(   3) H  92                  0.00009     2.31707   
  1780. RY*(   4) H  92                  0.00006     2.18074   
  1781. RY*(   5) H  92                  0.00001     3.02879   
  1782. RY*(   1) H  93                  0.00187     0.94776   
  1783. RY*(   2) H  93                  0.00033     2.53850   
  1784. RY*(   3) H  93                  0.00013     2.47699   
  1785. RY*(   4) H  93                  0.00006     3.02163   
  1786. RY*(   5) H  93                  0.00003     2.52061   
  1831. BD*(   1) C   7 - C   8          0.01088     0.34195   
  1832. BD*(   1) C   7 - H  90          0.00481     0.41269   
  1833. BD*(   1) C   7 - H  91          0.00784     0.41606   
  1834. BD*(   1) C   7 - H  92          0.00710     0.42861   
  1835. BD*(   1) C   8 - S   9          0.03520     0.18595   
  1836. BD*(   1) C   8 - H  89          0.01389     0.38685   
  1837. BD*(   1) C   8 - H  93          0.02074     0.41636   
  1838. BD*(   1) S   9 - C  10          0.01896     0.19663   
  1839. BD*(   1) S   9 -Fe  53          0.07152     0.35230   
  1840. BD*(   1) C  10 - H  86          0.01703     0.40578   
  1841. BD*(   1) C  10 - H  87          0.00781     0.40059   
  1842. BD*(   1) C  10 - H  88          0.01038     0.39195   
  1843. BD*(   1) C  11 - C  15          0.02126     0.55599   
  1844. BD*(   2) C  11 - C  15          0.42688     0.04042  1922(v),1862(v),52(v),468(g)
                                                    1849(r),574(g),1857(r)
                                                    576(g)
  1845. BD*(   1) C  11 - C  42          0.02123     0.54479   
  1846. BD*(   1) C  11 - H  64          0.01285     0.44748   
  1847. BD*(   1) C  12 - C  18          0.02074     0.58411   
  1848. BD*(   1) C  12 - C  25          0.02144     0.56957   
  1849. BD*(   2) C  12 - C  25          0.43208     0.04361  1883(v),52(v),1888(v),494(g)
                                                    1844(r),1853(r),834(g)
                                                    836(g),1823(r)
  1850. BD*(   1) C  12 - H  67          0.01405     0.44853   
  1851. BD*(   1) C  13 - C  28          0.02194     0.56924   
  1852. BD*(   1) C  13 - C  32          0.02119     0.60269   
  1853. BD*(   2) C  13 - C  32          0.41639     0.04703  1900(v),1888(v),1905(v)
                                                    1857(r),520(g),1849(r)
                                                    1016(g),1018(g),1823(r)
  1854. BD*(   1) C  13 - H  66          0.01431     0.44967   
  1855. BD*(   1) C  14 - C  35          0.02122     0.57033   
  1856. BD*(   1) C  14 - C  39          0.02172     0.58434   
  1857. BD*(   2) C  14 - C  39          0.41339     0.04662  1917(v),1905(v),1922(v)
                                                    1853(r),546(g),1200(g)
                                                    1844(r)
  1858. BD*(   1) C  14 - H  65          0.01356     0.44712   
  1859. BD*(   1) C  15 - C  16          0.03290     0.49524   
  1860. BD*(   1) C  15 - N  49          0.02743     0.48080   
  1861. BD*(   1) C  16 - C  17          0.02062     0.60335   
  1862. BD*(   2) C  16 - C  17          0.24764     0.06694  1844(v),52(v),1870(v)
                                                    1869(v),1868(v)
  1863. BD*(   1) C  16 - C  20          0.02289     0.37910   
  1864. BD*(   1) C  17 - C  18          0.03368     0.49731   
  1865. BD*(   1) C  17 - C  19          0.01814     0.38450   
  1866. BD*(   1) C  18 - N  49          0.02767     0.48949   
  1867. BD*(   1) C  19 - H  71          0.00549     0.41209   
  1868. BD*(   1) C  19 - H  72          0.00762     0.40492   
  1869. BD*(   1) C  19 - H  73          0.00971     0.40773   
  1870. BD*(   1) C  20 - C  21          0.01354     0.34939   
  1871. BD*(   1) C  20 - H  57          0.01209     0.41620   
  1872. BD*(   1) C  20 - H  58          0.01157     0.41911   
  1873. BD*(   1) C  21 - C  22          0.08412     0.32751   
  1874. BD*(   1) C  21 - H  55          0.01258     0.37999   
  1875. BD*(   1) C  21 - H  56          0.01357     0.37588   
  1876. BD*(   1) C  22 - O  23          0.06348     0.48152   
  1877. BD*(   2) C  22 - O  23          0.19505     0.06995  1876(g),1875(v),1879(v)
                                                    783(g),1874(v),767(g)
  1878. BD*(   1) C  22 - O  24          0.07109     0.49377   
  1879. BD*(   1) O  24 - H  54          0.01314     0.35908   
  1880. BD*(   1) C  25 - C  26          0.03102     0.49461   
  1881. BD*(   1) C  25 - N  50          0.02837     0.48303   
  1882. BD*(   1) C  26 - C  27          0.02618     0.59950   
  1883. BD*(   2) C  26 - C  27          0.33130     0.05861  1849(v),1893(v),1888(v)
                                                    1891(v),1889(v),1886(g)
  1884. BD*(   1) C  26 - C  29          0.01615     0.38061   
  1885. BD*(   1) C  27 - C  28          0.03195     0.53687   
  1886. BD*(   1) C  27 - C  30          0.02275     0.53242   
  1887. BD*(   1) C  28 - N  50          0.03047     0.46566   
  1888. BD*(   2) C  28 - N  50          0.62023    -0.00235  1853(v),1883(v),1849(v)
                                                    1922(r),1482(g),912(g)
                                                    1829(r),520(v),204(v)
                                                    1827(r)
  1889. BD*(   1) C  29 - H  74          0.00655     0.41475   
  1890. BD*(   1) C  29 - H  75          0.00702     0.41100   
  1891. BD*(   1) C  29 - H  76          0.01123     0.40483   
  1892. BD*(   1) C  30 - C  31          0.00805     0.39959   
  1893. BD*(   2) C  30 - C  31          0.14715     0.00522  1883(v)
  1894. BD*(   1) C  30 - H  85          0.01313     0.45696   
  1895. BD*(   1) C  31 - H  83          0.00290     0.45247   
  1896. BD*(   1) C  31 - H  84          0.00517     0.45050   
  1897. BD*(   1) C  32 - C  33          0.03335     0.48879   
  1898. BD*(   1) C  32 - N  51          0.02921     0.47677   
  1899. BD*(   1) C  33 - C  34          0.02426     0.63135   
  1900. BD*(   2) C  33 - C  34          0.30029     0.06719  1853(v),1910(v),1905(v)
                                                    1907(v),1908(v),1068(g)
  1901. BD*(   1) C  33 - C  36          0.01722     0.37139   
  1902. BD*(   1) C  34 - C  35          0.03447     0.49233   
  1903. BD*(   1) C  34 - C  37          0.02296     0.53101   
  1904. BD*(   1) C  35 - N  51          0.02798     0.48513   
  1905. BD*(   2) C  35 - N  51          0.59297     0.00299  1857(v),1853(v),1900(v)
                                                    1094(g),1508(g),1910(r)
                                                    204(v),52(r),546(v),1829(r)
                                                    1823(r)
  1906. BD*(   1) C  36 - H  77          0.00759     0.43230   
  1907. BD*(   1) C  36 - H  78          0.00761     0.40500   
  1908. BD*(   1) C  36 - H  79          0.00803     0.40318   
  1909. BD*(   1) C  37 - C  38          0.00823     0.39361   
  1910. BD*(   2) C  37 - C  38          0.14199     0.00178  1900(v),1171(g)
  1911. BD*(   1) C  37 - H  82          0.01123     0.45643   
  1912. BD*(   1) C  38 - H  80          0.00745     0.45803   
  1913. BD*(   1) C  38 - H  81          0.00375     0.45315   
  1914. BD*(   1) C  39 - C  40          0.03373     0.49193   
  1915. BD*(   1) C  39 - N  52          0.02859     0.47640   
  1916. BD*(   1) C  40 - C  41          0.01978     0.58673   
  1917. BD*(   2) C  40 - C  41          0.25430     0.05832  1857(v),1922(v),1926(v)
                                                    1925(v)
  1918. BD*(   1) C  40 - C  43          0.01824     0.36796   
  1919. BD*(   1) C  41 - C  42          0.03426     0.46330   
  1920. BD*(   1) C  41 - C  44          0.02409     0.36934   
  1921. BD*(   1) C  42 - N  52          0.02730     0.46868   
  1922. BD*(   2) C  42 - N  52          0.63024    -0.00250  1844(v),1917(v),1857(v)
                                                    1888(r),1276(g),468(v)
                                                    204(v),1535(g),1829(r)
                                                    1826(r)
  1923. BD*(   1) C  43 - H  68          0.00730     0.40222   
  1924. BD*(   1) C  43 - H  69          0.00528     0.40116   
  1925. BD*(   1) C  43 - H  70          0.00999     0.40006   
  1926. BD*(   1) C  44 - C  45          0.01719     0.34250   
  1927. BD*(   1) C  44 - H  59          0.01455     0.38648   
  1928. BD*(   1) C  44 - H  60          0.01373     0.40167   
  1929. BD*(   1) C  45 - C  46          0.07904     0.35030   
  1930. BD*(   1) C  45 - H  61          0.01098     0.39345   
  1931. BD*(   1) C  45 - H  62          0.01087     0.39585   
  1932. BD*(   1) C  46 - O  47          0.07213     0.47620   
  1933. BD*(   2) C  46 - O  47          0.15962     0.08436  1932(g),1935(v),1931(v)
                                                    1406(g)
  1934. BD*(   1) C  46 - O  48          0.07300     0.49475   
  1935. BD*(   1) O  48 - H  63          0.01565     0.36823   
  1936. BD*(   1) N  49 -Fe  53          0.06319     0.44173   
  1937. BD*(   1) N  50 -Fe  53          0.05895     0.43455   
  1938. BD*(   1) N  51 -Fe  53          0.05819     0.42686   
  1939. BD*(   1) N  52 -Fe  53          0.05997     0.44160   
       -------------------------------
              Total Lewis  355.47592  ( 97.5754%)
        Valence non-Lewis    8.13317  (  2.2325%)
        Rydberg non-Lewis    0.69972  (  0.1921%)
       -------------------------------
            Total unit  2  364.30881  (100.0000%)
           Charge unit  2   -0.30881
 1\1\GINC-NODE567\SP\RPBE1PBE\def2TZVP\C41H46Fe1N6O4S1\ZHARTOVSKA\08-No
 v-2022\0\\# PBE1PBE/def2TZVP empiricaldispersion=GD3BJ int=(grid=ultra
 fine) geom=check guess=read pop=nbo scf=qc\\1jdl_II_S_nbo\\0,1\C,0,4.1
 58,5.19,5.944\C,0,3.654,5.545,4.585\N,0,2.436,6.156,4.378\C,0,4.171,5.
 309,3.357\C,0,2.221,6.273,3.081\N,0,3.258,5.765,2.439\C,0,3.71028429,7
 .58950733,-3.34905777\C,0,4.476,6.407,-2.727\S,0,3.575,5.085,-1.904\C,
 0,4.526,3.672,-2.412\C,0,0.469,6.703,-0.316\C,0,2.107,2.325,0.872\C,0,
 6.617,4.059,0.951\C,0,4.909,8.49,0.311\C,0,0.529,5.333,-0.054\C,0,-0.5
 99,4.436,-0.141\C,0,-0.122,3.206,0.19\C,0,1.282,3.36,0.488\C,0,-0.89,1
 .893,0.194\C,0,-2.054,4.856,-0.39\C,0,-2.672,5.169,0.972\C,0,-4.095,5.
 731,0.903\O,0,-4.685,5.79,-0.194\O,0,-4.629,6.109,1.966\C,0,3.482,2.43
 5,1.023\C,0,4.36,1.342,1.359\C,0,5.627,1.809,1.146\C,0,5.525,3.205,0.9
 53\C,0,3.908,-0.02,1.868\C,0,6.819,1.12,0.84\C,0,7.02,-0.37,0.624\C,0,
 6.552,5.405,0.736\C,0,7.691,6.299,0.727\C,0,7.207,7.503,0.38\C,0,5.762
 ,7.404,0.427\C,0,9.137,5.934,1.069\C,0,7.883,8.632,-0.134\C,0,9.377,8.
 909,-0.263\C,0,3.543,8.408,0.162\C,0,2.696,9.541,-0.128\C,0,1.45,9.042
 ,-0.386\C,0,1.554,7.588,-0.223\C,0,3.117,11.011,-0.209\C,0,0.233,9.839
 ,-0.865\C,0,0.252,9.794,-2.397\C,0,-0.811,10.655,-3.049\O,0,-0.833,10.
 704,-4.298\O,0,-1.624,11.279,-2.332\N,0,1.685,4.666,0.313\N,0,4.197,3.
 59,0.784\N,0,5.367,6.089,0.529\N,0,2.848,7.211,0.114\Fe,0,3.539,5.379,
 0.397\H,0,-4.08289108,6.37352937,2.70990138\H,0,-2.69042254,4.26929044
 ,1.55086382\H,0,-2.04958924,5.88209345,1.47100158\H,0,-2.08099894,5.72
 660813,-1.01146001\H,0,-2.58927897,4.05658167,-0.858302\H,0,0.30275608
 ,10.8519916,-0.52753577\H,0,-0.66617936,9.39101942,-0.49663892\H,0,1.2
 120615,10.12351759,-2.73552633\H,0,0.10871288,8.7808152,-2.70977046\H,
 0,-1.30420001,11.87323443,-1.64920178\H,0,-0.4762622,7.10906107,-0.610
 09825\H,0,5.345391,9.46655284,0.33941559\H,0,7.58121618,3.63154556,1.1
 3119394\H,0,1.65753975,1.37367122,1.066574\H,0,4.05504399,11.0858122,-
 0.71829031\H,0,2.37508003,11.56548833,-0.74472144\H,0,3.21506201,11.40
 890485,0.77941063\H,0,-0.31595655,1.14557289,0.70068218\H,0,-1.8241989
 ,2.02776587,0.69799462\H,0,-1.07007772,1.58205948,-0.81386309\H,0,4.63
 639232,-0.40539869,2.55050457\H,0,2.9678525,0.08047284,2.36892703\H,0,
 3.80212241,-0.69218885,1.04225665\H,0,9.75967258,6.79629459,0.9522657\
 H,0,9.18846784,5.59130097,2.08132822\H,0,9.47407021,5.15915418,0.41257
 207\H,0,10.08683079,8.18319704,0.07500932\H,0,9.71546774,9.82916621,-0
 .69152506\H,0,7.24676051,9.41587025,-0.48846686\H,0,8.00929443,-0.7734
 5478,0.5655126\H,0,6.1722984,-1.01616371,0.53032795\H,0,7.69609611,1.7
 2592209,0.74801725\H,0,5.45491079,3.65769424,-1.8811327\H,0,3.97876612
 ,2.77791088,-2.19743132\H,0,4.71683845,3.72974903,-3.46325912\H,0,5.05
 286294,5.95778943,-3.50824197\H,0,4.29094552,8.01299356,-4.14176954\H,
 0,2.7749409,7.2441009,-3.73729369\H,0,3.53294321,8.33303976,-2.6003190
 6\H,0,5.16138634,6.81440276,-2.01343952\H,0,5.10077555,5.66775422,6.11
 080874\H,0,3.45614317,5.51860488,6.68177762\H,0,4.27845936,4.12909879,
 6.01384383\H,0,5.11453995,4.85254029,3.14187936\H,0,1.35422561,6.70570
 155,2.62671867\H,0,1.8129322,6.46256665,5.09758558\\Version=ES64L-G16R
 evA.03\State=1-A\HF=-3879.4054453\RMSD=1.298e-09\Dipole=1.038136,0.113
 3746,4.1981875\Quadrupole=-27.1135875,15.9084514,11.2051361,4.3904021,
 -34.9941001,17.0252871\PG=C01 [X(C41H46Fe1N6O4S1)]\\@


 THERE IS NOTHING NOBLE IN BEING SUPERIOR TO SOME OTHER MAN.
 TRUE NOBILITY IS BEING SUPERIOR TO YOUR FORMER SELF.

                                                   -- HINDU PROVERB
 Job cpu time:       0 days  2 hours 42 minutes 17.7 seconds.
 Elapsed time:       0 days  0 hours 40 minutes 42.5 seconds.
 File lengths (MBytes):  RWF=   1267 Int=      0 D2E=      0 Chk=    246 Scr=      1
 Normal termination of Gaussian 16 at Tue Nov  8 20:26:49 2022.
