 Entering Gaussian System, Link 0=g16
 Input=/net/homes/chemie/zhartovska/work/BioModel/Konrad/1giw/1giw05/1giw05.com
 Output=/net/homes/chemie/zhartovska/work/BioModel/Konrad/1giw/1giw05/1giw05.log
 Initial command:
 /afs/math/software/gaussian/g16.A03/g16/l1.exe "/scratch/zhartovska_gaussian.G9XCMhR/Gau-3610.inp" -scrdir="/scratch/zhartovska_gaussian.G9XCMhR/"
 Entering Link 1 = /afs/math/software/gaussian/g16.A03/g16/l1.exe PID=      3611.
  
 Copyright (c) 1988,1990,1992,1993,1995,1998,2003,2009,2016,
            Gaussian, Inc.  All Rights Reserved.
  
 This is part of the Gaussian(R) 16 program.  It is based on
 the Gaussian(R) 09 system (copyright 2009, Gaussian, Inc.),
 the Gaussian(R) 03 system (copyright 2003, Gaussian, Inc.),
 the Gaussian(R) 98 system (copyright 1998, Gaussian, Inc.),
 the Gaussian(R) 94 system (copyright 1995, Gaussian, Inc.),
 the Gaussian 92(TM) system (copyright 1992, Gaussian, Inc.),
 the Gaussian 90(TM) system (copyright 1990, Gaussian, Inc.),
 the Gaussian 88(TM) system (copyright 1988, Gaussian, Inc.),
 the Gaussian 86(TM) system (copyright 1986, Carnegie Mellon
 University), and the Gaussian 82(TM) system (copyright 1983,
 Carnegie Mellon University). Gaussian is a federally registered
 trademark of Gaussian, Inc.
  
 This software contains proprietary and confidential information,
 including trade secrets, belonging to Gaussian, Inc.
  
 This software is provided under written license and may be
 used, copied, transmitted, or stored only in accord with that
 written license.
  
 The following legend is applicable only to US Government
 contracts under FAR:
  
                    RESTRICTED RIGHTS LEGEND
  
 Use, reproduction and disclosure by the US Government is
 subject to restrictions as set forth in subparagraphs (a)
 and (c) of the Commercial Computer Software - Restricted
 Rights clause in FAR 52.227-19.
  
 Gaussian, Inc.
 340 Quinnipiac St., Bldg. 40, Wallingford CT 06492
  
  
 ---------------------------------------------------------------
 Warning -- This program may not be used in any manner that
 competes with the business of Gaussian, Inc. or will provide
 assistance to any competitor of Gaussian, Inc.  The licensee
 of this program is prohibited from giving any competitor of
 Gaussian, Inc. access to this program.  By using this program,
 the user acknowledges that Gaussian, Inc. is engaged in the
 business of creating and licensing software in the field of
 computational chemistry and represents and warrants to the
 licensee that it is not a competitor of Gaussian, Inc. and that
 it will not use this program in any manner prohibited above.
 ---------------------------------------------------------------
  

 Cite this work as:
 Gaussian 16, Revision A.03,
 M. J. Frisch, G. W. Trucks, H. B. Schlegel, G. E. Scuseria, 
 M. A. Robb, J. R. Cheeseman, G. Scalmani, V. Barone, 
 G. A. Petersson, H. Nakatsuji, X. Li, M. Caricato, A. V. Marenich, 
 J. Bloino, B. G. Janesko, R. Gomperts, B. Mennucci, H. P. Hratchian, 
 J. V. Ortiz, A. F. Izmaylov, J. L. Sonnenberg, D. Williams-Young, 
 F. Ding, F. Lipparini, F. Egidi, J. Goings, B. Peng, A. Petrone, 
 T. Henderson, D. Ranasinghe, V. G. Zakrzewski, J. Gao, N. Rega, 
 G. Zheng, W. Liang, M. Hada, M. Ehara, K. Toyota, R. Fukuda, 
 J. Hasegawa, M. Ishida, T. Nakajima, Y. Honda, O. Kitao, H. Nakai, 
 T. Vreven, K. Throssell, J. A. Montgomery, Jr., J. E. Peralta, 
 F. Ogliaro, M. J. Bearpark, J. J. Heyd, E. N. Brothers, K. N. Kudin, 
 V. N. Staroverov, T. A. Keith, R. Kobayashi, J. Normand, 
 K. Raghavachari, A. P. Rendell, J. C. Burant, S. S. Iyengar, 
 J. Tomasi, M. Cossi, J. M. Millam, M. Klene, C. Adamo, R. Cammi, 
 J. W. Ochterski, R. L. Martin, K. Morokuma, O. Farkas, 
 J. B. Foresman, and D. J. Fox, Gaussian, Inc., Wallingford CT, 2016.
 
 ******************************************
 Gaussian 16:  ES64L-G16RevA.03 25-Dec-2016
                 5-Feb-2023 
 ******************************************
 %nprocs=12
 Will use up to   12 processors via shared memory.
 %mem=16GB
 %oldchk=1giw_II_S.chk
 %chk=1giw_II_Q.chk
 Copying data from "1giw_II_S.chk" to current chk file "1giw_II_Q.chk"
 IOpt=  2 FromEx=T IUOpen= 4 IOptOp= 5 NList=   0 IFRang= 0 IUIn= 4 IUOut= 2.
 ----------------------------------------------------------------------
 # PBE1PBE/def2TZVP empiricaldispersion=GD3BJ scf=maxcycle=999 geom=che
 ck pop=nbo
 ----------------------------------------------------------------------
 1/29=2,38=1,172=1/1;
 2/12=2,40=1/2;
 3/5=44,7=101,11=2,14=-4,25=1,30=1,74=-13,124=41/1,2,3;
 4//1;
 5/5=2,7=999,38=5/2;
 6/7=2,8=2,9=2,10=2,28=1,40=1/1,7;
 99/5=1,9=1/99;
 ---------
 1giw_II_Q
 ---------
 Structure from the checkpoint file:  "1giw_II_Q.chk"
 Charge =  0 Multiplicity = 5
 Z-Matrix found in chk file.
 C,0,5.285,0.862,3.984
 C,0,4.799,-0.427,3.422
 N,0,5.026,-0.844,2.137
 C,0,3.769,-1.16,3.94
 C,0,4.151,-1.824,1.891
 N,0,3.39,-2.086,2.957
 H,0,4.65166542,1.15953457,4.79348162
 H,0,5.26640282,1.61292395,3.22198467
 H,0,5.601,-0.378,1.441
 H,0,3.257,-0.899,4.862
 H,0,3.971,-2.247,0.924
 C,0,0.724,-7.635,2.833
 C,0,0.225,-6.409,3.595
 S,0,0.198,-4.923,2.561
 C,0,-1.469,-4.256,2.806
 H,0,1.26915186,-7.3197744,1.96793222
 H,0,-0.11135027,-8.23128457,2.53045309
 H,0,-0.778,-6.628,3.96
 H,0,0.847,-6.198,4.461
 H,0,-2.22,-5.016,2.575
 H,0,-1.569,-3.923,3.84
 H,0,-1.62,-3.414,2.132
 Fe,0,1.858,-3.275,2.887
 C,0,2.674,-4.473,-0.34
 C,0,0.073,-0.716,1.547
 C,0,1.07,-2.363,6.088
 C,0,3.89,-5.832,4.197
 N,0,1.404,-2.725,0.936
 C,0,1.865,-3.333,-0.213
 C,0,1.406,-2.533,-1.327
 C,0,0.628,-1.512,-0.813
 C,0,0.675,-1.609,0.635
 C,0,-0.163,-0.519,-1.642
 C,0,1.713,-2.768,-2.797
 C,0,3.201,-2.881,-3.165
 C,0,3.513,-2.344,-4.557
 O,0,3.415,-3.144,-5.515
 O,0,3.826,-1.139,-4.647
 N,0,0.762,-1.819,3.679
 C,0,0.126,-0.863,2.951
 C,0,-0.472,0.047,3.902
 C,0,-0.266,-0.461,5.172
 C,0,0.569,-1.622,5.019
 C,0,-1.079,1.375,3.547
 C,0,-0.868,0.004,6.491
 C,0,-2.395,-0.063,6.487
 N,0,2.372,-3.978,4.79
 C,0,1.935,-3.42,5.936
 C,0,2.556,-4.102,7.04
 C,0,3.459,-4.99,6.504
 C,0,3.241,-4.986,5.076
 C,0,2.331,-3.784,8.496
 C,0,4.659,-5.6,7.203
 C,0,4.337,-6.8,8.094
 N,0,3.058,-4.887,2.071
 C,0,3.771,-5.771,2.818
 C,0,4.435,-6.685,1.923
 C,0,4.106,-6.314,0.641
 C,0,3.221,-5.166,0.743
 C,0,5.364,-7.806,2.326
 C,0,4.622,-6.977,-0.621
 C,0,3.517,-7.523,-1.531
 C,0,3.354,-9.044,-1.541
 O,0,4.353,-9.799,-1.486
 O,0,2.179,-9.441,-1.66
 H,0,2.913,-4.826,-1.326
 H,0,-0.471,0.128,1.159
 H,0,0.852,-2.078,7.1
 H,0,4.493,-6.617,4.614
 H,0,-0.97,-1.043,-2.157
 H,0,-0.6,0.28,-1.045
 H,0,0.488,-0.068,-2.388
 H,0,1.22,-3.686,-3.104
 H,0,1.297,-1.944,-3.374
 H,0,3.77,-2.302,-2.445
 H,0,3.532,-3.919,-3.16
 H,0,-1.948,1.251,2.902
 H,0,-1.368,1.901,4.448
 H,0,-0.321,1.959,3.03
 H,0,-0.578,-0.645,7.307
 H,0,-2.703,-1.095,6.318
 H,0,-2.781,0.282,7.445
 H,0,-2.801,0.55,5.691
 H,0,1.267,-3.871,8.716
 H,0,2.883,-4.463,9.139
 H,0,2.661,-2.765,8.696
 H,0,5.351,-5.968,6.456
 H,0,3.958,-7.604,7.464
 H,0,5.248,-7.136,8.588
 H,0,3.593,-6.543,8.845
 H,0,5.044,-8.257,3.264
 H,0,5.373,-8.586,1.575
 H,0,6.372,-7.413,2.438
 H,0,5.216,-6.254,-1.179
 H,0,5.304,-7.788,-0.385
 H,0,2.564,-7.102,-1.212
 H,0,3.703,-7.192,-2.552
 H,0,1.36378352,-8.21284152,3.46677932
 H,0,6.28645359,0.74056542,4.34071327
 H,0,4.20625982,-3.49243655,-5.93225277
 H,0,5.23768535,-9.42724948,-1.51308116
 Recover connectivity data from disk.
 Stoichiometry    C41H48FeN6O4S(5)
 Framework group  C1[X(C41H48FeN6O4S)]
 Deg. of freedom   297
 Full point group                 C1      NOp   1
 Largest Abelian subgroup         C1      NOp   1
 Largest concise Abelian subgroup C1      NOp   1
                         Standard orientation:                         
 ---------------------------------------------------------------------
 Center     Atomic      Atomic             Coordinates (Angstroms)
 Number     Number       Type             X           Y           Z
 ---------------------------------------------------------------------
      1          6           0        2.528443   -2.047617    4.741988
      2          6           0        1.672587   -1.350763    3.744258
      3          7           0        0.308024   -1.457780    3.688063
      4          6           0        2.117944   -0.854803    2.551700
      5          6           0       -0.062201   -1.019609    2.480801
      6          7           0        0.985248   -0.605338    1.762921
      7          1           0        3.513208   -2.171835    4.342353
      8          1           0        2.109575   -3.007094    4.963015
      9          1           0       -0.288915   -1.952203    4.344879
     10          1           0        3.163733   -0.861097    2.257362
     11          1           0       -1.047237   -1.123663    2.074236
     12          6           0       -0.487907    3.160856   -2.880346
     13          6           0        0.753236    2.274983   -2.793670
     14         16           0        0.351412    0.576924   -2.310745
     15          6           0        1.193991   -0.437063   -3.554004
     16          1           0       -1.284767    2.713833   -2.323493
     17          1           0       -0.781974    3.263625   -3.903998
     18          1           0        1.236634    2.280849   -3.770136
     19          1           0        1.469716    2.662646   -2.074132
     20          1           0        0.887097   -0.137959   -4.559645
     21          1           0        2.272097   -0.321462   -3.434133
     22          1           0        0.917699   -1.480788   -3.411374
     23         26           0        0.851200   -0.134091   -0.114737
     24          6           0       -2.685808   -0.193822   -0.090357
     25          6           0        0.958186   -3.449554   -0.840383
     26          6           0        4.256478    0.166276   -0.228549
     27          6           0        0.660946    3.248850    0.835466
     28          7           0       -0.616053   -1.562596   -0.463388
     29          6           0       -1.979180   -1.373847   -0.370409
     30          6           0       -2.598153   -2.667103   -0.560241
     31          6           0       -1.590422   -3.574909   -0.829104
     32          6           0       -0.324064   -2.874112   -0.712721
     33          6           0       -1.806219   -5.022677   -1.224541
     34          6           0       -4.083954   -2.978856   -0.485540
     35          6           0       -4.799711   -2.544452    0.803383
     36          6           0       -5.941381   -3.475852    1.193845
     37          8           0       -7.071233   -3.229773    0.714004
     38          8           0       -5.666235   -4.430335    1.949723
     39          7           0        2.338634   -1.399639   -0.481269
     40          6           0        2.165519   -2.722756   -0.741667
     41          6           0        3.488225   -3.295029   -0.855939
     42          6           0        4.410569   -2.267734   -0.770219
     43          6           0        3.666939   -1.072159   -0.476675
     44          6           0        3.778655   -4.768237   -0.913968
     45          6           0        5.909248   -2.311193   -1.035668
     46          6           0        6.232967   -2.760997   -2.460139
     47          7           0        2.206747    1.423832    0.224648
     48          6           0        3.543850    1.284112    0.133641
     49          6           0        4.158485    2.526835    0.517627
     50          6           0        3.149390    3.354172    0.951780
     51          6           0        1.907393    2.683927    0.643660
     52          6           0        5.642271    2.789578    0.549710
     53          6           0        3.289610    4.558670    1.862947
     54          6           0        3.743899    5.839569    1.162601
     55          7           0       -0.737386    1.287959    0.283469
     56          6           0       -0.539155    2.583475    0.644273
     57          6           0       -1.827735    3.204281    0.821694
     58          6           0       -2.781397    2.247343    0.568310
     59          6           0       -2.077091    1.025002    0.219928
     60          6           0       -2.075101    4.628643    1.259981
     61          6           0       -4.279099    2.453789    0.681172
     62          6           0       -5.043527    2.171806   -0.616278
     63          6           0       -5.556165    3.401845   -1.367487
     64          8           0       -6.004668    4.394448   -0.747297
     65          8           0       -5.534963    3.299995   -2.609088
     66          1           0       -3.759515   -0.226535   -0.087202
     67          1           0        1.032060   -4.505789   -1.034615
     68          1           0        5.324717    0.274349   -0.237356
     69          1           0        0.620761    4.286706    1.109261
     70          1           0       -2.273543   -5.060240   -2.210059
     71          1           0       -0.880697   -5.595160   -1.262635
     72          1           0       -2.471265   -5.500094   -0.507947
     73          1           0       -4.575232   -2.492297   -1.323351
     74          1           0       -4.217837   -4.054553   -0.585099
     75          1           0       -4.072388   -2.546773    1.608614
     76          1           0       -5.240553   -1.553873    0.696421
     77          1           0        3.350121   -5.219196   -1.808147
     78          1           0        4.848405   -4.933969   -0.901059
     79          1           0        3.343754   -5.227528   -0.029196
     80          1           0        6.350859   -1.325813   -0.963823
     81          1           0        5.783597   -2.059247   -3.163035
     82          1           0        7.312270   -2.781775   -2.603166
     83          1           0        5.823343   -3.745913   -2.650847
     84          1           0        6.055306    2.603094   -0.441598
     85          1           0        5.856244    3.814934    0.836161
     86          1           0        6.110038    2.119024    1.269996
     87          1           0        2.322886    4.787984    2.293245
     88          1           0        2.974367    6.132744    0.449281
     89          1           0        3.862354    6.631084    1.901739
     90          1           0        4.686720    5.688731    0.641138
     91          1           0       -1.312254    5.295469    0.861168
     92          1           0       -3.034935    4.979380    0.901953
     93          1           0       -2.065661    4.675749    2.346604
     94          1           0       -4.663977    1.805481    1.467616
     95          1           0       -4.510661    3.464395    1.003036
     96          1           0       -4.385629    1.633045   -1.297540
     97          1           0       -5.893429    1.527729   -0.393954
     98          1           0       -0.266490    4.125727   -2.474270
     99          1           0        2.578062   -1.465087    5.638144
    100          1           0       -7.755124   -2.846864    1.268327
    101          1           0       -6.100415    4.360849    0.207325
 ---------------------------------------------------------------------
 Rotational constants (GHZ):           0.0628899           0.0454632           0.0340367
 Standard basis: def2TZVP (5D, 7F)
 There are  2218 symmetry adapted cartesian basis functions of A   symmetry.
 There are  1951 symmetry adapted basis functions of A   symmetry.
  1951 basis functions,  3156 primitive gaussians,  2218 cartesian basis functions
   207 alpha electrons      203 beta electrons
       nuclear repulsion energy      8922.7994009688 Hartrees.
 NAtoms=  101 NActive=  101 NUniq=  101 SFac= 1.00D+00 NAtFMM=   60 NAOKFM=T Big=T
 Integral buffers will be    131072 words long.
 Raffenetti 2 integral format.
 Two-electron integral symmetry is turned on.
 Nuclear repulsion after empirical dispersion term =     8922.6502020192 Hartrees.
 One-electron integrals computed using PRISM.
   1 Symmetry operations used in ECPInt.
 ECPInt:  NShTT=  305371 NPrTT=  941867 LenC2=  223665 LenP2D=  445742.
 LDataN:  DoStor=T MaxTD1= 6 Len=  172
 NBasis=  1951 RedAO= T EigKep=  3.17D-06  NBF=  1951
 NBsUse=  1951 1.00D-06 EigRej= -1.00D+00 NBFU=  1951
 ExpMin= 4.20D-02 ExpMax= 3.01D+05 ExpMxC= 2.91D+03 IAcc=3 IRadAn=         5 AccDes= 0.00D+00
 Harris functional with IExCor= 1009 and IRadAn=       5 diagonalized for initial guess.
 HarFok:  IExCor= 1009 AccDes= 0.00D+00 IRadAn=         5 IDoV= 1 UseB2=F ITyADJ=14
 ICtDFT=  3500011 ScaDFX=  1.000000  1.000000  1.000000  1.000000
 FoFCou: FMM=F IPFlag=           0 FMFlag=      100000 FMFlg1=        2001
         NFxFlg=           0 DoJE=T BraDBF=F KetDBF=T FulRan=T
         wScrn=  0.000000 ICntrl=       500 IOpCl=  0 I1Cent=   200000004 NGrid=           0
         NMat0=    1 NMatS0=      1 NMatT0=    0 NMatD0=    1 NMtDS0=    0 NMtDT0=    0
 Petite list used in FoFCou.
 Initial guess <Sx>= 0.0000 <Sy>= 0.0000 <Sz>= 2.0000 <S**2>= 6.0000 S= 2.0000
 Requested convergence on RMS density matrix=1.00D-08 within 999 cycles.
 Requested convergence on MAX density matrix=1.00D-06.
 Requested convergence on             energy=1.00D-06.
 No special actions if energy rises.
 EnCoef did   100 forward-backward iterations
 EnCoef did     4 forward-backward iterations
 EnCoef did     4 forward-backward iterations
 EnCoef did     2 forward-backward iterations
 EnCoef did     6 forward-backward iterations
 Restarting incremental Fock formation.
 Rare condition: small coef for last iteration:  0.000D+00
 Rare condition: small coef for last iteration:  0.000D+00
 Restarting incremental Fock formation.
 Restarting incremental Fock formation.
 SCF Done:  E(UPBE1PBE) =  -3880.54090357     A.U. after   76 cycles
            NFock= 76  Conv=0.16D-08     -V/T= 2.0033
 <Sx>= 0.0000 <Sy>= 0.0000 <Sz>= 2.0000 <S**2>= 6.1033 S= 2.0206
 <L.S>= 0.000000000000E+00
 Annihilation of the first spin contaminant:
 S**2 before annihilation     6.1033,   after     6.0037
 Hyperfine terms turned off by default for NAtoms > 100.

 **********************************************************************

            Population analysis using the SCF density.

 **********************************************************************

 Orbital symmetries:
 Alpha Orbitals:
       Occupied  (A) (A) (A) (A) (A) (A) (A) (A) (A) (A) (A) (A)
                 (A) (A) (A) (A) (A) (A) (A) (A) (A) (A) (A) (A)
                 (A) (A) (A) (A) (A) (A) (A) (A) (A) (A) (A) (A)
                 (A) (A) (A) (A) (A) (A) (A) (A) (A) (A) (A) (A)
                 (A) (A) (A) (A) (A) (A) (A) (A) (A) (A) (A) (A)
                 (A) (A) (A) (A) (A) (A) (A) (A) (A) (A) (A) (A)
                 (A) (A) (A) (A) (A) (A) (A) (A) (A) (A) (A) (A)
                 (A) (A) (A) (A) (A) (A) (A) (A) (A) (A) (A) (A)
                 (A) (A) (A) (A) (A) (A) (A) (A) (A) (A) (A) (A)
                 (A) (A) (A) (A) (A) (A) (A) (A) (A) (A) (A) (A)
                 (A) (A) (A) (A) (A) (A) (A) (A) (A) (A) (A) (A)
                 (A) (A) (A) (A) (A) (A) (A) (A) (A) (A) (A) (A)
                 (A) (A) (A) (A) (A) (A) (A) (A) (A) (A) (A) (A)
                 (A) (A) (A) (A) (A) (A) (A) (A) (A) (A) (A) (A)
                 (A) (A) (A) (A) (A) (A) (A) (A) (A) (A) (A) (A)
                 (A) (A) (A) (A) (A) (A) (A) (A) (A) (A) (A) (A)
                 (A) (A) (A) (A) (A) (A) (A) (A) (A) (A) (A) (A)
                 (A) (A) (A)
       Virtual   (A) (A) (A) (A) (A) (A) (A) (A) (A) (A) (A) (A)
                 (A) (A) (A) (A) (A) (A) (A) (A) (A) (A) (A) (A)
                 (A) (A) (A) (A) (A) (A) (A) (A) (A) (A) (A) (A)
                 (A) (A) (A) (A) (A) (A) (A) (A) (A) (A) (A) (A)
                 (A) (A) (A) (A) (A) (A) (A) (A) (A) (A) (A) (A)
                 (A) (A) (A) (A) (A) (A) (A) (A) (A) (A) (A) (A)
                 (A) (A) (A) (A) (A) (A) (A) (A) (A) (A) (A) (A)
                 (A) (A) (A) (A) (A) (A) (A) (A) (A) (A) (A) (A)
                 (A) (A) (A) (A) (A) (A) (A) (A) (A) (A) (A) (A)
                 (A) (A) (A) (A) (A) (A) (A) (A) (A) (A) (A) (A)
                 (A) (A) (A) (A) (A) (A) (A) (A) (A) (A) (A) (A)
                 (A) (A) (A) (A) (A) (A) (A) (A) (A) (A) (A) (A)
                 (A) (A) (A) (A) (A) (A) (A) (A) (A) (A) (A) (A)
                 (A) (A) (A) (A) (A) (A) (A) (A) (A) (A) (A) (A)
                 (A) (A) (A) (A) (A) (A) (A) (A) (A) (A) (A) (A)
                 (A) (A) (A) (A) (A) (A) (A) (A) (A) (A) (A) (A)
                 (A) (A) (A) (A) (A) (A) (A) (A) (A) (A) (A) (A)
                 (A) (A) (A) (A) (A) (A) (A) (A) (A) (A) (A) (A)
                 (A) (A) (A) (A) (A) (A) (A) (A) (A) (A) (A) (A)
                 (A) (A) (A) (A) (A) (A) (A) (A) (A) (A) (A) (A)
                 (A) (A) (A) (A) (A) (A) (A) (A) (A) (A) (A) (A)
                 (A) (A) (A) (A) (A) (A) (A) (A) (A) (A) (A) (A)
                 (A) (A) (A) (A) (A) (A) (A) (A) (A) (A) (A) (A)
                 (A) (A) (A) (A) (A) (A) (A) (A) (A) (A) (A) (A)
                 (A) (A) (A) (A) (A) (A) (A) (A) (A) (A) (A) (A)
                 (A) (A) (A) (A) (A) (A) (A) (A) (A) (A) (A) (A)
                 (A) (A) (A) (A) (A) (A) (A) (A) (A) (A) (A) (A)
                 (A) (A) (A) (A) (A) (A) (A) (A) (A) (A) (A) (A)
                 (A) (A) (A) (A) (A) (A) (A) (A) (A) (A) (A) (A)
                 (A) (A) (A) (A) (A) (A) (A) (A) (A) (A) (A) (A)
                 (A) (A) (A) (A) (A) (A) (A) (A) (A) (A) (A) (A)
                 (A) (A) (A) (A) (A) (A) (A) (A) (A) (A) (A) (A)
                 (A) (A) (A) (A) (A) (A) (A) (A) (A) (A) (A) (A)
                 (A) (A) (A) (A) (A) (A) (A) (A) (A) (A) (A) (A)
                 (A) (A) (A) (A) (A) (A) (A) (A) (A) (A) (A) (A)
                 (A) (A) (A) (A) (A) (A) (A) (A) (A) (A) (A) (A)
                 (A) (A) (A) (A) (A) (A) (A) (A) (A) (A) (A) (A)
                 (A) (A) (A) (A) (A) (A) (A) (A) (A) (A) (A) (A)
                 (A) (A) (A) (A) (A) (A) (A) (A) (A) (A) (A) (A)
                 (A) (A) (A) (A) (A) (A) (A) (A) (A) (A) (A) (A)
                 (A) (A) (A) (A) (A) (A) (A) (A) (A) (A) (A) (A)
                 (A) (A) (A) (A) (A) (A) (A) (A) (A) (A) (A) (A)
                 (A) (A) (A) (A) (A) (A) (A) (A) (A) (A) (A) (A)
                 (A) (A) (A) (A) (A) (A) (A) (A) (A) (A) (A) (A)
                 (A) (A) (A) (A) (A) (A) (A) (A) (A) (A) (A) (A)
                 (A) (A) (A) (A) (A) (A) (A) (A) (A) (A) (A) (A)
                 (A) (A) (A) (A) (A) (A) (A) (A) (A) (A) (A) (A)
                 (A) (A) (A) (A) (A) (A) (A) (A) (A) (A) (A) (A)
                 (A) (A) (A) (A) (A) (A) (A) (A) (A) (A) (A) (A)
                 (A) (A) (A) (A) (A) (A) (A) (A) (A) (A) (A) (A)
                 (A) (A) (A) (A) (A) (A) (A) (A) (A) (A) (A) (A)
                 (A) (A) (A) (A) (A) (A) (A) (A) (A) (A) (A) (A)
                 (A) (A) (A) (A) (A) (A) (A) (A) (A) (A) (A) (A)
                 (A) (A) (A) (A) (A) (A) (A) (A) (A) (A) (A) (A)
                 (A) (A) (A) (A) (A) (A) (A) (A) (A) (A) (A) (A)
                 (A) (A) (A) (A) (A) (A) (A) (A) (A) (A) (A) (A)
                 (A) (A) (A) (A) (A) (A) (A) (A) (A) (A) (A) (A)
                 (A) (A) (A) (A) (A) (A) (A) (A) (A) (A) (A) (A)
                 (A) (A) (A) (A) (A) (A) (A) (A) (A) (A) (A) (A)
                 (A) (A) (A) (A) (A) (A) (A) (A) (A) (A) (A) (A)
                 (A) (A) (A) (A) (A) (A) (A) (A) (A) (A) (A) (A)
                 (A) (A) (A) (A) (A) (A) (A) (A) (A) (A) (A) (A)
                 (A) (A) (A) (A) (A) (A) (A) (A) (A) (A) (A) (A)
                 (A) (A) (A) (A) (A) (A) (A) (A) (A) (A) (A) (A)
                 (A) (A) (A) (A) (A) (A) (A) (A) (A) (A) (A) (A)
                 (A) (A) (A) (A) (A) (A) (A) (A) (A) (A) (A) (A)
                 (A) (A) (A) (A) (A) (A) (A) (A) (A) (A) (A) (A)
                 (A) (A) (A) (A) (A) (A) (A) (A) (A) (A) (A) (A)
                 (A) (A) (A) (A) (A) (A) (A) (A) (A) (A) (A) (A)
                 (A) (A) (A) (A) (A) (A) (A) (A) (A) (A) (A) (A)
                 (A) (A) (A) (A) (A) (A) (A) (A) (A) (A) (A) (A)
                 (A) (A) (A) (A) (A) (A) (A) (A) (A) (A) (A) (A)
                 (A) (A) (A) (A) (A) (A) (A) (A) (A) (A) (A) (A)
                 (A) (A) (A) (A) (A) (A) (A) (A) (A) (A) (A) (A)
                 (A) (A) (A) (A) (A) (A) (A) (A) (A) (A) (A) (A)
                 (A) (A) (A) (A) (A) (A) (A) (A) (A) (A) (A) (A)
                 (A) (A) (A) (A) (A) (A) (A) (A) (A) (A) (A) (A)
                 (A) (A) (A) (A) (A) (A) (A) (A) (A) (A) (A) (A)
                 (A) (A) (A) (A) (A) (A) (A) (A) (A) (A) (A) (A)
                 (A) (A) (A) (A) (A) (A) (A) (A) (A) (A) (A) (A)
                 (A) (A) (A) (A) (A) (A) (A) (A) (A) (A) (A) (A)
                 (A) (A) (A) (A) (A) (A) (A) (A) (A) (A) (A) (A)
                 (A) (A) (A) (A) (A) (A) (A) (A) (A) (A) (A) (A)
                 (A) (A) (A) (A) (A) (A) (A) (A) (A) (A) (A) (A)
                 (A) (A) (A) (A) (A) (A) (A) (A) (A) (A) (A) (A)
                 (A) (A) (A) (A) (A) (A) (A) (A) (A) (A) (A) (A)
                 (A) (A) (A) (A) (A) (A) (A) (A) (A) (A) (A) (A)
                 (A) (A) (A) (A) (A) (A) (A) (A) (A) (A) (A) (A)
                 (A) (A) (A) (A) (A) (A) (A) (A) (A) (A) (A) (A)
                 (A) (A) (A) (A) (A) (A) (A) (A) (A) (A) (A) (A)
                 (A) (A) (A) (A) (A) (A) (A) (A) (A) (A) (A) (A)
                 (A) (A) (A) (A) (A) (A) (A) (A) (A) (A) (A) (A)
                 (A) (A) (A) (A) (A) (A) (A) (A) (A) (A) (A) (A)
                 (A) (A) (A) (A) (A) (A) (A) (A) (A) (A) (A) (A)
                 (A) (A) (A) (A) (A) (A) (A) (A) (A) (A) (A) (A)
                 (A) (A) (A) (A) (A) (A) (A) (A) (A) (A) (A) (A)
                 (A) (A) (A) (A) (A) (A) (A) (A) (A) (A) (A) (A)
                 (A) (A) (A) (A) (A) (A) (A) (A) (A) (A) (A) (A)
                 (A) (A) (A) (A) (A) (A) (A) (A) (A) (A) (A) (A)
                 (A) (A) (A) (A) (A) (A) (A) (A) (A) (A) (A) (A)
                 (A) (A) (A) (A) (A) (A) (A) (A) (A) (A) (A) (A)
                 (A) (A) (A) (A) (A) (A) (A) (A) (A) (A) (A) (A)
                 (A) (A) (A) (A) (A) (A) (A) (A) (A) (A) (A) (A)
                 (A) (A) (A) (A) (A) (A) (A) (A) (A) (A) (A) (A)
                 (A) (A) (A) (A) (A) (A) (A) (A) (A) (A) (A) (A)
                 (A) (A) (A) (A) (A) (A) (A) (A) (A) (A) (A) (A)
                 (A) (A) (A) (A) (A) (A) (A) (A) (A) (A) (A) (A)
                 (A) (A) (A) (A) (A) (A) (A) (A) (A) (A) (A) (A)
                 (A) (A) (A) (A) (A) (A) (A) (A) (A) (A) (A) (A)
                 (A) (A) (A) (A) (A) (A) (A) (A) (A) (A) (A) (A)
                 (A) (A) (A) (A) (A) (A) (A) (A) (A) (A) (A) (A)
                 (A) (A) (A) (A) (A) (A) (A) (A) (A) (A) (A) (A)
                 (A) (A) (A) (A) (A) (A) (A) (A) (A) (A) (A) (A)
                 (A) (A) (A) (A) (A) (A) (A) (A) (A) (A) (A) (A)
                 (A) (A) (A) (A) (A) (A) (A) (A) (A) (A) (A) (A)
                 (A) (A) (A) (A) (A) (A) (A) (A) (A) (A) (A) (A)
                 (A) (A) (A) (A) (A) (A) (A) (A) (A) (A) (A) (A)
                 (A) (A) (A) (A) (A) (A) (A) (A) (A) (A) (A) (A)
                 (A) (A) (A) (A) (A) (A) (A) (A) (A) (A) (A) (A)
                 (A) (A) (A) (A) (A) (A) (A) (A) (A) (A) (A) (A)
                 (A) (A) (A) (A) (A) (A) (A) (A) (A) (A) (A) (A)
                 (A) (A) (A) (A) (A) (A) (A) (A) (A) (A) (A) (A)
                 (A) (A) (A) (A) (A) (A) (A) (A) (A) (A) (A) (A)
                 (A) (A) (A) (A) (A) (A) (A) (A) (A) (A) (A) (A)
                 (A) (A) (A) (A) (A) (A) (A) (A) (A) (A) (A) (A)
                 (A) (A) (A) (A) (A) (A) (A) (A) (A) (A) (A) (A)
                 (A) (A) (A) (A) (A) (A) (A) (A) (A) (A) (A) (A)
                 (A) (A) (A) (A) (A) (A) (A) (A) (A) (A) (A) (A)
                 (A) (A) (A) (A) (A) (A) (A) (A) (A) (A) (A) (A)
                 (A) (A) (A) (A) (A) (A) (A) (A) (A) (A) (A) (A)
                 (A) (A) (A) (A) (A) (A) (A) (A) (A) (A) (A) (A)
                 (A) (A) (A) (A) (A) (A) (A) (A) (A) (A) (A) (A)
                 (A) (A) (A) (A) (A) (A) (A) (A) (A) (A) (A) (A)
                 (A) (A) (A) (A) (A) (A) (A) (A) (A) (A) (A) (A)
                 (A) (A) (A) (A) (A) (A) (A) (A) (A) (A) (A) (A)
                 (A) (A) (A) (A) (A) (A) (A) (A) (A) (A) (A) (A)
                 (A) (A) (A) (A) (A) (A) (A) (A) (A) (A) (A) (A)
                 (A) (A) (A) (A) (A) (A) (A) (A) (A) (A) (A) (A)
                 (A) (A) (A) (A) (A) (A) (A) (A) (A) (A) (A) (A)
                 (A) (A) (A) (A) (A) (A) (A) (A) (A) (A) (A) (A)
                 (A) (A) (A) (A) (A) (A) (A) (A) (A) (A) (A) (A)
                 (A) (A) (A) (A) (A) (A) (A) (A) (A) (A) (A) (A)
                 (A) (A) (A) (A) (A) (A) (A) (A) (A) (A) (A) (A)
                 (A) (A) (A) (A) (A) (A) (A) (A) (A) (A) (A) (A)
                 (A) (A) (A) (A) (A) (A) (A) (A) (A) (A) (A) (A)
                 (A) (A) (A) (A)
 Beta  Orbitals:
       Occupied  (A) (A) (A) (A) (A) (A) (A) (A) (A) (A) (A) (A)
                 (A) (A) (A) (A) (A) (A) (A) (A) (A) (A) (A) (A)
                 (A) (A) (A) (A) (A) (A) (A) (A) (A) (A) (A) (A)
                 (A) (A) (A) (A) (A) (A) (A) (A) (A) (A) (A) (A)
                 (A) (A) (A) (A) (A) (A) (A) (A) (A) (A) (A) (A)
                 (A) (A) (A) (A) (A) (A) (A) (A) (A) (A) (A) (A)
                 (A) (A) (A) (A) (A) (A) (A) (A) (A) (A) (A) (A)
                 (A) (A) (A) (A) (A) (A) (A) (A) (A) (A) (A) (A)
                 (A) (A) (A) (A) (A) (A) (A) (A) (A) (A) (A) (A)
                 (A) (A) (A) (A) (A) (A) (A) (A) (A) (A) (A) (A)
                 (A) (A) (A) (A) (A) (A) (A) (A) (A) (A) (A) (A)
                 (A) (A) (A) (A) (A) (A) (A) (A) (A) (A) (A) (A)
                 (A) (A) (A) (A) (A) (A) (A) (A) (A) (A) (A) (A)
                 (A) (A) (A) (A) (A) (A) (A) (A) (A) (A) (A) (A)
                 (A) (A) (A) (A) (A) (A) (A) (A) (A) (A) (A) (A)
                 (A) (A) (A) (A) (A) (A) (A) (A) (A) (A) (A) (A)
                 (A) (A) (A) (A) (A) (A) (A) (A) (A) (A) (A)
       Virtual   (A) (A) (A) (A) (A) (A) (A) (A) (A) (A) (A) (A)
                 (A) (A) (A) (A) (A) (A) (A) (A) (A) (A) (A) (A)
                 (A) (A) (A) (A) (A) (A) (A) (A) (A) (A) (A) (A)
                 (A) (A) (A) (A) (A) (A) (A) (A) (A) (A) (A) (A)
                 (A) (A) (A) (A) (A) (A) (A) (A) (A) (A) (A) (A)
                 (A) (A) (A) (A) (A) (A) (A) (A) (A) (A) (A) (A)
                 (A) (A) (A) (A) (A) (A) (A) (A) (A) (A) (A) (A)
                 (A) (A) (A) (A) (A) (A) (A) (A) (A) (A) (A) (A)
                 (A) (A) (A) (A) (A) (A) (A) (A) (A) (A) (A) (A)
                 (A) (A) (A) (A) (A) (A) (A) (A) (A) (A) (A) (A)
                 (A) (A) (A) (A) (A) (A) (A) (A) (A) (A) (A) (A)
                 (A) (A) (A) (A) (A) (A) (A) (A) (A) (A) (A) (A)
                 (A) (A) (A) (A) (A) (A) (A) (A) (A) (A) (A) (A)
                 (A) (A) (A) (A) (A) (A) (A) (A) (A) (A) (A) (A)
                 (A) (A) (A) (A) (A) (A) (A) (A) (A) (A) (A) (A)
                 (A) (A) (A) (A) (A) (A) (A) (A) (A) (A) (A) (A)
                 (A) (A) (A) (A) (A) (A) (A) (A) (A) (A) (A) (A)
                 (A) (A) (A) (A) (A) (A) (A) (A) (A) (A) (A) (A)
                 (A) (A) (A) (A) (A) (A) (A) (A) (A) (A) (A) (A)
                 (A) (A) (A) (A) (A) (A) (A) (A) (A) (A) (A) (A)
                 (A) (A) (A) (A) (A) (A) (A) (A) (A) (A) (A) (A)
                 (A) (A) (A) (A) (A) (A) (A) (A) (A) (A) (A) (A)
                 (A) (A) (A) (A) (A) (A) (A) (A) (A) (A) (A) (A)
                 (A) (A) (A) (A) (A) (A) (A) (A) (A) (A) (A) (A)
                 (A) (A) (A) (A) (A) (A) (A) (A) (A) (A) (A) (A)
                 (A) (A) (A) (A) (A) (A) (A) (A) (A) (A) (A) (A)
                 (A) (A) (A) (A) (A) (A) (A) (A) (A) (A) (A) (A)
                 (A) (A) (A) (A) (A) (A) (A) (A) (A) (A) (A) (A)
                 (A) (A) (A) (A) (A) (A) (A) (A) (A) (A) (A) (A)
                 (A) (A) (A) (A) (A) (A) (A) (A) (A) (A) (A) (A)
                 (A) (A) (A) (A) (A) (A) (A) (A) (A) (A) (A) (A)
                 (A) (A) (A) (A) (A) (A) (A) (A) (A) (A) (A) (A)
                 (A) (A) (A) (A) (A) (A) (A) (A) (A) (A) (A) (A)
                 (A) (A) (A) (A) (A) (A) (A) (A) (A) (A) (A) (A)
                 (A) (A) (A) (A) (A) (A) (A) (A) (A) (A) (A) (A)
                 (A) (A) (A) (A) (A) (A) (A) (A) (A) (A) (A) (A)
                 (A) (A) (A) (A) (A) (A) (A) (A) (A) (A) (A) (A)
                 (A) (A) (A) (A) (A) (A) (A) (A) (A) (A) (A) (A)
                 (A) (A) (A) (A) (A) (A) (A) (A) (A) (A) (A) (A)
                 (A) (A) (A) (A) (A) (A) (A) (A) (A) (A) (A) (A)
                 (A) (A) (A) (A) (A) (A) (A) (A) (A) (A) (A) (A)
                 (A) (A) (A) (A) (A) (A) (A) (A) (A) (A) (A) (A)
                 (A) (A) (A) (A) (A) (A) (A) (A) (A) (A) (A) (A)
                 (A) (A) (A) (A) (A) (A) (A) (A) (A) (A) (A) (A)
                 (A) (A) (A) (A) (A) (A) (A) (A) (A) (A) (A) (A)
                 (A) (A) (A) (A) (A) (A) (A) (A) (A) (A) (A) (A)
                 (A) (A) (A) (A) (A) (A) (A) (A) (A) (A) (A) (A)
                 (A) (A) (A) (A) (A) (A) (A) (A) (A) (A) (A) (A)
                 (A) (A) (A) (A) (A) (A) (A) (A) (A) (A) (A) (A)
                 (A) (A) (A) (A) (A) (A) (A) (A) (A) (A) (A) (A)
                 (A) (A) (A) (A) (A) (A) (A) (A) (A) (A) (A) (A)
                 (A) (A) (A) (A) (A) (A) (A) (A) (A) (A) (A) (A)
                 (A) (A) (A) (A) (A) (A) (A) (A) (A) (A) (A) (A)
                 (A) (A) (A) (A) (A) (A) (A) (A) (A) (A) (A) (A)
                 (A) (A) (A) (A) (A) (A) (A) (A) (A) (A) (A) (A)
                 (A) (A) (A) (A) (A) (A) (A) (A) (A) (A) (A) (A)
                 (A) (A) (A) (A) (A) (A) (A) (A) (A) (A) (A) (A)
                 (A) (A) (A) (A) (A) (A) (A) (A) (A) (A) (A) (A)
                 (A) (A) (A) (A) (A) (A) (A) (A) (A) (A) (A) (A)
                 (A) (A) (A) (A) (A) (A) (A) (A) (A) (A) (A) (A)
                 (A) (A) (A) (A) (A) (A) (A) (A) (A) (A) (A) (A)
                 (A) (A) (A) (A) (A) (A) (A) (A) (A) (A) (A) (A)
                 (A) (A) (A) (A) (A) (A) (A) (A) (A) (A) (A) (A)
                 (A) (A) (A) (A) (A) (A) (A) (A) (A) (A) (A) (A)
                 (A) (A) (A) (A) (A) (A) (A) (A) (A) (A) (A) (A)
                 (A) (A) (A) (A) (A) (A) (A) (A) (A) (A) (A) (A)
                 (A) (A) (A) (A) (A) (A) (A) (A) (A) (A) (A) (A)
                 (A) (A) (A) (A) (A) (A) (A) (A) (A) (A) (A) (A)
                 (A) (A) (A) (A) (A) (A) (A) (A) (A) (A) (A) (A)
                 (A) (A) (A) (A) (A) (A) (A) (A) (A) (A) (A) (A)
                 (A) (A) (A) (A) (A) (A) (A) (A) (A) (A) (A) (A)
                 (A) (A) (A) (A) (A) (A) (A) (A) (A) (A) (A) (A)
                 (A) (A) (A) (A) (A) (A) (A) (A) (A) (A) (A) (A)
                 (A) (A) (A) (A) (A) (A) (A) (A) (A) (A) (A) (A)
                 (A) (A) (A) (A) (A) (A) (A) (A) (A) (A) (A) (A)
                 (A) (A) (A) (A) (A) (A) (A) (A) (A) (A) (A) (A)
                 (A) (A) (A) (A) (A) (A) (A) (A) (A) (A) (A) (A)
                 (A) (A) (A) (A) (A) (A) (A) (A) (A) (A) (A) (A)
                 (A) (A) (A) (A) (A) (A) (A) (A) (A) (A) (A) (A)
                 (A) (A) (A) (A) (A) (A) (A) (A) (A) (A) (A) (A)
                 (A) (A) (A) (A) (A) (A) (A) (A) (A) (A) (A) (A)
                 (A) (A) (A) (A) (A) (A) (A) (A) (A) (A) (A) (A)
                 (A) (A) (A) (A) (A) (A) (A) (A) (A) (A) (A) (A)
                 (A) (A) (A) (A) (A) (A) (A) (A) (A) (A) (A) (A)
                 (A) (A) (A) (A) (A) (A) (A) (A) (A) (A) (A) (A)
                 (A) (A) (A) (A) (A) (A) (A) (A) (A) (A) (A) (A)
                 (A) (A) (A) (A) (A) (A) (A) (A) (A) (A) (A) (A)
                 (A) (A) (A) (A) (A) (A) (A) (A) (A) (A) (A) (A)
                 (A) (A) (A) (A) (A) (A) (A) (A) (A) (A) (A) (A)
                 (A) (A) (A) (A) (A) (A) (A) (A) (A) (A) (A) (A)
                 (A) (A) (A) (A) (A) (A) (A) (A) (A) (A) (A) (A)
                 (A) (A) (A) (A) (A) (A) (A) (A) (A) (A) (A) (A)
                 (A) (A) (A) (A) (A) (A) (A) (A) (A) (A) (A) (A)
                 (A) (A) (A) (A) (A) (A) (A) (A) (A) (A) (A) (A)
                 (A) (A) (A) (A) (A) (A) (A) (A) (A) (A) (A) (A)
                 (A) (A) (A) (A) (A) (A) (A) (A) (A) (A) (A) (A)
                 (A) (A) (A) (A) (A) (A) (A) (A) (A) (A) (A) (A)
                 (A) (A) (A) (A) (A) (A) (A) (A) (A) (A) (A) (A)
                 (A) (A) (A) (A) (A) (A) (A) (A) (A) (A) (A) (A)
                 (A) (A) (A) (A) (A) (A) (A) (A) (A) (A) (A) (A)
                 (A) (A) (A) (A) (A) (A) (A) (A) (A) (A) (A) (A)
                 (A) (A) (A) (A) (A) (A) (A) (A) (A) (A) (A) (A)
                 (A) (A) (A) (A) (A) (A) (A) (A) (A) (A) (A) (A)
                 (A) (A) (A) (A) (A) (A) (A) (A) (A) (A) (A) (A)
                 (A) (A) (A) (A) (A) (A) (A) (A) (A) (A) (A) (A)
                 (A) (A) (A) (A) (A) (A) (A) (A) (A) (A) (A) (A)
                 (A) (A) (A) (A) (A) (A) (A) (A) (A) (A) (A) (A)
                 (A) (A) (A) (A) (A) (A) (A) (A) (A) (A) (A) (A)
                 (A) (A) (A) (A) (A) (A) (A) (A) (A) (A) (A) (A)
                 (A) (A) (A) (A) (A) (A) (A) (A) (A) (A) (A) (A)
                 (A) (A) (A) (A) (A) (A) (A) (A) (A) (A) (A) (A)
                 (A) (A) (A) (A) (A) (A) (A) (A) (A) (A) (A) (A)
                 (A) (A) (A) (A) (A) (A) (A) (A) (A) (A) (A) (A)
                 (A) (A) (A) (A) (A) (A) (A) (A) (A) (A) (A) (A)
                 (A) (A) (A) (A) (A) (A) (A) (A) (A) (A) (A) (A)
                 (A) (A) (A) (A) (A) (A) (A) (A) (A) (A) (A) (A)
                 (A) (A) (A) (A) (A) (A) (A) (A) (A) (A) (A) (A)
                 (A) (A) (A) (A) (A) (A) (A) (A) (A) (A) (A) (A)
                 (A) (A) (A) (A) (A) (A) (A) (A) (A) (A) (A) (A)
                 (A) (A) (A) (A) (A) (A) (A) (A) (A) (A) (A) (A)
                 (A) (A) (A) (A) (A) (A) (A) (A) (A) (A) (A) (A)
                 (A) (A) (A) (A) (A) (A) (A) (A) (A) (A) (A) (A)
                 (A) (A) (A) (A) (A) (A) (A) (A) (A) (A) (A) (A)
                 (A) (A) (A) (A) (A) (A) (A) (A) (A) (A) (A) (A)
                 (A) (A) (A) (A) (A) (A) (A) (A) (A) (A) (A) (A)
                 (A) (A) (A) (A) (A) (A) (A) (A) (A) (A) (A) (A)
                 (A) (A) (A) (A) (A) (A) (A) (A) (A) (A) (A) (A)
                 (A) (A) (A) (A) (A) (A) (A) (A) (A) (A) (A) (A)
                 (A) (A) (A) (A) (A) (A) (A) (A) (A) (A) (A) (A)
                 (A) (A) (A) (A) (A) (A) (A) (A) (A) (A) (A) (A)
                 (A) (A) (A) (A) (A) (A) (A) (A) (A) (A) (A) (A)
                 (A) (A) (A) (A) (A) (A) (A) (A) (A) (A) (A) (A)
                 (A) (A) (A) (A) (A) (A) (A) (A) (A) (A) (A) (A)
                 (A) (A) (A) (A) (A) (A) (A) (A) (A) (A) (A) (A)
                 (A) (A) (A) (A) (A) (A) (A) (A) (A) (A) (A) (A)
                 (A) (A) (A) (A) (A) (A) (A) (A) (A) (A) (A) (A)
                 (A) (A) (A) (A) (A) (A) (A) (A) (A) (A) (A) (A)
                 (A) (A) (A) (A) (A) (A) (A) (A) (A) (A) (A) (A)
                 (A) (A) (A) (A) (A) (A) (A) (A) (A) (A) (A) (A)
                 (A) (A) (A) (A) (A) (A) (A) (A) (A) (A) (A) (A)
                 (A) (A) (A) (A) (A) (A) (A) (A) (A) (A) (A) (A)
                 (A) (A) (A) (A) (A) (A) (A) (A) (A) (A) (A) (A)
                 (A) (A) (A) (A) (A) (A) (A) (A) (A) (A) (A) (A)
                 (A) (A) (A) (A) (A) (A) (A) (A) (A) (A) (A) (A)
                 (A) (A) (A) (A) (A) (A) (A) (A) (A) (A) (A) (A)
                 (A) (A) (A) (A) (A) (A) (A) (A)
 The electronic state is 5-A.
 Alpha  occ. eigenvalues -- -256.31357 -89.02007 -30.10353 -25.93079 -25.92914
 Alpha  occ. eigenvalues --  -25.91653 -19.27799 -19.26359 -19.18888 -19.17136
 Alpha  occ. eigenvalues --  -14.45655 -14.40535 -14.36746 -14.36129 -14.35937
 Alpha  occ. eigenvalues --  -14.35906 -10.35861 -10.35175 -10.28696 -10.26459
 Alpha  occ. eigenvalues --  -10.24825 -10.24776 -10.24741 -10.24690 -10.24646
 Alpha  occ. eigenvalues --  -10.24424 -10.24097 -10.24078 -10.24067 -10.23800
 Alpha  occ. eigenvalues --  -10.23788 -10.23769 -10.23723 -10.23506 -10.23478
 Alpha  occ. eigenvalues --  -10.23470 -10.23320 -10.23036 -10.22865 -10.22629
 Alpha  occ. eigenvalues --  -10.22207 -10.22176 -10.22150 -10.22035 -10.21975
 Alpha  occ. eigenvalues --  -10.21972 -10.21963 -10.21875 -10.21856 -10.21793
 Alpha  occ. eigenvalues --  -10.21444 -10.21383 -10.21332 -10.21202 -10.21079
 Alpha  occ. eigenvalues --  -10.20815 -10.19628  -7.99771  -5.93443  -5.93127
 Alpha  occ. eigenvalues --   -5.92578  -3.49289  -2.27011  -2.26735  -2.21878
 Alpha  occ. eigenvalues --   -1.17541  -1.17259  -1.06444  -1.03541  -1.02718
 Alpha  occ. eigenvalues --   -0.98034  -0.97136  -0.96864  -0.95947  -0.91520
 Alpha  occ. eigenvalues --   -0.83990  -0.83438  -0.82987  -0.82849  -0.81857
 Alpha  occ. eigenvalues --   -0.81755  -0.81560  -0.81111  -0.80556  -0.78919
 Alpha  occ. eigenvalues --   -0.78361  -0.77088  -0.76509  -0.75900  -0.75479
 Alpha  occ. eigenvalues --   -0.73698  -0.72610  -0.72267  -0.71519  -0.70772
 Alpha  occ. eigenvalues --   -0.69878  -0.69660  -0.68910  -0.67263  -0.66595
 Alpha  occ. eigenvalues --   -0.66162  -0.65691  -0.65282  -0.65049  -0.62819
 Alpha  occ. eigenvalues --   -0.62634  -0.62181  -0.59750  -0.58834  -0.58619
 Alpha  occ. eigenvalues --   -0.56918  -0.56108  -0.54798  -0.54720  -0.54251
 Alpha  occ. eigenvalues --   -0.53053  -0.52357  -0.52089  -0.51728  -0.51319
 Alpha  occ. eigenvalues --   -0.50890  -0.50618  -0.49911  -0.48903  -0.48694
 Alpha  occ. eigenvalues --   -0.48618  -0.48280  -0.48155  -0.47520  -0.46850
 Alpha  occ. eigenvalues --   -0.46242  -0.45663  -0.45591  -0.45332  -0.45158
 Alpha  occ. eigenvalues --   -0.44954  -0.44679  -0.44301  -0.44249  -0.44018
 Alpha  occ. eigenvalues --   -0.43876  -0.43761  -0.43586  -0.43504  -0.43306
 Alpha  occ. eigenvalues --   -0.43247  -0.43104  -0.42769  -0.42624  -0.42553
 Alpha  occ. eigenvalues --   -0.42022  -0.41545  -0.41365  -0.41077  -0.40966
 Alpha  occ. eigenvalues --   -0.40671  -0.40531  -0.40443  -0.40236  -0.40063
 Alpha  occ. eigenvalues --   -0.39802  -0.39617  -0.38822  -0.38577  -0.38377
 Alpha  occ. eigenvalues --   -0.38239  -0.38030  -0.37929  -0.37609  -0.37243
 Alpha  occ. eigenvalues --   -0.36928  -0.36858  -0.36593  -0.36209  -0.36007
 Alpha  occ. eigenvalues --   -0.35244  -0.35135  -0.34916  -0.34829  -0.34392
 Alpha  occ. eigenvalues --   -0.34226  -0.33611  -0.33161  -0.32850  -0.32685
 Alpha  occ. eigenvalues --   -0.32449  -0.32138  -0.29809  -0.29395  -0.28488
 Alpha  occ. eigenvalues --   -0.28402  -0.28021  -0.27671  -0.27436  -0.27021
 Alpha  occ. eigenvalues --   -0.26639  -0.25392  -0.25141  -0.23865  -0.23659
 Alpha  occ. eigenvalues --   -0.22753  -0.22188  -0.20660  -0.20249  -0.19222
 Alpha  occ. eigenvalues --   -0.18352  -0.15628
 Alpha virt. eigenvalues --   -0.07309  -0.07199  -0.02347  -0.01348  -0.01153
 Alpha virt. eigenvalues --    0.00134   0.01059   0.01330   0.01708   0.02429
 Alpha virt. eigenvalues --    0.03297   0.03628   0.03973   0.04208   0.04936
 Alpha virt. eigenvalues --    0.04971   0.05593   0.05825   0.05921   0.06182
 Alpha virt. eigenvalues --    0.06512   0.06875   0.07230   0.07513   0.07687
 Alpha virt. eigenvalues --    0.07960   0.08037   0.08562   0.08573   0.08977
 Alpha virt. eigenvalues --    0.09258   0.09400   0.09708   0.10000   0.10103
 Alpha virt. eigenvalues --    0.10545   0.10818   0.11036   0.11262   0.11383
 Alpha virt. eigenvalues --    0.11684   0.11910   0.12100   0.12354   0.12450
 Alpha virt. eigenvalues --    0.12879   0.13043   0.13114   0.13499   0.13778
 Alpha virt. eigenvalues --    0.13789   0.13968   0.14199   0.14286   0.14481
 Alpha virt. eigenvalues --    0.14578   0.14787   0.14839   0.15030   0.15124
 Alpha virt. eigenvalues --    0.15248   0.15380   0.15501   0.15724   0.15836
 Alpha virt. eigenvalues --    0.16352   0.16538   0.16710   0.16932   0.17010
 Alpha virt. eigenvalues --    0.17357   0.17548   0.17843   0.17921   0.18103
 Alpha virt. eigenvalues --    0.18312   0.18488   0.18758   0.19092   0.19164
 Alpha virt. eigenvalues --    0.19614   0.19735   0.19819   0.20134   0.20414
 Alpha virt. eigenvalues --    0.20663   0.20940   0.20977   0.21206   0.21349
 Alpha virt. eigenvalues --    0.21411   0.21578   0.22264   0.22455   0.22520
 Alpha virt. eigenvalues --    0.22847   0.22929   0.23067   0.23533   0.23716
 Alpha virt. eigenvalues --    0.23825   0.24007   0.24171   0.24370   0.24677
 Alpha virt. eigenvalues --    0.25051   0.25107   0.25303   0.25463   0.25720
 Alpha virt. eigenvalues --    0.25979   0.26207   0.26343   0.26541   0.26756
 Alpha virt. eigenvalues --    0.26909   0.27398   0.27520   0.27812   0.27976
 Alpha virt. eigenvalues --    0.28158   0.28242   0.28387   0.28554   0.28809
 Alpha virt. eigenvalues --    0.29015   0.29219   0.29504   0.29635   0.29716
 Alpha virt. eigenvalues --    0.30260   0.30315   0.30457   0.30737   0.30850
 Alpha virt. eigenvalues --    0.31028   0.31192   0.31549   0.31771   0.32138
 Alpha virt. eigenvalues --    0.32246   0.32573   0.32646   0.33048   0.33131
 Alpha virt. eigenvalues --    0.33313   0.33599   0.33764   0.34120   0.34303
 Alpha virt. eigenvalues --    0.34329   0.34484   0.34742   0.35036   0.35263
 Alpha virt. eigenvalues --    0.35461   0.35801   0.36100   0.36327   0.36503
 Alpha virt. eigenvalues --    0.36603   0.37081   0.37107   0.37377   0.37545
 Alpha virt. eigenvalues --    0.37757   0.37956   0.38317   0.38482   0.38817
 Alpha virt. eigenvalues --    0.39008   0.39049   0.39244   0.39372   0.39608
 Alpha virt. eigenvalues --    0.39798   0.40010   0.40263   0.40376   0.40556
 Alpha virt. eigenvalues --    0.40798   0.40889   0.41029   0.41290   0.41506
 Alpha virt. eigenvalues --    0.41689   0.41856   0.41904   0.42184   0.42353
 Alpha virt. eigenvalues --    0.42490   0.42694   0.42952   0.43079   0.43207
 Alpha virt. eigenvalues --    0.43437   0.43498   0.43570   0.43878   0.44129
 Alpha virt. eigenvalues --    0.44247   0.44302   0.44389   0.44644   0.44816
 Alpha virt. eigenvalues --    0.44874   0.45289   0.45386   0.45537   0.45754
 Alpha virt. eigenvalues --    0.46011   0.46050   0.46205   0.46408   0.46461
 Alpha virt. eigenvalues --    0.46586   0.46602   0.46931   0.47124   0.47198
 Alpha virt. eigenvalues --    0.47334   0.47470   0.47620   0.47697   0.47941
 Alpha virt. eigenvalues --    0.48068   0.48190   0.48384   0.48495   0.48703
 Alpha virt. eigenvalues --    0.49073   0.49134   0.49272   0.49387   0.49548
 Alpha virt. eigenvalues --    0.49668   0.49955   0.50071   0.50383   0.50472
 Alpha virt. eigenvalues --    0.50660   0.50834   0.50907   0.51077   0.51137
 Alpha virt. eigenvalues --    0.51351   0.51621   0.51836   0.51908   0.52276
 Alpha virt. eigenvalues --    0.52408   0.52694   0.52906   0.53122   0.53274
 Alpha virt. eigenvalues --    0.53549   0.53612   0.53737   0.53944   0.54280
 Alpha virt. eigenvalues --    0.54388   0.54755   0.54897   0.55069   0.55437
 Alpha virt. eigenvalues --    0.55452   0.55618   0.55816   0.55980   0.56055
 Alpha virt. eigenvalues --    0.56550   0.56674   0.56844   0.56995   0.57284
 Alpha virt. eigenvalues --    0.57583   0.57930   0.58073   0.58227   0.58639
 Alpha virt. eigenvalues --    0.58894   0.58968   0.59312   0.59497   0.59844
 Alpha virt. eigenvalues --    0.59972   0.60263   0.60488   0.60729   0.60997
 Alpha virt. eigenvalues --    0.61279   0.61509   0.61677   0.61802   0.62229
 Alpha virt. eigenvalues --    0.62393   0.62548   0.62836   0.62987   0.63343
 Alpha virt. eigenvalues --    0.63677   0.63819   0.64118   0.64612   0.64669
 Alpha virt. eigenvalues --    0.64931   0.65174   0.65470   0.65672   0.65806
 Alpha virt. eigenvalues --    0.65961   0.66318   0.66626   0.66924   0.67181
 Alpha virt. eigenvalues --    0.67660   0.67840   0.67955   0.68100   0.68442
 Alpha virt. eigenvalues --    0.68872   0.68962   0.69172   0.69792   0.69862
 Alpha virt. eigenvalues --    0.70172   0.70303   0.70707   0.70920   0.71015
 Alpha virt. eigenvalues --    0.71315   0.71598   0.71816   0.72287   0.72368
 Alpha virt. eigenvalues --    0.72604   0.72982   0.73237   0.73433   0.73995
 Alpha virt. eigenvalues --    0.74171   0.74425   0.74745   0.74997   0.75104
 Alpha virt. eigenvalues --    0.75379   0.75970   0.76121   0.76324   0.76502
 Alpha virt. eigenvalues --    0.77302   0.77366   0.77567   0.77951   0.78153
 Alpha virt. eigenvalues --    0.78285   0.78616   0.79053   0.79130   0.79136
 Alpha virt. eigenvalues --    0.79785   0.79875   0.80434   0.80707   0.81081
 Alpha virt. eigenvalues --    0.81447   0.81915   0.82231   0.82339   0.83031
 Alpha virt. eigenvalues --    0.83201   0.83416   0.83692   0.83994   0.84057
 Alpha virt. eigenvalues --    0.84441   0.84942   0.85153   0.85613   0.85771
 Alpha virt. eigenvalues --    0.86046   0.86494   0.86783   0.87131   0.87410
 Alpha virt. eigenvalues --    0.87485   0.87691   0.88012   0.88157   0.88514
 Alpha virt. eigenvalues --    0.88775   0.89125   0.89522   0.89875   0.90224
 Alpha virt. eigenvalues --    0.90731   0.91001   0.91144   0.91281   0.91579
 Alpha virt. eigenvalues --    0.91900   0.92003   0.92344   0.92723   0.92997
 Alpha virt. eigenvalues --    0.93168   0.93345   0.93789   0.93974   0.94022
 Alpha virt. eigenvalues --    0.94252   0.94686   0.94887   0.94965   0.95249
 Alpha virt. eigenvalues --    0.95615   0.96159   0.96347   0.96494   0.96831
 Alpha virt. eigenvalues --    0.96936   0.97381   0.97651   0.98009   0.98016
 Alpha virt. eigenvalues --    0.98123   0.98335   0.98634   0.98779   0.99165
 Alpha virt. eigenvalues --    0.99245   0.99375   0.99809   1.00085   1.00239
 Alpha virt. eigenvalues --    1.00333   1.00833   1.01484   1.01688   1.02054
 Alpha virt. eigenvalues --    1.02320   1.02692   1.02954   1.03017   1.03542
 Alpha virt. eigenvalues --    1.03891   1.04108   1.04165   1.04305   1.04520
 Alpha virt. eigenvalues --    1.04574   1.05078   1.05668   1.06004   1.06174
 Alpha virt. eigenvalues --    1.06500   1.06929   1.07039   1.07283   1.07515
 Alpha virt. eigenvalues --    1.07739   1.07991   1.08234   1.08515   1.08840
 Alpha virt. eigenvalues --    1.09185   1.09298   1.09753   1.09968   1.10238
 Alpha virt. eigenvalues --    1.10483   1.10980   1.11190   1.11352   1.11445
 Alpha virt. eigenvalues --    1.11786   1.12370   1.12657   1.12991   1.13194
 Alpha virt. eigenvalues --    1.13590   1.13656   1.13880   1.14419   1.14803
 Alpha virt. eigenvalues --    1.14900   1.14964   1.15820   1.16636   1.16688
 Alpha virt. eigenvalues --    1.16932   1.17032   1.17301   1.17673   1.17730
 Alpha virt. eigenvalues --    1.18179   1.18686   1.18947   1.19274   1.19775
 Alpha virt. eigenvalues --    1.20301   1.20639   1.20892   1.21182   1.21745
 Alpha virt. eigenvalues --    1.22195   1.22297   1.22579   1.23231   1.23394
 Alpha virt. eigenvalues --    1.23980   1.24284   1.24446   1.24607   1.24995
 Alpha virt. eigenvalues --    1.25261   1.25716   1.26143   1.26434   1.26632
 Alpha virt. eigenvalues --    1.27243   1.27766   1.28150   1.28532   1.28926
 Alpha virt. eigenvalues --    1.29108   1.29487   1.29661   1.30008   1.30320
 Alpha virt. eigenvalues --    1.30380   1.30606   1.31097   1.31652   1.31686
 Alpha virt. eigenvalues --    1.32037   1.32845   1.32889   1.33553   1.33697
 Alpha virt. eigenvalues --    1.33894   1.34129   1.34662   1.34921   1.35180
 Alpha virt. eigenvalues --    1.35416   1.36005   1.36441   1.36627   1.37414
 Alpha virt. eigenvalues --    1.37663   1.38001   1.38345   1.38620   1.38836
 Alpha virt. eigenvalues --    1.39013   1.40088   1.40439   1.41272   1.41356
 Alpha virt. eigenvalues --    1.41874   1.42118   1.42561   1.42888   1.43043
 Alpha virt. eigenvalues --    1.43704   1.44160   1.44536   1.45201   1.45409
 Alpha virt. eigenvalues --    1.45782   1.45955   1.46152   1.46762   1.47497
 Alpha virt. eigenvalues --    1.47856   1.48266   1.48432   1.49180   1.49331
 Alpha virt. eigenvalues --    1.49446   1.49720   1.49864   1.50097   1.50359
 Alpha virt. eigenvalues --    1.50621   1.50981   1.51126   1.51578   1.51819
 Alpha virt. eigenvalues --    1.52162   1.52477   1.52689   1.52896   1.53173
 Alpha virt. eigenvalues --    1.53672   1.53819   1.54228   1.54600   1.54675
 Alpha virt. eigenvalues --    1.55044   1.55136   1.55502   1.55676   1.55809
 Alpha virt. eigenvalues --    1.56060   1.56364   1.56469   1.56764   1.56895
 Alpha virt. eigenvalues --    1.57093   1.57382   1.57619   1.57778   1.57850
 Alpha virt. eigenvalues --    1.58393   1.58438   1.58794   1.59127   1.59348
 Alpha virt. eigenvalues --    1.59819   1.59961   1.60228   1.60561   1.60779
 Alpha virt. eigenvalues --    1.60956   1.61382   1.61785   1.61917   1.61929
 Alpha virt. eigenvalues --    1.62142   1.62395   1.62558   1.62618   1.63077
 Alpha virt. eigenvalues --    1.63226   1.63379   1.63603   1.63804   1.64131
 Alpha virt. eigenvalues --    1.64202   1.64722   1.64802   1.65308   1.65454
 Alpha virt. eigenvalues --    1.65717   1.66027   1.66091   1.66304   1.66708
 Alpha virt. eigenvalues --    1.66783   1.67123   1.67336   1.67651   1.67880
 Alpha virt. eigenvalues --    1.68036   1.68352   1.69059   1.69081   1.69372
 Alpha virt. eigenvalues --    1.69793   1.70121   1.70553   1.70809   1.71102
 Alpha virt. eigenvalues --    1.71268   1.71641   1.71735   1.72131   1.72429
 Alpha virt. eigenvalues --    1.72656   1.72807   1.72925   1.73241   1.73336
 Alpha virt. eigenvalues --    1.73892   1.74469   1.74547   1.75029   1.75159
 Alpha virt. eigenvalues --    1.75554   1.75593   1.75869   1.76365   1.76819
 Alpha virt. eigenvalues --    1.76942   1.77444   1.77469   1.77523   1.77914
 Alpha virt. eigenvalues --    1.78379   1.78718   1.78984   1.79605   1.79884
 Alpha virt. eigenvalues --    1.79947   1.80165   1.80788   1.81094   1.81656
 Alpha virt. eigenvalues --    1.82036   1.82521   1.82651   1.82911   1.83320
 Alpha virt. eigenvalues --    1.83937   1.84138   1.84279   1.85166   1.85387
 Alpha virt. eigenvalues --    1.85695   1.85769   1.86319   1.86625   1.87114
 Alpha virt. eigenvalues --    1.87380   1.87782   1.88380   1.88607   1.88805
 Alpha virt. eigenvalues --    1.89054   1.89271   1.89700   1.89862   1.90315
 Alpha virt. eigenvalues --    1.90612   1.91292   1.91501   1.91743   1.92370
 Alpha virt. eigenvalues --    1.92725   1.93324   1.93679   1.93697   1.94291
 Alpha virt. eigenvalues --    1.94463   1.94859   1.95301   1.95600   1.96355
 Alpha virt. eigenvalues --    1.96524   1.96790   1.97268   1.97787   1.97893
 Alpha virt. eigenvalues --    1.98009   1.98627   1.98670   1.98986   1.99082
 Alpha virt. eigenvalues --    1.99390   1.99660   2.00113   2.00502   2.00848
 Alpha virt. eigenvalues --    2.01156   2.01402   2.01823   2.02105   2.02252
 Alpha virt. eigenvalues --    2.02761   2.02972   2.03215   2.03708   2.04008
 Alpha virt. eigenvalues --    2.04261   2.04987   2.05141   2.05553   2.05902
 Alpha virt. eigenvalues --    2.06309   2.06514   2.06917   2.07074   2.07760
 Alpha virt. eigenvalues --    2.08208   2.08371   2.08646   2.09104   2.09420
 Alpha virt. eigenvalues --    2.09723   2.09807   2.10363   2.10586   2.10736
 Alpha virt. eigenvalues --    2.11070   2.11558   2.11753   2.11965   2.12160
 Alpha virt. eigenvalues --    2.12353   2.12753   2.13218   2.13499   2.13868
 Alpha virt. eigenvalues --    2.13923   2.14830   2.15052   2.15104   2.15615
 Alpha virt. eigenvalues --    2.15841   2.16079   2.16295   2.16575   2.16775
 Alpha virt. eigenvalues --    2.17602   2.17925   2.18078   2.18293   2.18500
 Alpha virt. eigenvalues --    2.19297   2.19432   2.20104   2.20500   2.20902
 Alpha virt. eigenvalues --    2.21030   2.21087   2.21824   2.22085   2.22297
 Alpha virt. eigenvalues --    2.22942   2.23247   2.23509   2.23961   2.24103
 Alpha virt. eigenvalues --    2.24334   2.24497   2.24788   2.25321   2.26126
 Alpha virt. eigenvalues --    2.26316   2.26580   2.27065   2.27228   2.27761
 Alpha virt. eigenvalues --    2.28516   2.28686   2.28951   2.29298   2.29729
 Alpha virt. eigenvalues --    2.29985   2.30123   2.30569   2.30656   2.30972
 Alpha virt. eigenvalues --    2.31416   2.31656   2.31894   2.32319   2.32618
 Alpha virt. eigenvalues --    2.33550   2.33646   2.34186   2.34387   2.34812
 Alpha virt. eigenvalues --    2.35132   2.35387   2.35581   2.36022   2.36181
 Alpha virt. eigenvalues --    2.36515   2.36869   2.37224   2.37363   2.37684
 Alpha virt. eigenvalues --    2.38038   2.38061   2.38387   2.38733   2.38835
 Alpha virt. eigenvalues --    2.39268   2.39593   2.39790   2.40329   2.40508
 Alpha virt. eigenvalues --    2.40816   2.41151   2.41704   2.41830   2.42244
 Alpha virt. eigenvalues --    2.42448   2.42686   2.43091   2.43482   2.43574
 Alpha virt. eigenvalues --    2.43982   2.44347   2.44854   2.45049   2.45533
 Alpha virt. eigenvalues --    2.45827   2.46067   2.46306   2.47171   2.47305
 Alpha virt. eigenvalues --    2.47821   2.48129   2.48856   2.48988   2.49317
 Alpha virt. eigenvalues --    2.49410   2.49872   2.50167   2.50533   2.51075
 Alpha virt. eigenvalues --    2.51704   2.52006   2.52132   2.52656   2.52705
 Alpha virt. eigenvalues --    2.53299   2.53599   2.53866   2.54305   2.54726
 Alpha virt. eigenvalues --    2.55047   2.55080   2.55905   2.56131   2.56263
 Alpha virt. eigenvalues --    2.56777   2.57117   2.57386   2.57502   2.57817
 Alpha virt. eigenvalues --    2.58107   2.58422   2.58604   2.58944   2.59183
 Alpha virt. eigenvalues --    2.59516   2.59879   2.60367   2.60571   2.60595
 Alpha virt. eigenvalues --    2.60983   2.61278   2.61486   2.61696   2.61820
 Alpha virt. eigenvalues --    2.62178   2.62897   2.63119   2.63240   2.63633
 Alpha virt. eigenvalues --    2.63731   2.64071   2.64360   2.64626   2.64947
 Alpha virt. eigenvalues --    2.65074   2.65441   2.65585   2.65689   2.65933
 Alpha virt. eigenvalues --    2.66409   2.66933   2.67493   2.67625   2.67808
 Alpha virt. eigenvalues --    2.68169   2.68495   2.68807   2.68912   2.69221
 Alpha virt. eigenvalues --    2.69466   2.69967   2.70284   2.70482   2.70875
 Alpha virt. eigenvalues --    2.71133   2.71787   2.71865   2.72403   2.72716
 Alpha virt. eigenvalues --    2.73092   2.73239   2.73571   2.73878   2.74309
 Alpha virt. eigenvalues --    2.74492   2.75188   2.75329   2.75456   2.75765
 Alpha virt. eigenvalues --    2.76201   2.76483   2.76899   2.77201   2.77662
 Alpha virt. eigenvalues --    2.77855   2.77888   2.78545   2.78725   2.79100
 Alpha virt. eigenvalues --    2.79269   2.79717   2.80055   2.80140   2.81067
 Alpha virt. eigenvalues --    2.81531   2.81783   2.82189   2.82557   2.82930
 Alpha virt. eigenvalues --    2.83149   2.83820   2.83913   2.84289   2.84424
 Alpha virt. eigenvalues --    2.84858   2.84956   2.85520   2.85795   2.86310
 Alpha virt. eigenvalues --    2.86374   2.86776   2.87452   2.88001   2.88321
 Alpha virt. eigenvalues --    2.88609   2.88879   2.89475   2.89582   2.90378
 Alpha virt. eigenvalues --    2.90585   2.90687   2.91009   2.91176   2.91548
 Alpha virt. eigenvalues --    2.92154   2.92275   2.92499   2.93086   2.93314
 Alpha virt. eigenvalues --    2.93624   2.94000   2.94359   2.94815   2.94961
 Alpha virt. eigenvalues --    2.95399   2.95499   2.95659   2.96013   2.96129
 Alpha virt. eigenvalues --    2.96342   2.96860   2.96940   2.97330   2.97684
 Alpha virt. eigenvalues --    2.97952   2.98358   2.98842   2.99300   2.99664
 Alpha virt. eigenvalues --    2.99830   3.00058   3.00173   3.00753   3.01062
 Alpha virt. eigenvalues --    3.01276   3.01671   3.01951   3.02331   3.02766
 Alpha virt. eigenvalues --    3.03106   3.03354   3.03520   3.03786   3.04093
 Alpha virt. eigenvalues --    3.04453   3.04583   3.04848   3.05029   3.05643
 Alpha virt. eigenvalues --    3.05745   3.05870   3.06512   3.06960   3.07217
 Alpha virt. eigenvalues --    3.07533   3.07772   3.08078   3.08209   3.08254
 Alpha virt. eigenvalues --    3.08700   3.08978   3.09369   3.09686   3.09885
 Alpha virt. eigenvalues --    3.10256   3.10396   3.10790   3.10842   3.11048
 Alpha virt. eigenvalues --    3.11271   3.11507   3.11655   3.12190   3.12510
 Alpha virt. eigenvalues --    3.12763   3.12989   3.13279   3.13613   3.13710
 Alpha virt. eigenvalues --    3.13850   3.14119   3.14307   3.14611   3.14905
 Alpha virt. eigenvalues --    3.15221   3.15447   3.15601   3.16297   3.16701
 Alpha virt. eigenvalues --    3.16827   3.17028   3.17332   3.17530   3.17771
 Alpha virt. eigenvalues --    3.18058   3.18283   3.18487   3.18814   3.18888
 Alpha virt. eigenvalues --    3.18926   3.19153   3.19430   3.19639   3.20170
 Alpha virt. eigenvalues --    3.20393   3.20895   3.21084   3.21210   3.21469
 Alpha virt. eigenvalues --    3.21894   3.22103   3.22505   3.22705   3.22923
 Alpha virt. eigenvalues --    3.23220   3.23581   3.23769   3.24289   3.24414
 Alpha virt. eigenvalues --    3.24774   3.25229   3.25317   3.25669   3.25969
 Alpha virt. eigenvalues --    3.26087   3.26417   3.26746   3.26920   3.27164
 Alpha virt. eigenvalues --    3.27564   3.27895   3.28223   3.28692   3.28720
 Alpha virt. eigenvalues --    3.28951   3.29074   3.29269   3.29509   3.29645
 Alpha virt. eigenvalues --    3.30013   3.30188   3.30466   3.30813   3.31062
 Alpha virt. eigenvalues --    3.31325   3.31648   3.31792   3.32279   3.32323
 Alpha virt. eigenvalues --    3.32656   3.32716   3.32931   3.33068   3.33348
 Alpha virt. eigenvalues --    3.33603   3.34003   3.34304   3.34383   3.34533
 Alpha virt. eigenvalues --    3.34826   3.34984   3.35299   3.35458   3.35576
 Alpha virt. eigenvalues --    3.35794   3.36036   3.36268   3.36632   3.37022
 Alpha virt. eigenvalues --    3.37424   3.37479   3.37805   3.37917   3.38418
 Alpha virt. eigenvalues --    3.38533   3.38581   3.38795   3.38967   3.39194
 Alpha virt. eigenvalues --    3.39293   3.39816   3.40105   3.40214   3.40432
 Alpha virt. eigenvalues --    3.40611   3.40727   3.40904   3.41107   3.41426
 Alpha virt. eigenvalues --    3.41777   3.41898   3.42351   3.42397   3.42756
 Alpha virt. eigenvalues --    3.43322   3.43466   3.43660   3.43895   3.44490
 Alpha virt. eigenvalues --    3.44630   3.44729   3.44943   3.45113   3.45647
 Alpha virt. eigenvalues --    3.45930   3.46234   3.46597   3.46866   3.47358
 Alpha virt. eigenvalues --    3.47649   3.47803   3.48325   3.48995   3.49015
 Alpha virt. eigenvalues --    3.49471   3.49630   3.50080   3.50226   3.50677
 Alpha virt. eigenvalues --    3.51207   3.51406   3.51461   3.51851   3.52139
 Alpha virt. eigenvalues --    3.52350   3.52713   3.52954   3.53324   3.53764
 Alpha virt. eigenvalues --    3.54212   3.54420   3.55081   3.55371   3.55539
 Alpha virt. eigenvalues --    3.55701   3.56158   3.56714   3.56824   3.57053
 Alpha virt. eigenvalues --    3.57573   3.57848   3.58112   3.58413   3.58714
 Alpha virt. eigenvalues --    3.58988   3.59285   3.59732   3.59909   3.60001
 Alpha virt. eigenvalues --    3.60925   3.60998   3.61990   3.62354   3.62723
 Alpha virt. eigenvalues --    3.63157   3.63538   3.63839   3.64419   3.64583
 Alpha virt. eigenvalues --    3.65007   3.65299   3.65476   3.65658   3.65866
 Alpha virt. eigenvalues --    3.66540   3.66670   3.66860   3.67584   3.67749
 Alpha virt. eigenvalues --    3.68463   3.68623   3.68930   3.69249   3.69550
 Alpha virt. eigenvalues --    3.69860   3.70450   3.70592   3.70947   3.71118
 Alpha virt. eigenvalues --    3.71667   3.71847   3.72292   3.72510   3.72797
 Alpha virt. eigenvalues --    3.73291   3.73843   3.74155   3.74261   3.74990
 Alpha virt. eigenvalues --    3.75167   3.75594   3.75939   3.76387   3.76842
 Alpha virt. eigenvalues --    3.77058   3.77469   3.78052   3.78478   3.79031
 Alpha virt. eigenvalues --    3.79342   3.79617   3.79840   3.80281   3.80800
 Alpha virt. eigenvalues --    3.81428   3.82118   3.82916   3.83005   3.83568
 Alpha virt. eigenvalues --    3.83958   3.84080   3.84844   3.85292   3.85625
 Alpha virt. eigenvalues --    3.85989   3.86180   3.86726   3.87198   3.88194
 Alpha virt. eigenvalues --    3.88403   3.88627   3.89070   3.89181   3.89597
 Alpha virt. eigenvalues --    3.89873   3.89903   3.90762   3.91299   3.91864
 Alpha virt. eigenvalues --    3.92351   3.92644   3.93383   3.93401   3.94149
 Alpha virt. eigenvalues --    3.94334   3.94509   3.94900   3.95643   3.95881
 Alpha virt. eigenvalues --    3.96136   3.96321   3.96884   3.97045   3.97702
 Alpha virt. eigenvalues --    3.98223   3.98390   3.98965   3.99417   4.00121
 Alpha virt. eigenvalues --    4.00539   4.00740   4.01207   4.01695   4.01987
 Alpha virt. eigenvalues --    4.02480   4.02826   4.03295   4.03650   4.04671
 Alpha virt. eigenvalues --    4.05158   4.05423   4.05732   4.05872   4.07090
 Alpha virt. eigenvalues --    4.07170   4.07795   4.08248   4.08725   4.09253
 Alpha virt. eigenvalues --    4.10095   4.10379   4.10956   4.11641   4.12087
 Alpha virt. eigenvalues --    4.12894   4.13764   4.14103   4.14555   4.14966
 Alpha virt. eigenvalues --    4.15167   4.16010   4.16519   4.16600   4.16974
 Alpha virt. eigenvalues --    4.17196   4.17807   4.18256   4.18792   4.19344
 Alpha virt. eigenvalues --    4.20429   4.20851   4.21838   4.22228   4.23311
 Alpha virt. eigenvalues --    4.23779   4.23864   4.24289   4.24723   4.25708
 Alpha virt. eigenvalues --    4.25936   4.25998   4.26946   4.27285   4.27501
 Alpha virt. eigenvalues --    4.28054   4.28532   4.29043   4.29213   4.29953
 Alpha virt. eigenvalues --    4.30334   4.30776   4.30956   4.31392   4.31726
 Alpha virt. eigenvalues --    4.32356   4.32995   4.33375   4.34052   4.34330
 Alpha virt. eigenvalues --    4.34645   4.35092   4.35213   4.36042   4.36091
 Alpha virt. eigenvalues --    4.36340   4.37041   4.37372   4.37595   4.38205
 Alpha virt. eigenvalues --    4.38524   4.38817   4.39958   4.40123   4.40756
 Alpha virt. eigenvalues --    4.41306   4.41572   4.41809   4.42495   4.42692
 Alpha virt. eigenvalues --    4.43402   4.44661   4.45209   4.45350   4.45797
 Alpha virt. eigenvalues --    4.47308   4.47543   4.47811   4.48737   4.49016
 Alpha virt. eigenvalues --    4.49448   4.49920   4.50507   4.51030   4.51358
 Alpha virt. eigenvalues --    4.51781   4.52429   4.52721   4.53389   4.53771
 Alpha virt. eigenvalues --    4.54393   4.54838   4.55131   4.55891   4.56425
 Alpha virt. eigenvalues --    4.56706   4.56954   4.58019   4.58308   4.58760
 Alpha virt. eigenvalues --    4.58975   4.60211   4.60566   4.61705   4.62597
 Alpha virt. eigenvalues --    4.63861   4.64429   4.65043   4.66016   4.66467
 Alpha virt. eigenvalues --    4.66940   4.67531   4.67759   4.68457   4.69331
 Alpha virt. eigenvalues --    4.69716   4.70445   4.70822   4.71587   4.72191
 Alpha virt. eigenvalues --    4.73232   4.73833   4.74193   4.75816   4.76117
 Alpha virt. eigenvalues --    4.78245   4.78669   4.79468   4.81082   4.81786
 Alpha virt. eigenvalues --    4.82095   4.82843   4.84054   4.84455   4.84643
 Alpha virt. eigenvalues --    4.85005   4.85664   4.86083   4.86667   4.87174
 Alpha virt. eigenvalues --    4.87709   4.88499   4.88960   4.90522   4.90856
 Alpha virt. eigenvalues --    4.91301   4.92168   4.92380   4.92704   4.93664
 Alpha virt. eigenvalues --    4.94648   4.96106   4.96447   4.97062   4.97403
 Alpha virt. eigenvalues --    4.98018   4.98785   4.99556   4.99817   5.00847
 Alpha virt. eigenvalues --    5.01879   5.02465   5.04556   5.05050   5.05804
 Alpha virt. eigenvalues --    5.06558   5.06947   5.07792   5.09119   5.10051
 Alpha virt. eigenvalues --    5.11926   5.12723   5.12945   5.14455   5.15059
 Alpha virt. eigenvalues --    5.16537   5.16701   5.17268   5.18178   5.19666
 Alpha virt. eigenvalues --    5.20425   5.20625   5.21126   5.21490   5.22754
 Alpha virt. eigenvalues --    5.23084   5.23229   5.24339   5.24384   5.25099
 Alpha virt. eigenvalues --    5.26498   5.28207   5.29038   5.30208   5.30388
 Alpha virt. eigenvalues --    5.31053   5.31573   5.32992   5.34258   5.36487
 Alpha virt. eigenvalues --    5.36819   5.37677   5.38727   5.39775   5.40305
 Alpha virt. eigenvalues --    5.41363   5.41681   5.42078   5.43422   5.44115
 Alpha virt. eigenvalues --    5.44597   5.45694   5.46190   5.47146   5.47656
 Alpha virt. eigenvalues --    5.49498   5.50506   5.53085   5.54880   5.55620
 Alpha virt. eigenvalues --    5.56075   5.57645   5.58702   5.59180   5.59708
 Alpha virt. eigenvalues --    5.60958   5.61255   5.61522   5.62909   5.64352
 Alpha virt. eigenvalues --    5.66315   5.68070   5.68795   5.69788   5.71411
 Alpha virt. eigenvalues --    5.74347   5.74935   5.77057   5.77451   5.80429
 Alpha virt. eigenvalues --    5.83395   5.85385   5.86957   5.91219   5.92738
 Alpha virt. eigenvalues --    5.94937   5.96096   5.96699   5.98291   5.99125
 Alpha virt. eigenvalues --    6.01526   6.02167   6.03260   6.03783   6.04238
 Alpha virt. eigenvalues --    6.06443   6.08671   6.09381   6.10194   6.13737
 Alpha virt. eigenvalues --    6.14504   6.16712   6.17770   6.21729   6.23012
 Alpha virt. eigenvalues --    6.24029   6.31871   6.32323   6.32917   6.34696
 Alpha virt. eigenvalues --    6.36482   6.39246   6.41099   6.44461   6.45348
 Alpha virt. eigenvalues --    6.46359   6.51423   6.52748   6.64654   6.74284
 Alpha virt. eigenvalues --    6.74406   6.76049   6.84070   6.86791   6.93291
 Alpha virt. eigenvalues --    6.93347   6.94918   7.05544   7.12654   7.12859
 Alpha virt. eigenvalues --    7.17465   7.18495   7.25210   7.30719   9.25609
 Alpha virt. eigenvalues --    9.51337   9.66296  20.16888  22.37075  22.39188
 Alpha virt. eigenvalues --   22.39976  22.42371  22.43744  22.49180  22.50507
 Alpha virt. eigenvalues --   22.51566  22.52502  22.56776  22.57584  22.57891
 Alpha virt. eigenvalues --   22.58975  22.61515  22.67122  22.68384  22.69110
 Alpha virt. eigenvalues --   22.87324  22.88957  22.91406  22.94676  22.98162
 Alpha virt. eigenvalues --   23.00091  23.03021  23.08356  23.11776  23.23324
 Alpha virt. eigenvalues --   23.27750  23.30110  23.32046  23.35609  23.42204
 Alpha virt. eigenvalues --   23.43907  23.45839  23.52336  23.56073  23.57959
 Alpha virt. eigenvalues --   23.63612  23.68280  23.71890  23.80106  32.44246
 Alpha virt. eigenvalues --   32.79737  33.02379  33.10163  33.11152  33.13147
 Alpha virt. eigenvalues --   43.92995  43.95190  43.98235  43.98301
  Beta  occ. eigenvalues -- -256.31290 -89.02030 -30.05805 -25.90048 -25.88203
  Beta  occ. eigenvalues --  -25.87932 -19.27799 -19.26359 -19.18888 -19.17136
  Beta  occ. eigenvalues --  -14.45661 -14.40601 -14.36480 -14.35953 -14.35836
  Beta  occ. eigenvalues --  -14.35665 -10.35861 -10.35175 -10.28725 -10.26457
  Beta  occ. eigenvalues --  -10.24861 -10.24774 -10.24768 -10.24727 -10.24626
  Beta  occ. eigenvalues --  -10.24441 -10.24095 -10.24064 -10.24013 -10.23808
  Beta  occ. eigenvalues --  -10.23793 -10.23506 -10.23486 -10.23471 -10.23317
  Beta  occ. eigenvalues --  -10.23037 -10.22798 -10.22654 -10.22378 -10.22313
  Beta  occ. eigenvalues --  -10.22164 -10.22147 -10.22049 -10.22029 -10.21973
  Beta  occ. eigenvalues --  -10.21933 -10.21910 -10.21868 -10.21835 -10.21665
  Beta  occ. eigenvalues --  -10.21556 -10.21443 -10.21346 -10.21215 -10.21096
  Beta  occ. eigenvalues --  -10.20839 -10.19630  -7.99795  -5.93458  -5.93155
  Beta  occ. eigenvalues --   -5.92637  -3.38341  -2.17415  -2.11727  -2.11154
  Beta  occ. eigenvalues --   -1.17541  -1.17259  -1.06485  -1.03541  -1.02718
  Beta  occ. eigenvalues --   -0.97767  -0.96884  -0.96681  -0.95766  -0.91588
  Beta  occ. eigenvalues --   -0.83971  -0.83406  -0.82976  -0.82867  -0.81859
  Beta  occ. eigenvalues --   -0.81129  -0.80931  -0.80705  -0.80399  -0.78829
  Beta  occ. eigenvalues --   -0.78307  -0.76351  -0.75927  -0.75606  -0.75412
  Beta  occ. eigenvalues --   -0.73560  -0.72638  -0.72257  -0.71461  -0.70673
  Beta  occ. eigenvalues --   -0.69868  -0.69622  -0.68844  -0.67235  -0.66626
  Beta  occ. eigenvalues --   -0.66106  -0.65606  -0.65321  -0.64960  -0.62830
  Beta  occ. eigenvalues --   -0.61374  -0.60763  -0.59788  -0.58770  -0.58497
  Beta  occ. eigenvalues --   -0.56939  -0.56036  -0.54634  -0.54514  -0.53674
  Beta  occ. eigenvalues --   -0.52870  -0.52104  -0.51904  -0.51552  -0.51266
  Beta  occ. eigenvalues --   -0.50780  -0.50551  -0.49880  -0.48628  -0.48592
  Beta  occ. eigenvalues --   -0.48402  -0.48279  -0.48020  -0.47516  -0.46819
  Beta  occ. eigenvalues --   -0.46163  -0.45633  -0.45508  -0.45195  -0.45116
  Beta  occ. eigenvalues --   -0.44892  -0.44436  -0.44138  -0.44081  -0.43790
  Beta  occ. eigenvalues --   -0.43681  -0.43543  -0.43304  -0.43253  -0.43131
  Beta  occ. eigenvalues --   -0.42924  -0.42618  -0.42572  -0.42347  -0.42191
  Beta  occ. eigenvalues --   -0.41644  -0.41265  -0.41082  -0.40980  -0.40790
  Beta  occ. eigenvalues --   -0.40590  -0.40418  -0.40314  -0.40128  -0.39819
  Beta  occ. eigenvalues --   -0.39692  -0.39563  -0.38739  -0.38358  -0.38242
  Beta  occ. eigenvalues --   -0.38089  -0.37910  -0.37886  -0.37384  -0.36905
  Beta  occ. eigenvalues --   -0.36764  -0.36580  -0.36276  -0.35627  -0.35318
  Beta  occ. eigenvalues --   -0.35113  -0.35006  -0.34807  -0.34088  -0.33817
  Beta  occ. eigenvalues --   -0.33671  -0.33526  -0.32728  -0.32450  -0.32175
  Beta  occ. eigenvalues --   -0.31885  -0.29640  -0.28943  -0.28655  -0.28338
  Beta  occ. eigenvalues --   -0.28128  -0.27935  -0.26996  -0.25645  -0.25088
  Beta  occ. eigenvalues --   -0.23992  -0.23642  -0.23193  -0.22919  -0.19323
  Beta  occ. eigenvalues --   -0.18991  -0.17451  -0.17179
  Beta virt. eigenvalues --   -0.07984  -0.07691  -0.05789  -0.04626  -0.02298
  Beta virt. eigenvalues --   -0.00504   0.00123   0.00792   0.01092   0.01342
  Beta virt. eigenvalues --    0.01776   0.02435   0.03225   0.03675   0.03738
  Beta virt. eigenvalues --    0.04104   0.04906   0.05003   0.05354   0.05635
  Beta virt. eigenvalues --    0.05840   0.05990   0.06348   0.06672   0.07043
  Beta virt. eigenvalues --    0.07320   0.07564   0.07875   0.07988   0.08185
  Beta virt. eigenvalues --    0.08484   0.08610   0.08793   0.09101   0.09390
  Beta virt. eigenvalues --    0.09565   0.09924   0.10064   0.10244   0.10579
  Beta virt. eigenvalues --    0.10889   0.11121   0.11326   0.11467   0.11770
  Beta virt. eigenvalues --    0.12004   0.12174   0.12456   0.12554   0.12947
  Beta virt. eigenvalues --    0.13156   0.13186   0.13637   0.13846   0.13881
  Beta virt. eigenvalues --    0.14053   0.14260   0.14388   0.14530   0.14805
  Beta virt. eigenvalues --    0.14927   0.15011   0.15156   0.15228   0.15381
  Beta virt. eigenvalues --    0.15524   0.15676   0.15836   0.16079   0.16453
  Beta virt. eigenvalues --    0.16766   0.16873   0.17020   0.17182   0.17535
  Beta virt. eigenvalues --    0.17646   0.17946   0.18105   0.18271   0.18491
  Beta virt. eigenvalues --    0.18576   0.18929   0.19195   0.19257   0.19783
  Beta virt. eigenvalues --    0.19860   0.19931   0.20214   0.20503   0.20796
  Beta virt. eigenvalues --    0.21013   0.21053   0.21404   0.21502   0.21648
  Beta virt. eigenvalues --    0.22045   0.22526   0.22594   0.22687   0.23027
  Beta virt. eigenvalues --    0.23123   0.23551   0.23753   0.23944   0.24156
  Beta virt. eigenvalues --    0.24330   0.24489   0.24817   0.24880   0.25237
  Beta virt. eigenvalues --    0.25274   0.25366   0.25767   0.25943   0.26175
  Beta virt. eigenvalues --    0.26263   0.26552   0.26809   0.26939   0.27075
  Beta virt. eigenvalues --    0.27518   0.27845   0.27950   0.28092   0.28378
  Beta virt. eigenvalues --    0.28471   0.28670   0.28697   0.29162   0.29257
  Beta virt. eigenvalues --    0.29354   0.29781   0.29938   0.30119   0.30378
  Beta virt. eigenvalues --    0.30518   0.30690   0.30917   0.31124   0.31392
  Beta virt. eigenvalues --    0.31507   0.31703   0.32006   0.32328   0.32393
  Beta virt. eigenvalues --    0.32967   0.33124   0.33311   0.33603   0.33921
  Beta virt. eigenvalues --    0.33948   0.34226   0.34535   0.34617   0.34793
  Beta virt. eigenvalues --    0.35015   0.35163   0.35411   0.35501   0.35742
  Beta virt. eigenvalues --    0.36009   0.36317   0.36476   0.36645   0.36886
  Beta virt. eigenvalues --    0.37266   0.37270   0.37552   0.37753   0.37929
  Beta virt. eigenvalues --    0.38193   0.38467   0.38594   0.38908   0.39197
  Beta virt. eigenvalues --    0.39206   0.39353   0.39477   0.39827   0.40000
  Beta virt. eigenvalues --    0.40229   0.40381   0.40495   0.40761   0.40892
  Beta virt. eigenvalues --    0.41035   0.41267   0.41407   0.41630   0.41826
  Beta virt. eigenvalues --    0.42043   0.42111   0.42332   0.42483   0.42641
  Beta virt. eigenvalues --    0.42886   0.43068   0.43209   0.43376   0.43538
  Beta virt. eigenvalues --    0.43700   0.43728   0.44181   0.44268   0.44397
  Beta virt. eigenvalues --    0.44488   0.44669   0.44894   0.44978   0.45060
  Beta virt. eigenvalues --    0.45508   0.45657   0.45698   0.45914   0.46085
  Beta virt. eigenvalues --    0.46158   0.46374   0.46514   0.46534   0.46744
  Beta virt. eigenvalues --    0.46798   0.47127   0.47342   0.47413   0.47469
  Beta virt. eigenvalues --    0.47658   0.47823   0.47906   0.48025   0.48290
  Beta virt. eigenvalues --    0.48315   0.48578   0.48666   0.48842   0.49214
  Beta virt. eigenvalues --    0.49300   0.49399   0.49538   0.49677   0.49878
  Beta virt. eigenvalues --    0.50118   0.50218   0.50548   0.50595   0.50744
  Beta virt. eigenvalues --    0.50870   0.51079   0.51209   0.51400   0.51486
  Beta virt. eigenvalues --    0.51812   0.51939   0.51982   0.52403   0.52493
  Beta virt. eigenvalues --    0.52854   0.53041   0.53340   0.53452   0.53661
  Beta virt. eigenvalues --    0.53745   0.53913   0.54129   0.54506   0.54597
  Beta virt. eigenvalues --    0.54906   0.55081   0.55208   0.55503   0.55668
  Beta virt. eigenvalues --    0.55790   0.56004   0.56064   0.56161   0.56656
  Beta virt. eigenvalues --    0.56770   0.56953   0.57146   0.57397   0.57671
  Beta virt. eigenvalues --    0.58028   0.58226   0.58434   0.58748   0.58990
  Beta virt. eigenvalues --    0.59065   0.59477   0.59729   0.60018   0.60070
  Beta virt. eigenvalues --    0.60393   0.60687   0.60829   0.61169   0.61492
  Beta virt. eigenvalues --    0.61566   0.61793   0.61962   0.62344   0.62492
  Beta virt. eigenvalues --    0.62797   0.63025   0.63117   0.63418   0.63898
  Beta virt. eigenvalues --    0.64024   0.64294   0.64773   0.64803   0.65124
  Beta virt. eigenvalues --    0.65348   0.65598   0.65780   0.65934   0.66086
  Beta virt. eigenvalues --    0.66424   0.66837   0.66998   0.67393   0.67811
  Beta virt. eigenvalues --    0.67903   0.68091   0.68228   0.68617   0.69006
  Beta virt. eigenvalues --    0.69101   0.69376   0.69902   0.70082   0.70287
  Beta virt. eigenvalues --    0.70465   0.70805   0.71038   0.71081   0.71462
  Beta virt. eigenvalues --    0.71717   0.71906   0.72429   0.72486   0.72706
  Beta virt. eigenvalues --    0.73084   0.73375   0.73535   0.74195   0.74360
  Beta virt. eigenvalues --    0.74543   0.74886   0.75149   0.75231   0.75547
  Beta virt. eigenvalues --    0.76145   0.76311   0.76458   0.76621   0.77384
  Beta virt. eigenvalues --    0.77449   0.77657   0.78141   0.78256   0.78434
  Beta virt. eigenvalues --    0.78720   0.79155   0.79213   0.79264   0.79924
  Beta virt. eigenvalues --    0.79984   0.80575   0.80852   0.81255   0.81624
  Beta virt. eigenvalues --    0.82018   0.82353   0.82456   0.83137   0.83420
  Beta virt. eigenvalues --    0.83574   0.83829   0.84101   0.84169   0.84597
  Beta virt. eigenvalues --    0.85153   0.85338   0.85714   0.85920   0.86181
  Beta virt. eigenvalues --    0.86612   0.86952   0.87308   0.87542   0.87589
  Beta virt. eigenvalues --    0.87967   0.88118   0.88303   0.88611   0.88956
  Beta virt. eigenvalues --    0.89206   0.89634   0.90132   0.90403   0.90872
[...]
  1686. RY*(   4) H  72                  0.00003     2.16424   
  1687. RY*(   5) H  72                  0.00000     2.95438   
  1688. RY*(   1) H  73                  0.00063     0.65379   
  1689. RY*(   2) H  73                  0.00008     2.72413   
  1690. RY*(   3) H  73                  0.00007     2.24676   
  1691. RY*(   4) H  73                  0.00005     2.43589   
  1692. RY*(   5) H  73                  0.00000     2.98225   
  1693. RY*(   1) H  74                  0.00071     0.59096   
  1694. RY*(   2) H  74                  0.00011     2.24816   
  1695. RY*(   3) H  74                  0.00007     2.69404   
  1696. RY*(   4) H  74                  0.00006     2.40753   
  1697. RY*(   5) H  74                  0.00001     3.18465   
  1698. RY*(   1) H  75                  0.00034     1.38767   
  1699. RY*(   2) H  75                  0.00007     1.51214   
  1700. RY*(   3) H  75                  0.00007     2.38045   
  1701. RY*(   4) H  75                  0.00003     2.44414   
  1702. RY*(   5) H  75                  0.00001     3.09959   
  1703. RY*(   1) H  76                  0.00036     1.27069   
  1704. RY*(   2) H  76                  0.00007     1.98344   
  1705. RY*(   3) H  76                  0.00005     2.21820   
  1706. RY*(   4) H  76                  0.00003     2.40948   
  1707. RY*(   5) H  76                  0.00001     3.05642   
  1708. RY*(   1) H  77                  0.00037     0.96616   
  1709. RY*(   2) H  77                  0.00009     1.76780   
  1710. RY*(   3) H  77                  0.00003     2.03877   
  1711. RY*(   4) H  77                  0.00003     2.17492   
  1712. RY*(   5) H  77                  0.00001     2.98874   
  1713. RY*(   1) H  78                  0.00033     1.07504   
  1714. RY*(   2) H  78                  0.00007     1.77208   
  1715. RY*(   3) H  78                  0.00002     1.97212   
  1716. RY*(   4) H  78                  0.00003     2.11460   
  1717. RY*(   5) H  78                  0.00000     3.01931   
  1718. RY*(   1) H  79                  0.00039     1.03793   
  1719. RY*(   2) H  79                  0.00009     1.76368   
  1720. RY*(   3) H  79                  0.00003     2.08017   
  1721. RY*(   4) H  79                  0.00003     2.10702   
  1722. RY*(   5) H  79                  0.00000     2.94001   
  1723. RY*(   1) H  80                  0.00048     1.56783   
  1724. RY*(   2) H  80                  0.00009     1.82967   
  1725. RY*(   3) H  80                  0.00002     2.13075   
  1726. RY*(   4) H  80                  0.00003     2.25098   
  1727. RY*(   5) H  80                  0.00001     3.05703   
  1728. RY*(   1) H  81                  0.00017     1.41448   
  1729. RY*(   2) H  81                  0.00005     1.75554   
  1730. RY*(   3) H  81                  0.00004     1.88618   
  1731. RY*(   4) H  81                  0.00001     2.34937   
  1732. RY*(   5) H  81                  0.00001     2.35337   
  1733. RY*(   1) H  82                  0.00033     1.01382   
  1734. RY*(   2) H  82                  0.00006     1.71002   
  1735. RY*(   3) H  82                  0.00002     2.05429   
  1736. RY*(   4) H  82                  0.00002     2.04454   
  1737. RY*(   5) H  82                  0.00000     2.84714   
  1738. RY*(   1) H  83                  0.00040     1.07184   
  1739. RY*(   2) H  83                  0.00005     1.74004   
  1740. RY*(   3) H  83                  0.00003     1.97365   
  1741. RY*(   4) H  83                  0.00004     2.13480   
  1742. RY*(   5) H  83                  0.00000     2.95480   
  1743. RY*(   1) H  84                  0.00032     0.97477   
  1744. RY*(   2) H  84                  0.00009     1.81845   
  1745. RY*(   3) H  84                  0.00003     2.15714   
  1746. RY*(   4) H  84                  0.00003     2.02988   
  1747. RY*(   5) H  84                  0.00000     2.96328   
  1748. RY*(   1) H  85                  0.00035     1.04541   
  1749. RY*(   2) H  85                  0.00007     1.79701   
  1750. RY*(   3) H  85                  0.00003     2.01867   
  1751. RY*(   4) H  85                  0.00003     2.10477   
  1752. RY*(   5) H  85                  0.00000     3.03322   
  1753. RY*(   1) H  86                  0.00041     1.01404   
  1754. RY*(   2) H  86                  0.00009     1.75250   
  1755. RY*(   3) H  86                  0.00003     2.09971   
  1756. RY*(   4) H  86                  0.00003     2.09709   
  1757. RY*(   5) H  86                  0.00000     2.95934   
  1758. RY*(   1) H  87                  0.00051     1.21730   
  1759. RY*(   2) H  87                  0.00008     1.97109   
  1760. RY*(   3) H  87                  0.00005     2.32158   
  1761. RY*(   4) H  87                  0.00002     2.20333   
  1762. RY*(   5) H  87                  0.00001     2.98707   
  1763. RY*(   1) H  88                  0.00016     1.37176   
  1764. RY*(   2) H  88                  0.00006     1.61900   
  1765. RY*(   3) H  88                  0.00003     2.09496   
  1766. RY*(   4) H  88                  0.00002     1.83260   
  1767. RY*(   5) H  88                  0.00000     2.83022   
  1768. RY*(   1) H  89                  0.00038     1.01635   
  1769. RY*(   2) H  89                  0.00006     1.71047   
  1770. RY*(   3) H  89                  0.00003     2.06845   
  1771. RY*(   4) H  89                  0.00002     2.01499   
  1772. RY*(   5) H  89                  0.00000     2.85946   
  1773. RY*(   1) H  90                  0.00044     0.96632   
  1774. RY*(   2) H  90                  0.00005     2.17137   
  1775. RY*(   3) H  90                  0.00004     1.66080   
  1776. RY*(   4) H  90                  0.00003     2.05447   
  1777. RY*(   5) H  90                  0.00000     2.94566   
  1778. RY*(   1) H  91                  0.00030     1.03689   
  1779. RY*(   2) H  91                  0.00010     1.92240   
  1780. RY*(   3) H  91                  0.00003     2.16781   
  1781. RY*(   4) H  91                  0.00002     2.42920   
  1782. RY*(   5) H  91                  0.00001     2.43563   
  1783. RY*(   1) H  92                  0.00040     0.97590   
  1784. RY*(   2) H  92                  0.00009     1.93577   
  1785. RY*(   3) H  92                  0.00004     1.98302   
  1786. RY*(   4) H  92                  0.00003     2.19234   
  1787. RY*(   5) H  92                  0.00000     2.98439   
  1788. RY*(   1) H  93                  0.00051     0.98086   
  1789. RY*(   2) H  93                  0.00008     1.68920   
  1790. RY*(   3) H  93                  0.00004     2.15125   
  1791. RY*(   4) H  93                  0.00002     2.13902   
  1792. RY*(   5) H  93                  0.00001     2.90807   
  1793. RY*(   1) H  94                  0.00045     1.49620   
  1794. RY*(   2) H  94                  0.00008     1.77847   
  1795. RY*(   3) H  94                  0.00008     2.70606   
  1796. RY*(   4) H  94                  0.00005     2.29464   
  1797. RY*(   5) H  94                  0.00000     2.91324   
  1798. RY*(   1) H  95                  0.00063     1.45076   
  1799. RY*(   2) H  95                  0.00009     2.68303   
  1800. RY*(   3) H  95                  0.00008     2.27392   
  1801. RY*(   4) H  95                  0.00004     1.49705   
  1802. RY*(   5) H  95                  0.00001     3.13979   
  1803. RY*(   1) H  96                  0.00038     1.47327   
  1804. RY*(   2) H  96                  0.00008     1.89011   
  1805. RY*(   3) H  96                  0.00004     2.37203   
  1806. RY*(   4) H  96                  0.00005     2.37974   
  1807. RY*(   5) H  96                  0.00001     3.01174   
  1808. RY*(   1) H  97                  0.00029     1.09624   
  1809. RY*(   2) H  97                  0.00008     1.96317   
  1810. RY*(   3) H  97                  0.00005     2.08828   
  1811. RY*(   4) H  97                  0.00003     2.53234   
  1812. RY*(   5) H  97                  0.00000     2.87690   
  1823. RY*(   1) H 100                  0.00048     1.22627   
  1824. RY*(   2) H 100                  0.00036     1.50810   
  1825. RY*(   3) H 100                  0.00022     2.05023   
  1826. RY*(   4) H 100                  0.00013     2.15801   
  1827. RY*(   5) H 100                  0.00001     3.22470   
  1828. RY*(   1) H 101                  0.00041     1.48073   
  1829. RY*(   2) H 101                  0.00029     2.06209   
  1830. RY*(   3) H 101                  0.00014     2.23622   
  1831. RY*(   4) H 101                  0.00011     1.48775   
  1832. RY*(   5) H 101                  0.00000     3.21628   
  1859. BD*(   1) C  24 - C  29          0.01024     0.54482   
  1860. BD*(   2) C  24 - C  29          0.22616     0.03831  1879(v),207(v),561(g)
                                                    1864(r),693(g)
  1861. BD*(   1) C  24 - C  59          0.01042     0.55393   
  1862. BD*(   1) C  24 - H  66          0.00584     0.44377   
  1863. BD*(   1) C  25 - C  32          0.00973     0.53487   
  1864. BD*(   2) C  25 - C  32          0.20125     0.03995  1897(v),1879(v),587(g)
                                                    1860(r),1868(r)
  1865. BD*(   1) C  25 - C  40          0.00973     0.53147   
  1866. BD*(   1) C  25 - H  67          0.00516     0.44150   
  1867. BD*(   1) C  26 - C  43          0.01044     0.56130   
  1868. BD*(   2) C  26 - C  43          0.21355     0.04298  1914(v),1897(v),1901(v)
                                                    613(g),1864(r)
  1869. BD*(   1) C  26 - C  48          0.01065     0.58981   
  1870. BD*(   1) C  26 - H  68          0.00631     0.44746   
  1871. BD*(   1) C  27 - C  51          0.01034     0.58000   
  1872. BD*(   2) C  27 - C  51          0.21069     0.04921  1931(v),1914(v),1918(v)
                                                    639(g),1265(g),1853(r)
  1873. BD*(   1) C  27 - C  56          0.01074     0.57465   
  1874. BD*(   1) C  27 - H  69          0.00627     0.44295   
  1875. BD*(   1) N  28 - C  29          0.01272     0.49821   
  1876. BD*(   1) N  28 - C  32          0.01209     0.51537   
  1877. BD*(   1) C  29 - C  30          0.01679     0.49475   
  1878. BD*(   1) C  30 - C  31          0.00958     0.57711   
  1879. BD*(   2) C  30 - C  31          0.12784     0.06419  1864(v),1860(v),1883(v)
                                                    1886(v),1887(v),1885(v)
  1880. BD*(   1) C  30 - C  34          0.01128     0.39636   
  1881. BD*(   1) C  31 - C  32          0.01714     0.48956   
  1882. BD*(   1) C  31 - C  33          0.00831     0.39401   
  1883. BD*(   1) C  33 - H  70          0.00519     0.38573   
  1884. BD*(   1) C  33 - H  71          0.00278     0.39623   
  1885. BD*(   1) C  33 - H  72          0.00418     0.39218   
  1886. BD*(   1) C  34 - C  35          0.00755     0.34422   
  1887. BD*(   1) C  34 - H  73          0.00861     0.38552   
  1888. BD*(   1) C  34 - H  74          0.00626     0.38930   
  1889. BD*(   1) C  35 - C  36          0.03802     0.33658   
  1890. BD*(   1) C  35 - H  75          0.00547     0.38148   
  1891. BD*(   1) C  35 - H  76          0.00660     0.36480   
  1892. BD*(   1) C  36 - O  37          0.03623     0.48493   
  1893. BD*(   1) C  36 - O  38          0.02048     0.54569   
  1894. BD*(   2) C  36 - O  38          0.08690    -0.00356   
  1895. BD*(   1) O  37 - H 100          0.00679     0.36421   
  1896. BD*(   1) N  39 - C  40          0.01258     0.51897   
  1897. BD*(   2) N  39 - C  40          0.31494     0.01212  1864(v),1868(v),1901(v)
                                                    978(g),951(g),587(v),191(r)
                                                    980(g),1855(r),192(r),190(r)
  1898. BD*(   1) N  39 - C  43          0.01319     0.50857   
  1899. BD*(   1) C  40 - C  41          0.01693     0.49767   
  1900. BD*(   1) C  41 - C  42          0.01150     0.57878   
  1901. BD*(   2) C  41 - C  42          0.13955     0.06615  1868(v),1897(v),203(v)
                                                    1905(v),1907(v),1908(v)
  1902. BD*(   1) C  41 - C  44          0.00824     0.41026   
  1903. BD*(   1) C  42 - C  43          0.01599     0.50592   
  1904. BD*(   1) C  42 - C  45          0.01111     0.40576   
  1905. BD*(   1) C  44 - H  77          0.00472     0.38733   
  1906. BD*(   1) C  44 - H  78          0.00250     0.40626   
  1907. BD*(   1) C  44 - H  79          0.00437     0.39000   
  1908. BD*(   1) C  45 - C  46          0.00187     0.37870   
  1909. BD*(   1) C  45 - H  80          0.00534     0.42772   
  1910. BD*(   1) C  46 - H  81          0.00165     0.39279   
  1911. BD*(   1) C  46 - H  82          0.00434     0.39256   
  1912. BD*(   1) C  46 - H  83          0.00465     0.40045   
  1913. BD*(   1) N  47 - C  48          0.01286     0.54396   
  1914. BD*(   2) N  47 - C  48          0.31093     0.02045  1868(v),1872(v),1918(v)
                                                    1159(g),1186(g),613(v)
                                                    1187(g),1188(g),191(r)
                                                    1855(r),192(r),190(r)
                                                    1843(r)
  1915. BD*(   1) N  47 - C  51          0.01355     0.52479   
  1916. BD*(   1) C  48 - C  49          0.01840     0.50925   
  1917. BD*(   1) C  49 - C  50          0.01172     0.58627   
  1918. BD*(   2) C  49 - C  50          0.12716     0.07173  1872(v),1914(v),205(v)
                                                    1924(v),1922(v),1925(v)
                                                    1917(g)
  1919. BD*(   1) C  49 - C  52          0.00847     0.40673   
  1920. BD*(   1) C  50 - C  51          0.01675     0.50115   
  1921. BD*(   1) C  50 - C  53          0.01072     0.41778   
  1922. BD*(   1) C  52 - H  84          0.00396     0.38548   
  1923. BD*(   1) C  52 - H  85          0.00282     0.40346   
  1924. BD*(   1) C  52 - H  86          0.00471     0.38707   
  1925. BD*(   1) C  53 - C  54          0.00241     0.37565   
  1926. BD*(   1) C  53 - H  87          0.00614     0.42535   
  1927. BD*(   1) C  54 - H  88          0.00147     0.39163   
  1928. BD*(   1) C  54 - H  89          0.00453     0.39029   
  1929. BD*(   1) C  54 - H  90          0.00480     0.39312   
  1930. BD*(   1) N  55 - C  56          0.01245     0.52841   
  1931. BD*(   2) N  55 - C  56          0.30358     0.01854  1872(v),1935(v),207(v)
                                                    1395(g),1367(g),639(v)
                                                    1396(g),1854(r),191(r)
                                                    192(r),1855(r),1843(r)
  1932. BD*(   1) N  55 - C  59          0.01204     0.51688   
  1933. BD*(   1) C  56 - C  57          0.01774     0.50328   
  1934. BD*(   1) C  57 - C  58          0.01018     0.58842   
  1935. BD*(   2) C  57 - C  58          0.12610     0.06460  1931(v),207(v),1941(v)
                                                    1942(v),1943(v)
  1936. BD*(   1) C  57 - C  60          0.00862     0.39585   
  1937. BD*(   1) C  58 - C  59          0.01773     0.48561   
  1938. BD*(   1) C  58 - C  61          0.01184     0.39134   
  1939. BD*(   1) C  60 - H  91          0.00378     0.38649   
  1940. BD*(   1) C  60 - H  92          0.00361     0.39271   
  1941. BD*(   1) C  60 - H  93          0.00581     0.38264   
  1942. BD*(   1) C  61 - C  62          0.00985     0.34540   
  1943. BD*(   1) C  61 - H  94          0.00900     0.37713   
  1944. BD*(   1) C  61 - H  95          0.00805     0.37011   
  1945. BD*(   1) C  62 - C  63          0.03877     0.33235   
  1946. BD*(   1) C  62 - H  96          0.00498     0.38450   
  1947. BD*(   1) C  62 - H  97          0.00528     0.35915   
  1948. BD*(   1) C  63 - O  64          0.03721     0.48490   
  1949. BD*(   1) C  63 - O  65          0.01195     0.56004   
  1950. BD*(   2) C  63 - O  65          0.11666     0.00704  1947(v),1577(g),1583(g)
  1951. BD*(   1) O  64 - H 101          0.00667     0.36747   
       -------------------------------
              Total Lewis  144.55344  ( 97.3939%)
        Valence non-Lewis    3.57467  (  2.4085%)
        Rydberg non-Lewis    0.29334  (  0.1976%)
       -------------------------------
            Total unit  3  148.42144  (100.0000%)
           Charge unit  3    0.57856
 1\1\GINC-NODE658\SP\UPBE1PBE\def2TZVP\C41H48Fe1N6O4S1(5)\ZHARTOVSKA\07
 -Feb-2023\0\\# PBE1PBE/def2TZVP empiricaldispersion=GD3BJ scf=maxcycle
 =999 geom=check pop=nbo\\1giw_II_Q\\0,5\C,0,5.285,0.862,3.984\C,0,4.79
 9,-0.427,3.422\N,0,5.026,-0.844,2.137\C,0,3.769,-1.16,3.94\C,0,4.151,-
 1.824,1.891\N,0,3.39,-2.086,2.957\H,0,4.65166542,1.15953457,4.79348162
 \H,0,5.26640282,1.61292395,3.22198467\H,0,5.601,-0.378,1.441\H,0,3.257
 ,-0.899,4.862\H,0,3.971,-2.247,0.924\C,0,0.724,-7.635,2.833\C,0,0.225,
 -6.409,3.595\S,0,0.198,-4.923,2.561\C,0,-1.469,-4.256,2.806\H,0,1.2691
 5186,-7.3197744,1.96793222\H,0,-0.11135027,-8.23128457,2.53045309\H,0,
 -0.778,-6.628,3.96\H,0,0.847,-6.198,4.461\H,0,-2.22,-5.016,2.575\H,0,-
 1.569,-3.923,3.84\H,0,-1.62,-3.414,2.132\Fe,0,1.858,-3.275,2.887\C,0,2
 .674,-4.473,-0.34\C,0,0.073,-0.716,1.547\C,0,1.07,-2.363,6.088\C,0,3.8
 9,-5.832,4.197\N,0,1.404,-2.725,0.936\C,0,1.865,-3.333,-0.213\C,0,1.40
 6,-2.533,-1.327\C,0,0.628,-1.512,-0.813\C,0,0.675,-1.609,0.635\C,0,-0.
 163,-0.519,-1.642\C,0,1.713,-2.768,-2.797\C,0,3.201,-2.881,-3.165\C,0,
 3.513,-2.344,-4.557\O,0,3.415,-3.144,-5.515\O,0,3.826,-1.139,-4.647\N,
 0,0.762,-1.819,3.679\C,0,0.126,-0.863,2.951\C,0,-0.472,0.047,3.902\C,0
 ,-0.266,-0.461,5.172\C,0,0.569,-1.622,5.019\C,0,-1.079,1.375,3.547\C,0
 ,-0.868,0.004,6.491\C,0,-2.395,-0.063,6.487\N,0,2.372,-3.978,4.79\C,0,
 1.935,-3.42,5.936\C,0,2.556,-4.102,7.04\C,0,3.459,-4.99,6.504\C,0,3.24
 1,-4.986,5.076\C,0,2.331,-3.784,8.496\C,0,4.659,-5.6,7.203\C,0,4.337,-
 6.8,8.094\N,0,3.058,-4.887,2.071\C,0,3.771,-5.771,2.818\C,0,4.435,-6.6
 85,1.923\C,0,4.106,-6.314,0.641\C,0,3.221,-5.166,0.743\C,0,5.364,-7.80
 6,2.326\C,0,4.622,-6.977,-0.621\C,0,3.517,-7.523,-1.531\C,0,3.354,-9.0
 44,-1.541\O,0,4.353,-9.799,-1.486\O,0,2.179,-9.441,-1.66\H,0,2.913,-4.
 826,-1.326\H,0,-0.471,0.128,1.159\H,0,0.852,-2.078,7.1\H,0,4.493,-6.61
 7,4.614\H,0,-0.97,-1.043,-2.157\H,0,-0.6,0.28,-1.045\H,0,0.488,-0.068,
 -2.388\H,0,1.22,-3.686,-3.104\H,0,1.297,-1.944,-3.374\H,0,3.77,-2.302,
 -2.445\H,0,3.532,-3.919,-3.16\H,0,-1.948,1.251,2.902\H,0,-1.368,1.901,
 4.448\H,0,-0.321,1.959,3.03\H,0,-0.578,-0.645,7.307\H,0,-2.703,-1.095,
 6.318\H,0,-2.781,0.282,7.445\H,0,-2.801,0.55,5.691\H,0,1.267,-3.871,8.
 716\H,0,2.883,-4.463,9.139\H,0,2.661,-2.765,8.696\H,0,5.351,-5.968,6.4
 56\H,0,3.958,-7.604,7.464\H,0,5.248,-7.136,8.588\H,0,3.593,-6.543,8.84
 5\H,0,5.044,-8.257,3.264\H,0,5.373,-8.586,1.575\H,0,6.372,-7.413,2.438
 \H,0,5.216,-6.254,-1.179\H,0,5.304,-7.788,-0.385\H,0,2.564,-7.102,-1.2
 12\H,0,3.703,-7.192,-2.552\H,0,1.36378352,-8.21284152,3.46677932\H,0,6
 .28645359,0.74056542,4.34071327\H,0,4.20625982,-3.49243655,-5.93225277
 \H,0,5.23768535,-9.42724948,-1.51308116\\Version=ES64L-G16RevA.03\Stat
 e=5-A\HF=-3880.5409036\S2=6.103263\S2-1=0.\S2A=6.003719\RMSD=1.576e-09
 \Dipole=2.1165145,0.7413538,-0.0191734\Quadrupole=19.1699449,-16.41120
 91,-2.7587358,-9.9641255,-19.364613,2.1673948\PG=C01 [X(C41H48Fe1N6O4S
 1)]\\@


 ALTHOUGH J.J. COULD DIAGNOSE THE FAULTS OF AN
 APPARATUS WITH UNCANNY ACCURACY, IT WAS JUST AS
 WELL NOT TO LET HIM HANDLE IT.
   -- GEORGE THOMPSON, ABOUT HIS FATHER
 Job cpu time:       6 days 23 hours 34 minutes 50.7 seconds.
 Elapsed time:       1 days 18 hours  2 minutes 11.1 seconds.
 File lengths (MBytes):  RWF=   3495 Int=      0 D2E=      0 Chk=    292 Scr=      1
 Normal termination of Gaussian 16 at Tue Feb  7 05:04:01 2023.
