 Entering Gaussian System, Link 0=g16
 Input=/net/homes/chemie/zhartovska/work/BioModel/Konrad/7abb/7abb05/7abb05.com
 Output=/net/homes/chemie/zhartovska/work/BioModel/Konrad/7abb/7abb05/7abb05.log
 Initial command:
 /afs/math/software/gaussian/g16.A03/g16/l1.exe "/scratch/zhartovska_gaussian.JDWKTxg/Gau-12551.inp" -scrdir="/scratch/zhartovska_gaussian.JDWKTxg/"
 Entering Link 1 = /afs/math/software/gaussian/g16.A03/g16/l1.exe PID=     12552.
  
 Copyright (c) 1988,1990,1992,1993,1995,1998,2003,2009,2016,
            Gaussian, Inc.  All Rights Reserved.
  
 This is part of the Gaussian(R) 16 program.  It is based on
 the Gaussian(R) 09 system (copyright 2009, Gaussian, Inc.),
 the Gaussian(R) 03 system (copyright 2003, Gaussian, Inc.),
 the Gaussian(R) 98 system (copyright 1998, Gaussian, Inc.),
 the Gaussian(R) 94 system (copyright 1995, Gaussian, Inc.),
 the Gaussian 92(TM) system (copyright 1992, Gaussian, Inc.),
 the Gaussian 90(TM) system (copyright 1990, Gaussian, Inc.),
 the Gaussian 88(TM) system (copyright 1988, Gaussian, Inc.),
 the Gaussian 86(TM) system (copyright 1986, Carnegie Mellon
 University), and the Gaussian 82(TM) system (copyright 1983,
 Carnegie Mellon University). Gaussian is a federally registered
 trademark of Gaussian, Inc.
  
 This software contains proprietary and confidential information,
 including trade secrets, belonging to Gaussian, Inc.
  
 This software is provided under written license and may be
 used, copied, transmitted, or stored only in accord with that
 written license.
  
 The following legend is applicable only to US Government
 contracts under FAR:
  
                    RESTRICTED RIGHTS LEGEND
  
 Use, reproduction and disclosure by the US Government is
 subject to restrictions as set forth in subparagraphs (a)
 and (c) of the Commercial Computer Software - Restricted
 Rights clause in FAR 52.227-19.
  
 Gaussian, Inc.
 340 Quinnipiac St., Bldg. 40, Wallingford CT 06492
  
  
 ---------------------------------------------------------------
 Warning -- This program may not be used in any manner that
 competes with the business of Gaussian, Inc. or will provide
 assistance to any competitor of Gaussian, Inc.  The licensee
 of this program is prohibited from giving any competitor of
 Gaussian, Inc. access to this program.  By using this program,
 the user acknowledges that Gaussian, Inc. is engaged in the
 business of creating and licensing software in the field of
 computational chemistry and represents and warrants to the
 licensee that it is not a competitor of Gaussian, Inc. and that
 it will not use this program in any manner prohibited above.
 ---------------------------------------------------------------
  

 Cite this work as:
 Gaussian 16, Revision A.03,
 M. J. Frisch, G. W. Trucks, H. B. Schlegel, G. E. Scuseria, 
 M. A. Robb, J. R. Cheeseman, G. Scalmani, V. Barone, 
 G. A. Petersson, H. Nakatsuji, X. Li, M. Caricato, A. V. Marenich, 
 J. Bloino, B. G. Janesko, R. Gomperts, B. Mennucci, H. P. Hratchian, 
 J. V. Ortiz, A. F. Izmaylov, J. L. Sonnenberg, D. Williams-Young, 
 F. Ding, F. Lipparini, F. Egidi, J. Goings, B. Peng, A. Petrone, 
 T. Henderson, D. Ranasinghe, V. G. Zakrzewski, J. Gao, N. Rega, 
 G. Zheng, W. Liang, M. Hada, M. Ehara, K. Toyota, R. Fukuda, 
 J. Hasegawa, M. Ishida, T. Nakajima, Y. Honda, O. Kitao, H. Nakai, 
 T. Vreven, K. Throssell, J. A. Montgomery, Jr., J. E. Peralta, 
 F. Ogliaro, M. J. Bearpark, J. J. Heyd, E. N. Brothers, K. N. Kudin, 
 V. N. Staroverov, T. A. Keith, R. Kobayashi, J. Normand, 
 K. Raghavachari, A. P. Rendell, J. C. Burant, S. S. Iyengar, 
 J. Tomasi, M. Cossi, J. M. Millam, M. Klene, C. Adamo, R. Cammi, 
 J. W. Ochterski, R. L. Martin, K. Morokuma, O. Farkas, 
 J. B. Foresman, and D. J. Fox, Gaussian, Inc., Wallingford CT, 2016.
 
 ******************************************
 Gaussian 16:  ES64L-G16RevA.03 25-Dec-2016
                 7-Feb-2023 
 ******************************************
 %nprocs=12
 Will use up to   12 processors via shared memory.
 %mem=16GB
 %oldchk=7abb_II_S.chk
 %chk=7abb_II_Q.chk
 Copying data from "7abb_II_S.chk" to current chk file "7abb_II_Q.chk"
 IOpt=  2 FromEx=T IUOpen= 4 IOptOp= 5 NList=   0 IFRang= 0 IUIn= 4 IUOut= 2.
 ----------------------------------------------------------------------
 # PBE1PBE/def2TZVP scf=maxcycle=999 empiricaldispersion=GD3BJ int=(gri
 d=ultrafine) geom=check pop=nbo
 ----------------------------------------------------------------------
 1/29=2,38=1,172=1/1;
 2/12=2,40=1/2;
 3/5=44,7=101,11=2,14=-4,25=1,30=1,74=-13,75=-5,124=41/1,2,3;
 4//1;
 5/5=2,7=999,38=5/2;
 6/7=2,8=2,9=2,10=2,28=1,40=1/1,7;
 99/5=1,9=1/99;
 ---------
 7abb_II_Q
 ---------
 Structure from the checkpoint file:  "7abb_II_Q.chk"
 Charge =  0 Multiplicity = 5
 Z-Matrix found in chk file.
 C,0,19.013,33.007,0.
 S,0,17.620001,31.940001,-0.421
 H,0,19.81865665,32.826975,-0.68074104
 H,0,19.33539461,32.79547389,0.99810742
 H,0,17.968,30.794001,-0.343
 Fe,0,17.671,31.629999,-2.674
 C,0,18.753,34.761002,-3.605
 C,0,20.927999,30.569,-2.703
 C,0,16.618999,28.513,-1.706
 C,0,14.422,32.592999,-3.008
 N,0,19.451,32.483002,-3.087
 C,0,19.714001,33.813999,-3.411
 C,0,21.136,34.058998,-3.537
 C,0,21.722,32.877998,-3.27
 C,0,20.698999,31.899,-2.995
 C,0,23.225,32.546001,-3.277
 C,0,21.834,35.426998,-3.866
 C,0,22.007999,35.691002,-5.356
 C,0,22.739,37.007,-5.561
 O,0,22.829,37.383999,-6.752
 O,0,23.191999,37.610001,-4.553
 N,0,18.580999,29.871,-2.336
 C,0,19.945,29.643999,-2.353
 C,0,20.162001,28.294001,-1.927
 C,0,18.973,27.739,-1.629
 C,0,17.962999,28.702,-1.902
 C,0,21.586,27.712,-1.824
 C,0,18.559999,26.368,-1.159
 C,0,19.643,25.496,-0.611
 N,0,15.858,30.73,-2.443
 C,0,15.657,29.462999,-1.945
 C,0,14.248,29.26,-1.738
 C,0,13.604,30.396,-2.089
 C,0,14.618,31.315001,-2.552
 C,0,13.652,27.966999,-1.178
 C,0,12.107,30.747,-2.11
 C,0,11.13,29.934999,-1.26
 N,0,16.783001,33.330002,-3.227
 C,0,15.399,33.494999,-3.284
 C,0,15.133,34.841999,-3.68
 C,0,16.438,35.529999,-3.875
 C,0,17.419001,34.518002,-3.549
 C,0,13.737,35.445,-3.881
 C,0,16.691999,36.984001,-4.309
 C,0,16.819,37.819,-3.058
 C,0,17.174,39.248001,-3.421
 O,0,17.040001,40.138,-2.554
 O,0,17.584999,39.463001,-4.579
 H,0,19.045,35.676998,-3.797
 H,0,21.854,30.25,-2.744
 H,0,16.323999,27.639,-1.373
 H,0,13.495,32.881001,-3.147
 H,0,23.496,32.238998,-2.387
 H,0,23.735001,33.348,-3.515
 H,0,23.4,31.841,-3.935
 H,0,22.709,35.435001,-3.447
 H,0,21.302999,36.144001,-3.486
 H,0,21.136,35.736,-5.78
 H,0,22.521999,34.971001,-5.754
 H,0,21.665001,26.945999,-2.414
 H,0,21.757,27.436001,-0.91
 H,0,22.231001,28.388,-2.083
 H,0,18.124001,25.908001,-1.88
 H,0,20.316999,25.351,-1.294
 H,0,19.267,24.643999,-0.341
 H,0,20.049,25.929001,0.157
 H,0,13.04,27.586,-1.827
 H,0,13.174,28.16,-0.357
 H,0,14.365,27.334999,-0.997
 H,0,12.001,31.677999,-1.904
 H,0,10.686,30.521999,-0.628
 H,0,11.615,29.247999,-0.777
 H,0,10.468,29.52,-1.835
 H,0,13.617,36.201,-3.27
 H,0,13.057,34.764,-3.696
 H,0,13.646,35.755001,-4.806
 H,0,15.948,37.303001,-4.843
 H,0,17.513,37.035999,-4.824
 H,0,17.514999,37.448002,-2.494
 H,0,15.976,37.808998,-2.578
 H,0,18.71095013,34.0312455,-0.06772759
 H,0,18.52811021,39.49572768,-4.75526745
 H,0,24.14041408,37.68633406,-4.42539868
 Recover connectivity data from disk.
 Stoichiometry    C35H38FeN4O4S(5)
 Framework group  C1[X(C35H38FeN4O4S)]
 Deg. of freedom   243
 Full point group                 C1      NOp   1
 Largest Abelian subgroup         C1      NOp   1
 Largest concise Abelian subgroup C1      NOp   1
                         Standard orientation:                         
 ---------------------------------------------------------------------
 Center     Atomic      Atomic             Coordinates (Angstroms)
 Number     Number       Type             X           Y           Z
 ---------------------------------------------------------------------
      1          6           0       -0.099815   -0.741131    2.868263
      2         16           0       -1.423706    0.139127    2.014664
      3          1           0        0.227513   -1.563284    2.266747
      4          1           0       -0.461893   -1.107320    3.806189
      5          1           0       -2.337969   -0.615733    1.828081
      6         26           0       -1.025414   -0.053066   -0.216733
      7          6           0        2.410616    0.119091   -0.148010
      8          6           0       -0.789278   -3.469434   -0.131450
      9          6           0       -4.449014   -0.247233   -0.242724
     10          6           0       -1.240077    3.314351   -0.674279
     11          7           0        0.489991   -1.382738   -0.170891
     12          6           0        1.859113   -1.126380   -0.096827
     13          6           0        2.623336   -2.351303    0.019404
     14          6           0        1.708493   -3.337365    0.033159
     15          6           0        0.393101   -2.757699   -0.086525
     16          6           0        1.955411   -4.854175    0.120335
     17          6           0        4.182832   -2.483606    0.151075
     18          6           0        4.912583   -2.563023   -1.183552
     19          6           0        6.401750   -2.744028   -0.943018
     20          8           0        7.114661   -2.699264   -1.971834
     21          8           0        6.806125   -2.922694    0.235728
     22          7           0       -2.357297   -1.556886   -0.248840
     23          6           0       -2.064224   -2.905433   -0.160252
     24          6           0       -3.307601   -3.611986   -0.083719
     25          6           0       -4.313175   -2.717926   -0.089260
     26          6           0       -3.742102   -1.422019   -0.217716
     27          6           0       -3.342756   -5.148948    0.032982
     28          6           0       -5.814049   -2.848802   -0.052365
     29          6           0       -6.358155   -4.174454    0.372104
     30          7           0       -2.541438    1.287127   -0.453129
     31          6           0       -3.882130    0.999743   -0.336288
     32          6           0       -4.627983    2.229525   -0.362337
     33          6           0       -3.749448    3.251206   -0.475380
     34          6           0       -2.435849    2.654854   -0.552528
     35          6           0       -6.151506    2.298646   -0.240820
     36          6           0       -3.969218    4.769311   -0.583589
     37          6           0       -5.287135    5.376666   -0.103393
     38          7           0        0.324537    1.405425   -0.403278
     39          6           0       -0.009197    2.748106   -0.581492
     40          6           0        1.205216    3.499242   -0.636041
     41          6           0        2.340441    2.549424   -0.482733
     42          6           0        1.700094    1.262464   -0.320043
     43          6           0        1.297534    5.017035   -0.837559
     44          6           0        3.847411    2.859317   -0.482445
     45          6           0        4.269936    3.073162    0.950767
     46          6           0        5.770336    3.280985    1.024580
     47          8           0        6.259614    3.752494    2.073402
     48          8           0        6.445156    2.967747    0.023276
     49          1           0        3.383677    0.193162   -0.053979
     50          1           0       -0.728005   -4.447712   -0.143132
     51          1           0       -5.426892   -0.300902   -0.191104
     52          1           0       -1.276876    4.279612   -0.843134
     53          1           0        1.521632   -5.210259    0.923349
     54          1           0        2.918963   -5.025581    0.166546
     55          1           0        1.584177   -5.291048   -0.674614
     56          1           0        4.382121   -3.285271    0.659865
     57          1           0        4.517774   -1.716114    0.640182
     58          1           0        4.762834   -1.744137   -1.682737
     59          1           0        4.574113   -3.316135   -1.692729
     60          1           0       -3.822312   -5.519223   -0.724659
     61          1           0       -3.791898   -5.400450    0.855071
     62          1           0       -2.436412   -5.493245    0.042080
     63          1           0       -6.168916   -2.628224   -0.916627
     64          1           0       -6.046350   -4.861525   -0.238223
     65          1           0       -7.327273   -4.145602    0.359478
     66          1           0       -6.051662   -4.376908    1.270560
     67          1           0       -6.520392    2.712902   -1.036572
     68          1           0       -6.390518    2.824176    0.537939
     69          1           0       -6.508827    1.401769   -0.148697
     70          1           0       -3.241372    5.222307   -0.152932
     71          1           0       -5.109538    6.017527    0.602926
     72          1           0       -5.862850    4.673702    0.235541
     73          1           0       -5.725633    5.825239   -0.843389
     74          1           0        1.747402    5.421729   -0.067430
     75          1           0        0.395708    5.390924   -0.923010
     76          1           0        1.808740    5.207229   -1.651500
     77          1           0        4.018605    3.662087   -0.998879
     78          1           0        4.337862    2.112813   -0.862131
     79          1           0        4.026676    2.295505    1.476338
     80          1           0        3.819015    3.855491    1.305422
     81          1           0        0.719958   -0.074754    3.038008
     82          1           0        6.863863    2.105092   -0.022668
     83          1           0        7.177077   -3.770023    0.492687
 ---------------------------------------------------------------------
 Rotational constants (GHZ):           0.0856116           0.0498597           0.0337193
 Standard basis: def2TZVP (5D, 7F)
 There are  1870 symmetry adapted cartesian basis functions of A   symmetry.
 There are  1643 symmetry adapted basis functions of A   symmetry.
  1643 basis functions,  2668 primitive gaussians,  1870 cartesian basis functions
   177 alpha electrons      173 beta electrons
       nuclear repulsion energy      6615.6940087976 Hartrees.
 NAtoms=   83 NActive=   83 NUniq=   83 SFac= 1.00D+00 NAtFMM=   60 NAOKFM=T Big=T
 Integral buffers will be    131072 words long.
 Raffenetti 2 integral format.
 Two-electron integral symmetry is turned on.
 Nuclear repulsion after empirical dispersion term =     6615.5734289605 Hartrees.
 One-electron integrals computed using PRISM.
   1 Symmetry operations used in ECPInt.
 ECPInt:  NShTT=  213531 NPrTT=  664131 LenC2=  153444 LenP2D=  311474.
 LDataN:  DoStor=T MaxTD1= 6 Len=  172
 NBasis=  1643 RedAO= T EigKep=  3.13D-06  NBF=  1643
 NBsUse=  1643 1.00D-06 EigRej= -1.00D+00 NBFU=  1643
 ExpMin= 4.20D-02 ExpMax= 3.01D+05 ExpMxC= 2.91D+03 IAcc=3 IRadAn=         5 AccDes= 0.00D+00
 Harris functional with IExCor= 1009 and IRadAn=       5 diagonalized for initial guess.
 HarFok:  IExCor= 1009 AccDes= 0.00D+00 IRadAn=         5 IDoV= 1 UseB2=F ITyADJ=14
 ICtDFT=  3500011 ScaDFX=  1.000000  1.000000  1.000000  1.000000
 FoFCou: FMM=F IPFlag=           0 FMFlag=      100000 FMFlg1=        2001
         NFxFlg=           0 DoJE=T BraDBF=F KetDBF=T FulRan=T
         wScrn=  0.000000 ICntrl=       500 IOpCl=  0 I1Cent=   200000004 NGrid=           0
         NMat0=    1 NMatS0=      1 NMatT0=    0 NMatD0=    1 NMtDS0=    0 NMtDT0=    0
 Petite list used in FoFCou.
 Initial guess <Sx>= 0.0000 <Sy>= 0.0000 <Sz>= 2.0000 <S**2>= 6.0000 S= 2.0000
 Requested convergence on RMS density matrix=1.00D-08 within 999 cycles.
 Requested convergence on MAX density matrix=1.00D-06.
 Requested convergence on             energy=1.00D-06.
 No special actions if energy rises.
 EnCoef did   100 forward-backward iterations
 EnCoef did   100 forward-backward iterations
 EnCoef did     4 forward-backward iterations
 EnCoef did     6 forward-backward iterations
 Restarting incremental Fock formation.
 Rare condition: small coef for last iteration:  0.000D+00
 Rare condition: small coef for last iteration:  0.000D+00
 Rare condition: small coef for last iteration:  0.000D+00
 Rare condition: small coef for last iteration:  0.000D+00
 Restarting incremental Fock formation.
 Restarting incremental Fock formation.
 SCF Done:  E(UPBE1PBE) =  -3536.26437374     A.U. after   73 cycles
            NFock= 73  Conv=0.28D-08     -V/T= 2.0014
 <Sx>= 0.0000 <Sy>= 0.0000 <Sz>= 2.0000 <S**2>= 6.1495 S= 2.0297
 <L.S>= 0.000000000000E+00
 Annihilation of the first spin contaminant:
 S**2 before annihilation     6.1495,   after     6.0063

 **********************************************************************

            Population analysis using the SCF density.

 **********************************************************************

 Orbital symmetries:
 Alpha Orbitals:
       Occupied  (A) (A) (A) (A) (A) (A) (A) (A) (A) (A) (A) (A)
                 (A) (A) (A) (A) (A) (A) (A) (A) (A) (A) (A) (A)
                 (A) (A) (A) (A) (A) (A) (A) (A) (A) (A) (A) (A)
                 (A) (A) (A) (A) (A) (A) (A) (A) (A) (A) (A) (A)
                 (A) (A) (A) (A) (A) (A) (A) (A) (A) (A) (A) (A)
                 (A) (A) (A) (A) (A) (A) (A) (A) (A) (A) (A) (A)
                 (A) (A) (A) (A) (A) (A) (A) (A) (A) (A) (A) (A)
                 (A) (A) (A) (A) (A) (A) (A) (A) (A) (A) (A) (A)
                 (A) (A) (A) (A) (A) (A) (A) (A) (A) (A) (A) (A)
                 (A) (A) (A) (A) (A) (A) (A) (A) (A) (A) (A) (A)
                 (A) (A) (A) (A) (A) (A) (A) (A) (A) (A) (A) (A)
                 (A) (A) (A) (A) (A) (A) (A) (A) (A) (A) (A) (A)
                 (A) (A) (A) (A) (A) (A) (A) (A) (A) (A) (A) (A)
                 (A) (A) (A) (A) (A) (A) (A) (A) (A) (A) (A) (A)
                 (A) (A) (A) (A) (A) (A) (A) (A) (A)
       Virtual   (A) (A) (A) (A) (A) (A) (A) (A) (A) (A) (A) (A)
                 (A) (A) (A) (A) (A) (A) (A) (A) (A) (A) (A) (A)
                 (A) (A) (A) (A) (A) (A) (A) (A) (A) (A) (A) (A)
                 (A) (A) (A) (A) (A) (A) (A) (A) (A) (A) (A) (A)
                 (A) (A) (A) (A) (A) (A) (A) (A) (A) (A) (A) (A)
                 (A) (A) (A) (A) (A) (A) (A) (A) (A) (A) (A) (A)
                 (A) (A) (A) (A) (A) (A) (A) (A) (A) (A) (A) (A)
                 (A) (A) (A) (A) (A) (A) (A) (A) (A) (A) (A) (A)
                 (A) (A) (A) (A) (A) (A) (A) (A) (A) (A) (A) (A)
                 (A) (A) (A) (A) (A) (A) (A) (A) (A) (A) (A) (A)
                 (A) (A) (A) (A) (A) (A) (A) (A) (A) (A) (A) (A)
                 (A) (A) (A) (A) (A) (A) (A) (A) (A) (A) (A) (A)
                 (A) (A) (A) (A) (A) (A) (A) (A) (A) (A) (A) (A)
                 (A) (A) (A) (A) (A) (A) (A) (A) (A) (A) (A) (A)
                 (A) (A) (A) (A) (A) (A) (A) (A) (A) (A) (A) (A)
                 (A) (A) (A) (A) (A) (A) (A) (A) (A) (A) (A) (A)
                 (A) (A) (A) (A) (A) (A) (A) (A) (A) (A) (A) (A)
                 (A) (A) (A) (A) (A) (A) (A) (A) (A) (A) (A) (A)
                 (A) (A) (A) (A) (A) (A) (A) (A) (A) (A) (A) (A)
                 (A) (A) (A) (A) (A) (A) (A) (A) (A) (A) (A) (A)
                 (A) (A) (A) (A) (A) (A) (A) (A) (A) (A) (A) (A)
                 (A) (A) (A) (A) (A) (A) (A) (A) (A) (A) (A) (A)
                 (A) (A) (A) (A) (A) (A) (A) (A) (A) (A) (A) (A)
                 (A) (A) (A) (A) (A) (A) (A) (A) (A) (A) (A) (A)
                 (A) (A) (A) (A) (A) (A) (A) (A) (A) (A) (A) (A)
                 (A) (A) (A) (A) (A) (A) (A) (A) (A) (A) (A) (A)
                 (A) (A) (A) (A) (A) (A) (A) (A) (A) (A) (A) (A)
                 (A) (A) (A) (A) (A) (A) (A) (A) (A) (A) (A) (A)
                 (A) (A) (A) (A) (A) (A) (A) (A) (A) (A) (A) (A)
                 (A) (A) (A) (A) (A) (A) (A) (A) (A) (A) (A) (A)
                 (A) (A) (A) (A) (A) (A) (A) (A) (A) (A) (A) (A)
                 (A) (A) (A) (A) (A) (A) (A) (A) (A) (A) (A) (A)
                 (A) (A) (A) (A) (A) (A) (A) (A) (A) (A) (A) (A)
                 (A) (A) (A) (A) (A) (A) (A) (A) (A) (A) (A) (A)
                 (A) (A) (A) (A) (A) (A) (A) (A) (A) (A) (A) (A)
                 (A) (A) (A) (A) (A) (A) (A) (A) (A) (A) (A) (A)
                 (A) (A) (A) (A) (A) (A) (A) (A) (A) (A) (A) (A)
                 (A) (A) (A) (A) (A) (A) (A) (A) (A) (A) (A) (A)
                 (A) (A) (A) (A) (A) (A) (A) (A) (A) (A) (A) (A)
                 (A) (A) (A) (A) (A) (A) (A) (A) (A) (A) (A) (A)
                 (A) (A) (A) (A) (A) (A) (A) (A) (A) (A) (A) (A)
                 (A) (A) (A) (A) (A) (A) (A) (A) (A) (A) (A) (A)
                 (A) (A) (A) (A) (A) (A) (A) (A) (A) (A) (A) (A)
                 (A) (A) (A) (A) (A) (A) (A) (A) (A) (A) (A) (A)
                 (A) (A) (A) (A) (A) (A) (A) (A) (A) (A) (A) (A)
                 (A) (A) (A) (A) (A) (A) (A) (A) (A) (A) (A) (A)
                 (A) (A) (A) (A) (A) (A) (A) (A) (A) (A) (A) (A)
                 (A) (A) (A) (A) (A) (A) (A) (A) (A) (A) (A) (A)
                 (A) (A) (A) (A) (A) (A) (A) (A) (A) (A) (A) (A)
                 (A) (A) (A) (A) (A) (A) (A) (A) (A) (A) (A) (A)
                 (A) (A) (A) (A) (A) (A) (A) (A) (A) (A) (A) (A)
                 (A) (A) (A) (A) (A) (A) (A) (A) (A) (A) (A) (A)
                 (A) (A) (A) (A) (A) (A) (A) (A) (A) (A) (A) (A)
                 (A) (A) (A) (A) (A) (A) (A) (A) (A) (A) (A) (A)
                 (A) (A) (A) (A) (A) (A) (A) (A) (A) (A) (A) (A)
                 (A) (A) (A) (A) (A) (A) (A) (A) (A) (A) (A) (A)
                 (A) (A) (A) (A) (A) (A) (A) (A) (A) (A) (A) (A)
                 (A) (A) (A) (A) (A) (A) (A) (A) (A) (A) (A) (A)
                 (A) (A) (A) (A) (A) (A) (A) (A) (A) (A) (A) (A)
                 (A) (A) (A) (A) (A) (A) (A) (A) (A) (A) (A) (A)
                 (A) (A) (A) (A) (A) (A) (A) (A) (A) (A) (A) (A)
                 (A) (A) (A) (A) (A) (A) (A) (A) (A) (A) (A) (A)
                 (A) (A) (A) (A) (A) (A) (A) (A) (A) (A) (A) (A)
                 (A) (A) (A) (A) (A) (A) (A) (A) (A) (A) (A) (A)
                 (A) (A) (A) (A) (A) (A) (A) (A) (A) (A) (A) (A)
                 (A) (A) (A) (A) (A) (A) (A) (A) (A) (A) (A) (A)
                 (A) (A) (A) (A) (A) (A) (A) (A) (A) (A) (A) (A)
                 (A) (A) (A) (A) (A) (A) (A) (A) (A) (A) (A) (A)
                 (A) (A) (A) (A) (A) (A) (A) (A) (A) (A) (A) (A)
                 (A) (A) (A) (A) (A) (A) (A) (A) (A) (A) (A) (A)
                 (A) (A) (A) (A) (A) (A) (A) (A) (A) (A) (A) (A)
                 (A) (A) (A) (A) (A) (A) (A) (A) (A) (A) (A) (A)
                 (A) (A) (A) (A) (A) (A) (A) (A) (A) (A) (A) (A)
                 (A) (A) (A) (A) (A) (A) (A) (A) (A) (A) (A) (A)
                 (A) (A) (A) (A) (A) (A) (A) (A) (A) (A) (A) (A)
                 (A) (A) (A) (A) (A) (A) (A) (A) (A) (A) (A) (A)
                 (A) (A) (A) (A) (A) (A) (A) (A) (A) (A) (A) (A)
                 (A) (A) (A) (A) (A) (A) (A) (A) (A) (A) (A) (A)
                 (A) (A) (A) (A) (A) (A) (A) (A) (A) (A) (A) (A)
                 (A) (A) (A) (A) (A) (A) (A) (A) (A) (A) (A) (A)
                 (A) (A) (A) (A) (A) (A) (A) (A) (A) (A) (A) (A)
                 (A) (A) (A) (A) (A) (A) (A) (A) (A) (A) (A) (A)
                 (A) (A) (A) (A) (A) (A) (A) (A) (A) (A) (A) (A)
                 (A) (A) (A) (A) (A) (A) (A) (A) (A) (A) (A) (A)
                 (A) (A) (A) (A) (A) (A) (A) (A) (A) (A) (A) (A)
                 (A) (A) (A) (A) (A) (A) (A) (A) (A) (A) (A) (A)
                 (A) (A) (A) (A) (A) (A) (A) (A) (A) (A) (A) (A)
                 (A) (A) (A) (A) (A) (A) (A) (A) (A) (A) (A) (A)
                 (A) (A) (A) (A) (A) (A) (A) (A) (A) (A) (A) (A)
                 (A) (A) (A) (A) (A) (A) (A) (A) (A) (A) (A) (A)
                 (A) (A) (A) (A) (A) (A) (A) (A) (A) (A) (A) (A)
                 (A) (A) (A) (A) (A) (A) (A) (A) (A) (A) (A) (A)
                 (A) (A) (A) (A) (A) (A) (A) (A) (A) (A) (A) (A)
                 (A) (A) (A) (A) (A) (A) (A) (A) (A) (A) (A) (A)
                 (A) (A) (A) (A) (A) (A) (A) (A) (A) (A) (A) (A)
                 (A) (A) (A) (A) (A) (A) (A) (A) (A) (A) (A) (A)
                 (A) (A) (A) (A) (A) (A) (A) (A) (A) (A) (A) (A)
                 (A) (A) (A) (A) (A) (A) (A) (A) (A) (A) (A) (A)
                 (A) (A) (A) (A) (A) (A) (A) (A) (A) (A) (A) (A)
                 (A) (A) (A) (A) (A) (A) (A) (A) (A) (A) (A) (A)
                 (A) (A) (A) (A) (A) (A) (A) (A) (A) (A) (A) (A)
                 (A) (A) (A) (A) (A) (A) (A) (A) (A) (A) (A) (A)
                 (A) (A) (A) (A) (A) (A) (A) (A) (A) (A) (A) (A)
                 (A) (A) (A) (A) (A) (A) (A) (A) (A) (A) (A) (A)
                 (A) (A) (A) (A) (A) (A) (A) (A) (A) (A) (A) (A)
                 (A) (A) (A) (A) (A) (A) (A) (A) (A) (A) (A) (A)
                 (A) (A) (A) (A) (A) (A) (A) (A) (A) (A) (A) (A)
                 (A) (A) (A) (A) (A) (A) (A) (A) (A) (A) (A) (A)
                 (A) (A) (A) (A) (A) (A) (A) (A) (A) (A) (A) (A)
                 (A) (A) (A) (A) (A) (A) (A) (A) (A) (A) (A) (A)
                 (A) (A) (A) (A) (A) (A) (A) (A) (A) (A) (A) (A)
                 (A) (A) (A) (A) (A) (A) (A) (A) (A) (A) (A) (A)
                 (A) (A) (A) (A) (A) (A) (A) (A) (A) (A) (A) (A)
                 (A) (A) (A) (A) (A) (A) (A) (A) (A) (A) (A) (A)
                 (A) (A) (A) (A) (A) (A) (A) (A) (A) (A) (A) (A)
                 (A) (A) (A) (A) (A) (A) (A) (A) (A) (A) (A) (A)
                 (A) (A) (A) (A) (A) (A) (A) (A) (A) (A) (A) (A)
                 (A) (A) (A) (A) (A) (A) (A) (A) (A) (A) (A) (A)
                 (A) (A) (A) (A) (A) (A) (A) (A) (A) (A) (A) (A)
                 (A) (A) (A) (A) (A) (A) (A) (A) (A) (A) (A) (A)
                 (A) (A) (A) (A) (A) (A) (A) (A) (A) (A) (A) (A)
                 (A) (A) (A) (A) (A) (A) (A) (A) (A) (A) (A) (A)
                 (A) (A)
 Beta  Orbitals:
       Occupied  (A) (A) (A) (A) (A) (A) (A) (A) (A) (A) (A) (A)
                 (A) (A) (A) (A) (A) (A) (A) (A) (A) (A) (A) (A)
                 (A) (A) (A) (A) (A) (A) (A) (A) (A) (A) (A) (A)
                 (A) (A) (A) (A) (A) (A) (A) (A) (A) (A) (A) (A)
                 (A) (A) (A) (A) (A) (A) (A) (A) (A) (A) (A) (A)
                 (A) (A) (A) (A) (A) (A) (A) (A) (A) (A) (A) (A)
                 (A) (A) (A) (A) (A) (A) (A) (A) (A) (A) (A) (A)
                 (A) (A) (A) (A) (A) (A) (A) (A) (A) (A) (A) (A)
                 (A) (A) (A) (A) (A) (A) (A) (A) (A) (A) (A) (A)
                 (A) (A) (A) (A) (A) (A) (A) (A) (A) (A) (A) (A)
                 (A) (A) (A) (A) (A) (A) (A) (A) (A) (A) (A) (A)
                 (A) (A) (A) (A) (A) (A) (A) (A) (A) (A) (A) (A)
                 (A) (A) (A) (A) (A) (A) (A) (A) (A) (A) (A) (A)
                 (A) (A) (A) (A) (A) (A) (A) (A) (A) (A) (A) (A)
                 (A) (A) (A) (A) (A)
       Virtual   (A) (A) (A) (A) (A) (A) (A) (A) (A) (A) (A) (A)
                 (A) (A) (A) (A) (A) (A) (A) (A) (A) (A) (A) (A)
                 (A) (A) (A) (A) (A) (A) (A) (A) (A) (A) (A) (A)
                 (A) (A) (A) (A) (A) (A) (A) (A) (A) (A) (A) (A)
                 (A) (A) (A) (A) (A) (A) (A) (A) (A) (A) (A) (A)
                 (A) (A) (A) (A) (A) (A) (A) (A) (A) (A) (A) (A)
                 (A) (A) (A) (A) (A) (A) (A) (A) (A) (A) (A) (A)
                 (A) (A) (A) (A) (A) (A) (A) (A) (A) (A) (A) (A)
                 (A) (A) (A) (A) (A) (A) (A) (A) (A) (A) (A) (A)
                 (A) (A) (A) (A) (A) (A) (A) (A) (A) (A) (A) (A)
                 (A) (A) (A) (A) (A) (A) (A) (A) (A) (A) (A) (A)
                 (A) (A) (A) (A) (A) (A) (A) (A) (A) (A) (A) (A)
                 (A) (A) (A) (A) (A) (A) (A) (A) (A) (A) (A) (A)
                 (A) (A) (A) (A) (A) (A) (A) (A) (A) (A) (A) (A)
                 (A) (A) (A) (A) (A) (A) (A) (A) (A) (A) (A) (A)
                 (A) (A) (A) (A) (A) (A) (A) (A) (A) (A) (A) (A)
                 (A) (A) (A) (A) (A) (A) (A) (A) (A) (A) (A) (A)
                 (A) (A) (A) (A) (A) (A) (A) (A) (A) (A) (A) (A)
                 (A) (A) (A) (A) (A) (A) (A) (A) (A) (A) (A) (A)
                 (A) (A) (A) (A) (A) (A) (A) (A) (A) (A) (A) (A)
                 (A) (A) (A) (A) (A) (A) (A) (A) (A) (A) (A) (A)
                 (A) (A) (A) (A) (A) (A) (A) (A) (A) (A) (A) (A)
                 (A) (A) (A) (A) (A) (A) (A) (A) (A) (A) (A) (A)
                 (A) (A) (A) (A) (A) (A) (A) (A) (A) (A) (A) (A)
                 (A) (A) (A) (A) (A) (A) (A) (A) (A) (A) (A) (A)
                 (A) (A) (A) (A) (A) (A) (A) (A) (A) (A) (A) (A)
                 (A) (A) (A) (A) (A) (A) (A) (A) (A) (A) (A) (A)
                 (A) (A) (A) (A) (A) (A) (A) (A) (A) (A) (A) (A)
                 (A) (A) (A) (A) (A) (A) (A) (A) (A) (A) (A) (A)
                 (A) (A) (A) (A) (A) (A) (A) (A) (A) (A) (A) (A)
                 (A) (A) (A) (A) (A) (A) (A) (A) (A) (A) (A) (A)
                 (A) (A) (A) (A) (A) (A) (A) (A) (A) (A) (A) (A)
                 (A) (A) (A) (A) (A) (A) (A) (A) (A) (A) (A) (A)
                 (A) (A) (A) (A) (A) (A) (A) (A) (A) (A) (A) (A)
                 (A) (A) (A) (A) (A) (A) (A) (A) (A) (A) (A) (A)
                 (A) (A) (A) (A) (A) (A) (A) (A) (A) (A) (A) (A)
                 (A) (A) (A) (A) (A) (A) (A) (A) (A) (A) (A) (A)
                 (A) (A) (A) (A) (A) (A) (A) (A) (A) (A) (A) (A)
                 (A) (A) (A) (A) (A) (A) (A) (A) (A) (A) (A) (A)
                 (A) (A) (A) (A) (A) (A) (A) (A) (A) (A) (A) (A)
                 (A) (A) (A) (A) (A) (A) (A) (A) (A) (A) (A) (A)
                 (A) (A) (A) (A) (A) (A) (A) (A) (A) (A) (A) (A)
                 (A) (A) (A) (A) (A) (A) (A) (A) (A) (A) (A) (A)
                 (A) (A) (A) (A) (A) (A) (A) (A) (A) (A) (A) (A)
                 (A) (A) (A) (A) (A) (A) (A) (A) (A) (A) (A) (A)
                 (A) (A) (A) (A) (A) (A) (A) (A) (A) (A) (A) (A)
                 (A) (A) (A) (A) (A) (A) (A) (A) (A) (A) (A) (A)
                 (A) (A) (A) (A) (A) (A) (A) (A) (A) (A) (A) (A)
                 (A) (A) (A) (A) (A) (A) (A) (A) (A) (A) (A) (A)
                 (A) (A) (A) (A) (A) (A) (A) (A) (A) (A) (A) (A)
                 (A) (A) (A) (A) (A) (A) (A) (A) (A) (A) (A) (A)
                 (A) (A) (A) (A) (A) (A) (A) (A) (A) (A) (A) (A)
                 (A) (A) (A) (A) (A) (A) (A) (A) (A) (A) (A) (A)
                 (A) (A) (A) (A) (A) (A) (A) (A) (A) (A) (A) (A)
                 (A) (A) (A) (A) (A) (A) (A) (A) (A) (A) (A) (A)
                 (A) (A) (A) (A) (A) (A) (A) (A) (A) (A) (A) (A)
                 (A) (A) (A) (A) (A) (A) (A) (A) (A) (A) (A) (A)
                 (A) (A) (A) (A) (A) (A) (A) (A) (A) (A) (A) (A)
                 (A) (A) (A) (A) (A) (A) (A) (A) (A) (A) (A) (A)
                 (A) (A) (A) (A) (A) (A) (A) (A) (A) (A) (A) (A)
                 (A) (A) (A) (A) (A) (A) (A) (A) (A) (A) (A) (A)
                 (A) (A) (A) (A) (A) (A) (A) (A) (A) (A) (A) (A)
                 (A) (A) (A) (A) (A) (A) (A) (A) (A) (A) (A) (A)
                 (A) (A) (A) (A) (A) (A) (A) (A) (A) (A) (A) (A)
                 (A) (A) (A) (A) (A) (A) (A) (A) (A) (A) (A) (A)
                 (A) (A) (A) (A) (A) (A) (A) (A) (A) (A) (A) (A)
                 (A) (A) (A) (A) (A) (A) (A) (A) (A) (A) (A) (A)
                 (A) (A) (A) (A) (A) (A) (A) (A) (A) (A) (A) (A)
                 (A) (A) (A) (A) (A) (A) (A) (A) (A) (A) (A) (A)
                 (A) (A) (A) (A) (A) (A) (A) (A) (A) (A) (A) (A)
                 (A) (A) (A) (A) (A) (A) (A) (A) (A) (A) (A) (A)
                 (A) (A) (A) (A) (A) (A) (A) (A) (A) (A) (A) (A)
                 (A) (A) (A) (A) (A) (A) (A) (A) (A) (A) (A) (A)
                 (A) (A) (A) (A) (A) (A) (A) (A) (A) (A) (A) (A)
                 (A) (A) (A) (A) (A) (A) (A) (A) (A) (A) (A) (A)
                 (A) (A) (A) (A) (A) (A) (A) (A) (A) (A) (A) (A)
                 (A) (A) (A) (A) (A) (A) (A) (A) (A) (A) (A) (A)
                 (A) (A) (A) (A) (A) (A) (A) (A) (A) (A) (A) (A)
                 (A) (A) (A) (A) (A) (A) (A) (A) (A) (A) (A) (A)
                 (A) (A) (A) (A) (A) (A) (A) (A) (A) (A) (A) (A)
                 (A) (A) (A) (A) (A) (A) (A) (A) (A) (A) (A) (A)
                 (A) (A) (A) (A) (A) (A) (A) (A) (A) (A) (A) (A)
                 (A) (A) (A) (A) (A) (A) (A) (A) (A) (A) (A) (A)
                 (A) (A) (A) (A) (A) (A) (A) (A) (A) (A) (A) (A)
                 (A) (A) (A) (A) (A) (A) (A) (A) (A) (A) (A) (A)
                 (A) (A) (A) (A) (A) (A) (A) (A) (A) (A) (A) (A)
                 (A) (A) (A) (A) (A) (A) (A) (A) (A) (A) (A) (A)
                 (A) (A) (A) (A) (A) (A) (A) (A) (A) (A) (A) (A)
                 (A) (A) (A) (A) (A) (A) (A) (A) (A) (A) (A) (A)
                 (A) (A) (A) (A) (A) (A) (A) (A) (A) (A) (A) (A)
                 (A) (A) (A) (A) (A) (A) (A) (A) (A) (A) (A) (A)
                 (A) (A) (A) (A) (A) (A) (A) (A) (A) (A) (A) (A)
                 (A) (A) (A) (A) (A) (A) (A) (A) (A) (A) (A) (A)
                 (A) (A) (A) (A) (A) (A) (A) (A) (A) (A) (A) (A)
                 (A) (A) (A) (A) (A) (A) (A) (A) (A) (A) (A) (A)
                 (A) (A) (A) (A) (A) (A) (A) (A) (A) (A) (A) (A)
                 (A) (A) (A) (A) (A) (A) (A) (A) (A) (A) (A) (A)
                 (A) (A) (A) (A) (A) (A) (A) (A) (A) (A) (A) (A)
                 (A) (A) (A) (A) (A) (A) (A) (A) (A) (A) (A) (A)
                 (A) (A) (A) (A) (A) (A) (A) (A) (A) (A) (A) (A)
                 (A) (A) (A) (A) (A) (A) (A) (A) (A) (A) (A) (A)
                 (A) (A) (A) (A) (A) (A) (A) (A) (A) (A) (A) (A)
                 (A) (A) (A) (A) (A) (A) (A) (A) (A) (A) (A) (A)
                 (A) (A) (A) (A) (A) (A) (A) (A) (A) (A) (A) (A)
                 (A) (A) (A) (A) (A) (A) (A) (A) (A) (A) (A) (A)
                 (A) (A) (A) (A) (A) (A) (A) (A) (A) (A) (A) (A)
                 (A) (A) (A) (A) (A) (A) (A) (A) (A) (A) (A) (A)
                 (A) (A) (A) (A) (A) (A) (A) (A) (A) (A) (A) (A)
                 (A) (A) (A) (A) (A) (A) (A) (A) (A) (A) (A) (A)
                 (A) (A) (A) (A) (A) (A) (A) (A) (A) (A) (A) (A)
                 (A) (A) (A) (A) (A) (A) (A) (A) (A) (A) (A) (A)
                 (A) (A) (A) (A) (A) (A) (A) (A) (A) (A) (A) (A)
                 (A) (A) (A) (A) (A) (A) (A) (A) (A) (A) (A) (A)
                 (A) (A) (A) (A) (A) (A) (A) (A) (A) (A) (A) (A)
                 (A) (A) (A) (A) (A) (A) (A) (A) (A) (A) (A) (A)
                 (A) (A) (A) (A) (A) (A) (A) (A) (A) (A) (A) (A)
                 (A) (A) (A) (A) (A) (A) (A) (A) (A) (A) (A) (A)
                 (A) (A) (A) (A) (A) (A) (A) (A) (A) (A) (A) (A)
                 (A) (A) (A) (A) (A) (A) (A) (A) (A) (A) (A) (A)
                 (A) (A) (A) (A) (A) (A) (A) (A) (A) (A) (A) (A)
                 (A) (A) (A) (A) (A) (A) (A) (A) (A) (A) (A) (A)
                 (A) (A) (A) (A) (A) (A) (A) (A) (A) (A) (A) (A)
                 (A) (A) (A) (A) (A) (A)
 The electronic state is 5-A.
 Alpha  occ. eigenvalues -- -256.34227 -89.00834 -30.13226 -25.96559 -25.96514
 Alpha  occ. eigenvalues --  -25.93222 -19.27655 -19.25826 -19.19573 -19.18354
 Alpha  occ. eigenvalues --  -14.39033 -14.38863 -14.38810 -14.38173 -10.36794
 Alpha  occ. eigenvalues --  -10.35301 -10.25790 -10.25719 -10.25637 -10.25315
 Alpha  occ. eigenvalues --  -10.25297 -10.25267 -10.25193 -10.25017 -10.23827
 Alpha  occ. eigenvalues --  -10.23592 -10.23500 -10.23467 -10.23303 -10.23286
 Alpha  occ. eigenvalues --  -10.23156 -10.23108 -10.23020 -10.22760 -10.22415
 Alpha  occ. eigenvalues --  -10.22140 -10.21915 -10.21714 -10.21704 -10.21504
 Alpha  occ. eigenvalues --  -10.21282 -10.20824 -10.20556 -10.19570 -10.18723
 Alpha  occ. eigenvalues --  -10.18477 -10.18341 -10.17568 -10.17437  -7.99307
 Alpha  occ. eigenvalues --   -5.92932  -5.92565  -5.92166  -3.51776  -2.29567
 Alpha  occ. eigenvalues --   -2.29304  -2.24123  -1.18071  -1.17155  -1.04176
 Alpha  occ. eigenvalues --   -1.02870  -0.99024  -0.98169  -0.97695  -0.96057
 Alpha  occ. eigenvalues --   -0.85934  -0.85501  -0.84861  -0.84305  -0.83496
 Alpha  occ. eigenvalues --   -0.83027  -0.82485  -0.81709  -0.81296  -0.80152
 Alpha  occ. eigenvalues --   -0.79369  -0.79025  -0.77556  -0.76063  -0.75076
 Alpha  occ. eigenvalues --   -0.74478  -0.73997  -0.71667  -0.71455  -0.69938
 Alpha  occ. eigenvalues --   -0.69110  -0.68756  -0.68262  -0.67639  -0.67191
 Alpha  occ. eigenvalues --   -0.65816  -0.65285  -0.60554  -0.60352  -0.57961
 Alpha  occ. eigenvalues --   -0.56931  -0.56733  -0.55285  -0.54712  -0.54597
 Alpha  occ. eigenvalues --   -0.54083  -0.53334  -0.52914  -0.52577  -0.51935
 Alpha  occ. eigenvalues --   -0.50730  -0.50651  -0.50216  -0.49806  -0.48828
 Alpha  occ. eigenvalues --   -0.48388  -0.48028  -0.47747  -0.47555  -0.47286
 Alpha  occ. eigenvalues --   -0.47159  -0.46994  -0.46224  -0.46021  -0.45852
 Alpha  occ. eigenvalues --   -0.45735  -0.45490  -0.45273  -0.45081  -0.44812
 Alpha  occ. eigenvalues --   -0.44709  -0.44490  -0.44140  -0.43762  -0.43011
 Alpha  occ. eigenvalues --   -0.42629  -0.42484  -0.42353  -0.41921  -0.41808
 Alpha  occ. eigenvalues --   -0.41625  -0.41410  -0.41109  -0.40996  -0.40393
 Alpha  occ. eigenvalues --   -0.40146  -0.39559  -0.39073  -0.38672  -0.38546
 Alpha  occ. eigenvalues --   -0.38197  -0.37590  -0.36976  -0.36933  -0.36408
 Alpha  occ. eigenvalues --   -0.35789  -0.35604  -0.35460  -0.34869  -0.34796
 Alpha  occ. eigenvalues --   -0.34249  -0.34213  -0.33927  -0.32629  -0.32457
 Alpha  occ. eigenvalues --   -0.31600  -0.31228  -0.30093  -0.29808  -0.29282
 Alpha  occ. eigenvalues --   -0.28843  -0.27984  -0.27693  -0.27005  -0.25847
 Alpha  occ. eigenvalues --   -0.24112  -0.23080  -0.21658  -0.21445  -0.20936
 Alpha  occ. eigenvalues --   -0.18931  -0.18323
 Alpha virt. eigenvalues --   -0.08309  -0.07714  -0.03180  -0.02873  -0.01859
 Alpha virt. eigenvalues --   -0.01501   0.00666   0.01948   0.02905   0.03903
 Alpha virt. eigenvalues --    0.04222   0.04710   0.05294   0.05730   0.06012
 Alpha virt. eigenvalues --    0.06213   0.06796   0.06976   0.07475   0.07844
 Alpha virt. eigenvalues --    0.07923   0.08579   0.08579   0.09353   0.09593
 Alpha virt. eigenvalues --    0.09817   0.10099   0.10312   0.10601   0.11131
 Alpha virt. eigenvalues --    0.11505   0.11863   0.11970   0.11976   0.12133
 Alpha virt. eigenvalues --    0.12593   0.12765   0.12860   0.13184   0.13348
 Alpha virt. eigenvalues --    0.13874   0.13939   0.14040   0.14201   0.14431
 Alpha virt. eigenvalues --    0.14605   0.14873   0.15325   0.15466   0.15480
 Alpha virt. eigenvalues --    0.15617   0.16005   0.16204   0.16470   0.16849
 Alpha virt. eigenvalues --    0.17111   0.17400   0.17642   0.17857   0.18104
 Alpha virt. eigenvalues --    0.18352   0.18431   0.18737   0.18834   0.19228
 Alpha virt. eigenvalues --    0.19577   0.19776   0.20180   0.20310   0.20461
 Alpha virt. eigenvalues --    0.20672   0.21064   0.21248   0.21332   0.21390
 Alpha virt. eigenvalues --    0.21522   0.21762   0.22013   0.22288   0.22662
 Alpha virt. eigenvalues --    0.22797   0.23008   0.23071   0.23340   0.23382
 Alpha virt. eigenvalues --    0.23728   0.23937   0.24074   0.24237   0.24450
 Alpha virt. eigenvalues --    0.24535   0.24922   0.25073   0.25224   0.25592
 Alpha virt. eigenvalues --    0.25993   0.26009   0.26246   0.26474   0.26661
 Alpha virt. eigenvalues --    0.26887   0.27241   0.27356   0.27590   0.27945
 Alpha virt. eigenvalues --    0.28281   0.28510   0.28666   0.28925   0.29170
 Alpha virt. eigenvalues --    0.29399   0.29687   0.29927   0.30196   0.30402
 Alpha virt. eigenvalues --    0.30733   0.31150   0.31439   0.31703   0.32166
 Alpha virt. eigenvalues --    0.32417   0.32796   0.32968   0.33232   0.33298
 Alpha virt. eigenvalues --    0.33538   0.33867   0.34297   0.34421   0.34766
 Alpha virt. eigenvalues --    0.35311   0.35804   0.35881   0.36138   0.36314
 Alpha virt. eigenvalues --    0.36392   0.36951   0.37145   0.37580   0.37891
 Alpha virt. eigenvalues --    0.37995   0.38242   0.38529   0.38701   0.39149
 Alpha virt. eigenvalues --    0.39295   0.39499   0.39701   0.39783   0.39975
 Alpha virt. eigenvalues --    0.40297   0.40516   0.40812   0.41020   0.41225
 Alpha virt. eigenvalues --    0.41615   0.41989   0.42097   0.42187   0.42492
 Alpha virt. eigenvalues --    0.42892   0.43015   0.43415   0.43487   0.43651
 Alpha virt. eigenvalues --    0.43725   0.44050   0.44078   0.44435   0.44758
 Alpha virt. eigenvalues --    0.44912   0.45073   0.45249   0.45551   0.45813
 Alpha virt. eigenvalues --    0.46019   0.46224   0.46436   0.46827   0.46984
 Alpha virt. eigenvalues --    0.47018   0.47178   0.47431   0.47783   0.47861
 Alpha virt. eigenvalues --    0.48077   0.48127   0.48482   0.48802   0.49000
 Alpha virt. eigenvalues --    0.49065   0.49387   0.49776   0.49861   0.49929
 Alpha virt. eigenvalues --    0.50210   0.50400   0.50817   0.50984   0.51228
 Alpha virt. eigenvalues --    0.51438   0.51667   0.52037   0.52168   0.52306
 Alpha virt. eigenvalues --    0.52712   0.52755   0.52979   0.53193   0.53293
 Alpha virt. eigenvalues --    0.53562   0.53910   0.54040   0.54194   0.54443
 Alpha virt. eigenvalues --    0.54580   0.54663   0.55137   0.55384   0.55580
 Alpha virt. eigenvalues --    0.55676   0.55808   0.56188   0.56353   0.56425
 Alpha virt. eigenvalues --    0.56815   0.57281   0.57438   0.57695   0.57860
 Alpha virt. eigenvalues --    0.57972   0.58325   0.58525   0.59109   0.59175
 Alpha virt. eigenvalues --    0.59495   0.59743   0.60015   0.60523   0.60603
 Alpha virt. eigenvalues --    0.60730   0.61188   0.61555   0.61667   0.61965
 Alpha virt. eigenvalues --    0.62265   0.62623   0.63027   0.63126   0.63401
 Alpha virt. eigenvalues --    0.63738   0.63819   0.64307   0.64566   0.64670
 Alpha virt. eigenvalues --    0.64926   0.65545   0.65732   0.66057   0.66234
 Alpha virt. eigenvalues --    0.66388   0.66823   0.66892   0.67136   0.67559
 Alpha virt. eigenvalues --    0.67753   0.67986   0.68016   0.68316   0.68763
 Alpha virt. eigenvalues --    0.69039   0.69241   0.69568   0.70261   0.70486
 Alpha virt. eigenvalues --    0.70639   0.70996   0.71071   0.71689   0.71794
 Alpha virt. eigenvalues --    0.72139   0.72374   0.72515   0.72684   0.73139
 Alpha virt. eigenvalues --    0.73646   0.73882   0.73948   0.74276   0.74421
 Alpha virt. eigenvalues --    0.74775   0.75177   0.75276   0.75638   0.76060
 Alpha virt. eigenvalues --    0.76113   0.76548   0.76746   0.77293   0.77545
 Alpha virt. eigenvalues --    0.78068   0.78110   0.78742   0.78918   0.78982
 Alpha virt. eigenvalues --    0.79381   0.79924   0.80082   0.80504   0.80559
 Alpha virt. eigenvalues --    0.80819   0.81279   0.81562   0.81818   0.82308
 Alpha virt. eigenvalues --    0.82614   0.82882   0.83350   0.83604   0.84086
 Alpha virt. eigenvalues --    0.84494   0.84626   0.84822   0.85324   0.85542
 Alpha virt. eigenvalues --    0.85679   0.86110   0.86417   0.87196   0.87815
 Alpha virt. eigenvalues --    0.88188   0.88480   0.88561   0.88905   0.89319
 Alpha virt. eigenvalues --    0.89421   0.89761   0.90096   0.90467   0.90853
 Alpha virt. eigenvalues --    0.91092   0.91243   0.91478   0.91755   0.92355
 Alpha virt. eigenvalues --    0.92702   0.92863   0.93049   0.93408   0.93690
 Alpha virt. eigenvalues --    0.93983   0.94465   0.94819   0.95193   0.95586
 Alpha virt. eigenvalues --    0.95941   0.96087   0.96493   0.96911   0.97049
 Alpha virt. eigenvalues --    0.97176   0.97462   0.98013   0.98088   0.98411
 Alpha virt. eigenvalues --    0.98965   0.99380   0.99582   0.99891   0.99977
 Alpha virt. eigenvalues --    1.00565   1.00942   1.01170   1.01767   1.02009
 Alpha virt. eigenvalues --    1.02189   1.02613   1.03000   1.03048   1.03630
 Alpha virt. eigenvalues --    1.04248   1.04368   1.04472   1.04614   1.05314
 Alpha virt. eigenvalues --    1.05417   1.05771   1.05849   1.06394   1.06571
 Alpha virt. eigenvalues --    1.06832   1.06956   1.07281   1.07575   1.07960
 Alpha virt. eigenvalues --    1.08553   1.08966   1.09255   1.09832   1.10319
 Alpha virt. eigenvalues --    1.10682   1.11040   1.11236   1.11369   1.11767
 Alpha virt. eigenvalues --    1.11974   1.12284   1.12835   1.13335   1.13786
 Alpha virt. eigenvalues --    1.13837   1.14278   1.15210   1.15292   1.15769
 Alpha virt. eigenvalues --    1.16161   1.16331   1.16687   1.16864   1.17616
 Alpha virt. eigenvalues --    1.18288   1.19778   1.20088   1.20212   1.20568
 Alpha virt. eigenvalues --    1.21219   1.21513   1.22336   1.22356   1.22788
 Alpha virt. eigenvalues --    1.23087   1.23697   1.24020   1.24454   1.24801
 Alpha virt. eigenvalues --    1.25130   1.25738   1.26084   1.26462   1.26901
 Alpha virt. eigenvalues --    1.27534   1.28027   1.28588   1.28684   1.29319
 Alpha virt. eigenvalues --    1.29460   1.30079   1.30780   1.31074   1.31626
 Alpha virt. eigenvalues --    1.31872   1.32143   1.32472   1.32837   1.33123
 Alpha virt. eigenvalues --    1.33886   1.34224   1.34913   1.35581   1.35954
 Alpha virt. eigenvalues --    1.36554   1.36824   1.36994   1.37578   1.38136
 Alpha virt. eigenvalues --    1.38393   1.38700   1.39216   1.39691   1.39912
 Alpha virt. eigenvalues --    1.40843   1.41235   1.41612   1.41981   1.42736
 Alpha virt. eigenvalues --    1.42857   1.43804   1.43999   1.44795   1.44970
 Alpha virt. eigenvalues --    1.45304   1.45796   1.46547   1.46831   1.46980
 Alpha virt. eigenvalues --    1.47358   1.47759   1.48144   1.48491   1.48696
 Alpha virt. eigenvalues --    1.49010   1.49290   1.49874   1.50334   1.50562
 Alpha virt. eigenvalues --    1.50771   1.51183   1.51261   1.51478   1.51911
 Alpha virt. eigenvalues --    1.52243   1.52440   1.52648   1.53105   1.53355
 Alpha virt. eigenvalues --    1.53468   1.54343   1.54467   1.54762   1.54975
 Alpha virt. eigenvalues --    1.55286   1.55535   1.56220   1.56357   1.56838
 Alpha virt. eigenvalues --    1.57215   1.57516   1.57651   1.57788   1.58510
 Alpha virt. eigenvalues --    1.58670   1.59097   1.59623   1.59935   1.60326
 Alpha virt. eigenvalues --    1.60439   1.60939   1.61354   1.61505   1.61630
 Alpha virt. eigenvalues --    1.62075   1.62193   1.62481   1.62806   1.62905
 Alpha virt. eigenvalues --    1.63204   1.63464   1.63569   1.63811   1.64322
 Alpha virt. eigenvalues --    1.64586   1.64859   1.65124   1.65306   1.65848
 Alpha virt. eigenvalues --    1.66013   1.66202   1.66681   1.66967   1.67091
 Alpha virt. eigenvalues --    1.67238   1.67387   1.67484   1.67928   1.68196
 Alpha virt. eigenvalues --    1.68498   1.68566   1.69172   1.69402   1.69877
 Alpha virt. eigenvalues --    1.70010   1.70587   1.70863   1.71212   1.71561
 Alpha virt. eigenvalues --    1.72155   1.72244   1.72292   1.73061   1.73316
 Alpha virt. eigenvalues --    1.73814   1.74396   1.74433   1.74861   1.75334
 Alpha virt. eigenvalues --    1.75585   1.75819   1.76184   1.76538   1.76730
 Alpha virt. eigenvalues --    1.77017   1.77321   1.77895   1.78617   1.79480
 Alpha virt. eigenvalues --    1.79916   1.80036   1.80772   1.81454   1.81601
 Alpha virt. eigenvalues --    1.81997   1.82673   1.83111   1.83541   1.83828
 Alpha virt. eigenvalues --    1.84298   1.85205   1.85369   1.85802   1.86216
 Alpha virt. eigenvalues --    1.86814   1.86967   1.87415   1.87614   1.87838
 Alpha virt. eigenvalues --    1.88784   1.88874   1.89396   1.90018   1.90150
 Alpha virt. eigenvalues --    1.90519   1.91282   1.91452   1.92257   1.92593
 Alpha virt. eigenvalues --    1.92974   1.93286   1.94002   1.94589   1.95002
 Alpha virt. eigenvalues --    1.95144   1.95665   1.95816   1.96435   1.96819
 Alpha virt. eigenvalues --    1.97209   1.97677   1.98033   1.98598   1.98995
 Alpha virt. eigenvalues --    1.99335   1.99624   2.00346   2.00545   2.00851
 Alpha virt. eigenvalues --    2.01003   2.01253   2.01690   2.02026   2.02395
 Alpha virt. eigenvalues --    2.02943   2.03085   2.03393   2.03720   2.03875
 Alpha virt. eigenvalues --    2.04117   2.05463   2.05885   2.06259   2.06551
 Alpha virt. eigenvalues --    2.07340   2.07793   2.08056   2.08173   2.08980
 Alpha virt. eigenvalues --    2.09110   2.09587   2.09931   2.10263   2.10869
 Alpha virt. eigenvalues --    2.11839   2.12084   2.12435   2.12836   2.13054
 Alpha virt. eigenvalues --    2.13512   2.13832   2.13900   2.14168   2.15167
 Alpha virt. eigenvalues --    2.15417   2.15664   2.15928   2.16258   2.16585
 Alpha virt. eigenvalues --    2.17006   2.17345   2.17560   2.17700   2.18207
 Alpha virt. eigenvalues --    2.18837   2.19074   2.19452   2.20268   2.20483
 Alpha virt. eigenvalues --    2.21011   2.21894   2.22345   2.22422   2.23031
 Alpha virt. eigenvalues --    2.23096   2.23867   2.24324   2.24838   2.25340
 Alpha virt. eigenvalues --    2.25689   2.26147   2.27238   2.27470   2.27868
 Alpha virt. eigenvalues --    2.28080   2.28420   2.28614   2.29234   2.29303
 Alpha virt. eigenvalues --    2.29718   2.30379   2.30787   2.30994   2.31220
 Alpha virt. eigenvalues --    2.31987   2.32433   2.32543   2.33669   2.34077
 Alpha virt. eigenvalues --    2.34477   2.34707   2.35108   2.35485   2.36162
 Alpha virt. eigenvalues --    2.36746   2.36899   2.37585   2.37968   2.38660
 Alpha virt. eigenvalues --    2.38853   2.39254   2.40073   2.40354   2.40545
 Alpha virt. eigenvalues --    2.40863   2.42005   2.42191   2.43079   2.43324
 Alpha virt. eigenvalues --    2.43734   2.44358   2.44620   2.45185   2.45670
 Alpha virt. eigenvalues --    2.46243   2.46615   2.46968   2.47280   2.47560
 Alpha virt. eigenvalues --    2.47805   2.48250   2.49144   2.49247   2.49773
 Alpha virt. eigenvalues --    2.50059   2.50730   2.50995   2.51397   2.51865
 Alpha virt. eigenvalues --    2.52301   2.52642   2.53058   2.53633   2.53758
 Alpha virt. eigenvalues --    2.54260   2.54946   2.55060   2.55480   2.55687
 Alpha virt. eigenvalues --    2.56321   2.56670   2.57125   2.57350   2.57796
 Alpha virt. eigenvalues --    2.58080   2.58373   2.59059   2.59358   2.60185
 Alpha virt. eigenvalues --    2.60222   2.60997   2.61572   2.62149   2.62525
 Alpha virt. eigenvalues --    2.62715   2.63483   2.64087   2.64273   2.64975
 Alpha virt. eigenvalues --    2.65091   2.66393   2.66567   2.67155   2.67649
 Alpha virt. eigenvalues --    2.67878   2.68256   2.68665   2.68966   2.69403
 Alpha virt. eigenvalues --    2.69719   2.69820   2.70023   2.70154   2.70758
 Alpha virt. eigenvalues --    2.71230   2.71405   2.71998   2.72610   2.72823
 Alpha virt. eigenvalues --    2.73514   2.74163   2.74277   2.74501   2.74852
 Alpha virt. eigenvalues --    2.75193   2.75289   2.76083   2.76142   2.76656
 Alpha virt. eigenvalues --    2.76956   2.77411   2.77650   2.78079   2.78535
 Alpha virt. eigenvalues --    2.79226   2.79620   2.79709   2.79879   2.80024
 Alpha virt. eigenvalues --    2.80199   2.80814   2.81388   2.81916   2.82110
 Alpha virt. eigenvalues --    2.82555   2.83201   2.83360   2.83539   2.83896
 Alpha virt. eigenvalues --    2.84054   2.84395   2.84763   2.84829   2.85738
 Alpha virt. eigenvalues --    2.85836   2.86066   2.86420   2.86668   2.87254
 Alpha virt. eigenvalues --    2.87607   2.87740   2.88014   2.88384   2.88934
 Alpha virt. eigenvalues --    2.89339   2.89700   2.90277   2.90563   2.90790
 Alpha virt. eigenvalues --    2.90981   2.91616   2.91803   2.92237   2.92754
 Alpha virt. eigenvalues --    2.93059   2.93068   2.93518   2.93688   2.93903
 Alpha virt. eigenvalues --    2.94527   2.94744   2.95262   2.95613   2.95790
 Alpha virt. eigenvalues --    2.96015   2.96339   2.96661   2.96925   2.97032
 Alpha virt. eigenvalues --    2.97211   2.97510   2.97893   2.98263   2.98578
 Alpha virt. eigenvalues --    2.99032   2.99182   2.99823   3.00135   3.00162
 Alpha virt. eigenvalues --    3.01188   3.01424   3.01866   3.02330   3.02680
 Alpha virt. eigenvalues --    3.02816   3.03440   3.03567   3.03836   3.04248
 Alpha virt. eigenvalues --    3.04373   3.04917   3.05113   3.05348   3.05880
 Alpha virt. eigenvalues --    3.06047   3.06513   3.06849   3.07164   3.07342
 Alpha virt. eigenvalues --    3.07928   3.08400   3.08557   3.08692   3.09304
 Alpha virt. eigenvalues --    3.09733   3.09891   3.09945   3.10453   3.10911
 Alpha virt. eigenvalues --    3.11041   3.11441   3.11713   3.11973   3.12516
 Alpha virt. eigenvalues --    3.12791   3.12817   3.13034   3.13373   3.13784
 Alpha virt. eigenvalues --    3.14028   3.14492   3.14556   3.14857   3.15054
 Alpha virt. eigenvalues --    3.15301   3.15504   3.15818   3.16478   3.17082
 Alpha virt. eigenvalues --    3.17209   3.17784   3.18222   3.18944   3.19379
 Alpha virt. eigenvalues --    3.19849   3.20077   3.20185   3.20684   3.20849
 Alpha virt. eigenvalues --    3.21148   3.21227   3.21288   3.22148   3.22531
 Alpha virt. eigenvalues --    3.22614   3.22944   3.23215   3.23347   3.24152
 Alpha virt. eigenvalues --    3.24239   3.24391   3.24607   3.25431   3.25696
 Alpha virt. eigenvalues --    3.25938   3.26185   3.26659   3.27013   3.27194
 Alpha virt. eigenvalues --    3.27837   3.28061   3.28185   3.28819   3.29054
 Alpha virt. eigenvalues --    3.29436   3.29641   3.29809   3.29985   3.30554
 Alpha virt. eigenvalues --    3.30602   3.31160   3.31731   3.31805   3.32014
 Alpha virt. eigenvalues --    3.32109   3.32493   3.32720   3.33300   3.33477
 Alpha virt. eigenvalues --    3.33675   3.33903   3.34176   3.34274   3.34980
 Alpha virt. eigenvalues --    3.35166   3.35760   3.35850   3.36183   3.36204
 Alpha virt. eigenvalues --    3.36845   3.36923   3.37270   3.37467   3.37971
 Alpha virt. eigenvalues --    3.38310   3.38453   3.38533   3.38857   3.39211
 Alpha virt. eigenvalues --    3.39639   3.39768   3.39962   3.40249   3.40433
 Alpha virt. eigenvalues --    3.41186   3.41338   3.41776   3.42139   3.42457
 Alpha virt. eigenvalues --    3.42713   3.42943   3.43260   3.43483   3.43900
 Alpha virt. eigenvalues --    3.44068   3.44610   3.44682   3.44960   3.45235
 Alpha virt. eigenvalues --    3.45414   3.45928   3.46011   3.46525   3.46722
 Alpha virt. eigenvalues --    3.47012   3.47536   3.47628   3.48022   3.48546
 Alpha virt. eigenvalues --    3.48831   3.49334   3.49740   3.49872   3.50231
 Alpha virt. eigenvalues --    3.50600   3.51064   3.51638   3.52434   3.52527
 Alpha virt. eigenvalues --    3.52828   3.53084   3.53665   3.53884   3.54241
 Alpha virt. eigenvalues --    3.54312   3.54826   3.56009   3.56330   3.56575
 Alpha virt. eigenvalues --    3.57030   3.57184   3.57691   3.58375   3.58527
 Alpha virt. eigenvalues --    3.58831   3.59125   3.59583   3.60073   3.60315
 Alpha virt. eigenvalues --    3.60716   3.61176   3.61480   3.62218   3.62620
 Alpha virt. eigenvalues --    3.63056   3.63738   3.63975   3.64194   3.64907
 Alpha virt. eigenvalues --    3.65460   3.65574   3.66092   3.66531   3.66997
 Alpha virt. eigenvalues --    3.67522   3.67784   3.68023   3.68505   3.68665
 Alpha virt. eigenvalues --    3.68740   3.69345   3.69501   3.69995   3.70552
 Alpha virt. eigenvalues --    3.70702   3.71169   3.72372   3.72643   3.73183
 Alpha virt. eigenvalues --    3.73383   3.73838   3.74943   3.75109   3.75767
 Alpha virt. eigenvalues --    3.76302   3.76791   3.76835   3.77115   3.77449
 Alpha virt. eigenvalues --    3.77824   3.78224   3.78525   3.79359   3.79733
 Alpha virt. eigenvalues --    3.80637   3.80826   3.81195   3.81586   3.82007
 Alpha virt. eigenvalues --    3.82052   3.82710   3.82988   3.83304   3.84003
 Alpha virt. eigenvalues --    3.84609   3.84962   3.85834   3.85913   3.86321
 Alpha virt. eigenvalues --    3.86568   3.87257   3.88035   3.88895   3.89309
 Alpha virt. eigenvalues --    3.89903   3.90645   3.91249   3.91900   3.92142
 Alpha virt. eigenvalues --    3.92429   3.93107   3.93429   3.94729   3.95162
 Alpha virt. eigenvalues --    3.95440   3.95608   3.96366   3.97080   3.97437
 Alpha virt. eigenvalues --    3.97851   3.98531   3.98976   3.99395   3.99898
 Alpha virt. eigenvalues --    4.00702   4.01103   4.02261   4.02402   4.02825
 Alpha virt. eigenvalues --    4.03224   4.03793   4.04086   4.04956   4.05985
 Alpha virt. eigenvalues --    4.06324   4.06598   4.07232   4.08025   4.08914
 Alpha virt. eigenvalues --    4.09212   4.10339   4.10955   4.11326   4.12084
 Alpha virt. eigenvalues --    4.12311   4.12849   4.13573   4.14472   4.14551
 Alpha virt. eigenvalues --    4.15320   4.15983   4.16126   4.16694   4.17591
 Alpha virt. eigenvalues --    4.18139   4.18815   4.19005   4.19516   4.20779
 Alpha virt. eigenvalues --    4.21513   4.21830   4.22134   4.22956   4.23876
 Alpha virt. eigenvalues --    4.24025   4.24313   4.24579   4.25491   4.25738
 Alpha virt. eigenvalues --    4.26621   4.27372   4.27682   4.27868   4.28649
 Alpha virt. eigenvalues --    4.29377   4.29585   4.30353   4.31077   4.31449
 Alpha virt. eigenvalues --    4.32090   4.32903   4.33283   4.34104   4.34159
 Alpha virt. eigenvalues --    4.35752   4.36283   4.37099   4.38090   4.38998
 Alpha virt. eigenvalues --    4.39900   4.40634   4.41056   4.41745   4.42483
 Alpha virt. eigenvalues --    4.42642   4.43948   4.45463   4.45928   4.46582
 Alpha virt. eigenvalues --    4.47865   4.48191   4.48561   4.48817   4.49778
 Alpha virt. eigenvalues --    4.50224   4.50938   4.52671   4.53102   4.53358
 Alpha virt. eigenvalues --    4.53931   4.54651   4.55057   4.56228   4.57037
 Alpha virt. eigenvalues --    4.57263   4.58247   4.60204   4.61945   4.62920
 Alpha virt. eigenvalues --    4.63744   4.64428   4.65231   4.65968   4.66557
 Alpha virt. eigenvalues --    4.67625   4.68345   4.68847   4.69346   4.70211
 Alpha virt. eigenvalues --    4.70974   4.71376   4.71920   4.72809   4.72984
 Alpha virt. eigenvalues --    4.74232   4.75098   4.75875   4.75954   4.77310
 Alpha virt. eigenvalues --    4.77927   4.78407   4.79712   4.80292   4.80312
 Alpha virt. eigenvalues --    4.80754   4.81481   4.81733   4.81994   4.82677
 Alpha virt. eigenvalues --    4.83223   4.84042   4.84668   4.84917   4.85783
 Alpha virt. eigenvalues --    4.86449   4.86918   4.87612   4.88528   4.88684
 Alpha virt. eigenvalues --    4.89993   4.90597   4.91263   4.91551   4.92307
 Alpha virt. eigenvalues --    4.92867   4.93301   4.94063   4.94534   4.95928
 Alpha virt. eigenvalues --    4.96042   4.97324   4.98148   4.98584   4.99278
 Alpha virt. eigenvalues --    4.99644   5.00372   5.00801   5.01610   5.01974
 Alpha virt. eigenvalues --    5.03416   5.03777   5.05216   5.06375   5.06980
 Alpha virt. eigenvalues --    5.07947   5.10627   5.11134   5.11928   5.14672
 Alpha virt. eigenvalues --    5.15887   5.16496   5.17662   5.18134   5.18390
 Alpha virt. eigenvalues --    5.20218   5.20941   5.21269   5.21795   5.22142
 Alpha virt. eigenvalues --    5.22769   5.23180   5.23779   5.24635   5.25562
 Alpha virt. eigenvalues --    5.26382   5.28257   5.31210   5.32559   5.33758
 Alpha virt. eigenvalues --    5.34501   5.35195   5.35338   5.36440   5.38115
 Alpha virt. eigenvalues --    5.39063   5.41560   5.42933   5.44441   5.45489
 Alpha virt. eigenvalues --    5.45964   5.46815   5.47973   5.50447   5.51110
 Alpha virt. eigenvalues --    5.53115   5.53398   5.55827   5.56500   5.57356
 Alpha virt. eigenvalues --    5.59127   5.60816   5.61061   5.61438   5.61983
 Alpha virt. eigenvalues --    5.62469   5.63857   5.64629   5.66108   5.71376
 Alpha virt. eigenvalues --    5.73589   5.74340   5.78072   5.78983   5.79121
 Alpha virt. eigenvalues --    5.80503   5.86368   5.88233   5.89624   5.90677
 Alpha virt. eigenvalues --    5.93579   5.95289   5.96877   5.99328   6.00215
 Alpha virt. eigenvalues --    6.04507   6.06764   6.06898   6.08131   6.10517
 Alpha virt. eigenvalues --    6.11514   6.14402   6.16190   6.17612   6.24077
 Alpha virt. eigenvalues --    6.29084   6.30232   6.32590   6.33360   6.33514
 Alpha virt. eigenvalues --    6.35562   6.38258   6.39510   6.41023   6.44102
 Alpha virt. eigenvalues --    6.46926   6.50251   6.50334   6.64652   6.67298
 Alpha virt. eigenvalues --    6.72688   6.77713   6.82034   6.84810   6.92229
 Alpha virt. eigenvalues --    6.94812   7.02939   7.07643   7.11602   7.15470
 Alpha virt. eigenvalues --    7.17727   7.17918   7.24658   7.25047   9.12503
 Alpha virt. eigenvalues --    9.24531   9.48972  20.00481  22.40490  22.54994
 Alpha virt. eigenvalues --   22.65494  22.80964  22.85632  22.87622  22.90363
 Alpha virt. eigenvalues --   22.92087  22.92596  22.94612  22.98466  23.01355
 Alpha virt. eigenvalues --   23.02617  23.03448  23.08011  23.09095  23.10495
 Alpha virt. eigenvalues --   23.15625  23.21173  23.22934  23.25165  23.26358
 Alpha virt. eigenvalues --   23.33094  23.36747  23.38381  23.43284  23.45431
 Alpha virt. eigenvalues --   23.50440  23.52052  23.55790  23.60272  23.67538
 Alpha virt. eigenvalues --   23.75683  23.80370  23.87739  32.87324  32.89393
 Alpha virt. eigenvalues --   32.91507  33.02558  43.93027  43.94542  43.96255
 Alpha virt. eigenvalues --   43.99150
  Beta  occ. eigenvalues -- -256.34155 -89.00768 -30.08818 -25.92988 -25.92653
  Beta  occ. eigenvalues --  -25.89547 -19.27655 -19.25826 -19.19573 -19.18354
  Beta  occ. eigenvalues --  -14.39070 -14.38795 -14.38729 -14.38247 -10.36794
  Beta  occ. eigenvalues --  -10.35302 -10.25850 -10.25742 -10.25631 -10.25410
  Beta  occ. eigenvalues --  -10.25307 -10.25253 -10.25160 -10.25016 -10.23846
  Beta  occ. eigenvalues --  -10.23583 -10.23520 -10.23480 -10.23298 -10.23061
  Beta  occ. eigenvalues --  -10.23003 -10.22646 -10.22561 -10.22087 -10.21914
  Beta  occ. eigenvalues --  -10.21801 -10.21705 -10.21653 -10.21635 -10.21530
  Beta  occ. eigenvalues --  -10.21299 -10.20824 -10.20557 -10.19571 -10.18731
  Beta  occ. eigenvalues --  -10.18477 -10.18354 -10.17587 -10.17451  -7.99239
  Beta  occ. eigenvalues --   -5.92883  -5.92484  -5.92022  -3.41001  -2.17969
  Beta  occ. eigenvalues --   -2.17253  -2.13000  -1.18071  -1.17155  -1.04176
  Beta  occ. eigenvalues --   -1.02871  -0.98907  -0.98080  -0.97591  -0.96053
  Beta  occ. eigenvalues --   -0.85918  -0.85494  -0.84817  -0.83410  -0.82957
  Beta  occ. eigenvalues --   -0.82862  -0.82301  -0.81509  -0.81215  -0.79821
  Beta  occ. eigenvalues --   -0.78995  -0.78313  -0.77492  -0.76043  -0.75046
  Beta  occ. eigenvalues --   -0.74407  -0.73997  -0.71667  -0.71416  -0.69943
  Beta  occ. eigenvalues --   -0.69099  -0.68635  -0.68181  -0.67441  -0.66893
  Beta  occ. eigenvalues --   -0.64489  -0.63814  -0.60445  -0.60313  -0.57829
  Beta  occ. eigenvalues --   -0.56764  -0.56359  -0.55183  -0.54689  -0.54549
  Beta  occ. eigenvalues --   -0.53955  -0.53204  -0.52869  -0.52531  -0.51856
  Beta  occ. eigenvalues --   -0.50713  -0.50450  -0.50137  -0.49746  -0.48727
  Beta  occ. eigenvalues --   -0.48080  -0.47855  -0.47683  -0.47127  -0.47083
  Beta  occ. eigenvalues --   -0.46988  -0.46693  -0.46042  -0.45845  -0.45621
  Beta  occ. eigenvalues --   -0.45386  -0.45233  -0.45091  -0.44731  -0.44719
  Beta  occ. eigenvalues --   -0.44167  -0.44130  -0.43984  -0.43622  -0.42945
  Beta  occ. eigenvalues --   -0.42555  -0.42388  -0.42186  -0.41846  -0.41768
  Beta  occ. eigenvalues --   -0.41446  -0.41320  -0.40964  -0.40677  -0.40297
  Beta  occ. eigenvalues --   -0.39745  -0.39398  -0.38964  -0.38237  -0.38097
  Beta  occ. eigenvalues --   -0.37879  -0.37203  -0.36866  -0.36392  -0.36068
  Beta  occ. eigenvalues --   -0.35539  -0.35151  -0.34844  -0.34795  -0.34333
  Beta  occ. eigenvalues --   -0.34132  -0.33992  -0.33392  -0.32060  -0.31272
  Beta  occ. eigenvalues --   -0.29827  -0.29501  -0.28874  -0.28448  -0.27911
  Beta  occ. eigenvalues --   -0.26788  -0.25862  -0.25580  -0.23602  -0.20733
  Beta  occ. eigenvalues --   -0.20389  -0.18515  -0.18318
  Beta virt. eigenvalues --   -0.08745  -0.08684  -0.06044  -0.05063  -0.03029
  Beta virt. eigenvalues --   -0.02870  -0.01866  -0.00642   0.00634   0.01470
  Beta virt. eigenvalues --    0.01883   0.01994   0.03324   0.04180   0.04520
  Beta virt. eigenvalues --    0.04859   0.05475   0.05975   0.06329   0.06415
  Beta virt. eigenvalues --    0.06958   0.07029   0.07887   0.08170   0.08670
  Beta virt. eigenvalues --    0.08832   0.08985   0.09543   0.09663   0.10021
  Beta virt. eigenvalues --    0.10349   0.10379   0.10713   0.11435   0.11599
  Beta virt. eigenvalues --    0.12009   0.12061   0.12148   0.12332   0.12749
  Beta virt. eigenvalues --    0.12872   0.13184   0.13362   0.13479   0.14024
  Beta virt. eigenvalues --    0.14123   0.14204   0.14371   0.14701   0.14802
  Beta virt. eigenvalues --    0.14995   0.15453   0.15508   0.15685   0.15894
  Beta virt. eigenvalues --    0.16223   0.16381   0.16623   0.16938   0.17411
  Beta virt. eigenvalues --    0.17670   0.17779   0.18152   0.18292   0.18555
  Beta virt. eigenvalues --    0.18637   0.18893   0.19057   0.19524   0.19927
  Beta virt. eigenvalues --    0.20008   0.20294   0.20561   0.20689   0.20865
  Beta virt. eigenvalues --    0.21179   0.21412   0.21529   0.21645   0.21739
  Beta virt. eigenvalues --    0.22024   0.22183   0.22657   0.22789   0.23005
  Beta virt. eigenvalues --    0.23294   0.23308   0.23562   0.23698   0.23954
  Beta virt. eigenvalues --    0.24127   0.24340   0.24467   0.24692   0.24874
  Beta virt. eigenvalues --    0.25252   0.25351   0.25578   0.25907   0.26166
  Beta virt. eigenvalues --    0.26329   0.26640   0.26857   0.26969   0.27097
  Beta virt. eigenvalues --    0.27705   0.27816   0.28025   0.28458   0.28643
  Beta virt. eigenvalues --    0.29031   0.29180   0.29264   0.29450   0.29762
  Beta virt. eigenvalues --    0.30113   0.30371   0.30481   0.30619   0.31069
  Beta virt. eigenvalues --    0.31501   0.31618   0.32279   0.32313   0.32602
  Beta virt. eigenvalues --    0.32977   0.33168   0.33456   0.33528   0.33800
  Beta virt. eigenvalues --    0.34056   0.34591   0.34922   0.35176   0.35668
  Beta virt. eigenvalues --    0.36054   0.36116   0.36330   0.36580   0.36908
  Beta virt. eigenvalues --    0.37219   0.37367   0.37770   0.38127   0.38229
  Beta virt. eigenvalues --    0.38400   0.38749   0.38902   0.39351   0.39523
  Beta virt. eigenvalues --    0.39693   0.39896   0.40041   0.40370   0.40539
  Beta virt. eigenvalues --    0.40722   0.40934   0.41214   0.41482   0.41797
  Beta virt. eigenvalues --    0.42227   0.42330   0.42477   0.42746   0.43113
  Beta virt. eigenvalues --    0.43280   0.43586   0.43814   0.43855   0.43880
  Beta virt. eigenvalues --    0.44222   0.44376   0.44669   0.44957   0.45231
  Beta virt. eigenvalues --    0.45374   0.45405   0.45861   0.45971   0.46196
  Beta virt. eigenvalues --    0.46429   0.46591   0.46984   0.47194   0.47244
  Beta virt. eigenvalues --    0.47389   0.47595   0.47890   0.48029   0.48239
  Beta virt. eigenvalues --    0.48354   0.48723   0.48909   0.49208   0.49274
  Beta virt. eigenvalues --    0.49681   0.49892   0.49989   0.50287   0.50413
  Beta virt. eigenvalues --    0.50583   0.51028   0.51174   0.51420   0.51587
  Beta virt. eigenvalues --    0.51817   0.52160   0.52391   0.52522   0.52840
  Beta virt. eigenvalues --    0.53038   0.53188   0.53354   0.53448   0.53686
  Beta virt. eigenvalues --    0.54061   0.54218   0.54332   0.54627   0.54759
  Beta virt. eigenvalues --    0.54852   0.55308   0.55588   0.55678   0.55945
  Beta virt. eigenvalues --    0.56045   0.56302   0.56567   0.56689   0.57011
  Beta virt. eigenvalues --    0.57395   0.57525   0.57930   0.58047   0.58202
  Beta virt. eigenvalues --    0.58504   0.58739   0.59293   0.59514   0.59654
  Beta virt. eigenvalues --    0.60022   0.60186   0.60692   0.60738   0.60886
  Beta virt. eigenvalues --    0.61432   0.61722   0.61912   0.62137   0.62431
  Beta virt. eigenvalues --    0.62787   0.63198   0.63260   0.63579   0.63935
  Beta virt. eigenvalues --    0.64163   0.64427   0.64705   0.64850   0.65189
  Beta virt. eigenvalues --    0.65732   0.65866   0.66269   0.66481   0.66514
  Beta virt. eigenvalues --    0.66947   0.67098   0.67327   0.67746   0.67872
  Beta virt. eigenvalues --    0.68211   0.68292   0.68503   0.68902   0.69216
  Beta virt. eigenvalues --    0.69466   0.69796   0.70422   0.70667   0.70845
  Beta virt. eigenvalues --    0.71136   0.71174   0.71871   0.71957   0.72344
  Beta virt. eigenvalues --    0.72567   0.72696   0.72865   0.73422   0.73800
  Beta virt. eigenvalues --    0.74040   0.74132   0.74467   0.74594   0.74925
  Beta virt. eigenvalues --    0.75340   0.75411   0.75911   0.76195   0.76313
  Beta virt. eigenvalues --    0.76705   0.77021   0.77570   0.77776   0.78222
  Beta virt. eigenvalues --    0.78394   0.78835   0.79066   0.79165   0.79523
  Beta virt. eigenvalues --    0.80218   0.80284   0.80722   0.80755   0.80972
  Beta virt. eigenvalues --    0.81493   0.81698   0.81902   0.82539   0.82728
  Beta virt. eigenvalues --    0.83033   0.83635   0.83850   0.84244   0.84640
  Beta virt. eigenvalues --    0.84805   0.85129   0.85512   0.85729   0.86208
  Beta virt. eigenvalues --    0.86332   0.86640   0.87316   0.88054   0.88370
  Beta virt. eigenvalues --    0.88624   0.88854   0.89189   0.89440   0.89729
  Beta virt. eigenvalues --    0.90041   0.90227   0.90662   0.91054   0.91260
  Beta virt. eigenvalues --    0.91435   0.91728   0.91952   0.92461   0.92858
  Beta virt. eigenvalues --    0.93091   0.93284   0.93525   0.93861   0.94224
  Beta virt. eigenvalues --    0.94701   0.95050   0.95371   0.95804   0.96092
  Beta virt. eigenvalues --    0.96246   0.96744   0.97119   0.97249   0.97504
  Beta virt. eigenvalues --    0.97953   0.98405   0.98519   0.98758   0.99285
  Beta virt. eigenvalues --    0.99611   0.99969   1.00122   1.00324   1.00853
  Beta virt. eigenvalues --    1.01169   1.01475   1.01921   1.02239   1.02306
  Beta virt. eigenvalues --    1.02786   1.03092   1.03382   1.03846   1.04510
  Beta virt. eigenvalues --    1.04573   1.04712   1.04814   1.05449   1.05663
  Beta virt. eigenvalues --    1.05968   1.06091   1.06586   1.06996   1.07051
  Beta virt. eigenvalues --    1.07400   1.07495   1.08015   1.08219   1.08743
  Beta virt. eigenvalues --    1.09300   1.09475   1.10121   1.10607   1.10906
  Beta virt. eigenvalues --    1.11241   1.11425   1.11543   1.12206   1.12300
  Beta virt. eigenvalues --    1.12457   1.13518   1.13572   1.14096   1.14364
  Beta virt. eigenvalues --    1.14501   1.15517   1.15821   1.16192   1.16536
  Beta virt. eigenvalues --    1.16686   1.17109   1.17244   1.17856   1.18615
  Beta virt. eigenvalues --    1.19996   1.20397   1.20535   1.21025   1.21475
  Beta virt. eigenvalues --    1.22087   1.22535   1.22828   1.23357   1.23613
  Beta virt. eigenvalues --    1.23948   1.24435   1.24695   1.25065   1.25344
  Beta virt. eigenvalues --    1.25986   1.26487   1.26890   1.27344   1.28114
  Beta virt. eigenvalues --    1.28225   1.28884   1.29145   1.29646   1.30350
  Beta virt. eigenvalues --    1.30359   1.31361   1.31414   1.31845   1.32629
  Beta virt. eigenvalues --    1.32690   1.32962   1.33127   1.33759   1.34235
  Beta virt. eigenvalues --    1.34586   1.35203   1.35957   1.36475   1.36824
  Beta virt. eigenvalues --    1.37119   1.37486   1.37865   1.38432   1.38571
  Beta virt. eigenvalues --    1.39114   1.39365   1.39976   1.40297   1.41281
  Beta virt. eigenvalues --    1.41772   1.41969   1.42284   1.43019   1.43025
  Beta virt. eigenvalues --    1.43885   1.44348   1.45011   1.45388   1.45672
  Beta virt. eigenvalues --    1.46519   1.46840   1.47054   1.47255   1.47760
  Beta virt. eigenvalues --    1.47914   1.48471   1.48738   1.49200   1.49378
  Beta virt. eigenvalues --    1.49580   1.50114   1.50516   1.50763   1.51143
  Beta virt. eigenvalues --    1.51422   1.51486   1.51765   1.52176   1.52434
  Beta virt. eigenvalues --    1.52659   1.52871   1.53418   1.53583   1.53680
  Beta virt. eigenvalues --    1.54592   1.54718   1.54910   1.55144   1.55598
  Beta virt. eigenvalues --    1.55860   1.56462   1.56744   1.56982   1.57303
  Beta virt. eigenvalues --    1.57658   1.57884   1.58140   1.58760   1.58989
  Beta virt. eigenvalues --    1.59304   1.59679   1.60034   1.60543   1.60585
  Beta virt. eigenvalues --    1.61365   1.61473   1.61628   1.61771   1.62184
  Beta virt. eigenvalues --    1.62402   1.62593   1.62870   1.63114   1.63272
  Beta virt. eigenvalues --    1.63630   1.63715   1.63960   1.64497   1.64737
  Beta virt. eigenvalues --    1.65033   1.65297   1.65444   1.66028   1.66131
  Beta virt. eigenvalues --    1.66379   1.66857   1.67156   1.67337   1.67463
  Beta virt. eigenvalues --    1.67582   1.68035   1.68357   1.68630   1.68758
  Beta virt. eigenvalues --    1.68900   1.69273   1.69645   1.70036   1.70230
  Beta virt. eigenvalues --    1.70912   1.71126   1.71621   1.71900   1.72355
  Beta virt. eigenvalues --    1.72444   1.72577   1.73264   1.73492   1.74139
  Beta virt. eigenvalues --    1.74640   1.74858   1.75233   1.75645   1.75880
  Beta virt. eigenvalues --    1.76129   1.76448   1.76700   1.76989   1.77322
  Beta virt. eigenvalues --    1.77548   1.78381   1.78809   1.79622   1.80162
  Beta virt. eigenvalues --    1.80194   1.80953   1.81669   1.81863   1.82096
  Beta virt. eigenvalues --    1.82829   1.83209   1.83810   1.83908   1.84415
  Beta virt. eigenvalues --    1.85300   1.85636   1.85932   1.86379   1.87062
  Beta virt. eigenvalues --    1.87112   1.87680   1.87842   1.88053   1.88896
  Beta virt. eigenvalues --    1.89173   1.89539   1.90073   1.90324   1.90779
  Beta virt. eigenvalues --    1.91457   1.91569   1.92489   1.92759   1.93183
  Beta virt. eigenvalues --    1.93446   1.94119   1.94949   1.95157   1.95496
  Beta virt. eigenvalues --    1.96166   1.96376   1.96603   1.96981   1.97413
  Beta virt. eigenvalues --    1.97935   1.98170   1.98798   1.99158   1.99569
  Beta virt. eigenvalues --    1.99843   2.00470   2.00723   2.00936   2.01136
  Beta virt. eigenvalues --    2.01507   2.01860   2.02200   2.02511   2.03244
  Beta virt. eigenvalues --    2.03374   2.03506   2.03886   2.04090   2.04306
  Beta virt. eigenvalues --    2.05806   2.06134   2.06450   2.06909   2.07599
  Beta virt. eigenvalues --    2.08004   2.08173   2.08465   2.09209   2.09327
  Beta virt. eigenvalues --    2.09786   2.10414   2.10665   2.11198   2.12056
  Beta virt. eigenvalues --    2.12136   2.12670   2.13019   2.13225   2.13731
  Beta virt. eigenvalues --    2.13954   2.14033   2.14380   2.15309   2.15513
  Beta virt. eigenvalues --    2.15937   2.16055   2.16310   2.16773   2.17245
  Beta virt. eigenvalues --    2.17521   2.17676   2.17871   2.18266   2.18959
  Beta virt. eigenvalues --    2.19199   2.19664   2.20438   2.20827   2.21310
  Beta virt. eigenvalues --    2.22202   2.22431   2.22478   2.23179   2.23568
  Beta virt. eigenvalues --    2.24122   2.24453   2.25146   2.25564   2.25909
  Beta virt. eigenvalues --    2.26272   2.27379   2.27688   2.28058   2.28297
  Beta virt. eigenvalues --    2.28556   2.29075   2.29481   2.29574   2.29871
  Beta virt. eigenvalues --    2.30785   2.31137   2.31279   2.31606   2.32415
  Beta virt. eigenvalues --    2.32585   2.32721   2.33790   2.34555   2.34612
  Beta virt. eigenvalues --    2.34947   2.35446   2.36006   2.36236   2.36952
  Beta virt. eigenvalues --    2.37160   2.37698   2.38091   2.38824   2.39140
  Beta virt. eigenvalues --    2.39609   2.40330   2.40656   2.40805   2.41273
  Beta virt. eigenvalues --    2.42312   2.42409   2.43324   2.43608   2.43994
  Beta virt. eigenvalues --    2.44602   2.45199   2.45408   2.46008   2.46444
  Beta virt. eigenvalues --    2.46848   2.47298   2.47749   2.47899   2.48074
  Beta virt. eigenvalues --    2.48779   2.49537   2.49689   2.50214   2.50361
  Beta virt. eigenvalues --    2.50940   2.51215   2.51735   2.52130   2.52475
  Beta virt. eigenvalues --    2.52845   2.53410   2.53824   2.54032   2.54628
  Beta virt. eigenvalues --    2.55200   2.55237   2.55855   2.55996   2.56543
  Beta virt. eigenvalues --    2.56809   2.57254   2.57681   2.58055   2.58333
  Beta virt. eigenvalues --    2.58605   2.59253   2.59495   2.60343   2.60414
  Beta virt. eigenvalues --    2.61275   2.61847   2.62491   2.62661   2.62900
  Beta virt. eigenvalues --    2.63833   2.64257   2.64661   2.65281   2.65474
  Beta virt. eigenvalues --    2.66560   2.66760   2.67371   2.67788   2.68063
  Beta virt. eigenvalues --    2.68558   2.68911   2.69151   2.69555   2.69897
  Beta virt. eigenvalues --    2.69971   2.70196   2.70446   2.70833   2.71266
  Beta virt. eigenvalues --    2.71635   2.72079   2.72933   2.73027   2.73769
  Beta virt. eigenvalues --    2.74307   2.74498   2.74747   2.75054   2.75319
  Beta virt. eigenvalues --    2.75411   2.76214   2.76403   2.76973   2.77250
  Beta virt. eigenvalues --    2.77600   2.77822   2.78364   2.78705   2.79474
  Beta virt. eigenvalues --    2.79702   2.79797   2.79949   2.80187   2.80433
  Beta virt. eigenvalues --    2.81158   2.81532   2.82285   2.82456   2.82786
  Beta virt. eigenvalues --    2.83281   2.83743   2.83849   2.84152   2.84239
  Beta virt. eigenvalues --    2.84563   2.84961   2.85040   2.85882   2.86187
  Beta virt. eigenvalues --    2.86420   2.86758   2.87112   2.87557   2.87908
  Beta virt. eigenvalues --    2.88146   2.88446   2.88960   2.89143   2.89578
  Beta virt. eigenvalues --    2.90086   2.90623   2.91049   2.91234   2.91525
  Beta virt. eigenvalues --    2.92082   2.92199   2.92335   2.92977   2.93351
  Beta virt. eigenvalues --    2.93592   2.93752   2.94082   2.94134   2.94674
  Beta virt. eigenvalues --    2.95079   2.95441   2.95927   2.96097   2.96218
  Beta virt. eigenvalues --    2.96666   2.96828   2.97164   2.97268   2.97456
  Beta virt. eigenvalues --    2.97671   2.98087   2.98508   2.98851   2.99273
  Beta virt. eigenvalues --    2.99435   2.99941   3.00245   3.00384   3.01346
  Beta virt. eigenvalues --    3.01594   3.01969   3.02456   3.02735   3.03013
  Beta virt. eigenvalues --    3.03541   3.03667   3.04016   3.04424   3.04585
  Beta virt. eigenvalues --    3.05076   3.05217   3.05514   3.06049   3.06198
  Beta virt. eigenvalues --    3.06660   3.06997   3.07322   3.07503   3.08322
  Beta virt. eigenvalues --    3.08559   3.08787   3.08984   3.09395   3.10034
  Beta virt. eigenvalues --    3.10137   3.10254   3.10597   3.11049   3.11251
  Beta virt. eigenvalues --    3.11591   3.11887   3.12289   3.12708   3.13001
  Beta virt. eigenvalues --    3.13206   3.13386   3.13654   3.14027   3.14167
  Beta virt. eigenvalues --    3.14662   3.14680   3.15086   3.15380   3.15499
  Beta virt. eigenvalues --    3.16029   3.16064   3.17021   3.17255   3.17582
  Beta virt. eigenvalues --    3.18135   3.18722   3.19427   3.19778   3.20094
  Beta virt. eigenvalues --    3.20433   3.20665   3.20913   3.21101   3.21299
  Beta virt. eigenvalues --    3.21425   3.21810   3.22314   3.22720   3.22819
  Beta virt. eigenvalues --    3.23355   3.23433   3.24098   3.24321   3.24428
  Beta virt. eigenvalues --    3.24620   3.24860   3.25811   3.26117   3.26162
  Beta virt. eigenvalues --    3.26496   3.27104   3.27189   3.27715   3.28062
  Beta virt. eigenvalues --    3.28268   3.28622   3.29087   3.29249   3.29608
  Beta virt. eigenvalues --    3.29829   3.30137   3.30175   3.30725   3.30877
  Beta virt. eigenvalues --    3.31628   3.31880   3.31982   3.32213   3.32436
  Beta virt. eigenvalues --    3.32714   3.33126   3.33495   3.33766   3.33851
  Beta virt. eigenvalues --    3.34136   3.34508   3.34631   3.35399   3.35545
  Beta virt. eigenvalues --    3.35996   3.36030   3.36284   3.36340   3.36975
  Beta virt. eigenvalues --    3.37270   3.37679   3.37928   3.38376   3.38429
  Beta virt. eigenvalues --    3.38586   3.38785   3.39042   3.39602   3.39850
  Beta virt. eigenvalues --    3.39966   3.40087   3.40473   3.40765   3.41382
  Beta virt. eigenvalues --    3.41616   3.41945   3.42382   3.42712   3.43049
  Beta virt. eigenvalues --    3.43248   3.43675   3.43843   3.44046   3.44384
  Beta virt. eigenvalues --    3.44701   3.44993   3.45080   3.45440   3.45695
  Beta virt. eigenvalues --    3.46152   3.46301   3.46771   3.47060   3.47257
[...]
    19 C(13)  Bbb    -0.0007    -0.091    -0.033    -0.030  0.2966  0.9550  0.0026
              Bcc     0.0014     0.190     0.068     0.063  0.9518 -0.2954 -0.0829
 
              Baa    -0.0005     0.040     0.014     0.013  0.0727 -0.6082  0.7904
    20 O(17)  Bbb    -0.0004     0.028     0.010     0.009  0.2298  0.7814  0.5801
              Bcc     0.0009    -0.067    -0.024    -0.022  0.9705 -0.1394 -0.1966
 
              Baa    -0.0007     0.048     0.017     0.016 -0.0988 -0.1319  0.9863
    21 O(17)  Bbb    -0.0006     0.045     0.016     0.015  0.2997  0.9412  0.1559
              Bcc     0.0013    -0.093    -0.033    -0.031  0.9489 -0.3110  0.0535
 
              Baa    -0.0766    -2.953    -1.054    -0.985  0.7697 -0.6356  0.0601
    22 N(14)  Bbb    -0.0545    -2.103    -0.750    -0.701  0.6382  0.7686 -0.0447
              Bcc     0.1311     5.056     1.804     1.686 -0.0178  0.0727  0.9972
 
              Baa    -0.0598    -8.024    -2.863    -2.677 -0.0178  0.0255  0.9995
    23 C(13)  Bbb     0.0116     1.551     0.554     0.517  0.9219 -0.3865  0.0263
              Bcc     0.0482     6.473     2.310     2.159  0.3870  0.9219 -0.0166
 
              Baa    -0.0744    -9.984    -3.562    -3.330  0.0191  0.9979  0.0620
    24 C(13)  Bbb    -0.0727    -9.759    -3.482    -3.255  0.9329  0.0045 -0.3600
              Bcc     0.1471    19.743     7.045     6.585  0.3595 -0.0648  0.9309
 
              Baa    -0.1064   -14.275    -5.094    -4.762  0.0798  0.0891  0.9928
    25 C(13)  Bbb     0.0263     3.526     1.258     1.176  0.0992  0.9903 -0.0968
              Bcc     0.0801    10.750     3.836     3.586  0.9919 -0.1062 -0.0702
 
              Baa    -0.0499    -6.700    -2.391    -2.235  0.0640  0.2557  0.9646
    26 C(13)  Bbb    -0.0047    -0.635    -0.227    -0.212 -0.5007  0.8444 -0.1906
              Bcc     0.0547     7.335     2.617     2.447  0.8633  0.4708 -0.1821
 
              Baa    -0.0032    -0.424    -0.151    -0.142  0.7082  0.2722 -0.6514
    27 C(13)  Bbb     0.0014     0.186     0.066     0.062  0.6330  0.1638  0.7566
              Bcc     0.0018     0.239     0.085     0.080 -0.3126  0.9482  0.0563
 
              Baa    -0.4863   -65.251   -23.283   -21.765  0.5371 -0.4521  0.7121
    28 C(13)  Bbb    -0.4791   -64.296   -22.942   -21.447  0.7847  0.5776 -0.2251
              Bcc     0.9654   129.547    46.226    43.212 -0.3096  0.6797  0.6650
 
              Baa    -0.0284    -3.811    -1.360    -1.271  0.7970 -0.1619  0.5819
    29 C(13)  Bbb    -0.0174    -2.330    -0.831    -0.777 -0.6001 -0.3218  0.7323
              Bcc     0.0458     6.141     2.191     2.048 -0.0686  0.9329  0.3536
 
              Baa    -0.0807    -3.112    -1.110    -1.038  0.6988  0.7054 -0.1184
    30 N(14)  Bbb    -0.0459    -1.772    -0.632    -0.591 -0.6971  0.7088  0.1082
              Bcc     0.1266     4.883     1.742     1.629  0.1603  0.0069  0.9870
 
              Baa    -0.0757   -10.153    -3.623    -3.387  0.0251  0.0767  0.9967
    31 C(13)  Bbb     0.0238     3.194     1.140     1.065  0.3541  0.9317 -0.0806
              Bcc     0.0519     6.959     2.483     2.321  0.9349 -0.3550  0.0038
 
              Baa    -0.1335   -17.920    -6.394    -5.978  0.9020  0.4048 -0.1501
    32 C(13)  Bbb    -0.1235   -16.568    -5.912    -5.527 -0.4172  0.9067 -0.0620
              Bcc     0.2570    34.488    12.306    11.504  0.1110  0.1186  0.9867
 
              Baa    -0.1520   -20.400    -7.279    -6.805  0.0562  0.1277  0.9902
    33 C(13)  Bbb     0.0500     6.703     2.392     2.236  0.9977  0.0315 -0.0606
              Bcc     0.1021    13.697     4.887     4.569 -0.0389  0.9913 -0.1256
 
              Baa    -0.0227    -3.042    -1.085    -1.015  0.9190  0.3761 -0.1178
    34 C(13)  Bbb    -0.0002    -0.032    -0.011    -0.011  0.0232  0.2466  0.9688
              Bcc     0.0229     3.074     1.097     1.025 -0.3935  0.8931 -0.2179
 
              Baa    -0.0023    -0.315    -0.112    -0.105  0.7743 -0.4985  0.3899
    35 C(13)  Bbb    -0.0008    -0.103    -0.037    -0.034  0.5848  0.7991 -0.1396
              Bcc     0.0031     0.417     0.149     0.139 -0.2419  0.3361  0.9102
 
              Baa    -0.4529   -60.778   -21.687   -20.273  0.9910  0.1108  0.0747
    36 C(13)  Bbb    -0.4493   -60.293   -21.514   -20.112 -0.1232  0.9743  0.1886
              Bcc     0.9022   121.071    43.201    40.385 -0.0518 -0.1961  0.9792
 
              Baa    -0.0283    -3.801    -1.356    -1.268  0.5260  0.8213  0.2208
    37 C(13)  Bbb    -0.0123    -1.649    -0.588    -0.550  0.7483 -0.5703  0.3388
              Bcc     0.0406     5.450     1.945     1.818 -0.4042  0.0130  0.9146
 
              Baa    -0.0149    -0.574    -0.205    -0.192  0.2907  0.9537  0.0766
    38 N(14)  Bbb    -0.0064    -0.246    -0.088    -0.082  0.9353 -0.3001  0.1876
              Bcc     0.0213     0.820     0.293     0.274 -0.2019 -0.0171  0.9793
 
              Baa    -0.0174    -2.337    -0.834    -0.780 -0.0560  0.1023  0.9932
    39 C(13)  Bbb    -0.0090    -1.201    -0.429    -0.401  0.9521 -0.2941  0.0840
              Bcc     0.0264     3.538     1.262     1.180  0.3007  0.9503 -0.0809
 
              Baa    -0.0063    -0.851    -0.304    -0.284  0.8446 -0.5288 -0.0843
    40 C(13)  Bbb    -0.0004    -0.053    -0.019    -0.018 -0.2290 -0.4990  0.8358
              Bcc     0.0067     0.904     0.322     0.301  0.4840  0.6866  0.5425
 
              Baa    -0.0139    -1.868    -0.666    -0.623 -0.0348  0.0805  0.9961
    41 C(13)  Bbb     0.0015     0.204     0.073     0.068 -0.5053  0.8585 -0.0871
              Bcc     0.0124     1.663     0.594     0.555  0.8622  0.5064 -0.0108
 
              Baa    -0.0146    -1.953    -0.697    -0.651 -0.4392  0.8836  0.1625
    42 C(13)  Bbb    -0.0091    -1.227    -0.438    -0.409 -0.1126 -0.2336  0.9658
              Bcc     0.0237     3.179     1.135     1.061  0.8913  0.4059  0.2021
 
              Baa    -0.0023    -0.305    -0.109    -0.102  0.0472  0.0130  0.9988
    43 C(13)  Bbb    -0.0012    -0.155    -0.055    -0.052  0.7719 -0.6351 -0.0282
              Bcc     0.0034     0.460     0.164     0.153  0.6339  0.7723 -0.0400
 
              Baa    -0.0019    -0.250    -0.089    -0.083  0.1020 -0.1551  0.9826
    44 C(13)  Bbb    -0.0015    -0.198    -0.071    -0.066 -0.4337  0.8820  0.1843
              Bcc     0.0033     0.448     0.160     0.149  0.8953  0.4449 -0.0227
 
              Baa    -0.0019    -0.249    -0.089    -0.083  0.0756 -0.3589  0.9303
    45 C(13)  Bbb    -0.0011    -0.144    -0.051    -0.048 -0.4908  0.7987  0.3481
              Bcc     0.0029     0.393     0.140     0.131  0.8680  0.4830  0.1158
 
              Baa    -0.0008    -0.110    -0.039    -0.037 -0.2132  0.0850  0.9733
    46 C(13)  Bbb    -0.0007    -0.094    -0.033    -0.031 -0.3259  0.9330 -0.1528
              Bcc     0.0015     0.204     0.073     0.068  0.9210  0.3498  0.1712
 
              Baa    -0.0007     0.047     0.017     0.016 -0.2012 -0.4814  0.8531
    47 O(17)  Bbb    -0.0004     0.031     0.011     0.010 -0.3553  0.8475  0.3944
              Bcc     0.0011    -0.078    -0.028    -0.026  0.9129  0.2237  0.3415
 
              Baa    -0.0007     0.052     0.018     0.017 -0.0852  0.1411  0.9863
    48 O(17)  Bbb    -0.0006     0.047     0.017     0.016 -0.3026  0.9395 -0.1605
              Bcc     0.0014    -0.098    -0.035    -0.033  0.9493  0.3121  0.0374
 
              Baa    -0.0040    -2.122    -0.757    -0.708 -0.0380  0.0970  0.9946
    49 H(1)   Bbb    -0.0025    -1.359    -0.485    -0.453 -0.0651  0.9929 -0.0993
              Bcc     0.0065     3.482     1.242     1.161  0.9972  0.0685  0.0314
 
              Baa    -0.0051    -2.726    -0.973    -0.909  0.8818  0.1847  0.4340
    50 H(1)   Bbb    -0.0042    -2.234    -0.797    -0.745 -0.4229 -0.0977  0.9009
              Bcc     0.0093     4.961     1.770     1.655 -0.2088  0.9779  0.0080
 
              Baa    -0.0149    -7.955    -2.838    -2.653 -0.0585  0.2190  0.9740
    51 H(1)   Bbb    -0.0024    -1.285    -0.458    -0.429  0.8155 -0.5523  0.1732
              Bcc     0.0173     9.240     3.297     3.082  0.5758  0.8044 -0.1463
 
              Baa    -0.0091    -4.829    -1.723    -1.611 -0.0092  0.1389  0.9903
    52 H(1)   Bbb     0.0012     0.659     0.235     0.220  0.4966  0.8602 -0.1161
              Bcc     0.0078     4.170     1.488     1.391  0.8679 -0.4907  0.0769
 
              Baa    -0.0020    -1.048    -0.374    -0.350 -0.0954  0.1601  0.9825
    53 H(1)   Bbb    -0.0016    -0.841    -0.300    -0.281  0.8267  0.5625 -0.0114
              Bcc     0.0035     1.890     0.674     0.630 -0.5545  0.8111 -0.1860
 
              Baa    -0.0015    -0.783    -0.279    -0.261  0.1088  0.1853  0.9766
    54 H(1)   Bbb    -0.0013    -0.712    -0.254    -0.237  0.7067  0.6766 -0.2071
              Bcc     0.0028     1.495     0.533     0.499 -0.6991  0.7127 -0.0573
 
              Baa    -0.0020    -1.059    -0.378    -0.353  0.1230 -0.0149  0.9923
    55 H(1)   Bbb    -0.0016    -0.839    -0.299    -0.280  0.8247  0.5577 -0.0939
              Bcc     0.0036     1.898     0.677     0.633 -0.5520  0.8299  0.0809
 
              Baa    -0.0014    -0.731    -0.261    -0.244 -0.0185  0.2193  0.9755
    56 H(1)   Bbb    -0.0012    -0.663    -0.237    -0.221  0.4966  0.8488 -0.1814
              Bcc     0.0026     1.394     0.498     0.465  0.8678 -0.4811  0.1246
 
              Baa    -0.0017    -0.919    -0.328    -0.306  0.3117  0.8515 -0.4217
    57 H(1)   Bbb    -0.0017    -0.899    -0.321    -0.300  0.0061  0.4420  0.8970
              Bcc     0.0034     1.818     0.649     0.606  0.9502 -0.2822  0.1325
 
              Baa    -0.0015    -0.783    -0.280    -0.261  0.0410  0.7145 -0.6985
    58 H(1)   Bbb    -0.0014    -0.772    -0.276    -0.258  0.3290  0.6504  0.6846
              Bcc     0.0029     1.556     0.555     0.519  0.9434 -0.2579 -0.2084
 
              Baa    -0.0013    -0.683    -0.244    -0.228  0.2724  0.1277  0.9537
    59 H(1)   Bbb    -0.0011    -0.609    -0.217    -0.203  0.4169  0.8776 -0.2366
              Bcc     0.0024     1.292     0.461     0.431  0.8672 -0.4620 -0.1858
 
              Baa    -0.0053    -2.803    -1.000    -0.935 -0.0020 -0.2145  0.9767
    60 H(1)   Bbb    -0.0007    -0.395    -0.141    -0.132  0.9884  0.1481  0.0345
              Bcc     0.0060     3.197     1.141     1.067 -0.1521  0.9654  0.2117
 
              Baa    -0.0051    -2.737    -0.977    -0.913 -0.0457  0.3115  0.9491
    61 H(1)   Bbb    -0.0006    -0.315    -0.113    -0.105  0.9807  0.1950 -0.0167
              Bcc     0.0057     3.053     1.089     1.018 -0.1903  0.9300 -0.3144
 
              Baa    -0.0040    -2.115    -0.755    -0.705  0.0017  0.0503  0.9987
    62 H(1)   Bbb    -0.0013    -0.685    -0.244    -0.229  0.9661  0.2578 -0.0146
              Bcc     0.0052     2.800     0.999     0.934 -0.2582  0.9649 -0.0482
 
              Baa    -0.0725   -38.708   -13.812   -12.912  0.8125  0.5452 -0.2062
    63 H(1)   Bbb     0.0016     0.845     0.301     0.282 -0.4413  0.8065  0.3934
              Bcc     0.0710    37.864    13.511    12.630  0.3808 -0.2286  0.8960
 
              Baa    -0.0123    -6.578    -2.347    -2.194  0.7349 -0.1846  0.6526
    64 H(1)   Bbb    -0.0031    -1.669    -0.596    -0.557 -0.6750 -0.1062  0.7301
              Bcc     0.0155     8.247     2.943     2.751  0.0655  0.9771  0.2026
 
              Baa    -0.0113    -6.047    -2.158    -2.017  0.5399 -0.5215  0.6607
    65 H(1)   Bbb    -0.0104    -5.542    -1.978    -1.849 -0.4089  0.5236  0.7474
              Bcc     0.0217    11.589     4.135     3.866  0.7357  0.6737 -0.0695
 
              Baa    -0.0111    -5.947    -2.122    -1.984  0.0902  0.5726  0.8149
    66 H(1)   Bbb    -0.0093    -4.981    -1.777    -1.661  0.9952 -0.0834 -0.0515
              Bcc     0.0205    10.928     3.900     3.645  0.0385  0.8156 -0.5773
 
              Baa    -0.0065    -3.495    -1.247    -1.166 -0.1973  0.1807  0.9635
    67 H(1)   Bbb     0.0009     0.466     0.166     0.155  0.0246  0.9835 -0.1794
              Bcc     0.0057     3.028     1.081     1.010  0.9800  0.0117  0.1985
 
              Baa    -0.0062    -3.287    -1.173    -1.096  0.3803 -0.0195  0.9246
    68 H(1)   Bbb     0.0007     0.352     0.126     0.117  0.1127  0.9933 -0.0254
              Bcc     0.0055     2.935     1.047     0.979  0.9180 -0.1139 -0.3800
 
              Baa    -0.0061    -3.246    -1.158    -1.083  0.0578  0.1126  0.9920
    69 H(1)   Bbb     0.0015     0.779     0.278     0.260 -0.5880  0.8068 -0.0574
              Bcc     0.0046     2.467     0.880     0.823  0.8068  0.5800 -0.1128
 
              Baa    -0.0691   -36.880   -13.160   -12.302 -0.5868  0.7968  0.1438
    70 H(1)   Bbb     0.0035     1.891     0.675     0.631 -0.2738 -0.3624  0.8909
              Bcc     0.0656    34.989    12.485    11.671  0.7620  0.4834  0.4309
 
              Baa    -0.0103    -5.494    -1.960    -1.832  0.4327 -0.3824  0.8164
    71 H(1)   Bbb    -0.0042    -2.263    -0.807    -0.755  0.7567  0.6464 -0.0983
              Bcc     0.0145     7.756     2.768     2.587 -0.4901  0.6603  0.5691
 
              Baa    -0.0103    -5.498    -1.962    -1.834  0.4121 -0.2625  0.8725
    72 H(1)   Bbb    -0.0019    -0.991    -0.353    -0.330  0.0620  0.9635  0.2606
              Bcc     0.0122     6.489     2.315     2.164  0.9091  0.0533 -0.4133
 
              Baa    -0.0122    -6.490    -2.316    -2.165  0.3858  0.7224  0.5738
    73 H(1)   Bbb    -0.0106    -5.677    -2.026    -1.894 -0.4043 -0.4266  0.8090
              Bcc     0.0228    12.168     4.342     4.059  0.8293 -0.5441  0.1275
 
              Baa    -0.0020    -1.065    -0.380    -0.355 -0.1749  0.0778  0.9815
    74 H(1)   Bbb    -0.0011    -0.567    -0.202    -0.189  0.7355 -0.6524  0.1827
              Bcc     0.0031     1.632     0.582     0.544  0.6545  0.7539  0.0569
 
              Baa    -0.0031    -1.659    -0.592    -0.553 -0.0209  0.1306  0.9912
    75 H(1)   Bbb    -0.0004    -0.203    -0.072    -0.068  0.7713 -0.6287  0.0991
              Bcc     0.0035     1.862     0.664     0.621  0.6361  0.7666 -0.0876
 
              Baa    -0.0020    -1.080    -0.385    -0.360  0.1012  0.2087  0.9727
    76 H(1)   Bbb    -0.0011    -0.592    -0.211    -0.198  0.7436 -0.6654  0.0654
              Bcc     0.0031     1.672     0.597     0.558  0.6609  0.7167 -0.2225
 
              Baa    -0.0014    -0.772    -0.276    -0.258  0.0902  0.0506  0.9946
    77 H(1)   Bbb    -0.0012    -0.631    -0.225    -0.210 -0.5164  0.8564  0.0033
              Bcc     0.0026     1.403     0.501     0.468  0.8516  0.5139 -0.1034
 
              Baa    -0.0017    -0.921    -0.329    -0.307 -0.0042  0.2726  0.9621
    78 H(1)   Bbb    -0.0016    -0.879    -0.314    -0.293 -0.3500  0.9008 -0.2568
              Bcc     0.0034     1.800     0.642     0.601  0.9367  0.3379 -0.0917
 
              Baa    -0.0018    -0.954    -0.340    -0.318 -0.1768 -0.2545  0.9508
    79 H(1)   Bbb    -0.0016    -0.868    -0.310    -0.290 -0.4057  0.8990  0.1652
              Bcc     0.0034     1.822     0.650     0.608  0.8968  0.3565  0.2622
 
              Baa    -0.0015    -0.793    -0.283    -0.265 -0.3224  0.1243  0.9384
    80 H(1)   Bbb    -0.0011    -0.608    -0.217    -0.203 -0.4711  0.8388 -0.2730
              Bcc     0.0026     1.401     0.500     0.467  0.8211  0.5301  0.2118
 
              Baa    -0.0070    -3.716    -1.326    -1.240  0.3055  0.9383 -0.1622
    81 H(1)   Bbb    -0.0056    -3.000    -1.070    -1.001  0.7891 -0.3448 -0.5084
              Bcc     0.0126     6.716     2.396     2.240  0.5329 -0.0273  0.8457
 
              Baa    -0.0007    -0.371    -0.132    -0.124 -0.0567  0.1335  0.9894
    82 H(1)   Bbb    -0.0007    -0.347    -0.124    -0.116 -0.2179  0.9655 -0.1427
              Bcc     0.0013     0.718     0.256     0.239  0.9743  0.2237  0.0257
 
              Baa    -0.0005    -0.282    -0.101    -0.094 -0.0277  0.1221  0.9921
    83 H(1)   Bbb    -0.0005    -0.268    -0.096    -0.090  0.3918  0.9144 -0.1016
              Bcc     0.0010     0.551     0.197     0.184  0.9196 -0.3859  0.0732
 

 ---------------------------------------------------------------------------------

 1\1\GINC-NODE359\SP\UPBE1PBE\def2TZVP\C35H38Fe1N4O4S1(5)\ZHARTOVSKA\10
 -Feb-2023\0\\# PBE1PBE/def2TZVP empiricaldispersion=GD3BJ int=(grid=ul
 trafine) geom=check guess=read scrf=(smd,solvent=Chloroform)\\7abb_II_
 Q_solv\\0,5\C,0,19.013,33.007,0.\S,0,17.620001,31.940001,-0.421\H,0,19
 .81865665,32.826975,-0.68074104\H,0,19.33539461,32.79547389,0.99810742
 \H,0,17.968,30.794001,-0.343\Fe,0,17.671,31.629999,-2.674\C,0,18.753,3
 4.761002,-3.605\C,0,20.927999,30.569,-2.703\C,0,16.618999,28.513,-1.70
 6\C,0,14.422,32.592999,-3.008\N,0,19.451,32.483002,-3.087\C,0,19.71400
 1,33.813999,-3.411\C,0,21.136,34.058998,-3.537\C,0,21.722,32.877998,-3
 .27\C,0,20.698999,31.899,-2.995\C,0,23.225,32.546001,-3.277\C,0,21.834
 ,35.426998,-3.866\C,0,22.007999,35.691002,-5.356\C,0,22.739,37.007,-5.
 561\O,0,22.829,37.383999,-6.752\O,0,23.191999,37.610001,-4.553\N,0,18.
 580999,29.871,-2.336\C,0,19.945,29.643999,-2.353\C,0,20.162001,28.2940
 01,-1.927\C,0,18.973,27.739,-1.629\C,0,17.962999,28.702,-1.902\C,0,21.
 586,27.712,-1.824\C,0,18.559999,26.368,-1.159\C,0,19.643,25.496,-0.611
 \N,0,15.858,30.73,-2.443\C,0,15.657,29.462999,-1.945\C,0,14.248,29.26,
 -1.738\C,0,13.604,30.396,-2.089\C,0,14.618,31.315001,-2.552\C,0,13.652
 ,27.966999,-1.178\C,0,12.107,30.747,-2.11\C,0,11.13,29.934999,-1.26\N,
 0,16.783001,33.330002,-3.227\C,0,15.399,33.494999,-3.284\C,0,15.133,34
 .841999,-3.68\C,0,16.438,35.529999,-3.875\C,0,17.419001,34.518002,-3.5
 49\C,0,13.737,35.445,-3.881\C,0,16.691999,36.984001,-4.309\C,0,16.819,
 37.819,-3.058\C,0,17.174,39.248001,-3.421\O,0,17.040001,40.138,-2.554\
 O,0,17.584999,39.463001,-4.579\H,0,19.045,35.676998,-3.797\H,0,21.854,
 30.25,-2.744\H,0,16.323999,27.639,-1.373\H,0,13.495,32.881001,-3.147\H
 ,0,23.496,32.238998,-2.387\H,0,23.735001,33.348,-3.515\H,0,23.4,31.841
 ,-3.935\H,0,22.709,35.435001,-3.447\H,0,21.302999,36.144001,-3.486\H,0
 ,21.136,35.736,-5.78\H,0,22.521999,34.971001,-5.754\H,0,21.665001,26.9
 45999,-2.414\H,0,21.757,27.436001,-0.91\H,0,22.231001,28.388,-2.083\H,
 0,18.124001,25.908001,-1.88\H,0,20.316999,25.351,-1.294\H,0,19.267,24.
 643999,-0.341\H,0,20.049,25.929001,0.157\H,0,13.04,27.586,-1.827\H,0,1
 3.174,28.16,-0.357\H,0,14.365,27.334999,-0.997\H,0,12.001,31.677999,-1
 .904\H,0,10.686,30.521999,-0.628\H,0,11.615,29.247999,-0.777\H,0,10.46
 8,29.52,-1.835\H,0,13.617,36.201,-3.27\H,0,13.057,34.764,-3.696\H,0,13
 .646,35.755001,-4.806\H,0,15.948,37.303001,-4.843\H,0,17.513,37.035999
 ,-4.824\H,0,17.514999,37.448002,-2.494\H,0,15.976,37.808998,-2.578\H,0
 ,18.71095013,34.0312455,-0.06772759\H,0,18.52811021,39.49572768,-4.755
 26745\H,0,24.14041408,37.68633406,-4.42539868\\Version=ES64L-G16RevA.0
 3\State=5-A\HF=-3536.3189835\S2=6.153346\S2-1=0.\S2A=6.006516\RMSD=1.8
 30e-09\Dipole=2.4722292,-1.8666636,1.1279509\Quadrupole=36.7400423,-17
 .2930575,-19.4469848,9.8036502,7.5325858,-4.200405\PG=C01 [X(C35H38Fe1
 N4O4S1)]\\@


 THERE IS AN OLD, OLD RECIPE IN MAINE FOR STEWING COOT. PLACE THE
 BIRD IN A KETTLE OF WATER WITH A RED BUILDING BRICK FREE OF MORTAR AND
 BLEMISHES. PARBOIL THE COOT AND BRICK TOGETHER FOR THREE HOURS.
 POUR OFF THE WATER, REFILL THE KETTLE, AND AGAIN PARBOIL FOR THREE HOURS.
 ONCE AGAIN POUR OFF THE WATER, FOR THE LAST TIME ADD FRESH WATER,
 AND LET THE COOT AND BRICK SIMMER TOGETHER OVERNIGHT. IN THE MORNING,
 THROW AWAY THE COOT AND EAT THE BRICK.
 Job cpu time:       4 days  4 hours 35 minutes 44.4 seconds.
 Elapsed time:       1 days  2 hours 16 minutes 50.0 seconds.
 File lengths (MBytes):  RWF=   3096 Int=      0 D2E=      0 Chk=    220 Scr=      1
 Normal termination of Gaussian 16 at Fri Feb 10 16:53:41 2023.
