 Entering Gaussian System, Link 0=g16
 Input=/net/homes/chemie/zhartovska/work/BioModel/Konrad/7aba/7aba05/7aba05.com
 Output=/net/homes/chemie/zhartovska/work/BioModel/Konrad/7aba/7aba05/7aba05.log
 Initial command:
 /afs/math/software/gaussian/g16.A03/g16/l1.exe "/scratch/zhartovska_gaussian.pJIDZEF/Gau-24582.inp" -scrdir="/scratch/zhartovska_gaussian.pJIDZEF/"
 Entering Link 1 = /afs/math/software/gaussian/g16.A03/g16/l1.exe PID=     24583.
  
 Copyright (c) 1988,1990,1992,1993,1995,1998,2003,2009,2016,
            Gaussian, Inc.  All Rights Reserved.
  
 This is part of the Gaussian(R) 16 program.  It is based on
 the Gaussian(R) 09 system (copyright 2009, Gaussian, Inc.),
 the Gaussian(R) 03 system (copyright 2003, Gaussian, Inc.),
 the Gaussian(R) 98 system (copyright 1998, Gaussian, Inc.),
 the Gaussian(R) 94 system (copyright 1995, Gaussian, Inc.),
 the Gaussian 92(TM) system (copyright 1992, Gaussian, Inc.),
 the Gaussian 90(TM) system (copyright 1990, Gaussian, Inc.),
 the Gaussian 88(TM) system (copyright 1988, Gaussian, Inc.),
 the Gaussian 86(TM) system (copyright 1986, Carnegie Mellon
 University), and the Gaussian 82(TM) system (copyright 1983,
 Carnegie Mellon University). Gaussian is a federally registered
 trademark of Gaussian, Inc.
  
 This software contains proprietary and confidential information,
 including trade secrets, belonging to Gaussian, Inc.
  
 This software is provided under written license and may be
 used, copied, transmitted, or stored only in accord with that
 written license.
  
 The following legend is applicable only to US Government
 contracts under FAR:
  
                    RESTRICTED RIGHTS LEGEND
  
 Use, reproduction and disclosure by the US Government is
 subject to restrictions as set forth in subparagraphs (a)
 and (c) of the Commercial Computer Software - Restricted
 Rights clause in FAR 52.227-19.
  
 Gaussian, Inc.
 340 Quinnipiac St., Bldg. 40, Wallingford CT 06492
  
  
 ---------------------------------------------------------------
 Warning -- This program may not be used in any manner that
 competes with the business of Gaussian, Inc. or will provide
 assistance to any competitor of Gaussian, Inc.  The licensee
 of this program is prohibited from giving any competitor of
 Gaussian, Inc. access to this program.  By using this program,
 the user acknowledges that Gaussian, Inc. is engaged in the
 business of creating and licensing software in the field of
 computational chemistry and represents and warrants to the
 licensee that it is not a competitor of Gaussian, Inc. and that
 it will not use this program in any manner prohibited above.
 ---------------------------------------------------------------
  

 Cite this work as:
 Gaussian 16, Revision A.03,
 M. J. Frisch, G. W. Trucks, H. B. Schlegel, G. E. Scuseria, 
 M. A. Robb, J. R. Cheeseman, G. Scalmani, V. Barone, 
 G. A. Petersson, H. Nakatsuji, X. Li, M. Caricato, A. V. Marenich, 
 J. Bloino, B. G. Janesko, R. Gomperts, B. Mennucci, H. P. Hratchian, 
 J. V. Ortiz, A. F. Izmaylov, J. L. Sonnenberg, D. Williams-Young, 
 F. Ding, F. Lipparini, F. Egidi, J. Goings, B. Peng, A. Petrone, 
 T. Henderson, D. Ranasinghe, V. G. Zakrzewski, J. Gao, N. Rega, 
 G. Zheng, W. Liang, M. Hada, M. Ehara, K. Toyota, R. Fukuda, 
 J. Hasegawa, M. Ishida, T. Nakajima, Y. Honda, O. Kitao, H. Nakai, 
 T. Vreven, K. Throssell, J. A. Montgomery, Jr., J. E. Peralta, 
 F. Ogliaro, M. J. Bearpark, J. J. Heyd, E. N. Brothers, K. N. Kudin, 
 V. N. Staroverov, T. A. Keith, R. Kobayashi, J. Normand, 
 K. Raghavachari, A. P. Rendell, J. C. Burant, S. S. Iyengar, 
 J. Tomasi, M. Cossi, J. M. Millam, M. Klene, C. Adamo, R. Cammi, 
 J. W. Ochterski, R. L. Martin, K. Morokuma, O. Farkas, 
 J. B. Foresman, and D. J. Fox, Gaussian, Inc., Wallingford CT, 2016.
 
 ******************************************
 Gaussian 16:  ES64L-G16RevA.03 25-Dec-2016
                 7-Feb-2023 
 ******************************************
 %nprocs=12
 Will use up to   12 processors via shared memory.
 %mem=16GB
 %oldchk=7aba_II_S.chk
 %chk=7aba_II_Q.chk
 Copying data from "7aba_II_S.chk" to current chk file "7aba_II_Q.chk"
 IOpt=  2 FromEx=T IUOpen= 4 IOptOp= 5 NList=   0 IFRang= 0 IUIn= 4 IUOut= 2.
 ----------------------------------------------------------------------
 # PBE1PBE/def2TZVP scf=maxcycle=999 empiricaldispersion=GD3BJ int=(gri
 d=ultrafine) geom=check pop=nbo
 ----------------------------------------------------------------------
 1/29=2,38=1,172=1/1;
 2/12=2,40=1/2;
 3/5=44,7=101,11=2,14=-4,25=1,30=1,74=-13,75=-5,124=41/1,2,3;
 4//1;
 5/5=2,7=999,38=5/2;
 6/7=2,8=2,9=2,10=2,28=1,40=1/1,7;
 99/5=1,9=1/99;
 ---------
 7aba_II_Q
 ---------
 Structure from the checkpoint file:  "7aba_II_Q.chk"
 Charge =  0 Multiplicity = 5
 Z-Matrix found in chk file.
 C,0,-14.889,54.069,70.706001
 S,0,-13.56687816,53.23681395,71.55914824
 H,0,-14.71447753,54.02772584,69.65113686
 H,0,-14.92941031,55.09074665,71.02112128
 Fe,0,-12.781,51.564999,70.043999
 C,0,-15.843,50.682999,68.737
 C,0,-12.326,53.716,67.419998
 C,0,-9.747,52.481998,71.356003
 C,0,-13.053,49.152,72.466003
 N,0,-13.869,52.075001,68.365997
 C,0,-15.15,51.650002,68.069
 C,0,-15.627,52.391998,66.917999
 C,0,-14.639,53.238998,66.559998
 C,0,-13.527,53.050999,67.460999
 C,0,-14.645,54.251999,65.389999
 C,0,-17.028,52.222,66.265999
 C,0,-17.002001,51.117001,65.213997
 C,0,-18.334,50.995998,64.522003
 O,0,-18.487,50.035999,63.722
 O,0,-19.242001,51.830002,64.787003
 N,0,-11.304,52.825001,69.476997
 C,0,-11.327,53.639999,68.362999
 C,0,-10.103,54.414001,68.347
 C,0,-9.404,54.094002,69.454002
 C,0,-10.144,53.075001,70.178001
 C,0,-9.761,55.442001,67.245003
 C,0,-8.016,54.580002,69.919998
 C,0,-7.736,56.070999,69.75
 N,0,-11.586,50.897999,71.608002
 C,0,-10.422,51.490002,72.029999
 C,0,-10.017,50.861,73.273003
 C,0,-10.958,49.946999,73.593002
 C,0,-11.948,49.958,72.541
 C,0,-8.763,51.266998,74.074997
 C,0,-11.024,48.997002,74.808998
 C,0,-10.762,49.757999,76.116997
 N,0,-14.204,50.165001,70.511002
 C,0,-14.082,49.261002,71.561996
 C,0,-15.236,48.397999,71.57
 C,0,-16.113001,48.882,70.422997
 C,0,-15.391,49.972,69.817001
 C,0,-15.519,47.251999,72.560997
 C,0,-17.473,48.306,69.971001
 C,0,-18.58,49.112,70.639999
 C,0,-19.937,48.653,70.149002
 O,0,-20.945999,48.976002,70.82
 O,0,-19.999001,47.983002,69.097
 H,0,-16.746,50.479,68.415001
 H,0,-12.166,54.299,66.649002
 H,0,-8.907,52.794998,71.75
 H,0,-13.116,48.425999,73.121002
 H,0,-14.522,55.158001,65.741997
 H,0,-15.501,54.198002,64.917
 H,0,-13.916,54.040001,64.771004
 H,0,-17.289,53.056999,65.846001
 H,0,-17.674999,51.993999,66.953003
 H,0,-16.789,50.273998,65.642998
 H,0,-16.319,51.320999,64.556
 H,0,-8.939,55.18,66.803001
 H,0,-9.648,56.318001,67.644997
 H,0,-10.482,55.473,66.597
 H,0,-7.339,54.080002,69.459
 H,0,-7.551,56.466,70.615997
 H,0,-8.51,56.502998,69.356003
 H,0,-6.969,56.192001,69.168999
 H,0,-8.166,50.506001,74.149002
 H,0,-9.027,51.558998,74.961998
 H,0,-8.308,51.992001,73.619003
 H,0,-10.359,48.312,74.708
 H,0,-11.533,49.674999,76.698997
 H,0,-10.605,50.694,75.919998
 H,0,-9.983,49.384998,76.556999
 H,0,-16.356001,47.431,73.038002
 H,0,-14.783,47.188,73.206001
 H,0,-15.597,46.407001,72.07
 H,0,-17.538,47.375999,70.237
 H,0,-17.552999,48.376999,69.007004
 H,0,-18.465,50.051998,70.43
 H,0,-18.528999,48.990002,71.600998
 H,0,-15.8178708,53.58877419,70.93289792
 H,0,-12.41558708,53.67322748,71.11174228
 H,0,-20.83850179,49.38977186,71.67955736
 H,0,-17.72011108,49.59236862,63.35230625
 Recover connectivity data from disk.
 Stoichiometry    C35H38FeN4O4S(5)
 Framework group  C1[X(C35H38FeN4O4S)]
 Deg. of freedom   243
 Full point group                 C1      NOp   1
 Largest Abelian subgroup         C1      NOp   1
 Largest concise Abelian subgroup C1      NOp   1
                         Standard orientation:                         
 ---------------------------------------------------------------------
 Center     Atomic      Atomic             Coordinates (Angstroms)
 Number     Number       Type             X           Y           Z
 ---------------------------------------------------------------------
      1          6           0       -0.118224   -0.702271    2.897958
      2         16           0       -1.406411    0.228413    2.096209
      3          1           0        0.177730   -1.516147    2.269533
      4          1           0       -0.481049   -1.084367    3.829226
      5         26           0       -1.025748   -0.040943   -0.247034
      6          6           0        2.415686    0.050262   -0.145902
      7          6           0       -0.897602   -3.460436   -0.147775
      8          6           0       -4.454013   -0.144907   -0.306964
      9          6           0       -1.161091    3.352786   -0.723413
     10          7           0        0.484626   -1.446552   -0.196339
     11          6           0        1.835479   -1.182458   -0.072886
     12          6           0        2.534139   -2.436902    0.129932
     13          6           0        1.599721   -3.410852    0.131552
     14          6           0        0.306234   -2.803567   -0.072867
     15          6           0        1.824806   -4.931441    0.311133
     16          6           0        4.069998   -2.580711    0.322960
     17          6           0        4.772627   -2.709160   -1.025454
     18          6           0        6.252100   -2.926202   -0.847213
     19          8           0        6.968333   -2.919073   -1.882574
     20          8           0        6.715372   -3.075524    0.316117
     21          7           0       -2.407834   -1.517475   -0.264848
     22          6           0       -2.139322   -2.869890   -0.196899
     23          6           0       -3.402096   -3.579010   -0.189154
     24          6           0       -4.386460   -2.658509   -0.201824
     25          6           0       -3.774892   -1.342379   -0.264460
     26          6           0       -3.512439   -5.119045   -0.123869
     27          6           0       -5.916593   -2.849942   -0.245842
     28          6           0       -6.480411   -3.950701    0.649039
     29          7           0       -2.541036    1.355100   -0.519039
     30          6           0       -3.885439    1.104613   -0.403792
     31          6           0       -4.589055    2.372673   -0.444726
     32          6           0       -3.662313    3.350459   -0.536172
     33          6           0       -2.366241    2.714922   -0.592921
     34          6           0       -6.120734    2.512013   -0.321897
     35          6           0       -3.860200    4.880278   -0.613556
     36          6           0       -4.829926    5.365658    0.473946
     37          7           0        0.387365    1.435738   -0.406850
     38          6           0        0.081976    2.777110   -0.616960
     39          6           0        1.310348    3.522519   -0.726610
     40          6           0        2.423512    2.501990   -0.530676
     41          6           0        1.760134    1.235653   -0.349188
     42          6           0        1.446162    5.039801   -0.960891
     43          6           0        3.946992    2.754695   -0.559332
     44          6           0        4.423574    2.967774    0.872489
     45          6           0        5.929985    3.117838    0.910109
     46          8           0        6.446736    3.613072    1.939847
     47          8           0        6.595460    2.736606   -0.075413
     48          1           0        3.389600    0.091125   -0.043288
     49          1           0       -0.870051   -4.439618   -0.166984
     50          1           0       -5.431390   -0.186626   -0.264591
     51          1           0       -1.187675    4.314020   -0.911546
     52          1           0        1.334561   -5.243080    1.100064
     53          1           0        2.781088   -5.107267    0.429412
     54          1           0        1.501489   -5.405248   -0.482915
     55          1           0        4.253036   -3.371211    0.855265
     56          1           0        4.408813   -1.797861    0.786553
     57          1           0        4.629787   -1.898231   -1.537368
     58          1           0        4.396691   -3.461413   -1.509037
     59          1           0       -3.977093   -5.443036   -0.910520
     60          1           0       -4.006010   -5.373604    0.670943
     61          1           0       -2.623525   -5.505571   -0.090108
     62          1           0       -6.184701   -3.015615   -1.152219
     63          1           0       -7.104013   -3.564219    1.283038
     64          1           0       -5.755547   -4.380692    1.129261
     65          1           0       -6.939753   -4.607767    0.103364
     66          1           0       -6.472574    2.931635   -1.122602
     67          1           0       -6.334741    3.058528    0.450924
     68          1           0       -6.518045    1.633695   -0.215662
     69          1           0       -4.218656    5.106750   -1.474877
     70          1           0       -4.377458    6.000747    1.050131
     71          1           0       -5.130086    4.608835    0.999948
     72          1           0       -5.593659    5.793579    0.057811
     73          1           0        1.931105    5.444530   -0.211777
     74          1           0        0.554055    5.441716   -1.027454
     75          1           0        1.938837    5.199242   -1.793377
     76          1           0        4.136793    3.544209   -1.088978
     77          1           0        4.397733    1.986676   -0.943664
     78          1           0        4.164364    2.206041    1.414239
     79          1           0        4.012698    3.770169    1.230746
     80          1           0        0.723007   -0.065756    3.077064
     81          1           0       -2.338629   -0.589793    1.674772
     82          1           0        5.888442    3.996905    2.619979
     83          1           0        6.569277   -3.065684   -2.743306
 ---------------------------------------------------------------------
 Rotational constants (GHZ):           0.0845031           0.0498238           0.0336740
 Standard basis: def2TZVP (5D, 7F)
 There are  1870 symmetry adapted cartesian basis functions of A   symmetry.
 There are  1643 symmetry adapted basis functions of A   symmetry.
  1643 basis functions,  2668 primitive gaussians,  1870 cartesian basis functions
   177 alpha electrons      173 beta electrons
       nuclear repulsion energy      6578.4296979982 Hartrees.
 NAtoms=   83 NActive=   83 NUniq=   83 SFac= 1.00D+00 NAtFMM=   60 NAOKFM=T Big=T
 Integral buffers will be    131072 words long.
 Raffenetti 2 integral format.
 Two-electron integral symmetry is turned on.
 Nuclear repulsion after empirical dispersion term =     6578.3100339766 Hartrees.
 One-electron integrals computed using PRISM.
   1 Symmetry operations used in ECPInt.
 ECPInt:  NShTT=  213531 NPrTT=  664131 LenC2=  153040 LenP2D=  310484.
 LDataN:  DoStor=T MaxTD1= 6 Len=  172
 NBasis=  1643 RedAO= T EigKep=  3.25D-06  NBF=  1643
 NBsUse=  1643 1.00D-06 EigRej= -1.00D+00 NBFU=  1643
 ExpMin= 4.20D-02 ExpMax= 3.01D+05 ExpMxC= 2.91D+03 IAcc=3 IRadAn=         5 AccDes= 0.00D+00
 Harris functional with IExCor= 1009 and IRadAn=       5 diagonalized for initial guess.
 HarFok:  IExCor= 1009 AccDes= 0.00D+00 IRadAn=         5 IDoV= 1 UseB2=F ITyADJ=14
 ICtDFT=  3500011 ScaDFX=  1.000000  1.000000  1.000000  1.000000
 FoFCou: FMM=F IPFlag=           0 FMFlag=      100000 FMFlg1=        2001
         NFxFlg=           0 DoJE=T BraDBF=F KetDBF=T FulRan=T
         wScrn=  0.000000 ICntrl=       500 IOpCl=  0 I1Cent=   200000004 NGrid=           0
         NMat0=    1 NMatS0=      1 NMatT0=    0 NMatD0=    1 NMtDS0=    0 NMtDT0=    0
 Petite list used in FoFCou.
 Initial guess <Sx>= 0.0000 <Sy>= 0.0000 <Sz>= 2.0000 <S**2>= 6.0000 S= 2.0000
 Requested convergence on RMS density matrix=1.00D-08 within 999 cycles.
 Requested convergence on MAX density matrix=1.00D-06.
 Requested convergence on             energy=1.00D-06.
 No special actions if energy rises.
 EnCoef did     2 forward-backward iterations
 EnCoef did   100 forward-backward iterations
 EnCoef did   100 forward-backward iterations
 EnCoef did   100 forward-backward iterations
 EnCoef did     2 forward-backward iterations
 EnCoef did     2 forward-backward iterations
 EnCoef did     2 forward-backward iterations
 EnCoef did     3 forward-backward iterations
 EnCoef did     1 forward-backward iterations
 EnCoef did     1 forward-backward iterations
 Rare condition: small coef for last iteration:  0.000D+00
 EnCoef did    92 forward-backward iterations
 Rare condition: small coef for last iteration:  0.000D+00
 Restarting incremental Fock formation.
 Restarting incremental Fock formation.
 SCF Done:  E(UPBE1PBE) =  -3536.30200285     A.U. after   60 cycles
            NFock= 60  Conv=0.16D-08     -V/T= 2.0014
 <Sx>= 0.0000 <Sy>= 0.0000 <Sz>= 2.0000 <S**2>= 7.0596 S= 2.2036
 <L.S>= 0.000000000000E+00
 Annihilation of the first spin contaminant:
 S**2 before annihilation     7.0596,   after     6.0680

 **********************************************************************

            Population analysis using the SCF density.

 **********************************************************************

 Orbital symmetries:
 Alpha Orbitals:
       Occupied  (A) (A) (A) (A) (A) (A) (A) (A) (A) (A) (A) (A)
                 (A) (A) (A) (A) (A) (A) (A) (A) (A) (A) (A) (A)
                 (A) (A) (A) (A) (A) (A) (A) (A) (A) (A) (A) (A)
                 (A) (A) (A) (A) (A) (A) (A) (A) (A) (A) (A) (A)
                 (A) (A) (A) (A) (A) (A) (A) (A) (A) (A) (A) (A)
                 (A) (A) (A) (A) (A) (A) (A) (A) (A) (A) (A) (A)
                 (A) (A) (A) (A) (A) (A) (A) (A) (A) (A) (A) (A)
                 (A) (A) (A) (A) (A) (A) (A) (A) (A) (A) (A) (A)
                 (A) (A) (A) (A) (A) (A) (A) (A) (A) (A) (A) (A)
                 (A) (A) (A) (A) (A) (A) (A) (A) (A) (A) (A) (A)
                 (A) (A) (A) (A) (A) (A) (A) (A) (A) (A) (A) (A)
                 (A) (A) (A) (A) (A) (A) (A) (A) (A) (A) (A) (A)
                 (A) (A) (A) (A) (A) (A) (A) (A) (A) (A) (A) (A)
                 (A) (A) (A) (A) (A) (A) (A) (A) (A) (A) (A) (A)
                 (A) (A) (A) (A) (A) (A) (A) (A) (A)
       Virtual   (A) (A) (A) (A) (A) (A) (A) (A) (A) (A) (A) (A)
                 (A) (A) (A) (A) (A) (A) (A) (A) (A) (A) (A) (A)
                 (A) (A) (A) (A) (A) (A) (A) (A) (A) (A) (A) (A)
                 (A) (A) (A) (A) (A) (A) (A) (A) (A) (A) (A) (A)
                 (A) (A) (A) (A) (A) (A) (A) (A) (A) (A) (A) (A)
                 (A) (A) (A) (A) (A) (A) (A) (A) (A) (A) (A) (A)
                 (A) (A) (A) (A) (A) (A) (A) (A) (A) (A) (A) (A)
                 (A) (A) (A) (A) (A) (A) (A) (A) (A) (A) (A) (A)
                 (A) (A) (A) (A) (A) (A) (A) (A) (A) (A) (A) (A)
                 (A) (A) (A) (A) (A) (A) (A) (A) (A) (A) (A) (A)
                 (A) (A) (A) (A) (A) (A) (A) (A) (A) (A) (A) (A)
                 (A) (A) (A) (A) (A) (A) (A) (A) (A) (A) (A) (A)
                 (A) (A) (A) (A) (A) (A) (A) (A) (A) (A) (A) (A)
                 (A) (A) (A) (A) (A) (A) (A) (A) (A) (A) (A) (A)
                 (A) (A) (A) (A) (A) (A) (A) (A) (A) (A) (A) (A)
                 (A) (A) (A) (A) (A) (A) (A) (A) (A) (A) (A) (A)
                 (A) (A) (A) (A) (A) (A) (A) (A) (A) (A) (A) (A)
                 (A) (A) (A) (A) (A) (A) (A) (A) (A) (A) (A) (A)
                 (A) (A) (A) (A) (A) (A) (A) (A) (A) (A) (A) (A)
                 (A) (A) (A) (A) (A) (A) (A) (A) (A) (A) (A) (A)
                 (A) (A) (A) (A) (A) (A) (A) (A) (A) (A) (A) (A)
                 (A) (A) (A) (A) (A) (A) (A) (A) (A) (A) (A) (A)
                 (A) (A) (A) (A) (A) (A) (A) (A) (A) (A) (A) (A)
                 (A) (A) (A) (A) (A) (A) (A) (A) (A) (A) (A) (A)
                 (A) (A) (A) (A) (A) (A) (A) (A) (A) (A) (A) (A)
                 (A) (A) (A) (A) (A) (A) (A) (A) (A) (A) (A) (A)
                 (A) (A) (A) (A) (A) (A) (A) (A) (A) (A) (A) (A)
                 (A) (A) (A) (A) (A) (A) (A) (A) (A) (A) (A) (A)
                 (A) (A) (A) (A) (A) (A) (A) (A) (A) (A) (A) (A)
                 (A) (A) (A) (A) (A) (A) (A) (A) (A) (A) (A) (A)
                 (A) (A) (A) (A) (A) (A) (A) (A) (A) (A) (A) (A)
                 (A) (A) (A) (A) (A) (A) (A) (A) (A) (A) (A) (A)
                 (A) (A) (A) (A) (A) (A) (A) (A) (A) (A) (A) (A)
                 (A) (A) (A) (A) (A) (A) (A) (A) (A) (A) (A) (A)
                 (A) (A) (A) (A) (A) (A) (A) (A) (A) (A) (A) (A)
                 (A) (A) (A) (A) (A) (A) (A) (A) (A) (A) (A) (A)
                 (A) (A) (A) (A) (A) (A) (A) (A) (A) (A) (A) (A)
                 (A) (A) (A) (A) (A) (A) (A) (A) (A) (A) (A) (A)
                 (A) (A) (A) (A) (A) (A) (A) (A) (A) (A) (A) (A)
                 (A) (A) (A) (A) (A) (A) (A) (A) (A) (A) (A) (A)
                 (A) (A) (A) (A) (A) (A) (A) (A) (A) (A) (A) (A)
                 (A) (A) (A) (A) (A) (A) (A) (A) (A) (A) (A) (A)
                 (A) (A) (A) (A) (A) (A) (A) (A) (A) (A) (A) (A)
                 (A) (A) (A) (A) (A) (A) (A) (A) (A) (A) (A) (A)
                 (A) (A) (A) (A) (A) (A) (A) (A) (A) (A) (A) (A)
                 (A) (A) (A) (A) (A) (A) (A) (A) (A) (A) (A) (A)
                 (A) (A) (A) (A) (A) (A) (A) (A) (A) (A) (A) (A)
                 (A) (A) (A) (A) (A) (A) (A) (A) (A) (A) (A) (A)
                 (A) (A) (A) (A) (A) (A) (A) (A) (A) (A) (A) (A)
                 (A) (A) (A) (A) (A) (A) (A) (A) (A) (A) (A) (A)
                 (A) (A) (A) (A) (A) (A) (A) (A) (A) (A) (A) (A)
                 (A) (A) (A) (A) (A) (A) (A) (A) (A) (A) (A) (A)
                 (A) (A) (A) (A) (A) (A) (A) (A) (A) (A) (A) (A)
                 (A) (A) (A) (A) (A) (A) (A) (A) (A) (A) (A) (A)
                 (A) (A) (A) (A) (A) (A) (A) (A) (A) (A) (A) (A)
                 (A) (A) (A) (A) (A) (A) (A) (A) (A) (A) (A) (A)
                 (A) (A) (A) (A) (A) (A) (A) (A) (A) (A) (A) (A)
                 (A) (A) (A) (A) (A) (A) (A) (A) (A) (A) (A) (A)
                 (A) (A) (A) (A) (A) (A) (A) (A) (A) (A) (A) (A)
                 (A) (A) (A) (A) (A) (A) (A) (A) (A) (A) (A) (A)
                 (A) (A) (A) (A) (A) (A) (A) (A) (A) (A) (A) (A)
                 (A) (A) (A) (A) (A) (A) (A) (A) (A) (A) (A) (A)
                 (A) (A) (A) (A) (A) (A) (A) (A) (A) (A) (A) (A)
                 (A) (A) (A) (A) (A) (A) (A) (A) (A) (A) (A) (A)
                 (A) (A) (A) (A) (A) (A) (A) (A) (A) (A) (A) (A)
                 (A) (A) (A) (A) (A) (A) (A) (A) (A) (A) (A) (A)
                 (A) (A) (A) (A) (A) (A) (A) (A) (A) (A) (A) (A)
                 (A) (A) (A) (A) (A) (A) (A) (A) (A) (A) (A) (A)
                 (A) (A) (A) (A) (A) (A) (A) (A) (A) (A) (A) (A)
                 (A) (A) (A) (A) (A) (A) (A) (A) (A) (A) (A) (A)
                 (A) (A) (A) (A) (A) (A) (A) (A) (A) (A) (A) (A)
                 (A) (A) (A) (A) (A) (A) (A) (A) (A) (A) (A) (A)
                 (A) (A) (A) (A) (A) (A) (A) (A) (A) (A) (A) (A)
                 (A) (A) (A) (A) (A) (A) (A) (A) (A) (A) (A) (A)
                 (A) (A) (A) (A) (A) (A) (A) (A) (A) (A) (A) (A)
                 (A) (A) (A) (A) (A) (A) (A) (A) (A) (A) (A) (A)
                 (A) (A) (A) (A) (A) (A) (A) (A) (A) (A) (A) (A)
                 (A) (A) (A) (A) (A) (A) (A) (A) (A) (A) (A) (A)
                 (A) (A) (A) (A) (A) (A) (A) (A) (A) (A) (A) (A)
                 (A) (A) (A) (A) (A) (A) (A) (A) (A) (A) (A) (A)
                 (A) (A) (A) (A) (A) (A) (A) (A) (A) (A) (A) (A)
                 (A) (A) (A) (A) (A) (A) (A) (A) (A) (A) (A) (A)
                 (A) (A) (A) (A) (A) (A) (A) (A) (A) (A) (A) (A)
                 (A) (A) (A) (A) (A) (A) (A) (A) (A) (A) (A) (A)
                 (A) (A) (A) (A) (A) (A) (A) (A) (A) (A) (A) (A)
                 (A) (A) (A) (A) (A) (A) (A) (A) (A) (A) (A) (A)
                 (A) (A) (A) (A) (A) (A) (A) (A) (A) (A) (A) (A)
                 (A) (A) (A) (A) (A) (A) (A) (A) (A) (A) (A) (A)
                 (A) (A) (A) (A) (A) (A) (A) (A) (A) (A) (A) (A)
                 (A) (A) (A) (A) (A) (A) (A) (A) (A) (A) (A) (A)
                 (A) (A) (A) (A) (A) (A) (A) (A) (A) (A) (A) (A)
                 (A) (A) (A) (A) (A) (A) (A) (A) (A) (A) (A) (A)
                 (A) (A) (A) (A) (A) (A) (A) (A) (A) (A) (A) (A)
                 (A) (A) (A) (A) (A) (A) (A) (A) (A) (A) (A) (A)
                 (A) (A) (A) (A) (A) (A) (A) (A) (A) (A) (A) (A)
                 (A) (A) (A) (A) (A) (A) (A) (A) (A) (A) (A) (A)
                 (A) (A) (A) (A) (A) (A) (A) (A) (A) (A) (A) (A)
                 (A) (A) (A) (A) (A) (A) (A) (A) (A) (A) (A) (A)
                 (A) (A) (A) (A) (A) (A) (A) (A) (A) (A) (A) (A)
                 (A) (A) (A) (A) (A) (A) (A) (A) (A) (A) (A) (A)
                 (A) (A) (A) (A) (A) (A) (A) (A) (A) (A) (A) (A)
                 (A) (A) (A) (A) (A) (A) (A) (A) (A) (A) (A) (A)
                 (A) (A) (A) (A) (A) (A) (A) (A) (A) (A) (A) (A)
                 (A) (A) (A) (A) (A) (A) (A) (A) (A) (A) (A) (A)
                 (A) (A) (A) (A) (A) (A) (A) (A) (A) (A) (A) (A)
                 (A) (A) (A) (A) (A) (A) (A) (A) (A) (A) (A) (A)
                 (A) (A) (A) (A) (A) (A) (A) (A) (A) (A) (A) (A)
                 (A) (A) (A) (A) (A) (A) (A) (A) (A) (A) (A) (A)
                 (A) (A) (A) (A) (A) (A) (A) (A) (A) (A) (A) (A)
                 (A) (A) (A) (A) (A) (A) (A) (A) (A) (A) (A) (A)
                 (A) (A) (A) (A) (A) (A) (A) (A) (A) (A) (A) (A)
                 (A) (A) (A) (A) (A) (A) (A) (A) (A) (A) (A) (A)
                 (A) (A) (A) (A) (A) (A) (A) (A) (A) (A) (A) (A)
                 (A) (A) (A) (A) (A) (A) (A) (A) (A) (A) (A) (A)
                 (A) (A) (A) (A) (A) (A) (A) (A) (A) (A) (A) (A)
                 (A) (A) (A) (A) (A) (A) (A) (A) (A) (A) (A) (A)
                 (A) (A) (A) (A) (A) (A) (A) (A) (A) (A) (A) (A)
                 (A) (A) (A) (A) (A) (A) (A) (A) (A) (A) (A) (A)
                 (A) (A) (A) (A) (A) (A) (A) (A) (A) (A) (A) (A)
                 (A) (A) (A) (A) (A) (A) (A) (A) (A) (A) (A) (A)
                 (A) (A) (A) (A) (A) (A) (A) (A) (A) (A) (A) (A)
                 (A) (A) (A) (A) (A) (A) (A) (A) (A) (A) (A) (A)
                 (A) (A)
 Beta  Orbitals:
       Occupied  (A) (A) (A) (A) (A) (A) (A) (A) (A) (A) (A) (A)
                 (A) (A) (A) (A) (A) (A) (A) (A) (A) (A) (A) (A)
                 (A) (A) (A) (A) (A) (A) (A) (A) (A) (A) (A) (A)
                 (A) (A) (A) (A) (A) (A) (A) (A) (A) (A) (A) (A)
                 (A) (A) (A) (A) (A) (A) (A) (A) (A) (A) (A) (A)
                 (A) (A) (A) (A) (A) (A) (A) (A) (A) (A) (A) (A)
                 (A) (A) (A) (A) (A) (A) (A) (A) (A) (A) (A) (A)
                 (A) (A) (A) (A) (A) (A) (A) (A) (A) (A) (A) (A)
                 (A) (A) (A) (A) (A) (A) (A) (A) (A) (A) (A) (A)
                 (A) (A) (A) (A) (A) (A) (A) (A) (A) (A) (A) (A)
                 (A) (A) (A) (A) (A) (A) (A) (A) (A) (A) (A) (A)
                 (A) (A) (A) (A) (A) (A) (A) (A) (A) (A) (A) (A)
                 (A) (A) (A) (A) (A) (A) (A) (A) (A) (A) (A) (A)
                 (A) (A) (A) (A) (A) (A) (A) (A) (A) (A) (A) (A)
                 (A) (A) (A) (A) (A)
       Virtual   (A) (A) (A) (A) (A) (A) (A) (A) (A) (A) (A) (A)
                 (A) (A) (A) (A) (A) (A) (A) (A) (A) (A) (A) (A)
                 (A) (A) (A) (A) (A) (A) (A) (A) (A) (A) (A) (A)
                 (A) (A) (A) (A) (A) (A) (A) (A) (A) (A) (A) (A)
                 (A) (A) (A) (A) (A) (A) (A) (A) (A) (A) (A) (A)
                 (A) (A) (A) (A) (A) (A) (A) (A) (A) (A) (A) (A)
                 (A) (A) (A) (A) (A) (A) (A) (A) (A) (A) (A) (A)
                 (A) (A) (A) (A) (A) (A) (A) (A) (A) (A) (A) (A)
                 (A) (A) (A) (A) (A) (A) (A) (A) (A) (A) (A) (A)
                 (A) (A) (A) (A) (A) (A) (A) (A) (A) (A) (A) (A)
                 (A) (A) (A) (A) (A) (A) (A) (A) (A) (A) (A) (A)
                 (A) (A) (A) (A) (A) (A) (A) (A) (A) (A) (A) (A)
                 (A) (A) (A) (A) (A) (A) (A) (A) (A) (A) (A) (A)
                 (A) (A) (A) (A) (A) (A) (A) (A) (A) (A) (A) (A)
                 (A) (A) (A) (A) (A) (A) (A) (A) (A) (A) (A) (A)
                 (A) (A) (A) (A) (A) (A) (A) (A) (A) (A) (A) (A)
                 (A) (A) (A) (A) (A) (A) (A) (A) (A) (A) (A) (A)
                 (A) (A) (A) (A) (A) (A) (A) (A) (A) (A) (A) (A)
                 (A) (A) (A) (A) (A) (A) (A) (A) (A) (A) (A) (A)
                 (A) (A) (A) (A) (A) (A) (A) (A) (A) (A) (A) (A)
                 (A) (A) (A) (A) (A) (A) (A) (A) (A) (A) (A) (A)
                 (A) (A) (A) (A) (A) (A) (A) (A) (A) (A) (A) (A)
                 (A) (A) (A) (A) (A) (A) (A) (A) (A) (A) (A) (A)
                 (A) (A) (A) (A) (A) (A) (A) (A) (A) (A) (A) (A)
                 (A) (A) (A) (A) (A) (A) (A) (A) (A) (A) (A) (A)
                 (A) (A) (A) (A) (A) (A) (A) (A) (A) (A) (A) (A)
                 (A) (A) (A) (A) (A) (A) (A) (A) (A) (A) (A) (A)
                 (A) (A) (A) (A) (A) (A) (A) (A) (A) (A) (A) (A)
                 (A) (A) (A) (A) (A) (A) (A) (A) (A) (A) (A) (A)
                 (A) (A) (A) (A) (A) (A) (A) (A) (A) (A) (A) (A)
                 (A) (A) (A) (A) (A) (A) (A) (A) (A) (A) (A) (A)
                 (A) (A) (A) (A) (A) (A) (A) (A) (A) (A) (A) (A)
                 (A) (A) (A) (A) (A) (A) (A) (A) (A) (A) (A) (A)
                 (A) (A) (A) (A) (A) (A) (A) (A) (A) (A) (A) (A)
                 (A) (A) (A) (A) (A) (A) (A) (A) (A) (A) (A) (A)
                 (A) (A) (A) (A) (A) (A) (A) (A) (A) (A) (A) (A)
                 (A) (A) (A) (A) (A) (A) (A) (A) (A) (A) (A) (A)
                 (A) (A) (A) (A) (A) (A) (A) (A) (A) (A) (A) (A)
                 (A) (A) (A) (A) (A) (A) (A) (A) (A) (A) (A) (A)
                 (A) (A) (A) (A) (A) (A) (A) (A) (A) (A) (A) (A)
                 (A) (A) (A) (A) (A) (A) (A) (A) (A) (A) (A) (A)
                 (A) (A) (A) (A) (A) (A) (A) (A) (A) (A) (A) (A)
                 (A) (A) (A) (A) (A) (A) (A) (A) (A) (A) (A) (A)
                 (A) (A) (A) (A) (A) (A) (A) (A) (A) (A) (A) (A)
                 (A) (A) (A) (A) (A) (A) (A) (A) (A) (A) (A) (A)
                 (A) (A) (A) (A) (A) (A) (A) (A) (A) (A) (A) (A)
                 (A) (A) (A) (A) (A) (A) (A) (A) (A) (A) (A) (A)
                 (A) (A) (A) (A) (A) (A) (A) (A) (A) (A) (A) (A)
                 (A) (A) (A) (A) (A) (A) (A) (A) (A) (A) (A) (A)
                 (A) (A) (A) (A) (A) (A) (A) (A) (A) (A) (A) (A)
                 (A) (A) (A) (A) (A) (A) (A) (A) (A) (A) (A) (A)
                 (A) (A) (A) (A) (A) (A) (A) (A) (A) (A) (A) (A)
                 (A) (A) (A) (A) (A) (A) (A) (A) (A) (A) (A) (A)
                 (A) (A) (A) (A) (A) (A) (A) (A) (A) (A) (A) (A)
                 (A) (A) (A) (A) (A) (A) (A) (A) (A) (A) (A) (A)
                 (A) (A) (A) (A) (A) (A) (A) (A) (A) (A) (A) (A)
                 (A) (A) (A) (A) (A) (A) (A) (A) (A) (A) (A) (A)
                 (A) (A) (A) (A) (A) (A) (A) (A) (A) (A) (A) (A)
                 (A) (A) (A) (A) (A) (A) (A) (A) (A) (A) (A) (A)
                 (A) (A) (A) (A) (A) (A) (A) (A) (A) (A) (A) (A)
                 (A) (A) (A) (A) (A) (A) (A) (A) (A) (A) (A) (A)
                 (A) (A) (A) (A) (A) (A) (A) (A) (A) (A) (A) (A)
                 (A) (A) (A) (A) (A) (A) (A) (A) (A) (A) (A) (A)
                 (A) (A) (A) (A) (A) (A) (A) (A) (A) (A) (A) (A)
                 (A) (A) (A) (A) (A) (A) (A) (A) (A) (A) (A) (A)
                 (A) (A) (A) (A) (A) (A) (A) (A) (A) (A) (A) (A)
                 (A) (A) (A) (A) (A) (A) (A) (A) (A) (A) (A) (A)
                 (A) (A) (A) (A) (A) (A) (A) (A) (A) (A) (A) (A)
                 (A) (A) (A) (A) (A) (A) (A) (A) (A) (A) (A) (A)
                 (A) (A) (A) (A) (A) (A) (A) (A) (A) (A) (A) (A)
                 (A) (A) (A) (A) (A) (A) (A) (A) (A) (A) (A) (A)
                 (A) (A) (A) (A) (A) (A) (A) (A) (A) (A) (A) (A)
                 (A) (A) (A) (A) (A) (A) (A) (A) (A) (A) (A) (A)
                 (A) (A) (A) (A) (A) (A) (A) (A) (A) (A) (A) (A)
                 (A) (A) (A) (A) (A) (A) (A) (A) (A) (A) (A) (A)
                 (A) (A) (A) (A) (A) (A) (A) (A) (A) (A) (A) (A)
                 (A) (A) (A) (A) (A) (A) (A) (A) (A) (A) (A) (A)
                 (A) (A) (A) (A) (A) (A) (A) (A) (A) (A) (A) (A)
                 (A) (A) (A) (A) (A) (A) (A) (A) (A) (A) (A) (A)
                 (A) (A) (A) (A) (A) (A) (A) (A) (A) (A) (A) (A)
                 (A) (A) (A) (A) (A) (A) (A) (A) (A) (A) (A) (A)
                 (A) (A) (A) (A) (A) (A) (A) (A) (A) (A) (A) (A)
                 (A) (A) (A) (A) (A) (A) (A) (A) (A) (A) (A) (A)
                 (A) (A) (A) (A) (A) (A) (A) (A) (A) (A) (A) (A)
                 (A) (A) (A) (A) (A) (A) (A) (A) (A) (A) (A) (A)
                 (A) (A) (A) (A) (A) (A) (A) (A) (A) (A) (A) (A)
                 (A) (A) (A) (A) (A) (A) (A) (A) (A) (A) (A) (A)
                 (A) (A) (A) (A) (A) (A) (A) (A) (A) (A) (A) (A)
                 (A) (A) (A) (A) (A) (A) (A) (A) (A) (A) (A) (A)
                 (A) (A) (A) (A) (A) (A) (A) (A) (A) (A) (A) (A)
                 (A) (A) (A) (A) (A) (A) (A) (A) (A) (A) (A) (A)
                 (A) (A) (A) (A) (A) (A) (A) (A) (A) (A) (A) (A)
                 (A) (A) (A) (A) (A) (A) (A) (A) (A) (A) (A) (A)
                 (A) (A) (A) (A) (A) (A) (A) (A) (A) (A) (A) (A)
                 (A) (A) (A) (A) (A) (A) (A) (A) (A) (A) (A) (A)
                 (A) (A) (A) (A) (A) (A) (A) (A) (A) (A) (A) (A)
                 (A) (A) (A) (A) (A) (A) (A) (A) (A) (A) (A) (A)
                 (A) (A) (A) (A) (A) (A) (A) (A) (A) (A) (A) (A)
                 (A) (A) (A) (A) (A) (A) (A) (A) (A) (A) (A) (A)
                 (A) (A) (A) (A) (A) (A) (A) (A) (A) (A) (A) (A)
                 (A) (A) (A) (A) (A) (A) (A) (A) (A) (A) (A) (A)
                 (A) (A) (A) (A) (A) (A) (A) (A) (A) (A) (A) (A)
                 (A) (A) (A) (A) (A) (A) (A) (A) (A) (A) (A) (A)
                 (A) (A) (A) (A) (A) (A) (A) (A) (A) (A) (A) (A)
                 (A) (A) (A) (A) (A) (A) (A) (A) (A) (A) (A) (A)
                 (A) (A) (A) (A) (A) (A) (A) (A) (A) (A) (A) (A)
                 (A) (A) (A) (A) (A) (A) (A) (A) (A) (A) (A) (A)
                 (A) (A) (A) (A) (A) (A) (A) (A) (A) (A) (A) (A)
                 (A) (A) (A) (A) (A) (A) (A) (A) (A) (A) (A) (A)
                 (A) (A) (A) (A) (A) (A) (A) (A) (A) (A) (A) (A)
                 (A) (A) (A) (A) (A) (A) (A) (A) (A) (A) (A) (A)
                 (A) (A) (A) (A) (A) (A) (A) (A) (A) (A) (A) (A)
                 (A) (A) (A) (A) (A) (A) (A) (A) (A) (A) (A) (A)
                 (A) (A) (A) (A) (A) (A) (A) (A) (A) (A) (A) (A)
                 (A) (A) (A) (A) (A) (A) (A) (A) (A) (A) (A) (A)
                 (A) (A) (A) (A) (A) (A) (A) (A) (A) (A) (A) (A)
                 (A) (A) (A) (A) (A) (A) (A) (A) (A) (A) (A) (A)
                 (A) (A) (A) (A) (A) (A) (A) (A) (A) (A) (A) (A)
                 (A) (A) (A) (A) (A) (A) (A) (A) (A) (A) (A) (A)
                 (A) (A) (A) (A) (A) (A) (A) (A) (A) (A) (A) (A)
                 (A) (A) (A) (A) (A) (A) (A) (A) (A) (A) (A) (A)
                 (A) (A) (A) (A) (A) (A) (A) (A) (A) (A) (A) (A)
                 (A) (A) (A) (A) (A) (A)
 The electronic state is 5-A.
 Alpha  occ. eigenvalues -- -256.33708 -89.02013 -30.14336 -25.97806 -25.95666
 Alpha  occ. eigenvalues --  -25.95252 -19.27488 -19.27182 -19.17616 -19.17563
 Alpha  occ. eigenvalues --  -14.37416 -14.37048 -14.36825 -14.36381 -10.35268
 Alpha  occ. eigenvalues --  -10.35160 -10.25522 -10.25518 -10.25048 -10.25048
 Alpha  occ. eigenvalues --  -10.24976 -10.24964 -10.24863 -10.24509 -10.24079
 Alpha  occ. eigenvalues --  -10.23990 -10.23809 -10.23623 -10.23195 -10.23022
 Alpha  occ. eigenvalues --  -10.22678 -10.22652 -10.22428 -10.22373 -10.22290
 Alpha  occ. eigenvalues --  -10.21461 -10.21422 -10.21412 -10.21314 -10.21278
 Alpha  occ. eigenvalues --  -10.21214 -10.20374 -10.20318 -10.18845 -10.18830
 Alpha  occ. eigenvalues --  -10.18827 -10.18280 -10.17921 -10.17535  -8.00209
 Alpha  occ. eigenvalues --   -5.93834  -5.93471  -5.93117  -3.56991  -2.36607
 Alpha  occ. eigenvalues --   -2.31903  -2.31229  -1.17430  -1.16943  -1.02893
 Alpha  occ. eigenvalues --   -1.02241  -0.98376  -0.97406  -0.97052  -0.95208
 Alpha  occ. eigenvalues --   -0.85120  -0.84560  -0.84176  -0.83537  -0.82972
 Alpha  occ. eigenvalues --   -0.82195  -0.82052  -0.81849  -0.80324  -0.79509
 Alpha  occ. eigenvalues --   -0.78794  -0.78662  -0.77090  -0.75371  -0.74435
 Alpha  occ. eigenvalues --   -0.74047  -0.73767  -0.71246  -0.70483  -0.69904
 Alpha  occ. eigenvalues --   -0.68203  -0.67968  -0.67701  -0.67055  -0.66812
 Alpha  occ. eigenvalues --   -0.65419  -0.64157  -0.60099  -0.59792  -0.57437
 Alpha  occ. eigenvalues --   -0.56408  -0.56339  -0.55085  -0.54890  -0.54125
 Alpha  occ. eigenvalues --   -0.53554  -0.53301  -0.52445  -0.52081  -0.51625
 Alpha  occ. eigenvalues --   -0.50530  -0.49694  -0.48930  -0.48470  -0.47988
 Alpha  occ. eigenvalues --   -0.47869  -0.47608  -0.47415  -0.47021  -0.46694
 Alpha  occ. eigenvalues --   -0.46614  -0.46508  -0.46463  -0.46362  -0.45648
 Alpha  occ. eigenvalues --   -0.45393  -0.44937  -0.44816  -0.44609  -0.44469
 Alpha  occ. eigenvalues --   -0.44208  -0.44093  -0.43925  -0.43542  -0.42619
 Alpha  occ. eigenvalues --   -0.42316  -0.42259  -0.41710  -0.41534  -0.41280
 Alpha  occ. eigenvalues --   -0.41022  -0.40691  -0.40550  -0.40376  -0.40119
 Alpha  occ. eigenvalues --   -0.39855  -0.39805  -0.39669  -0.39217  -0.38823
 Alpha  occ. eigenvalues --   -0.38278  -0.38188  -0.37720  -0.37408  -0.36520
 Alpha  occ. eigenvalues --   -0.35971  -0.35737  -0.35502  -0.34692  -0.34577
 Alpha  occ. eigenvalues --   -0.34086  -0.33735  -0.33033  -0.32754  -0.32644
 Alpha  occ. eigenvalues --   -0.32432  -0.31769  -0.30565  -0.29575  -0.28875
 Alpha  occ. eigenvalues --   -0.28584  -0.27830  -0.27676  -0.26332  -0.25430
 Alpha  occ. eigenvalues --   -0.24240  -0.23514  -0.22999  -0.21646  -0.19894
 Alpha  occ. eigenvalues --   -0.19638  -0.18578
 Alpha virt. eigenvalues --   -0.08469  -0.07672  -0.06031  -0.01467   0.00920
 Alpha virt. eigenvalues --    0.01066   0.01789   0.01996   0.02801   0.03782
 Alpha virt. eigenvalues --    0.04622   0.04806   0.05014   0.05434   0.05660
 Alpha virt. eigenvalues --    0.06204   0.06402   0.06859   0.07357   0.07928
 Alpha virt. eigenvalues --    0.08296   0.08475   0.08700   0.09478   0.09748
 Alpha virt. eigenvalues --    0.10020   0.10352   0.10392   0.10562   0.10921
 Alpha virt. eigenvalues --    0.11172   0.11465   0.11874   0.12145   0.12272
 Alpha virt. eigenvalues --    0.12595   0.12764   0.12889   0.13236   0.13652
 Alpha virt. eigenvalues --    0.13860   0.13907   0.14141   0.14538   0.14776
 Alpha virt. eigenvalues --    0.14902   0.14986   0.15146   0.15292   0.15591
 Alpha virt. eigenvalues --    0.15907   0.16028   0.16201   0.16644   0.16903
 Alpha virt. eigenvalues --    0.17334   0.17527   0.17969   0.18185   0.18274
 Alpha virt. eigenvalues --    0.18531   0.18634   0.18767   0.18969   0.19180
 Alpha virt. eigenvalues --    0.19648   0.19704   0.19952   0.20042   0.20227
 Alpha virt. eigenvalues --    0.20483   0.20568   0.20943   0.21146   0.21356
 Alpha virt. eigenvalues --    0.21611   0.21911   0.22140   0.22259   0.22694
 Alpha virt. eigenvalues --    0.22777   0.22915   0.23099   0.23328   0.23398
 Alpha virt. eigenvalues --    0.23601   0.23942   0.24228   0.24410   0.25035
 Alpha virt. eigenvalues --    0.25091   0.25265   0.25468   0.25575   0.25691
 Alpha virt. eigenvalues --    0.25931   0.26197   0.26501   0.26907   0.26954
 Alpha virt. eigenvalues --    0.27303   0.27463   0.27765   0.27952   0.28254
 Alpha virt. eigenvalues --    0.28368   0.28587   0.28888   0.29132   0.29209
 Alpha virt. eigenvalues --    0.29367   0.30020   0.30078   0.30276   0.30504
 Alpha virt. eigenvalues --    0.30780   0.31107   0.31446   0.31698   0.32033
 Alpha virt. eigenvalues --    0.32342   0.32665   0.32923   0.33086   0.33403
 Alpha virt. eigenvalues --    0.33570   0.34134   0.34423   0.34488   0.34715
 Alpha virt. eigenvalues --    0.35219   0.35719   0.35880   0.35984   0.36021
 Alpha virt. eigenvalues --    0.36397   0.36711   0.37260   0.37484   0.37715
 Alpha virt. eigenvalues --    0.37842   0.38104   0.38195   0.38346   0.38806
 Alpha virt. eigenvalues --    0.38861   0.39024   0.39491   0.39633   0.39933
 Alpha virt. eigenvalues --    0.40148   0.40432   0.40649   0.40787   0.40982
 Alpha virt. eigenvalues --    0.41486   0.41537   0.41631   0.41754   0.42171
 Alpha virt. eigenvalues --    0.42284   0.42798   0.42869   0.43194   0.43374
 Alpha virt. eigenvalues --    0.43566   0.43825   0.44109   0.44280   0.44601
 Alpha virt. eigenvalues --    0.45043   0.45178   0.45274   0.45609   0.45777
 Alpha virt. eigenvalues --    0.45914   0.46097   0.46340   0.46421   0.46891
 Alpha virt. eigenvalues --    0.47000   0.47271   0.47515   0.47654   0.47845
 Alpha virt. eigenvalues --    0.47976   0.48328   0.48467   0.48699   0.48866
 Alpha virt. eigenvalues --    0.49047   0.49312   0.49500   0.49612   0.49894
 Alpha virt. eigenvalues --    0.50165   0.50484   0.50548   0.50691   0.50910
 Alpha virt. eigenvalues --    0.51404   0.51609   0.51914   0.52006   0.52201
 Alpha virt. eigenvalues --    0.52332   0.52673   0.52884   0.52959   0.53249
 Alpha virt. eigenvalues --    0.53515   0.53675   0.54028   0.54159   0.54450
 Alpha virt. eigenvalues --    0.54537   0.54732   0.55064   0.55187   0.55296
 Alpha virt. eigenvalues --    0.55640   0.55883   0.55988   0.56168   0.56782
 Alpha virt. eigenvalues --    0.57113   0.57159   0.57303   0.57646   0.57974
 Alpha virt. eigenvalues --    0.58223   0.58590   0.58890   0.59146   0.59325
 Alpha virt. eigenvalues --    0.59572   0.59959   0.60242   0.60421   0.60748
 Alpha virt. eigenvalues --    0.60943   0.61309   0.61559   0.61843   0.62120
 Alpha virt. eigenvalues --    0.62369   0.62612   0.62725   0.62931   0.63185
 Alpha virt. eigenvalues --    0.63215   0.63840   0.64128   0.64594   0.64707
 Alpha virt. eigenvalues --    0.65019   0.65193   0.65831   0.65905   0.65983
 Alpha virt. eigenvalues --    0.66475   0.66762   0.67141   0.67461   0.67621
 Alpha virt. eigenvalues --    0.68082   0.68236   0.68823   0.68918   0.69081
 Alpha virt. eigenvalues --    0.69381   0.69724   0.70040   0.70126   0.70376
 Alpha virt. eigenvalues --    0.70491   0.70800   0.70900   0.71374   0.71760
 Alpha virt. eigenvalues --    0.71798   0.72348   0.72588   0.72990   0.73180
 Alpha virt. eigenvalues --    0.73375   0.73680   0.73784   0.74199   0.74611
 Alpha virt. eigenvalues --    0.74828   0.74962   0.75124   0.75350   0.75823
 Alpha virt. eigenvalues --    0.76226   0.76659   0.76679   0.77487   0.78006
 Alpha virt. eigenvalues --    0.78190   0.78517   0.78898   0.79008   0.79200
 Alpha virt. eigenvalues --    0.79371   0.80000   0.80057   0.80184   0.80388
 Alpha virt. eigenvalues --    0.80725   0.81224   0.81378   0.81843   0.82246
 Alpha virt. eigenvalues --    0.82983   0.83038   0.83255   0.83575   0.83995
 Alpha virt. eigenvalues --    0.84358   0.84514   0.84698   0.84807   0.85068
 Alpha virt. eigenvalues --    0.85541   0.85837   0.86479   0.86965   0.87420
 Alpha virt. eigenvalues --    0.87666   0.88020   0.88402   0.88660   0.88821
 Alpha virt. eigenvalues --    0.89276   0.89551   0.89657   0.90096   0.90937
 Alpha virt. eigenvalues --    0.91153   0.91389   0.91902   0.91969   0.92421
 Alpha virt. eigenvalues --    0.92525   0.92946   0.93358   0.93455   0.93867
 Alpha virt. eigenvalues --    0.94164   0.94396   0.94549   0.95024   0.95129
 Alpha virt. eigenvalues --    0.95756   0.96121   0.96422   0.96548   0.97028
 Alpha virt. eigenvalues --    0.97343   0.97670   0.97898   0.98087   0.98607
 Alpha virt. eigenvalues --    0.99101   0.99448   0.99574   1.00227   1.00449
 Alpha virt. eigenvalues --    1.00975   1.01024   1.01188   1.01647   1.01803
 Alpha virt. eigenvalues --    1.02105   1.02381   1.03034   1.03307   1.03601
 Alpha virt. eigenvalues --    1.03666   1.03932   1.04253   1.04535   1.04667
 Alpha virt. eigenvalues --    1.05012   1.05150   1.05297   1.05653   1.06111
 Alpha virt. eigenvalues --    1.06556   1.06733   1.07262   1.07364   1.07653
 Alpha virt. eigenvalues --    1.08001   1.08370   1.08699   1.09411   1.09631
 Alpha virt. eigenvalues --    1.10008   1.10379   1.10741   1.11043   1.11502
 Alpha virt. eigenvalues --    1.11948   1.12243   1.12456   1.13009   1.13983
 Alpha virt. eigenvalues --    1.14115   1.14356   1.14940   1.15345   1.15635
 Alpha virt. eigenvalues --    1.16315   1.16604   1.16938   1.17506   1.18576
 Alpha virt. eigenvalues --    1.18746   1.19234   1.19761   1.19795   1.20384
 Alpha virt. eigenvalues --    1.20654   1.21177   1.21290   1.22036   1.22117
 Alpha virt. eigenvalues --    1.22579   1.22873   1.23511   1.23800   1.24278
 Alpha virt. eigenvalues --    1.25056   1.25329   1.25473   1.25672   1.26208
 Alpha virt. eigenvalues --    1.27032   1.27542   1.27741   1.28462   1.28623
 Alpha virt. eigenvalues --    1.29114   1.29240   1.29627   1.30102   1.30284
 Alpha virt. eigenvalues --    1.31091   1.31187   1.31628   1.32347   1.32534
 Alpha virt. eigenvalues --    1.32794   1.33290   1.33793   1.34083   1.35124
 Alpha virt. eigenvalues --    1.35487   1.35699   1.36226   1.36467   1.37076
 Alpha virt. eigenvalues --    1.37790   1.38378   1.38844   1.39505   1.39819
 Alpha virt. eigenvalues --    1.40425   1.41148   1.41619   1.42251   1.42711
 Alpha virt. eigenvalues --    1.43253   1.43807   1.44057   1.45109   1.45314
 Alpha virt. eigenvalues --    1.45536   1.45788   1.46385   1.46814   1.47067
 Alpha virt. eigenvalues --    1.47287   1.47621   1.47747   1.48350   1.48557
 Alpha virt. eigenvalues --    1.48910   1.49249   1.49515   1.49611   1.49898
 Alpha virt. eigenvalues --    1.50498   1.50733   1.50840   1.51321   1.51613
 Alpha virt. eigenvalues --    1.52097   1.52451   1.52538   1.53110   1.53204
 Alpha virt. eigenvalues --    1.53326   1.53834   1.54572   1.54896   1.55702
 Alpha virt. eigenvalues --    1.55897   1.56087   1.56427   1.56927   1.57504
 Alpha virt. eigenvalues --    1.57590   1.57849   1.58146   1.58507   1.58806
 Alpha virt. eigenvalues --    1.59170   1.59429   1.59895   1.60256   1.60569
 Alpha virt. eigenvalues --    1.60963   1.61138   1.61475   1.61876   1.61944
 Alpha virt. eigenvalues --    1.62205   1.62377   1.62808   1.63175   1.63470
 Alpha virt. eigenvalues --    1.63569   1.63821   1.63850   1.64169   1.64508
 Alpha virt. eigenvalues --    1.64885   1.64920   1.65411   1.65571   1.66256
 Alpha virt. eigenvalues --    1.66447   1.66548   1.66676   1.67063   1.67139
 Alpha virt. eigenvalues --    1.67396   1.67506   1.68055   1.68130   1.68425
 Alpha virt. eigenvalues --    1.68722   1.68814   1.69053   1.69256   1.69948
 Alpha virt. eigenvalues --    1.70315   1.70575   1.70917   1.71234   1.71738
 Alpha virt. eigenvalues --    1.72086   1.72399   1.72880   1.73101   1.73273
 Alpha virt. eigenvalues --    1.73644   1.73782   1.73932   1.74548   1.75106
 Alpha virt. eigenvalues --    1.75396   1.75678   1.75719   1.76822   1.77311
 Alpha virt. eigenvalues --    1.77749   1.77780   1.78240   1.78955   1.79381
 Alpha virt. eigenvalues --    1.80070   1.80171   1.80753   1.81268   1.81571
 Alpha virt. eigenvalues --    1.82108   1.82936   1.83711   1.83982   1.84047
 Alpha virt. eigenvalues --    1.84728   1.85288   1.85714   1.85844   1.86107
 Alpha virt. eigenvalues --    1.86531   1.86877   1.87086   1.88084   1.88318
 Alpha virt. eigenvalues --    1.88533   1.88840   1.89021   1.89767   1.90431
 Alpha virt. eigenvalues --    1.90717   1.90954   1.91300   1.92220   1.92359
 Alpha virt. eigenvalues --    1.93134   1.93263   1.93598   1.94327   1.94932
 Alpha virt. eigenvalues --    1.95087   1.95569   1.95943   1.96354   1.96574
 Alpha virt. eigenvalues --    1.96694   1.97001   1.97411   1.97700   1.98185
 Alpha virt. eigenvalues --    1.98757   1.99302   1.99506   1.99597   2.00392
 Alpha virt. eigenvalues --    2.00900   2.01313   2.01536   2.01814   2.02036
 Alpha virt. eigenvalues --    2.02457   2.02951   2.03252   2.03368   2.03570
 Alpha virt. eigenvalues --    2.04512   2.05231   2.05910   2.06549   2.06965
 Alpha virt. eigenvalues --    2.07286   2.07565   2.07994   2.08149   2.08652
 Alpha virt. eigenvalues --    2.09061   2.09465   2.09726   2.09958   2.10416
 Alpha virt. eigenvalues --    2.10569   2.11037   2.11407   2.11904   2.12824
 Alpha virt. eigenvalues --    2.13071   2.13704   2.13986   2.14386   2.14540
 Alpha virt. eigenvalues --    2.15081   2.15210   2.15372   2.15855   2.16359
 Alpha virt. eigenvalues --    2.17099   2.17242   2.17493   2.18048   2.18648
 Alpha virt. eigenvalues --    2.18726   2.19049   2.19504   2.19712   2.20310
 Alpha virt. eigenvalues --    2.20394   2.21086   2.21367   2.21506   2.21734
 Alpha virt. eigenvalues --    2.22304   2.22446   2.22732   2.23088   2.23506
 Alpha virt. eigenvalues --    2.23994   2.24743   2.25406   2.25632   2.26306
 Alpha virt. eigenvalues --    2.27042   2.27122   2.27954   2.28166   2.28929
 Alpha virt. eigenvalues --    2.29364   2.29755   2.29965   2.30512   2.30656
 Alpha virt. eigenvalues --    2.31053   2.31645   2.32459   2.32540   2.32878
 Alpha virt. eigenvalues --    2.33180   2.33421   2.33998   2.34389   2.34720
 Alpha virt. eigenvalues --    2.35682   2.35999   2.36929   2.37349   2.37457
 Alpha virt. eigenvalues --    2.38148   2.38512   2.38979   2.39968   2.40126
 Alpha virt. eigenvalues --    2.41265   2.41707   2.41896   2.42250   2.42271
 Alpha virt. eigenvalues --    2.43255   2.43389   2.43893   2.44222   2.44971
 Alpha virt. eigenvalues --    2.45088   2.45634   2.45944   2.46177   2.46344
 Alpha virt. eigenvalues --    2.46692   2.47816   2.47883   2.48292   2.48792
 Alpha virt. eigenvalues --    2.49345   2.49858   2.50768   2.50908   2.51220
 Alpha virt. eigenvalues --    2.51752   2.52558   2.52963   2.53041   2.53691
 Alpha virt. eigenvalues --    2.54113   2.54189   2.55153   2.55490   2.56090
 Alpha virt. eigenvalues --    2.56402   2.56541   2.57117   2.57250   2.57424
 Alpha virt. eigenvalues --    2.58226   2.58658   2.58792   2.60067   2.60376
 Alpha virt. eigenvalues --    2.60657   2.61893   2.62175   2.62257   2.62823
 Alpha virt. eigenvalues --    2.63020   2.63387   2.63571   2.63804   2.64169
 Alpha virt. eigenvalues --    2.64309   2.65231   2.65559   2.66206   2.66826
 Alpha virt. eigenvalues --    2.67433   2.68056   2.68257   2.68827   2.69386
 Alpha virt. eigenvalues --    2.69513   2.69794   2.70391   2.70434   2.70593
 Alpha virt. eigenvalues --    2.70954   2.71290   2.71745   2.71811   2.72188
 Alpha virt. eigenvalues --    2.72959   2.73329   2.73914   2.74052   2.74616
 Alpha virt. eigenvalues --    2.75115   2.75506   2.75860   2.76053   2.76439
 Alpha virt. eigenvalues --    2.76648   2.77020   2.78107   2.78374   2.78574
 Alpha virt. eigenvalues --    2.78887   2.79063   2.79583   2.79834   2.80114
 Alpha virt. eigenvalues --    2.80421   2.80737   2.80995   2.81201   2.81700
 Alpha virt. eigenvalues --    2.81841   2.82053   2.82539   2.83042   2.83265
 Alpha virt. eigenvalues --    2.83781   2.84080   2.84109   2.84617   2.84828
 Alpha virt. eigenvalues --    2.85209   2.85622   2.85871   2.86685   2.87014
 Alpha virt. eigenvalues --    2.87200   2.87699   2.87905   2.88094   2.88549
 Alpha virt. eigenvalues --    2.88583   2.89083   2.89376   2.89705   2.89984
 Alpha virt. eigenvalues --    2.90318   2.90850   2.90914   2.91299   2.91676
 Alpha virt. eigenvalues --    2.92290   2.92570   2.93216   2.94093   2.94344
 Alpha virt. eigenvalues --    2.94512   2.94729   2.94933   2.95357   2.95636
 Alpha virt. eigenvalues --    2.95995   2.96200   2.96866   2.97207   2.97477
 Alpha virt. eigenvalues --    2.97757   2.98077   2.98156   2.98497   2.98965
 Alpha virt. eigenvalues --    2.99145   2.99329   2.99513   3.00357   3.00667
 Alpha virt. eigenvalues --    3.01102   3.01562   3.01947   3.02329   3.02559
 Alpha virt. eigenvalues --    3.02816   3.03131   3.03583   3.04015   3.04249
 Alpha virt. eigenvalues --    3.04419   3.04711   3.05144   3.05350   3.05768
 Alpha virt. eigenvalues --    3.06053   3.06319   3.06423   3.07189   3.07370
 Alpha virt. eigenvalues --    3.07441   3.07884   3.08053   3.08451   3.08777
 Alpha virt. eigenvalues --    3.09027   3.09430   3.09808   3.09904   3.10453
 Alpha virt. eigenvalues --    3.10573   3.10773   3.10903   3.11493   3.12228
 Alpha virt. eigenvalues --    3.12598   3.12744   3.13138   3.13659   3.13997
 Alpha virt. eigenvalues --    3.14283   3.14337   3.14805   3.15052   3.15355
 Alpha virt. eigenvalues --    3.15764   3.15968   3.16266   3.16578   3.16745
 Alpha virt. eigenvalues --    3.17304   3.18055   3.18233   3.19346   3.19436
 Alpha virt. eigenvalues --    3.19719   3.19975   3.20178   3.20718   3.20786
 Alpha virt. eigenvalues --    3.20977   3.21157   3.21977   3.22200   3.22520
 Alpha virt. eigenvalues --    3.22849   3.23160   3.23494   3.23641   3.24264
 Alpha virt. eigenvalues --    3.24618   3.24759   3.25188   3.25400   3.25589
 Alpha virt. eigenvalues --    3.26481   3.26641   3.26678   3.27720   3.27839
 Alpha virt. eigenvalues --    3.28105   3.28317   3.28548   3.28772   3.29358
 Alpha virt. eigenvalues --    3.29617   3.29777   3.30146   3.30402   3.30886
 Alpha virt. eigenvalues --    3.30923   3.31427   3.31633   3.31868   3.32089
 Alpha virt. eigenvalues --    3.32280   3.32458   3.32954   3.33287   3.33439
 Alpha virt. eigenvalues --    3.33851   3.33986   3.34548   3.34829   3.34936
 Alpha virt. eigenvalues --    3.35211   3.35381   3.35625   3.36157   3.36404
 Alpha virt. eigenvalues --    3.36487   3.36706   3.37116   3.37160   3.37664
 Alpha virt. eigenvalues --    3.37852   3.38034   3.38477   3.38915   3.39379
 Alpha virt. eigenvalues --    3.39646   3.39856   3.40200   3.40426   3.40565
 Alpha virt. eigenvalues --    3.40852   3.41194   3.41350   3.41598   3.41887
 Alpha virt. eigenvalues --    3.42414   3.42690   3.43077   3.43190   3.43572
 Alpha virt. eigenvalues --    3.43629   3.44329   3.44471   3.44552   3.44822
 Alpha virt. eigenvalues --    3.45176   3.45281   3.45705   3.45803   3.46061
 Alpha virt. eigenvalues --    3.46644   3.47304   3.47479   3.47977   3.48185
 Alpha virt. eigenvalues --    3.48503   3.48741   3.49121   3.49448   3.49681
 Alpha virt. eigenvalues --    3.50179   3.50809   3.50951   3.51842   3.52073
 Alpha virt. eigenvalues --    3.52329   3.52609   3.53025   3.53191   3.53504
 Alpha virt. eigenvalues --    3.53952   3.54232   3.54801   3.54897   3.55116
 Alpha virt. eigenvalues --    3.55435   3.56230   3.56513   3.56901   3.57539
 Alpha virt. eigenvalues --    3.57816   3.58370   3.58501   3.59406   3.59686
 Alpha virt. eigenvalues --    3.59960   3.60334   3.60810   3.60882   3.61690
 Alpha virt. eigenvalues --    3.61919   3.62222   3.63036   3.63125   3.63594
 Alpha virt. eigenvalues --    3.64125   3.64223   3.64917   3.65466   3.65609
 Alpha virt. eigenvalues --    3.66632   3.66967   3.67614   3.67713   3.68120
 Alpha virt. eigenvalues --    3.68381   3.68702   3.69298   3.69446   3.70418
 Alpha virt. eigenvalues --    3.70825   3.71708   3.72239   3.72768   3.72820
 Alpha virt. eigenvalues --    3.73603   3.73994   3.74242   3.74428   3.74784
 Alpha virt. eigenvalues --    3.75140   3.75907   3.76369   3.76599   3.76903
 Alpha virt. eigenvalues --    3.77074   3.77396   3.77670   3.78136   3.78467
 Alpha virt. eigenvalues --    3.78745   3.79730   3.79887   3.80202   3.80592
 Alpha virt. eigenvalues --    3.81105   3.81634   3.82260   3.82694   3.82787
 Alpha virt. eigenvalues --    3.83094   3.83491   3.84607   3.84978   3.85232
 Alpha virt. eigenvalues --    3.85962   3.86538   3.86880   3.87382   3.87746
 Alpha virt. eigenvalues --    3.88512   3.89026   3.89734   3.90318   3.90838
 Alpha virt. eigenvalues --    3.91157   3.91656   3.92686   3.92999   3.93351
 Alpha virt. eigenvalues --    3.94414   3.95086   3.95473   3.95751   3.96353
 Alpha virt. eigenvalues --    3.97009   3.97633   3.98948   3.99407   3.99703
 Alpha virt. eigenvalues --    4.00656   4.01307   4.01707   4.02116   4.02380
 Alpha virt. eigenvalues --    4.02710   4.02907   4.03248   4.04171   4.04941
 Alpha virt. eigenvalues --    4.05620   4.06101   4.06407   4.07242   4.07441
 Alpha virt. eigenvalues --    4.07504   4.08293   4.09948   4.10534   4.10909
 Alpha virt. eigenvalues --    4.11440   4.12267   4.12776   4.13019   4.13540
 Alpha virt. eigenvalues --    4.13964   4.14647   4.15143   4.15582   4.16668
 Alpha virt. eigenvalues --    4.17234   4.17928   4.18497   4.19486   4.19620
 Alpha virt. eigenvalues --    4.20190   4.20685   4.21184   4.21823   4.22406
 Alpha virt. eigenvalues --    4.22920   4.23160   4.23755   4.24288   4.25138
 Alpha virt. eigenvalues --    4.25472   4.25955   4.26242   4.27107   4.27453
 Alpha virt. eigenvalues --    4.27890   4.28349   4.29645   4.30665   4.30837
 Alpha virt. eigenvalues --    4.32303   4.32668   4.32991   4.34044   4.35021
 Alpha virt. eigenvalues --    4.35631   4.36825   4.37374   4.37956   4.38272
 Alpha virt. eigenvalues --    4.39097   4.39407   4.39566   4.40937   4.41124
 Alpha virt. eigenvalues --    4.42343   4.42904   4.43780   4.44787   4.45549
 Alpha virt. eigenvalues --    4.45844   4.46431   4.46871   4.47500   4.47975
 Alpha virt. eigenvalues --    4.49003   4.49723   4.50816   4.51803   4.52436
 Alpha virt. eigenvalues --    4.52559   4.53204   4.54091   4.54962   4.56090
 Alpha virt. eigenvalues --    4.57061   4.57354   4.58872   4.60010   4.61897
 Alpha virt. eigenvalues --    4.62500   4.63342   4.64712   4.65729   4.65800
 Alpha virt. eigenvalues --    4.66970   4.67621   4.68472   4.69285   4.69476
 Alpha virt. eigenvalues --    4.70420   4.71350   4.71801   4.72636   4.72988
 Alpha virt. eigenvalues --    4.73555   4.74887   4.75608   4.75870   4.76131
 Alpha virt. eigenvalues --    4.76947   4.78062   4.78740   4.79297   4.80041
 Alpha virt. eigenvalues --    4.80531   4.80683   4.81379   4.81744   4.82355
 Alpha virt. eigenvalues --    4.83005   4.83394   4.83671   4.84045   4.84829
 Alpha virt. eigenvalues --    4.85297   4.85799   4.85912   4.86540   4.88102
 Alpha virt. eigenvalues --    4.88533   4.90791   4.91119   4.91541   4.92116
 Alpha virt. eigenvalues --    4.92899   4.93109   4.94142   4.94585   4.95176
 Alpha virt. eigenvalues --    4.95921   4.96431   4.97340   4.98210   4.98659
 Alpha virt. eigenvalues --    4.99356   5.00011   5.00371   5.01090   5.02279
 Alpha virt. eigenvalues --    5.02656   5.03218   5.03576   5.03879   5.05755
 Alpha virt. eigenvalues --    5.06414   5.08003   5.09561   5.10991   5.13579
 Alpha virt. eigenvalues --    5.15027   5.15993   5.16832   5.18023   5.18741
 Alpha virt. eigenvalues --    5.18903   5.19838   5.21566   5.21755   5.22155
 Alpha virt. eigenvalues --    5.22370   5.22720   5.23174   5.24601   5.25516
 Alpha virt. eigenvalues --    5.26252   5.27698   5.29198   5.31484   5.32544
 Alpha virt. eigenvalues --    5.33967   5.35404   5.36203   5.36632   5.36870
 Alpha virt. eigenvalues --    5.37786   5.38981   5.40049   5.40737   5.42829
 Alpha virt. eigenvalues --    5.45412   5.46394   5.47704   5.49012   5.50379
 Alpha virt. eigenvalues --    5.50493   5.53106   5.54214   5.57433   5.58209
 Alpha virt. eigenvalues --    5.58476   5.59934   5.60430   5.61287   5.61901
 Alpha virt. eigenvalues --    5.62753   5.64229   5.64389   5.64522   5.70363
 Alpha virt. eigenvalues --    5.74309   5.75204   5.77821   5.78433   5.84828
 Alpha virt. eigenvalues --    5.85446   5.86671   5.89156   5.90307   5.91641
 Alpha virt. eigenvalues --    5.94691   5.95631   5.97105   5.98043   5.99383
 Alpha virt. eigenvalues --    6.01105   6.01950   6.03907   6.04613   6.08750
 Alpha virt. eigenvalues --    6.09533   6.13209   6.16445   6.17744   6.21442
 Alpha virt. eigenvalues --    6.21996   6.22479   6.30650   6.31445   6.36962
 Alpha virt. eigenvalues --    6.37769   6.38300   6.43071   6.44201   6.47023
 Alpha virt. eigenvalues --    6.47268   6.56122   6.56238   6.72806   6.74523
 Alpha virt. eigenvalues --    6.75533   6.76256   6.85511   6.86093   6.91772
 Alpha virt. eigenvalues --    6.92428   6.94043   6.94664   7.11404   7.12562
 Alpha virt. eigenvalues --    7.18371   7.19594   7.27986   7.29285   9.07681
 Alpha virt. eigenvalues --    9.18847   9.46598  19.73234  22.39478  22.52955
 Alpha virt. eigenvalues --   22.56354  22.80877  22.85967  22.87814  22.88540
 Alpha virt. eigenvalues --   22.91618  22.94083  22.95470  22.95781  22.99755
 Alpha virt. eigenvalues --   23.00720  23.03351  23.05265  23.06616  23.08810
 Alpha virt. eigenvalues --   23.13479  23.16907  23.21145  23.21764  23.24565
 Alpha virt. eigenvalues --   23.32710  23.33688  23.34388  23.39008  23.42440
 Alpha virt. eigenvalues --   23.50024  23.51736  23.55633  23.59499  23.64555
 Alpha virt. eigenvalues --   23.70752  23.77799  23.84638  32.88638  32.92112
 Alpha virt. eigenvalues --   32.92717  33.00543  43.93034  43.93249  43.96397
 Alpha virt. eigenvalues --   43.98097
  Beta  occ. eigenvalues -- -256.33584 -89.01952 -30.06242 -25.89978 -25.89423
  Beta  occ. eigenvalues --  -25.88928 -19.27488 -19.27182 -19.17616 -19.17563
  Beta  occ. eigenvalues --  -14.37275 -14.36880 -14.36614 -14.36225 -10.35268
  Beta  occ. eigenvalues --  -10.35160 -10.25558 -10.25519 -10.25056 -10.25028
  Beta  occ. eigenvalues --  -10.24984 -10.24953 -10.24873 -10.24490 -10.24040
  Beta  occ. eigenvalues --  -10.24012 -10.23857 -10.23632 -10.23302 -10.22948
  Beta  occ. eigenvalues --  -10.22641 -10.22587 -10.22434 -10.22418 -10.22209
  Beta  occ. eigenvalues --  -10.21474 -10.21428 -10.21420 -10.21294 -10.21279
  Beta  occ. eigenvalues --  -10.21215 -10.20372 -10.20315 -10.18844 -10.18826
  Beta  occ. eigenvalues --  -10.18823 -10.18282 -10.17905 -10.17547  -8.00148
  Beta  occ. eigenvalues --   -5.93790  -5.93409  -5.92970  -3.37284  -2.12735
  Beta  occ. eigenvalues --   -2.11903  -2.11582  -1.17431  -1.16943  -1.02893
  Beta  occ. eigenvalues --   -1.02240  -0.98231  -0.97213  -0.96883  -0.95020
  Beta  occ. eigenvalues --   -0.85126  -0.84547  -0.84132  -0.83786  -0.82662
  Beta  occ. eigenvalues --   -0.82246  -0.81912  -0.81708  -0.80244  -0.79695
  Beta  occ. eigenvalues --   -0.79004  -0.78233  -0.77065  -0.75355  -0.74434
  Beta  occ. eigenvalues --   -0.73987  -0.73656  -0.71219  -0.70450  -0.69862
  Beta  occ. eigenvalues --   -0.68174  -0.67909  -0.67703  -0.67154  -0.66500
  Beta  occ. eigenvalues --   -0.65678  -0.63853  -0.59980  -0.59746  -0.57393
  Beta  occ. eigenvalues --   -0.56518  -0.56138  -0.55052  -0.54875  -0.54109
  Beta  occ. eigenvalues --   -0.53342  -0.53253  -0.52352  -0.52080  -0.51525
  Beta  occ. eigenvalues --   -0.50215  -0.49672  -0.48621  -0.48397  -0.47855
  Beta  occ. eigenvalues --   -0.47780  -0.47485  -0.47361  -0.46896  -0.46725
  Beta  occ. eigenvalues --   -0.46639  -0.46442  -0.46358  -0.46147  -0.45606
  Beta  occ. eigenvalues --   -0.45291  -0.45101  -0.44796  -0.44560  -0.44310
  Beta  occ. eigenvalues --   -0.44020  -0.43921  -0.43612  -0.43263  -0.42448
  Beta  occ. eigenvalues --   -0.42213  -0.42123  -0.41658  -0.41386  -0.41216
  Beta  occ. eigenvalues --   -0.40989  -0.40502  -0.40441  -0.40205  -0.40163
  Beta  occ. eigenvalues --   -0.39695  -0.39484  -0.39185  -0.38802  -0.38368
  Beta  occ. eigenvalues --   -0.37895  -0.37764  -0.36542  -0.35965  -0.35918
  Beta  occ. eigenvalues --   -0.35194  -0.34722  -0.34221  -0.34142  -0.33422
  Beta  occ. eigenvalues --   -0.32716  -0.32438  -0.31587  -0.30624  -0.30109
  Beta  occ. eigenvalues --   -0.29135  -0.28794  -0.28292  -0.27820  -0.27712
  Beta  occ. eigenvalues --   -0.26199  -0.25310  -0.24547  -0.23632  -0.22244
  Beta  occ. eigenvalues --   -0.20146  -0.19881  -0.17672
  Beta virt. eigenvalues --   -0.08324  -0.07774  -0.06223  -0.01570  -0.00723
  Beta virt. eigenvalues --   -0.00479   0.00548   0.00944   0.01072   0.01830
  Beta virt. eigenvalues --    0.02005   0.03045   0.03982   0.04561   0.04824
  Beta virt. eigenvalues --    0.05063   0.05577   0.05702   0.06234   0.06537
  Beta virt. eigenvalues --    0.07314   0.07725   0.08072   0.08224   0.08333
  Beta virt. eigenvalues --    0.08707   0.09008   0.09578   0.09695   0.10120
  Beta virt. eigenvalues --    0.10408   0.10525   0.10709   0.11093   0.11261
  Beta virt. eigenvalues --    0.11437   0.11921   0.12184   0.12331   0.12697
  Beta virt. eigenvalues --    0.12844   0.13042   0.13467   0.13748   0.13849
  Beta virt. eigenvalues --    0.13902   0.14194   0.14641   0.14842   0.15010
  Beta virt. eigenvalues --    0.15184   0.15328   0.15394   0.15675   0.15962
  Beta virt. eigenvalues --    0.16052   0.16373   0.16711   0.16959   0.17531
  Beta virt. eigenvalues --    0.17783   0.18024   0.18136   0.18424   0.18722
  Beta virt. eigenvalues --    0.18944   0.19020   0.19095   0.19275   0.19717
  Beta virt. eigenvalues --    0.19845   0.20082   0.20288   0.20479   0.20590
  Beta virt. eigenvalues --    0.20641   0.21034   0.21219   0.21482   0.21746
  Beta virt. eigenvalues --    0.21920   0.22252   0.22358   0.22836   0.22852
  Beta virt. eigenvalues --    0.22949   0.23205   0.23376   0.23625   0.23882
  Beta virt. eigenvalues --    0.24019   0.24503   0.24839   0.25166   0.25258
  Beta virt. eigenvalues --    0.25371   0.25438   0.25807   0.25971   0.26148
  Beta virt. eigenvalues --    0.26401   0.26508   0.26958   0.27157   0.27427
  Beta virt. eigenvalues --    0.27546   0.27825   0.28031   0.28349   0.28473
  Beta virt. eigenvalues --    0.28722   0.29248   0.29409   0.29511   0.29702
  Beta virt. eigenvalues --    0.30133   0.30261   0.30333   0.30784   0.31027
  Beta virt. eigenvalues --    0.31127   0.31608   0.31900   0.32143   0.32344
  Beta virt. eigenvalues --    0.32880   0.32892   0.33254   0.33431   0.33665
  Beta virt. eigenvalues --    0.34354   0.34532   0.34632   0.34795   0.35350
  Beta virt. eigenvalues --    0.35698   0.35911   0.36041   0.36361   0.36562
  Beta virt. eigenvalues --    0.36700   0.37360   0.37654   0.37842   0.38071
  Beta virt. eigenvalues --    0.38148   0.38405   0.38489   0.38882   0.39013
  Beta virt. eigenvalues --    0.39116   0.39486   0.39798   0.40039   0.40344
  Beta virt. eigenvalues --    0.40540   0.40715   0.40786   0.41037   0.41592
  Beta virt. eigenvalues --    0.41676   0.41739   0.41944   0.42251   0.42417
  Beta virt. eigenvalues --    0.42843   0.43117   0.43250   0.43414   0.43561
  Beta virt. eigenvalues --    0.43767   0.44309   0.44542   0.44637   0.45150
  Beta virt. eigenvalues --    0.45276   0.45409   0.45750   0.45810   0.45964
  Beta virt. eigenvalues --    0.46195   0.46421   0.46635   0.46954   0.47133
  Beta virt. eigenvalues --    0.47476   0.47552   0.47816   0.47998   0.48098
  Beta virt. eigenvalues --    0.48320   0.48476   0.48619   0.49006   0.49119
  Beta virt. eigenvalues --    0.49374   0.49514   0.49768   0.49949   0.50244
  Beta virt. eigenvalues --    0.50426   0.50609   0.50746   0.51027   0.51515
  Beta virt. eigenvalues --    0.51653   0.51963   0.52053   0.52341   0.52518
  Beta virt. eigenvalues --    0.52731   0.52964   0.53062   0.53290   0.53522
  Beta virt. eigenvalues --    0.53744   0.54193   0.54275   0.54465   0.54568
  Beta virt. eigenvalues --    0.54799   0.55108   0.55277   0.55346   0.55739
  Beta virt. eigenvalues --    0.56115   0.56157   0.56420   0.56926   0.57024
  Beta virt. eigenvalues --    0.57173   0.57362   0.57746   0.58045   0.58230
  Beta virt. eigenvalues --    0.58603   0.59114   0.59309   0.59371   0.59823
  Beta virt. eigenvalues --    0.60002   0.60284   0.60559   0.60875   0.61071
  Beta virt. eigenvalues --    0.61410   0.61601   0.61993   0.62168   0.62392
  Beta virt. eigenvalues --    0.62738   0.62909   0.63146   0.63320   0.63380
  Beta virt. eigenvalues --    0.63949   0.64205   0.64690   0.64870   0.65104
  Beta virt. eigenvalues --    0.65290   0.65892   0.65999   0.66077   0.66578
  Beta virt. eigenvalues --    0.66733   0.67213   0.67525   0.67738   0.68264
  Beta virt. eigenvalues --    0.68354   0.68970   0.69100   0.69142   0.69531
  Beta virt. eigenvalues --    0.69931   0.69999   0.70240   0.70496   0.70593
  Beta virt. eigenvalues --    0.70894   0.71118   0.71590   0.71899   0.72013
  Beta virt. eigenvalues --    0.72547   0.72768   0.73110   0.73328   0.73615
  Beta virt. eigenvalues --    0.73778   0.73867   0.74332   0.74851   0.74969
  Beta virt. eigenvalues --    0.75160   0.75394   0.75459   0.75964   0.76193
  Beta virt. eigenvalues --    0.76667   0.76830   0.77610   0.78030   0.78290
  Beta virt. eigenvalues --    0.78596   0.78950   0.79137   0.79283   0.79427
  Beta virt. eigenvalues --    0.80012   0.80081   0.80323   0.80457   0.80823
  Beta virt. eigenvalues --    0.81282   0.81464   0.81763   0.82324   0.82992
  Beta virt. eigenvalues --    0.83071   0.83376   0.83712   0.84150   0.84356
  Beta virt. eigenvalues --    0.84540   0.84734   0.84845   0.85364   0.85903
  Beta virt. eigenvalues --    0.85983   0.86684   0.87088   0.87788   0.88011
  Beta virt. eigenvalues --    0.88149   0.88406   0.88839   0.88920   0.89278
  Beta virt. eigenvalues --    0.89694   0.89848   0.90203   0.91045   0.91220
  Beta virt. eigenvalues --    0.91468   0.91816   0.92118   0.92392   0.92774
  Beta virt. eigenvalues --    0.93003   0.93469   0.93594   0.93963   0.94136
  Beta virt. eigenvalues --    0.94573   0.94726   0.95002   0.95325   0.95772
  Beta virt. eigenvalues --    0.95986   0.96344   0.96720   0.97108   0.97625
  Beta virt. eigenvalues --    0.97767   0.97992   0.98222   0.98843   0.99261
  Beta virt. eigenvalues --    0.99542   0.99625   1.00321   1.00463   1.00892
  Beta virt. eigenvalues --    1.01113   1.01318   1.01772   1.01986   1.02339
  Beta virt. eigenvalues --    1.02569   1.03148   1.03321   1.03663   1.03897
  Beta virt. eigenvalues --    1.04176   1.04270   1.04705   1.04840   1.05130
  Beta virt. eigenvalues --    1.05315   1.05379   1.05733   1.06262   1.06738
  Beta virt. eigenvalues --    1.06914   1.07377   1.07672   1.07827   1.08094
  Beta virt. eigenvalues --    1.08537   1.08774   1.09622   1.10151   1.10184
  Beta virt. eigenvalues --    1.10635   1.10939   1.11359   1.11544   1.12155
  Beta virt. eigenvalues --    1.12457   1.12727   1.13301   1.14081   1.14320
  Beta virt. eigenvalues --    1.14712   1.15160   1.15766   1.15904   1.16364
  Beta virt. eigenvalues --    1.17052   1.17526   1.17859   1.18421   1.18966
  Beta virt. eigenvalues --    1.19356   1.19665   1.20196   1.20387   1.20868
  Beta virt. eigenvalues --    1.21061   1.21665   1.22344   1.22512   1.22724
  Beta virt. eigenvalues --    1.23623   1.23767   1.24193   1.24482   1.25017
  Beta virt. eigenvalues --    1.25570   1.25645   1.25929   1.26541   1.27500
  Beta virt. eigenvalues --    1.27996   1.28565   1.28701   1.28790   1.29253
  Beta virt. eigenvalues --    1.29606   1.29971   1.30382   1.30640   1.30997
  Beta virt. eigenvalues --    1.31534   1.31938   1.32468   1.32746   1.32854
  Beta virt. eigenvalues --    1.33382   1.33793   1.34518   1.35179   1.35605
  Beta virt. eigenvalues --    1.35720   1.36485   1.36599   1.37123   1.38094
  Beta virt. eigenvalues --    1.38426   1.38982   1.39591   1.39799   1.40571
  Beta virt. eigenvalues --    1.41274   1.41869   1.42574   1.42742   1.43135
  Beta virt. eigenvalues --    1.44047   1.44269   1.45387   1.45434   1.45734
  Beta virt. eigenvalues --    1.46022   1.46403   1.46949   1.47239   1.47620
  Beta virt. eigenvalues --    1.47722   1.47994   1.48454   1.48665   1.48895
  Beta virt. eigenvalues --    1.49353   1.49745   1.49988   1.50215   1.50692
  Beta virt. eigenvalues --    1.51054   1.51183   1.51302   1.51711   1.52242
  Beta virt. eigenvalues --    1.52512   1.52925   1.53161   1.53328   1.53592
  Beta virt. eigenvalues --    1.54231   1.54683   1.55012   1.55889   1.56016
  Beta virt. eigenvalues --    1.56244   1.56475   1.56970   1.57428   1.57730
  Beta virt. eigenvalues --    1.57911   1.58270   1.58703   1.58909   1.59224
  Beta virt. eigenvalues --    1.59376   1.59988   1.60323   1.60844   1.60886
  Beta virt. eigenvalues --    1.61275   1.61552   1.61770   1.62005   1.62272
  Beta virt. eigenvalues --    1.62502   1.62990   1.63267   1.63568   1.63626
  Beta virt. eigenvalues --    1.63803   1.63920   1.64231   1.64584   1.64914
  Beta virt. eigenvalues --    1.65022   1.65516   1.65692   1.66015   1.66362
  Beta virt. eigenvalues --    1.66612   1.66845   1.67055   1.67165   1.67490
  Beta virt. eigenvalues --    1.67730   1.67928   1.68132   1.68466   1.68866
  Beta virt. eigenvalues --    1.69107   1.69245   1.69369   1.69981   1.70306
  Beta virt. eigenvalues --    1.70679   1.71019   1.71243   1.71797   1.72070
  Beta virt. eigenvalues --    1.72389   1.73003   1.73224   1.73465   1.73566
  Beta virt. eigenvalues --    1.73672   1.74044   1.74909   1.75288   1.75454
  Beta virt. eigenvalues --    1.75827   1.76025   1.76784   1.77280   1.77782
  Beta virt. eigenvalues --    1.78135   1.78343   1.78888   1.79597   1.79941
  Beta virt. eigenvalues --    1.80259   1.80568   1.81319   1.81694   1.82261
  Beta virt. eigenvalues --    1.83033   1.83756   1.84008   1.84167   1.84925
  Beta virt. eigenvalues --    1.85365   1.85715   1.85988   1.86218   1.86620
  Beta virt. eigenvalues --    1.87050   1.87200   1.88102   1.88325   1.88775
  Beta virt. eigenvalues --    1.88908   1.89325   1.89970   1.90612   1.90921
  Beta virt. eigenvalues --    1.91049   1.91281   1.92442   1.92733   1.93142
  Beta virt. eigenvalues --    1.93224   1.93685   1.94412   1.94855   1.95199
  Beta virt. eigenvalues --    1.95858   1.96067   1.96374   1.96698   1.96868
  Beta virt. eigenvalues --    1.97081   1.97738   1.97802   1.98268   1.98797
  Beta virt. eigenvalues --    1.99484   1.99547   1.99606   2.00467   2.00926
  Beta virt. eigenvalues --    2.01300   2.01591   2.01903   2.02173   2.02568
  Beta virt. eigenvalues --    2.03061   2.03394   2.03463   2.03689   2.04402
  Beta virt. eigenvalues --    2.05501   2.06014   2.06593   2.07158   2.07332
  Beta virt. eigenvalues --    2.07707   2.08162   2.08498   2.08772   2.09104
  Beta virt. eigenvalues --    2.09599   2.09932   2.10131   2.10434   2.10752
  Beta virt. eigenvalues --    2.11084   2.11488   2.11973   2.12988   2.13207
  Beta virt. eigenvalues --    2.13760   2.14106   2.14480   2.14687   2.15186
  Beta virt. eigenvalues --    2.15280   2.15432   2.15890   2.16383   2.17121
  Beta virt. eigenvalues --    2.17336   2.17553   2.18174   2.18666   2.18852
  Beta virt. eigenvalues --    2.19071   2.19557   2.19800   2.20306   2.20522
  Beta virt. eigenvalues --    2.21087   2.21472   2.21792   2.21916   2.22262
  Beta virt. eigenvalues --    2.22609   2.22804   2.23275   2.24062   2.24378
  Beta virt. eigenvalues --    2.24833   2.25431   2.26041   2.26536   2.27214
  Beta virt. eigenvalues --    2.27503   2.28064   2.28813   2.29145   2.29571
  Beta virt. eigenvalues --    2.29865   2.30088   2.30728   2.31115   2.31527
  Beta virt. eigenvalues --    2.31885   2.32495   2.32667   2.33007   2.33393
  Beta virt. eigenvalues --    2.33582   2.34144   2.34551   2.34831   2.36104
  Beta virt. eigenvalues --    2.36389   2.37091   2.37415   2.37720   2.38316
  Beta virt. eigenvalues --    2.38646   2.39193   2.39829   2.40351   2.41394
  Beta virt. eigenvalues --    2.41985   2.42320   2.42344   2.42536   2.43204
  Beta virt. eigenvalues --    2.43255   2.43614   2.44372   2.44989   2.45266
  Beta virt. eigenvalues --    2.45748   2.46121   2.46287   2.46617   2.46809
  Beta virt. eigenvalues --    2.47880   2.48155   2.48446   2.49058   2.49728
  Beta virt. eigenvalues --    2.50240   2.50876   2.51198   2.51581   2.51851
  Beta virt. eigenvalues --    2.52907   2.53221   2.53422   2.54034   2.54278
  Beta virt. eigenvalues --    2.54497   2.55090   2.55632   2.56152   2.56456
  Beta virt. eigenvalues --    2.56596   2.57331   2.57423   2.57524   2.58231
  Beta virt. eigenvalues --    2.58735   2.58882   2.60112   2.60386   2.60871
  Beta virt. eigenvalues --    2.61933   2.62238   2.62270   2.62963   2.63099
  Beta virt. eigenvalues --    2.63405   2.63699   2.64086   2.64257   2.64316
  Beta virt. eigenvalues --    2.65322   2.65770   2.66322   2.66954   2.67559
  Beta virt. eigenvalues --    2.68055   2.68250   2.68944   2.69467   2.69715
  Beta virt. eigenvalues --    2.69898   2.70444   2.70498   2.70694   2.71121
  Beta virt. eigenvalues --    2.71347   2.71788   2.71898   2.72303   2.72965
  Beta virt. eigenvalues --    2.73274   2.74165   2.74244   2.74690   2.75439
  Beta virt. eigenvalues --    2.75494   2.76058   2.76198   2.76560   2.76784
  Beta virt. eigenvalues --    2.77533   2.78137   2.78471   2.78685   2.79015
  Beta virt. eigenvalues --    2.79132   2.79684   2.79964   2.80312   2.80518
  Beta virt. eigenvalues --    2.80794   2.81094   2.81218   2.81755   2.82084
  Beta virt. eigenvalues --    2.82181   2.82661   2.83066   2.83472   2.83941
  Beta virt. eigenvalues --    2.84225   2.84533   2.84609   2.85075   2.85395
  Beta virt. eigenvalues --    2.85906   2.86066   2.86834   2.87277   2.87322
  Beta virt. eigenvalues --    2.87994   2.88045   2.88108   2.88684   2.88860
  Beta virt. eigenvalues --    2.88982   2.89525   2.89701   2.90102   2.90237
  Beta virt. eigenvalues --    2.90739   2.90909   2.91335   2.91758   2.92653
  Beta virt. eigenvalues --    2.92736   2.93300   2.93982   2.94500   2.94571
  Beta virt. eigenvalues --    2.94715   2.95060   2.95397   2.95744   2.96062
  Beta virt. eigenvalues --    2.96388   2.96856   2.97270   2.97526   2.97942
  Beta virt. eigenvalues --    2.98138   2.98306   2.98525   2.98990   2.99187
  Beta virt. eigenvalues --    2.99395   2.99562   3.00354   3.00733   3.01184
  Beta virt. eigenvalues --    3.01560   3.02029   3.02396   3.02628   3.02819
  Beta virt. eigenvalues --    3.03217   3.03567   3.03959   3.04262   3.04357
  Beta virt. eigenvalues --    3.04775   3.05186   3.05460   3.05729   3.06195
  Beta virt. eigenvalues --    3.06335   3.06638   3.07302   3.07470   3.07571
  Beta virt. eigenvalues --    3.07881   3.08347   3.08693   3.08743   3.08861
  Beta virt. eigenvalues --    3.09257   3.09846   3.10160   3.10417   3.10688
  Beta virt. eigenvalues --    3.10836   3.10932   3.11495   3.12303   3.12489
  Beta virt. eigenvalues --    3.12884   3.12950   3.13690   3.14085   3.14389
  Beta virt. eigenvalues --    3.14543   3.14637   3.14957   3.15421   3.15816
  Beta virt. eigenvalues --    3.15927   3.16230   3.16694   3.16966   3.17595
  Beta virt. eigenvalues --    3.18134   3.18194   3.19469   3.19582   3.19809
  Beta virt. eigenvalues --    3.19870   3.20293   3.20877   3.20933   3.21220
  Beta virt. eigenvalues --    3.21357   3.22003   3.22481   3.22549   3.22997
  Beta virt. eigenvalues --    3.23283   3.23455   3.23697   3.24138   3.24521
  Beta virt. eigenvalues --    3.24762   3.25320   3.25502   3.26021   3.26537
  Beta virt. eigenvalues --    3.26679   3.26792   3.27657   3.27956   3.28076
  Beta virt. eigenvalues --    3.28423   3.28605   3.28855   3.29435   3.29588
  Beta virt. eigenvalues --    3.29816   3.30147   3.30531   3.30690   3.31168
  Beta virt. eigenvalues --    3.31478   3.31683   3.31751   3.32200   3.32344
  Beta virt. eigenvalues --    3.32510   3.32936   3.33235   3.33605   3.34023
  Beta virt. eigenvalues --    3.34181   3.34438   3.34800   3.34919   3.35246
  Beta virt. eigenvalues --    3.35486   3.35878   3.36366   3.36433   3.36511
  Beta virt. eigenvalues --    3.36786   3.37086   3.37198   3.37684   3.37923
  Beta virt. eigenvalues --    3.38155   3.38366   3.39038   3.39363   3.39795
[...]
              Bcc     0.0024     0.318     0.113     0.106  0.9145 -0.3963 -0.0820
 
              Baa    -0.0008     0.061     0.022     0.020  0.3345  0.4110  0.8481
    19 O(17)  Bbb    -0.0008     0.058     0.021     0.019  0.2336  0.8356 -0.4971
              Bcc     0.0016    -0.119    -0.043    -0.040  0.9130 -0.3644 -0.1835
 
              Baa    -0.0011     0.078     0.028     0.026  0.1418  0.5059  0.8509
    20 O(17)  Bbb    -0.0009     0.068     0.024     0.023  0.3399  0.7824 -0.5218
              Bcc     0.0020    -0.146    -0.052    -0.049  0.9297 -0.3632  0.0610
 
              Baa    -0.1097    -4.233    -1.510    -1.412  0.6443 -0.5442 -0.5373
    21 N(14)  Bbb    -0.0952    -3.673    -1.311    -1.225  0.3673 -0.3960  0.8416
              Bcc     0.2050     7.905     2.821     2.637  0.6707  0.7396  0.0553
 
              Baa    -0.0247    -3.309    -1.181    -1.104  0.4649 -0.0624  0.8831
    22 C(13)  Bbb    -0.0220    -2.949    -1.052    -0.984  0.8681 -0.1637 -0.4686
              Bcc     0.0466     6.257     2.233     2.087  0.1738  0.9845 -0.0219
 
              Baa    -0.0768   -10.305    -3.677    -3.437  0.6465 -0.2912  0.7051
    23 C(13)  Bbb     0.0196     2.633     0.940     0.878 -0.5798  0.4131  0.7023
              Bcc     0.0572     7.672     2.738     2.559  0.4958  0.8629 -0.0982
 
              Baa    -0.0522    -6.999    -2.497    -2.335  0.9089 -0.4169  0.0107
    24 C(13)  Bbb     0.0128     1.713     0.611     0.571  0.4165  0.9060 -0.0754
              Bcc     0.0394     5.286     1.886     1.763  0.0218  0.0730  0.9971
 
              Baa    -0.0324    -4.343    -1.550    -1.449 -0.1487 -0.4156  0.8973
    25 C(13)  Bbb    -0.0032    -0.425    -0.152    -0.142 -0.1152  0.9085  0.4017
              Bcc     0.0355     4.767     1.701     1.590  0.9821  0.0437  0.1830
 
              Baa    -0.0092    -1.228    -0.438    -0.410  0.8592 -0.5094  0.0482
    26 C(13)  Bbb    -0.0010    -0.136    -0.048    -0.045 -0.0332  0.0386  0.9987
              Bcc     0.0102     1.364     0.487     0.455  0.5106  0.8597 -0.0162
 
              Baa    -1.0409  -139.683   -49.842   -46.593 -0.3918  0.8662  0.3100
    27 C(13)  Bbb     0.5152    69.132    24.668    23.060  0.0889 -0.2997  0.9499
              Bcc     0.5258    70.551    25.174    23.533  0.9157  0.3998  0.0404
 
              Baa    -0.0511    -6.855    -2.446    -2.287 -0.1889  0.9817  0.0225
    28 C(13)  Bbb     0.0166     2.229     0.795     0.743 -0.4827 -0.1128  0.8685
              Bcc     0.0345     4.626     1.651     1.543  0.8552  0.1532  0.4952
 
              Baa    -0.1375    -5.302    -1.892    -1.769  0.6967  0.7083 -0.1138
    29 N(14)  Bbb    -0.0302    -1.165    -0.416    -0.389  0.0101  0.1489  0.9888
              Bcc     0.1677     6.468     2.308     2.157  0.7173 -0.6900  0.0966
 
              Baa    -0.0458    -6.147    -2.194    -2.051  0.0818  0.1360  0.9873
    30 C(13)  Bbb    -0.0128    -1.723    -0.615    -0.575  0.3926  0.9061 -0.1574
              Bcc     0.0587     7.871     2.808     2.625  0.9160 -0.4005 -0.0207
 
              Baa    -0.0327    -4.391    -1.567    -1.465  0.3838  0.4069  0.8290
    31 C(13)  Bbb    -0.0130    -1.750    -0.624    -0.584  0.8764 -0.4432 -0.1882
              Bcc     0.0458     6.141     2.191     2.048  0.2908  0.7988 -0.5267
 
              Baa    -0.0524    -7.027    -2.507    -2.344  0.0822  0.0077  0.9966
    32 C(13)  Bbb     0.0019     0.259     0.092     0.086  0.9964  0.0185 -0.0823
              Bcc     0.0504     6.768     2.415     2.258 -0.0190  0.9998 -0.0061
 
              Baa    -0.0583    -7.823    -2.791    -2.610  0.1732  0.0724  0.9822
    33 C(13)  Bbb    -0.0229    -3.079    -1.098    -1.027  0.8622  0.4710 -0.1868
              Bcc     0.0812    10.902     3.890     3.636 -0.4761  0.8792  0.0191
 
              Baa    -0.0057    -0.760    -0.271    -0.254  0.0680  0.0778  0.9946
    34 C(13)  Bbb    -0.0017    -0.226    -0.080    -0.075 -0.0861  0.9937 -0.0718
              Bcc     0.0073     0.986     0.352     0.329  0.9940  0.0808 -0.0742
 
              Baa    -0.5212   -69.936   -24.955   -23.328 -0.0774 -0.1793  0.9807
    35 C(13)  Bbb    -0.5081   -68.184   -24.330   -22.744 -0.4448  0.8866  0.1270
              Bcc     1.0293   138.120    49.285    46.072  0.8923  0.4264  0.1484
 
              Baa    -0.0338    -4.536    -1.618    -1.513 -0.2464  0.7045 -0.6656
    36 C(13)  Bbb    -0.0177    -2.382    -0.850    -0.794  0.0044  0.6875  0.7261
              Bcc     0.0516     6.918     2.468     2.307  0.9692  0.1760 -0.1725
 
              Baa    -0.1094    -4.221    -1.506    -1.408  0.7291 -0.6680  0.1491
    37 N(14)  Bbb    -0.0886    -3.417    -1.219    -1.140 -0.0192  0.1979  0.9800
              Bcc     0.1981     7.639     2.726     2.548  0.6841  0.7174 -0.1315
 
              Baa    -0.0406    -5.451    -1.945    -1.818  0.0041  0.0981  0.9952
    38 C(13)  Bbb    -0.0107    -1.431    -0.511    -0.477  0.9682 -0.2495  0.0206
              Bcc     0.0513     6.882     2.456     2.296  0.2503  0.9634 -0.0960
 
              Baa    -0.0170    -2.278    -0.813    -0.760  0.7675 -0.6198  0.1637
    39 C(13)  Bbb     0.0046     0.614     0.219     0.205  0.6218  0.7819  0.0449
              Bcc     0.0124     1.664     0.594     0.555 -0.1558  0.0674  0.9855
 
              Baa    -0.0191    -2.568    -0.916    -0.857 -0.0163  0.1644  0.9863
    40 C(13)  Bbb    -0.0018    -0.239    -0.085    -0.080 -0.6196  0.7725 -0.1390
              Bcc     0.0209     2.808     1.002     0.937  0.7848  0.6133 -0.0892
 
              Baa    -0.0229    -3.074    -1.097    -1.025 -0.3203  0.9456 -0.0569
    41 C(13)  Bbb    -0.0194    -2.600    -0.928    -0.867 -0.0249  0.0517  0.9984
              Bcc     0.0423     5.674     2.025     1.893  0.9470  0.3212  0.0070
 
              Baa    -0.0042    -0.566    -0.202    -0.189  0.1306  0.0824  0.9880
    42 C(13)  Bbb    -0.0023    -0.313    -0.112    -0.104  0.8548 -0.5143 -0.0700
              Bcc     0.0066     0.880     0.314     0.293  0.5023  0.8536 -0.1376
 
              Baa    -0.0043    -0.577    -0.206    -0.192 -0.0086  0.1382  0.9904
    43 C(13)  Bbb    -0.0034    -0.450    -0.161    -0.150 -0.3972  0.9084 -0.1302
              Bcc     0.0077     1.027     0.366     0.342  0.9177  0.3945 -0.0471
 
              Baa    -0.0026    -0.355    -0.127    -0.118 -0.1948  0.1063  0.9751
    44 C(13)  Bbb    -0.0019    -0.252    -0.090    -0.084 -0.3809  0.9079 -0.1751
              Bcc     0.0045     0.607     0.217     0.203  0.9039  0.4055  0.1364
 
              Baa    -0.0013    -0.181    -0.064    -0.060 -0.1959  0.0606  0.9788
    45 C(13)  Bbb    -0.0012    -0.165    -0.059    -0.055 -0.3360  0.9335 -0.1251
              Bcc     0.0026     0.346     0.123     0.115  0.9213  0.3534  0.1625
 
              Baa    -0.0009     0.068     0.024     0.023 -0.2414 -0.0694  0.9679
    46 O(17)  Bbb    -0.0008     0.060     0.022     0.020 -0.3819  0.9237 -0.0290
              Bcc     0.0018    -0.128    -0.046    -0.043  0.8921  0.3767  0.2495
 
              Baa    -0.0012     0.088     0.031     0.029 -0.1252  0.3666  0.9219
    47 O(17)  Bbb    -0.0010     0.069     0.025     0.023 -0.2521  0.8870 -0.3869
              Bcc     0.0022    -0.157    -0.056    -0.052  0.9596  0.2808  0.0186
 
              Baa    -0.0072    -3.821    -1.364    -1.275 -0.0479  0.0837  0.9953
    48 H(1)   Bbb    -0.0056    -2.983    -1.064    -0.995  0.0236  0.9963 -0.0826
              Bcc     0.0128     6.804     2.428     2.270  0.9986 -0.0196  0.0497
 
              Baa    -0.0080    -4.244    -1.514    -1.416  0.9965  0.0015 -0.0838
    49 H(1)   Bbb    -0.0060    -3.191    -1.139    -1.064  0.0836  0.0387  0.9957
              Bcc     0.0139     7.434     2.653     2.480 -0.0047  0.9992 -0.0385
 
              Baa    -0.0223   -11.890    -4.243    -3.966  0.1859  0.9808 -0.0594
    50 H(1)   Bbb     0.0031     1.652     0.589     0.551  0.0050  0.0595  0.9982
              Bcc     0.0192    10.238     3.653     3.415  0.9825 -0.1859  0.0061
 
              Baa    -0.0170    -9.091    -3.244    -3.032  0.2084  0.1856  0.9603
    51 H(1)   Bbb    -0.0016    -0.872    -0.311    -0.291  0.7138  0.6424 -0.2791
              Bcc     0.0187     9.963     3.555     3.323 -0.6686  0.7436  0.0014
 
              Baa    -0.0032    -1.725    -0.616    -0.575  0.8906  0.3933  0.2283
    52 H(1)   Bbb    -0.0026    -1.395    -0.498    -0.465 -0.2988  0.1277  0.9457
              Bcc     0.0058     3.120     1.113     1.041 -0.3428  0.9105 -0.2313
 
              Baa    -0.0024    -1.256    -0.448    -0.419  0.8213  0.5676 -0.0566
    53 H(1)   Bbb    -0.0022    -1.181    -0.421    -0.394 -0.0148  0.1204  0.9926
              Bcc     0.0046     2.437     0.870     0.813 -0.5703  0.8144 -0.1073
 
              Baa    -0.0031    -1.670    -0.596    -0.557  0.9118  0.3673 -0.1835
    54 H(1)   Bbb    -0.0026    -1.363    -0.487    -0.455  0.1872  0.0256  0.9820
              Bcc     0.0057     3.034     1.083     1.012 -0.3653  0.9298  0.0454
 
              Baa    -0.0023    -1.237    -0.441    -0.413  0.2276  0.5806  0.7817
    55 H(1)   Bbb    -0.0022    -1.178    -0.420    -0.393 -0.5405 -0.5924  0.5974
              Bcc     0.0045     2.415     0.862     0.806  0.8100 -0.5585  0.1790
 
              Baa    -0.0031    -1.635    -0.583    -0.545 -0.3455 -0.5574  0.7550
    56 H(1)   Bbb    -0.0029    -1.541    -0.550    -0.514  0.1456  0.7629  0.6299
              Bcc     0.0060     3.175     1.133     1.059  0.9271 -0.3275  0.1824
 
              Baa    -0.0026    -1.391    -0.497    -0.464  0.3046  0.9408 -0.1487
    57 H(1)   Bbb    -0.0026    -1.366    -0.487    -0.456  0.2444  0.0737  0.9669
              Bcc     0.0052     2.757     0.984     0.920  0.9206 -0.3309 -0.2075
 
              Baa    -0.0022    -1.160    -0.414    -0.387  0.5483  0.6204  0.5607
    58 H(1)   Bbb    -0.0020    -1.084    -0.387    -0.361 -0.1984 -0.5549  0.8079
              Bcc     0.0042     2.244     0.801     0.748  0.8124 -0.5542 -0.1812
 
              Baa    -0.0083    -4.405    -1.572    -1.469  0.7223 -0.6628 -0.1974
    59 H(1)   Bbb     0.0013     0.707     0.252     0.236  0.0950 -0.1876  0.9776
              Bcc     0.0069     3.698     1.320     1.234  0.6850  0.7249  0.0725
 
              Baa    -0.0080    -4.256    -1.519    -1.420  0.7339 -0.6208  0.2758
    60 H(1)   Bbb     0.0011     0.567     0.202     0.189 -0.1887  0.2036  0.9607
              Bcc     0.0069     3.690     1.317     1.231  0.6525  0.7571 -0.0323
 
              Baa    -0.0057    -3.050    -1.088    -1.017  0.9027 -0.4274  0.0490
    61 H(1)   Bbb    -0.0014    -0.766    -0.273    -0.256 -0.0344  0.0419  0.9985
              Bcc     0.0072     3.816     1.362     1.273  0.4288  0.9031 -0.0231
 
              Baa    -0.0791   -42.229   -15.068   -14.086  0.2766  0.1477  0.9496
    62 H(1)   Bbb    -0.0065    -3.458    -1.234    -1.154 -0.5174  0.8556  0.0177
              Bcc     0.0856    45.687    16.302    15.240  0.8098  0.4962 -0.3130
 
              Baa    -0.0241   -12.837    -4.580    -4.282 -0.5408 -0.3154  0.7798
    63 H(1)   Bbb     0.0100     5.322     1.899     1.775 -0.4635  0.8854  0.0367
              Bcc     0.0141     7.515     2.681     2.507  0.7019  0.3416  0.6250
 
              Baa    -0.0161    -8.617    -3.075    -2.874 -0.2685  0.6829 -0.6793
    64 H(1)   Bbb     0.0058     3.115     1.112     1.039  0.3769  0.7235  0.5784
              Bcc     0.0103     5.501     1.963     1.835  0.8865 -0.1007 -0.4517
 
              Baa    -0.0133    -7.118    -2.540    -2.374  0.4326  0.8929 -0.1247
    65 H(1)   Bbb     0.0030     1.623     0.579     0.541  0.5854 -0.1730  0.7921
              Bcc     0.0103     5.495     1.961     1.833  0.6857 -0.4157 -0.5975
 
              Baa    -0.0056    -2.981    -1.064    -0.994 -0.1396 -0.2003  0.9697
    66 H(1)   Bbb    -0.0024    -1.285    -0.458    -0.429 -0.2087  0.9633  0.1690
              Bcc     0.0080     4.266     1.522     1.423  0.9680  0.1788  0.1763
 
              Baa    -0.0055    -2.914    -1.040    -0.972  0.2466  0.3009  0.9212
    67 H(1)   Bbb    -0.0020    -1.053    -0.376    -0.351 -0.2282  0.9419 -0.2465
              Bcc     0.0074     3.968     1.416     1.323  0.9419  0.1494 -0.3010
 
              Baa    -0.0052    -2.792    -0.996    -0.931 -0.0441  0.9926  0.1132
    68 H(1)   Bbb    -0.0030    -1.611    -0.575    -0.537  0.0505 -0.1109  0.9925
              Bcc     0.0083     4.403     1.571     1.469  0.9977  0.0495 -0.0452
 
              Baa    -0.0786   -41.934   -14.963   -13.988 -0.4478  0.7875  0.4234
    69 H(1)   Bbb    -0.0014    -0.754    -0.269    -0.252  0.8199  0.5506 -0.1570
              Bcc     0.0800    42.688    15.232    14.239  0.3567 -0.2768  0.8922
 
              Baa    -0.0139    -7.392    -2.638    -2.466  0.3185  0.8083 -0.4952
    70 H(1)   Bbb    -0.0131    -7.004    -2.499    -2.336  0.9059 -0.1057  0.4102
              Bcc     0.0270    14.396     5.137     4.802 -0.2792  0.5792  0.7658
 
              Baa    -0.0134    -7.168    -2.558    -2.391  0.5532  0.5972  0.5808
    71 H(1)   Bbb    -0.0016    -0.828    -0.295    -0.276 -0.4805  0.7983 -0.3632
              Bcc     0.0150     7.996     2.853     2.667 -0.6805 -0.0782  0.7286
 
              Baa    -0.0129    -6.898    -2.461    -2.301  0.5196  0.6440  0.5616
    72 H(1)   Bbb    -0.0050    -2.649    -0.945    -0.884 -0.1317 -0.5890  0.7973
              Bcc     0.0179     9.547     3.407     3.185  0.8442 -0.4882 -0.2212
 
              Baa    -0.0034    -1.803    -0.643    -0.601 -0.1000  0.0242  0.9947
    73 H(1)   Bbb    -0.0018    -0.935    -0.334    -0.312  0.7986 -0.5944  0.0948
              Bcc     0.0051     2.738     0.977     0.913  0.5935  0.8038  0.0402
 
              Baa    -0.0052    -2.790    -0.996    -0.931  0.0977  0.1212  0.9878
    74 H(1)   Bbb    -0.0002    -0.114    -0.041    -0.038  0.8279 -0.5608 -0.0131
              Bcc     0.0054     2.904     1.036     0.969  0.5524  0.8190 -0.1551
 
              Baa    -0.0034    -1.797    -0.641    -0.599  0.2580  0.1677  0.9515
    75 H(1)   Bbb    -0.0018    -0.964    -0.344    -0.322  0.7708 -0.6295 -0.0980
              Bcc     0.0052     2.761     0.985     0.921  0.5826  0.7586 -0.2917
 
              Baa    -0.0027    -1.421    -0.507    -0.474  0.0180  0.2362  0.9715
    76 H(1)   Bbb    -0.0021    -1.112    -0.397    -0.371 -0.5022  0.8424 -0.1955
              Bcc     0.0047     2.534     0.904     0.845  0.8646  0.4844 -0.1337
 
              Baa    -0.0032    -1.696    -0.605    -0.566  0.1305 -0.0211  0.9912
    77 H(1)   Bbb    -0.0027    -1.451    -0.518    -0.484 -0.2829  0.9574  0.0576
              Bcc     0.0059     3.147     1.123     1.050  0.9502  0.2879 -0.1189
 
              Baa    -0.0030    -1.627    -0.581    -0.543 -0.2663 -0.1122  0.9573
    78 H(1)   Bbb    -0.0027    -1.430    -0.510    -0.477 -0.3468  0.9379  0.0135
              Bcc     0.0057     3.057     1.091     1.020  0.8993  0.3284  0.2887
 
              Baa    -0.0024    -1.277    -0.456    -0.426 -0.3204  0.0637  0.9451
    79 H(1)   Bbb    -0.0020    -1.064    -0.380    -0.355 -0.4677  0.8570 -0.2163
              Bcc     0.0044     2.342     0.836     0.781  0.8238  0.5113  0.2448
 
              Baa    -0.0116    -6.181    -2.206    -2.062  0.5571  0.7899 -0.2564
    80 H(1)   Bbb    -0.0097    -5.201    -1.856    -1.735  0.6858 -0.6117 -0.3943
              Bcc     0.0213    11.382     4.061     3.797  0.4683 -0.0438  0.8825
 
              Baa    -0.0417   -22.254    -7.941    -7.423  0.7246 -0.6145  0.3119
    81 H(1)   Bbb    -0.0378   -20.170    -7.197    -6.728  0.4229  0.7539  0.5029
              Bcc     0.0795    42.424    15.138    14.151 -0.5441 -0.2325  0.8062
 
              Baa    -0.0011    -0.565    -0.202    -0.189 -0.3661 -0.0364  0.9299
    82 H(1)   Bbb    -0.0009    -0.496    -0.177    -0.166 -0.3891  0.9137 -0.1174
              Bcc     0.0020     1.061     0.379     0.354  0.8453  0.4048  0.3487
 
              Baa    -0.0010    -0.508    -0.181    -0.170  0.4787  0.5857  0.6541
    83 H(1)   Bbb    -0.0009    -0.492    -0.176    -0.164  0.0904  0.7081 -0.7003
              Bcc     0.0019     1.000     0.357     0.334  0.8733 -0.3943 -0.2860
 

 ---------------------------------------------------------------------------------

 1\1\GINC-NODE710\SP\UPBE1PBE\def2TZVP\C35H38Fe1N4O4S1(5)\ZHARTOVSKA\08
 -Feb-2023\0\\# PBE1PBE/def2TZVP empiricaldispersion=GD3BJ int=(grid=ul
 trafine) geom=check guess=read scrf=(smd,solvent=Chloroform)\\7aba_II_
 Q_solv\\0,5\C,0,-14.889,54.069,70.706001\S,0,-13.56687816,53.23681395,
 71.55914824\H,0,-14.71447753,54.02772584,69.65113686\H,0,-14.92941031,
 55.09074665,71.02112128\Fe,0,-12.781,51.564999,70.043999\C,0,-15.843,5
 0.682999,68.737\C,0,-12.326,53.716,67.419998\C,0,-9.747,52.481998,71.3
 56003\C,0,-13.053,49.152,72.466003\N,0,-13.869,52.075001,68.365997\C,0
 ,-15.15,51.650002,68.069\C,0,-15.627,52.391998,66.917999\C,0,-14.639,5
 3.238998,66.559998\C,0,-13.527,53.050999,67.460999\C,0,-14.645,54.2519
 99,65.389999\C,0,-17.028,52.222,66.265999\C,0,-17.002001,51.117001,65.
 213997\C,0,-18.334,50.995998,64.522003\O,0,-18.487,50.035999,63.722\O,
 0,-19.242001,51.830002,64.787003\N,0,-11.304,52.825001,69.476997\C,0,-
 11.327,53.639999,68.362999\C,0,-10.103,54.414001,68.347\C,0,-9.404,54.
 094002,69.454002\C,0,-10.144,53.075001,70.178001\C,0,-9.761,55.442001,
 67.245003\C,0,-8.016,54.580002,69.919998\C,0,-7.736,56.070999,69.75\N,
 0,-11.586,50.897999,71.608002\C,0,-10.422,51.490002,72.029999\C,0,-10.
 017,50.861,73.273003\C,0,-10.958,49.946999,73.593002\C,0,-11.948,49.95
 8,72.541\C,0,-8.763,51.266998,74.074997\C,0,-11.024,48.997002,74.80899
 8\C,0,-10.762,49.757999,76.116997\N,0,-14.204,50.165001,70.511002\C,0,
 -14.082,49.261002,71.561996\C,0,-15.236,48.397999,71.57\C,0,-16.113001
 ,48.882,70.422997\C,0,-15.391,49.972,69.817001\C,0,-15.519,47.251999,7
 2.560997\C,0,-17.473,48.306,69.971001\C,0,-18.58,49.112,70.639999\C,0,
 -19.937,48.653,70.149002\O,0,-20.945999,48.976002,70.82\O,0,-19.999001
 ,47.983002,69.097\H,0,-16.746,50.479,68.415001\H,0,-12.166,54.299,66.6
 49002\H,0,-8.907,52.794998,71.75\H,0,-13.116,48.425999,73.121002\H,0,-
 14.522,55.158001,65.741997\H,0,-15.501,54.198002,64.917\H,0,-13.916,54
 .040001,64.771004\H,0,-17.289,53.056999,65.846001\H,0,-17.674999,51.99
 3999,66.953003\H,0,-16.789,50.273998,65.642998\H,0,-16.319,51.320999,6
 4.556\H,0,-8.939,55.18,66.803001\H,0,-9.648,56.318001,67.644997\H,0,-1
 0.482,55.473,66.597\H,0,-7.339,54.080002,69.459\H,0,-7.551,56.466,70.6
 15997\H,0,-8.51,56.502998,69.356003\H,0,-6.969,56.192001,69.168999\H,0
 ,-8.166,50.506001,74.149002\H,0,-9.027,51.558998,74.961998\H,0,-8.308,
 51.992001,73.619003\H,0,-10.359,48.312,74.708\H,0,-11.533,49.674999,76
 .698997\H,0,-10.605,50.694,75.919998\H,0,-9.983,49.384998,76.556999\H,
 0,-16.356001,47.431,73.038002\H,0,-14.783,47.188,73.206001\H,0,-15.597
 ,46.407001,72.07\H,0,-17.538,47.375999,70.237\H,0,-17.552999,48.376999
 ,69.007004\H,0,-18.465,50.051998,70.43\H,0,-18.528999,48.990002,71.600
 998\H,0,-15.8178708,53.58877419,70.93289792\H,0,-12.41558708,53.673227
 48,71.11174228\H,0,-20.83850179,49.38977186,71.67955736\H,0,-17.720111
 08,49.59236862,63.35230625\\Version=ES64L-G16RevA.03\State=5-A\HF=-353
 6.3601846\S2=7.065466\S2-1=0.\S2A=6.074333\RMSD=1.281e-09\Dipole=2.370
 787,1.2643014,1.0912961\Quadrupole=-25.1622737,2.160846,23.0014277,1.9
 66096,-31.4935708,-8.560166\PG=C01 [X(C35H38Fe1N4O4S1)]\\@


 Sacred cows make the best hamburger.
                               -- Mark Twain
 Job cpu time:       1 days 14 hours  8 minutes 40.8 seconds.
 Elapsed time:       0 days  9 hours 34 minutes 14.1 seconds.
 File lengths (MBytes):  RWF=   3113 Int=      0 D2E=      0 Chk=    220 Scr=      1
 Normal termination of Gaussian 16 at Wed Feb  8 23:17:58 2023.
