 Entering Gaussian System, Link 0=g16
 Input=/net/homes/chemie/zhartovska/work/BioModel/Konrad/7aba/7aba12/7aba12.com
 Output=/net/homes/chemie/zhartovska/work/BioModel/Konrad/7aba/7aba12/7aba12.log
 Initial command:
 /afs/math/software/gaussian/g16.A03/g16/l1.exe "/scratch/zhartovska_gaussian.tkFCKKA/Gau-14220.inp" -scrdir="/scratch/zhartovska_gaussian.tkFCKKA/"
 Entering Link 1 = /afs/math/software/gaussian/g16.A03/g16/l1.exe PID=     14221.
  
 Copyright (c) 1988,1990,1992,1993,1995,1998,2003,2009,2016,
            Gaussian, Inc.  All Rights Reserved.
  
 This is part of the Gaussian(R) 16 program.  It is based on
 the Gaussian(R) 09 system (copyright 2009, Gaussian, Inc.),
 the Gaussian(R) 03 system (copyright 2003, Gaussian, Inc.),
 the Gaussian(R) 98 system (copyright 1998, Gaussian, Inc.),
 the Gaussian(R) 94 system (copyright 1995, Gaussian, Inc.),
 the Gaussian 92(TM) system (copyright 1992, Gaussian, Inc.),
 the Gaussian 90(TM) system (copyright 1990, Gaussian, Inc.),
 the Gaussian 88(TM) system (copyright 1988, Gaussian, Inc.),
 the Gaussian 86(TM) system (copyright 1986, Carnegie Mellon
 University), and the Gaussian 82(TM) system (copyright 1983,
 Carnegie Mellon University). Gaussian is a federally registered
 trademark of Gaussian, Inc.
  
 This software contains proprietary and confidential information,
 including trade secrets, belonging to Gaussian, Inc.
  
 This software is provided under written license and may be
 used, copied, transmitted, or stored only in accord with that
 written license.
  
 The following legend is applicable only to US Government
 contracts under FAR:
  
                    RESTRICTED RIGHTS LEGEND
  
 Use, reproduction and disclosure by the US Government is
 subject to restrictions as set forth in subparagraphs (a)
 and (c) of the Commercial Computer Software - Restricted
 Rights clause in FAR 52.227-19.
  
 Gaussian, Inc.
 340 Quinnipiac St., Bldg. 40, Wallingford CT 06492
  
  
 ---------------------------------------------------------------
 Warning -- This program may not be used in any manner that
 competes with the business of Gaussian, Inc. or will provide
 assistance to any competitor of Gaussian, Inc.  The licensee
 of this program is prohibited from giving any competitor of
 Gaussian, Inc. access to this program.  By using this program,
 the user acknowledges that Gaussian, Inc. is engaged in the
 business of creating and licensing software in the field of
 computational chemistry and represents and warrants to the
 licensee that it is not a competitor of Gaussian, Inc. and that
 it will not use this program in any manner prohibited above.
 ---------------------------------------------------------------
  

 Cite this work as:
 Gaussian 16, Revision A.03,
 M. J. Frisch, G. W. Trucks, H. B. Schlegel, G. E. Scuseria, 
 M. A. Robb, J. R. Cheeseman, G. Scalmani, V. Barone, 
 G. A. Petersson, H. Nakatsuji, X. Li, M. Caricato, A. V. Marenich, 
 J. Bloino, B. G. Janesko, R. Gomperts, B. Mennucci, H. P. Hratchian, 
 J. V. Ortiz, A. F. Izmaylov, J. L. Sonnenberg, D. Williams-Young, 
 F. Ding, F. Lipparini, F. Egidi, J. Goings, B. Peng, A. Petrone, 
 T. Henderson, D. Ranasinghe, V. G. Zakrzewski, J. Gao, N. Rega, 
 G. Zheng, W. Liang, M. Hada, M. Ehara, K. Toyota, R. Fukuda, 
 J. Hasegawa, M. Ishida, T. Nakajima, Y. Honda, O. Kitao, H. Nakai, 
 T. Vreven, K. Throssell, J. A. Montgomery, Jr., J. E. Peralta, 
 F. Ogliaro, M. J. Bearpark, J. J. Heyd, E. N. Brothers, K. N. Kudin, 
 V. N. Staroverov, T. A. Keith, R. Kobayashi, J. Normand, 
 K. Raghavachari, A. P. Rendell, J. C. Burant, S. S. Iyengar, 
 J. Tomasi, M. Cossi, J. M. Millam, M. Klene, C. Adamo, R. Cammi, 
 J. W. Ochterski, R. L. Martin, K. Morokuma, O. Farkas, 
 J. B. Foresman, and D. J. Fox, Gaussian, Inc., Wallingford CT, 2016.
 
 ******************************************
 Gaussian 16:  ES64L-G16RevA.03 25-Dec-2016
                 7-Feb-2023 
 ******************************************
 %nprocs=12
 Will use up to   12 processors via shared memory.
 %mem=16GB
 %oldchk=7aba_II_S.chk
 %chk=7aba_III_D.chk
 Copying data from "7aba_II_S.chk" to current chk file "7aba_III_D.chk"
 IOpt=  2 FromEx=T IUOpen= 4 IOptOp= 5 NList=   0 IFRang= 0 IUIn= 4 IUOut= 2.
 ----------------------------------------------------------------------
 # PBE1PBE/def2TZVP scf=maxcycle=999 empiricaldispersion=GD3BJ int=(gri
 d=ultrafine) geom=check pop=nbo
 ----------------------------------------------------------------------
 1/29=2,38=1,172=1/1;
 2/12=2,40=1/2;
 3/5=44,7=101,11=2,14=-4,25=1,30=1,74=-13,75=-5,124=41/1,2,3;
 4//1;
 5/5=2,7=999,38=5/2;
 6/7=2,8=2,9=2,10=2,28=1,40=1/1,7;
 99/5=1,9=1/99;
 ----------
 7aba_III_D
 ----------
 Structure from the checkpoint file:  "7aba_III_D.chk"
 Charge =  1 Multiplicity = 2
 Z-Matrix found in chk file.
 C,0,-14.889,54.069,70.706001
 S,0,-13.56687816,53.23681395,71.55914824
 H,0,-14.71447753,54.02772584,69.65113686
 H,0,-14.92941031,55.09074665,71.02112128
 Fe,0,-12.781,51.564999,70.043999
 C,0,-15.843,50.682999,68.737
 C,0,-12.326,53.716,67.419998
 C,0,-9.747,52.481998,71.356003
 C,0,-13.053,49.152,72.466003
 N,0,-13.869,52.075001,68.365997
 C,0,-15.15,51.650002,68.069
 C,0,-15.627,52.391998,66.917999
 C,0,-14.639,53.238998,66.559998
 C,0,-13.527,53.050999,67.460999
 C,0,-14.645,54.251999,65.389999
 C,0,-17.028,52.222,66.265999
 C,0,-17.002001,51.117001,65.213997
 C,0,-18.334,50.995998,64.522003
 O,0,-18.487,50.035999,63.722
 O,0,-19.242001,51.830002,64.787003
 N,0,-11.304,52.825001,69.476997
 C,0,-11.327,53.639999,68.362999
 C,0,-10.103,54.414001,68.347
 C,0,-9.404,54.094002,69.454002
 C,0,-10.144,53.075001,70.178001
 C,0,-9.761,55.442001,67.245003
 C,0,-8.016,54.580002,69.919998
 C,0,-7.736,56.070999,69.75
 N,0,-11.586,50.897999,71.608002
 C,0,-10.422,51.490002,72.029999
 C,0,-10.017,50.861,73.273003
 C,0,-10.958,49.946999,73.593002
 C,0,-11.948,49.958,72.541
 C,0,-8.763,51.266998,74.074997
 C,0,-11.024,48.997002,74.808998
 C,0,-10.762,49.757999,76.116997
 N,0,-14.204,50.165001,70.511002
 C,0,-14.082,49.261002,71.561996
 C,0,-15.236,48.397999,71.57
 C,0,-16.113001,48.882,70.422997
 C,0,-15.391,49.972,69.817001
 C,0,-15.519,47.251999,72.560997
 C,0,-17.473,48.306,69.971001
 C,0,-18.58,49.112,70.639999
 C,0,-19.937,48.653,70.149002
 O,0,-20.945999,48.976002,70.82
 O,0,-19.999001,47.983002,69.097
 H,0,-16.746,50.479,68.415001
 H,0,-12.166,54.299,66.649002
 H,0,-8.907,52.794998,71.75
 H,0,-13.116,48.425999,73.121002
 H,0,-14.522,55.158001,65.741997
 H,0,-15.501,54.198002,64.917
 H,0,-13.916,54.040001,64.771004
 H,0,-17.289,53.056999,65.846001
 H,0,-17.674999,51.993999,66.953003
 H,0,-16.789,50.273998,65.642998
 H,0,-16.319,51.320999,64.556
 H,0,-8.939,55.18,66.803001
 H,0,-9.648,56.318001,67.644997
 H,0,-10.482,55.473,66.597
 H,0,-7.339,54.080002,69.459
 H,0,-7.551,56.466,70.615997
 H,0,-8.51,56.502998,69.356003
 H,0,-6.969,56.192001,69.168999
 H,0,-8.166,50.506001,74.149002
 H,0,-9.027,51.558998,74.961998
 H,0,-8.308,51.992001,73.619003
 H,0,-10.359,48.312,74.708
 H,0,-11.533,49.674999,76.698997
 H,0,-10.605,50.694,75.919998
 H,0,-9.983,49.384998,76.556999
 H,0,-16.356001,47.431,73.038002
 H,0,-14.783,47.188,73.206001
 H,0,-15.597,46.407001,72.07
 H,0,-17.538,47.375999,70.237
 H,0,-17.552999,48.376999,69.007004
 H,0,-18.465,50.051998,70.43
 H,0,-18.528999,48.990002,71.600998
 H,0,-15.8178708,53.58877419,70.93289792
 H,0,-12.41558708,53.67322748,71.11174228
 H,0,-20.83850179,49.38977186,71.67955736
 H,0,-17.72011108,49.59236862,63.35230625
 Recover connectivity data from disk.
 Stoichiometry    C35H38FeN4O4S(1+,2)
 Framework group  C1[X(C35H38FeN4O4S)]
 Deg. of freedom   243
 Full point group                 C1      NOp   1
 Largest Abelian subgroup         C1      NOp   1
 Largest concise Abelian subgroup C1      NOp   1
                         Standard orientation:                         
 ---------------------------------------------------------------------
 Center     Atomic      Atomic             Coordinates (Angstroms)
 Number     Number       Type             X           Y           Z
 ---------------------------------------------------------------------
      1          6           0       -0.118224   -0.702271    2.897958
      2         16           0       -1.406411    0.228413    2.096209
      3          1           0        0.177730   -1.516147    2.269533
      4          1           0       -0.481049   -1.084367    3.829226
      5         26           0       -1.025748   -0.040943   -0.247034
      6          6           0        2.415686    0.050262   -0.145902
      7          6           0       -0.897602   -3.460436   -0.147775
      8          6           0       -4.454013   -0.144907   -0.306964
      9          6           0       -1.161091    3.352786   -0.723413
     10          7           0        0.484626   -1.446552   -0.196339
     11          6           0        1.835479   -1.182458   -0.072886
     12          6           0        2.534139   -2.436902    0.129932
     13          6           0        1.599721   -3.410852    0.131552
     14          6           0        0.306234   -2.803567   -0.072867
     15          6           0        1.824806   -4.931441    0.311133
     16          6           0        4.069998   -2.580711    0.322960
     17          6           0        4.772627   -2.709160   -1.025454
     18          6           0        6.252100   -2.926202   -0.847213
     19          8           0        6.968333   -2.919073   -1.882574
     20          8           0        6.715372   -3.075524    0.316117
     21          7           0       -2.407834   -1.517475   -0.264848
     22          6           0       -2.139322   -2.869890   -0.196899
     23          6           0       -3.402096   -3.579010   -0.189154
     24          6           0       -4.386460   -2.658509   -0.201824
     25          6           0       -3.774892   -1.342379   -0.264460
     26          6           0       -3.512439   -5.119045   -0.123869
     27          6           0       -5.916593   -2.849942   -0.245842
     28          6           0       -6.480411   -3.950701    0.649039
     29          7           0       -2.541036    1.355100   -0.519039
     30          6           0       -3.885439    1.104613   -0.403792
     31          6           0       -4.589055    2.372673   -0.444726
     32          6           0       -3.662313    3.350459   -0.536172
     33          6           0       -2.366241    2.714922   -0.592921
     34          6           0       -6.120734    2.512013   -0.321897
     35          6           0       -3.860200    4.880278   -0.613556
     36          6           0       -4.829926    5.365658    0.473946
     37          7           0        0.387365    1.435738   -0.406850
     38          6           0        0.081976    2.777110   -0.616960
     39          6           0        1.310348    3.522519   -0.726610
     40          6           0        2.423512    2.501990   -0.530676
     41          6           0        1.760134    1.235653   -0.349188
     42          6           0        1.446162    5.039801   -0.960891
     43          6           0        3.946992    2.754695   -0.559332
     44          6           0        4.423574    2.967774    0.872489
     45          6           0        5.929985    3.117838    0.910109
     46          8           0        6.446736    3.613072    1.939847
     47          8           0        6.595460    2.736606   -0.075413
     48          1           0        3.389600    0.091125   -0.043288
     49          1           0       -0.870051   -4.439618   -0.166984
     50          1           0       -5.431390   -0.186626   -0.264591
     51          1           0       -1.187675    4.314020   -0.911546
     52          1           0        1.334561   -5.243080    1.100064
     53          1           0        2.781088   -5.107267    0.429412
     54          1           0        1.501489   -5.405248   -0.482915
     55          1           0        4.253036   -3.371211    0.855265
     56          1           0        4.408813   -1.797861    0.786553
     57          1           0        4.629787   -1.898231   -1.537368
     58          1           0        4.396691   -3.461413   -1.509037
     59          1           0       -3.977093   -5.443036   -0.910520
     60          1           0       -4.006010   -5.373604    0.670943
     61          1           0       -2.623525   -5.505571   -0.090108
     62          1           0       -6.184701   -3.015615   -1.152219
     63          1           0       -7.104013   -3.564219    1.283038
     64          1           0       -5.755547   -4.380692    1.129261
     65          1           0       -6.939753   -4.607767    0.103364
     66          1           0       -6.472574    2.931635   -1.122602
     67          1           0       -6.334741    3.058528    0.450924
     68          1           0       -6.518045    1.633695   -0.215662
     69          1           0       -4.218656    5.106750   -1.474877
     70          1           0       -4.377458    6.000747    1.050131
     71          1           0       -5.130086    4.608835    0.999948
     72          1           0       -5.593659    5.793579    0.057811
     73          1           0        1.931105    5.444530   -0.211777
     74          1           0        0.554055    5.441716   -1.027454
     75          1           0        1.938837    5.199242   -1.793377
     76          1           0        4.136793    3.544209   -1.088978
     77          1           0        4.397733    1.986676   -0.943664
     78          1           0        4.164364    2.206041    1.414239
     79          1           0        4.012698    3.770169    1.230746
     80          1           0        0.723007   -0.065756    3.077064
     81          1           0       -2.338629   -0.589793    1.674772
     82          1           0        5.888442    3.996905    2.619979
     83          1           0        6.569277   -3.065684   -2.743306
 ---------------------------------------------------------------------
 Rotational constants (GHZ):           0.0845031           0.0498238           0.0336740
 Standard basis: def2TZVP (5D, 7F)
 There are  1870 symmetry adapted cartesian basis functions of A   symmetry.
 There are  1643 symmetry adapted basis functions of A   symmetry.
  1643 basis functions,  2668 primitive gaussians,  1870 cartesian basis functions
   175 alpha electrons      174 beta electrons
       nuclear repulsion energy      6578.4296979982 Hartrees.
 NAtoms=   83 NActive=   83 NUniq=   83 SFac= 1.00D+00 NAtFMM=   60 NAOKFM=T Big=T
 Integral buffers will be    131072 words long.
 Raffenetti 2 integral format.
 Two-electron integral symmetry is turned on.
 Nuclear repulsion after empirical dispersion term =     6578.3100339766 Hartrees.
 One-electron integrals computed using PRISM.
   1 Symmetry operations used in ECPInt.
 ECPInt:  NShTT=  213531 NPrTT=  664131 LenC2=  153040 LenP2D=  310484.
 LDataN:  DoStor=T MaxTD1= 6 Len=  172
 NBasis=  1643 RedAO= T EigKep=  3.25D-06  NBF=  1643
 NBsUse=  1643 1.00D-06 EigRej= -1.00D+00 NBFU=  1643
 ExpMin= 4.20D-02 ExpMax= 3.01D+05 ExpMxC= 2.91D+03 IAcc=3 IRadAn=         5 AccDes= 0.00D+00
 Harris functional with IExCor= 1009 and IRadAn=       5 diagonalized for initial guess.
 HarFok:  IExCor= 1009 AccDes= 0.00D+00 IRadAn=         5 IDoV= 1 UseB2=F ITyADJ=14
 ICtDFT=  3500011 ScaDFX=  1.000000  1.000000  1.000000  1.000000
 FoFCou: FMM=F IPFlag=           0 FMFlag=      100000 FMFlg1=        2001
         NFxFlg=           0 DoJE=T BraDBF=F KetDBF=T FulRan=T
         wScrn=  0.000000 ICntrl=       500 IOpCl=  0 I1Cent=   200000004 NGrid=           0
         NMat0=    1 NMatS0=      1 NMatT0=    0 NMatD0=    1 NMtDS0=    0 NMtDT0=    0
 Petite list used in FoFCou.
 Initial guess <Sx>= 0.0000 <Sy>= 0.0000 <Sz>= 0.5000 <S**2>= 0.7500 S= 0.5000
 Requested convergence on RMS density matrix=1.00D-08 within 999 cycles.
 Requested convergence on MAX density matrix=1.00D-06.
 Requested convergence on             energy=1.00D-06.
 No special actions if energy rises.
 EnCoef did     2 forward-backward iterations
 EnCoef did   100 forward-backward iterations
 EnCoef did   100 forward-backward iterations
 EnCoef did     2 forward-backward iterations
 EnCoef did   100 forward-backward iterations
 EnCoef did    10 forward-backward iterations
 EnCoef did     1 forward-backward iterations
 EnCoef did    11 forward-backward iterations
 EnCoef did   100 forward-backward iterations
 EnCoef did    17 forward-backward iterations
 EnCoef did     4 forward-backward iterations
 Restarting incremental Fock formation.
 Rare condition: small coef for last iteration:  0.000D+00
 Rare condition: small coef for last iteration:  0.000D+00
 Rare condition: small coef for last iteration:  0.000D+00
 Restarting incremental Fock formation.
 Restarting incremental Fock formation.
 Restarting incremental Fock formation.
 Restarting incremental Fock formation.
 Restarting incremental Fock formation.
 Restarting incremental Fock formation.
 Restarting incremental Fock formation.
 Restarting incremental Fock formation.
 Restarting incremental Fock formation.
 SCF Done:  E(UPBE1PBE) =  -3536.06595638     A.U. after  208 cycles
            NFock=208  Conv=0.37D-08     -V/T= 2.0016
 <Sx>= 0.0000 <Sy>= 0.0000 <Sz>= 0.5000 <S**2>= 2.3767 S= 1.1207
 <L.S>= 0.000000000000E+00
 Annihilation of the first spin contaminant:
 S**2 before annihilation     2.3767,   after     3.0056

 **********************************************************************

            Population analysis using the SCF density.

 **********************************************************************

 Orbital symmetries:
 Alpha Orbitals:
       Occupied  (A) (A) (A) (A) (A) (A) (A) (A) (A) (A) (A) (A)
                 (A) (A) (A) (A) (A) (A) (A) (A) (A) (A) (A) (A)
                 (A) (A) (A) (A) (A) (A) (A) (A) (A) (A) (A) (A)
                 (A) (A) (A) (A) (A) (A) (A) (A) (A) (A) (A) (A)
                 (A) (A) (A) (A) (A) (A) (A) (A) (A) (A) (A) (A)
                 (A) (A) (A) (A) (A) (A) (A) (A) (A) (A) (A) (A)
                 (A) (A) (A) (A) (A) (A) (A) (A) (A) (A) (A) (A)
                 (A) (A) (A) (A) (A) (A) (A) (A) (A) (A) (A) (A)
                 (A) (A) (A) (A) (A) (A) (A) (A) (A) (A) (A) (A)
                 (A) (A) (A) (A) (A) (A) (A) (A) (A) (A) (A) (A)
                 (A) (A) (A) (A) (A) (A) (A) (A) (A) (A) (A) (A)
                 (A) (A) (A) (A) (A) (A) (A) (A) (A) (A) (A) (A)
                 (A) (A) (A) (A) (A) (A) (A) (A) (A) (A) (A) (A)
                 (A) (A) (A) (A) (A) (A) (A) (A) (A) (A) (A) (A)
                 (A) (A) (A) (A) (A) (A) (A)
       Virtual   (A) (A) (A) (A) (A) (A) (A) (A) (A) (A) (A) (A)
                 (A) (A) (A) (A) (A) (A) (A) (A) (A) (A) (A) (A)
                 (A) (A) (A) (A) (A) (A) (A) (A) (A) (A) (A) (A)
                 (A) (A) (A) (A) (A) (A) (A) (A) (A) (A) (A) (A)
                 (A) (A) (A) (A) (A) (A) (A) (A) (A) (A) (A) (A)
                 (A) (A) (A) (A) (A) (A) (A) (A) (A) (A) (A) (A)
                 (A) (A) (A) (A) (A) (A) (A) (A) (A) (A) (A) (A)
                 (A) (A) (A) (A) (A) (A) (A) (A) (A) (A) (A) (A)
                 (A) (A) (A) (A) (A) (A) (A) (A) (A) (A) (A) (A)
                 (A) (A) (A) (A) (A) (A) (A) (A) (A) (A) (A) (A)
                 (A) (A) (A) (A) (A) (A) (A) (A) (A) (A) (A) (A)
                 (A) (A) (A) (A) (A) (A) (A) (A) (A) (A) (A) (A)
                 (A) (A) (A) (A) (A) (A) (A) (A) (A) (A) (A) (A)
                 (A) (A) (A) (A) (A) (A) (A) (A) (A) (A) (A) (A)
                 (A) (A) (A) (A) (A) (A) (A) (A) (A) (A) (A) (A)
                 (A) (A) (A) (A) (A) (A) (A) (A) (A) (A) (A) (A)
                 (A) (A) (A) (A) (A) (A) (A) (A) (A) (A) (A) (A)
                 (A) (A) (A) (A) (A) (A) (A) (A) (A) (A) (A) (A)
                 (A) (A) (A) (A) (A) (A) (A) (A) (A) (A) (A) (A)
                 (A) (A) (A) (A) (A) (A) (A) (A) (A) (A) (A) (A)
                 (A) (A) (A) (A) (A) (A) (A) (A) (A) (A) (A) (A)
                 (A) (A) (A) (A) (A) (A) (A) (A) (A) (A) (A) (A)
                 (A) (A) (A) (A) (A) (A) (A) (A) (A) (A) (A) (A)
                 (A) (A) (A) (A) (A) (A) (A) (A) (A) (A) (A) (A)
                 (A) (A) (A) (A) (A) (A) (A) (A) (A) (A) (A) (A)
                 (A) (A) (A) (A) (A) (A) (A) (A) (A) (A) (A) (A)
                 (A) (A) (A) (A) (A) (A) (A) (A) (A) (A) (A) (A)
                 (A) (A) (A) (A) (A) (A) (A) (A) (A) (A) (A) (A)
                 (A) (A) (A) (A) (A) (A) (A) (A) (A) (A) (A) (A)
                 (A) (A) (A) (A) (A) (A) (A) (A) (A) (A) (A) (A)
                 (A) (A) (A) (A) (A) (A) (A) (A) (A) (A) (A) (A)
                 (A) (A) (A) (A) (A) (A) (A) (A) (A) (A) (A) (A)
                 (A) (A) (A) (A) (A) (A) (A) (A) (A) (A) (A) (A)
                 (A) (A) (A) (A) (A) (A) (A) (A) (A) (A) (A) (A)
                 (A) (A) (A) (A) (A) (A) (A) (A) (A) (A) (A) (A)
                 (A) (A) (A) (A) (A) (A) (A) (A) (A) (A) (A) (A)
                 (A) (A) (A) (A) (A) (A) (A) (A) (A) (A) (A) (A)
                 (A) (A) (A) (A) (A) (A) (A) (A) (A) (A) (A) (A)
                 (A) (A) (A) (A) (A) (A) (A) (A) (A) (A) (A) (A)
                 (A) (A) (A) (A) (A) (A) (A) (A) (A) (A) (A) (A)
                 (A) (A) (A) (A) (A) (A) (A) (A) (A) (A) (A) (A)
                 (A) (A) (A) (A) (A) (A) (A) (A) (A) (A) (A) (A)
                 (A) (A) (A) (A) (A) (A) (A) (A) (A) (A) (A) (A)
                 (A) (A) (A) (A) (A) (A) (A) (A) (A) (A) (A) (A)
                 (A) (A) (A) (A) (A) (A) (A) (A) (A) (A) (A) (A)
                 (A) (A) (A) (A) (A) (A) (A) (A) (A) (A) (A) (A)
                 (A) (A) (A) (A) (A) (A) (A) (A) (A) (A) (A) (A)
                 (A) (A) (A) (A) (A) (A) (A) (A) (A) (A) (A) (A)
                 (A) (A) (A) (A) (A) (A) (A) (A) (A) (A) (A) (A)
                 (A) (A) (A) (A) (A) (A) (A) (A) (A) (A) (A) (A)
                 (A) (A) (A) (A) (A) (A) (A) (A) (A) (A) (A) (A)
                 (A) (A) (A) (A) (A) (A) (A) (A) (A) (A) (A) (A)
                 (A) (A) (A) (A) (A) (A) (A) (A) (A) (A) (A) (A)
                 (A) (A) (A) (A) (A) (A) (A) (A) (A) (A) (A) (A)
                 (A) (A) (A) (A) (A) (A) (A) (A) (A) (A) (A) (A)
                 (A) (A) (A) (A) (A) (A) (A) (A) (A) (A) (A) (A)
                 (A) (A) (A) (A) (A) (A) (A) (A) (A) (A) (A) (A)
                 (A) (A) (A) (A) (A) (A) (A) (A) (A) (A) (A) (A)
                 (A) (A) (A) (A) (A) (A) (A) (A) (A) (A) (A) (A)
                 (A) (A) (A) (A) (A) (A) (A) (A) (A) (A) (A) (A)
                 (A) (A) (A) (A) (A) (A) (A) (A) (A) (A) (A) (A)
                 (A) (A) (A) (A) (A) (A) (A) (A) (A) (A) (A) (A)
                 (A) (A) (A) (A) (A) (A) (A) (A) (A) (A) (A) (A)
                 (A) (A) (A) (A) (A) (A) (A) (A) (A) (A) (A) (A)
                 (A) (A) (A) (A) (A) (A) (A) (A) (A) (A) (A) (A)
                 (A) (A) (A) (A) (A) (A) (A) (A) (A) (A) (A) (A)
                 (A) (A) (A) (A) (A) (A) (A) (A) (A) (A) (A) (A)
                 (A) (A) (A) (A) (A) (A) (A) (A) (A) (A) (A) (A)
                 (A) (A) (A) (A) (A) (A) (A) (A) (A) (A) (A) (A)
                 (A) (A) (A) (A) (A) (A) (A) (A) (A) (A) (A) (A)
                 (A) (A) (A) (A) (A) (A) (A) (A) (A) (A) (A) (A)
                 (A) (A) (A) (A) (A) (A) (A) (A) (A) (A) (A) (A)
                 (A) (A) (A) (A) (A) (A) (A) (A) (A) (A) (A) (A)
                 (A) (A) (A) (A) (A) (A) (A) (A) (A) (A) (A) (A)
                 (A) (A) (A) (A) (A) (A) (A) (A) (A) (A) (A) (A)
                 (A) (A) (A) (A) (A) (A) (A) (A) (A) (A) (A) (A)
                 (A) (A) (A) (A) (A) (A) (A) (A) (A) (A) (A) (A)
                 (A) (A) (A) (A) (A) (A) (A) (A) (A) (A) (A) (A)
                 (A) (A) (A) (A) (A) (A) (A) (A) (A) (A) (A) (A)
                 (A) (A) (A) (A) (A) (A) (A) (A) (A) (A) (A) (A)
                 (A) (A) (A) (A) (A) (A) (A) (A) (A) (A) (A) (A)
                 (A) (A) (A) (A) (A) (A) (A) (A) (A) (A) (A) (A)
                 (A) (A) (A) (A) (A) (A) (A) (A) (A) (A) (A) (A)
                 (A) (A) (A) (A) (A) (A) (A) (A) (A) (A) (A) (A)
                 (A) (A) (A) (A) (A) (A) (A) (A) (A) (A) (A) (A)
                 (A) (A) (A) (A) (A) (A) (A) (A) (A) (A) (A) (A)
                 (A) (A) (A) (A) (A) (A) (A) (A) (A) (A) (A) (A)
                 (A) (A) (A) (A) (A) (A) (A) (A) (A) (A) (A) (A)
                 (A) (A) (A) (A) (A) (A) (A) (A) (A) (A) (A) (A)
                 (A) (A) (A) (A) (A) (A) (A) (A) (A) (A) (A) (A)
                 (A) (A) (A) (A) (A) (A) (A) (A) (A) (A) (A) (A)
                 (A) (A) (A) (A) (A) (A) (A) (A) (A) (A) (A) (A)
                 (A) (A) (A) (A) (A) (A) (A) (A) (A) (A) (A) (A)
                 (A) (A) (A) (A) (A) (A) (A) (A) (A) (A) (A) (A)
                 (A) (A) (A) (A) (A) (A) (A) (A) (A) (A) (A) (A)
                 (A) (A) (A) (A) (A) (A) (A) (A) (A) (A) (A) (A)
                 (A) (A) (A) (A) (A) (A) (A) (A) (A) (A) (A) (A)
                 (A) (A) (A) (A) (A) (A) (A) (A) (A) (A) (A) (A)
                 (A) (A) (A) (A) (A) (A) (A) (A) (A) (A) (A) (A)
                 (A) (A) (A) (A) (A) (A) (A) (A) (A) (A) (A) (A)
                 (A) (A) (A) (A) (A) (A) (A) (A) (A) (A) (A) (A)
                 (A) (A) (A) (A) (A) (A) (A) (A) (A) (A) (A) (A)
                 (A) (A) (A) (A) (A) (A) (A) (A) (A) (A) (A) (A)
                 (A) (A) (A) (A) (A) (A) (A) (A) (A) (A) (A) (A)
                 (A) (A) (A) (A) (A) (A) (A) (A) (A) (A) (A) (A)
                 (A) (A) (A) (A) (A) (A) (A) (A) (A) (A) (A) (A)
                 (A) (A) (A) (A) (A) (A) (A) (A) (A) (A) (A) (A)
                 (A) (A) (A) (A) (A) (A) (A) (A) (A) (A) (A) (A)
                 (A) (A) (A) (A) (A) (A) (A) (A) (A) (A) (A) (A)
                 (A) (A) (A) (A) (A) (A) (A) (A) (A) (A) (A) (A)
                 (A) (A) (A) (A) (A) (A) (A) (A) (A) (A) (A) (A)
                 (A) (A) (A) (A) (A) (A) (A) (A) (A) (A) (A) (A)
                 (A) (A) (A) (A) (A) (A) (A) (A) (A) (A) (A) (A)
                 (A) (A) (A) (A) (A) (A) (A) (A) (A) (A) (A) (A)
                 (A) (A) (A) (A) (A) (A) (A) (A) (A) (A) (A) (A)
                 (A) (A) (A) (A) (A) (A) (A) (A) (A) (A) (A) (A)
                 (A) (A) (A) (A) (A) (A) (A) (A) (A) (A) (A) (A)
                 (A) (A) (A) (A) (A) (A) (A) (A) (A) (A) (A) (A)
                 (A) (A) (A) (A) (A) (A) (A) (A) (A) (A) (A) (A)
                 (A) (A) (A) (A) (A) (A) (A) (A) (A) (A) (A) (A)
                 (A) (A) (A) (A) (A) (A) (A) (A) (A) (A) (A) (A)
                 (A) (A) (A) (A) (A) (A) (A) (A) (A) (A) (A) (A)
                 (A) (A) (A) (A)
 Beta  Orbitals:
       Occupied  (A) (A) (A) (A) (A) (A) (A) (A) (A) (A) (A) (A)
                 (A) (A) (A) (A) (A) (A) (A) (A) (A) (A) (A) (A)
                 (A) (A) (A) (A) (A) (A) (A) (A) (A) (A) (A) (A)
                 (A) (A) (A) (A) (A) (A) (A) (A) (A) (A) (A) (A)
                 (A) (A) (A) (A) (A) (A) (A) (A) (A) (A) (A) (A)
                 (A) (A) (A) (A) (A) (A) (A) (A) (A) (A) (A) (A)
                 (A) (A) (A) (A) (A) (A) (A) (A) (A) (A) (A) (A)
                 (A) (A) (A) (A) (A) (A) (A) (A) (A) (A) (A) (A)
                 (A) (A) (A) (A) (A) (A) (A) (A) (A) (A) (A) (A)
                 (A) (A) (A) (A) (A) (A) (A) (A) (A) (A) (A) (A)
                 (A) (A) (A) (A) (A) (A) (A) (A) (A) (A) (A) (A)
                 (A) (A) (A) (A) (A) (A) (A) (A) (A) (A) (A) (A)
                 (A) (A) (A) (A) (A) (A) (A) (A) (A) (A) (A) (A)
                 (A) (A) (A) (A) (A) (A) (A) (A) (A) (A) (A) (A)
                 (A) (A) (A) (A) (A) (A)
       Virtual   (A) (A) (A) (A) (A) (A) (A) (A) (A) (A) (A) (A)
                 (A) (A) (A) (A) (A) (A) (A) (A) (A) (A) (A) (A)
                 (A) (A) (A) (A) (A) (A) (A) (A) (A) (A) (A) (A)
                 (A) (A) (A) (A) (A) (A) (A) (A) (A) (A) (A) (A)
                 (A) (A) (A) (A) (A) (A) (A) (A) (A) (A) (A) (A)
                 (A) (A) (A) (A) (A) (A) (A) (A) (A) (A) (A) (A)
                 (A) (A) (A) (A) (A) (A) (A) (A) (A) (A) (A) (A)
                 (A) (A) (A) (A) (A) (A) (A) (A) (A) (A) (A) (A)
                 (A) (A) (A) (A) (A) (A) (A) (A) (A) (A) (A) (A)
                 (A) (A) (A) (A) (A) (A) (A) (A) (A) (A) (A) (A)
                 (A) (A) (A) (A) (A) (A) (A) (A) (A) (A) (A) (A)
                 (A) (A) (A) (A) (A) (A) (A) (A) (A) (A) (A) (A)
                 (A) (A) (A) (A) (A) (A) (A) (A) (A) (A) (A) (A)
                 (A) (A) (A) (A) (A) (A) (A) (A) (A) (A) (A) (A)
                 (A) (A) (A) (A) (A) (A) (A) (A) (A) (A) (A) (A)
                 (A) (A) (A) (A) (A) (A) (A) (A) (A) (A) (A) (A)
                 (A) (A) (A) (A) (A) (A) (A) (A) (A) (A) (A) (A)
                 (A) (A) (A) (A) (A) (A) (A) (A) (A) (A) (A) (A)
                 (A) (A) (A) (A) (A) (A) (A) (A) (A) (A) (A) (A)
                 (A) (A) (A) (A) (A) (A) (A) (A) (A) (A) (A) (A)
                 (A) (A) (A) (A) (A) (A) (A) (A) (A) (A) (A) (A)
                 (A) (A) (A) (A) (A) (A) (A) (A) (A) (A) (A) (A)
                 (A) (A) (A) (A) (A) (A) (A) (A) (A) (A) (A) (A)
                 (A) (A) (A) (A) (A) (A) (A) (A) (A) (A) (A) (A)
                 (A) (A) (A) (A) (A) (A) (A) (A) (A) (A) (A) (A)
                 (A) (A) (A) (A) (A) (A) (A) (A) (A) (A) (A) (A)
                 (A) (A) (A) (A) (A) (A) (A) (A) (A) (A) (A) (A)
                 (A) (A) (A) (A) (A) (A) (A) (A) (A) (A) (A) (A)
                 (A) (A) (A) (A) (A) (A) (A) (A) (A) (A) (A) (A)
                 (A) (A) (A) (A) (A) (A) (A) (A) (A) (A) (A) (A)
                 (A) (A) (A) (A) (A) (A) (A) (A) (A) (A) (A) (A)
                 (A) (A) (A) (A) (A) (A) (A) (A) (A) (A) (A) (A)
                 (A) (A) (A) (A) (A) (A) (A) (A) (A) (A) (A) (A)
                 (A) (A) (A) (A) (A) (A) (A) (A) (A) (A) (A) (A)
                 (A) (A) (A) (A) (A) (A) (A) (A) (A) (A) (A) (A)
                 (A) (A) (A) (A) (A) (A) (A) (A) (A) (A) (A) (A)
                 (A) (A) (A) (A) (A) (A) (A) (A) (A) (A) (A) (A)
                 (A) (A) (A) (A) (A) (A) (A) (A) (A) (A) (A) (A)
                 (A) (A) (A) (A) (A) (A) (A) (A) (A) (A) (A) (A)
                 (A) (A) (A) (A) (A) (A) (A) (A) (A) (A) (A) (A)
                 (A) (A) (A) (A) (A) (A) (A) (A) (A) (A) (A) (A)
                 (A) (A) (A) (A) (A) (A) (A) (A) (A) (A) (A) (A)
                 (A) (A) (A) (A) (A) (A) (A) (A) (A) (A) (A) (A)
                 (A) (A) (A) (A) (A) (A) (A) (A) (A) (A) (A) (A)
                 (A) (A) (A) (A) (A) (A) (A) (A) (A) (A) (A) (A)
                 (A) (A) (A) (A) (A) (A) (A) (A) (A) (A) (A) (A)
                 (A) (A) (A) (A) (A) (A) (A) (A) (A) (A) (A) (A)
                 (A) (A) (A) (A) (A) (A) (A) (A) (A) (A) (A) (A)
                 (A) (A) (A) (A) (A) (A) (A) (A) (A) (A) (A) (A)
                 (A) (A) (A) (A) (A) (A) (A) (A) (A) (A) (A) (A)
                 (A) (A) (A) (A) (A) (A) (A) (A) (A) (A) (A) (A)
                 (A) (A) (A) (A) (A) (A) (A) (A) (A) (A) (A) (A)
                 (A) (A) (A) (A) (A) (A) (A) (A) (A) (A) (A) (A)
                 (A) (A) (A) (A) (A) (A) (A) (A) (A) (A) (A) (A)
                 (A) (A) (A) (A) (A) (A) (A) (A) (A) (A) (A) (A)
                 (A) (A) (A) (A) (A) (A) (A) (A) (A) (A) (A) (A)
                 (A) (A) (A) (A) (A) (A) (A) (A) (A) (A) (A) (A)
                 (A) (A) (A) (A) (A) (A) (A) (A) (A) (A) (A) (A)
                 (A) (A) (A) (A) (A) (A) (A) (A) (A) (A) (A) (A)
                 (A) (A) (A) (A) (A) (A) (A) (A) (A) (A) (A) (A)
                 (A) (A) (A) (A) (A) (A) (A) (A) (A) (A) (A) (A)
                 (A) (A) (A) (A) (A) (A) (A) (A) (A) (A) (A) (A)
                 (A) (A) (A) (A) (A) (A) (A) (A) (A) (A) (A) (A)
                 (A) (A) (A) (A) (A) (A) (A) (A) (A) (A) (A) (A)
                 (A) (A) (A) (A) (A) (A) (A) (A) (A) (A) (A) (A)
                 (A) (A) (A) (A) (A) (A) (A) (A) (A) (A) (A) (A)
                 (A) (A) (A) (A) (A) (A) (A) (A) (A) (A) (A) (A)
                 (A) (A) (A) (A) (A) (A) (A) (A) (A) (A) (A) (A)
                 (A) (A) (A) (A) (A) (A) (A) (A) (A) (A) (A) (A)
                 (A) (A) (A) (A) (A) (A) (A) (A) (A) (A) (A) (A)
                 (A) (A) (A) (A) (A) (A) (A) (A) (A) (A) (A) (A)
                 (A) (A) (A) (A) (A) (A) (A) (A) (A) (A) (A) (A)
                 (A) (A) (A) (A) (A) (A) (A) (A) (A) (A) (A) (A)
                 (A) (A) (A) (A) (A) (A) (A) (A) (A) (A) (A) (A)
                 (A) (A) (A) (A) (A) (A) (A) (A) (A) (A) (A) (A)
                 (A) (A) (A) (A) (A) (A) (A) (A) (A) (A) (A) (A)
                 (A) (A) (A) (A) (A) (A) (A) (A) (A) (A) (A) (A)
                 (A) (A) (A) (A) (A) (A) (A) (A) (A) (A) (A) (A)
                 (A) (A) (A) (A) (A) (A) (A) (A) (A) (A) (A) (A)
                 (A) (A) (A) (A) (A) (A) (A) (A) (A) (A) (A) (A)
                 (A) (A) (A) (A) (A) (A) (A) (A) (A) (A) (A) (A)
                 (A) (A) (A) (A) (A) (A) (A) (A) (A) (A) (A) (A)
                 (A) (A) (A) (A) (A) (A) (A) (A) (A) (A) (A) (A)
                 (A) (A) (A) (A) (A) (A) (A) (A) (A) (A) (A) (A)
                 (A) (A) (A) (A) (A) (A) (A) (A) (A) (A) (A) (A)
                 (A) (A) (A) (A) (A) (A) (A) (A) (A) (A) (A) (A)
                 (A) (A) (A) (A) (A) (A) (A) (A) (A) (A) (A) (A)
                 (A) (A) (A) (A) (A) (A) (A) (A) (A) (A) (A) (A)
                 (A) (A) (A) (A) (A) (A) (A) (A) (A) (A) (A) (A)
                 (A) (A) (A) (A) (A) (A) (A) (A) (A) (A) (A) (A)
                 (A) (A) (A) (A) (A) (A) (A) (A) (A) (A) (A) (A)
                 (A) (A) (A) (A) (A) (A) (A) (A) (A) (A) (A) (A)
                 (A) (A) (A) (A) (A) (A) (A) (A) (A) (A) (A) (A)
                 (A) (A) (A) (A) (A) (A) (A) (A) (A) (A) (A) (A)
                 (A) (A) (A) (A) (A) (A) (A) (A) (A) (A) (A) (A)
                 (A) (A) (A) (A) (A) (A) (A) (A) (A) (A) (A) (A)
                 (A) (A) (A) (A) (A) (A) (A) (A) (A) (A) (A) (A)
                 (A) (A) (A) (A) (A) (A) (A) (A) (A) (A) (A) (A)
                 (A) (A) (A) (A) (A) (A) (A) (A) (A) (A) (A) (A)
                 (A) (A) (A) (A) (A) (A) (A) (A) (A) (A) (A) (A)
                 (A) (A) (A) (A) (A) (A) (A) (A) (A) (A) (A) (A)
                 (A) (A) (A) (A) (A) (A) (A) (A) (A) (A) (A) (A)
                 (A) (A) (A) (A) (A) (A) (A) (A) (A) (A) (A) (A)
                 (A) (A) (A) (A) (A) (A) (A) (A) (A) (A) (A) (A)
                 (A) (A) (A) (A) (A) (A) (A) (A) (A) (A) (A) (A)
                 (A) (A) (A) (A) (A) (A) (A) (A) (A) (A) (A) (A)
                 (A) (A) (A) (A) (A) (A) (A) (A) (A) (A) (A) (A)
                 (A) (A) (A) (A) (A) (A) (A) (A) (A) (A) (A) (A)
                 (A) (A) (A) (A) (A) (A) (A) (A) (A) (A) (A) (A)
                 (A) (A) (A) (A) (A) (A) (A) (A) (A) (A) (A) (A)
                 (A) (A) (A) (A) (A) (A) (A) (A) (A) (A) (A) (A)
                 (A) (A) (A) (A) (A) (A) (A) (A) (A) (A) (A) (A)
                 (A) (A) (A) (A) (A) (A) (A) (A) (A) (A) (A) (A)
                 (A) (A) (A) (A) (A) (A) (A) (A) (A) (A) (A) (A)
                 (A) (A) (A) (A) (A) (A) (A) (A) (A) (A) (A) (A)
                 (A) (A) (A) (A) (A) (A) (A) (A) (A) (A) (A) (A)
                 (A) (A) (A) (A) (A) (A) (A) (A) (A) (A) (A) (A)
                 (A) (A) (A) (A) (A) (A) (A) (A) (A) (A) (A) (A)
                 (A) (A) (A) (A) (A) (A) (A) (A) (A) (A) (A) (A)
                 (A) (A) (A) (A) (A) (A) (A) (A) (A) (A) (A) (A)
                 (A) (A) (A) (A) (A) (A) (A) (A) (A) (A) (A) (A)
                 (A) (A) (A) (A) (A) (A) (A) (A) (A) (A) (A) (A)
                 (A) (A) (A) (A) (A)
 The electronic state is 2-A.
 Alpha  occ. eigenvalues -- -256.49172 -89.17453 -30.27657 -26.10812 -26.10556
 Alpha  occ. eigenvalues --  -26.08463 -19.34535 -19.34113 -19.24903 -19.24844
 Alpha  occ. eigenvalues --  -14.51031 -14.50984 -14.50930 -14.50773 -10.42655
 Alpha  occ. eigenvalues --  -10.42645 -10.37466 -10.37454 -10.37316 -10.37257
 Alpha  occ. eigenvalues --  -10.37130 -10.37059 -10.36972 -10.36899 -10.36612
 Alpha  occ. eigenvalues --  -10.35037 -10.34666 -10.34005 -10.33980 -10.33967
 Alpha  occ. eigenvalues --  -10.33953 -10.33873 -10.33845 -10.33815 -10.33767
 Alpha  occ. eigenvalues --  -10.33719 -10.33637 -10.33442 -10.31684 -10.29773
 Alpha  occ. eigenvalues --  -10.29729 -10.29613 -10.29604 -10.28396 -10.28280
 Alpha  occ. eigenvalues --  -10.28184 -10.27928 -10.26311 -10.26246  -8.15444
 Alpha  occ. eigenvalues --   -6.09022  -6.08660  -6.08369  -3.65249  -2.43051
 Alpha  occ. eigenvalues --   -2.42636  -2.37313  -1.24529  -1.23924  -1.10580
 Alpha  occ. eigenvalues --   -1.10210  -1.09802  -1.09445  -1.09205  -1.07485
 Alpha  occ. eigenvalues --   -0.96794  -0.95347  -0.94469  -0.94356  -0.93816
 Alpha  occ. eigenvalues --   -0.93769  -0.93218  -0.93045  -0.90354  -0.89676
 Alpha  occ. eigenvalues --   -0.88880  -0.88628  -0.87972  -0.85800  -0.84487
 Alpha  occ. eigenvalues --   -0.84219  -0.83710  -0.82210  -0.80786  -0.79823
 Alpha  occ. eigenvalues --   -0.79033  -0.78579  -0.77910  -0.75824  -0.75586
 Alpha  occ. eigenvalues --   -0.75385  -0.73934  -0.72161  -0.71459  -0.68308
 Alpha  occ. eigenvalues --   -0.67762  -0.67404  -0.65017  -0.64756  -0.64251
 Alpha  occ. eigenvalues --   -0.63799  -0.63095  -0.62662  -0.61380  -0.61221
 Alpha  occ. eigenvalues --   -0.60968  -0.60510  -0.59836  -0.59717  -0.58923
 Alpha  occ. eigenvalues --   -0.58412  -0.57729  -0.56879  -0.56656  -0.56244
 Alpha  occ. eigenvalues --   -0.56186  -0.56136  -0.55801  -0.55722  -0.55488
 Alpha  occ. eigenvalues --   -0.55220  -0.54999  -0.54734  -0.54478  -0.54205
 Alpha  occ. eigenvalues --   -0.53894  -0.53714  -0.53654  -0.53338  -0.53278
 Alpha  occ. eigenvalues --   -0.53186  -0.52881  -0.52813  -0.52459  -0.52219
 Alpha  occ. eigenvalues --   -0.51009  -0.50496  -0.50001  -0.49610  -0.49563
 Alpha  occ. eigenvalues --   -0.49258  -0.49091  -0.48919  -0.48729  -0.48556
 Alpha  occ. eigenvalues --   -0.48439  -0.48164  -0.47498  -0.47411  -0.46706
 Alpha  occ. eigenvalues --   -0.46206  -0.45703  -0.45560  -0.45155  -0.44950
 Alpha  occ. eigenvalues --   -0.44194  -0.44069  -0.43788  -0.42982  -0.42557
 Alpha  occ. eigenvalues --   -0.40721  -0.40436  -0.40218  -0.39914  -0.39651
 Alpha  occ. eigenvalues --   -0.39527  -0.37044  -0.35767  -0.35493  -0.35215
 Alpha  occ. eigenvalues --   -0.34756  -0.34200  -0.33662  -0.31852  -0.31749
 Alpha virt. eigenvalues --   -0.26300  -0.19568  -0.18828  -0.15751  -0.15148
 Alpha virt. eigenvalues --   -0.12310  -0.08802  -0.07954  -0.06886  -0.06266
 Alpha virt. eigenvalues --   -0.06122  -0.05767  -0.05316  -0.04767  -0.04516
 Alpha virt. eigenvalues --   -0.04100  -0.03758  -0.03543  -0.03161  -0.02661
 Alpha virt. eigenvalues --   -0.02460  -0.02192  -0.01783  -0.00858  -0.00348
 Alpha virt. eigenvalues --   -0.00075   0.00177   0.00313   0.00558   0.01325
 Alpha virt. eigenvalues --    0.01447   0.01504   0.01916   0.02154   0.02388
 Alpha virt. eigenvalues --    0.02716   0.02815   0.03210   0.03410   0.03536
 Alpha virt. eigenvalues --    0.03862   0.04344   0.04468   0.04769   0.04882
 Alpha virt. eigenvalues --    0.04978   0.05170   0.05264   0.05802   0.05934
 Alpha virt. eigenvalues --    0.06479   0.06533   0.06707   0.06981   0.07188
 Alpha virt. eigenvalues --    0.07381   0.07668   0.08204   0.08320   0.08599
 Alpha virt. eigenvalues --    0.08611   0.08916   0.09002   0.09154   0.09589
 Alpha virt. eigenvalues --    0.09678   0.09850   0.10189   0.10433   0.10777
 Alpha virt. eigenvalues --    0.10849   0.11068   0.11413   0.11484   0.11596
 Alpha virt. eigenvalues --    0.11623   0.12040   0.12264   0.12414   0.12574
 Alpha virt. eigenvalues --    0.12786   0.13000   0.13067   0.13145   0.13640
 Alpha virt. eigenvalues --    0.13741   0.13933   0.13995   0.14373   0.14584
 Alpha virt. eigenvalues --    0.14676   0.14767   0.15176   0.15401   0.15754
 Alpha virt. eigenvalues --    0.15857   0.16211   0.16453   0.16928   0.17223
 Alpha virt. eigenvalues --    0.17372   0.17424   0.17654   0.17908   0.18141
 Alpha virt. eigenvalues --    0.18506   0.18719   0.18827   0.19178   0.19341
 Alpha virt. eigenvalues --    0.19539   0.19906   0.20080   0.20317   0.20725
 Alpha virt. eigenvalues --    0.20944   0.21208   0.21268   0.21352   0.21497
 Alpha virt. eigenvalues --    0.22086   0.22249   0.22498   0.22647   0.23180
 Alpha virt. eigenvalues --    0.23243   0.23522   0.23759   0.24103   0.24501
 Alpha virt. eigenvalues --    0.24921   0.25116   0.25465   0.25827   0.26065
 Alpha virt. eigenvalues --    0.26112   0.26371   0.26629   0.27293   0.27543
 Alpha virt. eigenvalues --    0.27633   0.27845   0.28179   0.28268   0.28514
 Alpha virt. eigenvalues --    0.28692   0.28821   0.29083   0.29479   0.29765
 Alpha virt. eigenvalues --    0.29940   0.30211   0.30378   0.30663   0.30901
 Alpha virt. eigenvalues --    0.31033   0.31438   0.31691   0.31995   0.32213
 Alpha virt. eigenvalues --    0.32394   0.32874   0.33039   0.33218   0.33334
 Alpha virt. eigenvalues --    0.33751   0.34033   0.34182   0.34472   0.34668
 Alpha virt. eigenvalues --    0.34790   0.35270   0.35330   0.35728   0.35963
 Alpha virt. eigenvalues --    0.36047   0.36189   0.36641   0.36774   0.36969
 Alpha virt. eigenvalues --    0.37160   0.37371   0.37443   0.38011   0.38221
 Alpha virt. eigenvalues --    0.38464   0.38583   0.38792   0.39030   0.39261
 Alpha virt. eigenvalues --    0.39334   0.39381   0.39529   0.40070   0.40376
 Alpha virt. eigenvalues --    0.40442   0.40686   0.41008   0.41170   0.41412
 Alpha virt. eigenvalues --    0.41572   0.41831   0.42001   0.42280   0.42465
 Alpha virt. eigenvalues --    0.42791   0.42998   0.43117   0.43293   0.43426
 Alpha virt. eigenvalues --    0.43780   0.43975   0.44114   0.44214   0.44535
 Alpha virt. eigenvalues --    0.44756   0.44814   0.45122   0.45319   0.45504
 Alpha virt. eigenvalues --    0.45804   0.45920   0.46040   0.46144   0.46416
 Alpha virt. eigenvalues --    0.46789   0.47281   0.47432   0.47849   0.48045
 Alpha virt. eigenvalues --    0.48130   0.48327   0.48780   0.48903   0.49192
 Alpha virt. eigenvalues --    0.49395   0.49761   0.49992   0.50074   0.50439
 Alpha virt. eigenvalues --    0.50528   0.50802   0.51239   0.51434   0.51946
 Alpha virt. eigenvalues --    0.52093   0.52159   0.52300   0.52514   0.52607
 Alpha virt. eigenvalues --    0.52750   0.53162   0.53570   0.53951   0.54031
 Alpha virt. eigenvalues --    0.54171   0.54644   0.54894   0.55292   0.55381
 Alpha virt. eigenvalues --    0.55711   0.56239   0.56318   0.56617   0.57029
 Alpha virt. eigenvalues --    0.57268   0.57396   0.57637   0.58152   0.58410
 Alpha virt. eigenvalues --    0.58761   0.58962   0.59179   0.59521   0.59590
 Alpha virt. eigenvalues --    0.59915   0.60162   0.60292   0.60654   0.61023
 Alpha virt. eigenvalues --    0.61305   0.61582   0.61779   0.62188   0.62377
 Alpha virt. eigenvalues --    0.62732   0.62896   0.63130   0.63658   0.63818
 Alpha virt. eigenvalues --    0.63975   0.64235   0.64698   0.64808   0.65280
 Alpha virt. eigenvalues --    0.65613   0.65853   0.66088   0.66488   0.66696
 Alpha virt. eigenvalues --    0.67212   0.67600   0.68057   0.68430   0.68465
 Alpha virt. eigenvalues --    0.69088   0.69427   0.69699   0.69898   0.70143
 Alpha virt. eigenvalues --    0.70186   0.70861   0.71392   0.71482   0.71542
 Alpha virt. eigenvalues --    0.72106   0.72591   0.73144   0.73529   0.73593
 Alpha virt. eigenvalues --    0.73867   0.74193   0.74396   0.74594   0.74861
 Alpha virt. eigenvalues --    0.75138   0.75270   0.75632   0.76332   0.76379
 Alpha virt. eigenvalues --    0.76825   0.77326   0.77513   0.77615   0.77779
 Alpha virt. eigenvalues --    0.78537   0.78736   0.79303   0.79463   0.79856
 Alpha virt. eigenvalues --    0.80506   0.80633   0.81014   0.81533   0.81924
 Alpha virt. eigenvalues --    0.81979   0.82144   0.82498   0.83005   0.83240
 Alpha virt. eigenvalues --    0.83479   0.83591   0.83960   0.84418   0.84781
 Alpha virt. eigenvalues --    0.85157   0.85335   0.85490   0.86259   0.86557
 Alpha virt. eigenvalues --    0.86786   0.87167   0.87448   0.87523   0.88157
 Alpha virt. eigenvalues --    0.88216   0.88938   0.89058   0.89143   0.89788
 Alpha virt. eigenvalues --    0.90279   0.90597   0.90708   0.90884   0.91332
 Alpha virt. eigenvalues --    0.91606   0.91831   0.92138   0.92295   0.92936
 Alpha virt. eigenvalues --    0.93237   0.93324   0.93688   0.94098   0.94253
 Alpha virt. eigenvalues --    0.94723   0.94977   0.95183   0.95637   0.95699
 Alpha virt. eigenvalues --    0.96288   0.96376   0.96677   0.97136   0.97384
 Alpha virt. eigenvalues --    0.97730   0.98035   0.98146   0.98650   0.99028
 Alpha virt. eigenvalues --    0.99318   0.99754   1.00038   1.00194   1.00967
 Alpha virt. eigenvalues --    1.01181   1.01517   1.01661   1.02107   1.02530
 Alpha virt. eigenvalues --    1.03389   1.03891   1.04083   1.04567   1.05049
 Alpha virt. eigenvalues --    1.05344   1.05670   1.06191   1.06603   1.06750
 Alpha virt. eigenvalues --    1.07582   1.08059   1.08685   1.09004   1.09148
 Alpha virt. eigenvalues --    1.09430   1.09984   1.10537   1.10975   1.11098
 Alpha virt. eigenvalues --    1.11454   1.11975   1.12240   1.12646   1.13288
 Alpha virt. eigenvalues --    1.13384   1.14124   1.14593   1.14701   1.15212
 Alpha virt. eigenvalues --    1.15633   1.15795   1.16410   1.17008   1.17499
 Alpha virt. eigenvalues --    1.18121   1.18224   1.18668   1.19151   1.19192
 Alpha virt. eigenvalues --    1.19663   1.20424   1.20953   1.21030   1.21604
 Alpha virt. eigenvalues --    1.21908   1.22345   1.23490   1.23749   1.24089
 Alpha virt. eigenvalues --    1.24381   1.24566   1.25359   1.25547   1.25804
 Alpha virt. eigenvalues --    1.26849   1.26936   1.27989   1.28470   1.28950
 Alpha virt. eigenvalues --    1.29339   1.29874   1.30659   1.31031   1.31578
 Alpha virt. eigenvalues --    1.31810   1.32603   1.32676   1.33218   1.33635
 Alpha virt. eigenvalues --    1.34301   1.34726   1.35324   1.35401   1.35679
 Alpha virt. eigenvalues --    1.36588   1.36862   1.37035   1.37164   1.37598
 Alpha virt. eigenvalues --    1.37994   1.38343   1.38551   1.38762   1.38916
 Alpha virt. eigenvalues --    1.39572   1.39618   1.40245   1.40335   1.40767
 Alpha virt. eigenvalues --    1.41035   1.41313   1.41607   1.42090   1.42624
 Alpha virt. eigenvalues --    1.42821   1.43465   1.43728   1.44053   1.44365
 Alpha virt. eigenvalues --    1.44717   1.44775   1.45633   1.45918   1.46072
 Alpha virt. eigenvalues --    1.46566   1.47342   1.47552   1.47719   1.48255
 Alpha virt. eigenvalues --    1.48480   1.48532   1.48948   1.49702   1.49796
 Alpha virt. eigenvalues --    1.50343   1.50635   1.50794   1.50957   1.51205
 Alpha virt. eigenvalues --    1.51853   1.51975   1.52282   1.52374   1.52517
 Alpha virt. eigenvalues --    1.52622   1.53097   1.53401   1.53617   1.53954
 Alpha virt. eigenvalues --    1.54193   1.54419   1.54846   1.54884   1.55149
 Alpha virt. eigenvalues --    1.55634   1.56179   1.56459   1.56580   1.56753
 Alpha virt. eigenvalues --    1.56813   1.57142   1.57391   1.57467   1.57995
 Alpha virt. eigenvalues --    1.58045   1.58749   1.59042   1.59118   1.59164
 Alpha virt. eigenvalues --    1.59533   1.59698   1.60263   1.60637   1.60786
 Alpha virt. eigenvalues --    1.60922   1.61099   1.61764   1.61950   1.62452
 Alpha virt. eigenvalues --    1.62831   1.63191   1.63401   1.63484   1.63801
 Alpha virt. eigenvalues --    1.64289   1.64598   1.65204   1.65337   1.65631
 Alpha virt. eigenvalues --    1.66208   1.66763   1.67226   1.67494   1.67796
 Alpha virt. eigenvalues --    1.68567   1.68890   1.69245   1.69807   1.70528
 Alpha virt. eigenvalues --    1.70889   1.71343   1.71880   1.72777   1.73051
 Alpha virt. eigenvalues --    1.73568   1.73751   1.74228   1.74648   1.74745
 Alpha virt. eigenvalues --    1.75219   1.76083   1.76266   1.76941   1.77321
 Alpha virt. eigenvalues --    1.77659   1.77734   1.78236   1.78689   1.78894
 Alpha virt. eigenvalues --    1.79381   1.79711   1.80217   1.80963   1.81249
 Alpha virt. eigenvalues --    1.81859   1.82059   1.82825   1.83398   1.84032
 Alpha virt. eigenvalues --    1.84607   1.85117   1.85387   1.85794   1.86130
 Alpha virt. eigenvalues --    1.86303   1.86400   1.86700   1.86954   1.87503
 Alpha virt. eigenvalues --    1.87614   1.87700   1.88868   1.89062   1.89263
 Alpha virt. eigenvalues --    1.89408   1.90128   1.90424   1.91131   1.91592
 Alpha virt. eigenvalues --    1.91695   1.91997   1.92062   1.92390   1.92980
 Alpha virt. eigenvalues --    1.93303   1.93357   1.94030   1.94735   1.95080
 Alpha virt. eigenvalues --    1.95924   1.96340   1.96990   1.97529   1.97707
 Alpha virt. eigenvalues --    1.98176   1.98787   1.99013   1.99292   1.99570
 Alpha virt. eigenvalues --    2.00156   2.00516   2.00587   2.00835   2.01580
 Alpha virt. eigenvalues --    2.01969   2.02147   2.02449   2.03711   2.03900
 Alpha virt. eigenvalues --    2.03988   2.04504   2.05009   2.05211   2.05258
 Alpha virt. eigenvalues --    2.05983   2.06271   2.07001   2.07142   2.07496
 Alpha virt. eigenvalues --    2.07667   2.07983   2.08526   2.09113   2.09410
 Alpha virt. eigenvalues --    2.09587   2.09926   2.10366   2.10922   2.11140
 Alpha virt. eigenvalues --    2.11626   2.11831   2.12223   2.12455   2.12673
 Alpha virt. eigenvalues --    2.12965   2.13713   2.14383   2.14602   2.15183
 Alpha virt. eigenvalues --    2.15582   2.16243   2.16372   2.16945   2.17052
 Alpha virt. eigenvalues --    2.17410   2.18111   2.18865   2.19107   2.19491
 Alpha virt. eigenvalues --    2.20017   2.20312   2.20534   2.20767   2.21780
 Alpha virt. eigenvalues --    2.22246   2.22783   2.22844   2.23709   2.24191
 Alpha virt. eigenvalues --    2.24689   2.25054   2.25551   2.25609   2.26112
 Alpha virt. eigenvalues --    2.27116   2.27707   2.28023   2.28811   2.29396
 Alpha virt. eigenvalues --    2.29990   2.30231   2.30981   2.31409   2.31684
 Alpha virt. eigenvalues --    2.31930   2.32423   2.33167   2.33422   2.33856
 Alpha virt. eigenvalues --    2.34479   2.34887   2.35194   2.35708   2.35755
 Alpha virt. eigenvalues --    2.36072   2.36266   2.36573   2.36860   2.37473
 Alpha virt. eigenvalues --    2.37856   2.38594   2.38901   2.39499   2.40118
 Alpha virt. eigenvalues --    2.40820   2.41176   2.41557   2.42006   2.42591
 Alpha virt. eigenvalues --    2.42925   2.43107   2.43368   2.44308   2.44796
 Alpha virt. eigenvalues --    2.45115   2.45634   2.46230   2.46427   2.46981
 Alpha virt. eigenvalues --    2.47303   2.47640   2.47951   2.48077   2.48764
 Alpha virt. eigenvalues --    2.49477   2.49966   2.50197   2.51206   2.51298
 Alpha virt. eigenvalues --    2.52016   2.52319   2.52472   2.53225   2.53532
 Alpha virt. eigenvalues --    2.53876   2.54295   2.54319   2.54826   2.55420
 Alpha virt. eigenvalues --    2.55928   2.56345   2.56998   2.57266   2.57779
 Alpha virt. eigenvalues --    2.58151   2.58450   2.58980   2.59380   2.59653
 Alpha virt. eigenvalues --    2.60454   2.60615   2.60801   2.61869   2.61940
 Alpha virt. eigenvalues --    2.62443   2.62564   2.63127   2.63296   2.63478
 Alpha virt. eigenvalues --    2.63735   2.64461   2.64830   2.65470   2.65585
 Alpha virt. eigenvalues --    2.65727   2.66172   2.66548   2.66886   2.67691
 Alpha virt. eigenvalues --    2.68038   2.68183   2.68937   2.69123   2.69271
 Alpha virt. eigenvalues --    2.69652   2.69914   2.70255   2.70751   2.70793
 Alpha virt. eigenvalues --    2.71557   2.71681   2.71945   2.72272   2.72569
 Alpha virt. eigenvalues --    2.72927   2.73192   2.73515   2.73874   2.74070
 Alpha virt. eigenvalues --    2.74105   2.74524   2.75244   2.75665   2.76200
 Alpha virt. eigenvalues --    2.76461   2.76666   2.76876   2.77168   2.77689
 Alpha virt. eigenvalues --    2.77997   2.78326   2.78648   2.78818   2.79313
 Alpha virt. eigenvalues --    2.79595   2.80055   2.80420   2.80708   2.81370
 Alpha virt. eigenvalues --    2.81556   2.82037   2.82230   2.82628   2.82822
 Alpha virt. eigenvalues --    2.83564   2.83902   2.84305   2.84471   2.84815
 Alpha virt. eigenvalues --    2.85077   2.85413   2.85543   2.86040   2.86893
 Alpha virt. eigenvalues --    2.86985   2.87464   2.87487   2.87622   2.87982
 Alpha virt. eigenvalues --    2.88209   2.88581   2.89208   2.89498   2.89784
 Alpha virt. eigenvalues --    2.90345   2.90961   2.90992   2.91388   2.91661
 Alpha virt. eigenvalues --    2.91847   2.92069   2.92348   2.92871   2.93482
 Alpha virt. eigenvalues --    2.93580   2.93847   2.94410   2.94543   2.94677
 Alpha virt. eigenvalues --    2.94962   2.95612   2.95829   2.96125   2.96406
 Alpha virt. eigenvalues --    2.96497   2.96663   2.97140   2.97476   2.97649
 Alpha virt. eigenvalues --    2.97880   2.98515   2.98618   2.98962   2.99174
 Alpha virt. eigenvalues --    2.99358   2.99793   3.00203   3.00424   3.01330
 Alpha virt. eigenvalues --    3.01396   3.01696   3.01942   3.02171   3.03089
 Alpha virt. eigenvalues --    3.03243   3.03371   3.03680   3.04274   3.04614
 Alpha virt. eigenvalues --    3.04849   3.04945   3.05303   3.05572   3.05929
 Alpha virt. eigenvalues --    3.06261   3.06526   3.07046   3.07433   3.07800
 Alpha virt. eigenvalues --    3.08510   3.08573   3.08753   3.09304   3.09720
 Alpha virt. eigenvalues --    3.09979   3.10199   3.10650   3.10995   3.11622
 Alpha virt. eigenvalues --    3.11767   3.12080   3.12505   3.12758   3.13063
 Alpha virt. eigenvalues --    3.13305   3.13769   3.14381   3.14639   3.14946
 Alpha virt. eigenvalues --    3.15016   3.15305   3.16074   3.16421   3.16639
 Alpha virt. eigenvalues --    3.17101   3.17562   3.17608   3.17695   3.18238
 Alpha virt. eigenvalues --    3.18417   3.19047   3.19281   3.19417   3.19551
 Alpha virt. eigenvalues --    3.20151   3.20339   3.20620   3.20848   3.21276
 Alpha virt. eigenvalues --    3.21672   3.21726   3.21953   3.22120   3.22975
 Alpha virt. eigenvalues --    3.23030   3.23209   3.23674   3.23854   3.24142
 Alpha virt. eigenvalues --    3.24316   3.24539   3.24872   3.25267   3.25417
 Alpha virt. eigenvalues --    3.25688   3.25871   3.26219   3.26334   3.26932
 Alpha virt. eigenvalues --    3.27082   3.27149   3.27346   3.27553   3.27965
 Alpha virt. eigenvalues --    3.28606   3.28834   3.29226   3.29304   3.29676
 Alpha virt. eigenvalues --    3.29788   3.30353   3.30551   3.31168   3.31378
 Alpha virt. eigenvalues --    3.32079   3.32235   3.32415   3.32653   3.33056
 Alpha virt. eigenvalues --    3.33181   3.33560   3.33930   3.34105   3.34420
 Alpha virt. eigenvalues --    3.34625   3.34810   3.35133   3.35208   3.35375
 Alpha virt. eigenvalues --    3.35719   3.36176   3.36413   3.36568   3.37326
 Alpha virt. eigenvalues --    3.37502   3.38091   3.38342   3.38644   3.38939
 Alpha virt. eigenvalues --    3.39258   3.39493   3.39851   3.40521   3.40857
 Alpha virt. eigenvalues --    3.41365   3.41811   3.42125   3.42391   3.42641
 Alpha virt. eigenvalues --    3.43016   3.43246   3.44146   3.44434   3.44735
 Alpha virt. eigenvalues --    3.44956   3.45436   3.45790   3.45877   3.46084
 Alpha virt. eigenvalues --    3.46589   3.46898   3.47294   3.47878   3.48210
 Alpha virt. eigenvalues --    3.48470   3.49029   3.49619   3.49775   3.50054
 Alpha virt. eigenvalues --    3.50467   3.51001   3.51528   3.51829   3.51935
 Alpha virt. eigenvalues --    3.52289   3.52927   3.53000   3.53433   3.53973
 Alpha virt. eigenvalues --    3.54717   3.54972   3.55583   3.55673   3.56619
 Alpha virt. eigenvalues --    3.56826   3.57119   3.57896   3.58190   3.58568
 Alpha virt. eigenvalues --    3.59055   3.59734   3.60290   3.61160   3.61634
 Alpha virt. eigenvalues --    3.61975   3.62377   3.63042   3.63363   3.63548
 Alpha virt. eigenvalues --    3.63773   3.64139   3.64751   3.65472   3.65797
 Alpha virt. eigenvalues --    3.66033   3.66307   3.67019   3.67095   3.67633
 Alpha virt. eigenvalues --    3.67957   3.68389   3.69070   3.69431   3.69578
 Alpha virt. eigenvalues --    3.69777   3.70685   3.71039   3.71520   3.71861
 Alpha virt. eigenvalues --    3.72265   3.72483   3.72875   3.73285   3.74420
 Alpha virt. eigenvalues --    3.74701   3.74947   3.75988   3.76536   3.76757
 Alpha virt. eigenvalues --    3.76788   3.77296   3.78113   3.78518   3.79266
 Alpha virt. eigenvalues --    3.80027   3.80527   3.80700   3.82000   3.82685
 Alpha virt. eigenvalues --    3.82858   3.83660   3.84264   3.85252   3.85582
 Alpha virt. eigenvalues --    3.85780   3.86553   3.87411   3.87636   3.88554
 Alpha virt. eigenvalues --    3.89316   3.89826   3.90726   3.91492   3.91608
 Alpha virt. eigenvalues --    3.92005   3.92162   3.92741   3.92817   3.93404
 Alpha virt. eigenvalues --    3.94180   3.94708   3.95249   3.95657   3.95993
 Alpha virt. eigenvalues --    3.96840   3.97037   3.97204   3.97522   3.99200
 Alpha virt. eigenvalues --    3.99893   4.00422   4.01174   4.01738   4.02036
 Alpha virt. eigenvalues --    4.02449   4.02699   4.03058   4.03867   4.04348
 Alpha virt. eigenvalues --    4.04728   4.05765   4.06749   4.07627   4.07949
 Alpha virt. eigenvalues --    4.08522   4.09228   4.09618   4.10581   4.10873
 Alpha virt. eigenvalues --    4.11189   4.11565   4.12198   4.12698   4.13309
 Alpha virt. eigenvalues --    4.13384   4.14342   4.14682   4.15382   4.15733
 Alpha virt. eigenvalues --    4.16452   4.16825   4.17460   4.17579   4.18763
 Alpha virt. eigenvalues --    4.19374   4.20200   4.20971   4.21771   4.22836
 Alpha virt. eigenvalues --    4.24739   4.25529   4.25842   4.26310   4.26721
 Alpha virt. eigenvalues --    4.26954   4.27541   4.28282   4.29004   4.29615
 Alpha virt. eigenvalues --    4.30292   4.30793   4.31795   4.32108   4.32978
 Alpha virt. eigenvalues --    4.34159   4.34813   4.35452   4.36113   4.36735
 Alpha virt. eigenvalues --    4.37104   4.38090   4.39036   4.40101   4.40881
 Alpha virt. eigenvalues --    4.41378   4.41551   4.42087   4.42842   4.43177
 Alpha virt. eigenvalues --    4.43972   4.45580   4.46263   4.46865   4.48310
 Alpha virt. eigenvalues --    4.49446   4.51001   4.51723   4.52779   4.54248
 Alpha virt. eigenvalues --    4.55249   4.55568   4.56999   4.57653   4.57876
 Alpha virt. eigenvalues --    4.58624   4.59163   4.60333   4.61023   4.61747
 Alpha virt. eigenvalues --    4.61826   4.62636   4.63519   4.65056   4.65266
 Alpha virt. eigenvalues --    4.65676   4.66056   4.66370   4.67760   4.68292
 Alpha virt. eigenvalues --    4.68828   4.70225   4.70258   4.70579   4.71161
 Alpha virt. eigenvalues --    4.71509   4.72461   4.72608   4.73062   4.73544
 Alpha virt. eigenvalues --    4.73641   4.74457   4.75132   4.75505   4.76061
 Alpha virt. eigenvalues --    4.76532   4.77026   4.77863   4.79431   4.79681
 Alpha virt. eigenvalues --    4.80635   4.80908   4.82019   4.82886   4.82941
 Alpha virt. eigenvalues --    4.83371   4.83567   4.84984   4.85947   4.86797
 Alpha virt. eigenvalues --    4.86872   4.87574   4.88757   4.89002   4.89564
 Alpha virt. eigenvalues --    4.89994   4.91031   4.91761   4.92545   4.92661
 Alpha virt. eigenvalues --    4.93076   4.94674   4.95456   4.97122   4.98488
 Alpha virt. eigenvalues --    4.99932   5.02035   5.03504   5.04776   5.05467
 Alpha virt. eigenvalues --    5.06479   5.08366   5.09209   5.10610   5.10869
 Alpha virt. eigenvalues --    5.11077   5.11140   5.12143   5.13099   5.14673
 Alpha virt. eigenvalues --    5.15088   5.15378   5.17498   5.18554   5.21311
 Alpha virt. eigenvalues --    5.21700   5.22196   5.22955   5.24086   5.24403
 Alpha virt. eigenvalues --    5.24456   5.25509   5.27406   5.29268   5.29397
 Alpha virt. eigenvalues --    5.31103   5.32854   5.33977   5.34614   5.35642
 Alpha virt. eigenvalues --    5.37500   5.38578   5.38736   5.41523   5.42243
 Alpha virt. eigenvalues --    5.46164   5.46602   5.48296   5.49085   5.49780
 Alpha virt. eigenvalues --    5.50816   5.51827   5.52370   5.53209   5.56979
 Alpha virt. eigenvalues --    5.57160   5.58334   5.61946   5.62941   5.65786
 Alpha virt. eigenvalues --    5.66199   5.72944   5.76805   5.77607   5.77844
 Alpha virt. eigenvalues --    5.79022   5.79830   5.83720   5.85754   5.86738
 Alpha virt. eigenvalues --    5.88350   5.89639   5.91266   5.92020   5.94016
 Alpha virt. eigenvalues --    5.94726   5.96362   5.97046   6.05568   6.06100
 Alpha virt. eigenvalues --    6.08776   6.09223   6.14889   6.15285   6.18470
 Alpha virt. eigenvalues --    6.19172   6.26167   6.29874   6.30747   6.36082
 Alpha virt. eigenvalues --    6.37052   6.39907   6.40146   6.48884   6.49102
 Alpha virt. eigenvalues --    6.65911   6.67524   6.68542   6.69169   6.78386
 Alpha virt. eigenvalues --    6.78858   6.84746   6.85269   6.87081   6.87592
 Alpha virt. eigenvalues --    7.04365   7.05407   7.11208   7.12325   7.21088
 Alpha virt. eigenvalues --    7.22263   8.92878   9.03960   9.31816  19.58344
 Alpha virt. eigenvalues --   22.26878  22.43299  22.46938  22.69899  22.75017
 Alpha virt. eigenvalues --   22.77306  22.77432  22.81901  22.85236  22.86807
 Alpha virt. eigenvalues --   22.86958  22.89815  22.90643  22.93572  22.95400
 Alpha virt. eigenvalues --   22.96272  22.98913  23.02049  23.05699  23.09506
 Alpha virt. eigenvalues --   23.10154  23.13084  23.20988  23.21823  23.22479
 Alpha virt. eigenvalues --   23.27266  23.30901  23.38583  23.40654  23.47511
 Alpha virt. eigenvalues --   23.50260  23.54789  23.59290  23.65975  23.72719
 Alpha virt. eigenvalues --   32.74693  32.78392  32.78701  32.86615  43.85922
 Alpha virt. eigenvalues --   43.86267  43.89261  43.90836
  Beta  occ. eigenvalues -- -256.49114 -89.17545 -30.24223 -26.07509 -26.07239
  Beta  occ. eigenvalues --  -26.06442 -19.34535 -19.34112 -19.24903 -19.24844
  Beta  occ. eigenvalues --  -14.51289 -14.51272 -14.51234 -14.51221 -10.42655
  Beta  occ. eigenvalues --  -10.42645 -10.37463 -10.37380 -10.37249 -10.37181
  Beta  occ. eigenvalues --  -10.37054 -10.36981 -10.36907 -10.36802 -10.36603
  Beta  occ. eigenvalues --  -10.35013 -10.34670 -10.34176 -10.34143 -10.34078
  Beta  occ. eigenvalues --  -10.34050 -10.33922 -10.33899 -10.33800 -10.33770
  Beta  occ. eigenvalues --  -10.33745 -10.33617 -10.33256 -10.31838 -10.29773
  Beta  occ. eigenvalues --  -10.29731 -10.29615 -10.29602 -10.28397 -10.28282
  Beta  occ. eigenvalues --  -10.28179 -10.27933 -10.26298 -10.26254  -8.15530
  Beta  occ. eigenvalues --   -6.09083  -6.08756  -6.08614  -3.56687  -2.33108
  Beta  occ. eigenvalues --   -2.31917  -2.30354  -1.24529  -1.23923  -1.10857
  Beta  occ. eigenvalues --   -1.10211  -1.10048  -1.09510  -1.09439  -1.07985
  Beta  occ. eigenvalues --   -0.97002  -0.95633  -0.94558  -0.94473  -0.93976
  Beta  occ. eigenvalues --   -0.93878  -0.93319  -0.93201  -0.90366  -0.89955
  Beta  occ. eigenvalues --   -0.89137  -0.88892  -0.87827  -0.85812  -0.84579
  Beta  occ. eigenvalues --   -0.84257  -0.83763  -0.82238  -0.80970  -0.79890
  Beta  occ. eigenvalues --   -0.79110  -0.78648  -0.77917  -0.75863  -0.75665
  Beta  occ. eigenvalues --   -0.75307  -0.73960  -0.72339  -0.71490  -0.68323
  Beta  occ. eigenvalues --   -0.67754  -0.67553  -0.65179  -0.64617  -0.64336
  Beta  occ. eigenvalues --   -0.63885  -0.63125  -0.62661  -0.61496  -0.61236
  Beta  occ. eigenvalues --   -0.60927  -0.60597  -0.59928  -0.59852  -0.58999
  Beta  occ. eigenvalues --   -0.58567  -0.57672  -0.57043  -0.56646  -0.56414
  Beta  occ. eigenvalues --   -0.56226  -0.56051  -0.55815  -0.55766  -0.55553
  Beta  occ. eigenvalues --   -0.55410  -0.55031  -0.54729  -0.54435  -0.54355
  Beta  occ. eigenvalues --   -0.54051  -0.53843  -0.53773  -0.53416  -0.53377
  Beta  occ. eigenvalues --   -0.53211  -0.53108  -0.52795  -0.52595  -0.52070
  Beta  occ. eigenvalues --   -0.51391  -0.50518  -0.49998  -0.49694  -0.49507
  Beta  occ. eigenvalues --   -0.49127  -0.49051  -0.48854  -0.48703  -0.48525
  Beta  occ. eigenvalues --   -0.48418  -0.47988  -0.47374  -0.47176  -0.46524
  Beta  occ. eigenvalues --   -0.46260  -0.45755  -0.45258  -0.44760  -0.44216
  Beta  occ. eigenvalues --   -0.43947  -0.43508  -0.42780  -0.42570  -0.41144
  Beta  occ. eigenvalues --   -0.40969  -0.39912  -0.39554  -0.38148  -0.37435
  Beta  occ. eigenvalues --   -0.36367  -0.35981  -0.35542  -0.35193  -0.34807
  Beta  occ. eigenvalues --   -0.34163  -0.32945  -0.32193  -0.31146
  Beta virt. eigenvalues --   -0.20738  -0.19557  -0.16052  -0.15802  -0.15512
  Beta virt. eigenvalues --   -0.12805  -0.10484  -0.08621  -0.07946  -0.07097
  Beta virt. eigenvalues --   -0.06229  -0.06113  -0.05793  -0.05262  -0.04459
  Beta virt. eigenvalues --   -0.04193  -0.04029  -0.03623  -0.03217  -0.03013
  Beta virt. eigenvalues --   -0.02535  -0.02415  -0.02142  -0.01778  -0.00869
  Beta virt. eigenvalues --   -0.00462  -0.00018   0.00223   0.00254   0.00574
  Beta virt. eigenvalues --    0.01276   0.01408   0.01577   0.01861   0.02263
  Beta virt. eigenvalues --    0.02487   0.02644   0.02819   0.03093   0.03408
  Beta virt. eigenvalues --    0.03506   0.03778   0.04275   0.04419   0.04801
  Beta virt. eigenvalues --    0.04849   0.04942   0.05018   0.05437   0.05690
  Beta virt. eigenvalues --    0.06049   0.06428   0.06557   0.06809   0.06985
  Beta virt. eigenvalues --    0.07267   0.07397   0.07713   0.08269   0.08332
  Beta virt. eigenvalues --    0.08655   0.08763   0.08878   0.09000   0.09134
  Beta virt. eigenvalues --    0.09567   0.09644   0.09962   0.10348   0.10424
  Beta virt. eigenvalues --    0.10744   0.10888   0.11077   0.11369   0.11520
  Beta virt. eigenvalues --    0.11661   0.11748   0.12070   0.12218   0.12442
  Beta virt. eigenvalues --    0.12552   0.12645   0.13043   0.13082   0.13249
  Beta virt. eigenvalues --    0.13590   0.13820   0.13972   0.14066   0.14386
  Beta virt. eigenvalues --    0.14626   0.14764   0.14864   0.15252   0.15507
  Beta virt. eigenvalues --    0.15642   0.15865   0.16398   0.16523   0.16683
  Beta virt. eigenvalues --    0.16897   0.17274   0.17559   0.17755   0.17881
  Beta virt. eigenvalues --    0.18204   0.18456   0.18722   0.18924   0.19125
  Beta virt. eigenvalues --    0.19543   0.19631   0.19773   0.20271   0.20415
  Beta virt. eigenvalues --    0.20784   0.20992   0.21183   0.21209   0.21427
  Beta virt. eigenvalues --    0.21595   0.21850   0.22248   0.22533   0.22616
  Beta virt. eigenvalues --    0.23053   0.23149   0.23575   0.23709   0.24163
  Beta virt. eigenvalues --    0.24533   0.24987   0.25133   0.25417   0.25629
  Beta virt. eigenvalues --    0.25941   0.26173   0.26329   0.26743   0.27284
  Beta virt. eigenvalues --    0.27481   0.27560   0.27940   0.28158   0.28304
  Beta virt. eigenvalues --    0.28506   0.28716   0.28903   0.29151   0.29510
  Beta virt. eigenvalues --    0.29785   0.29903   0.30150   0.30381   0.30671
  Beta virt. eigenvalues --    0.30819   0.31010   0.31454   0.31721   0.32034
  Beta virt. eigenvalues --    0.32124   0.32492   0.32841   0.33030   0.33268
  Beta virt. eigenvalues --    0.33326   0.33734   0.34018   0.34276   0.34395
  Beta virt. eigenvalues --    0.34834   0.34903   0.35158   0.35359   0.35516
  Beta virt. eigenvalues --    0.35968   0.36061   0.36348   0.36647   0.36848
  Beta virt. eigenvalues --    0.36988   0.37014   0.37366   0.37458   0.38042
  Beta virt. eigenvalues --    0.38298   0.38474   0.38612   0.38761   0.39002
  Beta virt. eigenvalues --    0.39238   0.39302   0.39361   0.39537   0.40016
  Beta virt. eigenvalues --    0.40386   0.40538   0.40663   0.41004   0.41119
  Beta virt. eigenvalues --    0.41430   0.41571   0.41770   0.42041   0.42318
  Beta virt. eigenvalues --    0.42503   0.42822   0.42917   0.43142   0.43295
  Beta virt. eigenvalues --    0.43428   0.43800   0.43993   0.44091   0.44270
  Beta virt. eigenvalues --    0.44465   0.44710   0.44819   0.45164   0.45334
  Beta virt. eigenvalues --    0.45496   0.45783   0.45891   0.46012   0.46266
  Beta virt. eigenvalues --    0.46552   0.46842   0.47222   0.47447   0.47700
  Beta virt. eigenvalues --    0.48087   0.48135   0.48415   0.48781   0.48941
  Beta virt. eigenvalues --    0.49013   0.49368   0.49830   0.50067   0.50137
  Beta virt. eigenvalues --    0.50400   0.50520   0.50726   0.51364   0.51411
  Beta virt. eigenvalues --    0.51899   0.52019   0.52070   0.52255   0.52557
  Beta virt. eigenvalues --    0.52607   0.52778   0.53256   0.53544   0.53868
  Beta virt. eigenvalues --    0.53959   0.54172   0.54603   0.54804   0.55215
  Beta virt. eigenvalues --    0.55291   0.55651   0.56140   0.56288   0.56626
  Beta virt. eigenvalues --    0.57042   0.57284   0.57379   0.57645   0.58054
  Beta virt. eigenvalues --    0.58441   0.58699   0.58951   0.59297   0.59468
  Beta virt. eigenvalues --    0.59529   0.59807   0.60148   0.60280   0.60706
  Beta virt. eigenvalues --    0.61027   0.61347   0.61542   0.61776   0.62254
  Beta virt. eigenvalues --    0.62390   0.62727   0.62940   0.63185   0.63667
  Beta virt. eigenvalues --    0.63788   0.64043   0.64251   0.64711   0.64925
  Beta virt. eigenvalues --    0.65328   0.65539   0.65822   0.66026   0.66536
  Beta virt. eigenvalues --    0.66668   0.67222   0.67585   0.68035   0.68413
  Beta virt. eigenvalues --    0.68486   0.69011   0.69444   0.69657   0.69856
  Beta virt. eigenvalues --    0.69992   0.70154   0.70873   0.71319   0.71439
  Beta virt. eigenvalues --    0.71535   0.72071   0.72543   0.73074   0.73548
  Beta virt. eigenvalues --    0.73719   0.73849   0.74068   0.74353   0.74515
  Beta virt. eigenvalues --    0.74903   0.75136   0.75321   0.75611   0.76318
  Beta virt. eigenvalues --    0.76404   0.76827   0.77245   0.77571   0.77700
  Beta virt. eigenvalues --    0.78165   0.78612   0.78724   0.79123   0.79454
  Beta virt. eigenvalues --    0.79812   0.80466   0.80653   0.81081   0.81410
  Beta virt. eigenvalues --    0.81837   0.81972   0.82204   0.82421   0.82843
  Beta virt. eigenvalues --    0.83296   0.83556   0.83674   0.83957   0.84398
  Beta virt. eigenvalues --    0.84777   0.85140   0.85409   0.85562   0.86004
  Beta virt. eigenvalues --    0.86423   0.86885   0.87084   0.87431   0.87654
  Beta virt. eigenvalues --    0.88191   0.88279   0.88912   0.89130   0.89202
  Beta virt. eigenvalues --    0.89713   0.90222   0.90557   0.90722   0.91006
  Beta virt. eigenvalues --    0.91317   0.91648   0.91895   0.92212   0.92413
  Beta virt. eigenvalues --    0.93086   0.93295   0.93330   0.93828   0.94045
  Beta virt. eigenvalues --    0.94364   0.94787   0.94905   0.95197   0.95558
  Beta virt. eigenvalues --    0.95842   0.96293   0.96393   0.96791   0.97285
  Beta virt. eigenvalues --    0.97401   0.97849   0.98007   0.98320   0.98773
  Beta virt. eigenvalues --    0.99082   0.99577   0.99683   1.00165   1.00256
  Beta virt. eigenvalues --    1.01090   1.01160   1.01478   1.01848   1.02403
  Beta virt. eigenvalues --    1.02722   1.03529   1.03990   1.04247   1.04537
  Beta virt. eigenvalues --    1.05091   1.05284   1.05732   1.06276   1.06538
  Beta virt. eigenvalues --    1.07498   1.07759   1.08199   1.08588   1.08740
  Beta virt. eigenvalues --    1.09300   1.09579   1.09830   1.10191   1.11004
  Beta virt. eigenvalues --    1.11206   1.11704   1.11971   1.12362   1.12774
  Beta virt. eigenvalues --    1.13358   1.13628   1.14276   1.14581   1.14810
  Beta virt. eigenvalues --    1.15329   1.15749   1.15909   1.16628   1.17267
  Beta virt. eigenvalues --    1.17639   1.18166   1.18212   1.18763   1.18997
  Beta virt. eigenvalues --    1.19140   1.19660   1.20630   1.20950   1.21105
  Beta virt. eigenvalues --    1.21630   1.21916   1.22252   1.23344   1.23908
  Beta virt. eigenvalues --    1.24096   1.24377   1.24578   1.25268   1.25586
  Beta virt. eigenvalues --    1.25920   1.26854   1.26921   1.28012   1.28373
  Beta virt. eigenvalues --    1.28951   1.29318   1.29775   1.30628   1.31058
  Beta virt. eigenvalues --    1.31584   1.31820   1.32462   1.32686   1.33149
  Beta virt. eigenvalues --    1.33613   1.34322   1.34832   1.35301   1.35358
  Beta virt. eigenvalues --    1.35567   1.36554   1.36886   1.37008   1.37217
  Beta virt. eigenvalues --    1.37441   1.37962   1.38356   1.38514   1.38823
  Beta virt. eigenvalues --    1.38966   1.39518   1.39877   1.40279   1.40332
  Beta virt. eigenvalues --    1.40646   1.40990   1.41226   1.41600   1.42176
  Beta virt. eigenvalues --    1.42542   1.42867   1.43455   1.43897   1.44096
  Beta virt. eigenvalues --    1.44307   1.44541   1.44737   1.45565   1.45897
  Beta virt. eigenvalues --    1.46047   1.46578   1.46920   1.47487   1.47726
  Beta virt. eigenvalues --    1.48370   1.48510   1.48628   1.49013   1.49513
  Beta virt. eigenvalues --    1.49651   1.50278   1.50458   1.50702   1.51014
  Beta virt. eigenvalues --    1.51173   1.51741   1.51927   1.52256   1.52372
  Beta virt. eigenvalues --    1.52561   1.52673   1.53168   1.53393   1.53615
  Beta virt. eigenvalues --    1.53858   1.54280   1.54417   1.54802   1.54860
  Beta virt. eigenvalues --    1.55131   1.55600   1.56033   1.56312   1.56439
  Beta virt. eigenvalues --    1.56673   1.56753   1.57042   1.57294   1.57446
  Beta virt. eigenvalues --    1.57875   1.58440   1.58564   1.59002   1.59062
  Beta virt. eigenvalues --    1.59313   1.59559   1.59880   1.60199   1.60277
  Beta virt. eigenvalues --    1.60637   1.60792   1.61002   1.61720   1.61878
  Beta virt. eigenvalues --    1.62421   1.62913   1.63127   1.63367   1.63685
  Beta virt. eigenvalues --    1.63775   1.64455   1.64634   1.64971   1.65281
  Beta virt. eigenvalues --    1.65923   1.66135   1.66761   1.66970   1.67499
  Beta virt. eigenvalues --    1.68074   1.68443   1.68946   1.69168   1.69296
  Beta virt. eigenvalues --    1.70287   1.70850   1.71245   1.71867   1.72653
  Beta virt. eigenvalues --    1.73082   1.73515   1.73713   1.74154   1.74649
  Beta virt. eigenvalues --    1.74745   1.75253   1.76002   1.76225   1.76749
  Beta virt. eigenvalues --    1.77359   1.77633   1.77928   1.78125   1.78673
  Beta virt. eigenvalues --    1.78813   1.79280   1.79649   1.80224   1.80874
  Beta virt. eigenvalues --    1.81340   1.81914   1.82030   1.82749   1.83390
  Beta virt. eigenvalues --    1.84128   1.84611   1.85046   1.85350   1.85696
  Beta virt. eigenvalues --    1.86073   1.86197   1.86545   1.87026   1.87088
  Beta virt. eigenvalues --    1.87463   1.87532   1.87924   1.88840   1.89022
  Beta virt. eigenvalues --    1.89267   1.89471   1.90059   1.90396   1.91114
  Beta virt. eigenvalues --    1.91486   1.91670   1.91968   1.92066   1.92436
  Beta virt. eigenvalues --    1.92942   1.93203   1.93316   1.94074   1.94649
  Beta virt. eigenvalues --    1.95085   1.95929   1.96317   1.96894   1.97501
  Beta virt. eigenvalues --    1.97879   1.98246   1.98736   1.99088   1.99222
  Beta virt. eigenvalues --    1.99551   2.00215   2.00486   2.00647   2.00856
  Beta virt. eigenvalues --    2.01605   2.01921   2.02281   2.02501   2.03739
  Beta virt. eigenvalues --    2.03912   2.03962   2.04447   2.04981   2.05188
  Beta virt. eigenvalues --    2.05349   2.06002   2.06253   2.06898   2.07136
  Beta virt. eigenvalues --    2.07533   2.07761   2.08124   2.08512   2.09060
  Beta virt. eigenvalues --    2.09325   2.09627   2.09882   2.10343   2.10875
  Beta virt. eigenvalues --    2.11196   2.11564   2.11821   2.12365   2.12627
  Beta virt. eigenvalues --    2.12897   2.13135   2.13892   2.14391   2.14653
  Beta virt. eigenvalues --    2.15279   2.15520   2.16245   2.16352   2.17069
  Beta virt. eigenvalues --    2.17442   2.17671   2.18177   2.18894   2.19159
  Beta virt. eigenvalues --    2.19462   2.20096   2.20524   2.20576   2.21153
  Beta virt. eigenvalues --    2.21636   2.22220   2.22710   2.22867   2.23793
  Beta virt. eigenvalues --    2.24099   2.24687   2.25122   2.25634   2.25700
  Beta virt. eigenvalues --    2.26134   2.27045   2.27766   2.28244   2.28695
  Beta virt. eigenvalues --    2.29333   2.29882   2.30286   2.31031   2.31644
  Beta virt. eigenvalues --    2.31828   2.32070   2.32310   2.33196   2.33322
  Beta virt. eigenvalues --    2.33691   2.34422   2.34817   2.35191   2.35611
  Beta virt. eigenvalues --    2.35771   2.36095   2.36361   2.36564   2.36735
  Beta virt. eigenvalues --    2.37252   2.37771   2.38647   2.38919   2.39589
  Beta virt. eigenvalues --    2.40206   2.40646   2.41267   2.41537   2.42045
  Beta virt. eigenvalues --    2.42620   2.42775   2.42976   2.43427   2.44260
  Beta virt. eigenvalues --    2.44643   2.45035   2.45739   2.46132   2.46403
  Beta virt. eigenvalues --    2.47003   2.47379   2.47554   2.47900   2.47981
  Beta virt. eigenvalues --    2.48749   2.49435   2.49831   2.50311   2.51128
  Beta virt. eigenvalues --    2.51145   2.52053   2.52283   2.52466   2.53154
  Beta virt. eigenvalues --    2.53732   2.53918   2.54224   2.54370   2.54632
  Beta virt. eigenvalues --    2.55477   2.55731   2.56352   2.56980   2.57304
  Beta virt. eigenvalues --    2.57614   2.58118   2.58460   2.58980   2.59332
  Beta virt. eigenvalues --    2.59713   2.60415   2.60526   2.60809   2.61754
  Beta virt. eigenvalues --    2.61918   2.62357   2.62574   2.63160   2.63268
  Beta virt. eigenvalues --    2.63474   2.63715   2.64461   2.64820   2.65439
  Beta virt. eigenvalues --    2.65679   2.65938   2.66239   2.66386   2.66899
  Beta virt. eigenvalues --    2.67647   2.68015   2.68138   2.68904   2.69078
  Beta virt. eigenvalues --    2.69254   2.69670   2.69841   2.70261   2.70685
  Beta virt. eigenvalues --    2.70784   2.71520   2.71708   2.71940   2.72303
  Beta virt. eigenvalues --    2.72548   2.72924   2.73207   2.73519   2.73857
  Beta virt. eigenvalues --    2.73983   2.74167   2.74583   2.75176   2.75741
  Beta virt. eigenvalues --    2.76164   2.76401   2.76676   2.76785   2.77134
  Beta virt. eigenvalues --    2.77628   2.78047   2.78338   2.78632   2.79106
  Beta virt. eigenvalues --    2.79379   2.79490   2.79780   2.80092   2.80785
  Beta virt. eigenvalues --    2.81170   2.81571   2.81994   2.82432   2.82641
  Beta virt. eigenvalues --    2.82823   2.83510   2.83967   2.84188   2.84552
  Beta virt. eigenvalues --    2.84792   2.85068   2.85272   2.85470   2.86087
  Beta virt. eigenvalues --    2.86625   2.86999   2.87407   2.87466   2.87639
  Beta virt. eigenvalues --    2.87999   2.88204   2.88655   2.89262   2.89541
  Beta virt. eigenvalues --    2.89752   2.90338   2.90965   2.90980   2.91245
  Beta virt. eigenvalues --    2.91571   2.91947   2.92087   2.92195   2.92949
  Beta virt. eigenvalues --    2.93414   2.93580   2.93768   2.94300   2.94407
  Beta virt. eigenvalues --    2.94631   2.95084   2.95571   2.95738   2.96044
  Beta virt. eigenvalues --    2.96377   2.96577   2.96751   2.97054   2.97602
  Beta virt. eigenvalues --    2.97629   2.98342   2.98393   2.98633   2.98713
  Beta virt. eigenvalues --    2.99070   2.99505   2.99716   3.00167   3.00534
  Beta virt. eigenvalues --    3.01246   3.01390   3.01678   3.01722   3.02345
  Beta virt. eigenvalues --    3.02927   3.03280   3.03411   3.03515   3.04209
  Beta virt. eigenvalues --    3.04535   3.04857   3.04915   3.05271   3.05613
  Beta virt. eigenvalues --    3.05958   3.06326   3.06661   3.06994   3.07421
  Beta virt. eigenvalues --    3.07748   3.08545   3.08603   3.08775   3.09288
  Beta virt. eigenvalues --    3.09616   3.09871   3.10450   3.10612   3.11037
  Beta virt. eigenvalues --    3.11726   3.11847   3.12139   3.12542   3.12828
  Beta virt. eigenvalues --    3.12950   3.13237   3.13591   3.14288   3.14601
  Beta virt. eigenvalues --    3.14894   3.15330   3.15586   3.16038   3.16498
  Beta virt. eigenvalues --    3.16801   3.17039   3.17497   3.17566   3.17786
  Beta virt. eigenvalues --    3.18221   3.18381   3.18850   3.19109   3.19486
  Beta virt. eigenvalues --    3.19722   3.20073   3.20296   3.20671   3.20779
  Beta virt. eigenvalues --    3.21282   3.21529   3.21783   3.21948   3.22165
[...]
              Bcc     0.0008     0.104     0.037     0.035  0.9245 -0.3811  0.0089
 
              Baa    -0.0004     0.031     0.011     0.010  0.3789  0.8110  0.4457
    19 O(17)  Bbb    -0.0004     0.029     0.010     0.010  0.0261 -0.4908  0.8709
              Bcc     0.0008    -0.060    -0.022    -0.020  0.9251 -0.3184 -0.2071
 
              Baa    -0.0004     0.031     0.011     0.010  0.5349  0.8143 -0.2253
    20 O(17)  Bbb    -0.0002     0.012     0.004     0.004  0.0285  0.2491  0.9681
              Bcc     0.0006    -0.044    -0.016    -0.015  0.8444 -0.5243  0.1101
 
              Baa    -0.0962    -3.711    -1.324    -1.238  0.0501  0.1742  0.9834
    21 N(14)  Bbb     0.0265     1.023     0.365     0.341  0.7530  0.6402 -0.1517
              Bcc     0.0697     2.688     0.959     0.897 -0.6561  0.7482 -0.0991
 
              Baa    -0.0276    -3.697    -1.319    -1.233  0.9814 -0.1916  0.0102
    22 C(13)  Bbb    -0.0079    -1.062    -0.379    -0.354  0.1913  0.9812  0.0273
              Bcc     0.0355     4.759     1.698     1.588 -0.0152 -0.0248  0.9996
 
              Baa    -0.0722    -9.688    -3.457    -3.232  0.6207 -0.2407  0.7462
    23 C(13)  Bbb     0.0253     3.396     1.212     1.133 -0.6328  0.4082  0.6580
              Bcc     0.0469     6.292     2.245     2.099  0.4630  0.8806 -0.1010
 
              Baa    -0.0560    -7.513    -2.681    -2.506  0.9735 -0.2246  0.0442
    24 C(13)  Bbb    -0.0049    -0.659    -0.235    -0.220  0.2258  0.9739 -0.0247
              Bcc     0.0609     8.172     2.916     2.726 -0.0375  0.0340  0.9987
 
              Baa    -0.0231    -3.105    -1.108    -1.036  0.7003  0.6644 -0.2610
    25 C(13)  Bbb     0.0011     0.151     0.054     0.050  0.7115 -0.6792  0.1801
              Bcc     0.0220     2.955     1.054     0.986  0.0576  0.3118  0.9484
 
              Baa    -0.0065    -0.869    -0.310    -0.290  0.8081 -0.5874  0.0435
    26 C(13)  Bbb     0.0020     0.264     0.094     0.088  0.0530  0.1460  0.9879
              Bcc     0.0045     0.605     0.216     0.202  0.5867  0.7960 -0.1491
 
              Baa    -1.0428  -139.929   -49.930   -46.675 -0.3910  0.8675  0.3075
    27 C(13)  Bbb     0.5209    69.894    24.940    23.314  0.0179 -0.3268  0.9449
              Bcc     0.5219    70.035    24.990    23.361  0.9202  0.3749  0.1123
 
              Baa    -0.0520    -6.980    -2.491    -2.328 -0.1760  0.9839  0.0295
    28 C(13)  Bbb     0.0176     2.366     0.844     0.789 -0.5704 -0.1264  0.8116
              Bcc     0.0344     4.614     1.646     1.539  0.8023  0.1260  0.5835
 
              Baa    -0.1659    -6.400    -2.284    -2.135  0.3865 -0.3150  0.8668
    29 N(14)  Bbb     0.0687     2.650     0.946     0.884  0.8556  0.4734 -0.2095
              Bcc     0.0972     3.750     1.338     1.251 -0.3444  0.8226  0.4525
 
              Baa    -0.0232    -3.120    -1.113    -1.041  0.6784  0.7336 -0.0406
    30 C(13)  Bbb     0.0094     1.256     0.448     0.419  0.5418 -0.4622  0.7020
              Bcc     0.0139     1.863     0.665     0.622 -0.4962  0.4982  0.7110
 
              Baa    -0.0368    -4.945    -1.764    -1.649  0.8800 -0.4744 -0.0237
    31 C(13)  Bbb    -0.0104    -1.399    -0.499    -0.467  0.3605  0.6347  0.6835
              Bcc     0.0473     6.343     2.264     2.116 -0.3092 -0.6100  0.7296
 
              Baa    -0.0247    -3.312    -1.182    -1.105 -0.0045  0.0606  0.9982
    32 C(13)  Bbb    -0.0154    -2.063    -0.736    -0.688  0.9906 -0.1365  0.0127
              Bcc     0.0401     5.375     1.918     1.793  0.1371  0.9888 -0.0594
 
              Baa    -0.0351    -4.707    -1.680    -1.570  0.7967  0.6043 -0.0081
    33 C(13)  Bbb     0.0030     0.397     0.142     0.132  0.1967 -0.2466  0.9489
              Bcc     0.0321     4.310     1.538     1.438 -0.5714  0.7577  0.3154
 
              Baa    -0.0040    -0.532    -0.190    -0.177 -0.5629  0.8212 -0.0941
    34 C(13)  Bbb    -0.0017    -0.224    -0.080    -0.075  0.0445  0.1438  0.9886
              Bcc     0.0056     0.755     0.270     0.252  0.8253  0.5523 -0.1175
 
              Baa    -0.5211   -69.932   -24.954   -23.327  0.0646 -0.4422  0.8946
    35 C(13)  Bbb    -0.5171   -69.393   -24.761   -23.147 -0.4441  0.7900  0.4226
              Bcc     1.0383   139.325    49.715    46.474  0.8937  0.4246  0.1453
 
              Baa    -0.0351    -4.707    -1.679    -1.570 -0.2548  0.7585 -0.5999
    36 C(13)  Bbb    -0.0186    -2.490    -0.888    -0.831 -0.0011  0.6201  0.7845
              Bcc     0.0536     7.197     2.568     2.401  0.9670  0.2005 -0.1571
 
              Baa    -0.2741   -10.573    -3.773    -3.527 -0.1536 -0.0132  0.9880
    37 N(14)  Bbb     0.1203     4.639     1.655     1.547  0.6602  0.7426  0.1126
              Bcc     0.1539     5.934     2.117     1.979  0.7352 -0.6696  0.1053
 
              Baa    -0.0159    -2.136    -0.762    -0.712  0.7799 -0.6133  0.1247
    38 C(13)  Bbb    -0.0001    -0.017    -0.006    -0.006  0.6231  0.7797 -0.0619
              Bcc     0.0160     2.153     0.768     0.718 -0.0592  0.1260  0.9903
 
              Baa    -0.0063    -0.850    -0.303    -0.284  0.6388  0.7141  0.2862
    39 C(13)  Bbb    -0.0035    -0.473    -0.169    -0.158 -0.6837  0.6975 -0.2144
              Bcc     0.0099     1.324     0.472     0.442 -0.3527 -0.0588  0.9339
 
              Baa    -0.0071    -0.947    -0.338    -0.316  0.2691  0.5369  0.7996
    40 C(13)  Bbb     0.0017     0.224     0.080     0.075 -0.4491  0.8044 -0.3889
              Bcc     0.0054     0.723     0.258     0.241  0.8520  0.2544 -0.4576
 
              Baa    -0.0218    -2.925    -1.044    -0.976 -0.6376  0.7604 -0.1236
    41 C(13)  Bbb    -0.0024    -0.322    -0.115    -0.107  0.7696  0.6357 -0.0599
              Bcc     0.0242     3.247     1.159     1.083 -0.0331  0.1334  0.9905
 
              Baa    -0.0017    -0.227    -0.081    -0.076  0.0364  0.6172  0.7860
    42 C(13)  Bbb    -0.0004    -0.053    -0.019    -0.018 -0.2388  0.7691 -0.5928
              Bcc     0.0021     0.280     0.100     0.093  0.9704  0.1662 -0.1754
 
              Baa    -0.0012    -0.155    -0.055    -0.052  0.1174  0.5683  0.8144
    43 C(13)  Bbb    -0.0003    -0.038    -0.014    -0.013 -0.1702  0.8195 -0.5473
              Bcc     0.0014     0.193     0.069     0.064  0.9784  0.0744 -0.1930
 
              Baa    -0.0009    -0.116    -0.041    -0.039  0.0600  0.4204  0.9054
    44 C(13)  Bbb    -0.0001    -0.014    -0.005    -0.005 -0.0393  0.9073 -0.4187
              Bcc     0.0010     0.130     0.046     0.043  0.9974  0.0105 -0.0710
 
              Baa    -0.0003    -0.035    -0.012    -0.012 -0.2949  0.1272  0.9470
    45 C(13)  Bbb    -0.0002    -0.023    -0.008    -0.008 -0.2206  0.9553 -0.1970
              Bcc     0.0004     0.058     0.021     0.019  0.9297  0.2670  0.2536
 
              Baa    -0.0001     0.010     0.004     0.003  0.0501  0.1175  0.9918
    46 O(17)  Bbb     0.0000    -0.001    -0.000    -0.000 -0.1552  0.9819 -0.1085
              Bcc     0.0001    -0.009    -0.003    -0.003  0.9866  0.1485 -0.0674
 
              Baa    -0.0003     0.019     0.007     0.006 -0.0248 -0.0493  0.9985
    47 O(17)  Bbb    -0.0002     0.012     0.004     0.004 -0.1070  0.9932  0.0463
              Bcc     0.0004    -0.031    -0.011    -0.010  0.9940  0.1057  0.0299
 
              Baa    -0.0030    -1.623    -0.579    -0.541 -0.0737  0.0980  0.9925
    48 H(1)   Bbb    -0.0007    -0.376    -0.134    -0.126  0.9940  0.0875  0.0652
              Bcc     0.0037     1.999     0.713     0.667 -0.0805  0.9913 -0.1038
 
              Baa    -0.0028    -1.520    -0.542    -0.507 -0.1833  0.4550  0.8714
    49 H(1)   Bbb    -0.0000    -0.026    -0.009    -0.009 -0.2846  0.8239 -0.4900
              Bcc     0.0029     1.546     0.552     0.516  0.9410  0.3379  0.0215
 
              Baa    -0.0142    -7.560    -2.698    -2.522  0.4077  0.9124 -0.0352
    50 H(1)   Bbb     0.0065     3.459     1.234     1.154  0.6057 -0.2414  0.7582
              Bcc     0.0077     4.101     1.463     1.368  0.6833 -0.3304 -0.6511
 
              Baa    -0.0128    -6.852    -2.445    -2.286  0.1368  0.0797  0.9874
    51 H(1)   Bbb    -0.0078    -4.167    -1.487    -1.390  0.3427  0.9314 -0.1227
              Bcc     0.0207    11.019     3.932     3.675  0.9294 -0.3551 -0.1001
 
              Baa    -0.0013    -0.710    -0.253    -0.237  0.9808  0.1288  0.1461
    52 H(1)   Bbb    -0.0005    -0.273    -0.097    -0.091 -0.1722  0.2230  0.9595
              Bcc     0.0018     0.983     0.351     0.328 -0.0910  0.9663 -0.2409
 
              Baa    -0.0010    -0.556    -0.198    -0.186  0.9104  0.4126 -0.0310
    53 H(1)   Bbb    -0.0005    -0.270    -0.096    -0.090 -0.0262  0.1322  0.9909
              Bcc     0.0015     0.826     0.295     0.276 -0.4129  0.9013 -0.1312
 
              Baa    -0.0013    -0.674    -0.240    -0.225  0.9805  0.1343 -0.1433
    54 H(1)   Bbb    -0.0005    -0.264    -0.094    -0.088  0.1430  0.0123  0.9897
              Bcc     0.0018     0.938     0.335     0.313 -0.1347  0.9909  0.0071
 
              Baa    -0.0009    -0.477    -0.170    -0.159  0.5699  0.7599 -0.3128
    55 H(1)   Bbb    -0.0006    -0.330    -0.118    -0.110  0.0034  0.3784  0.9256
              Bcc     0.0015     0.807     0.288     0.269  0.8217 -0.5286  0.2131
 
              Baa    -0.0008    -0.427    -0.152    -0.142  0.2583  0.7111 -0.6539
    56 H(1)   Bbb    -0.0007    -0.379    -0.135    -0.126 -0.0260  0.6817  0.7312
              Bcc     0.0015     0.806     0.288     0.269  0.9657 -0.1719  0.1946
 
              Baa    -0.0008    -0.434    -0.155    -0.145  0.3039  0.7448  0.5941
    57 H(1)   Bbb    -0.0004    -0.238    -0.085    -0.079 -0.0171 -0.6192  0.7850
              Bcc     0.0013     0.672     0.240     0.224  0.9525 -0.2487 -0.1755
 
              Baa    -0.0007    -0.395    -0.141    -0.132  0.5304  0.8282 -0.1812
    58 H(1)   Bbb    -0.0005    -0.269    -0.096    -0.090  0.3014  0.0155  0.9534
              Bcc     0.0012     0.664     0.237     0.221  0.7924 -0.5603 -0.2414
 
              Baa    -0.0070    -3.730    -1.331    -1.244 -0.6182  0.7589  0.2048
    59 H(1)   Bbb     0.0032     1.700     0.607     0.567  0.2664 -0.0428  0.9629
              Bcc     0.0038     2.030     0.724     0.677  0.7395  0.6498 -0.1757
 
              Baa    -0.0065    -3.482    -1.242    -1.161 -0.6394  0.7131 -0.2874
    60 H(1)   Bbb     0.0028     1.497     0.534     0.499 -0.4944 -0.0950  0.8640
              Bcc     0.0037     1.985     0.708     0.662  0.5888  0.6946  0.4133
 
              Baa    -0.0038    -2.020    -0.721    -0.674  0.8180 -0.5737  0.0413
    61 H(1)   Bbb     0.0012     0.626     0.223     0.209  0.0366  0.1236  0.9917
              Bcc     0.0026     1.394     0.498     0.465  0.5740  0.8097 -0.1221
 
              Baa    -0.0788   -42.028   -14.997   -14.019  0.2896  0.1597  0.9437
    62 H(1)   Bbb    -0.0044    -2.364    -0.844    -0.789 -0.5203  0.8538  0.0152
              Bcc     0.0832    44.392    15.840    14.808  0.8034  0.4954 -0.3304
 
              Baa    -0.0253   -13.493    -4.815    -4.501 -0.5740 -0.3276  0.7504
    63 H(1)   Bbb     0.0113     6.014     2.146     2.006 -0.4371  0.8976  0.0575
              Bcc     0.0140     7.480     2.669     2.495  0.6924  0.2950  0.6584
 
              Baa    -0.0154    -8.235    -2.938    -2.747 -0.1999  0.7172 -0.6675
    64 H(1)   Bbb     0.0048     2.552     0.910     0.851  0.6914  0.5860  0.4226
              Bcc     0.0107     5.683     2.028     1.896  0.6943 -0.3771 -0.6130
 
              Baa    -0.0148    -7.921    -2.827    -2.642  0.4918  0.8656 -0.0941
    65 H(1)   Bbb     0.0037     1.951     0.696     0.651  0.5842 -0.2479  0.7728
              Bcc     0.0112     5.970     2.130     1.991  0.6456 -0.4350 -0.6276
 
              Baa    -0.0043    -2.317    -0.827    -0.773  0.1008 -0.5776  0.8100
    66 H(1)   Bbb    -0.0032    -1.692    -0.604    -0.564 -0.4318  0.7081  0.5587
              Bcc     0.0075     4.009     1.430     1.337  0.8963  0.4061  0.1781
 
              Baa    -0.0039    -2.069    -0.738    -0.690  0.1448  0.4621  0.8749
    67 H(1)   Bbb    -0.0033    -1.772    -0.632    -0.591 -0.5071  0.7939 -0.3354
              Bcc     0.0072     3.842     1.371     1.281  0.8496  0.3951 -0.3493
 
              Baa    -0.0047    -2.484    -0.886    -0.829 -0.3203  0.9473  0.0109
    68 H(1)   Bbb    -0.0006    -0.328    -0.117    -0.109  0.1031  0.0234  0.9944
              Bcc     0.0053     2.812     1.003     0.938  0.9417  0.3196 -0.1051
 
              Baa    -0.0806   -42.997   -15.343   -14.342 -0.4535  0.7906  0.4114
    69 H(1)   Bbb     0.0004     0.198     0.071     0.066  0.8173  0.5531 -0.1619
              Bcc     0.0802    42.799    15.272    14.276  0.3555 -0.2628  0.8970
 
              Baa    -0.0141    -7.520    -2.683    -2.509 -0.2732  0.7455 -0.6079
    70 H(1)   Bbb    -0.0124    -6.596    -2.354    -2.200  0.9286  0.3693  0.0355
              Bcc     0.0265    14.116     5.037     4.709 -0.2510  0.5548  0.7932
 
              Baa    -0.0121    -6.475    -2.310    -2.160  0.5060  0.6522  0.5644
    71 H(1)   Bbb    -0.0034    -1.831    -0.653    -0.611 -0.5927  0.7383 -0.3218
              Bcc     0.0156     8.306     2.964     2.771 -0.6266 -0.1717  0.7602
 
              Baa    -0.0121    -6.476    -2.311    -2.160  0.5069  0.6696  0.5429
    72 H(1)   Bbb    -0.0042    -2.256    -0.805    -0.752 -0.0883 -0.5862  0.8053
              Bcc     0.0164     8.732     3.116     2.913  0.8575 -0.4561 -0.2380
 
              Baa    -0.0014    -0.745    -0.266    -0.249 -0.0270 -0.0500  0.9984
    73 H(1)   Bbb    -0.0004    -0.198    -0.071    -0.066 -0.4079  0.9124  0.0346
              Bcc     0.0018     0.943     0.337     0.315  0.9126  0.4063  0.0450
 
              Baa    -0.0025    -1.340    -0.478    -0.447  0.1073  0.0932  0.9898
    74 H(1)   Bbb    -0.0010    -0.521    -0.186    -0.174 -0.1859  0.9799 -0.0721
              Bcc     0.0035     1.861     0.664     0.621  0.9767  0.1763 -0.1225
 
              Baa    -0.0013    -0.687    -0.245    -0.229  0.2289  0.0916  0.9691
    75 H(1)   Bbb    -0.0003    -0.176    -0.063    -0.059 -0.3583  0.9336 -0.0036
              Bcc     0.0016     0.863     0.308     0.288  0.9051  0.3464 -0.2465
 
              Baa    -0.0007    -0.389    -0.139    -0.130  0.1106 -0.1411  0.9838
    76 H(1)   Bbb    -0.0004    -0.238    -0.085    -0.079 -0.2285  0.9597  0.1634
              Bcc     0.0012     0.626     0.223     0.209  0.9672  0.2429 -0.0739
 
              Baa    -0.0006    -0.336    -0.120    -0.112 -0.1340  0.8302 -0.5412
    77 H(1)   Bbb    -0.0006    -0.332    -0.118    -0.111 -0.0648  0.5376  0.8407
              Bcc     0.0013     0.667     0.238     0.223  0.9889  0.1477 -0.0183
 
              Baa    -0.0008    -0.449    -0.160    -0.150 -0.2141 -0.2803  0.9357
    78 H(1)   Bbb    -0.0005    -0.291    -0.104    -0.097 -0.1955  0.9509  0.2401
              Bcc     0.0014     0.740     0.264     0.247  0.9571  0.1315  0.2583
 
              Baa    -0.0007    -0.370    -0.132    -0.123 -0.3035  0.1765  0.9363
    79 H(1)   Bbb    -0.0004    -0.236    -0.084    -0.079 -0.2258  0.9414 -0.2507
              Bcc     0.0011     0.606     0.216     0.202  0.9257  0.2875  0.2458
 
              Baa    -0.0044    -2.365    -0.844    -0.789  0.9156  0.1519 -0.3724
    80 H(1)   Bbb    -0.0022    -1.163    -0.415    -0.388 -0.1234  0.9874  0.0993
              Bcc     0.0066     3.528     1.259     1.177  0.3828 -0.0449  0.9228
 
              Baa    -0.0239   -12.736    -4.544    -4.248  0.6824  0.4992  0.5339
    81 H(1)   Bbb    -0.0063    -3.361    -1.199    -1.121 -0.5510  0.8313 -0.0730
              Bcc     0.0302    16.097     5.744     5.369 -0.4803 -0.2443  0.8424
 
              Baa    -0.0003    -0.174    -0.062    -0.058 -0.3708  0.0184  0.9285
    82 H(1)   Bbb    -0.0002    -0.116    -0.042    -0.039 -0.1869  0.9779 -0.0940
              Bcc     0.0005     0.290     0.104     0.097  0.9097  0.2084  0.3591
 
              Baa    -0.0003    -0.151    -0.054    -0.050  0.4871  0.8664  0.1100
    83 H(1)   Bbb    -0.0002    -0.115    -0.041    -0.038  0.1856 -0.2258  0.9563
              Bcc     0.0005     0.265     0.095     0.089  0.8534 -0.4454 -0.2707
 

 ---------------------------------------------------------------------------------

 1\1\GINC-NODE698\SP\UPBE1PBE\def2TZVP\C35H38Fe1N4O4S1(1+,2)\ZHARTOVSKA
 \10-Feb-2023\0\\# PBE1PBE/def2TZVP empiricaldispersion=GD3BJ int=(grid
 =ultrafine) geom=check guess=read scrf=(smd,solvent=Chloroform)\\7aba_
 III_D_solv\\1,2\C,0,-14.889,54.069,70.706001\S,0,-13.56687816,53.23681
 395,71.55914824\H,0,-14.71447753,54.02772584,69.65113686\H,0,-14.92941
 031,55.09074665,71.02112128\Fe,0,-12.781,51.564999,70.043999\C,0,-15.8
 43,50.682999,68.737\C,0,-12.326,53.716,67.419998\C,0,-9.747,52.481998,
 71.356003\C,0,-13.053,49.152,72.466003\N,0,-13.869,52.075001,68.365997
 \C,0,-15.15,51.650002,68.069\C,0,-15.627,52.391998,66.917999\C,0,-14.6
 39,53.238998,66.559998\C,0,-13.527,53.050999,67.460999\C,0,-14.645,54.
 251999,65.389999\C,0,-17.028,52.222,66.265999\C,0,-17.002001,51.117001
 ,65.213997\C,0,-18.334,50.995998,64.522003\O,0,-18.487,50.035999,63.72
 2\O,0,-19.242001,51.830002,64.787003\N,0,-11.304,52.825001,69.476997\C
 ,0,-11.327,53.639999,68.362999\C,0,-10.103,54.414001,68.347\C,0,-9.404
 ,54.094002,69.454002\C,0,-10.144,53.075001,70.178001\C,0,-9.761,55.442
 001,67.245003\C,0,-8.016,54.580002,69.919998\C,0,-7.736,56.070999,69.7
 5\N,0,-11.586,50.897999,71.608002\C,0,-10.422,51.490002,72.029999\C,0,
 -10.017,50.861,73.273003\C,0,-10.958,49.946999,73.593002\C,0,-11.948,4
 9.958,72.541\C,0,-8.763,51.266998,74.074997\C,0,-11.024,48.997002,74.8
 08998\C,0,-10.762,49.757999,76.116997\N,0,-14.204,50.165001,70.511002\
 C,0,-14.082,49.261002,71.561996\C,0,-15.236,48.397999,71.57\C,0,-16.11
 3001,48.882,70.422997\C,0,-15.391,49.972,69.817001\C,0,-15.519,47.2519
 99,72.560997\C,0,-17.473,48.306,69.971001\C,0,-18.58,49.112,70.639999\
 C,0,-19.937,48.653,70.149002\O,0,-20.945999,48.976002,70.82\O,0,-19.99
 9001,47.983002,69.097\H,0,-16.746,50.479,68.415001\H,0,-12.166,54.299,
 66.649002\H,0,-8.907,52.794998,71.75\H,0,-13.116,48.425999,73.121002\H
 ,0,-14.522,55.158001,65.741997\H,0,-15.501,54.198002,64.917\H,0,-13.91
 6,54.040001,64.771004\H,0,-17.289,53.056999,65.846001\H,0,-17.674999,5
 1.993999,66.953003\H,0,-16.789,50.273998,65.642998\H,0,-16.319,51.3209
 99,64.556\H,0,-8.939,55.18,66.803001\H,0,-9.648,56.318001,67.644997\H,
 0,-10.482,55.473,66.597\H,0,-7.339,54.080002,69.459\H,0,-7.551,56.466,
 70.615997\H,0,-8.51,56.502998,69.356003\H,0,-6.969,56.192001,69.168999
 \H,0,-8.166,50.506001,74.149002\H,0,-9.027,51.558998,74.961998\H,0,-8.
 308,51.992001,73.619003\H,0,-10.359,48.312,74.708\H,0,-11.533,49.67499
 9,76.698997\H,0,-10.605,50.694,75.919998\H,0,-9.983,49.384998,76.55699
 9\H,0,-16.356001,47.431,73.038002\H,0,-14.783,47.188,73.206001\H,0,-15
 .597,46.407001,72.07\H,0,-17.538,47.375999,70.237\H,0,-17.552999,48.37
 6999,69.007004\H,0,-18.465,50.051998,70.43\H,0,-18.528999,48.990002,71
 .600998\H,0,-15.8178708,53.58877419,70.93289792\H,0,-12.41558708,53.67
 322748,71.11174228\H,0,-20.83850179,49.38977186,71.67955736\H,0,-17.72
 011108,49.59236862,63.35230625\\Version=ES64L-G16RevA.03\State=2-A\HF=
 -3536.1661108\S2=2.158142\S2-1=0.\S2A=2.221101\RMSD=3.280e-09\Dipole=3
 .6996086,2.1792037,2.2201127\Quadrupole=-21.8567071,-1.7818672,23.6385
 743,8.6332451,-22.9503392,-14.5328383\PG=C01 [X(C35H38Fe1N4O4S1)]\\@


 IT MATTERS NOT HOW DEEP YOU PLOW,
 BUT HOW LONG YOU STAY IN THE FURROW.
 Job cpu time:       4 days  0 hours  5 minutes 44.1 seconds.
 Elapsed time:       1 days  0 hours 12 minutes  5.7 seconds.
 File lengths (MBytes):  RWF=   3113 Int=      0 D2E=      0 Chk=    220 Scr=      1
 Normal termination of Gaussian 16 at Fri Feb 10 20:18:30 2023.
