 Entering Gaussian System, Link 0=g16
 Input=/homes2/chemie/zhartovska/work/BioModel/Konrad/6k9j/6k9j05/6k9j05.com
 Output=/homes2/chemie/zhartovska/work/BioModel/Konrad/6k9j/6k9j05/6k9j05.log
 Initial command:
 /afs/math/software/gaussian/g16.A03/g16/l1.exe "/scratch/zhartovska_gaussian.80WR60t/Gau-1684.inp" -scrdir="/scratch/zhartovska_gaussian.80WR60t/"
 Entering Link 1 = /afs/math/software/gaussian/g16.A03/g16/l1.exe PID=      1685.
  
 Copyright (c) 1988,1990,1992,1993,1995,1998,2003,2009,2016,
            Gaussian, Inc.  All Rights Reserved.
  
 This is part of the Gaussian(R) 16 program.  It is based on
 the Gaussian(R) 09 system (copyright 2009, Gaussian, Inc.),
 the Gaussian(R) 03 system (copyright 2003, Gaussian, Inc.),
 the Gaussian(R) 98 system (copyright 1998, Gaussian, Inc.),
 the Gaussian(R) 94 system (copyright 1995, Gaussian, Inc.),
 the Gaussian 92(TM) system (copyright 1992, Gaussian, Inc.),
 the Gaussian 90(TM) system (copyright 1990, Gaussian, Inc.),
 the Gaussian 88(TM) system (copyright 1988, Gaussian, Inc.),
 the Gaussian 86(TM) system (copyright 1986, Carnegie Mellon
 University), and the Gaussian 82(TM) system (copyright 1983,
 Carnegie Mellon University). Gaussian is a federally registered
 trademark of Gaussian, Inc.
  
 This software contains proprietary and confidential information,
 including trade secrets, belonging to Gaussian, Inc.
  
 This software is provided under written license and may be
 used, copied, transmitted, or stored only in accord with that
 written license.
  
 The following legend is applicable only to US Government
 contracts under FAR:
  
                    RESTRICTED RIGHTS LEGEND
  
 Use, reproduction and disclosure by the US Government is
 subject to restrictions as set forth in subparagraphs (a)
 and (c) of the Commercial Computer Software - Restricted
 Rights clause in FAR 52.227-19.
  
 Gaussian, Inc.
 340 Quinnipiac St., Bldg. 40, Wallingford CT 06492
  
  
 ---------------------------------------------------------------
 Warning -- This program may not be used in any manner that
 competes with the business of Gaussian, Inc. or will provide
 assistance to any competitor of Gaussian, Inc.  The licensee
 of this program is prohibited from giving any competitor of
 Gaussian, Inc. access to this program.  By using this program,
 the user acknowledges that Gaussian, Inc. is engaged in the
 business of creating and licensing software in the field of
 computational chemistry and represents and warrants to the
 licensee that it is not a competitor of Gaussian, Inc. and that
 it will not use this program in any manner prohibited above.
 ---------------------------------------------------------------
  

 Cite this work as:
 Gaussian 16, Revision A.03,
 M. J. Frisch, G. W. Trucks, H. B. Schlegel, G. E. Scuseria, 
 M. A. Robb, J. R. Cheeseman, G. Scalmani, V. Barone, 
 G. A. Petersson, H. Nakatsuji, X. Li, M. Caricato, A. V. Marenich, 
 J. Bloino, B. G. Janesko, R. Gomperts, B. Mennucci, H. P. Hratchian, 
 J. V. Ortiz, A. F. Izmaylov, J. L. Sonnenberg, D. Williams-Young, 
 F. Ding, F. Lipparini, F. Egidi, J. Goings, B. Peng, A. Petrone, 
 T. Henderson, D. Ranasinghe, V. G. Zakrzewski, J. Gao, N. Rega, 
 G. Zheng, W. Liang, M. Hada, M. Ehara, K. Toyota, R. Fukuda, 
 J. Hasegawa, M. Ishida, T. Nakajima, Y. Honda, O. Kitao, H. Nakai, 
 T. Vreven, K. Throssell, J. A. Montgomery, Jr., J. E. Peralta, 
 F. Ogliaro, M. J. Bearpark, J. J. Heyd, E. N. Brothers, K. N. Kudin, 
 V. N. Staroverov, T. A. Keith, R. Kobayashi, J. Normand, 
 K. Raghavachari, A. P. Rendell, J. C. Burant, S. S. Iyengar, 
 J. Tomasi, M. Cossi, J. M. Millam, M. Klene, C. Adamo, R. Cammi, 
 J. W. Ochterski, R. L. Martin, K. Morokuma, O. Farkas, 
 J. B. Foresman, and D. J. Fox, Gaussian, Inc., Wallingford CT, 2016.
 
 ******************************************
 Gaussian 16:  ES64L-G16RevA.03 25-Dec-2016
                 2-Feb-2023 
 ******************************************
 %nprocs=12
 Will use up to   12 processors via shared memory.
 %mem=16GB
 %oldchk=6k9j_II_S.chk
 %chk=6k9j_II_Q.chk
 Copying data from "6k9j_II_S.chk" to current chk file "6k9j_II_Q.chk"
 IOpt=  2 FromEx=T IUOpen= 4 IOptOp= 5 NList=   0 IFRang= 0 IUIn= 4 IUOut= 2.
 ----------------------------------------------------------------------
 # PBE1PBE/def2TZVP empiricaldispersion=GD3BJ int=(grid=ultrafine) geom
 =check pop=nbo
 ----------------------------------------------------------------------
 1/29=2,38=1,172=1/1;
 2/12=2,40=1/2;
 3/5=44,7=101,11=2,14=-4,25=1,30=1,74=-13,75=-5,124=41/1,2,3;
 4//1;
 5/5=2,38=5/2;
 6/7=2,8=2,9=2,10=2,28=1,40=1/1,7;
 99/5=1,9=1/99;
 ---------
 6k9j_II_Q
 ---------
 Structure from the checkpoint file:  "6k9j_II_Q.chk"
 Charge =  0 Multiplicity = 5
 Z-Matrix found in chk file.
 C,0,20.589,-0.269,0.293
 C,0,19.184,0.027,-0.154
 N,0,18.861,0.291,-1.449
 C,0,18.035,0.183,0.539
 C,0,17.561,0.565,-1.503
 N,0,16.995,0.506,-0.296
 C,0,11.162,0.21,-0.825
 C,0,11.833,0.485,0.537
 S,0,13.026,1.829,0.454
 C,0,12.891,2.534,2.064
 Fe,0,15.157,1.053,0.177
 C,0,14.38,1.933,-3.125
 C,0,16.539,4.117,0.61
 C,0,15.54,0.328,3.416
 C,0,14.235,-2.144,-0.506
 N,0,15.396,2.682,-1.005
 C,0,14.932,2.904,-2.293
 C,0,15.206,4.264,-2.705
 C,0,15.845,4.868,-1.672
 C,0,15.972,3.889,-0.616
 C,0,16.335,6.3,-1.57
 C,0,14.904,4.841,-4.059
 C,0,16.097,4.611,-5.004
 C,0,15.991,5.272,-6.373
 O,0,16.958,5.076,-7.149
 O,0,14.97,6.,-6.645
 N,0,15.913,2.071,1.739
 C,0,16.523,3.253,1.707
 C,0,17.009,3.553,3.011
 C,0,16.667,2.547,3.842
 C,0,15.986,1.56,2.988
 C,0,17.848,4.799,3.295
 C,0,16.792,2.441,5.307
 C,0,16.09,3.468,6.068
 N,0,14.863,-0.565,1.229
 C,0,15.077,-0.694,2.584
 C,0,14.842,-2.035,3.02
 C,0,14.53,-2.77,1.906
 C,0,14.545,-1.835,0.791
 C,0,15.057,-2.575,4.423
 C,0,14.408,-4.259,1.756
 C,0,13.481,-4.96,2.698
 N,0,14.506,0.1,-1.492
 C,0,14.145,-1.255,-1.571
 C,0,13.661,-1.575,-2.887
 C,0,13.692,-0.447,-3.631
 C,0,14.194,0.612,-2.741
 C,0,13.15,-2.949,-3.305
 C,0,13.169,-0.261,-5.035
 C,0,11.663,-0.021,-4.949
 C,0,10.9,-0.007,-6.239
 O,0,11.421,-0.261,-7.332
 O,0,9.632,0.262,-6.142
 H,0,21.27446309,0.00053323,-0.48313928
 H,0,20.80903392,0.2953711,1.17502627
 H,0,20.68319589,-1.31351579,0.50516478
 H,0,17.94733813,0.06964324,1.59936109
 H,0,17.03382884,0.80335859,-2.40309763
 H,0,10.09995605,0.28960494,-0.72191893
 H,0,11.41542886,-0.77582717,-1.15487666
 H,0,11.50531321,0.92552474,-1.54267708
 H,0,12.39234302,-0.39518324,0.77640102
 H,0,11.05416742,0.81822998,1.19066474
 H,0,13.81162816,3.01485366,2.321145
 H,0,12.09843548,3.25278711,2.07330395
 H,0,12.68099137,1.76229422,2.77482105
 H,0,14.08367617,2.22036105,-4.11217568
 H,0,17.04491461,5.0508154,0.74015075
 H,0,15.54918318,0.1395458,4.46923344
 H,0,14.04244763,-3.17412939,-0.72200238
 H,0,17.33708907,6.30821743,-1.1949667
 H,0,16.31289183,6.75437326,-2.53848137
 H,0,15.70064754,6.84749078,-0.90460478
 H,0,14.81447239,5.89929982,-3.92905272
 H,0,14.08442527,4.27955706,-4.45646582
 H,0,16.10955047,3.55844806,-5.19603357
 H,0,16.93298816,5.07767466,-4.5262568
 H,0,18.30309674,4.11549298,3.98100664
 H,0,16.87321544,5.2396924,3.27297117
 H,0,17.91554151,5.42828044,4.15775389
 H,0,16.69990515,3.78321587,6.88870376
 H,0,15.88559498,4.30493482,5.43344607
 H,0,15.1694225,3.06938843,6.44021752
 H,0,15.99587272,-3.08622903,4.46841912
 H,0,15.05834687,-1.76401277,5.12099563
 H,0,14.26826574,-3.25523296,4.66811505
 H,0,13.91084125,-5.89478086,2.99180476
 H,0,13.32508992,-4.35123781,3.56402578
 H,0,12.54405231,-5.13535628,2.21191441
 H,0,13.74470405,-3.31991796,-4.11348436
 H,0,13.21632083,-3.62170083,-2.47555733
 H,0,12.13029055,-2.86982854,-3.61936369
 H,0,13.31085766,-1.18867271,-5.54900364
 H,0,13.60906955,0.63580218,-5.41838576
 H,0,11.5598991,0.96757602,-4.55278331
 H,0,11.27736258,-0.85812279,-4.4054844
 H,0,19.49151881,0.28075692,-2.22510638
 H,0,17.85787242,5.15789243,-6.82477284
 H,0,9.3466566,1.12426594,-5.83107139
 H,0,14.95832778,-4.79369883,1.01025441
 H,0,17.35797588,1.66512577,5.77879495
 Recover connectivity data from disk.
 Stoichiometry    C41H48FeN6O4S(5)
 Framework group  C1[X(C41H48FeN6O4S)]
 Deg. of freedom   297
 Full point group                 C1      NOp   1
 Largest Abelian subgroup         C1      NOp   1
 Largest concise Abelian subgroup C1      NOp   1
                         Standard orientation:                         
 ---------------------------------------------------------------------
 Center     Atomic      Atomic             Coordinates (Angstroms)
 Number     Number       Type             X           Y           Z
 ---------------------------------------------------------------------
      1          6           0        2.618348   -1.740274    4.948203
      2          6           0        1.782700   -1.236437    3.803960
      3          7           0        0.422835   -1.210439    3.837733
      4          6           0        2.116597   -0.819644    2.563162
      5          6           0       -0.011310   -0.767685    2.661519
      6          7           0        0.999592   -0.502631    1.831755
      7          6           0       -0.879830    2.803911   -2.632089
      8          6           0        0.509754    2.133586   -2.657231
      9         16           0        0.428710    0.374790   -2.287713
     10          6           0        1.756754   -0.261194   -3.256822
     11         26           0        0.868325   -0.048439   -0.085968
     12          6           0       -2.633473   -0.182732   -0.059356
     13          6           0        0.938575   -3.405888   -0.542159
     14          6           0        4.178584    0.161681   -0.487804
     15          6           0        0.705949    3.200550    0.891317
     16          7           0       -0.548895   -1.485201   -0.273287
     17          6           0       -1.927791   -1.350831   -0.337431
     18          6           0       -2.550497   -2.626175   -0.620549
     19          6           0       -1.552173   -3.539263   -0.719770
     20          6           0       -0.307421   -2.838321   -0.498457
     21          6           0       -1.652639   -5.021194   -1.027856
     22          6           0       -4.030329   -2.874243   -0.698074
     23          6           0       -4.574498   -3.234339    0.695980
     24          6           0       -6.038536   -3.654562    0.744193
     25          8           0       -6.486940   -3.937627    1.881949
     26          8           0       -6.709928   -3.729412   -0.346696
     27          7           0        2.302503   -1.409597   -0.457571
     28          6           0        2.160980   -2.731682   -0.505618
     29          6           0        3.444445   -3.323799   -0.675108
     30          6           0        4.366737   -2.342430   -0.751612
     31          6           0        3.611878   -1.092471   -0.564430
     32          6           0        3.643458   -4.839533   -0.669043
     33          6           0        5.802704   -2.411742   -1.077618
     34          6           0        6.118050   -2.973822   -2.385776
     35          7           0        2.146880    1.415845    0.093574
     36          6           0        3.506301    1.327214   -0.112776
     37          6           0        4.157087    2.564602    0.185470
     38          6           0        3.192572    3.425415    0.640747
     39          6           0        1.937173    2.692324    0.575747
     40          6           0        5.653331    2.822965    0.158287
     41          6           0        3.351691    4.768574    1.292750
     42          6           0        4.165830    5.785398    0.556992
     43          7           0       -0.655153    1.209850    0.375870
     44          6           0       -0.518119    2.557817    0.745726
     45          6           0       -1.807961    3.166738    0.930214
     46          6           0       -2.752437    2.236650    0.666053
     47          6           0       -2.024014    1.015600    0.286553
     48          6           0       -2.023560    4.630558    1.296914
     49          6           0       -4.247347    2.439800    0.608473
     50          6           0       -4.593006    3.009123   -0.766090
     51          6           0       -6.001717    3.475858   -0.976223
     52          8           0       -6.846742    3.493727   -0.072774
     53          8           0       -6.284431    3.896517   -2.173183
     54          1           0        1.996574   -2.274728    5.635703
     55          1           0        3.379228   -2.392865    4.573922
     56          1           0        3.073827   -0.911721    5.449141
     57          1           0        3.119912   -0.746339    2.198628
     58          1           0       -1.043732   -0.639729    2.411255
     59          1           0       -1.063663    3.279127   -3.572980
     60          1           0       -0.909025    3.535123   -1.851463
     61          1           0       -1.630404    2.062316   -2.454390
     62          1           0        1.069744    2.579376   -1.861880
     63          1           0        0.858972    2.210102   -3.665741
     64          1           0        2.120679   -1.164696   -2.813941
     65          1           0        1.409308   -0.464692   -4.248169
     66          1           0        2.546399    0.459762   -3.296605
     67          1           0       -3.701651   -0.210441   -0.115289
     68          1           0        0.979282   -4.472880   -0.611226
     69          1           0        5.215877    0.249378   -0.735258
     70          1           0        0.683388    4.193052    1.290481
     71          1           0       -1.052347   -5.571306   -0.333648
     72          1           0       -2.672299   -5.334553   -0.944196
     73          1           0       -1.304137   -5.203021   -2.023037
     74          1           0       -4.165118   -3.739163   -1.313415
     75          1           0       -4.483607   -1.945203   -0.974341
     76          1           0       -4.518618   -2.330444    1.265849
     77          1           0       -4.020398   -4.096236    1.004210
     78          1           0        4.555030   -4.536530   -0.197741
     79          1           0        3.283067   -4.709420   -1.668087
     80          1           0        4.333932   -5.467304   -1.192540
     81          1           0        6.973135   -3.611714   -2.303167
     82          1           0        5.283071   -3.540833   -2.741032
     83          1           0        6.329324   -2.181332   -3.072961
     84          1           0        6.042544    2.770102    1.153586
     85          1           0        6.131662    2.085136   -0.451390
     86          1           0        5.840013    3.795698   -0.246486
     87          1           0        4.757139    6.341278    1.254309
     88          1           0        4.808540    5.290598   -0.140860
     89          1           0        3.514107    6.451577    0.031291
     90          1           0       -2.556049    4.691559    2.223000
     91          1           0       -1.075537    5.116304    1.397928
     92          1           0       -2.590428    5.111306    0.527212
     93          1           0       -4.490750    3.191103    1.330413
     94          1           0       -4.698983    1.471782    0.670660
     95          1           0       -4.464591    2.193439   -1.446582
     96          1           0       -3.990137    3.887662   -0.864170
     97          1           0       -0.150374   -1.477773    4.612306
     98          1           0       -5.976270   -4.494380    2.474268
     99          1           0       -6.253566    3.288467   -2.915424
    100          1           0        2.903745    4.988200    2.239328
    101          1           0        6.560301   -2.073447   -0.401967
 ---------------------------------------------------------------------
 Rotational constants (GHZ):           0.0637196           0.0446025           0.0332156
 Standard basis: def2TZVP (5D, 7F)
 There are  2218 symmetry adapted cartesian basis functions of A   symmetry.
 There are  1951 symmetry adapted basis functions of A   symmetry.
  1951 basis functions,  3156 primitive gaussians,  2218 cartesian basis functions
   207 alpha electrons      203 beta electrons
       nuclear repulsion energy      8962.6350236285 Hartrees.
 NAtoms=  101 NActive=  101 NUniq=  101 SFac= 1.00D+00 NAtFMM=   60 NAOKFM=T Big=T
 Integral buffers will be    131072 words long.
 Raffenetti 2 integral format.
 Two-electron integral symmetry is turned on.
 Nuclear repulsion after empirical dispersion term =     8962.4835026890 Hartrees.
 One-electron integrals computed using PRISM.
   1 Symmetry operations used in ECPInt.
 ECPInt:  NShTT=  305371 NPrTT=  941867 LenC2=  223450 LenP2D=  446165.
 LDataN:  DoStor=T MaxTD1= 6 Len=  172
 NBasis=  1951 RedAO= T EigKep=  2.87D-06  NBF=  1951
 NBsUse=  1951 1.00D-06 EigRej= -1.00D+00 NBFU=  1951
 ExpMin= 4.20D-02 ExpMax= 3.01D+05 ExpMxC= 2.91D+03 IAcc=3 IRadAn=         5 AccDes= 0.00D+00
 Harris functional with IExCor= 1009 and IRadAn=       5 diagonalized for initial guess.
 HarFok:  IExCor= 1009 AccDes= 0.00D+00 IRadAn=         5 IDoV= 1 UseB2=F ITyADJ=14
 ICtDFT=  3500011 ScaDFX=  1.000000  1.000000  1.000000  1.000000
 FoFCou: FMM=F IPFlag=           0 FMFlag=      100000 FMFlg1=        2001
         NFxFlg=           0 DoJE=T BraDBF=F KetDBF=T FulRan=T
         wScrn=  0.000000 ICntrl=       500 IOpCl=  0 I1Cent=   200000004 NGrid=           0
         NMat0=    1 NMatS0=      1 NMatT0=    0 NMatD0=    1 NMtDS0=    0 NMtDT0=    0
 Petite list used in FoFCou.
 Initial guess <Sx>= 0.0000 <Sy>= 0.0000 <Sz>= 2.0000 <S**2>= 6.0000 S= 2.0000
 Requested convergence on RMS density matrix=1.00D-08 within 128 cycles.
 Requested convergence on MAX density matrix=1.00D-06.
 Requested convergence on             energy=1.00D-06.
 No special actions if energy rises.
 EnCoef did   100 forward-backward iterations
 EnCoef did     5 forward-backward iterations
 EnCoef did    17 forward-backward iterations
 EnCoef did   100 forward-backward iterations
 EnCoef did     2 forward-backward iterations
 EnCoef did     3 forward-backward iterations
 Restarting incremental Fock formation.
 Restarting incremental Fock formation.
 Restarting incremental Fock formation.
 Restarting incremental Fock formation.
 Restarting incremental Fock formation.
 SCF Done:  E(UPBE1PBE) =  -3880.35379697     A.U. after  105 cycles
            NFock=105  Conv=0.29D-08     -V/T= 2.0029
 <Sx>= 0.0000 <Sy>= 0.0000 <Sz>= 2.0000 <S**2>= 6.1132 S= 2.0225
 <L.S>= 0.000000000000E+00
 Annihilation of the first spin contaminant:
 S**2 before annihilation     6.1132,   after     6.0039
 Hyperfine terms turned off by default for NAtoms > 100.

 **********************************************************************

            Population analysis using the SCF density.

 **********************************************************************

 Orbital symmetries:
 Alpha Orbitals:
       Occupied  (A) (A) (A) (A) (A) (A) (A) (A) (A) (A) (A) (A)
                 (A) (A) (A) (A) (A) (A) (A) (A) (A) (A) (A) (A)
                 (A) (A) (A) (A) (A) (A) (A) (A) (A) (A) (A) (A)
                 (A) (A) (A) (A) (A) (A) (A) (A) (A) (A) (A) (A)
                 (A) (A) (A) (A) (A) (A) (A) (A) (A) (A) (A) (A)
                 (A) (A) (A) (A) (A) (A) (A) (A) (A) (A) (A) (A)
                 (A) (A) (A) (A) (A) (A) (A) (A) (A) (A) (A) (A)
                 (A) (A) (A) (A) (A) (A) (A) (A) (A) (A) (A) (A)
                 (A) (A) (A) (A) (A) (A) (A) (A) (A) (A) (A) (A)
                 (A) (A) (A) (A) (A) (A) (A) (A) (A) (A) (A) (A)
                 (A) (A) (A) (A) (A) (A) (A) (A) (A) (A) (A) (A)
                 (A) (A) (A) (A) (A) (A) (A) (A) (A) (A) (A) (A)
                 (A) (A) (A) (A) (A) (A) (A) (A) (A) (A) (A) (A)
                 (A) (A) (A) (A) (A) (A) (A) (A) (A) (A) (A) (A)
                 (A) (A) (A) (A) (A) (A) (A) (A) (A) (A) (A) (A)
                 (A) (A) (A) (A) (A) (A) (A) (A) (A) (A) (A) (A)
                 (A) (A) (A) (A) (A) (A) (A) (A) (A) (A) (A) (A)
                 (A) (A) (A)
       Virtual   (A) (A) (A) (A) (A) (A) (A) (A) (A) (A) (A) (A)
                 (A) (A) (A) (A) (A) (A) (A) (A) (A) (A) (A) (A)
                 (A) (A) (A) (A) (A) (A) (A) (A) (A) (A) (A) (A)
                 (A) (A) (A) (A) (A) (A) (A) (A) (A) (A) (A) (A)
                 (A) (A) (A) (A) (A) (A) (A) (A) (A) (A) (A) (A)
                 (A) (A) (A) (A) (A) (A) (A) (A) (A) (A) (A) (A)
                 (A) (A) (A) (A) (A) (A) (A) (A) (A) (A) (A) (A)
                 (A) (A) (A) (A) (A) (A) (A) (A) (A) (A) (A) (A)
                 (A) (A) (A) (A) (A) (A) (A) (A) (A) (A) (A) (A)
                 (A) (A) (A) (A) (A) (A) (A) (A) (A) (A) (A) (A)
                 (A) (A) (A) (A) (A) (A) (A) (A) (A) (A) (A) (A)
                 (A) (A) (A) (A) (A) (A) (A) (A) (A) (A) (A) (A)
                 (A) (A) (A) (A) (A) (A) (A) (A) (A) (A) (A) (A)
                 (A) (A) (A) (A) (A) (A) (A) (A) (A) (A) (A) (A)
                 (A) (A) (A) (A) (A) (A) (A) (A) (A) (A) (A) (A)
                 (A) (A) (A) (A) (A) (A) (A) (A) (A) (A) (A) (A)
                 (A) (A) (A) (A) (A) (A) (A) (A) (A) (A) (A) (A)
                 (A) (A) (A) (A) (A) (A) (A) (A) (A) (A) (A) (A)
                 (A) (A) (A) (A) (A) (A) (A) (A) (A) (A) (A) (A)
                 (A) (A) (A) (A) (A) (A) (A) (A) (A) (A) (A) (A)
                 (A) (A) (A) (A) (A) (A) (A) (A) (A) (A) (A) (A)
                 (A) (A) (A) (A) (A) (A) (A) (A) (A) (A) (A) (A)
                 (A) (A) (A) (A) (A) (A) (A) (A) (A) (A) (A) (A)
                 (A) (A) (A) (A) (A) (A) (A) (A) (A) (A) (A) (A)
                 (A) (A) (A) (A) (A) (A) (A) (A) (A) (A) (A) (A)
                 (A) (A) (A) (A) (A) (A) (A) (A) (A) (A) (A) (A)
                 (A) (A) (A) (A) (A) (A) (A) (A) (A) (A) (A) (A)
                 (A) (A) (A) (A) (A) (A) (A) (A) (A) (A) (A) (A)
                 (A) (A) (A) (A) (A) (A) (A) (A) (A) (A) (A) (A)
                 (A) (A) (A) (A) (A) (A) (A) (A) (A) (A) (A) (A)
                 (A) (A) (A) (A) (A) (A) (A) (A) (A) (A) (A) (A)
                 (A) (A) (A) (A) (A) (A) (A) (A) (A) (A) (A) (A)
                 (A) (A) (A) (A) (A) (A) (A) (A) (A) (A) (A) (A)
                 (A) (A) (A) (A) (A) (A) (A) (A) (A) (A) (A) (A)
                 (A) (A) (A) (A) (A) (A) (A) (A) (A) (A) (A) (A)
                 (A) (A) (A) (A) (A) (A) (A) (A) (A) (A) (A) (A)
                 (A) (A) (A) (A) (A) (A) (A) (A) (A) (A) (A) (A)
                 (A) (A) (A) (A) (A) (A) (A) (A) (A) (A) (A) (A)
                 (A) (A) (A) (A) (A) (A) (A) (A) (A) (A) (A) (A)
                 (A) (A) (A) (A) (A) (A) (A) (A) (A) (A) (A) (A)
                 (A) (A) (A) (A) (A) (A) (A) (A) (A) (A) (A) (A)
                 (A) (A) (A) (A) (A) (A) (A) (A) (A) (A) (A) (A)
                 (A) (A) (A) (A) (A) (A) (A) (A) (A) (A) (A) (A)
                 (A) (A) (A) (A) (A) (A) (A) (A) (A) (A) (A) (A)
                 (A) (A) (A) (A) (A) (A) (A) (A) (A) (A) (A) (A)
                 (A) (A) (A) (A) (A) (A) (A) (A) (A) (A) (A) (A)
                 (A) (A) (A) (A) (A) (A) (A) (A) (A) (A) (A) (A)
                 (A) (A) (A) (A) (A) (A) (A) (A) (A) (A) (A) (A)
                 (A) (A) (A) (A) (A) (A) (A) (A) (A) (A) (A) (A)
                 (A) (A) (A) (A) (A) (A) (A) (A) (A) (A) (A) (A)
                 (A) (A) (A) (A) (A) (A) (A) (A) (A) (A) (A) (A)
                 (A) (A) (A) (A) (A) (A) (A) (A) (A) (A) (A) (A)
                 (A) (A) (A) (A) (A) (A) (A) (A) (A) (A) (A) (A)
                 (A) (A) (A) (A) (A) (A) (A) (A) (A) (A) (A) (A)
                 (A) (A) (A) (A) (A) (A) (A) (A) (A) (A) (A) (A)
                 (A) (A) (A) (A) (A) (A) (A) (A) (A) (A) (A) (A)
                 (A) (A) (A) (A) (A) (A) (A) (A) (A) (A) (A) (A)
                 (A) (A) (A) (A) (A) (A) (A) (A) (A) (A) (A) (A)
                 (A) (A) (A) (A) (A) (A) (A) (A) (A) (A) (A) (A)
                 (A) (A) (A) (A) (A) (A) (A) (A) (A) (A) (A) (A)
                 (A) (A) (A) (A) (A) (A) (A) (A) (A) (A) (A) (A)
                 (A) (A) (A) (A) (A) (A) (A) (A) (A) (A) (A) (A)
                 (A) (A) (A) (A) (A) (A) (A) (A) (A) (A) (A) (A)
                 (A) (A) (A) (A) (A) (A) (A) (A) (A) (A) (A) (A)
                 (A) (A) (A) (A) (A) (A) (A) (A) (A) (A) (A) (A)
                 (A) (A) (A) (A) (A) (A) (A) (A) (A) (A) (A) (A)
                 (A) (A) (A) (A) (A) (A) (A) (A) (A) (A) (A) (A)
                 (A) (A) (A) (A) (A) (A) (A) (A) (A) (A) (A) (A)
                 (A) (A) (A) (A) (A) (A) (A) (A) (A) (A) (A) (A)
                 (A) (A) (A) (A) (A) (A) (A) (A) (A) (A) (A) (A)
                 (A) (A) (A) (A) (A) (A) (A) (A) (A) (A) (A) (A)
                 (A) (A) (A) (A) (A) (A) (A) (A) (A) (A) (A) (A)
                 (A) (A) (A) (A) (A) (A) (A) (A) (A) (A) (A) (A)
                 (A) (A) (A) (A) (A) (A) (A) (A) (A) (A) (A) (A)
                 (A) (A) (A) (A) (A) (A) (A) (A) (A) (A) (A) (A)
                 (A) (A) (A) (A) (A) (A) (A) (A) (A) (A) (A) (A)
                 (A) (A) (A) (A) (A) (A) (A) (A) (A) (A) (A) (A)
                 (A) (A) (A) (A) (A) (A) (A) (A) (A) (A) (A) (A)
                 (A) (A) (A) (A) (A) (A) (A) (A) (A) (A) (A) (A)
                 (A) (A) (A) (A) (A) (A) (A) (A) (A) (A) (A) (A)
                 (A) (A) (A) (A) (A) (A) (A) (A) (A) (A) (A) (A)
                 (A) (A) (A) (A) (A) (A) (A) (A) (A) (A) (A) (A)
                 (A) (A) (A) (A) (A) (A) (A) (A) (A) (A) (A) (A)
                 (A) (A) (A) (A) (A) (A) (A) (A) (A) (A) (A) (A)
                 (A) (A) (A) (A) (A) (A) (A) (A) (A) (A) (A) (A)
                 (A) (A) (A) (A) (A) (A) (A) (A) (A) (A) (A) (A)
                 (A) (A) (A) (A) (A) (A) (A) (A) (A) (A) (A) (A)
                 (A) (A) (A) (A) (A) (A) (A) (A) (A) (A) (A) (A)
                 (A) (A) (A) (A) (A) (A) (A) (A) (A) (A) (A) (A)
                 (A) (A) (A) (A) (A) (A) (A) (A) (A) (A) (A) (A)
                 (A) (A) (A) (A) (A) (A) (A) (A) (A) (A) (A) (A)
                 (A) (A) (A) (A) (A) (A) (A) (A) (A) (A) (A) (A)
                 (A) (A) (A) (A) (A) (A) (A) (A) (A) (A) (A) (A)
                 (A) (A) (A) (A) (A) (A) (A) (A) (A) (A) (A) (A)
                 (A) (A) (A) (A) (A) (A) (A) (A) (A) (A) (A) (A)
                 (A) (A) (A) (A) (A) (A) (A) (A) (A) (A) (A) (A)
                 (A) (A) (A) (A) (A) (A) (A) (A) (A) (A) (A) (A)
                 (A) (A) (A) (A) (A) (A) (A) (A) (A) (A) (A) (A)
                 (A) (A) (A) (A) (A) (A) (A) (A) (A) (A) (A) (A)
                 (A) (A) (A) (A) (A) (A) (A) (A) (A) (A) (A) (A)
                 (A) (A) (A) (A) (A) (A) (A) (A) (A) (A) (A) (A)
                 (A) (A) (A) (A) (A) (A) (A) (A) (A) (A) (A) (A)
                 (A) (A) (A) (A) (A) (A) (A) (A) (A) (A) (A) (A)
                 (A) (A) (A) (A) (A) (A) (A) (A) (A) (A) (A) (A)
                 (A) (A) (A) (A) (A) (A) (A) (A) (A) (A) (A) (A)
                 (A) (A) (A) (A) (A) (A) (A) (A) (A) (A) (A) (A)
                 (A) (A) (A) (A) (A) (A) (A) (A) (A) (A) (A) (A)
                 (A) (A) (A) (A) (A) (A) (A) (A) (A) (A) (A) (A)
                 (A) (A) (A) (A) (A) (A) (A) (A) (A) (A) (A) (A)
                 (A) (A) (A) (A) (A) (A) (A) (A) (A) (A) (A) (A)
                 (A) (A) (A) (A) (A) (A) (A) (A) (A) (A) (A) (A)
                 (A) (A) (A) (A) (A) (A) (A) (A) (A) (A) (A) (A)
                 (A) (A) (A) (A) (A) (A) (A) (A) (A) (A) (A) (A)
                 (A) (A) (A) (A) (A) (A) (A) (A) (A) (A) (A) (A)
                 (A) (A) (A) (A) (A) (A) (A) (A) (A) (A) (A) (A)
                 (A) (A) (A) (A) (A) (A) (A) (A) (A) (A) (A) (A)
                 (A) (A) (A) (A) (A) (A) (A) (A) (A) (A) (A) (A)
                 (A) (A) (A) (A) (A) (A) (A) (A) (A) (A) (A) (A)
                 (A) (A) (A) (A) (A) (A) (A) (A) (A) (A) (A) (A)
                 (A) (A) (A) (A) (A) (A) (A) (A) (A) (A) (A) (A)
                 (A) (A) (A) (A) (A) (A) (A) (A) (A) (A) (A) (A)
                 (A) (A) (A) (A) (A) (A) (A) (A) (A) (A) (A) (A)
                 (A) (A) (A) (A) (A) (A) (A) (A) (A) (A) (A) (A)
                 (A) (A) (A) (A) (A) (A) (A) (A) (A) (A) (A) (A)
                 (A) (A) (A) (A) (A) (A) (A) (A) (A) (A) (A) (A)
                 (A) (A) (A) (A) (A) (A) (A) (A) (A) (A) (A) (A)
                 (A) (A) (A) (A) (A) (A) (A) (A) (A) (A) (A) (A)
                 (A) (A) (A) (A) (A) (A) (A) (A) (A) (A) (A) (A)
                 (A) (A) (A) (A) (A) (A) (A) (A) (A) (A) (A) (A)
                 (A) (A) (A) (A) (A) (A) (A) (A) (A) (A) (A) (A)
                 (A) (A) (A) (A) (A) (A) (A) (A) (A) (A) (A) (A)
                 (A) (A) (A) (A) (A) (A) (A) (A) (A) (A) (A) (A)
                 (A) (A) (A) (A) (A) (A) (A) (A) (A) (A) (A) (A)
                 (A) (A) (A) (A) (A) (A) (A) (A) (A) (A) (A) (A)
                 (A) (A) (A) (A) (A) (A) (A) (A) (A) (A) (A) (A)
                 (A) (A) (A) (A) (A) (A) (A) (A) (A) (A) (A) (A)
                 (A) (A) (A) (A) (A) (A) (A) (A) (A) (A) (A) (A)
                 (A) (A) (A) (A) (A) (A) (A) (A) (A) (A) (A) (A)
                 (A) (A) (A) (A) (A) (A) (A) (A) (A) (A) (A) (A)
                 (A) (A) (A) (A) (A) (A) (A) (A) (A) (A) (A) (A)
                 (A) (A) (A) (A) (A) (A) (A) (A) (A) (A) (A) (A)
                 (A) (A) (A) (A) (A) (A) (A) (A) (A) (A) (A) (A)
                 (A) (A) (A) (A) (A) (A) (A) (A) (A) (A) (A) (A)
                 (A) (A) (A) (A) (A) (A) (A) (A) (A) (A) (A) (A)
                 (A) (A) (A) (A) (A) (A) (A) (A) (A) (A) (A) (A)
                 (A) (A) (A) (A)
 Beta  Orbitals:
       Occupied  (A) (A) (A) (A) (A) (A) (A) (A) (A) (A) (A) (A)
                 (A) (A) (A) (A) (A) (A) (A) (A) (A) (A) (A) (A)
                 (A) (A) (A) (A) (A) (A) (A) (A) (A) (A) (A) (A)
                 (A) (A) (A) (A) (A) (A) (A) (A) (A) (A) (A) (A)
                 (A) (A) (A) (A) (A) (A) (A) (A) (A) (A) (A) (A)
                 (A) (A) (A) (A) (A) (A) (A) (A) (A) (A) (A) (A)
                 (A) (A) (A) (A) (A) (A) (A) (A) (A) (A) (A) (A)
                 (A) (A) (A) (A) (A) (A) (A) (A) (A) (A) (A) (A)
                 (A) (A) (A) (A) (A) (A) (A) (A) (A) (A) (A) (A)
                 (A) (A) (A) (A) (A) (A) (A) (A) (A) (A) (A) (A)
                 (A) (A) (A) (A) (A) (A) (A) (A) (A) (A) (A) (A)
                 (A) (A) (A) (A) (A) (A) (A) (A) (A) (A) (A) (A)
                 (A) (A) (A) (A) (A) (A) (A) (A) (A) (A) (A) (A)
                 (A) (A) (A) (A) (A) (A) (A) (A) (A) (A) (A) (A)
                 (A) (A) (A) (A) (A) (A) (A) (A) (A) (A) (A) (A)
                 (A) (A) (A) (A) (A) (A) (A) (A) (A) (A) (A) (A)
                 (A) (A) (A) (A) (A) (A) (A) (A) (A) (A) (A)
       Virtual   (A) (A) (A) (A) (A) (A) (A) (A) (A) (A) (A) (A)
                 (A) (A) (A) (A) (A) (A) (A) (A) (A) (A) (A) (A)
                 (A) (A) (A) (A) (A) (A) (A) (A) (A) (A) (A) (A)
                 (A) (A) (A) (A) (A) (A) (A) (A) (A) (A) (A) (A)
                 (A) (A) (A) (A) (A) (A) (A) (A) (A) (A) (A) (A)
                 (A) (A) (A) (A) (A) (A) (A) (A) (A) (A) (A) (A)
                 (A) (A) (A) (A) (A) (A) (A) (A) (A) (A) (A) (A)
                 (A) (A) (A) (A) (A) (A) (A) (A) (A) (A) (A) (A)
                 (A) (A) (A) (A) (A) (A) (A) (A) (A) (A) (A) (A)
                 (A) (A) (A) (A) (A) (A) (A) (A) (A) (A) (A) (A)
                 (A) (A) (A) (A) (A) (A) (A) (A) (A) (A) (A) (A)
                 (A) (A) (A) (A) (A) (A) (A) (A) (A) (A) (A) (A)
                 (A) (A) (A) (A) (A) (A) (A) (A) (A) (A) (A) (A)
                 (A) (A) (A) (A) (A) (A) (A) (A) (A) (A) (A) (A)
                 (A) (A) (A) (A) (A) (A) (A) (A) (A) (A) (A) (A)
                 (A) (A) (A) (A) (A) (A) (A) (A) (A) (A) (A) (A)
                 (A) (A) (A) (A) (A) (A) (A) (A) (A) (A) (A) (A)
                 (A) (A) (A) (A) (A) (A) (A) (A) (A) (A) (A) (A)
                 (A) (A) (A) (A) (A) (A) (A) (A) (A) (A) (A) (A)
                 (A) (A) (A) (A) (A) (A) (A) (A) (A) (A) (A) (A)
                 (A) (A) (A) (A) (A) (A) (A) (A) (A) (A) (A) (A)
                 (A) (A) (A) (A) (A) (A) (A) (A) (A) (A) (A) (A)
                 (A) (A) (A) (A) (A) (A) (A) (A) (A) (A) (A) (A)
                 (A) (A) (A) (A) (A) (A) (A) (A) (A) (A) (A) (A)
                 (A) (A) (A) (A) (A) (A) (A) (A) (A) (A) (A) (A)
                 (A) (A) (A) (A) (A) (A) (A) (A) (A) (A) (A) (A)
                 (A) (A) (A) (A) (A) (A) (A) (A) (A) (A) (A) (A)
                 (A) (A) (A) (A) (A) (A) (A) (A) (A) (A) (A) (A)
                 (A) (A) (A) (A) (A) (A) (A) (A) (A) (A) (A) (A)
                 (A) (A) (A) (A) (A) (A) (A) (A) (A) (A) (A) (A)
                 (A) (A) (A) (A) (A) (A) (A) (A) (A) (A) (A) (A)
                 (A) (A) (A) (A) (A) (A) (A) (A) (A) (A) (A) (A)
                 (A) (A) (A) (A) (A) (A) (A) (A) (A) (A) (A) (A)
                 (A) (A) (A) (A) (A) (A) (A) (A) (A) (A) (A) (A)
                 (A) (A) (A) (A) (A) (A) (A) (A) (A) (A) (A) (A)
                 (A) (A) (A) (A) (A) (A) (A) (A) (A) (A) (A) (A)
                 (A) (A) (A) (A) (A) (A) (A) (A) (A) (A) (A) (A)
                 (A) (A) (A) (A) (A) (A) (A) (A) (A) (A) (A) (A)
                 (A) (A) (A) (A) (A) (A) (A) (A) (A) (A) (A) (A)
                 (A) (A) (A) (A) (A) (A) (A) (A) (A) (A) (A) (A)
                 (A) (A) (A) (A) (A) (A) (A) (A) (A) (A) (A) (A)
                 (A) (A) (A) (A) (A) (A) (A) (A) (A) (A) (A) (A)
                 (A) (A) (A) (A) (A) (A) (A) (A) (A) (A) (A) (A)
                 (A) (A) (A) (A) (A) (A) (A) (A) (A) (A) (A) (A)
                 (A) (A) (A) (A) (A) (A) (A) (A) (A) (A) (A) (A)
                 (A) (A) (A) (A) (A) (A) (A) (A) (A) (A) (A) (A)
                 (A) (A) (A) (A) (A) (A) (A) (A) (A) (A) (A) (A)
                 (A) (A) (A) (A) (A) (A) (A) (A) (A) (A) (A) (A)
                 (A) (A) (A) (A) (A) (A) (A) (A) (A) (A) (A) (A)
                 (A) (A) (A) (A) (A) (A) (A) (A) (A) (A) (A) (A)
                 (A) (A) (A) (A) (A) (A) (A) (A) (A) (A) (A) (A)
                 (A) (A) (A) (A) (A) (A) (A) (A) (A) (A) (A) (A)
                 (A) (A) (A) (A) (A) (A) (A) (A) (A) (A) (A) (A)
                 (A) (A) (A) (A) (A) (A) (A) (A) (A) (A) (A) (A)
                 (A) (A) (A) (A) (A) (A) (A) (A) (A) (A) (A) (A)
                 (A) (A) (A) (A) (A) (A) (A) (A) (A) (A) (A) (A)
                 (A) (A) (A) (A) (A) (A) (A) (A) (A) (A) (A) (A)
                 (A) (A) (A) (A) (A) (A) (A) (A) (A) (A) (A) (A)
                 (A) (A) (A) (A) (A) (A) (A) (A) (A) (A) (A) (A)
                 (A) (A) (A) (A) (A) (A) (A) (A) (A) (A) (A) (A)
                 (A) (A) (A) (A) (A) (A) (A) (A) (A) (A) (A) (A)
                 (A) (A) (A) (A) (A) (A) (A) (A) (A) (A) (A) (A)
                 (A) (A) (A) (A) (A) (A) (A) (A) (A) (A) (A) (A)
                 (A) (A) (A) (A) (A) (A) (A) (A) (A) (A) (A) (A)
                 (A) (A) (A) (A) (A) (A) (A) (A) (A) (A) (A) (A)
                 (A) (A) (A) (A) (A) (A) (A) (A) (A) (A) (A) (A)
                 (A) (A) (A) (A) (A) (A) (A) (A) (A) (A) (A) (A)
                 (A) (A) (A) (A) (A) (A) (A) (A) (A) (A) (A) (A)
                 (A) (A) (A) (A) (A) (A) (A) (A) (A) (A) (A) (A)
                 (A) (A) (A) (A) (A) (A) (A) (A) (A) (A) (A) (A)
                 (A) (A) (A) (A) (A) (A) (A) (A) (A) (A) (A) (A)
                 (A) (A) (A) (A) (A) (A) (A) (A) (A) (A) (A) (A)
                 (A) (A) (A) (A) (A) (A) (A) (A) (A) (A) (A) (A)
                 (A) (A) (A) (A) (A) (A) (A) (A) (A) (A) (A) (A)
                 (A) (A) (A) (A) (A) (A) (A) (A) (A) (A) (A) (A)
                 (A) (A) (A) (A) (A) (A) (A) (A) (A) (A) (A) (A)
                 (A) (A) (A) (A) (A) (A) (A) (A) (A) (A) (A) (A)
                 (A) (A) (A) (A) (A) (A) (A) (A) (A) (A) (A) (A)
                 (A) (A) (A) (A) (A) (A) (A) (A) (A) (A) (A) (A)
                 (A) (A) (A) (A) (A) (A) (A) (A) (A) (A) (A) (A)
                 (A) (A) (A) (A) (A) (A) (A) (A) (A) (A) (A) (A)
                 (A) (A) (A) (A) (A) (A) (A) (A) (A) (A) (A) (A)
                 (A) (A) (A) (A) (A) (A) (A) (A) (A) (A) (A) (A)
                 (A) (A) (A) (A) (A) (A) (A) (A) (A) (A) (A) (A)
                 (A) (A) (A) (A) (A) (A) (A) (A) (A) (A) (A) (A)
                 (A) (A) (A) (A) (A) (A) (A) (A) (A) (A) (A) (A)
                 (A) (A) (A) (A) (A) (A) (A) (A) (A) (A) (A) (A)
                 (A) (A) (A) (A) (A) (A) (A) (A) (A) (A) (A) (A)
                 (A) (A) (A) (A) (A) (A) (A) (A) (A) (A) (A) (A)
                 (A) (A) (A) (A) (A) (A) (A) (A) (A) (A) (A) (A)
                 (A) (A) (A) (A) (A) (A) (A) (A) (A) (A) (A) (A)
                 (A) (A) (A) (A) (A) (A) (A) (A) (A) (A) (A) (A)
                 (A) (A) (A) (A) (A) (A) (A) (A) (A) (A) (A) (A)
                 (A) (A) (A) (A) (A) (A) (A) (A) (A) (A) (A) (A)
                 (A) (A) (A) (A) (A) (A) (A) (A) (A) (A) (A) (A)
                 (A) (A) (A) (A) (A) (A) (A) (A) (A) (A) (A) (A)
                 (A) (A) (A) (A) (A) (A) (A) (A) (A) (A) (A) (A)
                 (A) (A) (A) (A) (A) (A) (A) (A) (A) (A) (A) (A)
                 (A) (A) (A) (A) (A) (A) (A) (A) (A) (A) (A) (A)
                 (A) (A) (A) (A) (A) (A) (A) (A) (A) (A) (A) (A)
                 (A) (A) (A) (A) (A) (A) (A) (A) (A) (A) (A) (A)
                 (A) (A) (A) (A) (A) (A) (A) (A) (A) (A) (A) (A)
                 (A) (A) (A) (A) (A) (A) (A) (A) (A) (A) (A) (A)
                 (A) (A) (A) (A) (A) (A) (A) (A) (A) (A) (A) (A)
                 (A) (A) (A) (A) (A) (A) (A) (A) (A) (A) (A) (A)
                 (A) (A) (A) (A) (A) (A) (A) (A) (A) (A) (A) (A)
                 (A) (A) (A) (A) (A) (A) (A) (A) (A) (A) (A) (A)
                 (A) (A) (A) (A) (A) (A) (A) (A) (A) (A) (A) (A)
                 (A) (A) (A) (A) (A) (A) (A) (A) (A) (A) (A) (A)
                 (A) (A) (A) (A) (A) (A) (A) (A) (A) (A) (A) (A)
                 (A) (A) (A) (A) (A) (A) (A) (A) (A) (A) (A) (A)
                 (A) (A) (A) (A) (A) (A) (A) (A) (A) (A) (A) (A)
                 (A) (A) (A) (A) (A) (A) (A) (A) (A) (A) (A) (A)
                 (A) (A) (A) (A) (A) (A) (A) (A) (A) (A) (A) (A)
                 (A) (A) (A) (A) (A) (A) (A) (A) (A) (A) (A) (A)
                 (A) (A) (A) (A) (A) (A) (A) (A) (A) (A) (A) (A)
                 (A) (A) (A) (A) (A) (A) (A) (A) (A) (A) (A) (A)
                 (A) (A) (A) (A) (A) (A) (A) (A) (A) (A) (A) (A)
                 (A) (A) (A) (A) (A) (A) (A) (A) (A) (A) (A) (A)
                 (A) (A) (A) (A) (A) (A) (A) (A) (A) (A) (A) (A)
                 (A) (A) (A) (A) (A) (A) (A) (A) (A) (A) (A) (A)
                 (A) (A) (A) (A) (A) (A) (A) (A) (A) (A) (A) (A)
                 (A) (A) (A) (A) (A) (A) (A) (A) (A) (A) (A) (A)
                 (A) (A) (A) (A) (A) (A) (A) (A) (A) (A) (A) (A)
                 (A) (A) (A) (A) (A) (A) (A) (A) (A) (A) (A) (A)
                 (A) (A) (A) (A) (A) (A) (A) (A) (A) (A) (A) (A)
                 (A) (A) (A) (A) (A) (A) (A) (A) (A) (A) (A) (A)
                 (A) (A) (A) (A) (A) (A) (A) (A) (A) (A) (A) (A)
                 (A) (A) (A) (A) (A) (A) (A) (A) (A) (A) (A) (A)
                 (A) (A) (A) (A) (A) (A) (A) (A) (A) (A) (A) (A)
                 (A) (A) (A) (A) (A) (A) (A) (A) (A) (A) (A) (A)
                 (A) (A) (A) (A) (A) (A) (A) (A) (A) (A) (A) (A)
                 (A) (A) (A) (A) (A) (A) (A) (A) (A) (A) (A) (A)
                 (A) (A) (A) (A) (A) (A) (A) (A) (A) (A) (A) (A)
                 (A) (A) (A) (A) (A) (A) (A) (A) (A) (A) (A) (A)
                 (A) (A) (A) (A) (A) (A) (A) (A) (A) (A) (A) (A)
                 (A) (A) (A) (A) (A) (A) (A) (A) (A) (A) (A) (A)
                 (A) (A) (A) (A) (A) (A) (A) (A) (A) (A) (A) (A)
                 (A) (A) (A) (A) (A) (A) (A) (A) (A) (A) (A) (A)
                 (A) (A) (A) (A) (A) (A) (A) (A) (A) (A) (A) (A)
                 (A) (A) (A) (A) (A) (A) (A) (A) (A) (A) (A) (A)
                 (A) (A) (A) (A) (A) (A) (A) (A) (A) (A) (A) (A)
                 (A) (A) (A) (A) (A) (A) (A) (A) (A) (A) (A) (A)
                 (A) (A) (A) (A) (A) (A) (A) (A) (A) (A) (A) (A)
                 (A) (A) (A) (A) (A) (A) (A) (A) (A) (A) (A) (A)
                 (A) (A) (A) (A) (A) (A) (A) (A)
 The electronic state is 5-A.
 Alpha  occ. eigenvalues -- -256.31284 -89.01155 -30.10544 -25.93827 -25.92834
 Alpha  occ. eigenvalues --  -25.91475 -19.27067 -19.24643 -19.18467 -19.18280
 Alpha  occ. eigenvalues --  -14.44924 -14.38950 -14.37569 -14.37028 -14.35983
 Alpha  occ. eigenvalues --  -14.35938 -10.35877 -10.35033 -10.27777 -10.25812
 Alpha  occ. eigenvalues --  -10.25740 -10.24451 -10.24407 -10.24340 -10.24311
 Alpha  occ. eigenvalues --  -10.24296 -10.24101 -10.24047 -10.24031 -10.23715
 Alpha  occ. eigenvalues --  -10.23634 -10.23536 -10.23230 -10.23162 -10.23029
 Alpha  occ. eigenvalues --  -10.23024 -10.22364 -10.22183 -10.22180 -10.22163
 Alpha  occ. eigenvalues --  -10.22078 -10.21858 -10.21804 -10.21670 -10.21638
 Alpha  occ. eigenvalues --  -10.21598 -10.21525 -10.21504 -10.21263 -10.21220
 Alpha  occ. eigenvalues --  -10.21185 -10.21179 -10.21090 -10.21028 -10.20711
 Alpha  occ. eigenvalues --  -10.19795 -10.18614  -7.99126  -5.92770  -5.92470
 Alpha  occ. eigenvalues --   -5.91946  -3.49422  -2.26846  -2.26684  -2.22530
 Alpha  occ. eigenvalues --   -1.17107  -1.14152  -1.06588  -1.03105  -1.01450
 Alpha  occ. eigenvalues --   -0.98967  -0.97122  -0.96337  -0.95098  -0.91512
 Alpha  occ. eigenvalues --   -0.85553  -0.84152  -0.83862  -0.83698  -0.83293
 Alpha  occ. eigenvalues --   -0.82515  -0.81624  -0.81195  -0.80854  -0.79672
 Alpha  occ. eigenvalues --   -0.78855  -0.78326  -0.77358  -0.76463  -0.75235
 Alpha  occ. eigenvalues --   -0.74289  -0.73493  -0.72817  -0.72582  -0.72031
 Alpha  occ. eigenvalues --   -0.70121  -0.69683  -0.68858  -0.66812  -0.66553
 Alpha  occ. eigenvalues --   -0.66219  -0.65514  -0.65194  -0.64470  -0.63680
 Alpha  occ. eigenvalues --   -0.63103  -0.62227  -0.59691  -0.59267  -0.57725
 Alpha  occ. eigenvalues --   -0.56592  -0.56031  -0.55199  -0.54985  -0.54182
 Alpha  occ. eigenvalues --   -0.53331  -0.52923  -0.52660  -0.52160  -0.51770
 Alpha  occ. eigenvalues --   -0.51369  -0.50800  -0.50430  -0.49807  -0.49032
 Alpha  occ. eigenvalues --   -0.48580  -0.48337  -0.48108  -0.47930  -0.47658
 Alpha  occ. eigenvalues --   -0.47122  -0.46947  -0.46149  -0.45840  -0.45754
 Alpha  occ. eigenvalues --   -0.45272  -0.45135  -0.44884  -0.44672  -0.44567
 Alpha  occ. eigenvalues --   -0.44387  -0.44202  -0.43968  -0.43841  -0.43655
 Alpha  occ. eigenvalues --   -0.43467  -0.43350  -0.43260  -0.42840  -0.42628
 Alpha  occ. eigenvalues --   -0.42517  -0.42368  -0.41962  -0.41527  -0.41082
 Alpha  occ. eigenvalues --   -0.40896  -0.40721  -0.40188  -0.39815  -0.39704
 Alpha  occ. eigenvalues --   -0.39439  -0.39362  -0.39160  -0.38890  -0.38750
 Alpha  occ. eigenvalues --   -0.38396  -0.37880  -0.37610  -0.37476  -0.37420
 Alpha  occ. eigenvalues --   -0.37239  -0.36854  -0.36801  -0.36496  -0.35882
 Alpha  occ. eigenvalues --   -0.35704  -0.35388  -0.35245  -0.34735  -0.34429
 Alpha  occ. eigenvalues --   -0.34057  -0.33139  -0.32936  -0.32742  -0.32647
 Alpha  occ. eigenvalues --   -0.32324  -0.31081  -0.30200  -0.29083  -0.28353
 Alpha  occ. eigenvalues --   -0.28102  -0.27922  -0.27631  -0.27405  -0.26738
 Alpha  occ. eigenvalues --   -0.25055  -0.24825  -0.24681  -0.23425  -0.22539
 Alpha  occ. eigenvalues --   -0.21750  -0.21329  -0.19695  -0.19107  -0.18851
 Alpha  occ. eigenvalues --   -0.17504  -0.14150
 Alpha virt. eigenvalues --   -0.07050  -0.06474  -0.01217  -0.00857  -0.00680
 Alpha virt. eigenvalues --   -0.00502   0.00034   0.01718   0.02280   0.02303
 Alpha virt. eigenvalues --    0.02409   0.03222   0.04236   0.04279   0.04596
 Alpha virt. eigenvalues --    0.04868   0.05160   0.05479   0.05628   0.06016
 Alpha virt. eigenvalues --    0.06149   0.06481   0.07078   0.07367   0.07563
 Alpha virt. eigenvalues --    0.07685   0.07862   0.08132   0.08562   0.08813
 Alpha virt. eigenvalues --    0.09091   0.09554   0.09654   0.09879   0.10252
 Alpha virt. eigenvalues --    0.10601   0.10744   0.10813   0.11044   0.11153
 Alpha virt. eigenvalues --    0.11539   0.11740   0.12030   0.12276   0.12361
 Alpha virt. eigenvalues --    0.12660   0.12837   0.13230   0.13467   0.13611
 Alpha virt. eigenvalues --    0.13698   0.13874   0.14181   0.14302   0.14616
 Alpha virt. eigenvalues --    0.14678   0.14714   0.15003   0.15218   0.15307
 Alpha virt. eigenvalues --    0.15496   0.15795   0.15940   0.16207   0.16536
 Alpha virt. eigenvalues --    0.16794   0.17094   0.17409   0.17528   0.17796
 Alpha virt. eigenvalues --    0.17951   0.18033   0.18167   0.18386   0.18547
 Alpha virt. eigenvalues --    0.18768   0.19007   0.19037   0.19421   0.19692
 Alpha virt. eigenvalues --    0.19886   0.20388   0.20609   0.20658   0.20715
 Alpha virt. eigenvalues --    0.20745   0.21186   0.21248   0.21416   0.21780
 Alpha virt. eigenvalues --    0.22106   0.22405   0.22537   0.22638   0.22850
 Alpha virt. eigenvalues --    0.22944   0.23230   0.23574   0.23861   0.24152
 Alpha virt. eigenvalues --    0.24175   0.24606   0.24700   0.24990   0.25081
 Alpha virt. eigenvalues --    0.25098   0.25283   0.25631   0.25670   0.25809
 Alpha virt. eigenvalues --    0.26101   0.26277   0.26427   0.26543   0.27009
 Alpha virt. eigenvalues --    0.27100   0.27235   0.27456   0.27827   0.27967
 Alpha virt. eigenvalues --    0.28124   0.28255   0.28318   0.28443   0.28779
 Alpha virt. eigenvalues --    0.29070   0.29252   0.29468   0.29829   0.30091
 Alpha virt. eigenvalues --    0.30148   0.30421   0.30641   0.30741   0.31191
 Alpha virt. eigenvalues --    0.31569   0.31775   0.32132   0.32235   0.32626
 Alpha virt. eigenvalues --    0.32825   0.33016   0.33254   0.33419   0.33554
 Alpha virt. eigenvalues --    0.33755   0.33798   0.34398   0.34446   0.34699
 Alpha virt. eigenvalues --    0.34850   0.35023   0.35367   0.35567   0.35772
 Alpha virt. eigenvalues --    0.35863   0.36280   0.36378   0.36753   0.36904
 Alpha virt. eigenvalues --    0.37103   0.37288   0.37350   0.37614   0.37892
 Alpha virt. eigenvalues --    0.38166   0.38249   0.38318   0.38568   0.38636
 Alpha virt. eigenvalues --    0.38937   0.39188   0.39329   0.39528   0.39731
 Alpha virt. eigenvalues --    0.40113   0.40264   0.40434   0.40618   0.40664
 Alpha virt. eigenvalues --    0.40891   0.41223   0.41305   0.41412   0.41523
 Alpha virt. eigenvalues --    0.41787   0.42104   0.42249   0.42424   0.42559
 Alpha virt. eigenvalues --    0.42757   0.43052   0.43156   0.43263   0.43550
 Alpha virt. eigenvalues --    0.43829   0.44046   0.44166   0.44297   0.44615
 Alpha virt. eigenvalues --    0.44710   0.44873   0.45070   0.45148   0.45252
 Alpha virt. eigenvalues --    0.45389   0.45598   0.45747   0.45962   0.46036
 Alpha virt. eigenvalues --    0.46314   0.46477   0.46632   0.46816   0.46999
 Alpha virt. eigenvalues --    0.47167   0.47341   0.47458   0.47596   0.47735
 Alpha virt. eigenvalues --    0.47889   0.47943   0.48030   0.48319   0.48381
 Alpha virt. eigenvalues --    0.48634   0.48814   0.49183   0.49335   0.49359
 Alpha virt. eigenvalues --    0.49478   0.49606   0.49821   0.49947   0.50229
 Alpha virt. eigenvalues --    0.50480   0.50601   0.50639   0.51035   0.51085
 Alpha virt. eigenvalues --    0.51193   0.51356   0.51378   0.51766   0.52094
 Alpha virt. eigenvalues --    0.52160   0.52338   0.52688   0.52779   0.52992
 Alpha virt. eigenvalues --    0.53154   0.53360   0.53485   0.53694   0.53811
 Alpha virt. eigenvalues --    0.53963   0.54321   0.54355   0.54470   0.54599
 Alpha virt. eigenvalues --    0.54740   0.55282   0.55359   0.55552   0.55846
 Alpha virt. eigenvalues --    0.56147   0.56234   0.56384   0.56587   0.56649
 Alpha virt. eigenvalues --    0.56830   0.56977   0.57295   0.57426   0.58025
 Alpha virt. eigenvalues --    0.58172   0.58360   0.58519   0.58767   0.58864
 Alpha virt. eigenvalues --    0.59050   0.59730   0.59958   0.60145   0.60292
 Alpha virt. eigenvalues --    0.60503   0.60698   0.61055   0.61297   0.61501
 Alpha virt. eigenvalues --    0.61787   0.62012   0.62257   0.62370   0.62594
 Alpha virt. eigenvalues --    0.62903   0.63121   0.63378   0.63649   0.63981
 Alpha virt. eigenvalues --    0.64104   0.64360   0.65116   0.65226   0.65388
 Alpha virt. eigenvalues --    0.65489   0.65777   0.65967   0.66233   0.66652
 Alpha virt. eigenvalues --    0.66760   0.67173   0.67564   0.67806   0.68169
 Alpha virt. eigenvalues --    0.68300   0.68492   0.69005   0.69179   0.69598
 Alpha virt. eigenvalues --    0.69851   0.69903   0.70278   0.70354   0.70626
 Alpha virt. eigenvalues --    0.71135   0.71193   0.71331   0.71632   0.72048
 Alpha virt. eigenvalues --    0.72268   0.72445   0.72653   0.72740   0.73540
 Alpha virt. eigenvalues --    0.74054   0.74299   0.74375   0.74534   0.75083
 Alpha virt. eigenvalues --    0.75348   0.75443   0.75810   0.76319   0.76487
 Alpha virt. eigenvalues --    0.76848   0.77262   0.77455   0.77609   0.77902
 Alpha virt. eigenvalues --    0.78270   0.78397   0.78535   0.78877   0.78917
 Alpha virt. eigenvalues --    0.79285   0.79389   0.79656   0.79951   0.80494
 Alpha virt. eigenvalues --    0.80791   0.80945   0.81241   0.81608   0.81725
 Alpha virt. eigenvalues --    0.82052   0.82213   0.82495   0.82781   0.83030
 Alpha virt. eigenvalues --    0.83121   0.83855   0.84050   0.84349   0.84596
 Alpha virt. eigenvalues --    0.84858   0.85241   0.85543   0.85582   0.85992
 Alpha virt. eigenvalues --    0.86314   0.86581   0.86932   0.87372   0.87638
 Alpha virt. eigenvalues --    0.88170   0.88342   0.88473   0.88676   0.89043
 Alpha virt. eigenvalues --    0.89304   0.89688   0.89955   0.90250   0.90395
 Alpha virt. eigenvalues --    0.90759   0.91078   0.91328   0.91742   0.91820
 Alpha virt. eigenvalues --    0.92117   0.92271   0.92681   0.93075   0.93162
 Alpha virt. eigenvalues --    0.93417   0.94123   0.94310   0.94429   0.94566
 Alpha virt. eigenvalues --    0.95144   0.95285   0.95649   0.95762   0.96058
 Alpha virt. eigenvalues --    0.96259   0.96476   0.96694   0.97131   0.97614
 Alpha virt. eigenvalues --    0.97723   0.97852   0.98118   0.98222   0.98370
 Alpha virt. eigenvalues --    0.98564   0.99060   0.99366   0.99729   1.00106
 Alpha virt. eigenvalues --    1.00374   1.00673   1.00775   1.00971   1.01220
 Alpha virt. eigenvalues --    1.01367   1.01731   1.01855   1.02177   1.02273
 Alpha virt. eigenvalues --    1.02523   1.02895   1.03237   1.03306   1.03779
 Alpha virt. eigenvalues --    1.03899   1.04385   1.04477   1.04865   1.05080
 Alpha virt. eigenvalues --    1.05310   1.05569   1.06132   1.06226   1.06467
 Alpha virt. eigenvalues --    1.06661   1.06961   1.07222   1.07602   1.07947
 Alpha virt. eigenvalues --    1.08017   1.08183   1.08686   1.08952   1.09272
 Alpha virt. eigenvalues --    1.09577   1.09865   1.10270   1.10453   1.10596
 Alpha virt. eigenvalues --    1.10928   1.11282   1.11681   1.11777   1.12162
 Alpha virt. eigenvalues --    1.12260   1.12729   1.13005   1.13144   1.13602
 Alpha virt. eigenvalues --    1.13921   1.14069   1.14244   1.14710   1.15027
 Alpha virt. eigenvalues --    1.15443   1.16101   1.16360   1.16599   1.16737
 Alpha virt. eigenvalues --    1.17130   1.17716   1.18343   1.18650   1.18813
 Alpha virt. eigenvalues --    1.18893   1.19235   1.19403   1.20038   1.20294
 Alpha virt. eigenvalues --    1.20913   1.21482   1.21744   1.21990   1.22242
 Alpha virt. eigenvalues --    1.22663   1.22884   1.22981   1.23446   1.24076
 Alpha virt. eigenvalues --    1.24562   1.24899   1.24973   1.25409   1.25857
 Alpha virt. eigenvalues --    1.26309   1.26374   1.26934   1.27282   1.27675
 Alpha virt. eigenvalues --    1.27887   1.28720   1.29064   1.29152   1.29845
 Alpha virt. eigenvalues --    1.30009   1.30191   1.30467   1.30598   1.31327
 Alpha virt. eigenvalues --    1.31542   1.31859   1.32170   1.32625   1.32933
 Alpha virt. eigenvalues --    1.33075   1.33540   1.33809   1.34124   1.34355
 Alpha virt. eigenvalues --    1.34633   1.34961   1.35444   1.35581   1.36222
 Alpha virt. eigenvalues --    1.36609   1.36880   1.37387   1.37608   1.38297
 Alpha virt. eigenvalues --    1.38393   1.38940   1.39415   1.39506   1.39844
 Alpha virt. eigenvalues --    1.40231   1.40313   1.40959   1.41287   1.41854
 Alpha virt. eigenvalues --    1.42362   1.42824   1.43114   1.43425   1.44136
 Alpha virt. eigenvalues --    1.44882   1.45283   1.45801   1.46001   1.46397
 Alpha virt. eigenvalues --    1.46711   1.47461   1.47970   1.48044   1.48414
 Alpha virt. eigenvalues --    1.48726   1.49049   1.49428   1.49569   1.49773
 Alpha virt. eigenvalues --    1.50211   1.50345   1.50930   1.51142   1.51581
 Alpha virt. eigenvalues --    1.51805   1.51989   1.52416   1.52670   1.52849
 Alpha virt. eigenvalues --    1.53180   1.53248   1.53586   1.53843   1.53996
 Alpha virt. eigenvalues --    1.54388   1.54546   1.54831   1.55007   1.55396
 Alpha virt. eigenvalues --    1.55491   1.55786   1.55912   1.56067   1.56386
 Alpha virt. eigenvalues --    1.56646   1.56949   1.57045   1.57365   1.57530
 Alpha virt. eigenvalues --    1.57760   1.57853   1.58159   1.58389   1.58635
 Alpha virt. eigenvalues --    1.58771   1.59037   1.59132   1.59460   1.59995
 Alpha virt. eigenvalues --    1.60142   1.60196   1.60797   1.60955   1.61162
 Alpha virt. eigenvalues --    1.61403   1.61866   1.62007   1.62207   1.62489
 Alpha virt. eigenvalues --    1.62670   1.62906   1.63129   1.63275   1.63560
 Alpha virt. eigenvalues --    1.63879   1.64199   1.64549   1.64705   1.65193
 Alpha virt. eigenvalues --    1.65275   1.65578   1.65751   1.65973   1.66550
 Alpha virt. eigenvalues --    1.66637   1.66993   1.67116   1.67517   1.67695
 Alpha virt. eigenvalues --    1.67929   1.68093   1.68383   1.68741   1.69173
 Alpha virt. eigenvalues --    1.69458   1.69802   1.69907   1.70417   1.70666
 Alpha virt. eigenvalues --    1.70964   1.71464   1.71533   1.71691   1.72089
 Alpha virt. eigenvalues --    1.72228   1.72714   1.72821   1.73138   1.73422
 Alpha virt. eigenvalues --    1.73890   1.74004   1.74331   1.74591   1.74717
 Alpha virt. eigenvalues --    1.75530   1.75732   1.75917   1.76118   1.76246
 Alpha virt. eigenvalues --    1.76681   1.76846   1.77309   1.77411   1.77646
 Alpha virt. eigenvalues --    1.78417   1.78686   1.78757   1.79411   1.79703
 Alpha virt. eigenvalues --    1.79837   1.80245   1.80762   1.80981   1.81293
 Alpha virt. eigenvalues --    1.81901   1.82019   1.82268   1.82682   1.83017
 Alpha virt. eigenvalues --    1.83476   1.83776   1.84011   1.84494   1.84729
 Alpha virt. eigenvalues --    1.85636   1.85818   1.86274   1.86499   1.86846
 Alpha virt. eigenvalues --    1.87355   1.87578   1.87764   1.88080   1.88409
 Alpha virt. eigenvalues --    1.88549   1.88974   1.89264   1.89662   1.90168
 Alpha virt. eigenvalues --    1.90725   1.91020   1.91427   1.91805   1.91986
 Alpha virt. eigenvalues --    1.92412   1.92809   1.93029   1.93221   1.93478
 Alpha virt. eigenvalues --    1.93744   1.94012   1.94258   1.94817   1.95070
 Alpha virt. eigenvalues --    1.95269   1.95634   1.96028   1.96226   1.96424
 Alpha virt. eigenvalues --    1.96746   1.96995   1.97600   1.97620   1.97998
 Alpha virt. eigenvalues --    1.98523   1.98732   1.99137   1.99415   1.99676
 Alpha virt. eigenvalues --    2.00281   2.00411   2.00626   2.01114   2.01325
 Alpha virt. eigenvalues --    2.01566   2.01898   2.02083   2.02532   2.02661
 Alpha virt. eigenvalues --    2.03030   2.03372   2.03835   2.04393   2.04692
 Alpha virt. eigenvalues --    2.05253   2.05721   2.06289   2.06303   2.07057
 Alpha virt. eigenvalues --    2.07247   2.07832   2.08051   2.08565   2.08671
 Alpha virt. eigenvalues --    2.09372   2.09524   2.10080   2.10832   2.10976
 Alpha virt. eigenvalues --    2.11276   2.11568   2.11828   2.12142   2.12400
 Alpha virt. eigenvalues --    2.12636   2.13010   2.13440   2.13727   2.14126
 Alpha virt. eigenvalues --    2.14473   2.14785   2.15072   2.15418   2.15504
 Alpha virt. eigenvalues --    2.15733   2.16097   2.16248   2.16949   2.17016
 Alpha virt. eigenvalues --    2.17102   2.17378   2.17792   2.18154   2.18342
 Alpha virt. eigenvalues --    2.18589   2.19047   2.19351   2.19552   2.19715
 Alpha virt. eigenvalues --    2.19917   2.20219   2.20673   2.20791   2.21196
 Alpha virt. eigenvalues --    2.21378   2.21812   2.22269   2.22536   2.22873
 Alpha virt. eigenvalues --    2.22925   2.23419   2.23838   2.24141   2.24545
 Alpha virt. eigenvalues --    2.24813   2.25445   2.25794   2.26084   2.26718
 Alpha virt. eigenvalues --    2.26786   2.27124   2.27647   2.27938   2.28271
 Alpha virt. eigenvalues --    2.28795   2.28979   2.29454   2.29722   2.30114
 Alpha virt. eigenvalues --    2.30275   2.30557   2.31018   2.31893   2.32053
 Alpha virt. eigenvalues --    2.32304   2.32589   2.32842   2.33059   2.33635
 Alpha virt. eigenvalues --    2.33908   2.34104   2.34651   2.34730   2.34827
 Alpha virt. eigenvalues --    2.35155   2.35396   2.36159   2.36527   2.36872
 Alpha virt. eigenvalues --    2.37215   2.37383   2.37745   2.38063   2.38540
 Alpha virt. eigenvalues --    2.38573   2.38751   2.39453   2.39719   2.39914
 Alpha virt. eigenvalues --    2.40164   2.40424   2.41068   2.41213   2.41343
 Alpha virt. eigenvalues --    2.41524   2.42363   2.42720   2.43168   2.43614
 Alpha virt. eigenvalues --    2.44066   2.44376   2.44550   2.45089   2.45812
 Alpha virt. eigenvalues --    2.45943   2.46163   2.46990   2.47307   2.47549
 Alpha virt. eigenvalues --    2.47811   2.48382   2.48808   2.48965   2.49514
 Alpha virt. eigenvalues --    2.49941   2.50370   2.50742   2.51378   2.51518
 Alpha virt. eigenvalues --    2.52041   2.52275   2.52372   2.52919   2.53119
 Alpha virt. eigenvalues --    2.53602   2.53974   2.54150   2.54412   2.54741
 Alpha virt. eigenvalues --    2.54999   2.55277   2.55419   2.55554   2.56281
 Alpha virt. eigenvalues --    2.56326   2.56730   2.56836   2.57601   2.57682
 Alpha virt. eigenvalues --    2.57882   2.58261   2.58318   2.59074   2.59167
 Alpha virt. eigenvalues --    2.59431   2.59715   2.59996   2.60078   2.60356
 Alpha virt. eigenvalues --    2.60700   2.60998   2.61248   2.61598   2.62266
 Alpha virt. eigenvalues --    2.62431   2.62699   2.63261   2.63495   2.63537
 Alpha virt. eigenvalues --    2.64423   2.64668   2.64828   2.65213   2.65625
 Alpha virt. eigenvalues --    2.65987   2.66304   2.66397   2.66696   2.67072
 Alpha virt. eigenvalues --    2.67380   2.67507   2.67942   2.68163   2.68585
 Alpha virt. eigenvalues --    2.68832   2.69033   2.69212   2.69526   2.69871
 Alpha virt. eigenvalues --    2.70427   2.70997   2.71238   2.71618   2.72078
 Alpha virt. eigenvalues --    2.72174   2.72416   2.72807   2.73158   2.73572
 Alpha virt. eigenvalues --    2.73725   2.73854   2.74279   2.75007   2.75189
 Alpha virt. eigenvalues --    2.75531   2.75853   2.76048   2.76356   2.76951
 Alpha virt. eigenvalues --    2.77557   2.77595   2.77856   2.78082   2.78528
 Alpha virt. eigenvalues --    2.78685   2.78766   2.79012   2.79186   2.79379
 Alpha virt. eigenvalues --    2.80214   2.80289   2.80544   2.80635   2.81206
 Alpha virt. eigenvalues --    2.81480   2.81750   2.82053   2.82510   2.82615
 Alpha virt. eigenvalues --    2.82799   2.83294   2.83627   2.83962   2.84059
 Alpha virt. eigenvalues --    2.84285   2.84934   2.85523   2.86115   2.86289
 Alpha virt. eigenvalues --    2.86549   2.86798   2.87213   2.87520   2.88132
 Alpha virt. eigenvalues --    2.88201   2.88398   2.88674   2.88958   2.89091
 Alpha virt. eigenvalues --    2.89407   2.89762   2.90332   2.90670   2.91106
 Alpha virt. eigenvalues --    2.91390   2.91713   2.92020   2.92505   2.92638
 Alpha virt. eigenvalues --    2.92905   2.93144   2.93391   2.93918   2.94052
 Alpha virt. eigenvalues --    2.94408   2.95232   2.95680   2.95740   2.96278
 Alpha virt. eigenvalues --    2.96821   2.97013   2.97139   2.97759   2.98115
 Alpha virt. eigenvalues --    2.98425   2.98784   2.99186   2.99386   2.99391
 Alpha virt. eigenvalues --    2.99734   3.00115   3.00569   3.00643   3.00786
 Alpha virt. eigenvalues --    3.01515   3.01578   3.01706   3.02275   3.02443
 Alpha virt. eigenvalues --    3.02555   3.02783   3.03479   3.03665   3.03942
 Alpha virt. eigenvalues --    3.04259   3.04565   3.04708   3.05261   3.05378
 Alpha virt. eigenvalues --    3.05868   3.06441   3.06559   3.06836   3.07068
 Alpha virt. eigenvalues --    3.07815   3.07925   3.08128   3.08162   3.08579
 Alpha virt. eigenvalues --    3.08957   3.09259   3.09331   3.09772   3.09908
 Alpha virt. eigenvalues --    3.10251   3.10786   3.10831   3.11103   3.11554
 Alpha virt. eigenvalues --    3.11642   3.11938   3.11987   3.12316   3.12564
 Alpha virt. eigenvalues --    3.12996   3.13350   3.13609   3.13775   3.13952
 Alpha virt. eigenvalues --    3.14310   3.14666   3.14711   3.14960   3.15272
 Alpha virt. eigenvalues --    3.15351   3.15523   3.15922   3.16170   3.16252
 Alpha virt. eigenvalues --    3.16529   3.16685   3.17019   3.17401   3.17819
 Alpha virt. eigenvalues --    3.17943   3.18110   3.18317   3.18809   3.19217
 Alpha virt. eigenvalues --    3.19345   3.19603   3.20130   3.20253   3.20798
 Alpha virt. eigenvalues --    3.20879   3.21029   3.21218   3.21508   3.21654
 Alpha virt. eigenvalues --    3.22068   3.22331   3.22582   3.22683   3.22851
 Alpha virt. eigenvalues --    3.23341   3.23775   3.23959   3.24160   3.24357
 Alpha virt. eigenvalues --    3.24631   3.24744   3.25079   3.25222   3.25722
 Alpha virt. eigenvalues --    3.25845   3.25918   3.26295   3.26485   3.26901
 Alpha virt. eigenvalues --    3.27065   3.27593   3.27817   3.27834   3.28355
 Alpha virt. eigenvalues --    3.28443   3.28758   3.28872   3.29532   3.29650
 Alpha virt. eigenvalues --    3.29783   3.29913   3.30314   3.30384   3.30535
 Alpha virt. eigenvalues --    3.31090   3.31430   3.31661   3.31845   3.31987
 Alpha virt. eigenvalues --    3.32355   3.32626   3.33074   3.33348   3.33416
 Alpha virt. eigenvalues --    3.33650   3.33917   3.34458   3.34580   3.34951
 Alpha virt. eigenvalues --    3.35074   3.35401   3.35506   3.35884   3.35897
 Alpha virt. eigenvalues --    3.36203   3.36497   3.36654   3.36957   3.37262
 Alpha virt. eigenvalues --    3.37436   3.37709   3.37967   3.38321   3.38423
 Alpha virt. eigenvalues --    3.38873   3.39131   3.39208   3.39517   3.39605
 Alpha virt. eigenvalues --    3.39995   3.40093   3.40470   3.40661   3.41175
 Alpha virt. eigenvalues --    3.41463   3.41518   3.41611   3.41776   3.42340
 Alpha virt. eigenvalues --    3.42621   3.42750   3.43177   3.43323   3.43790
 Alpha virt. eigenvalues --    3.43932   3.44388   3.44596   3.44955   3.45400
 Alpha virt. eigenvalues --    3.45475   3.45646   3.45926   3.46121   3.46561
 Alpha virt. eigenvalues --    3.46839   3.46950   3.47170   3.47393   3.47643
 Alpha virt. eigenvalues --    3.48114   3.48453   3.48690   3.49151   3.49329
 Alpha virt. eigenvalues --    3.49783   3.49904   3.50095   3.50468   3.50588
 Alpha virt. eigenvalues --    3.50795   3.51372   3.51541   3.51702   3.52058
 Alpha virt. eigenvalues --    3.52511   3.52665   3.53156   3.53494   3.53811
 Alpha virt. eigenvalues --    3.54141   3.54512   3.54966   3.55401   3.55722
 Alpha virt. eigenvalues --    3.56031   3.56248   3.56777   3.56988   3.57042
 Alpha virt. eigenvalues --    3.57536   3.58041   3.58202   3.58857   3.58949
 Alpha virt. eigenvalues --    3.59614   3.59774   3.59892   3.60397   3.60705
 Alpha virt. eigenvalues --    3.60745   3.61255   3.61645   3.61787   3.62108
 Alpha virt. eigenvalues --    3.62614   3.62813   3.63068   3.63153   3.63788
 Alpha virt. eigenvalues --    3.63833   3.64272   3.65031   3.65202   3.65480
 Alpha virt. eigenvalues --    3.65921   3.66292   3.66663   3.66744   3.67688
 Alpha virt. eigenvalues --    3.67996   3.68014   3.68262   3.68474   3.68931
 Alpha virt. eigenvalues --    3.69123   3.69373   3.69935   3.70454   3.70563
 Alpha virt. eigenvalues --    3.71217   3.71251   3.71386   3.72069   3.72758
 Alpha virt. eigenvalues --    3.73087   3.73274   3.73673   3.73847   3.74128
 Alpha virt. eigenvalues --    3.74217   3.74921   3.75182   3.75392   3.75798
 Alpha virt. eigenvalues --    3.76040   3.76700   3.76929   3.77511   3.77787
 Alpha virt. eigenvalues --    3.78008   3.78226   3.78716   3.78803   3.79428
 Alpha virt. eigenvalues --    3.79894   3.80219   3.80780   3.81204   3.81640
 Alpha virt. eigenvalues --    3.81871   3.82289   3.82536   3.83237   3.83707
 Alpha virt. eigenvalues --    3.84219   3.85381   3.85503   3.86214   3.86674
 Alpha virt. eigenvalues --    3.86876   3.87555   3.87809   3.88448   3.88549
 Alpha virt. eigenvalues --    3.88774   3.89277   3.89759   3.90031   3.90510
 Alpha virt. eigenvalues --    3.90775   3.91117   3.92051   3.92242   3.92621
 Alpha virt. eigenvalues --    3.93445   3.93810   3.94119   3.94508   3.95241
 Alpha virt. eigenvalues --    3.95735   3.95925   3.96338   3.96838   3.96969
 Alpha virt. eigenvalues --    3.97598   3.97629   3.98378   3.98997   3.99339
 Alpha virt. eigenvalues --    3.99399   3.99748   4.00453   4.00758   4.01747
 Alpha virt. eigenvalues --    4.02060   4.02214   4.02902   4.03395   4.03507
 Alpha virt. eigenvalues --    4.04356   4.04848   4.05403   4.06092   4.06427
 Alpha virt. eigenvalues --    4.06705   4.06874   4.07701   4.07904   4.08971
 Alpha virt. eigenvalues --    4.09257   4.09738   4.11088   4.11736   4.12249
 Alpha virt. eigenvalues --    4.12620   4.12933   4.14335   4.14757   4.15212
 Alpha virt. eigenvalues --    4.15745   4.16189   4.16585   4.16769   4.17744
 Alpha virt. eigenvalues --    4.18003   4.18588   4.19213   4.19666   4.20101
 Alpha virt. eigenvalues --    4.20647   4.20901   4.21547   4.22264   4.22697
 Alpha virt. eigenvalues --    4.23058   4.23415   4.24256   4.24527   4.25036
 Alpha virt. eigenvalues --    4.25527   4.26053   4.26170   4.26876   4.27024
 Alpha virt. eigenvalues --    4.27523   4.28427   4.28852   4.29402   4.29691
 Alpha virt. eigenvalues --    4.29864   4.30491   4.31077   4.31268   4.31632
 Alpha virt. eigenvalues --    4.32042   4.32516   4.32872   4.33553   4.33907
 Alpha virt. eigenvalues --    4.34698   4.34984   4.35212   4.36271   4.36523
 Alpha virt. eigenvalues --    4.37115   4.37868   4.38397   4.39000   4.39204
 Alpha virt. eigenvalues --    4.39365   4.39615   4.40268   4.40609   4.40955
 Alpha virt. eigenvalues --    4.41858   4.42063   4.42659   4.43397   4.43785
 Alpha virt. eigenvalues --    4.44330   4.44806   4.44988   4.45177   4.46109
 Alpha virt. eigenvalues --    4.46450   4.47367   4.47450   4.48073   4.48417
 Alpha virt. eigenvalues --    4.48837   4.49580   4.50072   4.51197   4.51814
 Alpha virt. eigenvalues --    4.52191   4.53131   4.53529   4.54049   4.54445
 Alpha virt. eigenvalues --    4.54773   4.55040   4.55790   4.56564   4.57285
 Alpha virt. eigenvalues --    4.57790   4.58391   4.58743   4.59478   4.60159
 Alpha virt. eigenvalues --    4.60918   4.61485   4.62451   4.62843   4.63966
 Alpha virt. eigenvalues --    4.64344   4.65174   4.66259   4.66402   4.67134
 Alpha virt. eigenvalues --    4.67666   4.68641   4.69241   4.69438   4.69574
 Alpha virt. eigenvalues --    4.70337   4.71352   4.72310   4.72623   4.73403
 Alpha virt. eigenvalues --    4.74117   4.74577   4.74942   4.75476   4.76001
 Alpha virt. eigenvalues --    4.76506   4.77204   4.77667   4.78551   4.78987
 Alpha virt. eigenvalues --    4.79582   4.79691   4.79965   4.81446   4.82419
 Alpha virt. eigenvalues --    4.82800   4.83662   4.84925   4.85310   4.85736
 Alpha virt. eigenvalues --    4.86425   4.86850   4.87204   4.88203   4.88852
 Alpha virt. eigenvalues --    4.90015   4.90514   4.91920   4.92386   4.93118
 Alpha virt. eigenvalues --    4.93648   4.94266   4.94687   4.95380   4.96366
 Alpha virt. eigenvalues --    4.96618   4.97475   4.97932   4.98773   4.99410
 Alpha virt. eigenvalues --    4.99666   5.00962   5.01876   5.02834   5.03318
 Alpha virt. eigenvalues --    5.03420   5.03713   5.05101   5.05825   5.06354
 Alpha virt. eigenvalues --    5.06660   5.08444   5.09519   5.09583   5.11005
 Alpha virt. eigenvalues --    5.11486   5.13139   5.14307   5.15328   5.17468
 Alpha virt. eigenvalues --    5.18420   5.19013   5.19744   5.19964   5.20341
 Alpha virt. eigenvalues --    5.20818   5.21356   5.21680   5.22004   5.22674
 Alpha virt. eigenvalues --    5.22906   5.23874   5.24681   5.25707   5.26067
 Alpha virt. eigenvalues --    5.27007   5.27508   5.28720   5.29256   5.30814
 Alpha virt. eigenvalues --    5.33104   5.34432   5.34709   5.35794   5.37434
 Alpha virt. eigenvalues --    5.37920   5.38461   5.39445   5.39799   5.41756
 Alpha virt. eigenvalues --    5.41912   5.43455   5.44248   5.45419   5.47128
 Alpha virt. eigenvalues --    5.47780   5.48349   5.48569   5.49459   5.51283
 Alpha virt. eigenvalues --    5.51999   5.52822   5.54001   5.54559   5.57721
 Alpha virt. eigenvalues --    5.58519   5.59111   5.60407   5.60792   5.61612
 Alpha virt. eigenvalues --    5.62358   5.63587   5.63696   5.64140   5.65710
 Alpha virt. eigenvalues --    5.66753   5.67654   5.69471   5.71106   5.73317
 Alpha virt. eigenvalues --    5.76349   5.76959   5.78255   5.79256   5.80399
 Alpha virt. eigenvalues --    5.83268   5.85631   5.88348   5.88870   5.92958
 Alpha virt. eigenvalues --    5.95142   5.97561   5.98379   5.98661   5.99913
 Alpha virt. eigenvalues --    6.00904   6.01865   6.03075   6.04211   6.05186
 Alpha virt. eigenvalues --    6.08867   6.11746   6.13092   6.14461   6.14685
 Alpha virt. eigenvalues --    6.15416   6.17889   6.19456   6.21955   6.22778
 Alpha virt. eigenvalues --    6.28703   6.30702   6.31526   6.32882   6.35848
 Alpha virt. eigenvalues --    6.36436   6.40941   6.44391   6.44808   6.46135
 Alpha virt. eigenvalues --    6.48280   6.51686   6.52273   6.65716   6.66194
 Alpha virt. eigenvalues --    6.71780   6.76054   6.84042   6.84898   6.92026
 Alpha virt. eigenvalues --    6.92970   6.95814   7.01885   7.09816   7.11063
 Alpha virt. eigenvalues --    7.16376   7.16931   7.24148   7.24282   9.35059
 Alpha virt. eigenvalues --    9.56135   9.67051  20.30316  22.41685  22.43515
 Alpha virt. eigenvalues --   22.50001  22.52004  22.53758  22.54965  22.55810
 Alpha virt. eigenvalues --   22.57334  22.57475  22.58626  22.62477  22.63662
 Alpha virt. eigenvalues --   22.67271  22.71438  22.75167  22.77571  22.85277
 Alpha virt. eigenvalues --   22.92615  22.93330  22.95847  22.97087  23.00790
 Alpha virt. eigenvalues --   23.05427  23.10293  23.16414  23.17572  23.24603
 Alpha virt. eigenvalues --   23.28849  23.32539  23.35757  23.41105  23.43078
 Alpha virt. eigenvalues --   23.44223  23.46744  23.48848  23.51828  23.56743
 Alpha virt. eigenvalues --   23.72142  23.76396  23.79544  23.88292  32.47399
 Alpha virt. eigenvalues --   32.88423  32.99658  33.06197  33.15561  33.20650
 Alpha virt. eigenvalues --   43.92285  43.94045  43.95876  43.98362
  Beta  occ. eigenvalues -- -256.31215 -89.01145 -30.05956 -25.90520 -25.88591
  Beta  occ. eigenvalues --  -25.87461 -19.27068 -19.24643 -19.18467 -19.18280
  Beta  occ. eigenvalues --  -14.44923 -14.38877 -14.37524 -14.37056 -14.35781
  Beta  occ. eigenvalues --  -14.35680 -10.35877 -10.35033 -10.27797 -10.25807
  Beta  occ. eigenvalues --  -10.25519 -10.24491 -10.24463 -10.24336 -10.24248
  Beta  occ. eigenvalues --  -10.24246 -10.24088 -10.24071 -10.24067 -10.23537
  Beta  occ. eigenvalues --  -10.23230 -10.23174 -10.23030 -10.23029 -10.22335
  Beta  occ. eigenvalues --  -10.22320 -10.22258 -10.22187 -10.22181 -10.22163
  Beta  occ. eigenvalues --  -10.22058 -10.21866 -10.21810 -10.21766 -10.21638
  Beta  occ. eigenvalues --  -10.21621 -10.21533 -10.21495 -10.21279 -10.21218
  Beta  occ. eigenvalues --  -10.21202 -10.21179 -10.21170 -10.20999 -10.20789
  Beta  occ. eigenvalues --  -10.19794 -10.18597  -7.99112  -5.92759  -5.92452
  Beta  occ. eigenvalues --   -5.91936  -3.38408  -2.16454  -2.13906  -2.10177
  Beta  occ. eigenvalues --   -1.17107  -1.14152  -1.06571  -1.03105  -1.01450
  Beta  occ. eigenvalues --   -0.98671  -0.96972  -0.96301  -0.94958  -0.91449
  Beta  occ. eigenvalues --   -0.84999  -0.84119  -0.83841  -0.83652  -0.83113
  Beta  occ. eigenvalues --   -0.81690  -0.81214  -0.81091  -0.80630  -0.79270
  Beta  occ. eigenvalues --   -0.78591  -0.78169  -0.76522  -0.76405  -0.75174
  Beta  occ. eigenvalues --   -0.74164  -0.73352  -0.72809  -0.72577  -0.72010
  Beta  occ. eigenvalues --   -0.70114  -0.69647  -0.68806  -0.66784  -0.66530
  Beta  occ. eigenvalues --   -0.65975  -0.65463  -0.65041  -0.64289  -0.62447
  Beta  occ. eigenvalues --   -0.62223  -0.61546  -0.59648  -0.59117  -0.57573
  Beta  occ. eigenvalues --   -0.56569  -0.55457  -0.55029  -0.54458  -0.53923
  Beta  occ. eigenvalues --   -0.53258  -0.52805  -0.52543  -0.52108  -0.51568
  Beta  occ. eigenvalues --   -0.51188  -0.50713  -0.50190  -0.49548  -0.48979
  Beta  occ. eigenvalues --   -0.48515  -0.48274  -0.48015  -0.47870  -0.47647
  Beta  occ. eigenvalues --   -0.47106  -0.46932  -0.45833  -0.45629  -0.45581
  Beta  occ. eigenvalues --   -0.45053  -0.44642  -0.44573  -0.44360  -0.44158
  Beta  occ. eigenvalues --   -0.44095  -0.43825  -0.43796  -0.43738  -0.43382
  Beta  occ. eigenvalues --   -0.43240  -0.43218  -0.43046  -0.42762  -0.42527
  Beta  occ. eigenvalues --   -0.42332  -0.42081  -0.41561  -0.41266  -0.40994
  Beta  occ. eigenvalues --   -0.40744  -0.40531  -0.39833  -0.39758  -0.39433
  Beta  occ. eigenvalues --   -0.39268  -0.39219  -0.39014  -0.38727  -0.38624
  Beta  occ. eigenvalues --   -0.38233  -0.37626  -0.37515  -0.37282  -0.37058
  Beta  occ. eigenvalues --   -0.36972  -0.36571  -0.36236  -0.36103  -0.35596
  Beta  occ. eigenvalues --   -0.35328  -0.34946  -0.34720  -0.34353  -0.34060
  Beta  occ. eigenvalues --   -0.33111  -0.32874  -0.32654  -0.32419  -0.32191
  Beta  occ. eigenvalues --   -0.31576  -0.30495  -0.29754  -0.28262  -0.28039
  Beta  occ. eigenvalues --   -0.27836  -0.27500  -0.26160  -0.25713  -0.24571
  Beta  occ. eigenvalues --   -0.23995  -0.23855  -0.22969  -0.20587  -0.18775
  Beta  occ. eigenvalues --   -0.18454  -0.17379  -0.16116
  Beta virt. eigenvalues --   -0.07457  -0.07143  -0.05052  -0.03915  -0.01215
  Beta virt. eigenvalues --   -0.00504  -0.00332   0.00092   0.00331   0.01669
  Beta virt. eigenvalues --    0.02198   0.02310   0.02487   0.03389   0.04254
  Beta virt. eigenvalues --    0.04313   0.04570   0.05061   0.05134   0.05397
  Beta virt. eigenvalues --    0.05536   0.05764   0.06187   0.06231   0.06699
  Beta virt. eigenvalues --    0.07171   0.07494   0.07669   0.07774   0.08081
  Beta virt. eigenvalues --    0.08277   0.08824   0.08906   0.09161   0.09716
  Beta virt. eigenvalues --    0.09793   0.10075   0.10149   0.10425   0.10708
  Beta virt. eigenvalues --    0.10873   0.11050   0.11198   0.11370   0.11605
  Beta virt. eigenvalues --    0.12002   0.12225   0.12407   0.12499   0.12751
  Beta virt. eigenvalues --    0.12931   0.13298   0.13647   0.13692   0.13772
  Beta virt. eigenvalues --    0.14041   0.14319   0.14432   0.14711   0.14792
  Beta virt. eigenvalues --    0.14854   0.15180   0.15307   0.15457   0.15624
  Beta virt. eigenvalues --    0.15821   0.15987   0.16263   0.16565   0.16879
  Beta virt. eigenvalues --    0.17206   0.17511   0.17593   0.17888   0.18107
  Beta virt. eigenvalues --    0.18276   0.18344   0.18540   0.18709   0.18967
  Beta virt. eigenvalues --    0.19100   0.19157   0.19600   0.19774   0.19975
  Beta virt. eigenvalues --    0.20508   0.20666   0.20780   0.20817   0.20924
  Beta virt. eigenvalues --    0.21304   0.21362   0.21513   0.21894   0.22272
  Beta virt. eigenvalues --    0.22496   0.22687   0.22897   0.22969   0.23055
  Beta virt. eigenvalues --    0.23546   0.23679   0.23956   0.24240   0.24378
  Beta virt. eigenvalues --    0.24688   0.24855   0.25126   0.25207   0.25267
  Beta virt. eigenvalues --    0.25377   0.25902   0.26046   0.26124   0.26301
  Beta virt. eigenvalues --    0.26523   0.26578   0.26650   0.27205   0.27291
  Beta virt. eigenvalues --    0.27393   0.27752   0.27995   0.28189   0.28266
  Beta virt. eigenvalues --    0.28459   0.28603   0.28652   0.29346   0.29387
  Beta virt. eigenvalues --    0.29699   0.29760   0.30110   0.30344   0.30565
  Beta virt. eigenvalues --    0.30733   0.30821   0.31048   0.31599   0.31692
  Beta virt. eigenvalues --    0.31911   0.32514   0.32616   0.32895   0.33051
  Beta virt. eigenvalues --    0.33287   0.33466   0.33639   0.33857   0.33938
  Beta virt. eigenvalues --    0.34136   0.34497   0.34824   0.34950   0.35148
  Beta virt. eigenvalues --    0.35502   0.35612   0.35749   0.35974   0.36262
  Beta virt. eigenvalues --    0.36402   0.36633   0.36938   0.37087   0.37209
  Beta virt. eigenvalues --    0.37472   0.37491   0.37712   0.38159   0.38276
  Beta virt. eigenvalues --    0.38332   0.38491   0.38767   0.38868   0.39212
  Beta virt. eigenvalues --    0.39364   0.39495   0.39715   0.39930   0.40245
  Beta virt. eigenvalues --    0.40463   0.40610   0.40854   0.40957   0.41287
  Beta virt. eigenvalues --    0.41385   0.41570   0.41632   0.41725   0.41950
  Beta virt. eigenvalues --    0.42271   0.42430   0.42590   0.42833   0.42985
  Beta virt. eigenvalues --    0.43134   0.43404   0.43601   0.43705   0.44053
  Beta virt. eigenvalues --    0.44240   0.44378   0.44475   0.44754   0.44863
  Beta virt. eigenvalues --    0.45072   0.45197   0.45341   0.45442   0.45494
  Beta virt. eigenvalues --    0.45738   0.45882   0.46074   0.46205   0.46507
  Beta virt. eigenvalues --    0.46687   0.46726   0.46941   0.47198   0.47338
  Beta virt. eigenvalues --    0.47519   0.47677   0.47805   0.47902   0.47998
  Beta virt. eigenvalues --    0.48209   0.48256   0.48435   0.48654   0.48793
  Beta virt. eigenvalues --    0.48977   0.49354   0.49490   0.49530   0.49608
  Beta virt. eigenvalues --    0.49734   0.49993   0.50184   0.50350   0.50620
  Beta virt. eigenvalues --    0.50675   0.50822   0.51188   0.51267   0.51353
  Beta virt. eigenvalues --    0.51450   0.51735   0.51830   0.52269   0.52349
  Beta virt. eigenvalues --    0.52422   0.52812   0.52855   0.53193   0.53348
  Beta virt. eigenvalues --    0.53480   0.53613   0.53828   0.53869   0.54103
  Beta virt. eigenvalues --    0.54442   0.54550   0.54648   0.54751   0.54833
  Beta virt. eigenvalues --    0.55484   0.55583   0.55740   0.55969   0.56258
  Beta virt. eigenvalues --    0.56312   0.56547   0.56683   0.56760   0.57010
  Beta virt. eigenvalues --    0.57078   0.57385   0.57726   0.58197   0.58298
  Beta virt. eigenvalues --    0.58497   0.58731   0.58847   0.58987   0.59166
  Beta virt. eigenvalues --    0.59859   0.60238   0.60351   0.60457   0.60616
  Beta virt. eigenvalues --    0.60832   0.61274   0.61390   0.61662   0.61986
  Beta virt. eigenvalues --    0.62156   0.62413   0.62541   0.62723   0.63056
  Beta virt. eigenvalues --    0.63240   0.63534   0.63791   0.64117   0.64326
  Beta virt. eigenvalues --    0.64451   0.65237   0.65330   0.65475   0.65632
  Beta virt. eigenvalues --    0.65901   0.66153   0.66454   0.66855   0.66916
  Beta virt. eigenvalues --    0.67373   0.67717   0.68094   0.68284   0.68447
  Beta virt. eigenvalues --    0.68635   0.69195   0.69281   0.69787   0.70047
  Beta virt. eigenvalues --    0.70087   0.70440   0.70515   0.70904   0.71280
  Beta virt. eigenvalues --    0.71346   0.71524   0.71762   0.72284   0.72423
  Beta virt. eigenvalues --    0.72580   0.72798   0.72935   0.73669   0.74241
  Beta virt. eigenvalues --    0.74414   0.74628   0.74923   0.75266   0.75494
  Beta virt. eigenvalues --    0.75714   0.75932   0.76456   0.76668   0.77028
  Beta virt. eigenvalues --    0.77476   0.77568   0.77775   0.77999   0.78375
  Beta virt. eigenvalues --    0.78562   0.78675   0.78981   0.79054   0.79367
[...]
  Beta virt. eigenvalues --    3.33206   3.33752   3.33979   3.34059   3.34255
  Beta virt. eigenvalues --    3.34573   3.35038   3.35254   3.35572   3.35703
  Beta virt. eigenvalues --    3.35956   3.36133   3.36376   3.36609   3.36901
  Beta virt. eigenvalues --    3.37031   3.37355   3.37522   3.37841   3.38279
  Beta virt. eigenvalues --    3.38361   3.38598   3.38903   3.39034   3.39469
  Beta virt. eigenvalues --    3.39651   3.39782   3.40042   3.40214   3.40590
  Beta virt. eigenvalues --    3.40810   3.41201   3.41245   3.41691   3.41995
  Beta virt. eigenvalues --    3.42060   3.42177   3.42325   3.43056   3.43283
  Beta virt. eigenvalues --    3.43366   3.43976   3.44132   3.44339   3.44555
  Beta virt. eigenvalues --    3.44976   3.45186   3.45508   3.45987   3.46162
  Beta virt. eigenvalues --    3.46224   3.46579   3.46841   3.47102   3.47423
  Beta virt. eigenvalues --    3.47541   3.47809   3.48058   3.48124   3.48751
  Beta virt. eigenvalues --    3.49109   3.49193   3.49687   3.50148   3.50392
  Beta virt. eigenvalues --    3.50598   3.50788   3.51079   3.51234   3.51361
  Beta virt. eigenvalues --    3.51960   3.52253   3.52354   3.52812   3.53069
  Beta virt. eigenvalues --    3.53411   3.53782   3.54032   3.54565   3.54803
  Beta virt. eigenvalues --    3.55040   3.55600   3.55960   3.56394   3.56791
  Beta virt. eigenvalues --    3.56837   3.57418   3.57593   3.57837   3.58281
  Beta virt. eigenvalues --    3.58500   3.58761   3.59380   3.59573   3.60240
  Beta virt. eigenvalues --    3.60348   3.60536   3.61105   3.61308   3.61404
  Beta virt. eigenvalues --    3.61785   3.62164   3.62437   3.62762   3.63277
  Beta virt. eigenvalues --    3.63341   3.63622   3.63707   3.64318   3.64411
  Beta virt. eigenvalues --    3.64966   3.65563   3.65975   3.66195   3.66590
  Beta virt. eigenvalues --    3.66745   3.67214   3.67466   3.68277   3.68409
  Beta virt. eigenvalues --    3.68574   3.68995   3.69167   3.69403   3.69720
  Beta virt. eigenvalues --    3.70081   3.70525   3.71050   3.71314   3.71840
  Beta virt. eigenvalues --    3.71848   3.71977   3.72642   3.73266   3.73643
  Beta virt. eigenvalues --    3.73921   3.74335   3.74521   3.74893   3.75058
  Beta virt. eigenvalues --    3.75594   3.75863   3.76092   3.76620   3.76720
  Beta virt. eigenvalues --    3.77370   3.77655   3.78265   3.78679   3.78720
  Beta virt. eigenvalues --    3.78760   3.79259   3.79477   3.79990   3.80396
  Beta virt. eigenvalues --    3.81031   3.81329   3.81800   3.82149   3.82567
  Beta virt. eigenvalues --    3.83039   3.83244   3.84090   3.84663   3.85001
  Beta virt. eigenvalues --    3.86047   3.86636   3.86813   3.87333   3.87639
  Beta virt. eigenvalues --    3.88304   3.88463   3.89043   3.89373   3.89716
  Beta virt. eigenvalues --    3.90067   3.90475   3.90961   3.91283   3.91391
  Beta virt. eigenvalues --    3.91784   3.92720   3.93163   3.93589   3.94302
  Beta virt. eigenvalues --    3.94498   3.95092   3.95397   3.95994   3.96770
  Beta virt. eigenvalues --    3.96943   3.97213   3.97716   3.98280   3.98397
  Beta virt. eigenvalues --    3.98762   3.99325   3.99797   4.00234   4.00515
  Beta virt. eigenvalues --    4.00617   4.01615   4.01698   4.02629   4.03099
  Beta virt. eigenvalues --    4.03195   4.03808   4.04320   4.04638   4.05536
  Beta virt. eigenvalues --    4.05793   4.06478   4.07088   4.07481   4.07754
  Beta virt. eigenvalues --    4.07931   4.08725   4.08947   4.10087   4.10159
  Beta virt. eigenvalues --    4.10751   4.11754   4.12436   4.13251   4.13617
  Beta virt. eigenvalues --    4.14120   4.15105   4.15785   4.16413   4.16592
  Beta virt. eigenvalues --    4.16977   4.17520   4.18561   4.18973   4.19305
  Beta virt. eigenvalues --    4.20411   4.20555   4.21017   4.21635   4.22079
  Beta virt. eigenvalues --    4.22299   4.23097   4.23313   4.23393   4.24012
  Beta virt. eigenvalues --    4.24434   4.24959   4.25236   4.25629   4.26178
  Beta virt. eigenvalues --    4.26616   4.26967   4.27608   4.27837   4.28564
  Beta virt. eigenvalues --    4.29210   4.29575   4.30299   4.30776   4.31450
  Beta virt. eigenvalues --    4.31700   4.32282   4.32473   4.32863   4.33350
  Beta virt. eigenvalues --    4.33701   4.34236   4.34886   4.35359   4.36188
  Beta virt. eigenvalues --    4.36252   4.36938   4.37834   4.37916   4.38924
  Beta virt. eigenvalues --    4.39194   4.39716   4.39956   4.40156   4.40551
  Beta virt. eigenvalues --    4.40735   4.41273   4.41964   4.42552   4.42848
  Beta virt. eigenvalues --    4.43150   4.43753   4.44145   4.44768   4.45673
  Beta virt. eigenvalues --    4.45724   4.45828   4.46738   4.47109   4.47335
  Beta virt. eigenvalues --    4.47958   4.48787   4.48998   4.49660   4.50248
  Beta virt. eigenvalues --    4.50792   4.50829   4.51840   4.52491   4.52908
  Beta virt. eigenvalues --    4.53926   4.54547   4.54948   4.55580   4.55952
  Beta virt. eigenvalues --    4.56651   4.56987   4.57775   4.58323   4.58749
  Beta virt. eigenvalues --    4.59118   4.59375   4.60085   4.60885   4.61663
  Beta virt. eigenvalues --    4.62116   4.63288   4.63658   4.64806   4.65247
  Beta virt. eigenvalues --    4.65754   4.66912   4.67245   4.67649   4.68216
  Beta virt. eigenvalues --    4.69547   4.70121   4.70182   4.70391   4.71189
  Beta virt. eigenvalues --    4.71932   4.72920   4.73259   4.74032   4.74993
  Beta virt. eigenvalues --    4.75159   4.75548   4.76501   4.76827   4.77183
  Beta virt. eigenvalues --    4.77784   4.78211   4.79343   4.79695   4.80177
  Beta virt. eigenvalues --    4.80525   4.80745   4.81986   4.83046   4.83817
  Beta virt. eigenvalues --    4.84561   4.85585   4.86055   4.86483   4.87237
  Beta virt. eigenvalues --    4.87927   4.88326   4.88856   4.89603   4.90422
  Beta virt. eigenvalues --    4.91307   4.92383   4.93623   4.93805   4.94220
  Beta virt. eigenvalues --    4.94741   4.95296   4.96013   4.96791   4.97763
  Beta virt. eigenvalues --    4.98130   4.98584   4.99292   5.00067   5.00281
  Beta virt. eigenvalues --    5.01860   5.02462   5.03315   5.03755   5.04290
  Beta virt. eigenvalues --    5.04306   5.05629   5.06264   5.06928   5.07578
  Beta virt. eigenvalues --    5.08991   5.09897   5.10221   5.11548   5.12095
  Beta virt. eigenvalues --    5.13834   5.14896   5.16117   5.17725   5.18660
  Beta virt. eigenvalues --    5.19222   5.19416   5.19711   5.20061   5.20953
  Beta virt. eigenvalues --    5.21638   5.21812   5.22305   5.22957   5.23046
  Beta virt. eigenvalues --    5.24118   5.25553   5.25759   5.26611   5.27496
  Beta virt. eigenvalues --    5.28054   5.29302   5.29968   5.31370   5.33690
  Beta virt. eigenvalues --    5.34699   5.35213   5.36320   5.37991   5.38360
  Beta virt. eigenvalues --    5.38917   5.40160   5.40429   5.42179   5.42531
  Beta virt. eigenvalues --    5.43845   5.44122   5.45734   5.47606   5.47747
  Beta virt. eigenvalues --    5.48889   5.49112   5.49867   5.51725   5.52358
  Beta virt. eigenvalues --    5.53351   5.54340   5.55102   5.57736   5.58826
  Beta virt. eigenvalues --    5.59788   5.60720   5.61233   5.62424   5.63039
  Beta virt. eigenvalues --    5.63885   5.64003   5.64237   5.66056   5.67194
  Beta virt. eigenvalues --    5.68230   5.70553   5.71696   5.74054   5.76942
  Beta virt. eigenvalues --    5.77269   5.78143   5.79336   5.80596   5.83758
  Beta virt. eigenvalues --    5.85919   5.88683   5.89274   5.92911   5.95469
  Beta virt. eigenvalues --    5.98017   5.98543   5.98779   6.00261   6.01131
  Beta virt. eigenvalues --    6.02126   6.03558   6.04627   6.05618   6.09087
  Beta virt. eigenvalues --    6.12386   6.14051   6.14453   6.14915   6.16306
  Beta virt. eigenvalues --    6.18697   6.20307   6.22253   6.22718   6.28967
  Beta virt. eigenvalues --    6.30246   6.31766   6.33125   6.35560   6.36462
  Beta virt. eigenvalues --    6.41233   6.44307   6.44667   6.46451   6.48402
  Beta virt. eigenvalues --    6.51081   6.52268   6.65933   6.66813   6.71943
  Beta virt. eigenvalues --    6.75848   6.83532   6.84151   6.92129   6.92963
  Beta virt. eigenvalues --    6.96296   7.01931   7.09695   7.10515   7.15743
  Beta virt. eigenvalues --    7.16531   7.24500   7.24809   9.35170   9.56308
  Beta virt. eigenvalues --    9.67205  20.30463  22.42487  22.44790  22.50496
  Beta virt. eigenvalues --   22.53846  22.54608  22.55915  22.56520  22.57815
  Beta virt. eigenvalues --   22.58160  22.59137  22.63454  22.64678  22.68986
  Beta virt. eigenvalues --   22.72131  22.75770  22.78154  22.86213  22.92804
  Beta virt. eigenvalues --   22.93512  22.96100  22.97320  23.01037  23.05741
  Beta virt. eigenvalues --   23.10466  23.17033  23.18093  23.24792  23.29002
  Beta virt. eigenvalues --   23.32742  23.36813  23.41260  23.43262  23.44227
  Beta virt. eigenvalues --   23.46497  23.49069  23.52039  23.56939  23.72326
  Beta virt. eigenvalues --   23.76564  23.79701  23.88421  32.48947  32.89153
  Beta virt. eigenvalues --   32.99842  33.06378  33.15845  33.21029  43.92223
  Beta virt. eigenvalues --   43.93837  43.96337  43.98355
          Condensed to atoms (all electrons):
          Atomic-Atomic Spin Densities.
 Mulliken charges and spin densities:
               1          2
     1  C   -0.395206   0.000429
     2  C    0.134154   0.002532
     3  N   -0.203476  -0.000166
     4  C   -0.245949  -0.001632
     5  C   -0.029349  -0.008349
     6  N    0.062755   0.001811
     7  C   -0.412891  -0.000442
     8  C   -0.121173  -0.002628
     9  S   -0.011227   0.007010
    10  C   -0.393159   0.000705
    11  Fe  -0.361311   2.090796
    12  C   -0.585209  -0.016263
    13  C   -0.565670   0.013430
    14  C   -0.568548   0.040985
    15  C   -0.519078  -0.012117
    16  N   -0.002894  -0.026514
    17  C    0.272250  -0.001185
    18  C    0.047273  -0.003311
    19  C   -0.114059  -0.002945
    20  C    0.283253  -0.011705
    21  C   -0.438105   0.000205
    22  C   -0.326229   0.000575
    23  C   -0.253576  -0.000293
    24  C    0.316510   0.000078
    25  O   -0.330481  -0.000007
    26  O   -0.431296  -0.000005
    27  N   -0.074008   0.077136
    28  C    0.258320  -0.025564
    29  C   -0.059120   0.098086
    30  C   -0.034466  -0.130862
    31  C    0.162660  -0.005201
    32  C   -0.793471   0.002877
    33  C   -0.299997   0.983982
    34  C   -0.337614  -0.063817
    35  N    0.039543   0.007549
    36  C    0.300892  -0.061004
    37  C   -0.090661   0.182282
    38  C   -0.036432  -0.187141
    39  C    0.170157   0.017224
    40  C   -0.383931  -0.010020
    41  C   -0.256573   0.951283
    42  C   -0.331529  -0.064462
    43  N    0.000191   0.039320
    44  C    0.288483   0.011247
    45  C   -0.134057  -0.002721
    46  C    0.033684   0.006536
    47  C    0.163846   0.004939
    48  C   -0.426549   0.000707
    49  C   -0.209094   0.001127
    50  C   -0.259330  -0.000067
    51  C    0.321755   0.000052
    52  O   -0.375626  -0.000005
    53  O   -0.394078   0.000012
    54  H    0.142517  -0.000026
    55  H    0.159836  -0.000009
    56  H    0.155183   0.000013
    57  H    0.161837   0.000705
    58  H    0.190072   0.001104
    59  H    0.139688   0.000054
    60  H    0.130442   0.000360
    61  H    0.133689  -0.000043
    62  H    0.127502   0.001246
    63  H    0.147562  -0.000368
    64  H    0.162209   0.000742
    65  H    0.161517  -0.001124
    66  H    0.153446   0.000141
    67  H    0.134561   0.000631
    68  H    0.158858  -0.000302
    69  H    0.143750  -0.000090
    70  H    0.129607   0.004471
    71  H    0.156608  -0.000216
    72  H    0.141082  -0.000022
    73  H    0.155168  -0.000307
    74  H    0.133826  -0.000147
    75  H    0.126605  -0.000144
    76  H    0.151202   0.000083
    77  H    0.156050  -0.000028
    78  H    0.268454   0.015446
    79  H    0.272376  -0.001586
    80  H    0.282485   0.005158
    81  H    0.132936   0.021325
    82  H    0.130953   0.006352
    83  H    0.146010   0.054054
    84  H    0.151237   0.008479
    85  H    0.141967   0.000711
    86  H    0.133319   0.003834
    87  H    0.132358   0.015746
    88  H    0.123028   0.006915
    89  H    0.142508   0.046233
    90  H    0.154884   0.000171
    91  H    0.138476   0.000158
    92  H    0.140559   0.000106
    93  H    0.119428   0.000237
    94  H    0.121634  -0.000103
    95  H    0.149955   0.000081
    96  H    0.148881   0.000011
    97  H    0.273521   0.000964
    98  H    0.390689  -0.000003
    99  H    0.381948  -0.000000
   100  H    0.159033  -0.046363
   101  H    0.160234  -0.049137
 Sum of Mulliken charges =  -0.00000   4.00000
 Mulliken charges and spin densities with hydrogens summed into heavy atoms:
               1          2
     1  C    0.062330   0.000407
     2  C    0.134154   0.002532
     3  N    0.070046   0.000798
     4  C   -0.084113  -0.000927
     5  C    0.160724  -0.007245
     6  N    0.062755   0.001811
     7  C   -0.009071  -0.000070
     8  C    0.153891  -0.001750
     9  S   -0.011227   0.007010
    10  C    0.084013   0.000465
    11  Fe  -0.361311   2.090796
    12  C   -0.450648  -0.015632
    13  C   -0.406812   0.013128
    14  C   -0.424798   0.040895
    15  C   -0.389471  -0.007646
    16  N   -0.002894  -0.026514
    17  C    0.272250  -0.001185
    18  C    0.047273  -0.003311
    19  C   -0.114059  -0.002945
    20  C    0.283253  -0.011705
    21  C    0.014753  -0.000340
    22  C   -0.065798   0.000284
    23  C    0.053676  -0.000239
    24  C    0.316510   0.000078
    25  O    0.060207  -0.000009
    26  O   -0.431296  -0.000005
    27  N   -0.074008   0.077136
    28  C    0.258320  -0.025564
    29  C   -0.059120   0.098086
    30  C   -0.034466  -0.130862
    31  C    0.162660  -0.005201
    32  C    0.029844   0.021895
    33  C   -0.139762   0.934845
    34  C    0.072286   0.017915
    35  N    0.039543   0.007549
    36  C    0.300892  -0.061004
    37  C   -0.090661   0.182282
    38  C   -0.036432  -0.187141
    39  C    0.170157   0.017224
    40  C    0.042593   0.003004
    41  C   -0.097539   0.904919
    42  C    0.066365   0.004432
    43  N    0.000191   0.039320
    44  C    0.288483   0.011247
    45  C   -0.134057  -0.002721
    46  C    0.033684   0.006536
    47  C    0.163846   0.004939
    48  C    0.007370   0.001142
    49  C    0.031968   0.001261
    50  C    0.039506   0.000025
    51  C    0.321755   0.000052
    52  O   -0.375626  -0.000005
    53  O   -0.012130   0.000011
 Electronic spatial extent (au):  <R**2>=          34375.2832
 Charge=              0.0000 electrons
 Dipole moment (field-independent basis, Debye):
    X=              9.0830    Y=             -1.7144    Z=              3.0464  Tot=              9.7324
 Quadrupole moment (field-independent basis, Debye-Ang):
   XX=           -373.2838   YY=           -319.5451   ZZ=           -273.9702
   XY=              9.3955   XZ=            -13.3796   YZ=            -22.4597
 Traceless Quadrupole moment (field-independent basis, Debye-Ang):
   XX=            -51.0174   YY=              2.7213   ZZ=             48.2962
   XY=              9.3955   XZ=            -13.3796   YZ=            -22.4597
 Octapole moment (field-independent basis, Debye-Ang**2):
  XXX=            850.1626  YYY=              0.5333  ZZZ=            115.5842  XYY=            104.1510
  XXY=           -102.8967  XXZ=            -16.7302  XZZ=            -69.7449  YZZ=            -69.0404
  YYZ=             41.8578  XYZ=            164.1597
 Hexadecapole moment (field-independent basis, Debye-Ang**3):
 XXXX=         -29186.3193 YYYY=         -16056.9150 ZZZZ=          -4680.0500 XXXY=            -93.7527
 XXXZ=           -143.8449 YYYX=            809.2188 YYYZ=            -54.9976 ZZZX=            114.1702
 ZZZY=           -575.7676 XXYY=          -7562.9970 XXZZ=          -4366.9542 YYZZ=          -3251.7882
 XXYZ=           -589.6144 YYXZ=           -555.5983 ZZXY=            -22.0070
 N-N= 8.962464392131D+03 E-N=-2.705407217699D+04  KE= 3.869152394421D+03
 1\1\GINC-NODE544\SP\UPBE1PBE\def2TZVP\C41H48Fe1N6O4S1(5)\ZHARTOVSKA\05
 -Feb-2023\0\\# PBE1PBE/def2TZVP empiricaldispersion=GD3BJ int=(grid=ul
 trafine) geom=check guess=read scrf=(smd,solvent=Chloroform)\\6k9j_II_
 Q_solv\\0,5\C,0,20.589,-0.269,0.293\C,0,19.184,0.027,-0.154\N,0,18.861
 ,0.291,-1.449\C,0,18.035,0.183,0.539\C,0,17.561,0.565,-1.503\N,0,16.99
 5,0.506,-0.296\C,0,11.162,0.21,-0.825\C,0,11.833,0.485,0.537\S,0,13.02
 6,1.829,0.454\C,0,12.891,2.534,2.064\Fe,0,15.157,1.053,0.177\C,0,14.38
 ,1.933,-3.125\C,0,16.539,4.117,0.61\C,0,15.54,0.328,3.416\C,0,14.235,-
 2.144,-0.506\N,0,15.396,2.682,-1.005\C,0,14.932,2.904,-2.293\C,0,15.20
 6,4.264,-2.705\C,0,15.845,4.868,-1.672\C,0,15.972,3.889,-0.616\C,0,16.
 335,6.3,-1.57\C,0,14.904,4.841,-4.059\C,0,16.097,4.611,-5.004\C,0,15.9
 91,5.272,-6.373\O,0,16.958,5.076,-7.149\O,0,14.97,6.,-6.645\N,0,15.913
 ,2.071,1.739\C,0,16.523,3.253,1.707\C,0,17.009,3.553,3.011\C,0,16.667,
 2.547,3.842\C,0,15.986,1.56,2.988\C,0,17.848,4.799,3.295\C,0,16.792,2.
 441,5.307\C,0,16.09,3.468,6.068\N,0,14.863,-0.565,1.229\C,0,15.077,-0.
 694,2.584\C,0,14.842,-2.035,3.02\C,0,14.53,-2.77,1.906\C,0,14.545,-1.8
 35,0.791\C,0,15.057,-2.575,4.423\C,0,14.408,-4.259,1.756\C,0,13.481,-4
 .96,2.698\N,0,14.506,0.1,-1.492\C,0,14.145,-1.255,-1.571\C,0,13.661,-1
 .575,-2.887\C,0,13.692,-0.447,-3.631\C,0,14.194,0.612,-2.741\C,0,13.15
 ,-2.949,-3.305\C,0,13.169,-0.261,-5.035\C,0,11.663,-0.021,-4.949\C,0,1
 0.9,-0.007,-6.239\O,0,11.421,-0.261,-7.332\O,0,9.632,0.262,-6.142\H,0,
 21.27446309,0.00053323,-0.48313928\H,0,20.80903392,0.2953711,1.1750262
 7\H,0,20.68319589,-1.31351579,0.50516478\H,0,17.94733813,0.06964324,1.
 59936109\H,0,17.03382884,0.80335859,-2.40309763\H,0,10.09995605,0.2896
 0494,-0.72191893\H,0,11.41542886,-0.77582717,-1.15487666\H,0,11.505313
 21,0.92552474,-1.54267708\H,0,12.39234302,-0.39518324,0.77640102\H,0,1
 1.05416742,0.81822998,1.19066474\H,0,13.81162816,3.01485366,2.321145\H
 ,0,12.09843548,3.25278711,2.07330395\H,0,12.68099137,1.76229422,2.7748
 2105\H,0,14.08367617,2.22036105,-4.11217568\H,0,17.04491461,5.0508154,
 0.74015075\H,0,15.54918318,0.1395458,4.46923344\H,0,14.04244763,-3.174
 12939,-0.72200238\H,0,17.33708907,6.30821743,-1.1949667\H,0,16.3128918
 3,6.75437326,-2.53848137\H,0,15.70064754,6.84749078,-0.90460478\H,0,14
 .81447239,5.89929982,-3.92905272\H,0,14.08442527,4.27955706,-4.4564658
 2\H,0,16.10955047,3.55844806,-5.19603357\H,0,16.93298816,5.07767466,-4
 .5262568\H,0,18.30309674,4.11549298,3.98100664\H,0,16.87321544,5.23969
 24,3.27297117\H,0,17.91554151,5.42828044,4.15775389\H,0,16.69990515,3.
 78321587,6.88870376\H,0,15.88559498,4.30493482,5.43344607\H,0,15.16942
 25,3.06938843,6.44021752\H,0,15.99587272,-3.08622903,4.46841912\H,0,15
 .05834687,-1.76401277,5.12099563\H,0,14.26826574,-3.25523296,4.6681150
 5\H,0,13.91084125,-5.89478086,2.99180476\H,0,13.32508992,-4.35123781,3
 .56402578\H,0,12.54405231,-5.13535628,2.21191441\H,0,13.74470405,-3.31
 991796,-4.11348436\H,0,13.21632083,-3.62170083,-2.47555733\H,0,12.1302
 9055,-2.86982854,-3.61936369\H,0,13.31085766,-1.18867271,-5.54900364\H
 ,0,13.60906955,0.63580218,-5.41838576\H,0,11.5598991,0.96757602,-4.552
 78331\H,0,11.27736258,-0.85812279,-4.4054844\H,0,19.49151881,0.2807569
 2,-2.22510638\H,0,17.85787242,5.15789243,-6.82477284\H,0,9.3466566,1.1
 2426594,-5.83107139\H,0,14.95832778,-4.79369883,1.01025441\H,0,17.3579
 7588,1.66512577,5.77879495\\Version=ES64L-G16RevA.03\State=5-A\HF=-388
 0.4266354\S2=6.114725\S2-1=0.\S2A=6.003959\RMSD=2.599e-09\Dipole=2.216
 687,-0.7843306,3.0220221\Quadrupole=30.6102753,-5.286135,-25.3241403,-
 1.0132991,-30.7356977,6.6180943\PG=C01 [X(C41H48Fe1N6O4S1)]\\@


 BLACK HOLES SUCK.
 Job cpu time:       4 days  5 hours 39 minutes 30.0 seconds.
 Elapsed time:       1 days  1 hours 30 minutes 50.0 seconds.
 File lengths (MBytes):  RWF=   4346 Int=      0 D2E=      0 Chk=    310 Scr=      1
 Normal termination of Gaussian 16 at Sun Feb  5 19:55:29 2023.
