 Entering Gaussian System, Link 0=g16
 Input=/net/homes/chemie/zhartovska/work/BioModel/Konrad/1v9z/1v9z12/1v9z12.com
 Output=/net/homes/chemie/zhartovska/work/BioModel/Konrad/1v9z/1v9z12/1v9z12.log
 Initial command:
 /afs/math/software/gaussian/g16.A03/g16/l1.exe "/scratch/zhartovska_gaussian.fewi9RL/Gau-4070.inp" -scrdir="/scratch/zhartovska_gaussian.fewi9RL/"
 Entering Link 1 = /afs/math/software/gaussian/g16.A03/g16/l1.exe PID=      4071.
  
 Copyright (c) 1988,1990,1992,1993,1995,1998,2003,2009,2016,
            Gaussian, Inc.  All Rights Reserved.
  
 This is part of the Gaussian(R) 16 program.  It is based on
 the Gaussian(R) 09 system (copyright 2009, Gaussian, Inc.),
 the Gaussian(R) 03 system (copyright 2003, Gaussian, Inc.),
 the Gaussian(R) 98 system (copyright 1998, Gaussian, Inc.),
 the Gaussian(R) 94 system (copyright 1995, Gaussian, Inc.),
 the Gaussian 92(TM) system (copyright 1992, Gaussian, Inc.),
 the Gaussian 90(TM) system (copyright 1990, Gaussian, Inc.),
 the Gaussian 88(TM) system (copyright 1988, Gaussian, Inc.),
 the Gaussian 86(TM) system (copyright 1986, Carnegie Mellon
 University), and the Gaussian 82(TM) system (copyright 1983,
 Carnegie Mellon University). Gaussian is a federally registered
 trademark of Gaussian, Inc.
  
 This software contains proprietary and confidential information,
 including trade secrets, belonging to Gaussian, Inc.
  
 This software is provided under written license and may be
 used, copied, transmitted, or stored only in accord with that
 written license.
  
 The following legend is applicable only to US Government
 contracts under FAR:
  
                    RESTRICTED RIGHTS LEGEND
  
 Use, reproduction and disclosure by the US Government is
 subject to restrictions as set forth in subparagraphs (a)
 and (c) of the Commercial Computer Software - Restricted
 Rights clause in FAR 52.227-19.
  
 Gaussian, Inc.
 340 Quinnipiac St., Bldg. 40, Wallingford CT 06492
  
  
 ---------------------------------------------------------------
 Warning -- This program may not be used in any manner that
 competes with the business of Gaussian, Inc. or will provide
 assistance to any competitor of Gaussian, Inc.  The licensee
 of this program is prohibited from giving any competitor of
 Gaussian, Inc. access to this program.  By using this program,
 the user acknowledges that Gaussian, Inc. is engaged in the
 business of creating and licensing software in the field of
 computational chemistry and represents and warrants to the
 licensee that it is not a competitor of Gaussian, Inc. and that
 it will not use this program in any manner prohibited above.
 ---------------------------------------------------------------
  

 Cite this work as:
 Gaussian 16, Revision A.03,
 M. J. Frisch, G. W. Trucks, H. B. Schlegel, G. E. Scuseria, 
 M. A. Robb, J. R. Cheeseman, G. Scalmani, V. Barone, 
 G. A. Petersson, H. Nakatsuji, X. Li, M. Caricato, A. V. Marenich, 
 J. Bloino, B. G. Janesko, R. Gomperts, B. Mennucci, H. P. Hratchian, 
 J. V. Ortiz, A. F. Izmaylov, J. L. Sonnenberg, D. Williams-Young, 
 F. Ding, F. Lipparini, F. Egidi, J. Goings, B. Peng, A. Petrone, 
 T. Henderson, D. Ranasinghe, V. G. Zakrzewski, J. Gao, N. Rega, 
 G. Zheng, W. Liang, M. Hada, M. Ehara, K. Toyota, R. Fukuda, 
 J. Hasegawa, M. Ishida, T. Nakajima, Y. Honda, O. Kitao, H. Nakai, 
 T. Vreven, K. Throssell, J. A. Montgomery, Jr., J. E. Peralta, 
 F. Ogliaro, M. J. Bearpark, J. J. Heyd, E. N. Brothers, K. N. Kudin, 
 V. N. Staroverov, T. A. Keith, R. Kobayashi, J. Normand, 
 K. Raghavachari, A. P. Rendell, J. C. Burant, S. S. Iyengar, 
 J. Tomasi, M. Cossi, J. M. Millam, M. Klene, C. Adamo, R. Cammi, 
 J. W. Ochterski, R. L. Martin, K. Morokuma, O. Farkas, 
 J. B. Foresman, and D. J. Fox, Gaussian, Inc., Wallingford CT, 2016.
 
 ******************************************
 Gaussian 16:  ES64L-G16RevA.03 25-Dec-2016
                27-Aug-2022 
 ******************************************
 %nprocs=12
 Will use up to   12 processors via shared memory.
 %mem=16GB
 %oldchk=1v9z_II_S.chk
 %chk=1v9z_III_D.chk
 Copying data from "1v9z_II_S.chk" to current chk file "1v9z_III_D.chk"
 IOpt=  2 FromEx=T IUOpen= 4 IOptOp= 5 NList=   0 IFRang= 0 IUIn= 4 IUOut= 2.
 ----------------------------------------------------------------------
 # PBE1PBE/def2TZVP empiricaldispersion=GD3BJ int=(grid=ultrafine) geom
 =check pop=nbo
 ----------------------------------------------------------------------
 1/29=2,38=1,172=1/1;
 2/12=2,40=1/2;
 3/5=44,7=101,11=2,14=-4,25=1,30=1,74=-13,75=-5,124=41/1,2,3;
 4//1;
 5/5=2,38=5/2;
 6/7=2,8=2,9=2,10=2,28=1,40=1/1,7;
 99/5=1,9=1/99;
 ----------
 1v9z_III_D
 ----------
 Structure from the checkpoint file:  "1v9z_III_D.chk"
 Charge =  1 Multiplicity = 2
 Z-Matrix found in chk file.
 C,0,-2.723,-19.658001,-18.360001
 C,0,-2.108,-18.688999,-17.408001
 N,0,-2.012,-17.337,-17.67
 C,0,-1.614,-18.860001,-16.158001
 C,0,-1.493,-16.723,-16.627001
 N,0,-1.242,-17.622999,-15.694
 C,0,0.192,-17.089001,-8.719
 C,0,-0.598,-17.09,-10.006
 S,0,0.404,-16.514999,-11.383
 C,0,0.98,-14.914,-10.756
 C,0,-3.646,-17.483999,-12.485
 C,0,0.282,-20.289,-13.256
 C,0,2.755,-16.412001,-14.772
 C,0,-1.122,-13.603,-14.048
 C,0,-2.761,-18.612,-12.559
 C,0,-3.135,-19.974001,-12.15
 C,0,-2.016,-20.764,-12.373
 C,0,-0.995,-19.888,-12.904
 C,0,-1.895,-22.284,-12.104
 C,0,-4.518,-20.412001,-11.629
 C,0,-4.455,-21.021,-10.228
 C,0,-3.972,-20.058001,-9.16
 O,0,-3.094,-20.459,-8.387
 O,0,-4.468,-18.912001,-9.108
 C,0,1.284,-19.483,-13.744
 C,0,2.595,-19.958,-14.068
 C,0,3.354,-18.884001,-14.514
 C,0,2.423,-17.725,-14.43
 C,0,3.029,-21.441,-13.918
 C,0,4.72,-18.948,-14.941
 C,0,5.46986476,-20.11085245,-14.71874119
 C,0,1.903,-15.312,-14.696
 C,0,2.347,-13.961,-15.057
 C,0,1.233,-13.139,-14.854
 C,0,0.163,-14.026,-14.374
 C,0,3.77,-13.6,-15.553
 C,0,1.072,-11.721,-15.043
 C,0,2.17851362,-10.92851737,-15.37694738
 C,0,-2.153,-14.406,-13.576
 C,0,-3.475,-13.918,-13.233
 C,0,-4.178,-15.005,-12.793
 C,0,-3.281,-16.157,-12.87
 C,0,-3.999,-12.471,-13.334
 C,0,-5.617,-15.021,-12.301
 C,0,-5.552,-14.558,-10.854
 C,0,-6.273,-15.467,-9.89
 O,0,-7.157,-14.956,-9.16
 O,0,-5.944,-16.681,-9.866
 N,0,-1.456,-18.582001,-13.015
 N,0,1.161,-18.094999,-13.973
 N,0,0.582,-15.366,-14.279
 N,0,-2.044,-15.78,-13.354
 Fe,0,-0.506,-16.978001,-13.68
 H,0,1.12315378,-16.58471713,-8.87246146
 H,0,-0.36598317,-16.5840076,-7.95838416
 H,0,0.3785853,-18.09757042,-8.41424823
 H,0,-0.93560614,-18.0847633,-10.2093914
 H,0,-1.44633306,-16.44704939,-9.89716281
 H,0,1.92169843,-14.67356325,-11.20354244
 H,0,0.26489239,-14.15675103,-11.00114302
 H,0,1.09329541,-14.96696781,-9.69333422
 H,0,-6.90483793,-14.42480722,-8.40115317
 H,0,-3.8953815,-18.14226846,-9.07307322
 H,0,-4.52453811,-14.49741257,-10.5615086
 H,0,-5.98394543,-13.58121323,-10.78910972
 H,0,-6.01648465,-16.0121286,-12.35555371
 H,0,-6.21409199,-14.34730558,-12.87937443
 H,0,-5.43320592,-21.36268168,-9.96104156
 H,0,-3.79416305,-21.86220399,-10.25188259
 H,0,-4.92656916,-21.13654997,-12.30205277
 H,0,-5.16380511,-19.55918572,-11.60572221
 H,0,-0.99614785,-22.47900602,-11.55724826
 H,0,-2.73810695,-22.61346395,-11.53345274
 H,0,-1.8671274,-22.8099354,-13.03540489
 H,0,0.51219824,-21.32713566,-13.13690708
 H,0,-4.63846508,-17.64659606,-12.11965735
 H,0,-3.29850114,-11.87537539,-13.88120442
 H,0,-4.94186077,-12.46759752,-13.83986756
 H,0,-4.12018096,-12.06612148,-12.35100022
 H,0,-1.33611631,-12.5620548,-14.17244795
 H,0,3.75029278,-16.23551296,-15.12291915
 H,0,3.96752659,-21.48795403,-13.40627433
 H,0,2.28988971,-21.97394258,-13.35711838
 H,0,3.12870815,-21.88322682,-14.88722326
 H,0,4.44339202,-14.39684024,-15.31532625
 H,0,3.75166225,-13.4526236,-16.6126433
 H,0,4.09752714,-12.70126568,-15.07351841
 H,0,-1.30625501,-15.67232724,-16.54881495
 H,0,-2.29316662,-16.89250515,-18.52051141
 H,0,-1.52956742,-19.78713751,-15.63056472
 H,0,-2.07421794,-20.50030726,-18.48042526
 H,0,-3.6659868,-19.98623978,-17.97537754
 H,0,-2.87010237,-19.18278518,-19.30732925
 H,0,0.10748474,-11.27211164,-14.92850307
 H,0,3.12566274,-11.38681126,-15.57130597
 H,0,2.07621247,-9.86514533,-15.43756397
 H,0,5.16770902,-18.10793636,-15.42962021
 H,0,6.47851855,-20.0383418,-14.3690846
 H,0,5.03374995,-21.0712267,-14.8987
 Recover connectivity data from disk.
 Stoichiometry    C41H46FeN6O4S(1+,2)
 Framework group  C1[X(C41H46FeN6O4S)]
 Deg. of freedom   291
 Full point group                 C1      NOp   1
 Largest Abelian subgroup         C1      NOp   1
 Largest concise Abelian subgroup C1      NOp   1
                         Standard orientation:                         
 ---------------------------------------------------------------------
 Center     Atomic      Atomic             Coordinates (Angstroms)
 Number     Number       Type             X           Y           Z
 ---------------------------------------------------------------------
      1          6           0       -1.129545   -1.711640    5.712280
      2          6           0       -1.249196   -0.967192    4.425822
      3          7           0       -1.627878    0.358608    4.357877
      4          6           0       -0.974828   -1.339719    3.152353
      5          6           0       -1.576969    0.766636    3.106828
      6          7           0       -1.183182   -0.243499    2.353137
      7          6           0        1.280649   -0.612713   -4.339049
      8          6           0        1.254445   -0.347908   -2.852556
      9         16           0       -0.387448    0.141992   -2.309470
     10          6           0       -0.722113    1.540213   -3.414496
     11          6           0        2.527621    0.073469    0.861262
     12          6           0       -0.844123   -3.357630   -0.005085
     13          6           0       -4.178398    0.087597   -0.681936
     14          6           0       -0.874929    3.516906    0.197113
     15          6           0        1.879312   -1.193094    0.669953
     16          6           0        2.570433   -2.487983    0.758376
     17          6           0        1.607039   -3.456254    0.512790
     18          6           0        0.366018   -2.750389    0.281707
     19          6           0        1.827477   -4.988715    0.493486
     20          6           0        4.057861   -2.695091    1.105703
     21          6           0        4.825009   -3.425800    0.003342
     22          6           0        4.878543   -2.671969   -1.312011
     23          8           0        4.603519   -3.301328   -2.340350
     24          8           0        5.187343   -1.460928   -1.304495
     25          6           0       -2.038065   -2.720294   -0.250215
     26          6           0       -3.253043   -3.408878   -0.564864
     27          6           0       -4.252504   -2.466457   -0.768315
     28          6           0       -3.563974   -1.161605   -0.567349
     29          6           0       -3.362545   -4.955085   -0.650875
     30          6           0       -5.616689   -2.754928   -1.097199
     31          6           0       -5.989496   -4.055575   -1.462239
     32          6           0       -3.553367    1.320255   -0.504247
     33          6           0       -4.276152    2.586660   -0.666906
     34          6           0       -3.331378    3.587001   -0.412725
     35          6           0       -2.075300    2.884332   -0.111742
     36          6           0       -5.774692    2.708601   -1.042109
     37          6           0       -3.463641    5.020453   -0.422166
     38          6           0       -4.661180    5.610845   -0.847910
     39          6           0        0.334390    2.889506    0.470007
     40          6           0        1.567205    3.591243    0.772015
     41          6           0        2.518104    2.625842    0.954145
     42          6           0        1.860956    1.333775    0.763459
     43          6           0        1.782447    5.115316    0.869263
     44          6           0        3.987498    2.844492    1.279895
     45          6           0        4.652012    3.156957   -0.051716
     46          6           0        5.877113    2.322823   -0.332367
     47          8           0        6.947348    2.928444   -0.583958
     48          8           0        5.756685    1.070852   -0.306274
     49          7           0        0.539689   -1.375382    0.380049
     50          7           0       -2.219998   -1.319967   -0.240174
     51          7           0       -2.218378    1.485610   -0.169123
     52          7           0        0.522663    1.506179    0.470541
     53         26           0       -0.798746    0.067424    0.169230
     54          1           0        0.360095   -0.286030   -4.775808
     55          1           0        2.095025   -0.078557   -4.782185
     56          1           0        1.405393   -1.661181   -4.512411
     57          1           0        1.544887   -1.236992   -2.332869
     58          1           0        1.947476    0.434496   -2.623532
     59          1           0       -1.777726    1.632922   -3.562768
     60          1           0       -0.343131    2.439794   -2.976287
     61          1           0       -0.242959    1.372985   -4.356487
     62          1           0        7.079508    3.332059   -1.444904
     63          1           0        4.636505   -0.822257   -1.763054
     64          1           0        3.941072    2.992175   -0.834220
     65          1           0        4.933893    4.189142   -0.057902
     66          1           0        4.408840    1.957788    1.705486
     67          1           0        4.099420    3.669004    1.952616
     68          1           0        5.826553   -3.594500    0.340017
     69          1           0        4.357548   -4.373258   -0.166078
     70          1           0        4.125119   -3.265046    2.008769
     71          1           0        4.511056   -1.739133    1.265884
     72          1           0        1.389986   -5.400861   -0.391747
     73          1           0        2.876704   -5.198282    0.503629
     74          1           0        1.368074   -5.426019    1.355237
     75          1           0       -0.851626   -4.427051   -0.039462
     76          1           0        3.572697    0.073865    1.090859
     77          1           0        0.833905    5.610446    0.865425
     78          1           0        2.301061    5.345107    1.776531
     79          1           0        2.361706    5.447774    0.033302
     80          1           0       -0.884080    4.586442    0.227263
     81          1           0       -5.219762    0.098961   -0.927561
     82          1           0       -3.869301   -5.227116   -1.553149
     83          1           0       -2.381713   -5.382714   -0.649856
     84          1           0       -3.912094   -5.321112    0.191099
     85          1           0       -6.118106    1.779035   -1.445686
     86          1           0       -6.342778    2.949503   -0.167956
     87          1           0       -5.897932    3.481464   -1.771762
     88          1           0       -1.814565    1.750491    2.759729
     89          1           0       -1.898994    0.922155    5.138205
     90          1           0       -0.655121   -2.308513    2.829669
     91          1           0       -1.638369   -2.649346    5.630386
     92          1           0       -0.096189   -1.884363    5.929632
     93          1           0       -1.568219   -1.135408    6.499948
     94          1           0       -2.647600    5.635126   -0.104119
     95          1           0       -5.504252    4.997365   -1.088267
     96          1           0       -4.732456    6.675103   -0.932619
     97          1           0       -6.350935   -1.977310   -1.064123
     98          1           0       -6.655543   -4.210113   -2.285282
     99          1           0       -5.608097   -4.894111   -0.917912
 ---------------------------------------------------------------------
 Rotational constants (GHZ):           0.0638735           0.0469371           0.0369844
 Standard basis: def2TZVP (5D, 7F)
 There are  2206 symmetry adapted cartesian basis functions of A   symmetry.
 There are  1939 symmetry adapted basis functions of A   symmetry.
  1939 basis functions,  3140 primitive gaussians,  2206 cartesian basis functions
   204 alpha electrons      203 beta electrons
       nuclear repulsion energy      8879.2555342685 Hartrees.
 NAtoms=   99 NActive=   99 NUniq=   99 SFac= 1.00D+00 NAtFMM=   60 NAOKFM=T Big=T
 Integral buffers will be    131072 words long.
 Raffenetti 2 integral format.
 Two-electron integral symmetry is turned on.
 Nuclear repulsion after empirical dispersion term =     8879.1100103553 Hartrees.
 One-electron integrals computed using PRISM.
   1 Symmetry operations used in ECPInt.
 ECPInt:  NShTT=  299151 NPrTT=  925475 LenC2=  220459 LenP2D=  439117.
 LDataN:  DoStor=T MaxTD1= 6 Len=  172
 NBasis=  1939 RedAO= T EigKep=  2.97D-06  NBF=  1939
 NBsUse=  1939 1.00D-06 EigRej= -1.00D+00 NBFU=  1939
 ExpMin= 4.20D-02 ExpMax= 3.01D+05 ExpMxC= 2.91D+03 IAcc=3 IRadAn=         5 AccDes= 0.00D+00
 Harris functional with IExCor= 1009 and IRadAn=       5 diagonalized for initial guess.
 HarFok:  IExCor= 1009 AccDes= 0.00D+00 IRadAn=         5 IDoV= 1 UseB2=F ITyADJ=14
 ICtDFT=  3500011 ScaDFX=  1.000000  1.000000  1.000000  1.000000
 FoFCou: FMM=F IPFlag=           0 FMFlag=      100000 FMFlg1=        2001
         NFxFlg=           0 DoJE=T BraDBF=F KetDBF=T FulRan=T
         wScrn=  0.000000 ICntrl=       500 IOpCl=  0 I1Cent=   200000004 NGrid=           0
         NMat0=    1 NMatS0=      1 NMatT0=    0 NMatD0=    1 NMtDS0=    0 NMtDT0=    0
 Petite list used in FoFCou.
 Initial guess <Sx>= 0.0000 <Sy>= 0.0000 <Sz>= 0.5000 <S**2>= 0.7500 S= 0.5000
 Requested convergence on RMS density matrix=1.00D-08 within 128 cycles.
 Requested convergence on MAX density matrix=1.00D-06.
 Requested convergence on             energy=1.00D-06.
 No special actions if energy rises.
 EnCoef did    27 forward-backward iterations
 EnCoef did   100 forward-backward iterations
 EnCoef did    12 forward-backward iterations
 Restarting incremental Fock formation.
 Restarting incremental Fock formation.
 Restarting incremental Fock formation.
 Restarting incremental Fock formation.
 Restarting incremental Fock formation.
 Restarting incremental Fock formation.
 SCF Done:  E(UPBE1PBE) =  -3879.19200526     A.U. after  123 cycles
            NFock=123  Conv=0.42D-09     -V/T= 2.0035
 <Sx>= 0.0000 <Sy>= 0.0000 <Sz>= 0.5000 <S**2>= 0.8433 S= 0.5456
 <L.S>= 0.000000000000E+00
 Annihilation of the first spin contaminant:
 S**2 before annihilation     0.8433,   after     0.7545

 **********************************************************************

            Population analysis using the SCF density.

 **********************************************************************

 Orbital symmetries:
 Alpha Orbitals:
       Occupied  (A) (A) (A) (A) (A) (A) (A) (A) (A) (A) (A) (A)
                 (A) (A) (A) (A) (A) (A) (A) (A) (A) (A) (A) (A)
                 (A) (A) (A) (A) (A) (A) (A) (A) (A) (A) (A) (A)
                 (A) (A) (A) (A) (A) (A) (A) (A) (A) (A) (A) (A)
                 (A) (A) (A) (A) (A) (A) (A) (A) (A) (A) (A) (A)
                 (A) (A) (A) (A) (A) (A) (A) (A) (A) (A) (A) (A)
                 (A) (A) (A) (A) (A) (A) (A) (A) (A) (A) (A) (A)
                 (A) (A) (A) (A) (A) (A) (A) (A) (A) (A) (A) (A)
                 (A) (A) (A) (A) (A) (A) (A) (A) (A) (A) (A) (A)
                 (A) (A) (A) (A) (A) (A) (A) (A) (A) (A) (A) (A)
                 (A) (A) (A) (A) (A) (A) (A) (A) (A) (A) (A) (A)
                 (A) (A) (A) (A) (A) (A) (A) (A) (A) (A) (A) (A)
                 (A) (A) (A) (A) (A) (A) (A) (A) (A) (A) (A) (A)
                 (A) (A) (A) (A) (A) (A) (A) (A) (A) (A) (A) (A)
                 (A) (A) (A) (A) (A) (A) (A) (A) (A) (A) (A) (A)
                 (A) (A) (A) (A) (A) (A) (A) (A) (A) (A) (A) (A)
                 (A) (A) (A) (A) (A) (A) (A) (A) (A) (A) (A) (A)
       Virtual   (A) (A) (A) (A) (A) (A) (A) (A) (A) (A) (A) (A)
                 (A) (A) (A) (A) (A) (A) (A) (A) (A) (A) (A) (A)
                 (A) (A) (A) (A) (A) (A) (A) (A) (A) (A) (A) (A)
                 (A) (A) (A) (A) (A) (A) (A) (A) (A) (A) (A) (A)
                 (A) (A) (A) (A) (A) (A) (A) (A) (A) (A) (A) (A)
                 (A) (A) (A) (A) (A) (A) (A) (A) (A) (A) (A) (A)
                 (A) (A) (A) (A) (A) (A) (A) (A) (A) (A) (A) (A)
                 (A) (A) (A) (A) (A) (A) (A) (A) (A) (A) (A) (A)
                 (A) (A) (A) (A) (A) (A) (A) (A) (A) (A) (A) (A)
                 (A) (A) (A) (A) (A) (A) (A) (A) (A) (A) (A) (A)
                 (A) (A) (A) (A) (A) (A) (A) (A) (A) (A) (A) (A)
                 (A) (A) (A) (A) (A) (A) (A) (A) (A) (A) (A) (A)
                 (A) (A) (A) (A) (A) (A) (A) (A) (A) (A) (A) (A)
                 (A) (A) (A) (A) (A) (A) (A) (A) (A) (A) (A) (A)
                 (A) (A) (A) (A) (A) (A) (A) (A) (A) (A) (A) (A)
                 (A) (A) (A) (A) (A) (A) (A) (A) (A) (A) (A) (A)
                 (A) (A) (A) (A) (A) (A) (A) (A) (A) (A) (A) (A)
                 (A) (A) (A) (A) (A) (A) (A) (A) (A) (A) (A) (A)
                 (A) (A) (A) (A) (A) (A) (A) (A) (A) (A) (A) (A)
                 (A) (A) (A) (A) (A) (A) (A) (A) (A) (A) (A) (A)
                 (A) (A) (A) (A) (A) (A) (A) (A) (A) (A) (A) (A)
                 (A) (A) (A) (A) (A) (A) (A) (A) (A) (A) (A) (A)
                 (A) (A) (A) (A) (A) (A) (A) (A) (A) (A) (A) (A)
                 (A) (A) (A) (A) (A) (A) (A) (A) (A) (A) (A) (A)
                 (A) (A) (A) (A) (A) (A) (A) (A) (A) (A) (A) (A)
                 (A) (A) (A) (A) (A) (A) (A) (A) (A) (A) (A) (A)
                 (A) (A) (A) (A) (A) (A) (A) (A) (A) (A) (A) (A)
                 (A) (A) (A) (A) (A) (A) (A) (A) (A) (A) (A) (A)
                 (A) (A) (A) (A) (A) (A) (A) (A) (A) (A) (A) (A)
                 (A) (A) (A) (A) (A) (A) (A) (A) (A) (A) (A) (A)
                 (A) (A) (A) (A) (A) (A) (A) (A) (A) (A) (A) (A)
                 (A) (A) (A) (A) (A) (A) (A) (A) (A) (A) (A) (A)
                 (A) (A) (A) (A) (A) (A) (A) (A) (A) (A) (A) (A)
                 (A) (A) (A) (A) (A) (A) (A) (A) (A) (A) (A) (A)
                 (A) (A) (A) (A) (A) (A) (A) (A) (A) (A) (A) (A)
                 (A) (A) (A) (A) (A) (A) (A) (A) (A) (A) (A) (A)
                 (A) (A) (A) (A) (A) (A) (A) (A) (A) (A) (A) (A)
                 (A) (A) (A) (A) (A) (A) (A) (A) (A) (A) (A) (A)
                 (A) (A) (A) (A) (A) (A) (A) (A) (A) (A) (A) (A)
                 (A) (A) (A) (A) (A) (A) (A) (A) (A) (A) (A) (A)
                 (A) (A) (A) (A) (A) (A) (A) (A) (A) (A) (A) (A)
                 (A) (A) (A) (A) (A) (A) (A) (A) (A) (A) (A) (A)
                 (A) (A) (A) (A) (A) (A) (A) (A) (A) (A) (A) (A)
                 (A) (A) (A) (A) (A) (A) (A) (A) (A) (A) (A) (A)
                 (A) (A) (A) (A) (A) (A) (A) (A) (A) (A) (A) (A)
                 (A) (A) (A) (A) (A) (A) (A) (A) (A) (A) (A) (A)
                 (A) (A) (A) (A) (A) (A) (A) (A) (A) (A) (A) (A)
                 (A) (A) (A) (A) (A) (A) (A) (A) (A) (A) (A) (A)
                 (A) (A) (A) (A) (A) (A) (A) (A) (A) (A) (A) (A)
                 (A) (A) (A) (A) (A) (A) (A) (A) (A) (A) (A) (A)
                 (A) (A) (A) (A) (A) (A) (A) (A) (A) (A) (A) (A)
                 (A) (A) (A) (A) (A) (A) (A) (A) (A) (A) (A) (A)
                 (A) (A) (A) (A) (A) (A) (A) (A) (A) (A) (A) (A)
                 (A) (A) (A) (A) (A) (A) (A) (A) (A) (A) (A) (A)
                 (A) (A) (A) (A) (A) (A) (A) (A) (A) (A) (A) (A)
                 (A) (A) (A) (A) (A) (A) (A) (A) (A) (A) (A) (A)
                 (A) (A) (A) (A) (A) (A) (A) (A) (A) (A) (A) (A)
                 (A) (A) (A) (A) (A) (A) (A) (A) (A) (A) (A) (A)
                 (A) (A) (A) (A) (A) (A) (A) (A) (A) (A) (A) (A)
                 (A) (A) (A) (A) (A) (A) (A) (A) (A) (A) (A) (A)
                 (A) (A) (A) (A) (A) (A) (A) (A) (A) (A) (A) (A)
                 (A) (A) (A) (A) (A) (A) (A) (A) (A) (A) (A) (A)
                 (A) (A) (A) (A) (A) (A) (A) (A) (A) (A) (A) (A)
                 (A) (A) (A) (A) (A) (A) (A) (A) (A) (A) (A) (A)
                 (A) (A) (A) (A) (A) (A) (A) (A) (A) (A) (A) (A)
                 (A) (A) (A) (A) (A) (A) (A) (A) (A) (A) (A) (A)
                 (A) (A) (A) (A) (A) (A) (A) (A) (A) (A) (A) (A)
                 (A) (A) (A) (A) (A) (A) (A) (A) (A) (A) (A) (A)
                 (A) (A) (A) (A) (A) (A) (A) (A) (A) (A) (A) (A)
                 (A) (A) (A) (A) (A) (A) (A) (A) (A) (A) (A) (A)
                 (A) (A) (A) (A) (A) (A) (A) (A) (A) (A) (A) (A)
                 (A) (A) (A) (A) (A) (A) (A) (A) (A) (A) (A) (A)
                 (A) (A) (A) (A) (A) (A) (A) (A) (A) (A) (A) (A)
                 (A) (A) (A) (A) (A) (A) (A) (A) (A) (A) (A) (A)
                 (A) (A) (A) (A) (A) (A) (A) (A) (A) (A) (A) (A)
                 (A) (A) (A) (A) (A) (A) (A) (A) (A) (A) (A) (A)
                 (A) (A) (A) (A) (A) (A) (A) (A) (A) (A) (A) (A)
                 (A) (A) (A) (A) (A) (A) (A) (A) (A) (A) (A) (A)
                 (A) (A) (A) (A) (A) (A) (A) (A) (A) (A) (A) (A)
                 (A) (A) (A) (A) (A) (A) (A) (A) (A) (A) (A) (A)
                 (A) (A) (A) (A) (A) (A) (A) (A) (A) (A) (A) (A)
                 (A) (A) (A) (A) (A) (A) (A) (A) (A) (A) (A) (A)
                 (A) (A) (A) (A) (A) (A) (A) (A) (A) (A) (A) (A)
                 (A) (A) (A) (A) (A) (A) (A) (A) (A) (A) (A) (A)
                 (A) (A) (A) (A) (A) (A) (A) (A) (A) (A) (A) (A)
                 (A) (A) (A) (A) (A) (A) (A) (A) (A) (A) (A) (A)
                 (A) (A) (A) (A) (A) (A) (A) (A) (A) (A) (A) (A)
                 (A) (A) (A) (A) (A) (A) (A) (A) (A) (A) (A) (A)
                 (A) (A) (A) (A) (A) (A) (A) (A) (A) (A) (A) (A)
                 (A) (A) (A) (A) (A) (A) (A) (A) (A) (A) (A) (A)
                 (A) (A) (A) (A) (A) (A) (A) (A) (A) (A) (A) (A)
                 (A) (A) (A) (A) (A) (A) (A) (A) (A) (A) (A) (A)
                 (A) (A) (A) (A) (A) (A) (A) (A) (A) (A) (A) (A)
                 (A) (A) (A) (A) (A) (A) (A) (A) (A) (A) (A) (A)
                 (A) (A) (A) (A) (A) (A) (A) (A) (A) (A) (A) (A)
                 (A) (A) (A) (A) (A) (A) (A) (A) (A) (A) (A) (A)
                 (A) (A) (A) (A) (A) (A) (A) (A) (A) (A) (A) (A)
                 (A) (A) (A) (A) (A) (A) (A) (A) (A) (A) (A) (A)
                 (A) (A) (A) (A) (A) (A) (A) (A) (A) (A) (A) (A)
                 (A) (A) (A) (A) (A) (A) (A) (A) (A) (A) (A) (A)
                 (A) (A) (A) (A) (A) (A) (A) (A) (A) (A) (A) (A)
                 (A) (A) (A) (A) (A) (A) (A) (A) (A) (A) (A) (A)
                 (A) (A) (A) (A) (A) (A) (A) (A) (A) (A) (A) (A)
                 (A) (A) (A) (A) (A) (A) (A) (A) (A) (A) (A) (A)
                 (A) (A) (A) (A) (A) (A) (A) (A) (A) (A) (A) (A)
                 (A) (A) (A) (A) (A) (A) (A) (A) (A) (A) (A) (A)
                 (A) (A) (A) (A) (A) (A) (A) (A) (A) (A) (A) (A)
                 (A) (A) (A) (A) (A) (A) (A) (A) (A) (A) (A) (A)
                 (A) (A) (A) (A) (A) (A) (A) (A) (A) (A) (A) (A)
                 (A) (A) (A) (A) (A) (A) (A) (A) (A) (A) (A) (A)
                 (A) (A) (A) (A) (A) (A) (A) (A) (A) (A) (A) (A)
                 (A) (A) (A) (A) (A) (A) (A) (A) (A) (A) (A) (A)
                 (A) (A) (A) (A) (A) (A) (A) (A) (A) (A) (A) (A)
                 (A) (A) (A) (A) (A) (A) (A) (A) (A) (A) (A) (A)
                 (A) (A) (A) (A) (A) (A) (A) (A) (A) (A) (A) (A)
                 (A) (A) (A) (A) (A) (A) (A) (A) (A) (A) (A) (A)
                 (A) (A) (A) (A) (A) (A) (A) (A) (A) (A) (A) (A)
                 (A) (A) (A) (A) (A) (A) (A) (A) (A) (A) (A) (A)
                 (A) (A) (A) (A) (A) (A) (A) (A) (A) (A) (A) (A)
                 (A) (A) (A) (A) (A) (A) (A) (A) (A) (A) (A) (A)
                 (A) (A) (A) (A) (A) (A) (A) (A) (A) (A) (A) (A)
                 (A) (A) (A) (A) (A) (A) (A) (A) (A) (A) (A) (A)
                 (A) (A) (A) (A) (A) (A) (A) (A) (A) (A) (A) (A)
                 (A) (A) (A) (A) (A) (A) (A) (A) (A) (A) (A) (A)
                 (A) (A) (A) (A) (A) (A) (A) (A) (A) (A) (A) (A)
                 (A) (A) (A) (A) (A) (A) (A) (A) (A) (A) (A) (A)
                 (A) (A) (A) (A) (A) (A) (A) (A) (A) (A) (A) (A)
                 (A) (A) (A) (A) (A) (A) (A) (A) (A) (A) (A) (A)
                 (A) (A) (A) (A) (A) (A) (A) (A) (A) (A) (A) (A)
                 (A) (A) (A) (A) (A) (A) (A) (A) (A) (A) (A) (A)
                 (A) (A) (A) (A) (A) (A) (A) (A) (A) (A) (A) (A)
                 (A) (A) (A) (A) (A) (A) (A) (A) (A) (A) (A) (A)
                 (A) (A) (A) (A) (A) (A) (A) (A) (A) (A) (A) (A)
                 (A) (A) (A) (A) (A) (A) (A) (A) (A) (A) (A) (A)
                 (A) (A) (A) (A) (A) (A) (A) (A) (A) (A) (A) (A)
                 (A) (A) (A) (A) (A) (A) (A) (A) (A) (A) (A) (A)
                 (A) (A) (A) (A) (A) (A) (A) (A) (A) (A) (A) (A)
                 (A) (A) (A) (A) (A) (A) (A) (A) (A) (A) (A) (A)
                 (A) (A) (A) (A) (A) (A) (A) (A) (A) (A) (A) (A)
                 (A) (A) (A) (A) (A) (A) (A) (A) (A) (A) (A) (A)
                 (A) (A) (A) (A) (A) (A) (A) (A) (A) (A) (A) (A)
                 (A) (A) (A) (A) (A) (A) (A) (A) (A) (A) (A) (A)
                 (A) (A) (A) (A) (A) (A) (A) (A) (A) (A) (A) (A)
                 (A) (A) (A) (A) (A) (A) (A) (A) (A) (A) (A) (A)
                 (A) (A) (A) (A) (A) (A) (A)
 Beta  Orbitals:
       Occupied  (A) (A) (A) (A) (A) (A) (A) (A) (A) (A) (A) (A)
                 (A) (A) (A) (A) (A) (A) (A) (A) (A) (A) (A) (A)
                 (A) (A) (A) (A) (A) (A) (A) (A) (A) (A) (A) (A)
                 (A) (A) (A) (A) (A) (A) (A) (A) (A) (A) (A) (A)
                 (A) (A) (A) (A) (A) (A) (A) (A) (A) (A) (A) (A)
                 (A) (A) (A) (A) (A) (A) (A) (A) (A) (A) (A) (A)
                 (A) (A) (A) (A) (A) (A) (A) (A) (A) (A) (A) (A)
                 (A) (A) (A) (A) (A) (A) (A) (A) (A) (A) (A) (A)
                 (A) (A) (A) (A) (A) (A) (A) (A) (A) (A) (A) (A)
                 (A) (A) (A) (A) (A) (A) (A) (A) (A) (A) (A) (A)
                 (A) (A) (A) (A) (A) (A) (A) (A) (A) (A) (A) (A)
                 (A) (A) (A) (A) (A) (A) (A) (A) (A) (A) (A) (A)
                 (A) (A) (A) (A) (A) (A) (A) (A) (A) (A) (A) (A)
                 (A) (A) (A) (A) (A) (A) (A) (A) (A) (A) (A) (A)
                 (A) (A) (A) (A) (A) (A) (A) (A) (A) (A) (A) (A)
                 (A) (A) (A) (A) (A) (A) (A) (A) (A) (A) (A) (A)
                 (A) (A) (A) (A) (A) (A) (A) (A) (A) (A) (A)
       Virtual   (A) (A) (A) (A) (A) (A) (A) (A) (A) (A) (A) (A)
                 (A) (A) (A) (A) (A) (A) (A) (A) (A) (A) (A) (A)
                 (A) (A) (A) (A) (A) (A) (A) (A) (A) (A) (A) (A)
                 (A) (A) (A) (A) (A) (A) (A) (A) (A) (A) (A) (A)
                 (A) (A) (A) (A) (A) (A) (A) (A) (A) (A) (A) (A)
                 (A) (A) (A) (A) (A) (A) (A) (A) (A) (A) (A) (A)
                 (A) (A) (A) (A) (A) (A) (A) (A) (A) (A) (A) (A)
                 (A) (A) (A) (A) (A) (A) (A) (A) (A) (A) (A) (A)
                 (A) (A) (A) (A) (A) (A) (A) (A) (A) (A) (A) (A)
                 (A) (A) (A) (A) (A) (A) (A) (A) (A) (A) (A) (A)
                 (A) (A) (A) (A) (A) (A) (A) (A) (A) (A) (A) (A)
                 (A) (A) (A) (A) (A) (A) (A) (A) (A) (A) (A) (A)
                 (A) (A) (A) (A) (A) (A) (A) (A) (A) (A) (A) (A)
                 (A) (A) (A) (A) (A) (A) (A) (A) (A) (A) (A) (A)
                 (A) (A) (A) (A) (A) (A) (A) (A) (A) (A) (A) (A)
                 (A) (A) (A) (A) (A) (A) (A) (A) (A) (A) (A) (A)
                 (A) (A) (A) (A) (A) (A) (A) (A) (A) (A) (A) (A)
                 (A) (A) (A) (A) (A) (A) (A) (A) (A) (A) (A) (A)
                 (A) (A) (A) (A) (A) (A) (A) (A) (A) (A) (A) (A)
                 (A) (A) (A) (A) (A) (A) (A) (A) (A) (A) (A) (A)
                 (A) (A) (A) (A) (A) (A) (A) (A) (A) (A) (A) (A)
                 (A) (A) (A) (A) (A) (A) (A) (A) (A) (A) (A) (A)
                 (A) (A) (A) (A) (A) (A) (A) (A) (A) (A) (A) (A)
                 (A) (A) (A) (A) (A) (A) (A) (A) (A) (A) (A) (A)
                 (A) (A) (A) (A) (A) (A) (A) (A) (A) (A) (A) (A)
                 (A) (A) (A) (A) (A) (A) (A) (A) (A) (A) (A) (A)
                 (A) (A) (A) (A) (A) (A) (A) (A) (A) (A) (A) (A)
                 (A) (A) (A) (A) (A) (A) (A) (A) (A) (A) (A) (A)
                 (A) (A) (A) (A) (A) (A) (A) (A) (A) (A) (A) (A)
                 (A) (A) (A) (A) (A) (A) (A) (A) (A) (A) (A) (A)
                 (A) (A) (A) (A) (A) (A) (A) (A) (A) (A) (A) (A)
                 (A) (A) (A) (A) (A) (A) (A) (A) (A) (A) (A) (A)
                 (A) (A) (A) (A) (A) (A) (A) (A) (A) (A) (A) (A)
                 (A) (A) (A) (A) (A) (A) (A) (A) (A) (A) (A) (A)
                 (A) (A) (A) (A) (A) (A) (A) (A) (A) (A) (A) (A)
                 (A) (A) (A) (A) (A) (A) (A) (A) (A) (A) (A) (A)
                 (A) (A) (A) (A) (A) (A) (A) (A) (A) (A) (A) (A)
                 (A) (A) (A) (A) (A) (A) (A) (A) (A) (A) (A) (A)
                 (A) (A) (A) (A) (A) (A) (A) (A) (A) (A) (A) (A)
                 (A) (A) (A) (A) (A) (A) (A) (A) (A) (A) (A) (A)
                 (A) (A) (A) (A) (A) (A) (A) (A) (A) (A) (A) (A)
                 (A) (A) (A) (A) (A) (A) (A) (A) (A) (A) (A) (A)
                 (A) (A) (A) (A) (A) (A) (A) (A) (A) (A) (A) (A)
                 (A) (A) (A) (A) (A) (A) (A) (A) (A) (A) (A) (A)
                 (A) (A) (A) (A) (A) (A) (A) (A) (A) (A) (A) (A)
                 (A) (A) (A) (A) (A) (A) (A) (A) (A) (A) (A) (A)
                 (A) (A) (A) (A) (A) (A) (A) (A) (A) (A) (A) (A)
                 (A) (A) (A) (A) (A) (A) (A) (A) (A) (A) (A) (A)
                 (A) (A) (A) (A) (A) (A) (A) (A) (A) (A) (A) (A)
                 (A) (A) (A) (A) (A) (A) (A) (A) (A) (A) (A) (A)
                 (A) (A) (A) (A) (A) (A) (A) (A) (A) (A) (A) (A)
                 (A) (A) (A) (A) (A) (A) (A) (A) (A) (A) (A) (A)
                 (A) (A) (A) (A) (A) (A) (A) (A) (A) (A) (A) (A)
                 (A) (A) (A) (A) (A) (A) (A) (A) (A) (A) (A) (A)
                 (A) (A) (A) (A) (A) (A) (A) (A) (A) (A) (A) (A)
                 (A) (A) (A) (A) (A) (A) (A) (A) (A) (A) (A) (A)
                 (A) (A) (A) (A) (A) (A) (A) (A) (A) (A) (A) (A)
                 (A) (A) (A) (A) (A) (A) (A) (A) (A) (A) (A) (A)
                 (A) (A) (A) (A) (A) (A) (A) (A) (A) (A) (A) (A)
                 (A) (A) (A) (A) (A) (A) (A) (A) (A) (A) (A) (A)
                 (A) (A) (A) (A) (A) (A) (A) (A) (A) (A) (A) (A)
                 (A) (A) (A) (A) (A) (A) (A) (A) (A) (A) (A) (A)
                 (A) (A) (A) (A) (A) (A) (A) (A) (A) (A) (A) (A)
                 (A) (A) (A) (A) (A) (A) (A) (A) (A) (A) (A) (A)
                 (A) (A) (A) (A) (A) (A) (A) (A) (A) (A) (A) (A)
                 (A) (A) (A) (A) (A) (A) (A) (A) (A) (A) (A) (A)
                 (A) (A) (A) (A) (A) (A) (A) (A) (A) (A) (A) (A)
                 (A) (A) (A) (A) (A) (A) (A) (A) (A) (A) (A) (A)
                 (A) (A) (A) (A) (A) (A) (A) (A) (A) (A) (A) (A)
                 (A) (A) (A) (A) (A) (A) (A) (A) (A) (A) (A) (A)
                 (A) (A) (A) (A) (A) (A) (A) (A) (A) (A) (A) (A)
                 (A) (A) (A) (A) (A) (A) (A) (A) (A) (A) (A) (A)
                 (A) (A) (A) (A) (A) (A) (A) (A) (A) (A) (A) (A)
                 (A) (A) (A) (A) (A) (A) (A) (A) (A) (A) (A) (A)
                 (A) (A) (A) (A) (A) (A) (A) (A) (A) (A) (A) (A)
                 (A) (A) (A) (A) (A) (A) (A) (A) (A) (A) (A) (A)
                 (A) (A) (A) (A) (A) (A) (A) (A) (A) (A) (A) (A)
                 (A) (A) (A) (A) (A) (A) (A) (A) (A) (A) (A) (A)
                 (A) (A) (A) (A) (A) (A) (A) (A) (A) (A) (A) (A)
                 (A) (A) (A) (A) (A) (A) (A) (A) (A) (A) (A) (A)
                 (A) (A) (A) (A) (A) (A) (A) (A) (A) (A) (A) (A)
                 (A) (A) (A) (A) (A) (A) (A) (A) (A) (A) (A) (A)
                 (A) (A) (A) (A) (A) (A) (A) (A) (A) (A) (A) (A)
                 (A) (A) (A) (A) (A) (A) (A) (A) (A) (A) (A) (A)
                 (A) (A) (A) (A) (A) (A) (A) (A) (A) (A) (A) (A)
                 (A) (A) (A) (A) (A) (A) (A) (A) (A) (A) (A) (A)
                 (A) (A) (A) (A) (A) (A) (A) (A) (A) (A) (A) (A)
                 (A) (A) (A) (A) (A) (A) (A) (A) (A) (A) (A) (A)
                 (A) (A) (A) (A) (A) (A) (A) (A) (A) (A) (A) (A)
                 (A) (A) (A) (A) (A) (A) (A) (A) (A) (A) (A) (A)
                 (A) (A) (A) (A) (A) (A) (A) (A) (A) (A) (A) (A)
                 (A) (A) (A) (A) (A) (A) (A) (A) (A) (A) (A) (A)
                 (A) (A) (A) (A) (A) (A) (A) (A) (A) (A) (A) (A)
                 (A) (A) (A) (A) (A) (A) (A) (A) (A) (A) (A) (A)
                 (A) (A) (A) (A) (A) (A) (A) (A) (A) (A) (A) (A)
                 (A) (A) (A) (A) (A) (A) (A) (A) (A) (A) (A) (A)
                 (A) (A) (A) (A) (A) (A) (A) (A) (A) (A) (A) (A)
                 (A) (A) (A) (A) (A) (A) (A) (A) (A) (A) (A) (A)
                 (A) (A) (A) (A) (A) (A) (A) (A) (A) (A) (A) (A)
                 (A) (A) (A) (A) (A) (A) (A) (A) (A) (A) (A) (A)
                 (A) (A) (A) (A) (A) (A) (A) (A) (A) (A) (A) (A)
                 (A) (A) (A) (A) (A) (A) (A) (A) (A) (A) (A) (A)
                 (A) (A) (A) (A) (A) (A) (A) (A) (A) (A) (A) (A)
                 (A) (A) (A) (A) (A) (A) (A) (A) (A) (A) (A) (A)
                 (A) (A) (A) (A) (A) (A) (A) (A) (A) (A) (A) (A)
                 (A) (A) (A) (A) (A) (A) (A) (A) (A) (A) (A) (A)
                 (A) (A) (A) (A) (A) (A) (A) (A) (A) (A) (A) (A)
                 (A) (A) (A) (A) (A) (A) (A) (A) (A) (A) (A) (A)
                 (A) (A) (A) (A) (A) (A) (A) (A) (A) (A) (A) (A)
                 (A) (A) (A) (A) (A) (A) (A) (A) (A) (A) (A) (A)
                 (A) (A) (A) (A) (A) (A) (A) (A) (A) (A) (A) (A)
                 (A) (A) (A) (A) (A) (A) (A) (A) (A) (A) (A) (A)
                 (A) (A) (A) (A) (A) (A) (A) (A) (A) (A) (A) (A)
                 (A) (A) (A) (A) (A) (A) (A) (A) (A) (A) (A) (A)
                 (A) (A) (A) (A) (A) (A) (A) (A) (A) (A) (A) (A)
                 (A) (A) (A) (A) (A) (A) (A) (A) (A) (A) (A) (A)
                 (A) (A) (A) (A) (A) (A) (A) (A) (A) (A) (A) (A)
                 (A) (A) (A) (A) (A) (A) (A) (A) (A) (A) (A) (A)
                 (A) (A) (A) (A) (A) (A) (A) (A) (A) (A) (A) (A)
                 (A) (A) (A) (A) (A) (A) (A) (A) (A) (A) (A) (A)
                 (A) (A) (A) (A) (A) (A) (A) (A) (A) (A) (A) (A)
                 (A) (A) (A) (A) (A) (A) (A) (A) (A) (A) (A) (A)
                 (A) (A) (A) (A) (A) (A) (A) (A) (A) (A) (A) (A)
                 (A) (A) (A) (A) (A) (A) (A) (A) (A) (A) (A) (A)
                 (A) (A) (A) (A) (A) (A) (A) (A) (A) (A) (A) (A)
                 (A) (A) (A) (A) (A) (A) (A) (A) (A) (A) (A) (A)
                 (A) (A) (A) (A) (A) (A) (A) (A) (A) (A) (A) (A)
                 (A) (A) (A) (A) (A) (A) (A) (A) (A) (A) (A) (A)
                 (A) (A) (A) (A) (A) (A) (A) (A) (A) (A) (A) (A)
                 (A) (A) (A) (A) (A) (A) (A) (A) (A) (A) (A) (A)
                 (A) (A) (A) (A) (A) (A) (A) (A) (A) (A) (A) (A)
                 (A) (A) (A) (A) (A) (A) (A) (A) (A) (A) (A) (A)
                 (A) (A) (A) (A) (A) (A) (A) (A) (A) (A) (A) (A)
                 (A) (A) (A) (A) (A) (A) (A) (A) (A) (A) (A) (A)
                 (A) (A) (A) (A) (A) (A) (A) (A) (A) (A) (A) (A)
                 (A) (A) (A) (A) (A) (A) (A) (A) (A) (A) (A) (A)
                 (A) (A) (A) (A) (A) (A) (A) (A) (A) (A) (A) (A)
                 (A) (A) (A) (A) (A) (A) (A) (A) (A) (A) (A) (A)
                 (A) (A) (A) (A) (A) (A) (A) (A) (A) (A) (A) (A)
                 (A) (A) (A) (A) (A) (A) (A) (A) (A) (A) (A) (A)
                 (A) (A) (A) (A) (A) (A) (A) (A) (A) (A) (A) (A)
                 (A) (A) (A) (A) (A) (A) (A) (A) (A) (A) (A) (A)
                 (A) (A) (A) (A) (A) (A) (A) (A) (A) (A) (A) (A)
                 (A) (A) (A) (A) (A) (A) (A) (A) (A) (A) (A) (A)
                 (A) (A) (A) (A) (A) (A) (A) (A)
 The electronic state is 2-A.
 Alpha  occ. eigenvalues -- -256.51775 -89.13951 -30.30292 -26.13584 -26.13283
 Alpha  occ. eigenvalues --  -26.10986 -19.33560 -19.31390 -19.26931 -19.23653
 Alpha  occ. eigenvalues --  -14.54781 -14.50508 -14.49266 -14.48872 -14.48837
 Alpha  occ. eigenvalues --  -14.48627 -10.44013 -10.40921 -10.38460 -10.36010
 Alpha  occ. eigenvalues --  -10.35951 -10.35885 -10.35736 -10.35709 -10.35670
 Alpha  occ. eigenvalues --  -10.35401 -10.35076 -10.34980 -10.34070 -10.33888
 Alpha  occ. eigenvalues --  -10.33700 -10.33180 -10.32781 -10.32769 -10.32672
 Alpha  occ. eigenvalues --  -10.32605 -10.32518 -10.32488 -10.32358 -10.32231
 Alpha  occ. eigenvalues --  -10.32217 -10.32153 -10.32104 -10.31755 -10.31666
 Alpha  occ. eigenvalues --  -10.31531 -10.31435 -10.31345 -10.30866 -10.30800
 Alpha  occ. eigenvalues --  -10.30695 -10.30515 -10.30423 -10.29935 -10.29778
 Alpha  occ. eigenvalues --  -10.29532 -10.29520  -8.11715  -6.05353  -6.05076
 Alpha  occ. eigenvalues --   -6.04564  -3.65898  -2.43556  -2.42791  -2.37717
 Alpha  occ. eigenvalues --   -1.24451  -1.22496  -1.16984  -1.11201  -1.08918
 Alpha  occ. eigenvalues --   -1.07757  -1.06755  -1.06429  -1.05404  -1.01298
 Alpha  occ. eigenvalues --   -0.94788  -0.93589  -0.93072  -0.92334  -0.91831
 Alpha  occ. eigenvalues --   -0.91641  -0.91186  -0.90697  -0.90112  -0.88214
 Alpha  occ. eigenvalues --   -0.86921  -0.86378  -0.85839  -0.84885  -0.84786
 Alpha  occ. eigenvalues --   -0.82770  -0.82214  -0.81489  -0.81047  -0.80890
 Alpha  occ. eigenvalues --   -0.79010  -0.78466  -0.78329  -0.76913  -0.75582
 Alpha  occ. eigenvalues --   -0.74991  -0.74770  -0.74363  -0.72415  -0.72229
 Alpha  occ. eigenvalues --   -0.70942  -0.70632  -0.70100  -0.68697  -0.67642
 Alpha  occ. eigenvalues --   -0.66730  -0.65290  -0.64686  -0.63975  -0.63647
 Alpha  occ. eigenvalues --   -0.62501  -0.61764  -0.61340  -0.60934  -0.59640
 Alpha  occ. eigenvalues --   -0.59543  -0.58895  -0.58673  -0.58098  -0.57951
 Alpha  occ. eigenvalues --   -0.57886  -0.57715  -0.57574  -0.57334  -0.56844
 Alpha  occ. eigenvalues --   -0.55756  -0.55065  -0.54857  -0.54437  -0.54283
 Alpha  occ. eigenvalues --   -0.54084  -0.53967  -0.53733  -0.53392  -0.53323
 Alpha  occ. eigenvalues --   -0.52904  -0.52825  -0.52741  -0.52517  -0.52357
 Alpha  occ. eigenvalues --   -0.52282  -0.51907  -0.51715  -0.51564  -0.51434
 Alpha  occ. eigenvalues --   -0.51308  -0.51102  -0.51031  -0.50572  -0.50360
 Alpha  occ. eigenvalues --   -0.50302  -0.50062  -0.49779  -0.49658  -0.49131
 Alpha  occ. eigenvalues --   -0.49036  -0.48857  -0.48572  -0.48266  -0.47807
 Alpha  occ. eigenvalues --   -0.47614  -0.47340  -0.47241  -0.47060  -0.46798
 Alpha  occ. eigenvalues --   -0.46103  -0.45988  -0.45740  -0.45461  -0.45209
 Alpha  occ. eigenvalues --   -0.44950  -0.44586  -0.44086  -0.43487  -0.42974
 Alpha  occ. eigenvalues --   -0.42832  -0.42553  -0.42436  -0.42004  -0.41942
 Alpha  occ. eigenvalues --   -0.41526  -0.41314  -0.41067  -0.40048  -0.39757
 Alpha  occ. eigenvalues --   -0.39030  -0.38791  -0.36971  -0.36766  -0.36590
 Alpha  occ. eigenvalues --   -0.35460  -0.34500  -0.33789  -0.33553  -0.32866
 Alpha  occ. eigenvalues --   -0.31402  -0.30445  -0.29130  -0.28392
 Alpha virt. eigenvalues --   -0.19914  -0.17802  -0.17397  -0.14410  -0.13293
 Alpha virt. eigenvalues --   -0.10885  -0.10454  -0.08194  -0.07671  -0.07277
 Alpha virt. eigenvalues --   -0.06232  -0.05861  -0.05317  -0.05292  -0.05090
 Alpha virt. eigenvalues --   -0.04707  -0.04000  -0.03627  -0.03062  -0.02704
 Alpha virt. eigenvalues --   -0.02485  -0.02117  -0.01759  -0.01416  -0.01325
 Alpha virt. eigenvalues --   -0.01117  -0.01060  -0.00817  -0.00232   0.00059
 Alpha virt. eigenvalues --    0.00195   0.00461   0.00782   0.00886   0.01352
 Alpha virt. eigenvalues --    0.01516   0.01958   0.02178   0.02491   0.02779
 Alpha virt. eigenvalues --    0.02946   0.03247   0.03433   0.03483   0.03789
 Alpha virt. eigenvalues --    0.03846   0.04017   0.04210   0.04564   0.04830
 Alpha virt. eigenvalues --    0.05047   0.05242   0.05359   0.05876   0.05949
 Alpha virt. eigenvalues --    0.06133   0.06251   0.06406   0.06551   0.06643
 Alpha virt. eigenvalues --    0.06761   0.07198   0.07325   0.07465   0.07827
 Alpha virt. eigenvalues --    0.07862   0.07950   0.08343   0.08518   0.08556
 Alpha virt. eigenvalues --    0.08927   0.09043   0.09150   0.09486   0.09640
 Alpha virt. eigenvalues --    0.09747   0.09928   0.10016   0.10530   0.10640
 Alpha virt. eigenvalues --    0.11061   0.11168   0.11427   0.11583   0.11735
 Alpha virt. eigenvalues --    0.11947   0.12031   0.12490   0.12673   0.12873
 Alpha virt. eigenvalues --    0.12923   0.13108   0.13286   0.13491   0.13645
 Alpha virt. eigenvalues --    0.13766   0.13973   0.14112   0.14415   0.14842
 Alpha virt. eigenvalues --    0.15036   0.15102   0.15185   0.15406   0.15701
 Alpha virt. eigenvalues --    0.15781   0.15921   0.16273   0.16516   0.16575
 Alpha virt. eigenvalues --    0.16758   0.17023   0.17352   0.17578   0.17708
 Alpha virt. eigenvalues --    0.17943   0.18098   0.18343   0.18493   0.18757
 Alpha virt. eigenvalues --    0.19081   0.19158   0.19363   0.19534   0.19698
 Alpha virt. eigenvalues --    0.19825   0.20177   0.20401   0.20709   0.20828
 Alpha virt. eigenvalues --    0.20956   0.21117   0.21343   0.21844   0.22155
 Alpha virt. eigenvalues --    0.22223   0.22373   0.22542   0.22677   0.23035
 Alpha virt. eigenvalues --    0.23128   0.23433   0.23895   0.24002   0.24150
 Alpha virt. eigenvalues --    0.24527   0.24829   0.24885   0.25411   0.25885
 Alpha virt. eigenvalues --    0.26003   0.26151   0.26365   0.26640   0.26701
 Alpha virt. eigenvalues --    0.26817   0.27242   0.27289   0.27410   0.27745
 Alpha virt. eigenvalues --    0.27918   0.28069   0.28147   0.28365   0.28692
 Alpha virt. eigenvalues --    0.28779   0.28922   0.29205   0.29406   0.29579
 Alpha virt. eigenvalues --    0.29662   0.29771   0.30110   0.30472   0.30572
 Alpha virt. eigenvalues --    0.30769   0.30872   0.31168   0.31251   0.31472
 Alpha virt. eigenvalues --    0.31664   0.31888   0.32226   0.32265   0.32538
 Alpha virt. eigenvalues --    0.32578   0.32945   0.33193   0.33253   0.33548
 Alpha virt. eigenvalues --    0.33620   0.33730   0.34005   0.34185   0.34274
 Alpha virt. eigenvalues --    0.34404   0.34748   0.34842   0.35031   0.35313
 Alpha virt. eigenvalues --    0.35422   0.35580   0.35688   0.35842   0.36079
 Alpha virt. eigenvalues --    0.36356   0.36479   0.36557   0.36720   0.36812
 Alpha virt. eigenvalues --    0.37078   0.37289   0.37626   0.37806   0.37882
 Alpha virt. eigenvalues --    0.38007   0.38180   0.38408   0.38525   0.38858
 Alpha virt. eigenvalues --    0.38926   0.39014   0.39392   0.39500   0.39665
 Alpha virt. eigenvalues --    0.39714   0.39927   0.40169   0.40330   0.40485
 Alpha virt. eigenvalues --    0.40614   0.40837   0.40914   0.41059   0.41353
 Alpha virt. eigenvalues --    0.41775   0.41797   0.41938   0.42169   0.42353
 Alpha virt. eigenvalues --    0.42712   0.42906   0.42958   0.43171   0.43335
 Alpha virt. eigenvalues --    0.43426   0.43580   0.43676   0.43771   0.44062
 Alpha virt. eigenvalues --    0.44267   0.44293   0.44659   0.44722   0.45001
 Alpha virt. eigenvalues --    0.45234   0.45279   0.45363   0.45637   0.45900
 Alpha virt. eigenvalues --    0.46055   0.46250   0.46452   0.46632   0.46909
 Alpha virt. eigenvalues --    0.47163   0.47452   0.47574   0.47654   0.47812
 Alpha virt. eigenvalues --    0.47949   0.48173   0.48592   0.48684   0.48840
 Alpha virt. eigenvalues --    0.49202   0.49450   0.49505   0.49680   0.49918
 Alpha virt. eigenvalues --    0.50218   0.50429   0.50650   0.50961   0.51164
 Alpha virt. eigenvalues --    0.51294   0.51572   0.51877   0.52099   0.52292
 Alpha virt. eigenvalues --    0.52580   0.52682   0.52826   0.53079   0.53179
 Alpha virt. eigenvalues --    0.53395   0.54027   0.54343   0.54494   0.54813
 Alpha virt. eigenvalues --    0.55519   0.55689   0.55909   0.56165   0.56400
 Alpha virt. eigenvalues --    0.56538   0.56641   0.56965   0.57199   0.57343
 Alpha virt. eigenvalues --    0.57639   0.57913   0.58112   0.58397   0.58620
 Alpha virt. eigenvalues --    0.58708   0.59015   0.59303   0.59347   0.59778
 Alpha virt. eigenvalues --    0.60087   0.60446   0.60679   0.61028   0.61238
 Alpha virt. eigenvalues --    0.61283   0.61650   0.61709   0.62145   0.62215
 Alpha virt. eigenvalues --    0.62315   0.62792   0.63213   0.63305   0.63519
 Alpha virt. eigenvalues --    0.63813   0.63952   0.64216   0.64544   0.64789
 Alpha virt. eigenvalues --    0.64802   0.65384   0.65605   0.65855   0.66018
 Alpha virt. eigenvalues --    0.66355   0.66513   0.66599   0.67344   0.67690
 Alpha virt. eigenvalues --    0.67953   0.68264   0.68476   0.68558   0.68861
 Alpha virt. eigenvalues --    0.69431   0.69881   0.69986   0.70103   0.70734
 Alpha virt. eigenvalues --    0.71289   0.71454   0.71638   0.71857   0.72287
 Alpha virt. eigenvalues --    0.72613   0.73039   0.73239   0.73429   0.73858
 Alpha virt. eigenvalues --    0.73917   0.74100   0.74314   0.74614   0.74914
 Alpha virt. eigenvalues --    0.75208   0.75319   0.75750   0.75935   0.76218
 Alpha virt. eigenvalues --    0.76333   0.76704   0.76839   0.77366   0.77583
 Alpha virt. eigenvalues --    0.77818   0.78366   0.78534   0.78767   0.79196
 Alpha virt. eigenvalues --    0.79374   0.79578   0.80224   0.80410   0.80470
 Alpha virt. eigenvalues --    0.80758   0.81189   0.81312   0.81968   0.82310
 Alpha virt. eigenvalues --    0.82395   0.82534   0.82690   0.83022   0.83605
 Alpha virt. eigenvalues --    0.83799   0.84009   0.84307   0.84585   0.84709
 Alpha virt. eigenvalues --    0.85230   0.85547   0.85792   0.86079   0.86163
 Alpha virt. eigenvalues --    0.86297   0.86469   0.86636   0.86893   0.86904
 Alpha virt. eigenvalues --    0.87504   0.87845   0.88024   0.88183   0.88573
 Alpha virt. eigenvalues --    0.88770   0.88944   0.89129   0.89531   0.89765
 Alpha virt. eigenvalues --    0.90022   0.90385   0.90694   0.90852   0.91254
 Alpha virt. eigenvalues --    0.91351   0.91720   0.91838   0.92005   0.92279
 Alpha virt. eigenvalues --    0.92545   0.93140   0.93207   0.93481   0.93961
 Alpha virt. eigenvalues --    0.94088   0.94383   0.94744   0.94866   0.94907
 Alpha virt. eigenvalues --    0.95394   0.95878   0.96024   0.96517   0.96794
 Alpha virt. eigenvalues --    0.96902   0.96998   0.97150   0.97435   0.97884
 Alpha virt. eigenvalues --    0.98316   0.98810   0.99178   0.99268   0.99843
 Alpha virt. eigenvalues --    1.00236   1.00385   1.00580   1.00867   1.01163
 Alpha virt. eigenvalues --    1.01318   1.01550   1.01730   1.02335   1.02682
 Alpha virt. eigenvalues --    1.02805   1.03028   1.03127   1.03699   1.04525
 Alpha virt. eigenvalues --    1.04702   1.04784   1.05110   1.05599   1.05777
 Alpha virt. eigenvalues --    1.06180   1.06421   1.06671   1.07298   1.07559
 Alpha virt. eigenvalues --    1.07749   1.08207   1.08781   1.09171   1.09721
 Alpha virt. eigenvalues --    1.09777   1.10383   1.10433   1.10460   1.11209
 Alpha virt. eigenvalues --    1.11468   1.11848   1.12180   1.12368   1.12603
 Alpha virt. eigenvalues --    1.13034   1.13348   1.13782   1.14147   1.14422
 Alpha virt. eigenvalues --    1.14735   1.15062   1.15632   1.15683   1.16129
 Alpha virt. eigenvalues --    1.16174   1.16976   1.17402   1.17496   1.17878
 Alpha virt. eigenvalues --    1.18419   1.18658   1.18832   1.18920   1.19335
 Alpha virt. eigenvalues --    1.19681   1.19848   1.19964   1.20522   1.20725
 Alpha virt. eigenvalues --    1.21201   1.21839   1.22131   1.22543   1.22665
 Alpha virt. eigenvalues --    1.23008   1.23543   1.23711   1.24238   1.24703
 Alpha virt. eigenvalues --    1.24744   1.25174   1.25941   1.25949   1.26465
 Alpha virt. eigenvalues --    1.26854   1.27293   1.27696   1.28248   1.28707
 Alpha virt. eigenvalues --    1.29067   1.29436   1.29473   1.30051   1.30387
 Alpha virt. eigenvalues --    1.31092   1.31333   1.31709   1.32106   1.32310
 Alpha virt. eigenvalues --    1.32658   1.33333   1.33851   1.34097   1.34617
 Alpha virt. eigenvalues --    1.35171   1.35497   1.35672   1.36075   1.36810
 Alpha virt. eigenvalues --    1.37096   1.37483   1.37735   1.38154   1.38466
 Alpha virt. eigenvalues --    1.38758   1.39117   1.39398   1.39613   1.40091
 Alpha virt. eigenvalues --    1.40280   1.40501   1.40923   1.41218   1.41462
 Alpha virt. eigenvalues --    1.41992   1.42065   1.42397   1.42588   1.42964
 Alpha virt. eigenvalues --    1.43033   1.43502   1.43674   1.43894   1.44233
 Alpha virt. eigenvalues --    1.44417   1.44699   1.44856   1.45072   1.45297
 Alpha virt. eigenvalues --    1.45656   1.45780   1.46085   1.46172   1.46750
 Alpha virt. eigenvalues --    1.47020   1.47490   1.47564   1.47882   1.48046
 Alpha virt. eigenvalues --    1.48151   1.48507   1.48885   1.49266   1.49323
 Alpha virt. eigenvalues --    1.49728   1.50014   1.50053   1.50177   1.50541
 Alpha virt. eigenvalues --    1.50667   1.50993   1.51218   1.51396   1.51753
 Alpha virt. eigenvalues --    1.51967   1.52197   1.52441   1.52615   1.52771
 Alpha virt. eigenvalues --    1.52961   1.53404   1.53769   1.53848   1.53986
 Alpha virt. eigenvalues --    1.54225   1.54493   1.54739   1.55140   1.55342
 Alpha virt. eigenvalues --    1.55662   1.55893   1.55945   1.56458   1.56720
 Alpha virt. eigenvalues --    1.56844   1.56963   1.57189   1.57621   1.57924
 Alpha virt. eigenvalues --    1.58180   1.58247   1.58937   1.59031   1.59280
 Alpha virt. eigenvalues --    1.59538   1.59945   1.60275   1.60576   1.60715
 Alpha virt. eigenvalues --    1.61088   1.61512   1.61697   1.61797   1.62268
 Alpha virt. eigenvalues --    1.62372   1.62550   1.62760   1.62966   1.63460
 Alpha virt. eigenvalues --    1.63648   1.64092   1.64151   1.64468   1.64748
 Alpha virt. eigenvalues --    1.65133   1.65254   1.65760   1.66028   1.66222
 Alpha virt. eigenvalues --    1.66500   1.66698   1.67375   1.67759   1.67983
 Alpha virt. eigenvalues --    1.68149   1.68580   1.68794   1.69345   1.69631
 Alpha virt. eigenvalues --    1.70208   1.70422   1.70775   1.70957   1.71450
 Alpha virt. eigenvalues --    1.71712   1.72113   1.72685   1.72813   1.73189
 Alpha virt. eigenvalues --    1.73573   1.74016   1.74341   1.74531   1.74847
 Alpha virt. eigenvalues --    1.74971   1.75537   1.75855   1.76303   1.76737
 Alpha virt. eigenvalues --    1.76865   1.77124   1.77218   1.77791   1.78048
 Alpha virt. eigenvalues --    1.78151   1.78878   1.79089   1.79616   1.79868
 Alpha virt. eigenvalues --    1.79951   1.80194   1.80570   1.80837   1.81114
 Alpha virt. eigenvalues --    1.81534   1.81765   1.82085   1.82331   1.83033
 Alpha virt. eigenvalues --    1.83392   1.83526   1.83793   1.83891   1.84307
 Alpha virt. eigenvalues --    1.85196   1.85603   1.85942   1.86543   1.86706
 Alpha virt. eigenvalues --    1.87019   1.87282   1.87636   1.87979   1.88288
 Alpha virt. eigenvalues --    1.88880   1.88937   1.89132   1.89593   1.89699
 Alpha virt. eigenvalues --    1.90203   1.90468   1.90849   1.91556   1.91690
 Alpha virt. eigenvalues --    1.92443   1.92624   1.92866   1.93322   1.93697
 Alpha virt. eigenvalues --    1.93860   1.94029   1.94198   1.94634   1.95135
 Alpha virt. eigenvalues --    1.95640   1.95767   1.96434   1.97022   1.97344
 Alpha virt. eigenvalues --    1.97444   1.97742   1.98387   1.98807   1.99298
 Alpha virt. eigenvalues --    1.99401   1.99565   1.99816   2.00347   2.00688
 Alpha virt. eigenvalues --    2.01239   2.01595   2.02156   2.02311   2.02918
 Alpha virt. eigenvalues --    2.03101   2.03561   2.04015   2.04045   2.04152
 Alpha virt. eigenvalues --    2.04571   2.04969   2.05034   2.05156   2.05532
 Alpha virt. eigenvalues --    2.05667   2.06115   2.06300   2.06623   2.06864
 Alpha virt. eigenvalues --    2.07274   2.07433   2.07816   2.08123   2.08196
 Alpha virt. eigenvalues --    2.08557   2.08945   2.09195   2.09680   2.10204
 Alpha virt. eigenvalues --    2.10497   2.10972   2.11243   2.11869   2.12018
 Alpha virt. eigenvalues --    2.12365   2.12746   2.13122   2.13361   2.14038
 Alpha virt. eigenvalues --    2.14415   2.14980   2.15199   2.15549   2.15774
 Alpha virt. eigenvalues --    2.16306   2.16627   2.16787   2.17063   2.17699
 Alpha virt. eigenvalues --    2.17788   2.18359   2.18594   2.19336   2.19672
 Alpha virt. eigenvalues --    2.20286   2.20305   2.20397   2.20748   2.20852
 Alpha virt. eigenvalues --    2.21101   2.21746   2.22206   2.22683   2.23346
 Alpha virt. eigenvalues --    2.23418   2.23841   2.24408   2.24615   2.25220
 Alpha virt. eigenvalues --    2.25530   2.25792   2.26109   2.26396   2.26628
 Alpha virt. eigenvalues --    2.27235   2.27513   2.27782   2.28202   2.28427
 Alpha virt. eigenvalues --    2.29041   2.29405   2.29800   2.30115   2.30248
 Alpha virt. eigenvalues --    2.30426   2.30777   2.31082   2.31735   2.31921
 Alpha virt. eigenvalues --    2.32317   2.32600   2.33129   2.33592   2.33881
 Alpha virt. eigenvalues --    2.34082   2.34323   2.34706   2.35143   2.35609
 Alpha virt. eigenvalues --    2.35925   2.36106   2.36619   2.36966   2.36989
 Alpha virt. eigenvalues --    2.37615   2.37798   2.38211   2.38577   2.38741
 Alpha virt. eigenvalues --    2.39304   2.39605   2.40080   2.40442   2.41117
 Alpha virt. eigenvalues --    2.41395   2.41531   2.42126   2.42730   2.43139
 Alpha virt. eigenvalues --    2.43504   2.44196   2.44305   2.44442   2.44692
 Alpha virt. eigenvalues --    2.45357   2.45600   2.46025   2.46161   2.46622
 Alpha virt. eigenvalues --    2.46818   2.47116   2.47612   2.47834   2.47970
 Alpha virt. eigenvalues --    2.48410   2.48683   2.48883   2.49052   2.49185
 Alpha virt. eigenvalues --    2.49484   2.49559   2.49745   2.50057   2.50580
 Alpha virt. eigenvalues --    2.50845   2.51165   2.51270   2.51415   2.52189
 Alpha virt. eigenvalues --    2.52582   2.52631   2.52783   2.53123   2.53516
 Alpha virt. eigenvalues --    2.53812   2.53893   2.54184   2.54800   2.54948
 Alpha virt. eigenvalues --    2.55301   2.55622   2.55731   2.56076   2.56169
 Alpha virt. eigenvalues --    2.56336   2.56806   2.57507   2.57722   2.58368
 Alpha virt. eigenvalues --    2.58785   2.59242   2.59455   2.59589   2.59978
 Alpha virt. eigenvalues --    2.60361   2.60586   2.60827   2.61292   2.61536
 Alpha virt. eigenvalues --    2.61968   2.62125   2.62270   2.62350   2.62812
 Alpha virt. eigenvalues --    2.63222   2.63634   2.63952   2.64229   2.64547
 Alpha virt. eigenvalues --    2.64873   2.65357   2.65391   2.65785   2.65953
 Alpha virt. eigenvalues --    2.66105   2.66585   2.67044   2.67685   2.67818
 Alpha virt. eigenvalues --    2.68382   2.68849   2.69034   2.69716   2.69872
 Alpha virt. eigenvalues --    2.70046   2.70308   2.70494   2.71016   2.71348
 Alpha virt. eigenvalues --    2.71461   2.71871   2.72521   2.72610   2.72875
 Alpha virt. eigenvalues --    2.73060   2.73441   2.73815   2.73981   2.74376
 Alpha virt. eigenvalues --    2.74678   2.75176   2.75683   2.75882   2.76528
 Alpha virt. eigenvalues --    2.76725   2.76894   2.77206   2.77374   2.77490
 Alpha virt. eigenvalues --    2.78073   2.78220   2.78757   2.79084   2.79478
 Alpha virt. eigenvalues --    2.79562   2.79664   2.80217   2.80410   2.80895
 Alpha virt. eigenvalues --    2.81265   2.81354   2.81684   2.82013   2.82640
 Alpha virt. eigenvalues --    2.83113   2.83412   2.83629   2.83895   2.83957
 Alpha virt. eigenvalues --    2.84361   2.84803   2.84962   2.85599   2.85703
 Alpha virt. eigenvalues --    2.86273   2.86538   2.86708   2.87234   2.87340
 Alpha virt. eigenvalues --    2.87731   2.88133   2.88503   2.88709   2.89189
 Alpha virt. eigenvalues --    2.89270   2.89392   2.89794   2.89990   2.90421
 Alpha virt. eigenvalues --    2.90523   2.90835   2.91079   2.91326   2.91686
 Alpha virt. eigenvalues --    2.91888   2.92278   2.92463   2.92609   2.92949
 Alpha virt. eigenvalues --    2.93163   2.93671   2.94024   2.94054   2.94199
 Alpha virt. eigenvalues --    2.94649   2.95257   2.95434   2.95595   2.95859
 Alpha virt. eigenvalues --    2.96095   2.96834   2.97003   2.97347   2.97630
 Alpha virt. eigenvalues --    2.97949   2.98201   2.98656   2.98867   2.99121
 Alpha virt. eigenvalues --    2.99239   2.99903   3.00036   3.00217   3.00753
 Alpha virt. eigenvalues --    3.00919   3.01105   3.01137   3.01400   3.01751
 Alpha virt. eigenvalues --    3.01856   3.02159   3.02397   3.02644   3.02928
 Alpha virt. eigenvalues --    3.03270   3.03421   3.03707   3.03991   3.04550
 Alpha virt. eigenvalues --    3.04820   3.04902   3.05106   3.05210   3.05399
 Alpha virt. eigenvalues --    3.05828   3.05955   3.06603   3.06970   3.07145
 Alpha virt. eigenvalues --    3.07236   3.07558   3.07717   3.08078   3.08206
 Alpha virt. eigenvalues --    3.08232   3.08459   3.08734   3.09260   3.09330
 Alpha virt. eigenvalues --    3.09711   3.10108   3.10414   3.10558   3.10773
 Alpha virt. eigenvalues --    3.10993   3.11332   3.11778   3.11912   3.12052
 Alpha virt. eigenvalues --    3.12329   3.12702   3.13191   3.13446   3.13764
 Alpha virt. eigenvalues --    3.14043   3.14306   3.14854   3.14864   3.15291
 Alpha virt. eigenvalues --    3.15396   3.15635   3.15762   3.16051   3.16236
 Alpha virt. eigenvalues --    3.16413   3.16794   3.17030   3.17208   3.17288
 Alpha virt. eigenvalues --    3.17497   3.17791   3.17921   3.18169   3.18645
 Alpha virt. eigenvalues --    3.18780   3.19172   3.19521   3.19770   3.20003
 Alpha virt. eigenvalues --    3.20162   3.20405   3.20897   3.21092   3.21267
 Alpha virt. eigenvalues --    3.21523   3.21922   3.22018   3.22216   3.22580
 Alpha virt. eigenvalues --    3.22813   3.23155   3.23354   3.23534   3.23861
 Alpha virt. eigenvalues --    3.24074   3.24182   3.24497   3.24711   3.25331
 Alpha virt. eigenvalues --    3.25409   3.25598   3.25802   3.26110   3.26395
 Alpha virt. eigenvalues --    3.26511   3.26700   3.26801   3.27217   3.27298
 Alpha virt. eigenvalues --    3.27885   3.27915   3.28267   3.28612   3.28837
 Alpha virt. eigenvalues --    3.29029   3.29451   3.29689   3.29878   3.30019
 Alpha virt. eigenvalues --    3.30272   3.30444   3.31055   3.31156   3.31637
 Alpha virt. eigenvalues --    3.31665   3.31748   3.31903   3.32166   3.32618
 Alpha virt. eigenvalues --    3.32733   3.33107   3.33299   3.33448   3.33739
 Alpha virt. eigenvalues --    3.34029   3.34363   3.34601   3.34783   3.35331
 Alpha virt. eigenvalues --    3.35480   3.35950   3.36121   3.36547   3.36789
 Alpha virt. eigenvalues --    3.37054   3.37677   3.37835   3.37930   3.38450
 Alpha virt. eigenvalues --    3.38581   3.38830   3.39006   3.39816   3.40008
 Alpha virt. eigenvalues --    3.40342   3.40725   3.40815   3.40967   3.41182
 Alpha virt. eigenvalues --    3.41700   3.42062   3.42543   3.42928   3.43322
 Alpha virt. eigenvalues --    3.43709   3.43880   3.44211   3.44896   3.45231
 Alpha virt. eigenvalues --    3.45424   3.45548   3.45818   3.46301   3.46787
 Alpha virt. eigenvalues --    3.47053   3.47163   3.47596   3.48070   3.48157
 Alpha virt. eigenvalues --    3.48437   3.48905   3.49078   3.49599   3.50003
 Alpha virt. eigenvalues --    3.50425   3.50640   3.50816   3.51429   3.51597
 Alpha virt. eigenvalues --    3.51973   3.52416   3.52756   3.52931   3.53245
 Alpha virt. eigenvalues --    3.53900   3.54191   3.54410   3.54678   3.54936
 Alpha virt. eigenvalues --    3.55241   3.55532   3.55579   3.56041   3.56316
 Alpha virt. eigenvalues --    3.56462   3.56975   3.57338   3.57695   3.58294
 Alpha virt. eigenvalues --    3.58745   3.58900   3.59182   3.59316   3.59882
 Alpha virt. eigenvalues --    3.60103   3.60432   3.60666   3.61049   3.61304
 Alpha virt. eigenvalues --    3.61831   3.61871   3.62142   3.62584   3.63099
 Alpha virt. eigenvalues --    3.63245   3.63954   3.64165   3.64831   3.65342
 Alpha virt. eigenvalues --    3.65899   3.66033   3.66544   3.66768   3.67022
 Alpha virt. eigenvalues --    3.67702   3.67802   3.68446   3.68519   3.68911
 Alpha virt. eigenvalues --    3.69679   3.70091   3.70582   3.71082   3.71551
 Alpha virt. eigenvalues --    3.71925   3.72317   3.72658   3.73248   3.73904
 Alpha virt. eigenvalues --    3.74360   3.74589   3.75124   3.75849   3.76021
 Alpha virt. eigenvalues --    3.76707   3.76916   3.77503   3.78477   3.79040
 Alpha virt. eigenvalues --    3.79140   3.79705   3.80165   3.80325   3.81015
 Alpha virt. eigenvalues --    3.81451   3.82021   3.83155   3.83278   3.83593
 Alpha virt. eigenvalues --    3.84100   3.84438   3.85184   3.85381   3.85949
 Alpha virt. eigenvalues --    3.86145   3.86437   3.86896   3.87289   3.87874
 Alpha virt. eigenvalues --    3.88398   3.88640   3.89485   3.89627   3.89928
 Alpha virt. eigenvalues --    3.90642   3.90942   3.91568   3.91825   3.92109
 Alpha virt. eigenvalues --    3.92951   3.93775   3.94386   3.94401   3.95052
 Alpha virt. eigenvalues --    3.95133   3.95588   3.96290   3.96642   3.97481
 Alpha virt. eigenvalues --    3.97742   3.98378   3.98624   3.99670   3.99846
 Alpha virt. eigenvalues --    4.00038   4.00506   4.00834   4.02515   4.02863
 Alpha virt. eigenvalues --    4.03007   4.03333   4.03547   4.04207   4.04767
 Alpha virt. eigenvalues --    4.05130   4.05756   4.06505   4.06733   4.07513
 Alpha virt. eigenvalues --    4.07671   4.08238   4.08601   4.09030   4.09653
 Alpha virt. eigenvalues --    4.10404   4.10710   4.10877   4.11308   4.12100
 Alpha virt. eigenvalues --    4.12671   4.12810   4.13575   4.13972   4.14077
 Alpha virt. eigenvalues --    4.14225   4.14987   4.15054   4.15578   4.15957
 Alpha virt. eigenvalues --    4.16885   4.17221   4.17486   4.18277   4.18923
 Alpha virt. eigenvalues --    4.19338   4.19677   4.20014   4.20507   4.21230
 Alpha virt. eigenvalues --    4.21431   4.21756   4.22119   4.22722   4.22791
 Alpha virt. eigenvalues --    4.23332   4.23763   4.24676   4.25250   4.26009
 Alpha virt. eigenvalues --    4.26160   4.26961   4.27638   4.28041   4.28143
 Alpha virt. eigenvalues --    4.28887   4.29597   4.29763   4.30065   4.30486
 Alpha virt. eigenvalues --    4.31007   4.31470   4.31877   4.32701   4.33528
 Alpha virt. eigenvalues --    4.33614   4.34273   4.34411   4.34913   4.35545
 Alpha virt. eigenvalues --    4.36006   4.36522   4.36662   4.37297   4.38215
 Alpha virt. eigenvalues --    4.38836   4.39695   4.40448   4.42378   4.43375
 Alpha virt. eigenvalues --    4.43935   4.44335   4.44689   4.44903   4.45908
 Alpha virt. eigenvalues --    4.46128   4.46575   4.47544   4.47981   4.48456
 Alpha virt. eigenvalues --    4.48711   4.50392   4.50790   4.50988   4.51978
 Alpha virt. eigenvalues --    4.52399   4.52906   4.53541   4.53650   4.55119
 Alpha virt. eigenvalues --    4.55587   4.55918   4.56242   4.56271   4.56759
 Alpha virt. eigenvalues --    4.57456   4.57855   4.58722   4.59419   4.59678
 Alpha virt. eigenvalues --    4.60083   4.60872   4.61176   4.61549   4.62088
 Alpha virt. eigenvalues --    4.63068   4.63796   4.65018   4.65761   4.65816
 Alpha virt. eigenvalues --    4.66020   4.66815   4.67749   4.68442   4.69361
 Alpha virt. eigenvalues --    4.69891   4.70196   4.71174   4.71716   4.72099
 Alpha virt. eigenvalues --    4.73180   4.73261   4.73809   4.74511   4.75598
 Alpha virt. eigenvalues --    4.75938   4.76077   4.77146   4.77514   4.78159
 Alpha virt. eigenvalues --    4.78487   4.79032   4.80037   4.80105   4.80613
 Alpha virt. eigenvalues --    4.81799   4.82558   4.82797   4.83002   4.84820
 Alpha virt. eigenvalues --    4.84934   4.85670   4.86609   4.87036   4.88091
 Alpha virt. eigenvalues --    4.89105   4.90235   4.90868   4.92213   4.94188
 Alpha virt. eigenvalues --    4.94346   4.94599   4.95202   4.98027   4.98987
 Alpha virt. eigenvalues --    4.99741   5.01205   5.02098   5.02967   5.04790
 Alpha virt. eigenvalues --    5.05052   5.05555   5.07257   5.08613   5.09070
 Alpha virt. eigenvalues --    5.10082   5.10723   5.11610   5.12272   5.12371
 Alpha virt. eigenvalues --    5.13055   5.13225   5.14131   5.14709   5.15269
 Alpha virt. eigenvalues --    5.15669   5.16597   5.17406   5.18464   5.18824
 Alpha virt. eigenvalues --    5.20097   5.20652   5.21466   5.23095   5.24009
 Alpha virt. eigenvalues --    5.24062   5.24387   5.24777   5.26382   5.28643
 Alpha virt. eigenvalues --    5.28824   5.29411   5.32178   5.32955   5.33238
 Alpha virt. eigenvalues --    5.33659   5.34565   5.35127   5.35183   5.35864
 Alpha virt. eigenvalues --    5.36969   5.37968   5.38521   5.42222   5.44042
 Alpha virt. eigenvalues --    5.45227   5.45956   5.47630   5.48061   5.49353
 Alpha virt. eigenvalues --    5.49875   5.50543   5.51526   5.52365   5.52495
 Alpha virt. eigenvalues --    5.53389   5.53889   5.55275   5.56382   5.61001
 Alpha virt. eigenvalues --    5.61951   5.64716   5.65811   5.66619   5.68078
 Alpha virt. eigenvalues --    5.70206   5.71180   5.73362   5.74646   5.79602
 Alpha virt. eigenvalues --    5.80447   5.83743   5.84508   5.84992   5.85381
 Alpha virt. eigenvalues --    5.85995   5.86584   5.87047   5.91826   5.96746
 Alpha virt. eigenvalues --    5.97032   5.98128   5.98832   5.99559   6.01868
 Alpha virt. eigenvalues --    6.04487   6.06074   6.06660   6.09867   6.14224
 Alpha virt. eigenvalues --    6.15342   6.16823   6.17833   6.20474   6.23266
 Alpha virt. eigenvalues --    6.28279   6.29863   6.32711   6.35006   6.38606
 Alpha virt. eigenvalues --    6.39521   6.41724   6.42237   6.47644   6.57560
 Alpha virt. eigenvalues --    6.63870   6.68390   6.72723   6.78256   6.79432
 Alpha virt. eigenvalues --    6.88698   6.91895   6.98816   6.99704   7.05569
 Alpha virt. eigenvalues --    7.10626   7.13307   7.14157   7.15952   7.27949
 Alpha virt. eigenvalues --    9.06083   9.37368   9.47038  19.98045  22.28286
 Alpha virt. eigenvalues --   22.29653  22.32681  22.36842  22.42545  22.44370
 Alpha virt. eigenvalues --   22.45919  22.46405  22.47102  22.48773  22.58288
 Alpha virt. eigenvalues --   22.58601  22.61159  22.64621  22.67408  22.68043
 Alpha virt. eigenvalues --   22.68439  22.76231  22.77960  22.80390  22.82950
 Alpha virt. eigenvalues --   22.86659  22.89648  22.96351  22.99959  23.04234
 Alpha virt. eigenvalues --   23.07628  23.09773  23.10939  23.18444  23.21947
 Alpha virt. eigenvalues --   23.23426  23.29350  23.35568  23.39267  23.44305
 Alpha virt. eigenvalues --   23.55162  23.58404  23.59815  23.62440  23.71620
 Alpha virt. eigenvalues --   32.38073  32.63264  32.81382  32.87818  32.89669
 Alpha virt. eigenvalues --   32.99783  43.88773  43.91864  43.98105  44.08464
  Beta  occ. eigenvalues -- -256.51740 -89.13970 -30.28036 -26.10977 -26.10960
  Beta  occ. eigenvalues --  -26.10235 -19.33560 -19.31390 -19.26931 -19.23653
  Beta  occ. eigenvalues --  -14.54783 -14.50563 -14.49309 -14.48914 -14.48885
  Beta  occ. eigenvalues --  -14.48711 -10.44013 -10.40921 -10.38457 -10.36011
  Beta  occ. eigenvalues --  -10.35963 -10.35875 -10.35729 -10.35710 -10.35677
  Beta  occ. eigenvalues --  -10.35409 -10.35062 -10.34955 -10.34073 -10.33885
  Beta  occ. eigenvalues --  -10.33701 -10.33185 -10.32756 -10.32708 -10.32689
  Beta  occ. eigenvalues --  -10.32609 -10.32516 -10.32510 -10.32362 -10.32346
  Beta  occ. eigenvalues --  -10.32217 -10.32151 -10.32099 -10.31756 -10.31666
  Beta  occ. eigenvalues --  -10.31548 -10.31436 -10.31344 -10.30867 -10.30696
  Beta  occ. eigenvalues --  -10.30633 -10.30519 -10.30423 -10.29932 -10.29779
  Beta  occ. eigenvalues --  -10.29532 -10.29525  -8.11733  -6.05365  -6.05107
  Beta  occ. eigenvalues --   -6.04604  -3.60371  -2.36181  -2.35504  -2.34602
  Beta  occ. eigenvalues --   -1.24451  -1.22496  -1.17006  -1.11201  -1.08918
  Beta  occ. eigenvalues --   -1.07770  -1.06778  -1.06470  -1.05427  -1.01349
  Beta  occ. eigenvalues --   -0.94837  -0.93577  -0.93075  -0.92331  -0.91845
  Beta  occ. eigenvalues --   -0.91658  -0.91190  -0.90710  -0.90118  -0.88206
  Beta  occ. eigenvalues --   -0.86936  -0.86395  -0.85846  -0.84885  -0.84802
  Beta  occ. eigenvalues --   -0.82750  -0.82221  -0.81470  -0.81046  -0.80855
  Beta  occ. eigenvalues --   -0.79016  -0.78486  -0.78350  -0.76924  -0.75575
  Beta  occ. eigenvalues --   -0.74994  -0.74806  -0.74359  -0.72424  -0.72228
  Beta  occ. eigenvalues --   -0.70917  -0.70586  -0.70119  -0.68696  -0.67628
  Beta  occ. eigenvalues --   -0.66741  -0.65289  -0.64696  -0.63986  -0.63646
  Beta  occ. eigenvalues --   -0.62515  -0.61785  -0.61353  -0.60942  -0.59629
  Beta  occ. eigenvalues --   -0.59549  -0.58901  -0.58671  -0.58105  -0.57929
  Beta  occ. eigenvalues --   -0.57894  -0.57724  -0.57586  -0.57331  -0.56840
  Beta  occ. eigenvalues --   -0.55752  -0.55071  -0.54837  -0.54401  -0.54263
  Beta  occ. eigenvalues --   -0.54080  -0.53958  -0.53602  -0.53379  -0.53308
  Beta  occ. eigenvalues --   -0.52891  -0.52832  -0.52701  -0.52524  -0.52358
  Beta  occ. eigenvalues --   -0.52240  -0.51900  -0.51703  -0.51532  -0.51432
  Beta  occ. eigenvalues --   -0.51270  -0.51107  -0.50806  -0.50474  -0.50302
  Beta  occ. eigenvalues --   -0.50160  -0.50038  -0.49754  -0.49587  -0.49124
  Beta  occ. eigenvalues --   -0.49015  -0.48775  -0.48536  -0.48198  -0.47714
  Beta  occ. eigenvalues --   -0.47585  -0.47274  -0.46986  -0.46765  -0.46570
  Beta  occ. eigenvalues --   -0.46044  -0.45766  -0.45347  -0.44960  -0.44667
  Beta  occ. eigenvalues --   -0.44479  -0.44114  -0.43632  -0.42970  -0.42849
  Beta  occ. eigenvalues --   -0.42577  -0.42419  -0.42020  -0.41655  -0.41412
  Beta  occ. eigenvalues --   -0.41363  -0.40718  -0.39286  -0.39028  -0.38704
  Beta  occ. eigenvalues --   -0.38233  -0.36901  -0.36790  -0.36586  -0.35795
  Beta  occ. eigenvalues --   -0.34521  -0.33728  -0.33582  -0.32774  -0.31338
  Beta  occ. eigenvalues --   -0.30436  -0.29204  -0.28128
  Beta virt. eigenvalues --   -0.19738  -0.17474  -0.17330  -0.16216  -0.13167
  Beta virt. eigenvalues --   -0.11354  -0.10784  -0.10444  -0.08158  -0.07624
  Beta virt. eigenvalues --   -0.07270  -0.06194  -0.05818  -0.05316  -0.05291
  Beta virt. eigenvalues --   -0.05073  -0.04705  -0.03995  -0.03600  -0.03043
  Beta virt. eigenvalues --   -0.02592  -0.02419  -0.02094  -0.01747  -0.01392
  Beta virt. eigenvalues --   -0.01310  -0.01110  -0.01050  -0.00805  -0.00197
  Beta virt. eigenvalues --    0.00078   0.00205   0.00469   0.00789   0.00894
  Beta virt. eigenvalues --    0.01359   0.01526   0.01976   0.02194   0.02519
  Beta virt. eigenvalues --    0.02785   0.03001   0.03253   0.03445   0.03521
  Beta virt. eigenvalues --    0.03808   0.03873   0.04024   0.04222   0.04576
  Beta virt. eigenvalues --    0.04836   0.05052   0.05275   0.05374   0.05884
  Beta virt. eigenvalues --    0.05955   0.06142   0.06260   0.06406   0.06553
  Beta virt. eigenvalues --    0.06643   0.06766   0.07210   0.07322   0.07507
  Beta virt. eigenvalues --    0.07833   0.07873   0.07960   0.08369   0.08538
  Beta virt. eigenvalues --    0.08566   0.08937   0.09042   0.09160   0.09493
  Beta virt. eigenvalues --    0.09647   0.09750   0.09956   0.10021   0.10537
  Beta virt. eigenvalues --    0.10646   0.11066   0.11176   0.11438   0.11617
  Beta virt. eigenvalues --    0.11764   0.12029   0.12035   0.12509   0.12694
  Beta virt. eigenvalues --    0.12875   0.12933   0.13126   0.13314   0.13514
  Beta virt. eigenvalues --    0.13695   0.13821   0.13977   0.14114   0.14443
  Beta virt. eigenvalues --    0.14883   0.15068   0.15115   0.15195   0.15431
  Beta virt. eigenvalues --    0.15736   0.15798   0.15929   0.16299   0.16543
  Beta virt. eigenvalues --    0.16581   0.16778   0.17044   0.17371   0.17611
  Beta virt. eigenvalues --    0.17722   0.17974   0.18096   0.18378   0.18506
  Beta virt. eigenvalues --    0.18796   0.19093   0.19189   0.19366   0.19542
  Beta virt. eigenvalues --    0.19699   0.19820   0.20215   0.20454   0.20729
  Beta virt. eigenvalues --    0.20885   0.20981   0.21139   0.21388   0.21878
  Beta virt. eigenvalues --    0.22177   0.22276   0.22390   0.22609   0.22687
  Beta virt. eigenvalues --    0.23091   0.23177   0.23505   0.23920   0.23999
  Beta virt. eigenvalues --    0.24188   0.24542   0.24870   0.25036   0.25443
  Beta virt. eigenvalues --    0.25915   0.26018   0.26178   0.26362   0.26672
  Beta virt. eigenvalues --    0.26721   0.26841   0.27267   0.27313   0.27495
  Beta virt. eigenvalues --    0.27763   0.27952   0.28094   0.28137   0.28389
  Beta virt. eigenvalues --    0.28700   0.28798   0.28939   0.29227   0.29431
  Beta virt. eigenvalues --    0.29626   0.29720   0.29799   0.30115   0.30479
  Beta virt. eigenvalues --    0.30579   0.30787   0.30895   0.31180   0.31259
  Beta virt. eigenvalues --    0.31504   0.31678   0.31909   0.32250   0.32283
  Beta virt. eigenvalues --    0.32552   0.32586   0.32946   0.33205   0.33250
  Beta virt. eigenvalues --    0.33563   0.33702   0.33745   0.34019   0.34219
  Beta virt. eigenvalues --    0.34301   0.34421   0.34767   0.34859   0.35041
  Beta virt. eigenvalues --    0.35337   0.35442   0.35617   0.35701   0.35848
  Beta virt. eigenvalues --    0.36079   0.36374   0.36491   0.36561   0.36716
  Beta virt. eigenvalues --    0.36824   0.37092   0.37291   0.37636   0.37815
  Beta virt. eigenvalues --    0.37892   0.38030   0.38192   0.38409   0.38534
  Beta virt. eigenvalues --    0.38876   0.38928   0.39017   0.39393   0.39509
  Beta virt. eigenvalues --    0.39671   0.39724   0.39936   0.40189   0.40343
  Beta virt. eigenvalues --    0.40497   0.40613   0.40849   0.40939   0.41080
  Beta virt. eigenvalues --    0.41359   0.41800   0.41824   0.41944   0.42191
  Beta virt. eigenvalues --    0.42373   0.42720   0.42909   0.42974   0.43184
  Beta virt. eigenvalues --    0.43337   0.43449   0.43640   0.43695   0.43780
  Beta virt. eigenvalues --    0.44066   0.44279   0.44314   0.44685   0.44745
  Beta virt. eigenvalues --    0.45008   0.45269   0.45281   0.45373   0.45647
  Beta virt. eigenvalues --    0.45910   0.46064   0.46256   0.46464   0.46683
  Beta virt. eigenvalues --    0.46921   0.47174   0.47462   0.47595   0.47657
  Beta virt. eigenvalues --    0.47834   0.47999   0.48185   0.48598   0.48735
  Beta virt. eigenvalues --    0.48856   0.49212   0.49458   0.49522   0.49699
  Beta virt. eigenvalues --    0.49920   0.50221   0.50452   0.50656   0.50981
  Beta virt. eigenvalues --    0.51167   0.51308   0.51576   0.51891   0.52098
  Beta virt. eigenvalues --    0.52296   0.52607   0.52693   0.52844   0.53076
  Beta virt. eigenvalues --    0.53224   0.53445   0.54034   0.54366   0.54510
  Beta virt. eigenvalues --    0.54815   0.55527   0.55698   0.55927   0.56197
  Beta virt. eigenvalues --    0.56415   0.56556   0.56699   0.56975   0.57207
  Beta virt. eigenvalues --    0.57397   0.57662   0.57937   0.58140   0.58443
  Beta virt. eigenvalues --    0.58649   0.58714   0.59051   0.59322   0.59363
  Beta virt. eigenvalues --    0.59790   0.60114   0.60486   0.60768   0.61063
  Beta virt. eigenvalues --    0.61247   0.61279   0.61701   0.61724   0.62211
  Beta virt. eigenvalues --    0.62216   0.62334   0.62824   0.63247   0.63326
  Beta virt. eigenvalues --    0.63529   0.63857   0.63978   0.64243   0.64559
  Beta virt. eigenvalues --    0.64799   0.64826   0.65413   0.65618   0.65866
  Beta virt. eigenvalues --    0.66045   0.66370   0.66525   0.66624   0.67376
  Beta virt. eigenvalues --    0.67698   0.67963   0.68400   0.68486   0.68569
  Beta virt. eigenvalues --    0.68868   0.69441   0.69913   0.69992   0.70143
  Beta virt. eigenvalues --    0.70746   0.71310   0.71476   0.71631   0.71869
  Beta virt. eigenvalues --    0.72295   0.72615   0.73046   0.73246   0.73443
  Beta virt. eigenvalues --    0.73881   0.73947   0.74139   0.74324   0.74662
  Beta virt. eigenvalues --    0.74951   0.75222   0.75333   0.75767   0.75942
  Beta virt. eigenvalues --    0.76232   0.76356   0.76721   0.76856   0.77371
[...]
  1684. RY*(   3) H  73                  0.00006     2.17724   
  1685. RY*(   4) H  73                  0.00003     2.01202   
  1686. RY*(   5) H  73                  0.00000     2.98434   
  1687. RY*(   1) H  74                  0.00034     1.01474   
  1688. RY*(   2) H  74                  0.00009     1.63223   
  1689. RY*(   3) H  74                  0.00003     2.07568   
  1690. RY*(   4) H  74                  0.00002     2.06707   
  1691. RY*(   5) H  74                  0.00001     2.77437   
  1692. RY*(   1) H  75                  0.00105     0.60555   
  1693. RY*(   2) H  75                  0.00014     2.10063   
  1694. RY*(   3) H  75                  0.00012     2.16355   
  1695. RY*(   4) H  75                  0.00007     2.97159   
  1696. RY*(   5) H  75                  0.00001     3.15924   
  1697. RY*(   1) H  76                  0.00078     0.79960   
  1698. RY*(   2) H  76                  0.00014     2.12187   
  1699. RY*(   3) H  76                  0.00011     2.10824   
  1700. RY*(   4) H  76                  0.00006     2.91059   
  1701. RY*(   5) H  76                  0.00001     3.17886   
  1702. RY*(   1) H  77                  0.00021     1.26473   
  1703. RY*(   2) H  77                  0.00008     1.81741   
  1704. RY*(   3) H  77                  0.00003     2.04333   
  1705. RY*(   4) H  77                  0.00001     2.11994   
  1706. RY*(   5) H  77                  0.00000     2.44808   
  1707. RY*(   1) H  78                  0.00036     0.96610   
  1708. RY*(   2) H  78                  0.00008     1.67665   
  1709. RY*(   3) H  78                  0.00003     2.09470   
  1710. RY*(   4) H  78                  0.00003     1.91572   
  1711. RY*(   5) H  78                  0.00000     2.81255   
  1712. RY*(   1) H  79                  0.00039     0.91291   
  1713. RY*(   2) H  79                  0.00008     1.66656   
  1714. RY*(   3) H  79                  0.00003     2.05304   
  1715. RY*(   4) H  79                  0.00003     1.95388   
  1716. RY*(   5) H  79                  0.00000     2.89077   
  1717. RY*(   1) H  80                  0.00077     0.68345   
  1718. RY*(   2) H  80                  0.00012     2.09181   
  1719. RY*(   3) H  80                  0.00013     2.15749   
  1720. RY*(   4) H  80                  0.00006     2.95259   
  1721. RY*(   5) H  80                  0.00000     3.17751   
  1722. RY*(   1) H  81                  0.00119     0.60586   
  1723. RY*(   2) H  81                  0.00012     2.12560   
  1724. RY*(   3) H  81                  0.00013     2.16019   
  1725. RY*(   4) H  81                  0.00007     2.93993   
  1726. RY*(   5) H  81                  0.00000     3.12632   
  1727. RY*(   1) H  82                  0.00044     1.01231   
  1728. RY*(   2) H  82                  0.00010     1.76116   
  1729. RY*(   3) H  82                  0.00006     1.89124   
  1730. RY*(   4) H  82                  0.00003     2.00297   
  1731. RY*(   5) H  82                  0.00001     2.94472   
  1732. RY*(   1) H  83                  0.00024     1.27812   
  1733. RY*(   2) H  83                  0.00010     1.79578   
  1734. RY*(   3) H  83                  0.00002     2.52616   
  1735. RY*(   4) H  83                  0.00003     2.13711   
  1736. RY*(   5) H  83                  0.00001     2.04634   
  1737. RY*(   1) H  84                  0.00040     0.84346   
  1738. RY*(   2) H  84                  0.00009     1.64976   
  1739. RY*(   3) H  84                  0.00004     2.09827   
  1740. RY*(   4) H  84                  0.00002     2.04675   
  1741. RY*(   5) H  84                  0.00001     2.94102   
  1742. RY*(   1) H  85                  0.00022     1.31239   
  1743. RY*(   2) H  85                  0.00010     1.77067   
  1744. RY*(   3) H  85                  0.00002     2.09584   
  1745. RY*(   4) H  85                  0.00002     2.19275   
  1746. RY*(   5) H  85                  0.00001     2.32347   
  1747. RY*(   1) H  86                  0.00044     0.92786   
  1748. RY*(   2) H  86                  0.00008     1.57542   
  1749. RY*(   3) H  86                  0.00004     2.09494   
  1750. RY*(   4) H  86                  0.00001     2.32370   
  1751. RY*(   5) H  86                  0.00001     2.57039   
  1752. RY*(   1) H  87                  0.00043     0.77681   
  1753. RY*(   2) H  87                  0.00009     1.68412   
  1754. RY*(   3) H  87                  0.00006     2.06907   
  1755. RY*(   4) H  87                  0.00002     2.47213   
  1756. RY*(   5) H  87                  0.00002     2.56549   
  1787. RY*(   1) H  94                  0.00033     0.84276   
  1788. RY*(   2) H  94                  0.00011     2.10742   
  1789. RY*(   3) H  94                  0.00008     2.11131   
  1790. RY*(   4) H  94                  0.00004     2.72266   
  1791. RY*(   5) H  94                  0.00001     3.03206   
  1792. RY*(   1) H  95                  0.00033     1.18491   
  1793. RY*(   2) H  95                  0.00011     1.78862   
  1794. RY*(   3) H  95                  0.00008     1.92439   
  1795. RY*(   4) H  95                  0.00003     2.26591   
  1796. RY*(   5) H  95                  0.00002     2.49995   
  1797. RY*(   1) H  96                  0.00016     1.36509   
  1798. RY*(   2) H  96                  0.00010     1.20066   
  1799. RY*(   3) H  96                  0.00006     1.89552   
  1800. RY*(   4) H  96                  0.00001     3.01983   
  1801. RY*(   5) H  96                  0.00000     1.79091   
  1802. RY*(   1) H  97                  0.00035     1.67948   
  1803. RY*(   2) H  97                  0.00006     1.07323   
  1804. RY*(   3) H  97                  0.00006     2.14927   
  1805. RY*(   4) H  97                  0.00004     2.63509   
  1806. RY*(   5) H  97                  0.00000     3.03664   
  1807. RY*(   1) H  98                  0.00031     1.23432   
  1808. RY*(   2) H  98                  0.00010     1.55017   
  1809. RY*(   3) H  98                  0.00002     2.14874   
  1810. RY*(   4) H  98                  0.00002     2.44117   
  1811. RY*(   5) H  98                  0.00000     1.84564   
  1812. RY*(   1) H  99                  0.00034     1.37365   
  1813. RY*(   2) H  99                  0.00010     1.40296   
  1814. RY*(   3) H  99                  0.00011     1.98512   
  1815. RY*(   4) H  99                  0.00003     2.54197   
  1816. RY*(   5) H  99                  0.00003     2.25764   
  1831. BD*(   1) C   7 - C   8          0.00506     0.26969   
  1832. BD*(   1) C   7 - H  54          0.00397     0.32001   
  1833. BD*(   1) C   7 - H  55          0.00278     0.32076   
  1834. BD*(   1) C   7 - H  56          0.00287     0.33034   
  1835. BD*(   1) C   8 - S   9          0.01779     0.07578   
  1836. BD*(   1) C   8 - H  57          0.00597     0.31323   
  1837. BD*(   1) C   8 - H  58          0.01160     0.29373   
  1838. BD*(   1) S   9 - C  10          0.01293     0.05977   
  1839. BD*(   1) S   9 -Fe  53          0.05776     0.11227   
  1840. BD*(   1) C  10 - H  59          0.00369     0.30008   
  1841. BD*(   1) C  10 - H  60          0.00741     0.30028   
  1842. BD*(   1) C  10 - H  61          0.00545     0.29864   
  1843. BD*(   1) C  11 - C  15          0.01003     0.40325   
  1844. BD*(   2) C  11 - C  15          0.20259    -0.06581  1862(v),196(v),468(g)
                                                    1848(r),576(g)
  1845. BD*(   1) C  11 - C  42          0.00986     0.40992   
  1846. BD*(   1) C  11 - H  76          0.00566     0.37219   
  1847. BD*(   1) C  12 - C  18          0.01057     0.47748   
  1848. BD*(   2) C  12 - C  18          0.19982    -0.05245  1862(v),1882(v),1852(r)
                                                    494(g),654(g),1844(r)
  1849. BD*(   1) C  12 - C  25          0.01011     0.48812   
  1850. BD*(   1) C  12 - H  75          0.00734     0.35778   
  1851. BD*(   1) C  13 - C  28          0.00994     0.45784   
  1852. BD*(   2) C  13 - C  28          0.18722    -0.05420  1884(v),1899(v),1882(v)
                                                    1893(r),1848(r),1856(r)
                                                    914(g),521(g)
  1853. BD*(   1) C  13 - C  32          0.01034     0.46111   
  1854. BD*(   1) C  13 - H  81          0.00671     0.35493   
  1855. BD*(   1) C  14 - C  35          0.00995     0.46080   
  1856. BD*(   2) C  14 - C  35          0.20013    -0.05877  1901(v),1916(v),1899(v)
                                                    1910(r),547(g),1852(r)
                                                    1096(g)
  1857. BD*(   1) C  14 - C  39          0.01015     0.46367   
  1858. BD*(   1) C  14 - H  80          0.00705     0.35235   
  1859. BD*(   1) C  15 - C  16          0.01602     0.36639   
  1860. BD*(   1) C  15 - N  49          0.01332     0.37556   
  1861. BD*(   1) C  16 - C  17          0.01020     0.47053   
  1862. BD*(   2) C  16 - C  17          0.11898    -0.03248  1848(v),1844(v),1870(v)
                                                    1869(v),1871(v),1877(r)
  1863. BD*(   1) C  16 - C  20          0.01200     0.28368   
  1864. BD*(   1) C  17 - C  18          0.01574     0.39393   
  1865. BD*(   1) C  17 - C  19          0.00815     0.27043   
  1866. BD*(   1) C  18 - N  49          0.01472     0.36817   
  1867. BD*(   1) C  19 - H  72          0.00305     0.33008   
  1868. BD*(   1) C  19 - H  73          0.00301     0.34473   
  1869. BD*(   1) C  19 - H  74          0.00407     0.32811   
  1870. BD*(   1) C  20 - C  21          0.00752     0.28325   
  1871. BD*(   1) C  20 - H  70          0.00692     0.33647   
  1872. BD*(   1) C  20 - H  71          0.00576     0.34123   
  1873. BD*(   1) C  21 - C  22          0.03770     0.28176   
  1874. BD*(   1) C  21 - H  68          0.00575     0.32734   
  1875. BD*(   1) C  21 - H  69          0.00577     0.34322   
  1876. BD*(   1) C  22 - O  23          0.01786     0.51974   
  1877. BD*(   2) C  22 - O  23          0.10156    -0.05220  1879(v),1874(v),1870(v)
                                                    1862(r)
  1878. BD*(   1) C  22 - O  24          0.03611     0.43914   
  1879. BD*(   1) O  24 - H  63          0.00733     0.32261   
  1880. BD*(   1) C  25 - C  26          0.01410     0.41063   
  1881. BD*(   1) C  25 - N  50          0.01542     0.33598   
  1882. BD*(   2) C  25 - N  50          0.34302    -0.10595  1848(v),1884(v),1852(v)
                                                    204(v),834(g),1484(g),494(v)
                                                    1827(r),1916(r),498(v)
  1883. BD*(   1) C  26 - C  27          0.01076     0.46839   
  1884. BD*(   2) C  26 - C  27          0.16010    -0.03760  1893(v),1852(v),1882(v)
                                                    1891(v),1889(v),887(g)
  1885. BD*(   1) C  26 - C  29          0.00840     0.26329   
  1886. BD*(   1) C  27 - C  28          0.01648     0.34360   
  1887. BD*(   1) C  27 - C  30          0.01006     0.40938   
  1888. BD*(   1) C  28 - N  50          0.01177     0.35917   
  1889. BD*(   1) C  29 - H  82          0.00510     0.32998   
  1890. BD*(   1) C  29 - H  83          0.00441     0.34239   
  1891. BD*(   1) C  29 - H  84          0.00458     0.32366   
  1892. BD*(   1) C  30 - C  31          0.00258     0.44477   
  1893. BD*(   2) C  30 - C  31          0.04584    -0.05817   
  1894. BD*(   1) C  30 - H  97          0.00700     0.35477   
  1895. BD*(   1) C  31 - H  98          0.00280     0.36188   
  1896. BD*(   1) C  31 - H  99          0.00392     0.35759   
  1897. BD*(   1) C  32 - C  33          0.01545     0.36482   
  1898. BD*(   1) C  32 - N  51          0.01319     0.37054   
  1899. BD*(   2) C  32 - N  51          0.32268    -0.10173  1852(v),1901(v),1856(v)
                                                    1016(g),204(v),1508(g)
                                                    205(v)
  1900. BD*(   1) C  33 - C  34          0.01107     0.45344   
  1901. BD*(   2) C  33 - C  34          0.15101    -0.04206  1910(v),1856(v),1899(v)
                                                    1907(v),1068(g),1908(v)
  1902. BD*(   1) C  33 - C  36          0.00752     0.26233   
  1903. BD*(   1) C  34 - C  35          0.01557     0.36444   
  1904. BD*(   1) C  34 - C  37          0.01118     0.40703   
  1905. BD*(   1) C  35 - N  51          0.01333     0.34300   
  1906. BD*(   1) C  36 - H  85          0.00335     0.33438   
  1907. BD*(   1) C  36 - H  86          0.00443     0.32312   
  1908. BD*(   1) C  36 - H  87          0.00423     0.32757   
  1909. BD*(   1) C  37 - C  38          0.00281     0.44805   
  1910. BD*(   2) C  37 - C  38          0.04213    -0.05605   
  1911. BD*(   1) C  37 - H  94          0.00741     0.36233   
  1912. BD*(   1) C  38 - H  95          0.00526     0.37339   
  1913. BD*(   1) C  38 - H  96          0.00275     0.36833   
  1914. BD*(   1) C  39 - C  40          0.01582     0.38328   
  1915. BD*(   1) C  39 - N  52          0.01449     0.35366   
  1916. BD*(   2) C  39 - N  52          0.34503    -0.10886  1856(v),1918(v),196(v)
                                                    204(v),1197(g),205(v)
                                                    1536(g),1198(g),547(v)
                                                    1839(v),1882(r),1827(r)
  1917. BD*(   1) C  40 - C  41          0.01014     0.48988   
  1918. BD*(   2) C  40 - C  41          0.12674    -0.03434  1916(v),196(v),1926(v)
                                                    1925(v),1924(v),1224(g)
                                                    1928(v)
  1919. BD*(   1) C  40 - C  43          0.00837     0.26706   
  1920. BD*(   1) C  41 - C  42          0.01649     0.37052   
  1921. BD*(   1) C  41 - C  44          0.01024     0.29411   
  1922. BD*(   1) C  42 - N  52          0.01324     0.37448   
  1923. BD*(   1) C  43 - H  77          0.00225     0.32379   
  1924. BD*(   1) C  43 - H  78          0.00337     0.32023   
  1925. BD*(   1) C  43 - H  79          0.00393     0.31750   
  1926. BD*(   1) C  44 - C  45          0.00584     0.26747   
  1927. BD*(   1) C  44 - H  66          0.00603     0.32796   
  1928. BD*(   1) C  44 - H  67          0.00570     0.32487   
  1929. BD*(   1) C  45 - C  46          0.03874     0.26788   
  1930. BD*(   1) C  45 - H  64          0.00491     0.30306   
  1931. BD*(   1) C  45 - H  65          0.00562     0.30909   
  1932. BD*(   1) C  46 - O  47          0.03479     0.40594   
  1933. BD*(   1) C  46 - O  48          0.02632     0.42687   
  1934. BD*(   2) C  46 - O  48          0.08538    -0.06870   
  1935. BD*(   1) O  47 - H  62          0.00682     0.29362   
  1936. BD*(   1) N  49 -Fe  53          0.03172     0.28011   
  1937. BD*(   1) N  50 -Fe  53          0.04072     0.27483   
  1938. BD*(   1) N  51 -Fe  53          0.03130     0.27644   
  1939. BD*(   1) N  52 -Fe  53          0.03822     0.25543   
       -------------------------------
              Total Lewis  176.85434  ( 97.6145%)
        Valence non-Lewis    3.97770  (  2.1955%)
        Rydberg non-Lewis    0.34428  (  0.1900%)
       -------------------------------
            Total unit  2  181.17632  (100.0000%)
           Charge unit  2    0.82368
 1\1\GINC-NODE618\SP\UPBE1PBE\def2TZVP\C41H46Fe1N6O4S1(1+,2)\ZHARTOVSKA
 \29-Aug-2022\0\\# PBE1PBE/def2TZVP empiricaldispersion=GD3BJ int=(grid
 =ultrafine) geom=check pop=nbo\\1v9z_III_D\\1,2\C,0,-2.723,-19.658001,
 -18.360001\C,0,-2.108,-18.688999,-17.408001\N,0,-2.012,-17.337,-17.67\
 C,0,-1.614,-18.860001,-16.158001\C,0,-1.493,-16.723,-16.627001\N,0,-1.
 242,-17.622999,-15.694\C,0,0.192,-17.089001,-8.719\C,0,-0.598,-17.09,-
 10.006\S,0,0.404,-16.514999,-11.383\C,0,0.98,-14.914,-10.756\C,0,-3.64
 6,-17.483999,-12.485\C,0,0.282,-20.289,-13.256\C,0,2.755,-16.412001,-1
 4.772\C,0,-1.122,-13.603,-14.048\C,0,-2.761,-18.612,-12.559\C,0,-3.135
 ,-19.974001,-12.15\C,0,-2.016,-20.764,-12.373\C,0,-0.995,-19.888,-12.9
 04\C,0,-1.895,-22.284,-12.104\C,0,-4.518,-20.412001,-11.629\C,0,-4.455
 ,-21.021,-10.228\C,0,-3.972,-20.058001,-9.16\O,0,-3.094,-20.459,-8.387
 \O,0,-4.468,-18.912001,-9.108\C,0,1.284,-19.483,-13.744\C,0,2.595,-19.
 958,-14.068\C,0,3.354,-18.884001,-14.514\C,0,2.423,-17.725,-14.43\C,0,
 3.029,-21.441,-13.918\C,0,4.72,-18.948,-14.941\C,0,5.46986476,-20.1108
 5245,-14.71874119\C,0,1.903,-15.312,-14.696\C,0,2.347,-13.961,-15.057\
 C,0,1.233,-13.139,-14.854\C,0,0.163,-14.026,-14.374\C,0,3.77,-13.6,-15
 .553\C,0,1.072,-11.721,-15.043\C,0,2.17851362,-10.92851737,-15.3769473
 8\C,0,-2.153,-14.406,-13.576\C,0,-3.475,-13.918,-13.233\C,0,-4.178,-15
 .005,-12.793\C,0,-3.281,-16.157,-12.87\C,0,-3.999,-12.471,-13.334\C,0,
 -5.617,-15.021,-12.301\C,0,-5.552,-14.558,-10.854\C,0,-6.273,-15.467,-
 9.89\O,0,-7.157,-14.956,-9.16\O,0,-5.944,-16.681,-9.866\N,0,-1.456,-18
 .582001,-13.015\N,0,1.161,-18.094999,-13.973\N,0,0.582,-15.366,-14.279
 \N,0,-2.044,-15.78,-13.354\Fe,0,-0.506,-16.978001,-13.68\H,0,1.1231537
 8,-16.58471713,-8.87246146\H,0,-0.36598317,-16.5840076,-7.95838416\H,0
 ,0.3785853,-18.09757042,-8.41424823\H,0,-0.93560614,-18.0847633,-10.20
 93914\H,0,-1.44633306,-16.44704939,-9.89716281\H,0,1.92169843,-14.6735
 6325,-11.20354244\H,0,0.26489239,-14.15675103,-11.00114302\H,0,1.09329
 541,-14.96696781,-9.69333422\H,0,-6.90483793,-14.42480722,-8.40115317\
 H,0,-3.8953815,-18.14226846,-9.07307322\H,0,-4.52453811,-14.49741257,-
 10.5615086\H,0,-5.98394543,-13.58121323,-10.78910972\H,0,-6.01648465,-
 16.0121286,-12.35555371\H,0,-6.21409199,-14.34730558,-12.87937443\H,0,
 -5.43320592,-21.36268168,-9.96104156\H,0,-3.79416305,-21.86220399,-10.
 25188259\H,0,-4.92656916,-21.13654997,-12.30205277\H,0,-5.16380511,-19
 .55918572,-11.60572221\H,0,-0.99614785,-22.47900602,-11.55724826\H,0,-
 2.73810695,-22.61346395,-11.53345274\H,0,-1.8671274,-22.8099354,-13.03
 540489\H,0,0.51219824,-21.32713566,-13.13690708\H,0,-4.63846508,-17.64
 659606,-12.11965735\H,0,-3.29850114,-11.87537539,-13.88120442\H,0,-4.9
 4186077,-12.46759752,-13.83986756\H,0,-4.12018096,-12.06612148,-12.351
 00022\H,0,-1.33611631,-12.5620548,-14.17244795\H,0,3.75029278,-16.2355
 1296,-15.12291915\H,0,3.96752659,-21.48795403,-13.40627433\H,0,2.28988
 971,-21.97394258,-13.35711838\H,0,3.12870815,-21.88322682,-14.88722326
 \H,0,4.44339202,-14.39684024,-15.31532625\H,0,3.75166225,-13.4526236,-
 16.6126433\H,0,4.09752714,-12.70126568,-15.07351841\H,0,-1.30625501,-1
 5.67232724,-16.54881495\H,0,-2.29316662,-16.89250515,-18.52051141\H,0,
 -1.52956742,-19.78713751,-15.63056472\H,0,-2.07421794,-20.50030726,-18
 .48042526\H,0,-3.6659868,-19.98623978,-17.97537754\H,0,-2.87010237,-19
 .18278518,-19.30732925\H,0,0.10748474,-11.27211164,-14.92850307\H,0,3.
 12566274,-11.38681126,-15.57130597\H,0,2.07621247,-9.86514533,-15.4375
 6397\H,0,5.16770902,-18.10793636,-15.42962021\H,0,6.47851855,-20.03834
 18,-14.3690846\H,0,5.03374995,-21.0712267,-14.8987\\Version=ES64L-G16R
 evA.03\State=2-A\HF=-3879.1920053\S2=0.843312\S2-1=0.\S2A=0.754469\RMS
 D=4.189e-10\Dipole=-0.0527569,2.01541,-2.3282591\Quadrupole=0.985065,5
 .8607646,-6.8458296,-13.1572894,-4.6340936,22.5735125\PG=C01 [X(C41H46
 Fe1N6O4S1)]\\@


 I think that all right-thinking people in this
 country are sick and tired of being told that
 ordinary, decent people are fed up in this country
 with being sick and tired.  I'm certainly not!
 But I'm sick and tired of being told that I am!
                               -- Monty Python
 Job cpu time:       9 days 15 hours 47 minutes 44.1 seconds.
 Elapsed time:       2 days 10 hours  5 minutes 42.4 seconds.
 File lengths (MBytes):  RWF=   3452 Int=      0 D2E=      0 Chk=    289 Scr=      1
 Normal termination of Gaussian 16 at Mon Aug 29 22:36:56 2022.
