 Entering Gaussian System, Link 0=g16
 Input=/net/homes/chemie/zhartovska/work/BioModel/Konrad/2v07/2v0712/2v0712.com
 Output=/net/homes/chemie/zhartovska/work/BioModel/Konrad/2v07/2v0712/2v0712.log
 Initial command:
 /afs/math/software/gaussian/g16.A03/g16/l1.exe "/scratch/zhartovska_gaussian.dw9RQoo/Gau-31406.inp" -scrdir="/scratch/zhartovska_gaussian.dw9RQoo/"
 Entering Link 1 = /afs/math/software/gaussian/g16.A03/g16/l1.exe PID=     31407.
  
 Copyright (c) 1988,1990,1992,1993,1995,1998,2003,2009,2016,
            Gaussian, Inc.  All Rights Reserved.
  
 This is part of the Gaussian(R) 16 program.  It is based on
 the Gaussian(R) 09 system (copyright 2009, Gaussian, Inc.),
 the Gaussian(R) 03 system (copyright 2003, Gaussian, Inc.),
 the Gaussian(R) 98 system (copyright 1998, Gaussian, Inc.),
 the Gaussian(R) 94 system (copyright 1995, Gaussian, Inc.),
 the Gaussian 92(TM) system (copyright 1992, Gaussian, Inc.),
 the Gaussian 90(TM) system (copyright 1990, Gaussian, Inc.),
 the Gaussian 88(TM) system (copyright 1988, Gaussian, Inc.),
 the Gaussian 86(TM) system (copyright 1986, Carnegie Mellon
 University), and the Gaussian 82(TM) system (copyright 1983,
 Carnegie Mellon University). Gaussian is a federally registered
 trademark of Gaussian, Inc.
  
 This software contains proprietary and confidential information,
 including trade secrets, belonging to Gaussian, Inc.
  
 This software is provided under written license and may be
 used, copied, transmitted, or stored only in accord with that
 written license.
  
 The following legend is applicable only to US Government
 contracts under FAR:
  
                    RESTRICTED RIGHTS LEGEND
  
 Use, reproduction and disclosure by the US Government is
 subject to restrictions as set forth in subparagraphs (a)
 and (c) of the Commercial Computer Software - Restricted
 Rights clause in FAR 52.227-19.
  
 Gaussian, Inc.
 340 Quinnipiac St., Bldg. 40, Wallingford CT 06492
  
  
 ---------------------------------------------------------------
 Warning -- This program may not be used in any manner that
 competes with the business of Gaussian, Inc. or will provide
 assistance to any competitor of Gaussian, Inc.  The licensee
 of this program is prohibited from giving any competitor of
 Gaussian, Inc. access to this program.  By using this program,
 the user acknowledges that Gaussian, Inc. is engaged in the
 business of creating and licensing software in the field of
 computational chemistry and represents and warrants to the
 licensee that it is not a competitor of Gaussian, Inc. and that
 it will not use this program in any manner prohibited above.
 ---------------------------------------------------------------
  

 Cite this work as:
 Gaussian 16, Revision A.03,
 M. J. Frisch, G. W. Trucks, H. B. Schlegel, G. E. Scuseria, 
 M. A. Robb, J. R. Cheeseman, G. Scalmani, V. Barone, 
 G. A. Petersson, H. Nakatsuji, X. Li, M. Caricato, A. V. Marenich, 
 J. Bloino, B. G. Janesko, R. Gomperts, B. Mennucci, H. P. Hratchian, 
 J. V. Ortiz, A. F. Izmaylov, J. L. Sonnenberg, D. Williams-Young, 
 F. Ding, F. Lipparini, F. Egidi, J. Goings, B. Peng, A. Petrone, 
 T. Henderson, D. Ranasinghe, V. G. Zakrzewski, J. Gao, N. Rega, 
 G. Zheng, W. Liang, M. Hada, M. Ehara, K. Toyota, R. Fukuda, 
 J. Hasegawa, M. Ishida, T. Nakajima, Y. Honda, O. Kitao, H. Nakai, 
 T. Vreven, K. Throssell, J. A. Montgomery, Jr., J. E. Peralta, 
 F. Ogliaro, M. J. Bearpark, J. J. Heyd, E. N. Brothers, K. N. Kudin, 
 V. N. Staroverov, T. A. Keith, R. Kobayashi, J. Normand, 
 K. Raghavachari, A. P. Rendell, J. C. Burant, S. S. Iyengar, 
 J. Tomasi, M. Cossi, J. M. Millam, M. Klene, C. Adamo, R. Cammi, 
 J. W. Ochterski, R. L. Martin, K. Morokuma, O. Farkas, 
 J. B. Foresman, and D. J. Fox, Gaussian, Inc., Wallingford CT, 2016.
 
 ******************************************
 Gaussian 16:  ES64L-G16RevA.03 25-Dec-2016
                 5-Feb-2023 
 ******************************************
 %nprocs=12
 Will use up to   12 processors via shared memory.
 %mem=16GB
 %oldchk=2v07_II_S.chk
 %chk=2v07_III_D.chk
 Copying data from "2v07_II_S.chk" to current chk file "2v07_III_D.chk"
 IOpt=  2 FromEx=T IUOpen= 4 IOptOp= 5 NList=   0 IFRang= 0 IUIn= 4 IUOut= 2.
 ----------------------------------------------------------------------
 # PBE1PBE/def2TZVP empiricaldispersion=GD3BJ scf=maxcycle=999 geom=che
 ck pop=nbo
 ----------------------------------------------------------------------
 1/29=2,38=1,172=1/1;
 2/12=2,40=1/2;
 3/5=44,7=101,11=2,14=-4,25=1,30=1,74=-13,124=41/1,2,3;
 4//1;
 5/5=2,7=999,38=5/2;
 6/7=2,8=2,9=2,10=2,28=1,40=1/1,7;
 99/5=1,9=1/99;
 ----------
 2v07_III_D
 ----------
 Structure from the checkpoint file:  "2v07_III_D.chk"
 Charge =  1 Multiplicity = 2
 Z-Matrix found in chk file.
 C,0,19.309999,-18.566,20.035999
 C,0,19.862,-19.718,19.247999
 N,0,21.132999,-20.195999,19.454
 C,0,19.334999,-20.466,18.243999
 C,0,21.372,-21.198,18.617001
 N,0,20.306,-21.370001,17.855
 C,0,21.268,-26.360001,14.954
 C,0,20.836,-25.247999,13.998
 S,0,19.563,-24.209999,14.646
 C,0,18.971001,-23.364,13.215
 Fe,0,20.044001,-22.673,16.351
 C,0,23.427,-23.259001,16.142
 C,0,20.379,-20.037001,14.221
 C,0,16.632999,-22.302,16.288
 C,0,19.732,-25.058001,18.705999
 N,0,21.591999,-21.834999,15.357
 C,0,22.929001,-22.195999,15.445
 C,0,23.716,-21.253,14.673
 C,0,22.868999,-20.378,14.119
 C,0,21.51,-20.718,14.541
 C,0,23.219,-19.187,13.215
 C,0,25.250999,-21.313,14.578
 C,0,25.839001,-20.816,15.905
 C,0,27.343,-20.976,16.007
 O,0,27.909,-21.789,15.233
 O,0,27.981001,-20.318001,16.902
 N,0,18.738001,-21.419001,15.446
 C,0,19.097,-20.372999,14.631
 C,0,17.892,-19.700001,14.208
 C,0,16.847,-20.33,14.771
 C,0,17.372,-21.429001,15.546
 C,0,17.916,-18.486,13.271
 C,0,15.349,-20.070999,14.594
 C,0,14.937,-20.186001,13.293
 N,0,18.461,-23.518,17.311001
 C,0,17.146999,-23.218,17.15
 C,0,16.386999,-24.014999,18.098
 C,0,17.243,-24.788,18.778999
 C,0,18.572001,-24.486,18.280001
 C,0,14.876,-23.957001,18.249001
 C,0,16.934,-25.784,19.900999
 C,0,15.978,-26.724001,19.784
 N,0,21.344,-23.921,17.257999
 C,0,20.959,-24.892,18.174
 C,0,22.094999,-25.74,18.503
 C,0,23.221001,-25.194,17.691
 C,0,22.694,-24.076,16.966
 C,0,22.125999,-26.955999,19.441
 C,0,24.632999,-25.775,17.674
 C,0,24.649,-26.905001,16.636
 C,0,26.007,-27.59,16.542
 O,0,26.229,-28.393,15.615
 O,0,26.875999,-27.363001,17.393999
 H,0,19.99124672,-17.74227087,19.98833489
 H,0,18.36640459,-18.2726713,19.62552627
 H,0,19.17882566,-18.86180012,21.05589892
 H,0,18.35215567,-20.37294548,17.83137344
 H,0,21.77918767,-19.84323317,20.13075437
 H,0,22.27503954,-21.76981689,18.5675537
 H,0,19.67436771,-23.47804904,12.41677191
 H,0,18.02832558,-23.77636479,12.92137043
 H,0,18.85134665,-22.32460829,13.43916001
 H,0,22.20683163,-26.10340317,15.39858151
 H,0,20.53074345,-26.47781526,15.72046759
 H,0,21.36878754,-27.27708974,14.41206816
 H,0,21.68840717,-24.64201535,13.77197823
 H,0,20.48375324,-25.69477371,13.09179109
 H,0,14.61435487,-23.16105384,18.9145158
 H,0,14.42836448,-23.78399325,17.29265861
 H,0,14.52135968,-24.88511849,18.64615104
 H,0,15.56880775,-22.2629001,16.18374943
 H,0,18.79512552,-18.5227001,12.66215567
 H,0,17.04803677,-18.50105544,12.64544971
 H,0,17.92158115,-17.58730482,13.85170288
 H,0,14.24737403,-19.3998766,13.06645103
 H,0,15.78408485,-20.11565698,12.64307771
 H,0,14.45764608,-21.13232034,13.15300169
 H,0,14.69221047,-19.82569566,15.40230303
 H,0,16.15526178,-27.50345793,20.49528416
 H,0,15.02040395,-26.28372696,19.96857673
 H,0,15.99826133,-27.13217096,18.79511843
 H,0,17.49759248,-25.73054545,20.80896713
 H,0,19.66184246,-25.70818109,19.55290146
 H,0,23.00667051,-26.91631,20.04741774
 H,0,21.2597237,-26.94423153,20.06895591
 H,0,22.1331971,-27.85450893,18.86002832
 H,0,24.39969988,-26.49836748,15.67819071
 H,0,23.91244229,-27.63278764,16.9056467
 H,0,25.33550795,-25.01669926,17.39766477
 H,0,24.87823175,-26.16436326,18.6400006
 H,0,27.80506872,-27.42523232,17.16042519
 H,0,24.47041513,-23.47187069,16.03773423
 H,0,20.48565711,-19.17065837,13.6021505
 H,0,24.15094792,-19.37394433,12.72364994
 H,0,22.44963379,-19.05673013,12.48287611
 H,0,23.30029086,-18.30046439,13.80858774
 H,0,25.58720582,-20.68697173,13.77802901
 H,0,25.56189684,-22.32149492,14.40141994
 H,0,25.59827336,-19.77950004,16.01733006
 H,0,25.38336326,-21.3612771,16.70497946
 H,0,28.86746391,-21.82831723,15.19556883
 Recover connectivity data from disk.
 Stoichiometry    C41H48FeN6O4S(1+,2)
 Framework group  C1[X(C41H48FeN6O4S)]
 Deg. of freedom   297
 Full point group                 C1      NOp   1
 Largest Abelian subgroup         C1      NOp   1
 Largest concise Abelian subgroup C1      NOp   1
                         Standard orientation:                         
 ---------------------------------------------------------------------
 Center     Atomic      Atomic             Coordinates (Angstroms)
 Number     Number       Type             X           Y           Z
 ---------------------------------------------------------------------
      1          6           0        2.635877   -1.638983    4.958577
      2          6           0        1.801230   -1.148534    3.811592
      3          7           0        0.450590   -0.932798    3.936438
      4          6           0        2.112573   -0.858916    2.521461
      5          6           0       -0.043074   -0.522250    2.774784
      6          7           0        0.939024   -0.489112    1.891057
      7          6           0       -1.294123    2.199588   -2.802054
      8          6           0       -0.592451    0.900961   -3.199964
      9         16           0        0.908497    0.606370   -2.317779
     10          6           0        1.693958   -0.650623   -3.275358
     11         26           0        0.848699   -0.019251   -0.058183
     12          6           0       -2.571388   -0.385287   -0.086204
     13          6           0        1.199898   -3.342925   -0.711993
     14          6           0        4.239082    0.409714   -0.370972
     15          6           0        0.541183    3.189911    0.910480
     16          7           0       -0.433139   -1.551629   -0.366872
     17          6           0       -1.817670   -1.506003   -0.285426
     18          6           0       -2.336442   -2.851345   -0.445198
     19          6           0       -1.293800   -3.665277   -0.646106
     20          6           0       -0.067681   -2.868655   -0.595232
     21          6           0       -1.326753   -5.184854   -0.865195
     22          6           0       -3.834926   -3.193411   -0.365303
     23          6           0       -4.268974   -3.131499    1.104885
     24          6           0       -5.762668   -3.289014    1.310033
     25          8           0       -6.522952   -3.084826    0.329892
     26          8           0       -6.204957   -3.577914    2.477059
     27          7           0        2.431507   -1.216684   -0.455735
     28          6           0        2.352638   -2.572832   -0.660349
     29          6           0        3.689220   -3.071583   -0.880976
     30          6           0        4.537472   -2.032681   -0.797047
     31          6           0        3.748648   -0.850893   -0.541728
     32          6           0        3.976966   -4.552128   -1.159422
     33          6           0        6.050732   -1.996162   -1.023151
     34          6           0        6.413860   -2.412289   -2.276366
     35          7           0        2.162400    1.511174    0.212943
     36          6           0        3.508630    1.478317    0.042338
     37          6           0        4.039829    2.775043    0.426839
     38          6           0        3.015409    3.559141    0.787093
     39          6           0        1.808123    2.765817    0.647298
     40          6           0        5.514830    3.139536    0.398534
     41          6           0        3.060123    5.004683    1.291858
     42          6           0        3.739480    5.970401    0.646033
     43          7           0       -0.726751    1.175356    0.343093
     44          6           0       -0.602949    2.520540    0.667553
     45          6           0       -1.918589    3.140556    0.717654
     46          6           0       -2.867797    2.038633    0.385826
     47          6           0       -2.071926    0.864436    0.183021
     48          6           0       -2.259970    4.610773    1.002925
     49          6           0       -4.382165    2.206095    0.284659
     50          6           0       -4.694381    2.682751   -1.140094
     51          6           0       -6.183836    2.915351   -1.362904
     52          8           0       -6.609867    3.117686   -2.516585
     53          8           0       -6.961065    2.922068   -0.399338
     54          1           0        2.191130   -2.519866    5.372276
     55          1           0        3.621663   -1.866932    4.610488
     56          1           0        2.689857   -0.879792    5.710651
     57          1           0        3.084370   -0.907845    2.076359
     58          1           0       -0.079529   -1.064784    4.774027
     59          1           0       -1.063612   -0.262105    2.585767
     60          1           0        0.981994   -1.086130   -3.944941
     61          1           0        2.496470   -0.221268   -3.837966
     62          1           0        2.079680   -1.406660   -2.623800
     63          1           0       -2.132699    1.974733   -2.176650
     64          1           0       -0.609621    2.826045   -2.269224
     65          1           0       -1.631158    2.706911   -3.681787
     66          1           0       -1.259613    0.083844   -3.020756
     67          1           0       -0.371474    0.939208   -4.246199
     68          1           0        5.976318    2.830032    1.312939
     69          1           0        5.988321    2.646528   -0.424660
     70          1           0        5.618423    4.198694    0.287395
     71          1           0        5.276656    0.569493   -0.577877
     72          1           0        3.116015   -5.005160   -1.604871
     73          1           0        4.808978   -4.634320   -1.827180
     74          1           0        4.206649   -5.049796   -0.240470
     75          1           0        7.282735   -3.033028   -2.208254
     76          1           0        5.611431   -2.968688   -2.713890
     77          1           0        6.631125   -1.560271   -2.886088
     78          1           0        6.751755   -1.678671   -0.279735
     79          1           0        3.369063    6.928455    0.945735
     80          1           0        4.779150    5.898194    0.888463
     81          1           0        3.610355    5.852351   -0.409567
     82          1           0        2.533122    5.255248    2.188734
     83          1           0        0.443750    4.157143    1.357547
     84          1           0       -3.097948    4.660090    1.666447
     85          1           0       -1.417816    5.091117    1.455636
     86          1           0       -2.501949    5.105253    0.085409
     87          1           0       -4.351927    1.944375   -1.834665
     88          1           0       -4.170501    3.597983   -1.321202
     89          1           0       -4.865278    1.269406    0.469366
     90          1           0       -4.716184    2.934468    0.993746
     91          1           0       -7.875426    2.654881   -0.518317
     92          1           0       -3.634720   -0.489335   -0.144511
     93          1           0        1.318960   -4.396549   -0.855522
     94          1           0       -2.277197   -5.466620   -1.267891
     95          1           0       -0.552729   -5.463424   -1.549435
     96          1           0       -1.173294   -5.683322    0.069086
     97          1           0       -4.000532   -4.178552   -0.748671
     98          1           0       -4.397172   -2.485007   -0.937091
     99          1           0       -3.767493   -3.909808    1.641217
    100          1           0       -3.967094   -2.188194    1.509787
    101          1           0       -7.459011   -3.286602    0.398294
 ---------------------------------------------------------------------
 Rotational constants (GHZ):           0.0661678           0.0435847           0.0340655
 Standard basis: def2TZVP (5D, 7F)
 There are  2218 symmetry adapted cartesian basis functions of A   symmetry.
 There are  1951 symmetry adapted basis functions of A   symmetry.
  1951 basis functions,  3156 primitive gaussians,  2218 cartesian basis functions
   205 alpha electrons      204 beta electrons
       nuclear repulsion energy      8962.9111997345 Hartrees.
 NAtoms=  101 NActive=  101 NUniq=  101 SFac= 1.00D+00 NAtFMM=   60 NAOKFM=T Big=T
 Integral buffers will be    131072 words long.
 Raffenetti 2 integral format.
 Two-electron integral symmetry is turned on.
 Nuclear repulsion after empirical dispersion term =     8962.7596958297 Hartrees.
 One-electron integrals computed using PRISM.
   1 Symmetry operations used in ECPInt.
 ECPInt:  NShTT=  305371 NPrTT=  941867 LenC2=  223901 LenP2D=  446747.
 LDataN:  DoStor=T MaxTD1= 6 Len=  172
 NBasis=  1951 RedAO= T EigKep=  3.02D-06  NBF=  1951
 NBsUse=  1951 1.00D-06 EigRej= -1.00D+00 NBFU=  1951
 ExpMin= 4.20D-02 ExpMax= 3.01D+05 ExpMxC= 2.91D+03 IAcc=3 IRadAn=         5 AccDes= 0.00D+00
 Harris functional with IExCor= 1009 and IRadAn=       5 diagonalized for initial guess.
 HarFok:  IExCor= 1009 AccDes= 0.00D+00 IRadAn=         5 IDoV= 1 UseB2=F ITyADJ=14
 ICtDFT=  3500011 ScaDFX=  1.000000  1.000000  1.000000  1.000000
 FoFCou: FMM=F IPFlag=           0 FMFlag=      100000 FMFlg1=        2001
         NFxFlg=           0 DoJE=T BraDBF=F KetDBF=T FulRan=T
         wScrn=  0.000000 ICntrl=       500 IOpCl=  0 I1Cent=   200000004 NGrid=           0
         NMat0=    1 NMatS0=      1 NMatT0=    0 NMatD0=    1 NMtDS0=    0 NMtDT0=    0
 Petite list used in FoFCou.
 Initial guess <Sx>= 0.0000 <Sy>= 0.0000 <Sz>= 0.5000 <S**2>= 0.7500 S= 0.5000
 Requested convergence on RMS density matrix=1.00D-08 within 999 cycles.
 Requested convergence on MAX density matrix=1.00D-06.
 Requested convergence on             energy=1.00D-06.
 No special actions if energy rises.
 EnCoef did   100 forward-backward iterations
 EnCoef did     6 forward-backward iterations
 EnCoef did     4 forward-backward iterations
 EnCoef did     2 forward-backward iterations
 EnCoef did     8 forward-backward iterations
 EnCoef did    12 forward-backward iterations
 EnCoef did   100 forward-backward iterations
 EnCoef did    12 forward-backward iterations
 EnCoef did     2 forward-backward iterations
 Restarting incremental Fock formation.
 Restarting incremental Fock formation.
 Restarting incremental Fock formation.
 Restarting incremental Fock formation.
 SCF Done:  E(UPBE1PBE) =  -3880.39338635     A.U. after   91 cycles
            NFock= 91  Conv=0.12D-08     -V/T= 2.0030
 <Sx>= 0.0000 <Sy>= 0.0000 <Sz>= 0.5000 <S**2>= 1.8364 S= 0.9444
 <L.S>= 0.000000000000E+00
 Annihilation of the first spin contaminant:
 S**2 before annihilation     1.8364,   after     1.0689
 Hyperfine terms turned off by default for NAtoms > 100.

 **********************************************************************

            Population analysis using the SCF density.

 **********************************************************************

 Orbital symmetries:
 Alpha Orbitals:
       Occupied  (A) (A) (A) (A) (A) (A) (A) (A) (A) (A) (A) (A)
                 (A) (A) (A) (A) (A) (A) (A) (A) (A) (A) (A) (A)
                 (A) (A) (A) (A) (A) (A) (A) (A) (A) (A) (A) (A)
                 (A) (A) (A) (A) (A) (A) (A) (A) (A) (A) (A) (A)
                 (A) (A) (A) (A) (A) (A) (A) (A) (A) (A) (A) (A)
                 (A) (A) (A) (A) (A) (A) (A) (A) (A) (A) (A) (A)
                 (A) (A) (A) (A) (A) (A) (A) (A) (A) (A) (A) (A)
                 (A) (A) (A) (A) (A) (A) (A) (A) (A) (A) (A) (A)
                 (A) (A) (A) (A) (A) (A) (A) (A) (A) (A) (A) (A)
                 (A) (A) (A) (A) (A) (A) (A) (A) (A) (A) (A) (A)
                 (A) (A) (A) (A) (A) (A) (A) (A) (A) (A) (A) (A)
                 (A) (A) (A) (A) (A) (A) (A) (A) (A) (A) (A) (A)
                 (A) (A) (A) (A) (A) (A) (A) (A) (A) (A) (A) (A)
                 (A) (A) (A) (A) (A) (A) (A) (A) (A) (A) (A) (A)
                 (A) (A) (A) (A) (A) (A) (A) (A) (A) (A) (A) (A)
                 (A) (A) (A) (A) (A) (A) (A) (A) (A) (A) (A) (A)
                 (A) (A) (A) (A) (A) (A) (A) (A) (A) (A) (A) (A)
                 (A)
       Virtual   (A) (A) (A) (A) (A) (A) (A) (A) (A) (A) (A) (A)
                 (A) (A) (A) (A) (A) (A) (A) (A) (A) (A) (A) (A)
                 (A) (A) (A) (A) (A) (A) (A) (A) (A) (A) (A) (A)
                 (A) (A) (A) (A) (A) (A) (A) (A) (A) (A) (A) (A)
                 (A) (A) (A) (A) (A) (A) (A) (A) (A) (A) (A) (A)
                 (A) (A) (A) (A) (A) (A) (A) (A) (A) (A) (A) (A)
                 (A) (A) (A) (A) (A) (A) (A) (A) (A) (A) (A) (A)
                 (A) (A) (A) (A) (A) (A) (A) (A) (A) (A) (A) (A)
                 (A) (A) (A) (A) (A) (A) (A) (A) (A) (A) (A) (A)
                 (A) (A) (A) (A) (A) (A) (A) (A) (A) (A) (A) (A)
                 (A) (A) (A) (A) (A) (A) (A) (A) (A) (A) (A) (A)
                 (A) (A) (A) (A) (A) (A) (A) (A) (A) (A) (A) (A)
                 (A) (A) (A) (A) (A) (A) (A) (A) (A) (A) (A) (A)
                 (A) (A) (A) (A) (A) (A) (A) (A) (A) (A) (A) (A)
                 (A) (A) (A) (A) (A) (A) (A) (A) (A) (A) (A) (A)
                 (A) (A) (A) (A) (A) (A) (A) (A) (A) (A) (A) (A)
                 (A) (A) (A) (A) (A) (A) (A) (A) (A) (A) (A) (A)
                 (A) (A) (A) (A) (A) (A) (A) (A) (A) (A) (A) (A)
                 (A) (A) (A) (A) (A) (A) (A) (A) (A) (A) (A) (A)
                 (A) (A) (A) (A) (A) (A) (A) (A) (A) (A) (A) (A)
                 (A) (A) (A) (A) (A) (A) (A) (A) (A) (A) (A) (A)
                 (A) (A) (A) (A) (A) (A) (A) (A) (A) (A) (A) (A)
                 (A) (A) (A) (A) (A) (A) (A) (A) (A) (A) (A) (A)
                 (A) (A) (A) (A) (A) (A) (A) (A) (A) (A) (A) (A)
                 (A) (A) (A) (A) (A) (A) (A) (A) (A) (A) (A) (A)
                 (A) (A) (A) (A) (A) (A) (A) (A) (A) (A) (A) (A)
                 (A) (A) (A) (A) (A) (A) (A) (A) (A) (A) (A) (A)
                 (A) (A) (A) (A) (A) (A) (A) (A) (A) (A) (A) (A)
                 (A) (A) (A) (A) (A) (A) (A) (A) (A) (A) (A) (A)
                 (A) (A) (A) (A) (A) (A) (A) (A) (A) (A) (A) (A)
                 (A) (A) (A) (A) (A) (A) (A) (A) (A) (A) (A) (A)
                 (A) (A) (A) (A) (A) (A) (A) (A) (A) (A) (A) (A)
                 (A) (A) (A) (A) (A) (A) (A) (A) (A) (A) (A) (A)
                 (A) (A) (A) (A) (A) (A) (A) (A) (A) (A) (A) (A)
                 (A) (A) (A) (A) (A) (A) (A) (A) (A) (A) (A) (A)
                 (A) (A) (A) (A) (A) (A) (A) (A) (A) (A) (A) (A)
                 (A) (A) (A) (A) (A) (A) (A) (A) (A) (A) (A) (A)
                 (A) (A) (A) (A) (A) (A) (A) (A) (A) (A) (A) (A)
                 (A) (A) (A) (A) (A) (A) (A) (A) (A) (A) (A) (A)
                 (A) (A) (A) (A) (A) (A) (A) (A) (A) (A) (A) (A)
                 (A) (A) (A) (A) (A) (A) (A) (A) (A) (A) (A) (A)
                 (A) (A) (A) (A) (A) (A) (A) (A) (A) (A) (A) (A)
                 (A) (A) (A) (A) (A) (A) (A) (A) (A) (A) (A) (A)
                 (A) (A) (A) (A) (A) (A) (A) (A) (A) (A) (A) (A)
                 (A) (A) (A) (A) (A) (A) (A) (A) (A) (A) (A) (A)
                 (A) (A) (A) (A) (A) (A) (A) (A) (A) (A) (A) (A)
                 (A) (A) (A) (A) (A) (A) (A) (A) (A) (A) (A) (A)
                 (A) (A) (A) (A) (A) (A) (A) (A) (A) (A) (A) (A)
                 (A) (A) (A) (A) (A) (A) (A) (A) (A) (A) (A) (A)
                 (A) (A) (A) (A) (A) (A) (A) (A) (A) (A) (A) (A)
                 (A) (A) (A) (A) (A) (A) (A) (A) (A) (A) (A) (A)
                 (A) (A) (A) (A) (A) (A) (A) (A) (A) (A) (A) (A)
                 (A) (A) (A) (A) (A) (A) (A) (A) (A) (A) (A) (A)
                 (A) (A) (A) (A) (A) (A) (A) (A) (A) (A) (A) (A)
                 (A) (A) (A) (A) (A) (A) (A) (A) (A) (A) (A) (A)
                 (A) (A) (A) (A) (A) (A) (A) (A) (A) (A) (A) (A)
                 (A) (A) (A) (A) (A) (A) (A) (A) (A) (A) (A) (A)
                 (A) (A) (A) (A) (A) (A) (A) (A) (A) (A) (A) (A)
                 (A) (A) (A) (A) (A) (A) (A) (A) (A) (A) (A) (A)
                 (A) (A) (A) (A) (A) (A) (A) (A) (A) (A) (A) (A)
                 (A) (A) (A) (A) (A) (A) (A) (A) (A) (A) (A) (A)
                 (A) (A) (A) (A) (A) (A) (A) (A) (A) (A) (A) (A)
                 (A) (A) (A) (A) (A) (A) (A) (A) (A) (A) (A) (A)
                 (A) (A) (A) (A) (A) (A) (A) (A) (A) (A) (A) (A)
                 (A) (A) (A) (A) (A) (A) (A) (A) (A) (A) (A) (A)
                 (A) (A) (A) (A) (A) (A) (A) (A) (A) (A) (A) (A)
                 (A) (A) (A) (A) (A) (A) (A) (A) (A) (A) (A) (A)
                 (A) (A) (A) (A) (A) (A) (A) (A) (A) (A) (A) (A)
                 (A) (A) (A) (A) (A) (A) (A) (A) (A) (A) (A) (A)
                 (A) (A) (A) (A) (A) (A) (A) (A) (A) (A) (A) (A)
                 (A) (A) (A) (A) (A) (A) (A) (A) (A) (A) (A) (A)
                 (A) (A) (A) (A) (A) (A) (A) (A) (A) (A) (A) (A)
                 (A) (A) (A) (A) (A) (A) (A) (A) (A) (A) (A) (A)
                 (A) (A) (A) (A) (A) (A) (A) (A) (A) (A) (A) (A)
                 (A) (A) (A) (A) (A) (A) (A) (A) (A) (A) (A) (A)
                 (A) (A) (A) (A) (A) (A) (A) (A) (A) (A) (A) (A)
                 (A) (A) (A) (A) (A) (A) (A) (A) (A) (A) (A) (A)
                 (A) (A) (A) (A) (A) (A) (A) (A) (A) (A) (A) (A)
                 (A) (A) (A) (A) (A) (A) (A) (A) (A) (A) (A) (A)
                 (A) (A) (A) (A) (A) (A) (A) (A) (A) (A) (A) (A)
                 (A) (A) (A) (A) (A) (A) (A) (A) (A) (A) (A) (A)
                 (A) (A) (A) (A) (A) (A) (A) (A) (A) (A) (A) (A)
                 (A) (A) (A) (A) (A) (A) (A) (A) (A) (A) (A) (A)
                 (A) (A) (A) (A) (A) (A) (A) (A) (A) (A) (A) (A)
                 (A) (A) (A) (A) (A) (A) (A) (A) (A) (A) (A) (A)
                 (A) (A) (A) (A) (A) (A) (A) (A) (A) (A) (A) (A)
                 (A) (A) (A) (A) (A) (A) (A) (A) (A) (A) (A) (A)
                 (A) (A) (A) (A) (A) (A) (A) (A) (A) (A) (A) (A)
                 (A) (A) (A) (A) (A) (A) (A) (A) (A) (A) (A) (A)
                 (A) (A) (A) (A) (A) (A) (A) (A) (A) (A) (A) (A)
                 (A) (A) (A) (A) (A) (A) (A) (A) (A) (A) (A) (A)
                 (A) (A) (A) (A) (A) (A) (A) (A) (A) (A) (A) (A)
                 (A) (A) (A) (A) (A) (A) (A) (A) (A) (A) (A) (A)
                 (A) (A) (A) (A) (A) (A) (A) (A) (A) (A) (A) (A)
                 (A) (A) (A) (A) (A) (A) (A) (A) (A) (A) (A) (A)
                 (A) (A) (A) (A) (A) (A) (A) (A) (A) (A) (A) (A)
                 (A) (A) (A) (A) (A) (A) (A) (A) (A) (A) (A) (A)
                 (A) (A) (A) (A) (A) (A) (A) (A) (A) (A) (A) (A)
                 (A) (A) (A) (A) (A) (A) (A) (A) (A) (A) (A) (A)
                 (A) (A) (A) (A) (A) (A) (A) (A) (A) (A) (A) (A)
                 (A) (A) (A) (A) (A) (A) (A) (A) (A) (A) (A) (A)
                 (A) (A) (A) (A) (A) (A) (A) (A) (A) (A) (A) (A)
                 (A) (A) (A) (A) (A) (A) (A) (A) (A) (A) (A) (A)
                 (A) (A) (A) (A) (A) (A) (A) (A) (A) (A) (A) (A)
                 (A) (A) (A) (A) (A) (A) (A) (A) (A) (A) (A) (A)
                 (A) (A) (A) (A) (A) (A) (A) (A) (A) (A) (A) (A)
                 (A) (A) (A) (A) (A) (A) (A) (A) (A) (A) (A) (A)
                 (A) (A) (A) (A) (A) (A) (A) (A) (A) (A) (A) (A)
                 (A) (A) (A) (A) (A) (A) (A) (A) (A) (A) (A) (A)
                 (A) (A) (A) (A) (A) (A) (A) (A) (A) (A) (A) (A)
                 (A) (A) (A) (A) (A) (A) (A) (A) (A) (A) (A) (A)
                 (A) (A) (A) (A) (A) (A) (A) (A) (A) (A) (A) (A)
                 (A) (A) (A) (A) (A) (A) (A) (A) (A) (A) (A) (A)
                 (A) (A) (A) (A) (A) (A) (A) (A) (A) (A) (A) (A)
                 (A) (A) (A) (A) (A) (A) (A) (A) (A) (A) (A) (A)
                 (A) (A) (A) (A) (A) (A) (A) (A) (A) (A) (A) (A)
                 (A) (A) (A) (A) (A) (A) (A) (A) (A) (A) (A) (A)
                 (A) (A) (A) (A) (A) (A) (A) (A) (A) (A) (A) (A)
                 (A) (A) (A) (A) (A) (A) (A) (A) (A) (A) (A) (A)
                 (A) (A) (A) (A) (A) (A) (A) (A) (A) (A) (A) (A)
                 (A) (A) (A) (A) (A) (A) (A) (A) (A) (A) (A) (A)
                 (A) (A) (A) (A) (A) (A) (A) (A) (A) (A) (A) (A)
                 (A) (A) (A) (A) (A) (A) (A) (A) (A) (A) (A) (A)
                 (A) (A) (A) (A) (A) (A) (A) (A) (A) (A) (A) (A)
                 (A) (A) (A) (A) (A) (A) (A) (A) (A) (A) (A) (A)
                 (A) (A) (A) (A) (A) (A) (A) (A) (A) (A) (A) (A)
                 (A) (A) (A) (A) (A) (A) (A) (A) (A) (A) (A) (A)
                 (A) (A) (A) (A) (A) (A) (A) (A) (A) (A) (A) (A)
                 (A) (A) (A) (A) (A) (A) (A) (A) (A) (A) (A) (A)
                 (A) (A) (A) (A) (A) (A) (A) (A) (A) (A) (A) (A)
                 (A) (A) (A) (A) (A) (A) (A) (A) (A) (A) (A) (A)
                 (A) (A) (A) (A) (A) (A) (A) (A) (A) (A) (A) (A)
                 (A) (A) (A) (A) (A) (A) (A) (A) (A) (A) (A) (A)
                 (A) (A) (A) (A) (A) (A) (A) (A) (A) (A) (A) (A)
                 (A) (A) (A) (A) (A) (A) (A) (A) (A) (A) (A) (A)
                 (A) (A) (A) (A) (A) (A) (A) (A) (A) (A) (A) (A)
                 (A) (A) (A) (A) (A) (A) (A) (A) (A) (A) (A) (A)
                 (A) (A) (A) (A) (A) (A) (A) (A) (A) (A) (A) (A)
                 (A) (A) (A) (A) (A) (A) (A) (A) (A) (A) (A) (A)
                 (A) (A) (A) (A) (A) (A) (A) (A) (A) (A) (A) (A)
                 (A) (A) (A) (A) (A) (A) (A) (A) (A) (A) (A) (A)
                 (A) (A) (A) (A) (A) (A) (A) (A) (A) (A) (A) (A)
                 (A) (A) (A) (A) (A) (A) (A) (A) (A) (A) (A) (A)
                 (A) (A) (A) (A) (A) (A) (A) (A) (A) (A) (A) (A)
                 (A) (A) (A) (A) (A) (A) (A) (A) (A) (A) (A) (A)
                 (A) (A) (A) (A) (A) (A)
 Beta  Orbitals:
       Occupied  (A) (A) (A) (A) (A) (A) (A) (A) (A) (A) (A) (A)
                 (A) (A) (A) (A) (A) (A) (A) (A) (A) (A) (A) (A)
                 (A) (A) (A) (A) (A) (A) (A) (A) (A) (A) (A) (A)
                 (A) (A) (A) (A) (A) (A) (A) (A) (A) (A) (A) (A)
                 (A) (A) (A) (A) (A) (A) (A) (A) (A) (A) (A) (A)
                 (A) (A) (A) (A) (A) (A) (A) (A) (A) (A) (A) (A)
                 (A) (A) (A) (A) (A) (A) (A) (A) (A) (A) (A) (A)
                 (A) (A) (A) (A) (A) (A) (A) (A) (A) (A) (A) (A)
                 (A) (A) (A) (A) (A) (A) (A) (A) (A) (A) (A) (A)
                 (A) (A) (A) (A) (A) (A) (A) (A) (A) (A) (A) (A)
                 (A) (A) (A) (A) (A) (A) (A) (A) (A) (A) (A) (A)
                 (A) (A) (A) (A) (A) (A) (A) (A) (A) (A) (A) (A)
                 (A) (A) (A) (A) (A) (A) (A) (A) (A) (A) (A) (A)
                 (A) (A) (A) (A) (A) (A) (A) (A) (A) (A) (A) (A)
                 (A) (A) (A) (A) (A) (A) (A) (A) (A) (A) (A) (A)
                 (A) (A) (A) (A) (A) (A) (A) (A) (A) (A) (A) (A)
                 (A) (A) (A) (A) (A) (A) (A) (A) (A) (A) (A) (A)
       Virtual   (A) (A) (A) (A) (A) (A) (A) (A) (A) (A) (A) (A)
                 (A) (A) (A) (A) (A) (A) (A) (A) (A) (A) (A) (A)
                 (A) (A) (A) (A) (A) (A) (A) (A) (A) (A) (A) (A)
                 (A) (A) (A) (A) (A) (A) (A) (A) (A) (A) (A) (A)
                 (A) (A) (A) (A) (A) (A) (A) (A) (A) (A) (A) (A)
                 (A) (A) (A) (A) (A) (A) (A) (A) (A) (A) (A) (A)
                 (A) (A) (A) (A) (A) (A) (A) (A) (A) (A) (A) (A)
                 (A) (A) (A) (A) (A) (A) (A) (A) (A) (A) (A) (A)
                 (A) (A) (A) (A) (A) (A) (A) (A) (A) (A) (A) (A)
                 (A) (A) (A) (A) (A) (A) (A) (A) (A) (A) (A) (A)
                 (A) (A) (A) (A) (A) (A) (A) (A) (A) (A) (A) (A)
                 (A) (A) (A) (A) (A) (A) (A) (A) (A) (A) (A) (A)
                 (A) (A) (A) (A) (A) (A) (A) (A) (A) (A) (A) (A)
                 (A) (A) (A) (A) (A) (A) (A) (A) (A) (A) (A) (A)
                 (A) (A) (A) (A) (A) (A) (A) (A) (A) (A) (A) (A)
                 (A) (A) (A) (A) (A) (A) (A) (A) (A) (A) (A) (A)
                 (A) (A) (A) (A) (A) (A) (A) (A) (A) (A) (A) (A)
                 (A) (A) (A) (A) (A) (A) (A) (A) (A) (A) (A) (A)
                 (A) (A) (A) (A) (A) (A) (A) (A) (A) (A) (A) (A)
                 (A) (A) (A) (A) (A) (A) (A) (A) (A) (A) (A) (A)
                 (A) (A) (A) (A) (A) (A) (A) (A) (A) (A) (A) (A)
                 (A) (A) (A) (A) (A) (A) (A) (A) (A) (A) (A) (A)
                 (A) (A) (A) (A) (A) (A) (A) (A) (A) (A) (A) (A)
                 (A) (A) (A) (A) (A) (A) (A) (A) (A) (A) (A) (A)
                 (A) (A) (A) (A) (A) (A) (A) (A) (A) (A) (A) (A)
                 (A) (A) (A) (A) (A) (A) (A) (A) (A) (A) (A) (A)
                 (A) (A) (A) (A) (A) (A) (A) (A) (A) (A) (A) (A)
                 (A) (A) (A) (A) (A) (A) (A) (A) (A) (A) (A) (A)
                 (A) (A) (A) (A) (A) (A) (A) (A) (A) (A) (A) (A)
                 (A) (A) (A) (A) (A) (A) (A) (A) (A) (A) (A) (A)
                 (A) (A) (A) (A) (A) (A) (A) (A) (A) (A) (A) (A)
                 (A) (A) (A) (A) (A) (A) (A) (A) (A) (A) (A) (A)
                 (A) (A) (A) (A) (A) (A) (A) (A) (A) (A) (A) (A)
                 (A) (A) (A) (A) (A) (A) (A) (A) (A) (A) (A) (A)
                 (A) (A) (A) (A) (A) (A) (A) (A) (A) (A) (A) (A)
                 (A) (A) (A) (A) (A) (A) (A) (A) (A) (A) (A) (A)
                 (A) (A) (A) (A) (A) (A) (A) (A) (A) (A) (A) (A)
                 (A) (A) (A) (A) (A) (A) (A) (A) (A) (A) (A) (A)
                 (A) (A) (A) (A) (A) (A) (A) (A) (A) (A) (A) (A)
                 (A) (A) (A) (A) (A) (A) (A) (A) (A) (A) (A) (A)
                 (A) (A) (A) (A) (A) (A) (A) (A) (A) (A) (A) (A)
                 (A) (A) (A) (A) (A) (A) (A) (A) (A) (A) (A) (A)
                 (A) (A) (A) (A) (A) (A) (A) (A) (A) (A) (A) (A)
                 (A) (A) (A) (A) (A) (A) (A) (A) (A) (A) (A) (A)
                 (A) (A) (A) (A) (A) (A) (A) (A) (A) (A) (A) (A)
                 (A) (A) (A) (A) (A) (A) (A) (A) (A) (A) (A) (A)
                 (A) (A) (A) (A) (A) (A) (A) (A) (A) (A) (A) (A)
                 (A) (A) (A) (A) (A) (A) (A) (A) (A) (A) (A) (A)
                 (A) (A) (A) (A) (A) (A) (A) (A) (A) (A) (A) (A)
                 (A) (A) (A) (A) (A) (A) (A) (A) (A) (A) (A) (A)
                 (A) (A) (A) (A) (A) (A) (A) (A) (A) (A) (A) (A)
                 (A) (A) (A) (A) (A) (A) (A) (A) (A) (A) (A) (A)
                 (A) (A) (A) (A) (A) (A) (A) (A) (A) (A) (A) (A)
                 (A) (A) (A) (A) (A) (A) (A) (A) (A) (A) (A) (A)
                 (A) (A) (A) (A) (A) (A) (A) (A) (A) (A) (A) (A)
                 (A) (A) (A) (A) (A) (A) (A) (A) (A) (A) (A) (A)
                 (A) (A) (A) (A) (A) (A) (A) (A) (A) (A) (A) (A)
                 (A) (A) (A) (A) (A) (A) (A) (A) (A) (A) (A) (A)
                 (A) (A) (A) (A) (A) (A) (A) (A) (A) (A) (A) (A)
                 (A) (A) (A) (A) (A) (A) (A) (A) (A) (A) (A) (A)
                 (A) (A) (A) (A) (A) (A) (A) (A) (A) (A) (A) (A)
                 (A) (A) (A) (A) (A) (A) (A) (A) (A) (A) (A) (A)
                 (A) (A) (A) (A) (A) (A) (A) (A) (A) (A) (A) (A)
                 (A) (A) (A) (A) (A) (A) (A) (A) (A) (A) (A) (A)
                 (A) (A) (A) (A) (A) (A) (A) (A) (A) (A) (A) (A)
                 (A) (A) (A) (A) (A) (A) (A) (A) (A) (A) (A) (A)
                 (A) (A) (A) (A) (A) (A) (A) (A) (A) (A) (A) (A)
                 (A) (A) (A) (A) (A) (A) (A) (A) (A) (A) (A) (A)
                 (A) (A) (A) (A) (A) (A) (A) (A) (A) (A) (A) (A)
                 (A) (A) (A) (A) (A) (A) (A) (A) (A) (A) (A) (A)
                 (A) (A) (A) (A) (A) (A) (A) (A) (A) (A) (A) (A)
                 (A) (A) (A) (A) (A) (A) (A) (A) (A) (A) (A) (A)
                 (A) (A) (A) (A) (A) (A) (A) (A) (A) (A) (A) (A)
                 (A) (A) (A) (A) (A) (A) (A) (A) (A) (A) (A) (A)
                 (A) (A) (A) (A) (A) (A) (A) (A) (A) (A) (A) (A)
                 (A) (A) (A) (A) (A) (A) (A) (A) (A) (A) (A) (A)
                 (A) (A) (A) (A) (A) (A) (A) (A) (A) (A) (A) (A)
                 (A) (A) (A) (A) (A) (A) (A) (A) (A) (A) (A) (A)
                 (A) (A) (A) (A) (A) (A) (A) (A) (A) (A) (A) (A)
                 (A) (A) (A) (A) (A) (A) (A) (A) (A) (A) (A) (A)
                 (A) (A) (A) (A) (A) (A) (A) (A) (A) (A) (A) (A)
                 (A) (A) (A) (A) (A) (A) (A) (A) (A) (A) (A) (A)
                 (A) (A) (A) (A) (A) (A) (A) (A) (A) (A) (A) (A)
                 (A) (A) (A) (A) (A) (A) (A) (A) (A) (A) (A) (A)
                 (A) (A) (A) (A) (A) (A) (A) (A) (A) (A) (A) (A)
                 (A) (A) (A) (A) (A) (A) (A) (A) (A) (A) (A) (A)
                 (A) (A) (A) (A) (A) (A) (A) (A) (A) (A) (A) (A)
                 (A) (A) (A) (A) (A) (A) (A) (A) (A) (A) (A) (A)
                 (A) (A) (A) (A) (A) (A) (A) (A) (A) (A) (A) (A)
                 (A) (A) (A) (A) (A) (A) (A) (A) (A) (A) (A) (A)
                 (A) (A) (A) (A) (A) (A) (A) (A) (A) (A) (A) (A)
                 (A) (A) (A) (A) (A) (A) (A) (A) (A) (A) (A) (A)
                 (A) (A) (A) (A) (A) (A) (A) (A) (A) (A) (A) (A)
                 (A) (A) (A) (A) (A) (A) (A) (A) (A) (A) (A) (A)
                 (A) (A) (A) (A) (A) (A) (A) (A) (A) (A) (A) (A)
                 (A) (A) (A) (A) (A) (A) (A) (A) (A) (A) (A) (A)
                 (A) (A) (A) (A) (A) (A) (A) (A) (A) (A) (A) (A)
                 (A) (A) (A) (A) (A) (A) (A) (A) (A) (A) (A) (A)
                 (A) (A) (A) (A) (A) (A) (A) (A) (A) (A) (A) (A)
                 (A) (A) (A) (A) (A) (A) (A) (A) (A) (A) (A) (A)
                 (A) (A) (A) (A) (A) (A) (A) (A) (A) (A) (A) (A)
                 (A) (A) (A) (A) (A) (A) (A) (A) (A) (A) (A) (A)
                 (A) (A) (A) (A) (A) (A) (A) (A) (A) (A) (A) (A)
                 (A) (A) (A) (A) (A) (A) (A) (A) (A) (A) (A) (A)
                 (A) (A) (A) (A) (A) (A) (A) (A) (A) (A) (A) (A)
                 (A) (A) (A) (A) (A) (A) (A) (A) (A) (A) (A) (A)
                 (A) (A) (A) (A) (A) (A) (A) (A) (A) (A) (A) (A)
                 (A) (A) (A) (A) (A) (A) (A) (A) (A) (A) (A) (A)
                 (A) (A) (A) (A) (A) (A) (A) (A) (A) (A) (A) (A)
                 (A) (A) (A) (A) (A) (A) (A) (A) (A) (A) (A) (A)
                 (A) (A) (A) (A) (A) (A) (A) (A) (A) (A) (A) (A)
                 (A) (A) (A) (A) (A) (A) (A) (A) (A) (A) (A) (A)
                 (A) (A) (A) (A) (A) (A) (A) (A) (A) (A) (A) (A)
                 (A) (A) (A) (A) (A) (A) (A) (A) (A) (A) (A) (A)
                 (A) (A) (A) (A) (A) (A) (A) (A) (A) (A) (A) (A)
                 (A) (A) (A) (A) (A) (A) (A) (A) (A) (A) (A) (A)
                 (A) (A) (A) (A) (A) (A) (A) (A) (A) (A) (A) (A)
                 (A) (A) (A) (A) (A) (A) (A) (A) (A) (A) (A) (A)
                 (A) (A) (A) (A) (A) (A) (A) (A) (A) (A) (A) (A)
                 (A) (A) (A) (A) (A) (A) (A) (A) (A) (A) (A) (A)
                 (A) (A) (A) (A) (A) (A) (A) (A) (A) (A) (A) (A)
                 (A) (A) (A) (A) (A) (A) (A) (A) (A) (A) (A) (A)
                 (A) (A) (A) (A) (A) (A) (A) (A) (A) (A) (A) (A)
                 (A) (A) (A) (A) (A) (A) (A) (A) (A) (A) (A) (A)
                 (A) (A) (A) (A) (A) (A) (A) (A) (A) (A) (A) (A)
                 (A) (A) (A) (A) (A) (A) (A) (A) (A) (A) (A) (A)
                 (A) (A) (A) (A) (A) (A) (A) (A) (A) (A) (A) (A)
                 (A) (A) (A) (A) (A) (A) (A) (A) (A) (A) (A) (A)
                 (A) (A) (A) (A) (A) (A) (A) (A) (A) (A) (A) (A)
                 (A) (A) (A) (A) (A) (A) (A) (A) (A) (A) (A) (A)
                 (A) (A) (A) (A) (A) (A) (A) (A) (A) (A) (A) (A)
                 (A) (A) (A) (A) (A) (A) (A) (A) (A) (A) (A) (A)
                 (A) (A) (A) (A) (A) (A) (A) (A) (A) (A) (A) (A)
                 (A) (A) (A) (A) (A) (A) (A) (A) (A) (A) (A) (A)
                 (A) (A) (A) (A) (A) (A) (A) (A) (A) (A) (A) (A)
                 (A) (A) (A) (A) (A) (A) (A) (A) (A) (A) (A) (A)
                 (A) (A) (A) (A) (A) (A) (A) (A) (A) (A) (A) (A)
                 (A) (A) (A) (A) (A) (A) (A) (A) (A) (A) (A) (A)
                 (A) (A) (A) (A) (A) (A) (A) (A) (A) (A) (A) (A)
                 (A) (A) (A) (A) (A) (A) (A) (A) (A) (A) (A) (A)
                 (A) (A) (A) (A) (A) (A) (A) (A) (A) (A) (A) (A)
                 (A) (A) (A) (A) (A) (A) (A) (A) (A) (A) (A) (A)
                 (A) (A) (A) (A) (A) (A) (A) (A) (A) (A) (A) (A)
                 (A) (A) (A) (A) (A) (A) (A) (A) (A) (A) (A) (A)
                 (A) (A) (A) (A) (A) (A) (A) (A) (A) (A) (A) (A)
                 (A) (A) (A) (A) (A) (A) (A)
 The electronic state is 2-A.
 Alpha  occ. eigenvalues -- -256.50480 -89.13861 -30.29130 -26.12491 -26.11562
 Alpha  occ. eigenvalues --  -26.10272 -19.34674 -19.33466 -19.24566 -19.23846
 Alpha  occ. eigenvalues --  -14.55158 -14.51235 -14.48789 -14.48560 -14.48458
 Alpha  occ. eigenvalues --  -14.48302 -10.43067 -10.41970 -10.39218 -10.36489
 Alpha  occ. eigenvalues --  -10.35463 -10.35433 -10.35396 -10.35390 -10.35014
 Alpha  occ. eigenvalues --  -10.34974 -10.34973 -10.34786 -10.34268 -10.34115
 Alpha  occ. eigenvalues --  -10.33624 -10.33232 -10.32732 -10.32364 -10.32348
 Alpha  occ. eigenvalues --  -10.32250 -10.32131 -10.32085 -10.32065 -10.31815
 Alpha  occ. eigenvalues --  -10.31799 -10.31704 -10.31666 -10.31658 -10.31627
 Alpha  occ. eigenvalues --  -10.31545 -10.31520 -10.31413 -10.31306 -10.30455
 Alpha  occ. eigenvalues --  -10.30326 -10.30171 -10.30028 -10.29518 -10.29512
 Alpha  occ. eigenvalues --  -10.28072 -10.27612  -8.11792  -6.05410  -6.05128
 Alpha  occ. eigenvalues --   -6.04651  -3.64776  -2.42504  -2.40543  -2.37808
 Alpha  occ. eigenvalues --   -1.24748  -1.24420  -1.17288  -1.08974  -1.08802
 Alpha  occ. eigenvalues --   -1.07932  -1.07850  -1.07440  -1.05996  -1.02003
 Alpha  occ. eigenvalues --   -0.95420  -0.94796  -0.93228  -0.93056  -0.92374
 Alpha  occ. eigenvalues --   -0.92163  -0.91758  -0.91452  -0.91314  -0.88659
 Alpha  occ. eigenvalues --   -0.88285  -0.87516  -0.87210  -0.86992  -0.86530
 Alpha  occ. eigenvalues --   -0.84165  -0.82618  -0.81782  -0.81592  -0.81050
 Alpha  occ. eigenvalues --   -0.79193  -0.78417  -0.77725  -0.77423  -0.76469
 Alpha  occ. eigenvalues --   -0.75846  -0.75519  -0.73986  -0.73776  -0.72870
 Alpha  occ. eigenvalues --   -0.71533  -0.70844  -0.70072  -0.69737  -0.68827
 Alpha  occ. eigenvalues --   -0.67175  -0.66025  -0.64959  -0.64635  -0.63546
 Alpha  occ. eigenvalues --   -0.62615  -0.62000  -0.61869  -0.60223  -0.60098
 Alpha  occ. eigenvalues --   -0.59251  -0.59137  -0.59075  -0.58820  -0.58533
 Alpha  occ. eigenvalues --   -0.58390  -0.58183  -0.57480  -0.57303  -0.56839
 Alpha  occ. eigenvalues --   -0.56255  -0.56165  -0.55803  -0.55614  -0.55137
 Alpha  occ. eigenvalues --   -0.54998  -0.54656  -0.54306  -0.54148  -0.54090
 Alpha  occ. eigenvalues --   -0.54014  -0.53831  -0.53557  -0.53388  -0.52942
 Alpha  occ. eigenvalues --   -0.52817  -0.52643  -0.52389  -0.52049  -0.51960
 Alpha  occ. eigenvalues --   -0.51693  -0.51467  -0.51119  -0.50976  -0.50818
 Alpha  occ. eigenvalues --   -0.50607  -0.50068  -0.49838  -0.49762  -0.49610
 Alpha  occ. eigenvalues --   -0.49374  -0.49050  -0.48567  -0.48424  -0.48110
 Alpha  occ. eigenvalues --   -0.47880  -0.47728  -0.47488  -0.47381  -0.47178
 Alpha  occ. eigenvalues --   -0.46959  -0.46826  -0.46582  -0.46247  -0.45901
 Alpha  occ. eigenvalues --   -0.45705  -0.45596  -0.45548  -0.44713  -0.44318
 Alpha  occ. eigenvalues --   -0.43861  -0.43625  -0.43355  -0.43218  -0.43091
 Alpha  occ. eigenvalues --   -0.43006  -0.41649  -0.41121  -0.39861  -0.39456
 Alpha  occ. eigenvalues --   -0.38943  -0.38872  -0.38647  -0.38451  -0.35925
 Alpha  occ. eigenvalues --   -0.35374  -0.35079  -0.34801  -0.34476  -0.34192
 Alpha  occ. eigenvalues --   -0.33471  -0.31882  -0.29951  -0.29895  -0.27567
 Alpha virt. eigenvalues --   -0.18367  -0.17063  -0.16412  -0.13933  -0.12708
 Alpha virt. eigenvalues --   -0.10411  -0.08655  -0.06967  -0.06785  -0.06477
 Alpha virt. eigenvalues --   -0.06205  -0.05636  -0.05296  -0.05131  -0.04689
 Alpha virt. eigenvalues --   -0.04174  -0.03377  -0.03219  -0.02945  -0.02832
 Alpha virt. eigenvalues --   -0.02322  -0.02226  -0.02089  -0.01784  -0.01741
 Alpha virt. eigenvalues --   -0.01464  -0.00969  -0.00813  -0.00597  -0.00324
 Alpha virt. eigenvalues --   -0.00292   0.00248   0.00578   0.00909   0.01151
 Alpha virt. eigenvalues --    0.01734   0.01893   0.02453   0.02548   0.02722
 Alpha virt. eigenvalues --    0.03055   0.03272   0.03314   0.03507   0.03654
 Alpha virt. eigenvalues --    0.03833   0.04069   0.04164   0.04250   0.04483
 Alpha virt. eigenvalues --    0.04672   0.05026   0.05226   0.05437   0.05517
 Alpha virt. eigenvalues --    0.05656   0.05862   0.06029   0.06150   0.06231
 Alpha virt. eigenvalues --    0.06617   0.06758   0.06873   0.06904   0.07223
 Alpha virt. eigenvalues --    0.07547   0.07705   0.08141   0.08194   0.08362
 Alpha virt. eigenvalues --    0.08652   0.08907   0.09081   0.09140   0.09326
 Alpha virt. eigenvalues --    0.09663   0.09999   0.10008   0.10249   0.10375
 Alpha virt. eigenvalues --    0.10550   0.10786   0.10972   0.11213   0.11397
 Alpha virt. eigenvalues --    0.11616   0.11745   0.11819   0.12151   0.12201
 Alpha virt. eigenvalues --    0.12540   0.12976   0.13096   0.13156   0.13242
 Alpha virt. eigenvalues --    0.13666   0.13851   0.14158   0.14241   0.14391
 Alpha virt. eigenvalues --    0.14717   0.14815   0.15314   0.15429   0.15572
 Alpha virt. eigenvalues --    0.15894   0.15955   0.16300   0.16603   0.16673
 Alpha virt. eigenvalues --    0.16702   0.16909   0.17173   0.17357   0.17528
 Alpha virt. eigenvalues --    0.17706   0.17887   0.18195   0.18424   0.18488
 Alpha virt. eigenvalues --    0.18566   0.18843   0.18879   0.19373   0.19521
 Alpha virt. eigenvalues --    0.19699   0.19881   0.20341   0.20451   0.20581
 Alpha virt. eigenvalues --    0.20868   0.21218   0.21357   0.21719   0.21730
 Alpha virt. eigenvalues --    0.21939   0.22098   0.22392   0.22706   0.22899
 Alpha virt. eigenvalues --    0.23257   0.23442   0.23780   0.23964   0.24190
 Alpha virt. eigenvalues --    0.24464   0.24648   0.24785   0.24847   0.25057
 Alpha virt. eigenvalues --    0.25287   0.25752   0.25833   0.26095   0.26247
 Alpha virt. eigenvalues --    0.26410   0.26938   0.27163   0.27241   0.27439
 Alpha virt. eigenvalues --    0.27703   0.27989   0.28122   0.28420   0.28617
 Alpha virt. eigenvalues --    0.28925   0.28981   0.29170   0.29302   0.29755
 Alpha virt. eigenvalues --    0.29770   0.29954   0.30081   0.30297   0.30470
 Alpha virt. eigenvalues --    0.30811   0.30904   0.31136   0.31550   0.31592
 Alpha virt. eigenvalues --    0.31679   0.31783   0.32023   0.32196   0.32518
 Alpha virt. eigenvalues --    0.32586   0.32746   0.32956   0.33235   0.33551
 Alpha virt. eigenvalues --    0.33665   0.33699   0.33981   0.34032   0.34354
 Alpha virt. eigenvalues --    0.34480   0.34606   0.34785   0.35169   0.35365
 Alpha virt. eigenvalues --    0.35546   0.35735   0.36051   0.36102   0.36207
 Alpha virt. eigenvalues --    0.36380   0.36645   0.36749   0.36897   0.37054
 Alpha virt. eigenvalues --    0.37135   0.37336   0.37780   0.37800   0.37910
 Alpha virt. eigenvalues --    0.38226   0.38313   0.38480   0.38511   0.38912
 Alpha virt. eigenvalues --    0.39142   0.39202   0.39358   0.39525   0.39607
 Alpha virt. eigenvalues --    0.39852   0.40110   0.40185   0.40313   0.40456
 Alpha virt. eigenvalues --    0.40793   0.40878   0.41013   0.41196   0.41235
 Alpha virt. eigenvalues --    0.41574   0.41761   0.41978   0.42209   0.42303
 Alpha virt. eigenvalues --    0.42458   0.42690   0.42835   0.42911   0.43072
 Alpha virt. eigenvalues --    0.43394   0.43437   0.43634   0.43720   0.43958
 Alpha virt. eigenvalues --    0.44030   0.44105   0.44206   0.44520   0.44810
 Alpha virt. eigenvalues --    0.44916   0.45224   0.45306   0.45432   0.45560
 Alpha virt. eigenvalues --    0.45773   0.46005   0.46224   0.46366   0.46812
 Alpha virt. eigenvalues --    0.46974   0.47088   0.47324   0.47358   0.47693
 Alpha virt. eigenvalues --    0.47941   0.48171   0.48505   0.48693   0.48740
 Alpha virt. eigenvalues --    0.48965   0.49233   0.49459   0.49558   0.49616
 Alpha virt. eigenvalues --    0.49846   0.50283   0.50478   0.50571   0.50762
 Alpha virt. eigenvalues --    0.51090   0.51272   0.51554   0.51770   0.52021
 Alpha virt. eigenvalues --    0.52226   0.52278   0.52669   0.53011   0.53111
 Alpha virt. eigenvalues --    0.53331   0.53457   0.53982   0.54102   0.54263
 Alpha virt. eigenvalues --    0.54541   0.54672   0.54798   0.55408   0.55765
 Alpha virt. eigenvalues --    0.55903   0.55931   0.56284   0.56462   0.56656
 Alpha virt. eigenvalues --    0.56981   0.57027   0.57330   0.57546   0.57721
 Alpha virt. eigenvalues --    0.58125   0.58257   0.58568   0.58750   0.59194
 Alpha virt. eigenvalues --    0.59341   0.59896   0.60115   0.60287   0.60344
 Alpha virt. eigenvalues --    0.60608   0.60969   0.61020   0.61311   0.61620
 Alpha virt. eigenvalues --    0.61708   0.62203   0.62572   0.62853   0.63378
 Alpha virt. eigenvalues --    0.63478   0.63742   0.63878   0.64117   0.64845
 Alpha virt. eigenvalues --    0.65149   0.65260   0.65379   0.65864   0.66122
 Alpha virt. eigenvalues --    0.66523   0.66657   0.67045   0.67211   0.67598
 Alpha virt. eigenvalues --    0.67833   0.67995   0.68393   0.68739   0.69044
 Alpha virt. eigenvalues --    0.69090   0.69427   0.69689   0.70006   0.70320
 Alpha virt. eigenvalues --    0.70606   0.70819   0.71442   0.71680   0.72083
 Alpha virt. eigenvalues --    0.72230   0.72515   0.72661   0.72857   0.73593
 Alpha virt. eigenvalues --    0.73680   0.73756   0.74090   0.74639   0.74918
 Alpha virt. eigenvalues --    0.75033   0.75299   0.75776   0.76098   0.76302
 Alpha virt. eigenvalues --    0.76831   0.76957   0.77420   0.77752   0.77806
 Alpha virt. eigenvalues --    0.78077   0.78177   0.78712   0.78844   0.79077
 Alpha virt. eigenvalues --    0.79425   0.80020   0.80331   0.80671   0.80895
 Alpha virt. eigenvalues --    0.81228   0.81600   0.81744   0.82018   0.82318
 Alpha virt. eigenvalues --    0.82488   0.82715   0.82827   0.83024   0.83426
 Alpha virt. eigenvalues --    0.83524   0.83869   0.84242   0.84488   0.84745
 Alpha virt. eigenvalues --    0.84915   0.85208   0.85511   0.85577   0.85877
 Alpha virt. eigenvalues --    0.86008   0.86480   0.86743   0.86933   0.87237
 Alpha virt. eigenvalues --    0.87418   0.87491   0.87735   0.88110   0.88515
 Alpha virt. eigenvalues --    0.88601   0.88949   0.89096   0.89507   0.89653
 Alpha virt. eigenvalues --    0.89938   0.90226   0.90540   0.90825   0.91098
 Alpha virt. eigenvalues --    0.91343   0.91684   0.91881   0.92335   0.92608
 Alpha virt. eigenvalues --    0.92833   0.93116   0.93458   0.93621   0.93955
 Alpha virt. eigenvalues --    0.94113   0.94291   0.94481   0.94936   0.95146
 Alpha virt. eigenvalues --    0.95493   0.95825   0.96082   0.96348   0.96621
 Alpha virt. eigenvalues --    0.96807   0.97038   0.97164   0.97458   0.97647
 Alpha virt. eigenvalues --    0.97732   0.98255   0.98472   0.99044   0.99093
 Alpha virt. eigenvalues --    0.99509   0.99592   1.00025   1.00166   1.00582
 Alpha virt. eigenvalues --    1.01144   1.01347   1.01628   1.02122   1.02266
 Alpha virt. eigenvalues --    1.02613   1.02911   1.03536   1.03885   1.04393
 Alpha virt. eigenvalues --    1.04798   1.04850   1.05339   1.05529   1.05644
 Alpha virt. eigenvalues --    1.05929   1.06257   1.06497   1.07023   1.07258
 Alpha virt. eigenvalues --    1.07685   1.08054   1.08232   1.08691   1.09127
 Alpha virt. eigenvalues --    1.09234   1.09699   1.09976   1.10438   1.10604
 Alpha virt. eigenvalues --    1.11016   1.11187   1.11806   1.12173   1.12567
 Alpha virt. eigenvalues --    1.13229   1.13290   1.13446   1.13705   1.14237
 Alpha virt. eigenvalues --    1.14620   1.14860   1.15196   1.15399   1.16040
 Alpha virt. eigenvalues --    1.16260   1.16407   1.16566   1.17170   1.17633
 Alpha virt. eigenvalues --    1.17684   1.18266   1.18454   1.18785   1.18803
 Alpha virt. eigenvalues --    1.19398   1.19707   1.20012   1.20361   1.20662
 Alpha virt. eigenvalues --    1.21101   1.21287   1.21569   1.21918   1.21979
 Alpha virt. eigenvalues --    1.22968   1.23239   1.23780   1.24003   1.24413
 Alpha virt. eigenvalues --    1.24598   1.25023   1.25390   1.25698   1.26047
 Alpha virt. eigenvalues --    1.26293   1.26718   1.26872   1.27172   1.27426
 Alpha virt. eigenvalues --    1.27871   1.28413   1.28899   1.29231   1.29447
 Alpha virt. eigenvalues --    1.29698   1.30400   1.31086   1.31229   1.31515
 Alpha virt. eigenvalues --    1.31833   1.32565   1.33203   1.33722   1.34008
 Alpha virt. eigenvalues --    1.34480   1.34992   1.35372   1.35915   1.36519
 Alpha virt. eigenvalues --    1.37131   1.37207   1.37819   1.37914   1.38403
 Alpha virt. eigenvalues --    1.38677   1.38878   1.38960   1.39370   1.39681
 Alpha virt. eigenvalues --    1.40003   1.40126   1.40499   1.40640   1.40722
 Alpha virt. eigenvalues --    1.41650   1.41703   1.41908   1.42179   1.42697
 Alpha virt. eigenvalues --    1.42924   1.43244   1.43386   1.43894   1.43992
 Alpha virt. eigenvalues --    1.44305   1.44387   1.44671   1.44711   1.45379
 Alpha virt. eigenvalues --    1.45526   1.45582   1.45739   1.45957   1.46124
 Alpha virt. eigenvalues --    1.46649   1.46889   1.47229   1.47380   1.47936
 Alpha virt. eigenvalues --    1.48043   1.48179   1.48362   1.48532   1.48694
 Alpha virt. eigenvalues --    1.49005   1.49371   1.49578   1.49806   1.49889
 Alpha virt. eigenvalues --    1.49955   1.50528   1.50765   1.51202   1.51395
 Alpha virt. eigenvalues --    1.51867   1.52121   1.52145   1.52513   1.52825
 Alpha virt. eigenvalues --    1.52993   1.53205   1.53415   1.53750   1.53898
 Alpha virt. eigenvalues --    1.54225   1.54272   1.54476   1.54823   1.55213
 Alpha virt. eigenvalues --    1.55401   1.55616   1.55946   1.56071   1.56402
 Alpha virt. eigenvalues --    1.56530   1.56839   1.57092   1.57524   1.57787
 Alpha virt. eigenvalues --    1.57842   1.58165   1.58549   1.58642   1.59175
 Alpha virt. eigenvalues --    1.59336   1.59504   1.60042   1.60231   1.60436
 Alpha virt. eigenvalues --    1.60821   1.60961   1.61115   1.61241   1.61550
 Alpha virt. eigenvalues --    1.61762   1.62274   1.62453   1.62970   1.63124
 Alpha virt. eigenvalues --    1.63163   1.63619   1.63920   1.64172   1.64184
 Alpha virt. eigenvalues --    1.64477   1.64802   1.65278   1.65469   1.65774
 Alpha virt. eigenvalues --    1.66222   1.66318   1.66444   1.66851   1.67200
 Alpha virt. eigenvalues --    1.67398   1.68118   1.68468   1.68636   1.68862
 Alpha virt. eigenvalues --    1.69303   1.69771   1.70383   1.70819   1.71377
 Alpha virt. eigenvalues --    1.71380   1.71863   1.72490   1.72634   1.73259
 Alpha virt. eigenvalues --    1.73649   1.74343   1.74518   1.75258   1.75341
 Alpha virt. eigenvalues --    1.75628   1.75944   1.76193   1.76488   1.76932
 Alpha virt. eigenvalues --    1.77067   1.77338   1.78241   1.78439   1.78551
 Alpha virt. eigenvalues --    1.79203   1.79493   1.79804   1.79961   1.80137
 Alpha virt. eigenvalues --    1.80509   1.80789   1.81156   1.81398   1.81529
 Alpha virt. eigenvalues --    1.82046   1.82195   1.82733   1.83368   1.83943
 Alpha virt. eigenvalues --    1.84102   1.84393   1.84883   1.85133   1.85890
 Alpha virt. eigenvalues --    1.86267   1.86390   1.86811   1.87056   1.87352
 Alpha virt. eigenvalues --    1.87564   1.87928   1.88033   1.88640   1.88770
 Alpha virt. eigenvalues --    1.89022   1.89222   1.89539   1.89842   1.89992
 Alpha virt. eigenvalues --    1.90283   1.90768   1.91234   1.91542   1.91897
 Alpha virt. eigenvalues --    1.92025   1.92192   1.92503   1.92745   1.93024
 Alpha virt. eigenvalues --    1.93188   1.93899   1.94145   1.94664   1.94984
 Alpha virt. eigenvalues --    1.95378   1.95739   1.96188   1.96567   1.96772
 Alpha virt. eigenvalues --    1.97059   1.97359   1.97694   1.98188   1.98424
 Alpha virt. eigenvalues --    1.98557   1.99020   1.99676   2.00092   2.00353
 Alpha virt. eigenvalues --    2.00753   2.00922   2.00970   2.01767   2.01898
 Alpha virt. eigenvalues --    2.02377   2.02599   2.03120   2.03272   2.03554
 Alpha virt. eigenvalues --    2.03825   2.04232   2.04385   2.04928   2.05355
 Alpha virt. eigenvalues --    2.05717   2.06049   2.06207   2.06616   2.06960
 Alpha virt. eigenvalues --    2.07265   2.07945   2.08061   2.08406   2.08954
 Alpha virt. eigenvalues --    2.09073   2.09467   2.09900   2.10001   2.10202
 Alpha virt. eigenvalues --    2.10711   2.10834   2.11048   2.11502   2.12159
 Alpha virt. eigenvalues --    2.12301   2.12454   2.12580   2.12719   2.13298
 Alpha virt. eigenvalues --    2.13412   2.13634   2.14311   2.14644   2.14829
 Alpha virt. eigenvalues --    2.15288   2.15523   2.15758   2.15964   2.16449
 Alpha virt. eigenvalues --    2.16495   2.17293   2.17580   2.17710   2.18190
 Alpha virt. eigenvalues --    2.18538   2.18991   2.19213   2.19501   2.19826
 Alpha virt. eigenvalues --    2.20407   2.20701   2.21189   2.21655   2.22032
 Alpha virt. eigenvalues --    2.22532   2.22880   2.23123   2.23188   2.23519
 Alpha virt. eigenvalues --    2.23826   2.24531   2.24937   2.25245   2.25526
 Alpha virt. eigenvalues --    2.25769   2.25969   2.26329   2.26749   2.27093
 Alpha virt. eigenvalues --    2.27521   2.27962   2.28189   2.28793   2.29242
 Alpha virt. eigenvalues --    2.29351   2.29793   2.30425   2.30760   2.30881
 Alpha virt. eigenvalues --    2.31189   2.31781   2.31831   2.31921   2.32614
 Alpha virt. eigenvalues --    2.33021   2.33248   2.33434   2.33829   2.33851
 Alpha virt. eigenvalues --    2.34573   2.34809   2.35187   2.35501   2.35838
 Alpha virt. eigenvalues --    2.36414   2.36627   2.36830   2.37361   2.37608
 Alpha virt. eigenvalues --    2.37695   2.38258   2.38862   2.39373   2.39542
 Alpha virt. eigenvalues --    2.39869   2.40529   2.40622   2.40935   2.41175
 Alpha virt. eigenvalues --    2.41717   2.41886   2.42012   2.42501   2.42873
 Alpha virt. eigenvalues --    2.43295   2.43822   2.44121   2.44281   2.44937
 Alpha virt. eigenvalues --    2.45240   2.45369   2.45693   2.45908   2.46232
 Alpha virt. eigenvalues --    2.46445   2.46714   2.47421   2.47582   2.48316
 Alpha virt. eigenvalues --    2.48472   2.48664   2.48983   2.49017   2.49840
 Alpha virt. eigenvalues --    2.49939   2.50182   2.50548   2.50859   2.50926
 Alpha virt. eigenvalues --    2.51380   2.51603   2.51930   2.52265   2.52557
 Alpha virt. eigenvalues --    2.52997   2.53518   2.53750   2.54050   2.54338
 Alpha virt. eigenvalues --    2.54380   2.54889   2.55077   2.55272   2.55719
 Alpha virt. eigenvalues --    2.55854   2.56259   2.56400   2.56972   2.57256
 Alpha virt. eigenvalues --    2.57522   2.57767   2.57919   2.58135   2.58422
 Alpha virt. eigenvalues --    2.58901   2.59233   2.59453   2.59738   2.59850
 Alpha virt. eigenvalues --    2.59943   2.60818   2.60913   2.61353   2.61501
 Alpha virt. eigenvalues --    2.61881   2.61939   2.62411   2.62842   2.63177
 Alpha virt. eigenvalues --    2.63267   2.63570   2.63720   2.64165   2.64597
 Alpha virt. eigenvalues --    2.64872   2.65095   2.65294   2.65507   2.65979
 Alpha virt. eigenvalues --    2.66311   2.66644   2.67164   2.67488   2.67562
 Alpha virt. eigenvalues --    2.68109   2.68282   2.68572   2.69301   2.69525
 Alpha virt. eigenvalues --    2.70188   2.70261   2.70330   2.70471   2.70647
 Alpha virt. eigenvalues --    2.70887   2.71453   2.71574   2.72053   2.72348
 Alpha virt. eigenvalues --    2.72539   2.72681   2.72996   2.73191   2.73652
 Alpha virt. eigenvalues --    2.74218   2.74327   2.74926   2.75078   2.75539
 Alpha virt. eigenvalues --    2.75700   2.75786   2.76274   2.77033   2.77212
 Alpha virt. eigenvalues --    2.77737   2.78103   2.78507   2.78906   2.78984
 Alpha virt. eigenvalues --    2.79671   2.80022   2.80616   2.80842   2.81269
 Alpha virt. eigenvalues --    2.81679   2.81946   2.82094   2.82332   2.82595
 Alpha virt. eigenvalues --    2.82798   2.83034   2.83383   2.84072   2.84171
 Alpha virt. eigenvalues --    2.84374   2.84764   2.84919   2.84995   2.85593
 Alpha virt. eigenvalues --    2.85919   2.86260   2.86840   2.87122   2.87427
 Alpha virt. eigenvalues --    2.87945   2.88257   2.88570   2.88891   2.89011
 Alpha virt. eigenvalues --    2.89159   2.89520   2.89591   2.89847   2.90054
 Alpha virt. eigenvalues --    2.90338   2.91100   2.91138   2.91481   2.91577
 Alpha virt. eigenvalues --    2.92180   2.92318   2.92500   2.92998   2.93215
 Alpha virt. eigenvalues --    2.93585   2.93946   2.94374   2.94669   2.94952
 Alpha virt. eigenvalues --    2.95109   2.95225   2.95649   2.96403   2.96469
 Alpha virt. eigenvalues --    2.96748   2.96859   2.96996   2.97742   2.97847
 Alpha virt. eigenvalues --    2.97957   2.98234   2.98324   2.99057   2.99340
 Alpha virt. eigenvalues --    2.99426   2.99907   3.00037   3.00317   3.00414
 Alpha virt. eigenvalues --    3.00916   3.01111   3.01170   3.01555   3.02005
 Alpha virt. eigenvalues --    3.02064   3.02270   3.02592   3.02980   3.03117
 Alpha virt. eigenvalues --    3.03578   3.03954   3.04129   3.04243   3.04521
 Alpha virt. eigenvalues --    3.04976   3.05266   3.05349   3.05584   3.05813
 Alpha virt. eigenvalues --    3.06361   3.06820   3.06882   3.07062   3.07482
 Alpha virt. eigenvalues --    3.07548   3.07786   3.07999   3.08170   3.08442
 Alpha virt. eigenvalues --    3.08827   3.09153   3.09319   3.09754   3.09973
 Alpha virt. eigenvalues --    3.10417   3.10520   3.10888   3.11073   3.11501
 Alpha virt. eigenvalues --    3.11592   3.11850   3.12217   3.12585   3.12810
 Alpha virt. eigenvalues --    3.13254   3.13527   3.13726   3.13933   3.14061
 Alpha virt. eigenvalues --    3.14462   3.14798   3.14924   3.15148   3.15322
 Alpha virt. eigenvalues --    3.15831   3.15907   3.16144   3.16314   3.16697
 Alpha virt. eigenvalues --    3.16964   3.17020   3.17464   3.17608   3.17840
 Alpha virt. eigenvalues --    3.18066   3.18207   3.18454   3.18900   3.19136
 Alpha virt. eigenvalues --    3.19378   3.19579   3.20057   3.20121   3.20512
 Alpha virt. eigenvalues --    3.20657   3.20933   3.21005   3.21142   3.21346
 Alpha virt. eigenvalues --    3.21825   3.22033   3.22306   3.22369   3.22855
 Alpha virt. eigenvalues --    3.23263   3.23564   3.23794   3.23934   3.24323
 Alpha virt. eigenvalues --    3.24492   3.24772   3.24908   3.25125   3.25387
 Alpha virt. eigenvalues --    3.25915   3.26331   3.26605   3.26909   3.27171
 Alpha virt. eigenvalues --    3.27331   3.27436   3.27792   3.28148   3.28364
 Alpha virt. eigenvalues --    3.28572   3.29206   3.29408   3.29696   3.29729
 Alpha virt. eigenvalues --    3.30001   3.30309   3.30532   3.30770   3.31102
 Alpha virt. eigenvalues --    3.31277   3.31428   3.31723   3.31951   3.32436
 Alpha virt. eigenvalues --    3.32586   3.32760   3.32996   3.33200   3.33622
 Alpha virt. eigenvalues --    3.33842   3.34283   3.34424   3.34532   3.34639
 Alpha virt. eigenvalues --    3.34909   3.34949   3.35046   3.35698   3.36182
 Alpha virt. eigenvalues --    3.36323   3.36802   3.36964   3.37073   3.37481
 Alpha virt. eigenvalues --    3.37743   3.38044   3.38139   3.38452   3.39006
 Alpha virt. eigenvalues --    3.39284   3.39461   3.40062   3.40271   3.40405
 Alpha virt. eigenvalues --    3.40692   3.40708   3.41084   3.41394   3.41960
 Alpha virt. eigenvalues --    3.42199   3.42673   3.42949   3.43347   3.43691
 Alpha virt. eigenvalues --    3.43820   3.44147   3.44394   3.44606   3.44812
 Alpha virt. eigenvalues --    3.45022   3.45562   3.45817   3.46345   3.46477
 Alpha virt. eigenvalues --    3.47049   3.47173   3.47587   3.47993   3.48176
 Alpha virt. eigenvalues --    3.48420   3.48973   3.49148   3.49463   3.49781
 Alpha virt. eigenvalues --    3.50220   3.50472   3.50605   3.51138   3.51384
 Alpha virt. eigenvalues --    3.51582   3.51986   3.52177   3.52593   3.52910
 Alpha virt. eigenvalues --    3.53512   3.53996   3.54433   3.54610   3.54896
 Alpha virt. eigenvalues --    3.55286   3.55638   3.56173   3.56239   3.56906
 Alpha virt. eigenvalues --    3.57446   3.57756   3.57889   3.58116   3.58463
 Alpha virt. eigenvalues --    3.59155   3.59644   3.59829   3.60261   3.60403
 Alpha virt. eigenvalues --    3.60497   3.61052   3.61437   3.61815   3.62338
 Alpha virt. eigenvalues --    3.62544   3.62629   3.62999   3.63194   3.63486
 Alpha virt. eigenvalues --    3.64088   3.64440   3.64716   3.65152   3.65716
 Alpha virt. eigenvalues --    3.66099   3.66193   3.66366   3.66663   3.67190
 Alpha virt. eigenvalues --    3.67778   3.68131   3.68293   3.69046   3.69226
 Alpha virt. eigenvalues --    3.69667   3.69939   3.70571   3.70828   3.71272
 Alpha virt. eigenvalues --    3.71632   3.71994   3.72586   3.73100   3.73370
 Alpha virt. eigenvalues --    3.74019   3.74460   3.74993   3.75388   3.76016
 Alpha virt. eigenvalues --    3.76580   3.76964   3.77626   3.78105   3.78162
 Alpha virt. eigenvalues --    3.78848   3.79354   3.79546   3.79943   3.80415
 Alpha virt. eigenvalues --    3.80647   3.81225   3.81275   3.81451   3.81942
 Alpha virt. eigenvalues --    3.82770   3.83569   3.83976   3.84179   3.84395
 Alpha virt. eigenvalues --    3.85239   3.85730   3.86095   3.86723   3.87719
 Alpha virt. eigenvalues --    3.87917   3.88187   3.88316   3.88950   3.89210
 Alpha virt. eigenvalues --    3.89721   3.90075   3.90297   3.91017   3.91384
 Alpha virt. eigenvalues --    3.91774   3.92245   3.92595   3.93647   3.94113
 Alpha virt. eigenvalues --    3.94156   3.94489   3.95377   3.95724   3.96546
 Alpha virt. eigenvalues --    3.96826   3.97216   3.97917   3.98109   3.99167
 Alpha virt. eigenvalues --    3.99365   3.99752   4.00036   4.00752   4.00929
 Alpha virt. eigenvalues --    4.01023   4.01836   4.02839   4.03020   4.03840
 Alpha virt. eigenvalues --    4.05485   4.05811   4.06422   4.06702   4.06908
 Alpha virt. eigenvalues --    4.07065   4.07650   4.08198   4.08358   4.09359
 Alpha virt. eigenvalues --    4.09671   4.10015   4.10540   4.10596   4.11525
 Alpha virt. eigenvalues --    4.11749   4.12720   4.12924   4.13305   4.13549
 Alpha virt. eigenvalues --    4.14087   4.14205   4.14739   4.14899   4.15287
 Alpha virt. eigenvalues --    4.16447   4.17286   4.17736   4.17883   4.18286
 Alpha virt. eigenvalues --    4.18485   4.19042   4.19428   4.20391   4.21059
 Alpha virt. eigenvalues --    4.21260   4.21802   4.22063   4.22301   4.23200
 Alpha virt. eigenvalues --    4.23805   4.24633   4.25370   4.25988   4.26759
 Alpha virt. eigenvalues --    4.27017   4.27421   4.27823   4.28496   4.28691
 Alpha virt. eigenvalues --    4.28842   4.29034   4.30566   4.31038   4.31082
 Alpha virt. eigenvalues --    4.31453   4.32427   4.32788   4.32976   4.33681
 Alpha virt. eigenvalues --    4.34212   4.34288   4.35095   4.35362   4.36264
 Alpha virt. eigenvalues --    4.36974   4.37227   4.37643   4.38259   4.38295
 Alpha virt. eigenvalues --    4.38640   4.39152   4.39710   4.40031   4.40963
 Alpha virt. eigenvalues --    4.41376   4.42228   4.42909   4.43649   4.43878
 Alpha virt. eigenvalues --    4.44779   4.45078   4.46418   4.47342   4.48048
 Alpha virt. eigenvalues --    4.49187   4.49633   4.50031   4.50468   4.51013
 Alpha virt. eigenvalues --    4.51521   4.51955   4.51976   4.52571   4.52932
 Alpha virt. eigenvalues --    4.53625   4.53967   4.54077   4.55644   4.55877
 Alpha virt. eigenvalues --    4.56481   4.56937   4.58125   4.58358   4.59168
 Alpha virt. eigenvalues --    4.59546   4.60162   4.60590   4.61247   4.61802
 Alpha virt. eigenvalues --    4.61895   4.62415   4.62805   4.63693   4.63784
 Alpha virt. eigenvalues --    4.64397   4.64511   4.65779   4.65918   4.66195
 Alpha virt. eigenvalues --    4.67505   4.68140   4.69235   4.69739   4.70701
 Alpha virt. eigenvalues --    4.71735   4.72165   4.72779   4.73121   4.74083
 Alpha virt. eigenvalues --    4.74524   4.75201   4.75869   4.76359   4.76441
 Alpha virt. eigenvalues --    4.77193   4.78820   4.79523   4.80813   4.81612
 Alpha virt. eigenvalues --    4.82013   4.82459   4.83447   4.83521   4.84307
 Alpha virt. eigenvalues --    4.84751   4.84975   4.86059   4.86294   4.86811
 Alpha virt. eigenvalues --    4.87459   4.88077   4.88943   4.89493   4.89754
 Alpha virt. eigenvalues --    4.91313   4.91698   4.91920   4.92953   4.93430
 Alpha virt. eigenvalues --    4.93762   4.94027   4.95132   4.95734   4.97087
 Alpha virt. eigenvalues --    4.98489   5.00384   5.00909   5.02010   5.02605
 Alpha virt. eigenvalues --    5.03543   5.05805   5.06712   5.07882   5.08713
 Alpha virt. eigenvalues --    5.09275   5.09939   5.11293   5.11902   5.12964
 Alpha virt. eigenvalues --    5.13374   5.14038   5.14511   5.14587   5.15375
 Alpha virt. eigenvalues --    5.16296   5.16588   5.17637   5.18267   5.18603
 Alpha virt. eigenvalues --    5.20019   5.21263   5.22779   5.23924   5.24176
 Alpha virt. eigenvalues --    5.25258   5.26524   5.27889   5.28235   5.29556
 Alpha virt. eigenvalues --    5.30058   5.31119   5.31865   5.33644   5.34274
 Alpha virt. eigenvalues --    5.34870   5.35460   5.36276   5.38107   5.39184
 Alpha virt. eigenvalues --    5.40002   5.41085   5.41960   5.42989   5.45537
 Alpha virt. eigenvalues --    5.46136   5.47293   5.47883   5.49243   5.50323
 Alpha virt. eigenvalues --    5.51079   5.51616   5.52191   5.53138   5.54277
 Alpha virt. eigenvalues --    5.55067   5.55234   5.56651   5.58585   5.60159
 Alpha virt. eigenvalues --    5.60855   5.61725   5.64500   5.67200   5.69377
 Alpha virt. eigenvalues --    5.69567   5.72866   5.73662   5.77520   5.78138
 Alpha virt. eigenvalues --    5.84996   5.86758   5.87822   5.88948   5.89646
 Alpha virt. eigenvalues --    5.90546   5.92176   5.92209   5.94551   5.95915
 Alpha virt. eigenvalues --    5.96850   5.97329   5.99211   6.01505   6.01717
 Alpha virt. eigenvalues --    6.01890   6.03503   6.07052   6.09208   6.11360
 Alpha virt. eigenvalues --    6.12911   6.13664   6.16824   6.21043   6.22258
 Alpha virt. eigenvalues --    6.23874   6.26496   6.28388   6.29411   6.33224
 Alpha virt. eigenvalues --    6.36711   6.38818   6.42770   6.43438   6.47195
 Alpha virt. eigenvalues --    6.59407   6.60485   6.66751   6.69905   6.75812
 Alpha virt. eigenvalues --    6.77956   6.80125   6.87686   6.91219   6.95418
 Alpha virt. eigenvalues --    7.02017   7.06318   7.06763   7.07528   7.27014
 Alpha virt. eigenvalues --    7.28709   9.15734   9.41151   9.55674  20.23788
 Alpha virt. eigenvalues --   22.33327  22.33871  22.36610  22.43466  22.43607
 Alpha virt. eigenvalues --   22.44173  22.47758  22.50089  22.51415  22.54972
 Alpha virt. eigenvalues --   22.58311  22.60362  22.65502  22.66010  22.71578
 Alpha virt. eigenvalues --   22.76608  22.85575  22.86376  22.86491  22.88353
 Alpha virt. eigenvalues --   22.92870  22.95754  23.00781  23.02939  23.05182
 Alpha virt. eigenvalues --   23.11283  23.13433  23.18344  23.21424  23.22049
 Alpha virt. eigenvalues --   23.24763  23.34173  23.35481  23.37233  23.44936
 Alpha virt. eigenvalues --   23.46074  23.55668  23.58962  23.63826  23.68734
 Alpha virt. eigenvalues --   23.76580  32.38157  32.70278  32.87739  32.96762
 Alpha virt. eigenvalues --   32.98819  33.06732  43.85669  43.86819  43.87386
 Alpha virt. eigenvalues --   43.89874
  Beta  occ. eigenvalues -- -256.50445 -89.13887 -30.26843 -26.09965 -26.09604
  Beta  occ. eigenvalues --  -26.08998 -19.34674 -19.33466 -19.24566 -19.23846
  Beta  occ. eigenvalues --  -14.55158 -14.51309 -14.48887 -14.48627 -14.48462
  Beta  occ. eigenvalues --  -14.48359 -10.43067 -10.41970 -10.39216 -10.36491
  Beta  occ. eigenvalues --  -10.35431 -10.35392 -10.35384 -10.35369 -10.35071
  Beta  occ. eigenvalues --  -10.35020 -10.34925 -10.34831 -10.34261 -10.34105
  Beta  occ. eigenvalues --  -10.33617 -10.33232 -10.32736 -10.32363 -10.32295
  Beta  occ. eigenvalues --  -10.32282 -10.32143 -10.32113 -10.32098 -10.31827
  Beta  occ. eigenvalues --  -10.31799 -10.31749 -10.31705 -10.31664 -10.31628
  Beta  occ. eigenvalues --  -10.31565 -10.31545 -10.31492 -10.31413 -10.30456
  Beta  occ. eigenvalues --  -10.30172 -10.30019 -10.29927 -10.29531 -10.29512
  Beta  occ. eigenvalues --  -10.27983 -10.27707  -8.11818  -6.05428  -6.05170
  Beta  occ. eigenvalues --   -6.04707  -3.59152  -2.34490  -2.34401  -2.33818
  Beta  occ. eigenvalues --   -1.24748  -1.24420  -1.17310  -1.09015  -1.08802
  Beta  occ. eigenvalues --   -1.07931  -1.07841  -1.07493  -1.06025  -1.02053
  Beta  occ. eigenvalues --   -0.95481  -0.94799  -0.93420  -0.92997  -0.92540
  Beta  occ. eigenvalues --   -0.91997  -0.91613  -0.91431  -0.91318  -0.88560
  Beta  occ. eigenvalues --   -0.88301  -0.87517  -0.87242  -0.87081  -0.86534
  Beta  occ. eigenvalues --   -0.84188  -0.82621  -0.81783  -0.81619  -0.81044
  Beta  occ. eigenvalues --   -0.79198  -0.78431  -0.77735  -0.77443  -0.76475
  Beta  occ. eigenvalues --   -0.75843  -0.75551  -0.73992  -0.73772  -0.72872
  Beta  occ. eigenvalues --   -0.71695  -0.70938  -0.69974  -0.69739  -0.68813
  Beta  occ. eigenvalues --   -0.67173  -0.66026  -0.65200  -0.64440  -0.63628
  Beta  occ. eigenvalues --   -0.62519  -0.62072  -0.61901  -0.60244  -0.60048
  Beta  occ. eigenvalues --   -0.59253  -0.59177  -0.59025  -0.58828  -0.58512
  Beta  occ. eigenvalues --   -0.58417  -0.58208  -0.57482  -0.57299  -0.56832
  Beta  occ. eigenvalues --   -0.56299  -0.56172  -0.55805  -0.55413  -0.55021
  Beta  occ. eigenvalues --   -0.54989  -0.54601  -0.54358  -0.54182  -0.54119
  Beta  occ. eigenvalues --   -0.53925  -0.53678  -0.53476  -0.53347  -0.52901
  Beta  occ. eigenvalues --   -0.52823  -0.52609  -0.52490  -0.52163  -0.51895
  Beta  occ. eigenvalues --   -0.51704  -0.51661  -0.51173  -0.50916  -0.50673
  Beta  occ. eigenvalues --   -0.50400  -0.50186  -0.49878  -0.49724  -0.49468
  Beta  occ. eigenvalues --   -0.49304  -0.48921  -0.48576  -0.48314  -0.48059
  Beta  occ. eigenvalues --   -0.47873  -0.47727  -0.47401  -0.47203  -0.47089
  Beta  occ. eigenvalues --   -0.46962  -0.46772  -0.46457  -0.46042  -0.45870
  Beta  occ. eigenvalues --   -0.45600  -0.45505  -0.44721  -0.44153  -0.44073
  Beta  occ. eigenvalues --   -0.43610  -0.43588  -0.43325  -0.42855  -0.42757
  Beta  occ. eigenvalues --   -0.41678  -0.41134  -0.39155  -0.38956  -0.38888
  Beta  occ. eigenvalues --   -0.38736  -0.37957  -0.37614  -0.35464  -0.35367
  Beta  occ. eigenvalues --   -0.34935  -0.34696  -0.34414  -0.33995  -0.33576
  Beta  occ. eigenvalues --   -0.31743  -0.30054  -0.29908  -0.28042
  Beta virt. eigenvalues --   -0.19360  -0.17573  -0.15900  -0.13896  -0.12878
  Beta virt. eigenvalues --   -0.10826  -0.10107  -0.08564  -0.06960  -0.06765
  Beta virt. eigenvalues --   -0.06470  -0.06089  -0.05573  -0.05281  -0.05129
  Beta virt. eigenvalues --   -0.04652  -0.04088  -0.03329  -0.03254  -0.02917
  Beta virt. eigenvalues --   -0.02804  -0.02302  -0.02215  -0.02004  -0.01870
  Beta virt. eigenvalues --   -0.01671  -0.01427  -0.00911  -0.00731  -0.00528
  Beta virt. eigenvalues --   -0.00336  -0.00203   0.00215   0.00590   0.00911
  Beta virt. eigenvalues --    0.01074   0.01742   0.01879   0.02469   0.02491
  Beta virt. eigenvalues --    0.02755   0.02924   0.03253   0.03423   0.03585
  Beta virt. eigenvalues --    0.03807   0.03864   0.04041   0.04084   0.04343
  Beta virt. eigenvalues --    0.04461   0.04667   0.05042   0.05127   0.05367
  Beta virt. eigenvalues --    0.05581   0.05775   0.05919   0.06093   0.06158
  Beta virt. eigenvalues --    0.06283   0.06631   0.06666   0.06916   0.07168
  Beta virt. eigenvalues --    0.07217   0.07597   0.07794   0.08127   0.08162
  Beta virt. eigenvalues --    0.08371   0.08626   0.08874   0.09092   0.09163
  Beta virt. eigenvalues --    0.09323   0.09599   0.10007   0.10081   0.10289
  Beta virt. eigenvalues --    0.10528   0.10560   0.10879   0.10955   0.11182
  Beta virt. eigenvalues --    0.11546   0.11578   0.11764   0.11856   0.12128
  Beta virt. eigenvalues --    0.12231   0.12587   0.13010   0.13076   0.13220
  Beta virt. eigenvalues --    0.13250   0.13738   0.13835   0.14124   0.14229
  Beta virt. eigenvalues --    0.14401   0.14622   0.14748   0.15349   0.15452
  Beta virt. eigenvalues --    0.15570   0.15867   0.15963   0.16291   0.16623
  Beta virt. eigenvalues --    0.16716   0.16768   0.16967   0.17073   0.17360
  Beta virt. eigenvalues --    0.17422   0.17716   0.17885   0.18157   0.18391
  Beta virt. eigenvalues --    0.18530   0.18587   0.18881   0.18964   0.19466
  Beta virt. eigenvalues --    0.19726   0.19782   0.19993   0.20284   0.20495
  Beta virt. eigenvalues --    0.20773   0.20970   0.21228   0.21361   0.21644
  Beta virt. eigenvalues --    0.21781   0.22000   0.22193   0.22681   0.22708
  Beta virt. eigenvalues --    0.22963   0.23308   0.23397   0.23863   0.24018
  Beta virt. eigenvalues --    0.24217   0.24348   0.24466   0.24790   0.24953
  Beta virt. eigenvalues --    0.25182   0.25299   0.25769   0.25857   0.26195
  Beta virt. eigenvalues --    0.26268   0.26426   0.26919   0.27160   0.27309
  Beta virt. eigenvalues --    0.27383   0.27644   0.27902   0.28164   0.28420
  Beta virt. eigenvalues --    0.28702   0.28869   0.29001   0.29231   0.29276
  Beta virt. eigenvalues --    0.29762   0.29814   0.29917   0.30149   0.30287
  Beta virt. eigenvalues --    0.30448   0.30905   0.31003   0.31164   0.31495
  Beta virt. eigenvalues --    0.31567   0.31671   0.31768   0.32063   0.32251
  Beta virt. eigenvalues --    0.32541   0.32590   0.32696   0.32955   0.33359
  Beta virt. eigenvalues --    0.33563   0.33708   0.33767   0.34001   0.34110
  Beta virt. eigenvalues --    0.34379   0.34461   0.34578   0.34932   0.35212
  Beta virt. eigenvalues --    0.35416   0.35561   0.35720   0.36025   0.36098
  Beta virt. eigenvalues --    0.36198   0.36342   0.36632   0.36800   0.36908
  Beta virt. eigenvalues --    0.37122   0.37204   0.37395   0.37711   0.37841
  Beta virt. eigenvalues --    0.37904   0.38248   0.38339   0.38488   0.38533
  Beta virt. eigenvalues --    0.38884   0.39115   0.39191   0.39396   0.39485
  Beta virt. eigenvalues --    0.39636   0.39902   0.40122   0.40200   0.40284
  Beta virt. eigenvalues --    0.40489   0.40736   0.40766   0.40974   0.41131
  Beta virt. eigenvalues --    0.41326   0.41533   0.41820   0.42002   0.42232
  Beta virt. eigenvalues --    0.42324   0.42608   0.42723   0.42811   0.42950
  Beta virt. eigenvalues --    0.43176   0.43392   0.43456   0.43548   0.43758
  Beta virt. eigenvalues --    0.43962   0.44094   0.44210   0.44311   0.44670
  Beta virt. eigenvalues --    0.44859   0.44968   0.45153   0.45349   0.45480
  Beta virt. eigenvalues --    0.45594   0.45760   0.46048   0.46265   0.46520
  Beta virt. eigenvalues --    0.46816   0.46958   0.47104   0.47331   0.47404
  Beta virt. eigenvalues --    0.47454   0.47918   0.48155   0.48497   0.48685
  Beta virt. eigenvalues --    0.48740   0.48985   0.49319   0.49482   0.49589
  Beta virt. eigenvalues --    0.49596   0.50072   0.50271   0.50532   0.50608
  Beta virt. eigenvalues --    0.50728   0.51185   0.51342   0.51597   0.51780
  Beta virt. eigenvalues --    0.51936   0.52193   0.52287   0.52724   0.53054
  Beta virt. eigenvalues --    0.53163   0.53386   0.53530   0.54032   0.54107
  Beta virt. eigenvalues --    0.54274   0.54589   0.54727   0.54793   0.55414
  Beta virt. eigenvalues --    0.55741   0.55866   0.56008   0.56354   0.56419
  Beta virt. eigenvalues --    0.56659   0.56996   0.57041   0.57447   0.57459
  Beta virt. eigenvalues --    0.57812   0.58112   0.58256   0.58581   0.58891
  Beta virt. eigenvalues --    0.59189   0.59338   0.59905   0.60099   0.60294
  Beta virt. eigenvalues --    0.60363   0.60624   0.60956   0.61158   0.61429
[...]
  1740. RY*(   3) H  84                  0.00002     1.64684   
  1741. RY*(   4) H  84                  0.00002     2.10009   
  1742. RY*(   5) H  84                  0.00000     2.78001   
  1743. RY*(   1) H  85                  0.00025     1.38534   
  1744. RY*(   2) H  85                  0.00008     1.69416   
  1745. RY*(   3) H  85                  0.00003     2.04426   
  1746. RY*(   4) H  85                  0.00000     2.36649   
  1747. RY*(   5) H  85                  0.00000     2.13130   
  1748. RY*(   1) H  86                  0.00043     0.98547   
  1749. RY*(   2) H  86                  0.00007     1.65498   
  1750. RY*(   3) H  86                  0.00003     2.07302   
  1751. RY*(   4) H  86                  0.00004     1.86057   
  1752. RY*(   5) H  86                  0.00000     2.91133   
  1753. RY*(   1) H  87                  0.00027     1.42864   
  1754. RY*(   2) H  87                  0.00011     1.65342   
  1755. RY*(   3) H  87                  0.00005     2.28348   
  1756. RY*(   4) H  87                  0.00003     2.16557   
  1757. RY*(   5) H  87                  0.00001     2.90116   
  1758. RY*(   1) H  88                  0.00030     1.13803   
  1759. RY*(   2) H  88                  0.00010     1.85096   
  1760. RY*(   3) H  88                  0.00004     1.94666   
  1761. RY*(   4) H  88                  0.00005     2.34406   
  1762. RY*(   5) H  88                  0.00001     3.01815   
  1763. RY*(   1) H  89                  0.00058     0.59509   
  1764. RY*(   2) H  89                  0.00009     2.26452   
  1765. RY*(   3) H  89                  0.00008     2.54155   
  1766. RY*(   4) H  89                  0.00006     2.33667   
  1767. RY*(   5) H  89                  0.00001     3.03636   
  1768. RY*(   1) H  90                  0.00074     0.54657   
  1769. RY*(   2) H  90                  0.00011     2.26086   
  1770. RY*(   3) H  90                  0.00008     2.54434   
  1771. RY*(   4) H  90                  0.00004     2.34189   
  1772. RY*(   5) H  90                  0.00000     3.02570   
  1773. RY*(   1) H  91                  0.00074     0.85110   
  1774. RY*(   2) H  91                  0.00032     2.08104   
  1775. RY*(   3) H  91                  0.00024     1.70920   
  1776. RY*(   4) H  91                  0.00010     2.07654   
  1777. RY*(   5) H  91                  0.00000     3.09641   
  1778. RY*(   1) H  92                  0.00070     0.70716   
  1779. RY*(   2) H  92                  0.00014     2.14753   
  1780. RY*(   3) H  92                  0.00011     2.06791   
  1781. RY*(   4) H  92                  0.00006     3.00331   
  1782. RY*(   5) H  92                  0.00000     3.18355   
  1783. RY*(   1) H  93                  0.00087     0.55384   
  1784. RY*(   2) H  93                  0.00013     2.06937   
  1785. RY*(   3) H  93                  0.00013     2.16576   
  1786. RY*(   4) H  93                  0.00006     2.99710   
  1787. RY*(   5) H  93                  0.00000     3.12284   
  1788. RY*(   1) H  94                  0.00032     1.04995   
  1789. RY*(   2) H  94                  0.00008     1.78915   
  1790. RY*(   3) H  94                  0.00003     1.77754   
  1791. RY*(   4) H  94                  0.00003     2.07284   
  1792. RY*(   5) H  94                  0.00000     2.86866   
  1793. RY*(   1) H  95                  0.00026     1.04386   
  1794. RY*(   2) H  95                  0.00009     1.77536   
  1795. RY*(   3) H  95                  0.00003     1.90803   
  1796. RY*(   4) H  95                  0.00003     2.00255   
  1797. RY*(   5) H  95                  0.00000     2.85296   
  1798. RY*(   1) H  96                  0.00034     0.98999   
  1799. RY*(   2) H  96                  0.00008     1.60170   
  1800. RY*(   3) H  96                  0.00004     2.08524   
  1801. RY*(   4) H  96                  0.00002     1.96681   
  1802. RY*(   5) H  96                  0.00000     2.88012   
  1803. RY*(   1) H  97                  0.00033     1.69849   
  1804. RY*(   2) H  97                  0.00008     2.62656   
  1805. RY*(   3) H  97                  0.00006     2.25143   
  1806. RY*(   4) H  97                  0.00003     1.44764   
  1807. RY*(   5) H  97                  0.00001     2.82704   
  1808. RY*(   1) H  98                  0.00036     1.52788   
  1809. RY*(   2) H  98                  0.00008     2.58280   
  1810. RY*(   3) H  98                  0.00005     1.45769   
  1811. RY*(   4) H  98                  0.00005     2.40591   
  1812. RY*(   5) H  98                  0.00000     2.81538   
  1813. RY*(   1) H  99                  0.00029     1.26968   
  1814. RY*(   2) H  99                  0.00006     1.62360   
  1815. RY*(   3) H  99                  0.00005     2.16564   
  1816. RY*(   4) H  99                  0.00004     2.20487   
  1817. RY*(   5) H  99                  0.00001     2.88262   
  1818. RY*(   1) H 100                  0.00031     1.58826   
  1819. RY*(   2) H 100                  0.00009     1.93570   
  1820. RY*(   3) H 100                  0.00005     2.22185   
  1821. RY*(   4) H 100                  0.00002     1.95069   
  1822. RY*(   5) H 100                  0.00001     2.95107   
  1823. RY*(   1) H 101                  0.00076     0.87586   
  1824. RY*(   2) H 101                  0.00029     2.05310   
  1825. RY*(   3) H 101                  0.00025     1.74641   
  1826. RY*(   4) H 101                  0.00010     2.05732   
  1827. RY*(   5) H 101                  0.00000     3.08684   
  1828. BD*(   1) C   1 - C   2          0.00660     0.28582   
  1829. BD*(   1) C   1 - H  54          0.00396     0.30467   
  1830. BD*(   1) C   1 - H  55          0.00157     0.31121   
  1831. BD*(   1) C   1 - H  56          0.00474     0.30564   
  1832. BD*(   1) C   2 - N   3          0.01373     0.33007   
  1833. BD*(   2) C   2 - N   3          0.37345    -0.14579  1838(v),190(v),1831(v)
                                                    1829(v),259(g),234(g),239(g)
                                                    290(v)
  1834. BD*(   1) C   2 - C   4          0.00987     0.47504   
  1835. BD*(   1) N   3 - C   5          0.00935     0.38358   
  1836. BD*(   1) N   3 - H  58          0.00707     0.28903   
  1837. BD*(   1) C   4 - N   6          0.00855     0.35223   
  1838. BD*(   2) C   4 - N   6          0.33901    -0.12766  1833(v),190(v),286(g),194(v)
                                                    312(v),337(g),341(g)
  1839. BD*(   1) C   4 - H  57          0.00631     0.32766   
  1840. BD*(   1) C   5 - N   6          0.00919     0.41477   
  1841. BD*(   1) C   5 - H  59          0.00805     0.28524   
  1842. BD*(   1) N   6 -Fe  11          0.03789     0.25592   
  1843. BD*(   1) C   7 - C   8          0.00412     0.25376   
  1844. BD*(   1) C   7 - H  63          0.00368     0.33696   
  1845. BD*(   1) C   7 - H  64          0.00365     0.32719   
  1846. BD*(   1) C   7 - H  65          0.00246     0.32600   
  1847. BD*(   1) C   8 - S   9          0.01592     0.09719   
  1848. BD*(   1) C   8 - H  66          0.01113     0.29605   
  1849. BD*(   1) C   8 - H  67          0.00764     0.28892   
  1850. BD*(   1) S   9 - C  10          0.00921     0.09490   
  1851. BD*(   1) S   9 -Fe  11          0.03171     0.25540   
  1852. BD*(   1) C  10 - H  60          0.00486     0.29085   
  1853. BD*(   1) C  10 - H  61          0.00652     0.29363   
  1854. BD*(   1) C  10 - H  62          0.00642     0.32177   
  1855. BD*(   1)Fe  11 - N  16          0.03224     0.27986   
  1856. BD*(   1)Fe  11 - N  27          0.03265     0.30221   
  1857. BD*(   1)Fe  11 - N  35          0.03772     0.30071   
  1858. BD*(   1)Fe  11 - N  43          0.03089     0.29049   
  1859. BD*(   1) C  12 - C  17          0.01011     0.49509   
  1860. BD*(   2) C  12 - C  17          0.19427    -0.05425  1932(v),1879(v),496(g)
                                                    630(g),1864(r)
  1861. BD*(   1) C  12 - C  47          0.01161     0.48719   
  1862. BD*(   1) C  12 - H  92          0.00747     0.34492   
  1863. BD*(   1) C  13 - C  20          0.00954     0.50847   
  1864. BD*(   2) C  13 - C  20          0.18566    -0.04839  1879(v),1897(v),1868(r)
                                                    522(g),708(g),1860(r)
  1865. BD*(   1) C  13 - C  28          0.01069     0.46754   
  1866. BD*(   1) C  13 - H  93          0.00712     0.34860   
  1867. BD*(   1) C  14 - C  31          0.01076     0.50578   
  1868. BD*(   2) C  14 - C  31          0.19424    -0.05047  1914(v),1901(v),1897(v)
                                                    1864(r),549(g),994(g)
  1869. BD*(   1) C  14 - C  36          0.01052     0.51263   
  1870. BD*(   1) C  14 - H  71          0.00844     0.35162   
  1871. BD*(   1) C  15 - C  39          0.01051     0.51144   
  1872. BD*(   1) C  15 - C  44          0.01083     0.53060   
  1873. BD*(   2) C  15 - C  44          0.19303    -0.04112  1935(v),201(v),1932(v)
                                                    575(g),1332(g),574(g)
                                                    1330(g)
  1874. BD*(   1) C  15 - H  83          0.00772     0.34995   
  1875. BD*(   1) N  16 - C  17          0.01434     0.37251   
  1876. BD*(   1) N  16 - C  20          0.01466     0.37495   
  1877. BD*(   1) C  17 - C  18          0.01711     0.38573   
  1878. BD*(   1) C  18 - C  19          0.00956     0.54147   
  1879. BD*(   2) C  18 - C  19          0.10515    -0.02196  1864(v),1860(v),1885(v)
                                                    1886(v)
  1880. BD*(   1) C  18 - C  22          0.01201     0.28038   
  1881. BD*(   1) C  19 - C  20          0.01743     0.37250   
  1882. BD*(   1) C  19 - C  21          0.00896     0.27913   
  1883. BD*(   1) C  21 - H  94          0.00273     0.32826   
  1884. BD*(   1) C  21 - H  95          0.00285     0.32328   
  1885. BD*(   1) C  21 - H  96          0.00417     0.32276   
  1886. BD*(   1) C  22 - C  23          0.00744     0.26250   
  1887. BD*(   1) C  22 - H  97          0.00589     0.32817   
  1888. BD*(   1) C  22 - H  98          0.00675     0.32300   
  1889. BD*(   1) C  23 - C  24          0.03125     0.26435   
  1890. BD*(   1) C  23 - H  99          0.00484     0.31426   
  1891. BD*(   1) C  23 - H 100          0.00608     0.30686   
  1892. BD*(   1) C  24 - O  25          0.03514     0.40050   
  1893. BD*(   1) C  24 - O  26          0.01712     0.41891   
  1894. BD*(   2) C  24 - O  26          0.12081    -0.06934  1893(g),1891(v),810(g)
                                                    817(g)
  1895. BD*(   1) O  25 - H 101          0.00660     0.31441   
  1896. BD*(   1) N  27 - C  28          0.01499     0.38708   
  1897. BD*(   2) N  27 - C  28          0.32461    -0.10485  1864(v),1901(v),1868(v)
                                                    914(g),194(v),887(g),522(v)
  1898. BD*(   1) N  27 - C  31          0.01559     0.39554   
  1899. BD*(   1) C  28 - C  29          0.01693     0.39408   
  1900. BD*(   1) C  29 - C  30          0.01494     0.53116   
  1901. BD*(   2) C  29 - C  30          0.13471    -0.02699  1868(v),1897(v),1907(v)
                                                    1909(v),1908(v)
  1902. BD*(   1) C  29 - C  32          0.00914     0.28089   
  1903. BD*(   1) C  30 - C  31          0.02454     0.39603   
  1904. BD*(   1) C  30 - C  33          0.01344     0.29640   
  1905. BD*(   1) C  32 - H  72          0.00256     0.32500   
  1906. BD*(   1) C  32 - H  73          0.00345     0.33128   
  1907. BD*(   1) C  32 - H  74          0.00462     0.32440   
  1908. BD*(   1) C  33 - C  34          0.00256     0.46543   
  1909. BD*(   1) C  33 - H  78          0.00827     0.34565   
  1910. BD*(   1) C  34 - H  75          0.01154     0.32222   
  1911. BD*(   1) C  34 - H  76          0.00690     0.32822   
  1912. BD*(   1) C  34 - H  77          0.02042     0.31212   
  1913. BD*(   1) N  35 - C  36          0.01386     0.41761   
  1914. BD*(   2) N  35 - C  36          0.31360    -0.09269  1868(v),1918(v),201(v)
                                                    1122(g),194(v),1096(g)
  1915. BD*(   1) N  35 - C  39          0.01481     0.39492   
  1916. BD*(   1) C  36 - C  37          0.01813     0.39107   
  1917. BD*(   1) C  37 - C  38          0.00935     0.54063   
  1918. BD*(   2) C  37 - C  38          0.11071    -0.01477  1914(v),202(v),201(v)
                                                    1922(v)
  1919. BD*(   1) C  37 - C  40          0.00872     0.30208   
  1920. BD*(   1) C  38 - C  39          0.01508     0.38959   
  1921. BD*(   1) C  38 - C  41          0.01492     0.32145   
  1922. BD*(   1) C  40 - H  68          0.00414     0.32669   
  1923. BD*(   1) C  40 - H  69          0.00278     0.32779   
  1924. BD*(   1) C  40 - H  70          0.00307     0.33827   
  1925. BD*(   1) C  41 - C  42          0.00358     0.53268   
  1926. BD*(   1) C  41 - H  82          0.00872     0.36808   
  1927. BD*(   1) C  42 - H  79          0.00469     0.33374   
  1928. BD*(   1) C  42 - H  80          0.00264     0.33071   
  1929. BD*(   1) C  42 - H  81          0.00432     0.33002   
  1930. BD*(   1) N  43 - C  44          0.01582     0.37473   
  1931. BD*(   1) N  43 - C  47          0.01502     0.37245   
  1932. BD*(   2) N  43 - C  47          0.33828    -0.10698  1860(v),1935(v),1873(v)
                                                    1408(g),496(v),1302(g)
                                                    194(v),1842(v)
  1933. BD*(   1) C  44 - C  45          0.01620     0.37719   
  1934. BD*(   1) C  45 - C  46          0.01248     0.34132   
  1935. BD*(   2) C  45 - C  46          0.14715    -0.06568  1873(v),1932(v),1942(v)
                                                    1941(v),1939(v)
  1936. BD*(   1) C  45 - C  48          0.00651     0.27633   
  1937. BD*(   1) C  46 - C  47          0.01558     0.40497   
  1938. BD*(   1) C  46 - C  49          0.01018     0.29197   
  1939. BD*(   1) C  48 - H  84          0.00374     0.32295   
  1940. BD*(   1) C  48 - H  85          0.00282     0.32539   
  1941. BD*(   1) C  48 - H  86          0.00473     0.32015   
  1942. BD*(   1) C  49 - C  50          0.00786     0.26316   
  1943. BD*(   1) C  49 - H  89          0.00679     0.31940   
  1944. BD*(   1) C  49 - H  90          0.00700     0.32498   
  1945. BD*(   1) C  50 - C  51          0.03513     0.26559   
  1946. BD*(   1) C  50 - H  87          0.00492     0.31538   
  1947. BD*(   1) C  50 - H  88          0.00556     0.31360   
  1948. BD*(   1) C  51 - O  52          0.01744     0.49452   
  1949. BD*(   2) C  51 - O  52          0.11348    -0.06186  1947(v),1946(v),1951(v)
                                                    1948(g)
  1950. BD*(   1) C  51 - O  53          0.03481     0.44549   
  1951. BD*(   1) O  53 - H  91          0.00711     0.31436   
       -------------------------------
              Total Lewis  198.96444  ( 97.5316%)
        Valence non-Lewis    4.63910  (  2.2741%)
        Rydberg non-Lewis    0.39645  (  0.1943%)
       -------------------------------
            Total unit  1  204.00000  (100.0000%)
           Charge unit  1    1.00000
 1\1\GINC-NODE497\SP\UPBE1PBE\def2TZVP\C41H48Fe1N6O4S1(1+,2)\ZHARTOVSKA
 \07-Feb-2023\0\\# PBE1PBE/def2TZVP empiricaldispersion=GD3BJ scf=maxcy
 cle=999 geom=check pop=nbo\\2v07_III_D\\1,2\C,0,19.309999,-18.566,20.0
 35999\C,0,19.862,-19.718,19.247999\N,0,21.132999,-20.195999,19.454\C,0
 ,19.334999,-20.466,18.243999\C,0,21.372,-21.198,18.617001\N,0,20.306,-
 21.370001,17.855\C,0,21.268,-26.360001,14.954\C,0,20.836,-25.247999,13
 .998\S,0,19.563,-24.209999,14.646\C,0,18.971001,-23.364,13.215\Fe,0,20
 .044001,-22.673,16.351\C,0,23.427,-23.259001,16.142\C,0,20.379,-20.037
 001,14.221\C,0,16.632999,-22.302,16.288\C,0,19.732,-25.058001,18.70599
 9\N,0,21.591999,-21.834999,15.357\C,0,22.929001,-22.195999,15.445\C,0,
 23.716,-21.253,14.673\C,0,22.868999,-20.378,14.119\C,0,21.51,-20.718,1
 4.541\C,0,23.219,-19.187,13.215\C,0,25.250999,-21.313,14.578\C,0,25.83
 9001,-20.816,15.905\C,0,27.343,-20.976,16.007\O,0,27.909,-21.789,15.23
 3\O,0,27.981001,-20.318001,16.902\N,0,18.738001,-21.419001,15.446\C,0,
 19.097,-20.372999,14.631\C,0,17.892,-19.700001,14.208\C,0,16.847,-20.3
 3,14.771\C,0,17.372,-21.429001,15.546\C,0,17.916,-18.486,13.271\C,0,15
 .349,-20.070999,14.594\C,0,14.937,-20.186001,13.293\N,0,18.461,-23.518
 ,17.311001\C,0,17.146999,-23.218,17.15\C,0,16.386999,-24.014999,18.098
 \C,0,17.243,-24.788,18.778999\C,0,18.572001,-24.486,18.280001\C,0,14.8
 76,-23.957001,18.249001\C,0,16.934,-25.784,19.900999\C,0,15.978,-26.72
 4001,19.784\N,0,21.344,-23.921,17.257999\C,0,20.959,-24.892,18.174\C,0
 ,22.094999,-25.74,18.503\C,0,23.221001,-25.194,17.691\C,0,22.694,-24.0
 76,16.966\C,0,22.125999,-26.955999,19.441\C,0,24.632999,-25.775,17.674
 \C,0,24.649,-26.905001,16.636\C,0,26.007,-27.59,16.542\O,0,26.229,-28.
 393,15.615\O,0,26.875999,-27.363001,17.393999\H,0,19.99124672,-17.7422
 7087,19.98833489\H,0,18.36640459,-18.2726713,19.62552627\H,0,19.178825
 66,-18.86180012,21.05589892\H,0,18.35215567,-20.37294548,17.83137344\H
 ,0,21.77918767,-19.84323317,20.13075437\H,0,22.27503954,-21.76981689,1
 8.5675537\H,0,19.67436771,-23.47804904,12.41677191\H,0,18.02832558,-23
 .77636479,12.92137043\H,0,18.85134665,-22.32460829,13.43916001\H,0,22.
 20683163,-26.10340317,15.39858151\H,0,20.53074345,-26.47781526,15.7204
 6759\H,0,21.36878754,-27.27708974,14.41206816\H,0,21.68840717,-24.6420
 1535,13.77197823\H,0,20.48375324,-25.69477371,13.09179109\H,0,14.61435
 487,-23.16105384,18.9145158\H,0,14.42836448,-23.78399325,17.29265861\H
 ,0,14.52135968,-24.88511849,18.64615104\H,0,15.56880775,-22.2629001,16
 .18374943\H,0,18.79512552,-18.5227001,12.66215567\H,0,17.04803677,-18.
 50105544,12.64544971\H,0,17.92158115,-17.58730482,13.85170288\H,0,14.2
 4737403,-19.3998766,13.06645103\H,0,15.78408485,-20.11565698,12.643077
 71\H,0,14.45764608,-21.13232034,13.15300169\H,0,14.69221047,-19.825695
 66,15.40230303\H,0,16.15526178,-27.50345793,20.49528416\H,0,15.0204039
 5,-26.28372696,19.96857673\H,0,15.99826133,-27.13217096,18.79511843\H,
 0,17.49759248,-25.73054545,20.80896713\H,0,19.66184246,-25.70818109,19
 .55290146\H,0,23.00667051,-26.91631,20.04741774\H,0,21.2597237,-26.944
 23153,20.06895591\H,0,22.1331971,-27.85450893,18.86002832\H,0,24.39969
 988,-26.49836748,15.67819071\H,0,23.91244229,-27.63278764,16.9056467\H
 ,0,25.33550795,-25.01669926,17.39766477\H,0,24.87823175,-26.16436326,1
 8.6400006\H,0,27.80506872,-27.42523232,17.16042519\H,0,24.47041513,-23
 .47187069,16.03773423\H,0,20.48565711,-19.17065837,13.6021505\H,0,24.1
 5094792,-19.37394433,12.72364994\H,0,22.44963379,-19.05673013,12.48287
 611\H,0,23.30029086,-18.30046439,13.80858774\H,0,25.58720582,-20.68697
 173,13.77802901\H,0,25.56189684,-22.32149492,14.40141994\H,0,25.598273
 36,-19.77950004,16.01733006\H,0,25.38336326,-21.3612771,16.70497946\H,
 0,28.86746391,-21.82831723,15.19556883\\Version=ES64L-G16RevA.03\State
 =2-A\HF=-3880.3933864\S2=1.836393\S2-1=0.\S2A=1.068926\RMSD=1.186e-09\
 Dipole=-1.5702537,1.4919985,0.6382337\Quadrupole=16.2883013,-15.948539
 6,-0.3397618,-7.9728086,-4.7551833,-13.5854994\PG=C01 [X(C41H48Fe1N6O4
 S1)]\\@


 POCKETA-POCKETA
 BARON VON RICHTOFEN
 SLAUGHTERED THE ALLIES WITH
 HARDLY A CARE.
 KILLED EIGHTY-ONE WITH HIS
 BLOOD-COLORED TRIPLANE, THEN
 UN-AEROBATICALLY
 PLUNGED FROM THE AIR.
   -- TONY HOFFMAN
 Job cpu time:       9 days 17 hours 16 minutes  1.3 seconds.
 Elapsed time:       2 days 10 hours 31 minutes 47.8 seconds.
 File lengths (MBytes):  RWF=   3495 Int=      0 D2E=      0 Chk=    292 Scr=      1
 Normal termination of Gaussian 16 at Tue Feb  7 22:32:09 2023.
