 Entering Gaussian System, Link 0=g16
 Input=/net/work/kleich/bench/splitthejobs/1cce/gfcfail/1cce/1cce12/1cce12.com
 Output=/net/work/kleich/bench/splitthejobs/1cce/gfcfail/1cce/1cce12/1cce12.log
 Initial command:
 /afs/math/software/gaussian/g16.A03/g16/l1.exe "/scratch/kleich_gaussian.3cSLSJa/Gau-15534.inp" -scrdir="/scratch/kleich_gaussian.3cSLSJa/"
 Entering Link 1 = /afs/math/software/gaussian/g16.A03/g16/l1.exe PID=     15535.
  
 Copyright (c) 1988,1990,1992,1993,1995,1998,2003,2009,2016,
            Gaussian, Inc.  All Rights Reserved.
  
 This is part of the Gaussian(R) 16 program.  It is based on
 the Gaussian(R) 09 system (copyright 2009, Gaussian, Inc.),
 the Gaussian(R) 03 system (copyright 2003, Gaussian, Inc.),
 the Gaussian(R) 98 system (copyright 1998, Gaussian, Inc.),
 the Gaussian(R) 94 system (copyright 1995, Gaussian, Inc.),
 the Gaussian 92(TM) system (copyright 1992, Gaussian, Inc.),
 the Gaussian 90(TM) system (copyright 1990, Gaussian, Inc.),
 the Gaussian 88(TM) system (copyright 1988, Gaussian, Inc.),
 the Gaussian 86(TM) system (copyright 1986, Carnegie Mellon
 University), and the Gaussian 82(TM) system (copyright 1983,
 Carnegie Mellon University). Gaussian is a federally registered
 trademark of Gaussian, Inc.
  
 This software contains proprietary and confidential information,
 including trade secrets, belonging to Gaussian, Inc.
  
 This software is provided under written license and may be
 used, copied, transmitted, or stored only in accord with that
 written license.
  
 The following legend is applicable only to US Government
 contracts under FAR:
  
                    RESTRICTED RIGHTS LEGEND
  
 Use, reproduction and disclosure by the US Government is
 subject to restrictions as set forth in subparagraphs (a)
 and (c) of the Commercial Computer Software - Restricted
 Rights clause in FAR 52.227-19.
  
 Gaussian, Inc.
 340 Quinnipiac St., Bldg. 40, Wallingford CT 06492
  
  
 ---------------------------------------------------------------
 Warning -- This program may not be used in any manner that
 competes with the business of Gaussian, Inc. or will provide
 assistance to any competitor of Gaussian, Inc.  The licensee
 of this program is prohibited from giving any competitor of
 Gaussian, Inc. access to this program.  By using this program,
 the user acknowledges that Gaussian, Inc. is engaged in the
 business of creating and licensing software in the field of
 computational chemistry and represents and warrants to the
 licensee that it is not a competitor of Gaussian, Inc. and that
 it will not use this program in any manner prohibited above.
 ---------------------------------------------------------------
  

 Cite this work as:
 Gaussian 16, Revision A.03,
 M. J. Frisch, G. W. Trucks, H. B. Schlegel, G. E. Scuseria, 
 M. A. Robb, J. R. Cheeseman, G. Scalmani, V. Barone, 
 G. A. Petersson, H. Nakatsuji, X. Li, M. Caricato, A. V. Marenich, 
 J. Bloino, B. G. Janesko, R. Gomperts, B. Mennucci, H. P. Hratchian, 
 J. V. Ortiz, A. F. Izmaylov, J. L. Sonnenberg, D. Williams-Young, 
 F. Ding, F. Lipparini, F. Egidi, J. Goings, B. Peng, A. Petrone, 
 T. Henderson, D. Ranasinghe, V. G. Zakrzewski, J. Gao, N. Rega, 
 G. Zheng, W. Liang, M. Hada, M. Ehara, K. Toyota, R. Fukuda, 
 J. Hasegawa, M. Ishida, T. Nakajima, Y. Honda, O. Kitao, H. Nakai, 
 T. Vreven, K. Throssell, J. A. Montgomery, Jr., J. E. Peralta, 
 F. Ogliaro, M. J. Bearpark, J. J. Heyd, E. N. Brothers, K. N. Kudin, 
 V. N. Staroverov, T. A. Keith, R. Kobayashi, J. Normand, 
 K. Raghavachari, A. P. Rendell, J. C. Burant, S. S. Iyengar, 
 J. Tomasi, M. Cossi, J. M. Millam, M. Klene, C. Adamo, R. Cammi, 
 J. W. Ochterski, R. L. Martin, K. Morokuma, O. Farkas, 
 J. B. Foresman, and D. J. Fox, Gaussian, Inc., Wallingford CT, 2016.
 
 ******************************************
 Gaussian 16:  ES64L-G16RevA.03 25-Dec-2016
                16-Sep-2022 
 ******************************************
 %nprocs=12
 Will use up to   12 processors via shared memory.
 %mem=16GB
 %oldchk=1cce_II_S.chk
 %chk=1cce_III_D.chk
 Copying data from "1cce_II_S.chk" to current chk file "1cce_III_D.chk"
 IOpt=  2 FromEx=T IUOpen= 4 IOptOp= 5 NList=   0 IFRang= 0 IUIn= 4 IUOut= 2.
 ----------------------------------------------------------------------
 # PBE1PBE/def2TZVP empiricaldispersion=GD3BJ int=(grid=ultrafine) geom
 =check pop=nbo
 ----------------------------------------------------------------------
 1/29=2,38=1,172=1/1;
 2/12=2,40=1/2;
 3/5=44,7=101,11=2,14=-4,25=1,30=1,74=-13,75=-5,124=41/1,2,3;
 4//1;
 5/5=2,38=5/2;
 6/7=2,8=2,9=2,10=2,28=1,40=1/1,7;
 99/5=1,9=1/99;
 ----------
 1cce_III_D
 ----------
 Structure from the checkpoint file:  "1cce_III_D.chk"
 Charge =  1 Multiplicity = 2
 Z-Matrix found in chk file.
 C,0,-5.48,53.62,113.148
 C,0,-7.571,57.663,114.65
 C,0,-6.212,59.774,110.58
 C,0,-3.759,55.864,109.383
 C,0,-6.201,54.529,113.94
 C,0,-6.717,54.212,115.182
 C,0,-7.392,55.377,115.614
 C,0,-7.138,56.332,114.631
 C,0,-8.283,55.562,116.835
 C,0,-6.584,52.826,115.8
 C,0,-5.521,52.715,116.871
 C,0,-5.378,51.363,117.57
 O,0,-6.217,50.989,118.381
 O,0,-4.403,50.646,117.362
 C,0,-7.47,58.618,113.624
 C,0,-8.124,59.862,113.625
 C,0,-7.763,60.457,112.409
 C,0,-6.911,59.538,111.776
 C,0,-9.109,60.337,114.701
 C,0,-8.111,61.69,111.839
 C,0,-8.971,62.736,112.366
 C,0,-5.303,58.954,109.91
 C,0,-4.54,59.325,108.805
 C,0,-3.794,58.17,108.484
 C,0,-4.196,57.199,109.399
 C,0,-4.519,60.709,108.176
 C,0,-2.842,57.879,107.491
 C,0,-2.374,58.685,106.381
 C,0,-3.977,54.842,110.284
 C,0,-3.64,53.509,110.086
 C,0,-4.164,52.855,111.174
 C,0,-4.755,53.841,111.963
 C,0,-2.888,52.827,108.948
 C,0,-4.093,51.352,111.4
 C,0,-3.176,51.046,112.555
 C,0,-2.982,49.599,112.903
 O,0,-2.36,49.336,113.93
 O,0,-3.445,48.727,112.182
 N,0,-6.448,55.803,113.62
 N,0,-6.816,58.405,112.482
 N,0,-5.033,57.698,110.293
 N,0,-4.582,55.057,111.445
 Fe,0,-5.719,56.734,111.941
 O,0,-4.284,57.394,113.195
 O,0,-7.101,55.961,110.708
 H,0,-5.48270944,52.60896755,113.49829422
 H,0,-8.03524361,57.99339133,115.55565967
 H,0,-6.40448998,60.71877956,110.11606123
 H,0,-3.16139901,55.59694099,108.5365648
 H,0,-8.36891296,56.60472598,117.05914613
 H,0,-9.2535454,55.15955328,116.6325691
 H,0,-7.85260181,55.05171079,117.67121906
 H,0,-6.26267678,52.18481752,115.00593676
 H,0,-7.51406047,52.63955831,116.29510304
 H,0,-5.82540006,53.39559646,117.63848228
 H,0,-4.59286539,52.86505729,116.36016837
 H,0,-8.77788362,61.27326601,115.09933139
 H,0,-10.07993397,60.45711609,114.26768792
 H,0,-9.15617378,59.61190816,115.48644029
 H,0,-7.68211721,61.88898932,110.87912355
 H,0,-9.61039298,63.44231863,111.87897781
 H,0,-9.71396272,62.06975701,111.97996027
 H,0,-4.33953601,61.02979666,107.17112082
 H,0,-3.48301127,60.45600158,108.08871229
 H,0,-5.390304,60.30877178,107.70108241
 H,0,-2.39264453,56.91087831,107.56663101
 H,0,-1.53288319,59.26802394,106.69325886
 H,0,-3.15887185,59.3361707,106.05719003
 H,0,-2.17243963,52.14237926,109.35317626
 H,0,-3.58132302,52.29459616,108.33095109
 H,0,-2.3826099,53.56551138,108.36141514
 H,0,-3.63788041,50.93188344,110.52749313
 H,0,-5.07286653,51.03970224,111.69535012
 H,0,-3.65009218,51.4786957,113.41110223
 H,0,-2.21158769,51.39132073,112.24586815
 H,0,-3.53292348,57.99189971,113.195
 H,0,-3.97065359,56.48657836,113.195
 H,0,-6.34992348,56.55889971,110.708
 H,0,-6.78765359,55.05357836,110.708
 H,0,-2.85733077,48.14197171,111.69827821
 H,0,-3.51645184,50.99970047,117.46460767
 Recover connectivity data from disk.
 Center=     -5.48322662     55.92056561    112.29845634
 Residue   0                        charge    0.00000000 layers R        AvRTP=      7.12770992    289.88216988     71.31909166
 Residue   4                        charge    0.00000000 layers R        AvRTP=      0.00000000      0.00000000      0.00000000
 Residue   2 PDB Number   313_A HOH charge    0.00000000 layers R        AvRTP=      2.25752666     41.40404323     66.60078230
 Residue   3 PDB Number   387_A HOH charge    0.00000000 layers R        AvRTP=      2.03188830    182.84391009    141.51286530
 Residue   1 PDB Number     1_A HEM charge    0.00000000 layers R        AvRTP=      0.14567071    121.91288658    103.50989736
 Stoichiometry    C34H36FeN4O6(1+,2)
 Framework group  C1[X(C34H36FeN4O6)]
 Deg. of freedom   237
 Full point group                 C1      NOp   1
 Largest Abelian subgroup         C1      NOp   1
 Largest concise Abelian subgroup C1      NOp   1
                         Standard orientation:                         
 ---------------------------------------------------------------------
 Center     Atomic      Atomic             Coordinates (Angstroms)
 Number     Number       Type             X           Y           Z
 ---------------------------------------------------------------------
      1          6           0        2.215484   -0.034313   -0.468490
      2          6           0       -1.124328   -3.435501    0.033210
      3          6           0       -4.473291   -0.021934    0.043667
      4          6           0       -1.062382    3.310246    0.023569
      5          6           0        1.611099   -1.296830   -0.349515
      6          6           0        2.323720   -2.480111   -0.313105
      7          6           0        1.348523   -3.500464   -0.227404
      8          6           0        0.129757   -2.832754   -0.119690
      9          6           0        1.539919   -5.008531   -0.317125
     10          6           0        3.841227   -2.531964   -0.435963
     11          6           0        4.570689   -2.742716    0.872777
     12          6           0        6.093415   -2.861194    0.807805
     13          8           0        6.621235   -3.874269    0.364406
     14          8           0        6.814177   -1.962617    1.233293
     15          6           0       -2.387413   -2.820475   -0.002318
     16          6           0       -3.609475   -3.511460   -0.068331
     17          6           0       -4.585953   -2.507799   -0.114796
     18          6           0       -3.883671   -1.293382   -0.058715
     19          6           0       -3.753549   -5.033739   -0.192963
     20          6           0       -5.983958   -2.575512   -0.200172
     21          6           0       -6.845188   -3.744108   -0.264294
     22          6           0       -3.864962    1.228138    0.165479
     23          6           0       -4.525987    2.429559    0.411385
     24          6           0       -3.501120    3.400403    0.437684
     25          6           0       -2.321978    2.706560    0.173346
     26          6           0       -6.019771    2.577510    0.652748
     27          6           0       -3.492219    4.791514    0.642049
     28          6           0       -4.594230    5.718064    0.808893
     29          6           0        0.188112    2.744433   -0.117602
     30          6           0        1.352683    3.433818   -0.430946
     31          6           0        2.300255    2.453684   -0.596719
     32          6           0        1.648320    1.247063   -0.345634
     33          6           0        1.615391    4.926534   -0.599629
     34          6           0        3.747742    2.704319   -0.993064
     35          6           0        4.661098    2.395575    0.164091
     36          6           0        6.130769    2.605574   -0.056171
     37          8           0        6.901481    2.219508    0.820036
     38          8           0        6.527814    3.134318   -1.084460
     39          7           0        0.298328   -1.514080   -0.223336
     40          7           0       -2.561667   -1.500946   -0.077988
     41          7           0       -2.537976    1.404342    0.093476
     42          7           0        0.376959    1.437161    0.007086
     43         26           0       -1.107873   -0.026320   -0.060815
     44          8           0       -0.925722   -0.369372    1.918194
     45          8           0       -1.171312    0.359346   -2.029312
     46          1           0        3.263285   -0.049652   -0.684771
     47          1           0       -1.120817   -4.492881    0.197024
     48          1           0       -5.543079   -0.010633    0.025623
     49          1           0       -1.074684    4.380161    0.018084
     50          1           0        0.688487   -5.501752    0.103227
     51          1           0        1.647199   -5.294051   -1.342732
     52          1           0        2.418556   -5.289430    0.225086
     53          1           0        4.136965   -1.562601   -0.779147
     54          1           0        4.054099   -3.397188   -1.028391
     55          1           0        4.231602   -3.691851    1.232030
     56          1           0        4.383375   -1.856862    1.442932
     57          1           0       -4.365410   -5.400570    0.604509
     58          1           0       -4.208955   -5.273278   -1.131114
     59          1           0       -2.786767   -5.489089   -0.139210
     60          1           0       -6.488480   -1.632156   -0.221085
     61          1           0       -7.788874   -3.905549   -0.742095
     62          1           0       -6.540043   -3.689126   -1.288385
     63          1           0       -6.694727    3.383886    0.455028
     64          1           0       -5.652036    3.296195    1.355002
     65          1           0       -6.011176    2.561077   -0.417092
     66          1           0       -2.519527    5.235700    0.680405
     67          1           0       -4.839037    5.797816    1.847455
     68          1           0       -5.445616    5.360749    0.268182
     69          1           0        2.518659    5.189551   -0.089895
     70          1           0        1.713207    5.156124   -1.640119
     71          1           0        0.798631    5.481266   -0.187225
     72          1           0        3.836551    3.753702   -1.182294
     73          1           0        3.980888    2.000036   -1.764121
     74          1           0        4.550947    1.345094    0.335138
     75          1           0        4.390074    3.093417    0.928592
     76          1           0       -1.329726   -0.099500    2.746173
     77          1           0       -0.062202    0.041647    1.834548
     78          1           0       -1.575316    0.629218   -1.201333
     79          1           0       -0.307792    0.770365   -2.112958
     80          1           0        6.948956    3.996294   -1.049296
     81          1           0        6.694223   -1.633694    2.127173
 ---------------------------------------------------------------------
 Rotational constants (GHZ):           0.0921782           0.0514608           0.0344033
 Standard basis: def2TZVP (5D, 7F)
 There are  1852 symmetry adapted cartesian basis functions of A   symmetry.
 There are  1625 symmetry adapted basis functions of A   symmetry.
  1625 basis functions,  2634 primitive gaussians,  1852 cartesian basis functions
   171 alpha electrons      170 beta electrons
       nuclear repulsion energy      6425.8624552670 Hartrees.
 NAtoms=   81 NActive=   81 NUniq=   81 SFac= 1.00D+00 NAtFMM=   60 NAOKFM=T Big=T
 Integral buffers will be    131072 words long.
 Raffenetti 2 integral format.
 Two-electron integral symmetry is turned on.
 Nuclear repulsion after empirical dispersion term =     6425.7519075358 Hartrees.
 One-electron integrals computed using PRISM.
   1 Symmetry operations used in ECPInt.
 ECPInt:  NShTT=  207046 NPrTT=  642413 LenC2=  150115 LenP2D=  305059.
 LDataN:  DoStor=T MaxTD1= 6 Len=  172
 NBasis=  1625 RedAO= T EigKep=  3.11D-06  NBF=  1625
 NBsUse=  1625 1.00D-06 EigRej= -1.00D+00 NBFU=  1625
 ExpMin= 4.20D-02 ExpMax= 3.01D+05 ExpMxC= 2.91D+03 IAcc=3 IRadAn=         5 AccDes= 0.00D+00
 Harris functional with IExCor= 1009 and IRadAn=       5 diagonalized for initial guess.
 HarFok:  IExCor= 1009 AccDes= 0.00D+00 IRadAn=         5 IDoV= 1 UseB2=F ITyADJ=14
 ICtDFT=  3500011 ScaDFX=  1.000000  1.000000  1.000000  1.000000
 FoFCou: FMM=F IPFlag=           0 FMFlag=      100000 FMFlg1=        2001
         NFxFlg=           0 DoJE=T BraDBF=F KetDBF=T FulRan=T
         wScrn=  0.000000 ICntrl=       500 IOpCl=  0 I1Cent=   200000004 NGrid=           0
         NMat0=    1 NMatS0=      1 NMatT0=    0 NMatD0=    1 NMtDS0=    0 NMtDT0=    0
 Petite list used in FoFCou.
 Initial guess <Sx>= 0.0000 <Sy>= 0.0000 <Sz>= 0.5000 <S**2>= 0.7500 S= 0.5000
 Requested convergence on RMS density matrix=1.00D-08 within 128 cycles.
 Requested convergence on MAX density matrix=1.00D-06.
 Requested convergence on             energy=1.00D-06.
 No special actions if energy rises.
 EnCoef did    25 forward-backward iterations
 EnCoef did   100 forward-backward iterations
 EnCoef did   100 forward-backward iterations
 EnCoef did     2 forward-backward iterations
 EnCoef did    10 forward-backward iterations
 EnCoef did     2 forward-backward iterations
 Restarting incremental Fock formation.
 Restarting incremental Fock formation.
 Restarting incremental Fock formation.
 Restarting incremental Fock formation.
 SCF Done:  E(UPBE1PBE) =  -3249.00076604     A.U. after   83 cycles
            NFock= 83  Conv=0.23D-08     -V/T= 2.0025
 <Sx>= 0.0000 <Sy>= 0.0000 <Sz>= 0.5000 <S**2>= 1.8851 S= 0.9612
 <L.S>= 0.000000000000E+00
 Annihilation of the first spin contaminant:
 S**2 before annihilation     1.8851,   after     1.8669

 **********************************************************************

            Population analysis using the SCF density.

 **********************************************************************

 Orbital symmetries:
 Alpha Orbitals:
       Occupied  (A) (A) (A) (A) (A) (A) (A) (A) (A) (A) (A) (A)
                 (A) (A) (A) (A) (A) (A) (A) (A) (A) (A) (A) (A)
                 (A) (A) (A) (A) (A) (A) (A) (A) (A) (A) (A) (A)
                 (A) (A) (A) (A) (A) (A) (A) (A) (A) (A) (A) (A)
                 (A) (A) (A) (A) (A) (A) (A) (A) (A) (A) (A) (A)
                 (A) (A) (A) (A) (A) (A) (A) (A) (A) (A) (A) (A)
                 (A) (A) (A) (A) (A) (A) (A) (A) (A) (A) (A) (A)
                 (A) (A) (A) (A) (A) (A) (A) (A) (A) (A) (A) (A)
                 (A) (A) (A) (A) (A) (A) (A) (A) (A) (A) (A) (A)
                 (A) (A) (A) (A) (A) (A) (A) (A) (A) (A) (A) (A)
                 (A) (A) (A) (A) (A) (A) (A) (A) (A) (A) (A) (A)
                 (A) (A) (A) (A) (A) (A) (A) (A) (A) (A) (A) (A)
                 (A) (A) (A) (A) (A) (A) (A) (A) (A) (A) (A) (A)
                 (A) (A) (A) (A) (A) (A) (A) (A) (A) (A) (A) (A)
                 (A) (A) (A)
       Virtual   (A) (A) (A) (A) (A) (A) (A) (A) (A) (A) (A) (A)
                 (A) (A) (A) (A) (A) (A) (A) (A) (A) (A) (A) (A)
                 (A) (A) (A) (A) (A) (A) (A) (A) (A) (A) (A) (A)
                 (A) (A) (A) (A) (A) (A) (A) (A) (A) (A) (A) (A)
                 (A) (A) (A) (A) (A) (A) (A) (A) (A) (A) (A) (A)
                 (A) (A) (A) (A) (A) (A) (A) (A) (A) (A) (A) (A)
                 (A) (A) (A) (A) (A) (A) (A) (A) (A) (A) (A) (A)
                 (A) (A) (A) (A) (A) (A) (A) (A) (A) (A) (A) (A)
                 (A) (A) (A) (A) (A) (A) (A) (A) (A) (A) (A) (A)
                 (A) (A) (A) (A) (A) (A) (A) (A) (A) (A) (A) (A)
                 (A) (A) (A) (A) (A) (A) (A) (A) (A) (A) (A) (A)
                 (A) (A) (A) (A) (A) (A) (A) (A) (A) (A) (A) (A)
                 (A) (A) (A) (A) (A) (A) (A) (A) (A) (A) (A) (A)
                 (A) (A) (A) (A) (A) (A) (A) (A) (A) (A) (A) (A)
                 (A) (A) (A) (A) (A) (A) (A) (A) (A) (A) (A) (A)
                 (A) (A) (A) (A) (A) (A) (A) (A) (A) (A) (A) (A)
                 (A) (A) (A) (A) (A) (A) (A) (A) (A) (A) (A) (A)
                 (A) (A) (A) (A) (A) (A) (A) (A) (A) (A) (A) (A)
                 (A) (A) (A) (A) (A) (A) (A) (A) (A) (A) (A) (A)
                 (A) (A) (A) (A) (A) (A) (A) (A) (A) (A) (A) (A)
                 (A) (A) (A) (A) (A) (A) (A) (A) (A) (A) (A) (A)
                 (A) (A) (A) (A) (A) (A) (A) (A) (A) (A) (A) (A)
                 (A) (A) (A) (A) (A) (A) (A) (A) (A) (A) (A) (A)
                 (A) (A) (A) (A) (A) (A) (A) (A) (A) (A) (A) (A)
                 (A) (A) (A) (A) (A) (A) (A) (A) (A) (A) (A) (A)
                 (A) (A) (A) (A) (A) (A) (A) (A) (A) (A) (A) (A)
                 (A) (A) (A) (A) (A) (A) (A) (A) (A) (A) (A) (A)
                 (A) (A) (A) (A) (A) (A) (A) (A) (A) (A) (A) (A)
                 (A) (A) (A) (A) (A) (A) (A) (A) (A) (A) (A) (A)
                 (A) (A) (A) (A) (A) (A) (A) (A) (A) (A) (A) (A)
                 (A) (A) (A) (A) (A) (A) (A) (A) (A) (A) (A) (A)
                 (A) (A) (A) (A) (A) (A) (A) (A) (A) (A) (A) (A)
                 (A) (A) (A) (A) (A) (A) (A) (A) (A) (A) (A) (A)
                 (A) (A) (A) (A) (A) (A) (A) (A) (A) (A) (A) (A)
                 (A) (A) (A) (A) (A) (A) (A) (A) (A) (A) (A) (A)
                 (A) (A) (A) (A) (A) (A) (A) (A) (A) (A) (A) (A)
                 (A) (A) (A) (A) (A) (A) (A) (A) (A) (A) (A) (A)
                 (A) (A) (A) (A) (A) (A) (A) (A) (A) (A) (A) (A)
                 (A) (A) (A) (A) (A) (A) (A) (A) (A) (A) (A) (A)
                 (A) (A) (A) (A) (A) (A) (A) (A) (A) (A) (A) (A)
                 (A) (A) (A) (A) (A) (A) (A) (A) (A) (A) (A) (A)
                 (A) (A) (A) (A) (A) (A) (A) (A) (A) (A) (A) (A)
                 (A) (A) (A) (A) (A) (A) (A) (A) (A) (A) (A) (A)
                 (A) (A) (A) (A) (A) (A) (A) (A) (A) (A) (A) (A)
                 (A) (A) (A) (A) (A) (A) (A) (A) (A) (A) (A) (A)
                 (A) (A) (A) (A) (A) (A) (A) (A) (A) (A) (A) (A)
                 (A) (A) (A) (A) (A) (A) (A) (A) (A) (A) (A) (A)
                 (A) (A) (A) (A) (A) (A) (A) (A) (A) (A) (A) (A)
                 (A) (A) (A) (A) (A) (A) (A) (A) (A) (A) (A) (A)
                 (A) (A) (A) (A) (A) (A) (A) (A) (A) (A) (A) (A)
                 (A) (A) (A) (A) (A) (A) (A) (A) (A) (A) (A) (A)
                 (A) (A) (A) (A) (A) (A) (A) (A) (A) (A) (A) (A)
                 (A) (A) (A) (A) (A) (A) (A) (A) (A) (A) (A) (A)
                 (A) (A) (A) (A) (A) (A) (A) (A) (A) (A) (A) (A)
                 (A) (A) (A) (A) (A) (A) (A) (A) (A) (A) (A) (A)
                 (A) (A) (A) (A) (A) (A) (A) (A) (A) (A) (A) (A)
                 (A) (A) (A) (A) (A) (A) (A) (A) (A) (A) (A) (A)
                 (A) (A) (A) (A) (A) (A) (A) (A) (A) (A) (A) (A)
                 (A) (A) (A) (A) (A) (A) (A) (A) (A) (A) (A) (A)
                 (A) (A) (A) (A) (A) (A) (A) (A) (A) (A) (A) (A)
                 (A) (A) (A) (A) (A) (A) (A) (A) (A) (A) (A) (A)
                 (A) (A) (A) (A) (A) (A) (A) (A) (A) (A) (A) (A)
                 (A) (A) (A) (A) (A) (A) (A) (A) (A) (A) (A) (A)
                 (A) (A) (A) (A) (A) (A) (A) (A) (A) (A) (A) (A)
                 (A) (A) (A) (A) (A) (A) (A) (A) (A) (A) (A) (A)
                 (A) (A) (A) (A) (A) (A) (A) (A) (A) (A) (A) (A)
                 (A) (A) (A) (A) (A) (A) (A) (A) (A) (A) (A) (A)
                 (A) (A) (A) (A) (A) (A) (A) (A) (A) (A) (A) (A)
                 (A) (A) (A) (A) (A) (A) (A) (A) (A) (A) (A) (A)
                 (A) (A) (A) (A) (A) (A) (A) (A) (A) (A) (A) (A)
                 (A) (A) (A) (A) (A) (A) (A) (A) (A) (A) (A) (A)
                 (A) (A) (A) (A) (A) (A) (A) (A) (A) (A) (A) (A)
                 (A) (A) (A) (A) (A) (A) (A) (A) (A) (A) (A) (A)
                 (A) (A) (A) (A) (A) (A) (A) (A) (A) (A) (A) (A)
                 (A) (A) (A) (A) (A) (A) (A) (A) (A) (A) (A) (A)
                 (A) (A) (A) (A) (A) (A) (A) (A) (A) (A) (A) (A)
                 (A) (A) (A) (A) (A) (A) (A) (A) (A) (A) (A) (A)
                 (A) (A) (A) (A) (A) (A) (A) (A) (A) (A) (A) (A)
                 (A) (A) (A) (A) (A) (A) (A) (A) (A) (A) (A) (A)
                 (A) (A) (A) (A) (A) (A) (A) (A) (A) (A) (A) (A)
                 (A) (A) (A) (A) (A) (A) (A) (A) (A) (A) (A) (A)
                 (A) (A) (A) (A) (A) (A) (A) (A) (A) (A) (A) (A)
                 (A) (A) (A) (A) (A) (A) (A) (A) (A) (A) (A) (A)
                 (A) (A) (A) (A) (A) (A) (A) (A) (A) (A) (A) (A)
                 (A) (A) (A) (A) (A) (A) (A) (A) (A) (A) (A) (A)
                 (A) (A) (A) (A) (A) (A) (A) (A) (A) (A) (A) (A)
                 (A) (A) (A) (A) (A) (A) (A) (A) (A) (A) (A) (A)
                 (A) (A) (A) (A) (A) (A) (A) (A) (A) (A) (A) (A)
                 (A) (A) (A) (A) (A) (A) (A) (A) (A) (A) (A) (A)
                 (A) (A) (A) (A) (A) (A) (A) (A) (A) (A) (A) (A)
                 (A) (A) (A) (A) (A) (A) (A) (A) (A) (A) (A) (A)
                 (A) (A) (A) (A) (A) (A) (A) (A) (A) (A) (A) (A)
                 (A) (A) (A) (A) (A) (A) (A) (A) (A) (A) (A) (A)
                 (A) (A) (A) (A) (A) (A) (A) (A) (A) (A) (A) (A)
                 (A) (A) (A) (A) (A) (A) (A) (A) (A) (A) (A) (A)
                 (A) (A) (A) (A) (A) (A) (A) (A) (A) (A) (A) (A)
                 (A) (A) (A) (A) (A) (A) (A) (A) (A) (A) (A) (A)
                 (A) (A) (A) (A) (A) (A) (A) (A) (A) (A) (A) (A)
                 (A) (A) (A) (A) (A) (A) (A) (A) (A) (A) (A) (A)
                 (A) (A) (A) (A) (A) (A) (A) (A) (A) (A) (A) (A)
                 (A) (A) (A) (A) (A) (A) (A) (A) (A) (A) (A) (A)
                 (A) (A) (A) (A) (A) (A) (A) (A) (A) (A) (A) (A)
                 (A) (A) (A) (A) (A) (A) (A) (A) (A) (A) (A) (A)
                 (A) (A) (A) (A) (A) (A) (A) (A) (A) (A) (A) (A)
                 (A) (A) (A) (A) (A) (A) (A) (A) (A) (A) (A) (A)
                 (A) (A) (A) (A) (A) (A) (A) (A) (A) (A) (A) (A)
                 (A) (A) (A) (A) (A) (A) (A) (A) (A) (A) (A) (A)
                 (A) (A) (A) (A) (A) (A) (A) (A) (A) (A) (A) (A)
                 (A) (A) (A) (A) (A) (A) (A) (A) (A) (A) (A) (A)
                 (A) (A) (A) (A) (A) (A) (A) (A) (A) (A) (A) (A)
                 (A) (A) (A) (A) (A) (A) (A) (A) (A) (A) (A) (A)
                 (A) (A) (A) (A) (A) (A) (A) (A) (A) (A) (A) (A)
                 (A) (A) (A) (A) (A) (A) (A) (A) (A) (A) (A) (A)
                 (A) (A) (A) (A) (A) (A) (A) (A) (A) (A) (A) (A)
                 (A) (A) (A) (A) (A) (A) (A) (A) (A) (A) (A) (A)
                 (A) (A) (A) (A) (A) (A) (A) (A) (A) (A) (A) (A)
                 (A) (A) (A) (A) (A) (A) (A) (A) (A) (A) (A) (A)
                 (A) (A) (A) (A) (A) (A) (A) (A) (A) (A) (A) (A)
                 (A) (A) (A) (A) (A) (A) (A) (A) (A) (A) (A) (A)
                 (A) (A) (A) (A) (A) (A) (A) (A) (A) (A) (A) (A)
                 (A) (A) (A) (A) (A) (A) (A) (A) (A) (A) (A) (A)
                 (A) (A)
 Beta  Orbitals:
       Occupied  (A) (A) (A) (A) (A) (A) (A) (A) (A) (A) (A) (A)
                 (A) (A) (A) (A) (A) (A) (A) (A) (A) (A) (A) (A)
                 (A) (A) (A) (A) (A) (A) (A) (A) (A) (A) (A) (A)
                 (A) (A) (A) (A) (A) (A) (A) (A) (A) (A) (A) (A)
                 (A) (A) (A) (A) (A) (A) (A) (A) (A) (A) (A) (A)
                 (A) (A) (A) (A) (A) (A) (A) (A) (A) (A) (A) (A)
                 (A) (A) (A) (A) (A) (A) (A) (A) (A) (A) (A) (A)
                 (A) (A) (A) (A) (A) (A) (A) (A) (A) (A) (A) (A)
                 (A) (A) (A) (A) (A) (A) (A) (A) (A) (A) (A) (A)
                 (A) (A) (A) (A) (A) (A) (A) (A) (A) (A) (A) (A)
                 (A) (A) (A) (A) (A) (A) (A) (A) (A) (A) (A) (A)
                 (A) (A) (A) (A) (A) (A) (A) (A) (A) (A) (A) (A)
                 (A) (A) (A) (A) (A) (A) (A) (A) (A) (A) (A) (A)
                 (A) (A) (A) (A) (A) (A) (A) (A) (A) (A) (A) (A)
                 (A) (A)
       Virtual   (A) (A) (A) (A) (A) (A) (A) (A) (A) (A) (A) (A)
                 (A) (A) (A) (A) (A) (A) (A) (A) (A) (A) (A) (A)
                 (A) (A) (A) (A) (A) (A) (A) (A) (A) (A) (A) (A)
                 (A) (A) (A) (A) (A) (A) (A) (A) (A) (A) (A) (A)
                 (A) (A) (A) (A) (A) (A) (A) (A) (A) (A) (A) (A)
                 (A) (A) (A) (A) (A) (A) (A) (A) (A) (A) (A) (A)
                 (A) (A) (A) (A) (A) (A) (A) (A) (A) (A) (A) (A)
                 (A) (A) (A) (A) (A) (A) (A) (A) (A) (A) (A) (A)
                 (A) (A) (A) (A) (A) (A) (A) (A) (A) (A) (A) (A)
                 (A) (A) (A) (A) (A) (A) (A) (A) (A) (A) (A) (A)
                 (A) (A) (A) (A) (A) (A) (A) (A) (A) (A) (A) (A)
                 (A) (A) (A) (A) (A) (A) (A) (A) (A) (A) (A) (A)
                 (A) (A) (A) (A) (A) (A) (A) (A) (A) (A) (A) (A)
                 (A) (A) (A) (A) (A) (A) (A) (A) (A) (A) (A) (A)
                 (A) (A) (A) (A) (A) (A) (A) (A) (A) (A) (A) (A)
                 (A) (A) (A) (A) (A) (A) (A) (A) (A) (A) (A) (A)
                 (A) (A) (A) (A) (A) (A) (A) (A) (A) (A) (A) (A)
                 (A) (A) (A) (A) (A) (A) (A) (A) (A) (A) (A) (A)
                 (A) (A) (A) (A) (A) (A) (A) (A) (A) (A) (A) (A)
                 (A) (A) (A) (A) (A) (A) (A) (A) (A) (A) (A) (A)
                 (A) (A) (A) (A) (A) (A) (A) (A) (A) (A) (A) (A)
                 (A) (A) (A) (A) (A) (A) (A) (A) (A) (A) (A) (A)
                 (A) (A) (A) (A) (A) (A) (A) (A) (A) (A) (A) (A)
                 (A) (A) (A) (A) (A) (A) (A) (A) (A) (A) (A) (A)
                 (A) (A) (A) (A) (A) (A) (A) (A) (A) (A) (A) (A)
                 (A) (A) (A) (A) (A) (A) (A) (A) (A) (A) (A) (A)
                 (A) (A) (A) (A) (A) (A) (A) (A) (A) (A) (A) (A)
                 (A) (A) (A) (A) (A) (A) (A) (A) (A) (A) (A) (A)
                 (A) (A) (A) (A) (A) (A) (A) (A) (A) (A) (A) (A)
                 (A) (A) (A) (A) (A) (A) (A) (A) (A) (A) (A) (A)
                 (A) (A) (A) (A) (A) (A) (A) (A) (A) (A) (A) (A)
                 (A) (A) (A) (A) (A) (A) (A) (A) (A) (A) (A) (A)
                 (A) (A) (A) (A) (A) (A) (A) (A) (A) (A) (A) (A)
                 (A) (A) (A) (A) (A) (A) (A) (A) (A) (A) (A) (A)
                 (A) (A) (A) (A) (A) (A) (A) (A) (A) (A) (A) (A)
                 (A) (A) (A) (A) (A) (A) (A) (A) (A) (A) (A) (A)
                 (A) (A) (A) (A) (A) (A) (A) (A) (A) (A) (A) (A)
                 (A) (A) (A) (A) (A) (A) (A) (A) (A) (A) (A) (A)
                 (A) (A) (A) (A) (A) (A) (A) (A) (A) (A) (A) (A)
                 (A) (A) (A) (A) (A) (A) (A) (A) (A) (A) (A) (A)
                 (A) (A) (A) (A) (A) (A) (A) (A) (A) (A) (A) (A)
                 (A) (A) (A) (A) (A) (A) (A) (A) (A) (A) (A) (A)
                 (A) (A) (A) (A) (A) (A) (A) (A) (A) (A) (A) (A)
                 (A) (A) (A) (A) (A) (A) (A) (A) (A) (A) (A) (A)
                 (A) (A) (A) (A) (A) (A) (A) (A) (A) (A) (A) (A)
                 (A) (A) (A) (A) (A) (A) (A) (A) (A) (A) (A) (A)
                 (A) (A) (A) (A) (A) (A) (A) (A) (A) (A) (A) (A)
                 (A) (A) (A) (A) (A) (A) (A) (A) (A) (A) (A) (A)
                 (A) (A) (A) (A) (A) (A) (A) (A) (A) (A) (A) (A)
                 (A) (A) (A) (A) (A) (A) (A) (A) (A) (A) (A) (A)
                 (A) (A) (A) (A) (A) (A) (A) (A) (A) (A) (A) (A)
                 (A) (A) (A) (A) (A) (A) (A) (A) (A) (A) (A) (A)
                 (A) (A) (A) (A) (A) (A) (A) (A) (A) (A) (A) (A)
                 (A) (A) (A) (A) (A) (A) (A) (A) (A) (A) (A) (A)
                 (A) (A) (A) (A) (A) (A) (A) (A) (A) (A) (A) (A)
                 (A) (A) (A) (A) (A) (A) (A) (A) (A) (A) (A) (A)
                 (A) (A) (A) (A) (A) (A) (A) (A) (A) (A) (A) (A)
                 (A) (A) (A) (A) (A) (A) (A) (A) (A) (A) (A) (A)
                 (A) (A) (A) (A) (A) (A) (A) (A) (A) (A) (A) (A)
                 (A) (A) (A) (A) (A) (A) (A) (A) (A) (A) (A) (A)
                 (A) (A) (A) (A) (A) (A) (A) (A) (A) (A) (A) (A)
                 (A) (A) (A) (A) (A) (A) (A) (A) (A) (A) (A) (A)
                 (A) (A) (A) (A) (A) (A) (A) (A) (A) (A) (A) (A)
                 (A) (A) (A) (A) (A) (A) (A) (A) (A) (A) (A) (A)
                 (A) (A) (A) (A) (A) (A) (A) (A) (A) (A) (A) (A)
                 (A) (A) (A) (A) (A) (A) (A) (A) (A) (A) (A) (A)
                 (A) (A) (A) (A) (A) (A) (A) (A) (A) (A) (A) (A)
                 (A) (A) (A) (A) (A) (A) (A) (A) (A) (A) (A) (A)
                 (A) (A) (A) (A) (A) (A) (A) (A) (A) (A) (A) (A)
                 (A) (A) (A) (A) (A) (A) (A) (A) (A) (A) (A) (A)
                 (A) (A) (A) (A) (A) (A) (A) (A) (A) (A) (A) (A)
                 (A) (A) (A) (A) (A) (A) (A) (A) (A) (A) (A) (A)
                 (A) (A) (A) (A) (A) (A) (A) (A) (A) (A) (A) (A)
                 (A) (A) (A) (A) (A) (A) (A) (A) (A) (A) (A) (A)
                 (A) (A) (A) (A) (A) (A) (A) (A) (A) (A) (A) (A)
                 (A) (A) (A) (A) (A) (A) (A) (A) (A) (A) (A) (A)
                 (A) (A) (A) (A) (A) (A) (A) (A) (A) (A) (A) (A)
                 (A) (A) (A) (A) (A) (A) (A) (A) (A) (A) (A) (A)
                 (A) (A) (A) (A) (A) (A) (A) (A) (A) (A) (A) (A)
                 (A) (A) (A) (A) (A) (A) (A) (A) (A) (A) (A) (A)
                 (A) (A) (A) (A) (A) (A) (A) (A) (A) (A) (A) (A)
                 (A) (A) (A) (A) (A) (A) (A) (A) (A) (A) (A) (A)
                 (A) (A) (A) (A) (A) (A) (A) (A) (A) (A) (A) (A)
                 (A) (A) (A) (A) (A) (A) (A) (A) (A) (A) (A) (A)
                 (A) (A) (A) (A) (A) (A) (A) (A) (A) (A) (A) (A)
                 (A) (A) (A) (A) (A) (A) (A) (A) (A) (A) (A) (A)
                 (A) (A) (A) (A) (A) (A) (A) (A) (A) (A) (A) (A)
                 (A) (A) (A) (A) (A) (A) (A) (A) (A) (A) (A) (A)
                 (A) (A) (A) (A) (A) (A) (A) (A) (A) (A) (A) (A)
                 (A) (A) (A) (A) (A) (A) (A) (A) (A) (A) (A) (A)
                 (A) (A) (A) (A) (A) (A) (A) (A) (A) (A) (A) (A)
                 (A) (A) (A) (A) (A) (A) (A) (A) (A) (A) (A) (A)
                 (A) (A) (A) (A) (A) (A) (A) (A) (A) (A) (A) (A)
                 (A) (A) (A) (A) (A) (A) (A) (A) (A) (A) (A) (A)
                 (A) (A) (A) (A) (A) (A) (A) (A) (A) (A) (A) (A)
                 (A) (A) (A) (A) (A) (A) (A) (A) (A) (A) (A) (A)
                 (A) (A) (A) (A) (A) (A) (A) (A) (A) (A) (A) (A)
                 (A) (A) (A) (A) (A) (A) (A) (A) (A) (A) (A) (A)
                 (A) (A) (A) (A) (A) (A) (A) (A) (A) (A) (A) (A)
                 (A) (A) (A) (A) (A) (A) (A) (A) (A) (A) (A) (A)
                 (A) (A) (A) (A) (A) (A) (A) (A) (A) (A) (A) (A)
                 (A) (A) (A) (A) (A) (A) (A) (A) (A) (A) (A) (A)
                 (A) (A) (A) (A) (A) (A) (A) (A) (A) (A) (A) (A)
                 (A) (A) (A) (A) (A) (A) (A) (A) (A) (A) (A) (A)
                 (A) (A) (A) (A) (A) (A) (A) (A) (A) (A) (A) (A)
                 (A) (A) (A) (A) (A) (A) (A) (A) (A) (A) (A) (A)
                 (A) (A) (A) (A) (A) (A) (A) (A) (A) (A) (A) (A)
                 (A) (A) (A) (A) (A) (A) (A) (A) (A) (A) (A) (A)
                 (A) (A) (A) (A) (A) (A) (A) (A) (A) (A) (A) (A)
                 (A) (A) (A) (A) (A) (A) (A) (A) (A) (A) (A) (A)
                 (A) (A) (A) (A) (A) (A) (A) (A) (A) (A) (A) (A)
                 (A) (A) (A) (A) (A) (A) (A) (A) (A) (A) (A) (A)
                 (A) (A) (A) (A) (A) (A) (A) (A) (A) (A) (A) (A)
                 (A) (A) (A) (A) (A) (A) (A) (A) (A) (A) (A) (A)
                 (A) (A) (A) (A) (A) (A) (A) (A) (A) (A) (A) (A)
                 (A) (A) (A) (A) (A) (A) (A) (A) (A) (A) (A) (A)
                 (A) (A) (A) (A) (A) (A) (A) (A) (A) (A) (A) (A)
                 (A) (A) (A) (A) (A) (A) (A) (A) (A) (A) (A) (A)
                 (A) (A) (A) (A) (A) (A) (A) (A) (A) (A) (A) (A)
                 (A) (A) (A) (A) (A) (A) (A) (A) (A) (A) (A) (A)
                 (A) (A) (A) (A) (A) (A) (A) (A) (A) (A) (A) (A)
                 (A) (A) (A)
 The electronic state is 2-A.
 Alpha  occ. eigenvalues -- -256.44858 -30.21389 -26.04237 -26.03974 -26.03730
 Alpha  occ. eigenvalues --  -19.34866 -19.32937 -19.31682 -19.31189 -19.24845
 Alpha  occ. eigenvalues --  -19.23326 -14.50455 -14.49646 -14.48311 -14.47694
 Alpha  occ. eigenvalues --  -10.42052 -10.41796 -10.40709 -10.38646 -10.38580
 Alpha  occ. eigenvalues --  -10.37603 -10.37254 -10.37141 -10.36837 -10.36249
 Alpha  occ. eigenvalues --  -10.36113 -10.35895 -10.35841 -10.35481 -10.35424
 Alpha  occ. eigenvalues --  -10.35419 -10.34834 -10.34302 -10.34115 -10.33640
 Alpha  occ. eigenvalues --  -10.33612 -10.33110 -10.33071 -10.33017 -10.32817
 Alpha  occ. eigenvalues --  -10.32564 -10.32277 -10.31817 -10.31440 -10.31432
 Alpha  occ. eigenvalues --  -10.31151 -10.30620 -10.30590 -10.30318  -3.56979
 Alpha  occ. eigenvalues --   -2.33474  -2.32642  -2.31815  -1.25536  -1.23945
 Alpha  occ. eigenvalues --   -1.18686  -1.16514  -1.13232  -1.12157  -1.11880
 Alpha  occ. eigenvalues --   -1.10633  -1.10258  -1.09265  -0.98926  -0.97438
 Alpha  occ. eigenvalues --   -0.96089  -0.94679  -0.94039  -0.93292  -0.92779
 Alpha  occ. eigenvalues --   -0.91984  -0.90709  -0.89729  -0.88370  -0.87108
 Alpha  occ. eigenvalues --   -0.86822  -0.86156  -0.84028  -0.82685  -0.81519
 Alpha  occ. eigenvalues --   -0.79374  -0.78774  -0.78572  -0.77177  -0.76607
 Alpha  occ. eigenvalues --   -0.75402  -0.74699  -0.74094  -0.71313  -0.70892
 Alpha  occ. eigenvalues --   -0.70565  -0.69624  -0.68308  -0.67638  -0.67546
 Alpha  occ. eigenvalues --   -0.66509  -0.65084  -0.64980  -0.63811  -0.62121
 Alpha  occ. eigenvalues --   -0.61921  -0.61348  -0.60958  -0.60498  -0.59963
 Alpha  occ. eigenvalues --   -0.59888  -0.59734  -0.58409  -0.57953  -0.57784
 Alpha  occ. eigenvalues --   -0.57341  -0.57016  -0.56651  -0.56554  -0.56191
 Alpha  occ. eigenvalues --   -0.55728  -0.55387  -0.54916  -0.54766  -0.54478
 Alpha  occ. eigenvalues --   -0.54405  -0.53480  -0.53346  -0.53002  -0.52905
 Alpha  occ. eigenvalues --   -0.52643  -0.52279  -0.52079  -0.51833  -0.51643
 Alpha  occ. eigenvalues --   -0.51276  -0.50894  -0.50626  -0.50208  -0.49841
 Alpha  occ. eigenvalues --   -0.49493  -0.49182  -0.48923  -0.48692  -0.47994
 Alpha  occ. eigenvalues --   -0.47877  -0.47619  -0.47220  -0.46651  -0.46213
 Alpha  occ. eigenvalues --   -0.46133  -0.45997  -0.44650  -0.44439  -0.43370
 Alpha  occ. eigenvalues --   -0.42645  -0.42154  -0.41444  -0.41123  -0.40820
 Alpha  occ. eigenvalues --   -0.40410  -0.40358  -0.39551  -0.38997  -0.38739
 Alpha  occ. eigenvalues --   -0.37253  -0.36815  -0.35495  -0.34999  -0.34971
 Alpha  occ. eigenvalues --   -0.33707  -0.33541  -0.33174  -0.32650  -0.30771
 Alpha  occ. eigenvalues --   -0.30302
 Alpha virt. eigenvalues --   -0.21753  -0.20466  -0.17511  -0.16309  -0.11885
 Alpha virt. eigenvalues --   -0.11525  -0.11318  -0.09665  -0.08329  -0.07710
 Alpha virt. eigenvalues --   -0.06884  -0.05936  -0.05610  -0.05499  -0.05231
 Alpha virt. eigenvalues --   -0.04400  -0.03907  -0.03628  -0.03464  -0.02904
 Alpha virt. eigenvalues --   -0.02682  -0.02406  -0.02131  -0.01885  -0.01585
 Alpha virt. eigenvalues --   -0.01093  -0.00972  -0.00701  -0.00118   0.00408
 Alpha virt. eigenvalues --    0.00826   0.00977   0.01623   0.02001   0.02300
 Alpha virt. eigenvalues --    0.02620   0.02844   0.03165   0.03553   0.03788
 Alpha virt. eigenvalues --    0.04247   0.04427   0.04852   0.05154   0.05318
 Alpha virt. eigenvalues --    0.05590   0.05639   0.05913   0.06207   0.06481
 Alpha virt. eigenvalues --    0.06665   0.06919   0.07210   0.07563   0.07775
 Alpha virt. eigenvalues --    0.08070   0.08368   0.08603   0.08795   0.09158
 Alpha virt. eigenvalues --    0.09244   0.09535   0.09759   0.09928   0.10308
 Alpha virt. eigenvalues --    0.10572   0.10727   0.11243   0.11333   0.11593
 Alpha virt. eigenvalues --    0.11890   0.11902   0.12262   0.12514   0.12560
 Alpha virt. eigenvalues --    0.12847   0.13130   0.13278   0.13480   0.13711
 Alpha virt. eigenvalues --    0.13767   0.13895   0.14339   0.14528   0.14976
 Alpha virt. eigenvalues --    0.15236   0.15450   0.15673   0.15808   0.16164
 Alpha virt. eigenvalues --    0.16341   0.16528   0.16758   0.16934   0.17162
 Alpha virt. eigenvalues --    0.17641   0.17796   0.17921   0.18077   0.18268
 Alpha virt. eigenvalues --    0.18575   0.18787   0.19188   0.19385   0.19457
 Alpha virt. eigenvalues --    0.19894   0.20261   0.20513   0.20754   0.20869
 Alpha virt. eigenvalues --    0.21084   0.21519   0.21584   0.21732   0.21948
 Alpha virt. eigenvalues --    0.22741   0.22853   0.22958   0.23509   0.23635
 Alpha virt. eigenvalues --    0.23694   0.24227   0.24575   0.25169   0.25187
 Alpha virt. eigenvalues --    0.25364   0.25565   0.25796   0.26174   0.26413
 Alpha virt. eigenvalues --    0.26606   0.26714   0.27122   0.27430   0.27762
 Alpha virt. eigenvalues --    0.27983   0.28224   0.28529   0.28674   0.28965
 Alpha virt. eigenvalues --    0.29177   0.29210   0.29468   0.29581   0.29757
 Alpha virt. eigenvalues --    0.29926   0.30117   0.30477   0.30533   0.30846
 Alpha virt. eigenvalues --    0.31242   0.31318   0.31788   0.31869   0.32341
 Alpha virt. eigenvalues --    0.32669   0.32874   0.33046   0.33262   0.33794
 Alpha virt. eigenvalues --    0.33823   0.34089   0.34415   0.34754   0.34964
 Alpha virt. eigenvalues --    0.35022   0.35332   0.35434   0.35742   0.35880
 Alpha virt. eigenvalues --    0.36303   0.36505   0.36719   0.36783   0.36943
 Alpha virt. eigenvalues --    0.37098   0.37469   0.37686   0.37787   0.38020
 Alpha virt. eigenvalues --    0.38207   0.38643   0.38779   0.38987   0.39328
 Alpha virt. eigenvalues --    0.39448   0.39763   0.40094   0.40143   0.40360
 Alpha virt. eigenvalues --    0.40686   0.40818   0.41139   0.41440   0.41521
 Alpha virt. eigenvalues --    0.41772   0.42045   0.42207   0.42277   0.42388
 Alpha virt. eigenvalues --    0.42624   0.43096   0.43204   0.43549   0.43661
 Alpha virt. eigenvalues --    0.44068   0.44255   0.44526   0.44849   0.45088
 Alpha virt. eigenvalues --    0.45363   0.45626   0.45935   0.46137   0.46219
 Alpha virt. eigenvalues --    0.46517   0.46844   0.47089   0.47360   0.47622
 Alpha virt. eigenvalues --    0.47720   0.48478   0.48689   0.48920   0.49121
 Alpha virt. eigenvalues --    0.49297   0.49592   0.49857   0.50084   0.50221
 Alpha virt. eigenvalues --    0.50444   0.50896   0.51203   0.51445   0.51639
 Alpha virt. eigenvalues --    0.51867   0.52209   0.52390   0.52599   0.53005
 Alpha virt. eigenvalues --    0.53221   0.53473   0.53836   0.54012   0.54276
 Alpha virt. eigenvalues --    0.54312   0.54737   0.54781   0.54882   0.55595
 Alpha virt. eigenvalues --    0.56068   0.56226   0.56302   0.56882   0.56977
 Alpha virt. eigenvalues --    0.57094   0.57404   0.57592   0.57806   0.58143
 Alpha virt. eigenvalues --    0.58400   0.58584   0.58778   0.59344   0.59446
 Alpha virt. eigenvalues --    0.59582   0.59865   0.60547   0.60706   0.60954
 Alpha virt. eigenvalues --    0.61137   0.61210   0.61803   0.62159   0.62284
 Alpha virt. eigenvalues --    0.62511   0.62739   0.63410   0.63698   0.63986
 Alpha virt. eigenvalues --    0.64218   0.64476   0.64781   0.65293   0.65603
 Alpha virt. eigenvalues --    0.65725   0.66058   0.66345   0.66774   0.67196
 Alpha virt. eigenvalues --    0.67419   0.67872   0.68115   0.68319   0.68558
 Alpha virt. eigenvalues --    0.69216   0.69296   0.69757   0.70006   0.70452
 Alpha virt. eigenvalues --    0.70855   0.71130   0.71234   0.71916   0.72333
 Alpha virt. eigenvalues --    0.72399   0.72801   0.73053   0.73591   0.73939
 Alpha virt. eigenvalues --    0.74141   0.74331   0.74634   0.75073   0.75412
 Alpha virt. eigenvalues --    0.75522   0.75961   0.76181   0.76477   0.76966
 Alpha virt. eigenvalues --    0.77132   0.77691   0.77972   0.78568   0.78841
 Alpha virt. eigenvalues --    0.79207   0.79517   0.79799   0.80143   0.80624
 Alpha virt. eigenvalues --    0.80958   0.81226   0.81453   0.82044   0.82213
 Alpha virt. eigenvalues --    0.82565   0.82746   0.83039   0.83353   0.83638
 Alpha virt. eigenvalues --    0.84082   0.84536   0.84983   0.85509   0.85585
 Alpha virt. eigenvalues --    0.86062   0.86376   0.86550   0.86996   0.87597
 Alpha virt. eigenvalues --    0.87717   0.87993   0.88602   0.88885   0.89119
 Alpha virt. eigenvalues --    0.89352   0.89722   0.90145   0.90298   0.90756
 Alpha virt. eigenvalues --    0.91055   0.91500   0.91906   0.92114   0.92308
 Alpha virt. eigenvalues --    0.92667   0.92988   0.93558   0.93705   0.94443
 Alpha virt. eigenvalues --    0.94625   0.95009   0.95166   0.95325   0.95896
 Alpha virt. eigenvalues --    0.96269   0.96583   0.97033   0.97381   0.97655
 Alpha virt. eigenvalues --    0.97886   0.98509   0.98693   0.99086   0.99631
 Alpha virt. eigenvalues --    0.99742   0.99950   1.00540   1.00865   1.01029
 Alpha virt. eigenvalues --    1.01379   1.02205   1.02559   1.02899   1.03471
 Alpha virt. eigenvalues --    1.04121   1.04273   1.04878   1.05038   1.05352
 Alpha virt. eigenvalues --    1.06120   1.06748   1.06849   1.07170   1.07578
 Alpha virt. eigenvalues --    1.07750   1.08283   1.08638   1.08820   1.09346
 Alpha virt. eigenvalues --    1.10119   1.10485   1.10725   1.10996   1.12167
 Alpha virt. eigenvalues --    1.12234   1.12522   1.12650   1.13310   1.13867
 Alpha virt. eigenvalues --    1.14066   1.14764   1.15054   1.15454   1.15725
 Alpha virt. eigenvalues --    1.16006   1.16256   1.16844   1.17308   1.17624
 Alpha virt. eigenvalues --    1.17945   1.18710   1.19357   1.19724   1.20023
 Alpha virt. eigenvalues --    1.20501   1.20877   1.21242   1.21508   1.22232
 Alpha virt. eigenvalues --    1.22403   1.22564   1.23119   1.23768   1.24076
 Alpha virt. eigenvalues --    1.24967   1.25276   1.25790   1.26417   1.26673
 Alpha virt. eigenvalues --    1.27104   1.27592   1.27731   1.28171   1.28869
 Alpha virt. eigenvalues --    1.29131   1.29698   1.30062   1.30548   1.31418
 Alpha virt. eigenvalues --    1.31875   1.32051   1.32478   1.33069   1.33708
 Alpha virt. eigenvalues --    1.33910   1.34188   1.35042   1.35229   1.35537
 Alpha virt. eigenvalues --    1.35656   1.36486   1.36599   1.36720   1.36837
 Alpha virt. eigenvalues --    1.37503   1.38137   1.38490   1.38830   1.39003
 Alpha virt. eigenvalues --    1.39339   1.39631   1.39985   1.40413   1.40507
 Alpha virt. eigenvalues --    1.40834   1.41073   1.41509   1.41769   1.42427
 Alpha virt. eigenvalues --    1.42955   1.43606   1.43883   1.44297   1.44735
 Alpha virt. eigenvalues --    1.45016   1.45424   1.45642   1.45964   1.46375
 Alpha virt. eigenvalues --    1.46904   1.47039   1.47320   1.47838   1.47853
 Alpha virt. eigenvalues --    1.48363   1.48403   1.48779   1.49123   1.49715
 Alpha virt. eigenvalues --    1.49867   1.49955   1.50378   1.50531   1.50643
 Alpha virt. eigenvalues --    1.50882   1.51370   1.51461   1.51834   1.52326
 Alpha virt. eigenvalues --    1.52534   1.52911   1.53248   1.53467   1.53768
 Alpha virt. eigenvalues --    1.54290   1.54766   1.54932   1.55448   1.55769
 Alpha virt. eigenvalues --    1.56097   1.56226   1.56636   1.57015   1.57348
 Alpha virt. eigenvalues --    1.58030   1.58674   1.58917   1.59288   1.59648
 Alpha virt. eigenvalues --    1.59698   1.60064   1.60551   1.61113   1.61315
 Alpha virt. eigenvalues --    1.61469   1.62134   1.62510   1.62646   1.62982
 Alpha virt. eigenvalues --    1.63390   1.63619   1.63762   1.64359   1.64774
 Alpha virt. eigenvalues --    1.65096   1.65454   1.66199   1.66415   1.66908
 Alpha virt. eigenvalues --    1.67575   1.67972   1.68214   1.68887   1.69034
 Alpha virt. eigenvalues --    1.69166   1.69294   1.69449   1.70393   1.70794
 Alpha virt. eigenvalues --    1.71116   1.71293   1.72141   1.72357   1.72752
 Alpha virt. eigenvalues --    1.72816   1.73064   1.73455   1.73972   1.74765
 Alpha virt. eigenvalues --    1.75495   1.75961   1.76093   1.76699   1.77266
 Alpha virt. eigenvalues --    1.77685   1.78097   1.78666   1.78913   1.79246
 Alpha virt. eigenvalues --    1.79754   1.80154   1.80696   1.80838   1.81383
 Alpha virt. eigenvalues --    1.81655   1.82179   1.82604   1.82658   1.83103
 Alpha virt. eigenvalues --    1.83594   1.83993   1.84396   1.84810   1.85094
 Alpha virt. eigenvalues --    1.85603   1.86092   1.86431   1.86552   1.86819
 Alpha virt. eigenvalues --    1.87120   1.87477   1.87815   1.87964   1.88861
 Alpha virt. eigenvalues --    1.89130   1.89456   1.89966   1.90651   1.90925
 Alpha virt. eigenvalues --    1.91117   1.91560   1.92130   1.92836   1.93104
 Alpha virt. eigenvalues --    1.93855   1.94078   1.94421   1.94582   1.95179
 Alpha virt. eigenvalues --    1.95791   1.96203   1.96600   1.97111   1.97422
 Alpha virt. eigenvalues --    1.98168   1.98384   1.99343   1.99791   1.99874
 Alpha virt. eigenvalues --    2.00260   2.00640   2.01017   2.01690   2.01901
 Alpha virt. eigenvalues --    2.02206   2.02487   2.03372   2.03680   2.03759
 Alpha virt. eigenvalues --    2.04457   2.04733   2.05558   2.05927   2.06083
 Alpha virt. eigenvalues --    2.06542   2.07006   2.07708   2.07788   2.08378
 Alpha virt. eigenvalues --    2.08759   2.09213   2.09509   2.09870   2.10673
 Alpha virt. eigenvalues --    2.10879   2.11367   2.11877   2.12214   2.12442
 Alpha virt. eigenvalues --    2.12908   2.13236   2.13724   2.14141   2.14819
 Alpha virt. eigenvalues --    2.15376   2.15883   2.16087   2.16614   2.17104
 Alpha virt. eigenvalues --    2.17195   2.17747   2.18605   2.18772   2.19592
 Alpha virt. eigenvalues --    2.20009   2.20813   2.20891   2.21050   2.21486
 Alpha virt. eigenvalues --    2.22227   2.22711   2.23173   2.23877   2.24019
 Alpha virt. eigenvalues --    2.24858   2.25324   2.25590   2.25755   2.26379
 Alpha virt. eigenvalues --    2.26692   2.27256   2.27853   2.28329   2.28470
 Alpha virt. eigenvalues --    2.28872   2.29118   2.29772   2.29968   2.30301
 Alpha virt. eigenvalues --    2.30523   2.30696   2.31782   2.32211   2.32235
 Alpha virt. eigenvalues --    2.32591   2.33123   2.33672   2.34091   2.34116
 Alpha virt. eigenvalues --    2.34692   2.35301   2.35688   2.36197   2.36475
 Alpha virt. eigenvalues --    2.37474   2.37845   2.38418   2.38580   2.39615
 Alpha virt. eigenvalues --    2.40269   2.40409   2.40753   2.41425   2.41565
 Alpha virt. eigenvalues --    2.41670   2.42021   2.42346   2.43178   2.43605
 Alpha virt. eigenvalues --    2.44030   2.44610   2.44785   2.44933   2.46009
 Alpha virt. eigenvalues --    2.46530   2.46780   2.46927   2.47077   2.47506
 Alpha virt. eigenvalues --    2.48119   2.48175   2.48535   2.48683   2.49169
 Alpha virt. eigenvalues --    2.49480   2.49804   2.50062   2.50477   2.50652
 Alpha virt. eigenvalues --    2.51260   2.51331   2.51615   2.52134   2.52582
 Alpha virt. eigenvalues --    2.53256   2.53335   2.53790   2.53925   2.54525
 Alpha virt. eigenvalues --    2.54823   2.55002   2.55146   2.55529   2.56366
 Alpha virt. eigenvalues --    2.56736   2.57296   2.57628   2.58157   2.58451
 Alpha virt. eigenvalues --    2.58688   2.59189   2.59345   2.59655   2.60277
 Alpha virt. eigenvalues --    2.60910   2.61379   2.61794   2.61905   2.62473
 Alpha virt. eigenvalues --    2.62896   2.63525   2.63819   2.64252   2.64707
 Alpha virt. eigenvalues --    2.65002   2.65197   2.65669   2.65827   2.66245
 Alpha virt. eigenvalues --    2.66856   2.67201   2.67422   2.67755   2.67801
 Alpha virt. eigenvalues --    2.68378   2.68978   2.69472   2.69798   2.70196
 Alpha virt. eigenvalues --    2.70446   2.71178   2.71218   2.71459   2.71832
 Alpha virt. eigenvalues --    2.72335   2.72661   2.73006   2.73336   2.73905
 Alpha virt. eigenvalues --    2.74231   2.74620   2.75021   2.75241   2.75742
 Alpha virt. eigenvalues --    2.76044   2.76435   2.76838   2.77283   2.77420
 Alpha virt. eigenvalues --    2.77933   2.78005   2.78374   2.79192   2.79540
 Alpha virt. eigenvalues --    2.80070   2.80567   2.80775   2.81093   2.81407
 Alpha virt. eigenvalues --    2.81546   2.81977   2.82503   2.82771   2.83224
 Alpha virt. eigenvalues --    2.83846   2.84289   2.84677   2.84866   2.85607
 Alpha virt. eigenvalues --    2.85626   2.85951   2.86114   2.86718   2.87454
 Alpha virt. eigenvalues --    2.87670   2.87773   2.88175   2.88427   2.88595
 Alpha virt. eigenvalues --    2.89033   2.89276   2.89789   2.89896   2.90248
 Alpha virt. eigenvalues --    2.90968   2.91214   2.91437   2.92050   2.92398
 Alpha virt. eigenvalues --    2.92764   2.93054   2.93484   2.94470   2.94629
 Alpha virt. eigenvalues --    2.94957   2.95251   2.95472   2.96242   2.96568
 Alpha virt. eigenvalues --    2.96861   2.97263   2.97765   2.97871   2.98353
 Alpha virt. eigenvalues --    2.98897   2.99535   2.99750   2.99834   2.99923
 Alpha virt. eigenvalues --    3.00628   3.00838   3.01320   3.01693   3.01814
 Alpha virt. eigenvalues --    3.02286   3.02415   3.02709   3.03251   3.03578
 Alpha virt. eigenvalues --    3.03829   3.04010   3.04249   3.04391   3.04858
 Alpha virt. eigenvalues --    3.05123   3.05359   3.05977   3.06145   3.06833
 Alpha virt. eigenvalues --    3.07065   3.07272   3.08008   3.08264   3.08515
 Alpha virt. eigenvalues --    3.08676   3.09171   3.09207   3.09723   3.09811
 Alpha virt. eigenvalues --    3.10255   3.10789   3.11189   3.11464   3.11904
 Alpha virt. eigenvalues --    3.12200   3.12726   3.13084   3.13457   3.13611
 Alpha virt. eigenvalues --    3.14041   3.14571   3.14739   3.14786   3.15262
 Alpha virt. eigenvalues --    3.15324   3.15501   3.15849   3.16426   3.16604
 Alpha virt. eigenvalues --    3.17225   3.17316   3.17604   3.17992   3.18074
 Alpha virt. eigenvalues --    3.18558   3.18923   3.19114   3.19542   3.19812
 Alpha virt. eigenvalues --    3.20012   3.20323   3.20407   3.20635   3.21471
 Alpha virt. eigenvalues --    3.21626   3.21760   3.21865   3.22239   3.22551
 Alpha virt. eigenvalues --    3.22734   3.22940   3.23384   3.23953   3.24072
 Alpha virt. eigenvalues --    3.24301   3.24691   3.25151   3.25404   3.25627
 Alpha virt. eigenvalues --    3.25729   3.26229   3.26620   3.26842   3.27441
 Alpha virt. eigenvalues --    3.27532   3.27783   3.28010   3.28417   3.28651
 Alpha virt. eigenvalues --    3.28847   3.29121   3.29615   3.29787   3.30429
 Alpha virt. eigenvalues --    3.30701   3.30824   3.31178   3.31648   3.32044
 Alpha virt. eigenvalues --    3.32377   3.32762   3.33104   3.33445   3.33773
 Alpha virt. eigenvalues --    3.34530   3.34929   3.35224   3.35364   3.35764
 Alpha virt. eigenvalues --    3.36458   3.36542   3.37160   3.37349   3.38043
 Alpha virt. eigenvalues --    3.38191   3.38876   3.39058   3.39300   3.39850
 Alpha virt. eigenvalues --    3.40019   3.40172   3.40790   3.41618   3.41930
 Alpha virt. eigenvalues --    3.42185   3.42603   3.43018   3.43431   3.43640
 Alpha virt. eigenvalues --    3.44175   3.44357   3.44830   3.45141   3.45390
 Alpha virt. eigenvalues --    3.45553   3.46362   3.46877   3.47400   3.47839
 Alpha virt. eigenvalues --    3.48260   3.48308   3.48802   3.49409   3.50174
 Alpha virt. eigenvalues --    3.50683   3.51116   3.51194   3.51524   3.51781
 Alpha virt. eigenvalues --    3.52013   3.52107   3.52413   3.53264   3.53481
 Alpha virt. eigenvalues --    3.54071   3.54494   3.55121   3.55290   3.55817
 Alpha virt. eigenvalues --    3.56322   3.56680   3.56913   3.57763   3.57969
 Alpha virt. eigenvalues --    3.58537   3.58904   3.59375   3.59606   3.59952
 Alpha virt. eigenvalues --    3.60817   3.60879   3.61781   3.62507   3.62577
 Alpha virt. eigenvalues --    3.62857   3.63245   3.63777   3.64306   3.64357
 Alpha virt. eigenvalues --    3.64654   3.65268   3.65517   3.66221   3.66639
 Alpha virt. eigenvalues --    3.67454   3.67620   3.68388   3.68602   3.69207
 Alpha virt. eigenvalues --    3.69382   3.70212   3.70607   3.71189   3.71608
 Alpha virt. eigenvalues --    3.71760   3.72557   3.72708   3.73352   3.74174
 Alpha virt. eigenvalues --    3.74742   3.75193   3.75315   3.75913   3.76985
 Alpha virt. eigenvalues --    3.77155   3.77859   3.78240   3.78675   3.79827
 Alpha virt. eigenvalues --    3.80150   3.80628   3.81489   3.81854   3.82792
 Alpha virt. eigenvalues --    3.83424   3.83735   3.84350   3.84712   3.85172
 Alpha virt. eigenvalues --    3.85458   3.86071   3.86722   3.87482   3.88192
 Alpha virt. eigenvalues --    3.88800   3.89653   3.89894   3.90118   3.91128
 Alpha virt. eigenvalues --    3.91512   3.91556   3.91864   3.92794   3.93398
 Alpha virt. eigenvalues --    3.93882   3.94993   3.95277   3.95466   3.96516
 Alpha virt. eigenvalues --    3.96637   3.97168   3.97855   3.98148   3.98968
 Alpha virt. eigenvalues --    3.99449   3.99854   4.00219   4.00597   4.00917
 Alpha virt. eigenvalues --    4.02064   4.02534   4.03154   4.03425   4.03953
 Alpha virt. eigenvalues --    4.04597   4.04828   4.05753   4.06159   4.06971
 Alpha virt. eigenvalues --    4.07366   4.07822   4.08187   4.08209   4.10258
 Alpha virt. eigenvalues --    4.10571   4.10899   4.11645   4.12063   4.12182
 Alpha virt. eigenvalues --    4.12643   4.13617   4.14142   4.14581   4.15045
 Alpha virt. eigenvalues --    4.15630   4.16589   4.16962   4.17315   4.17829
 Alpha virt. eigenvalues --    4.18316   4.18875   4.19503   4.19716   4.20369
 Alpha virt. eigenvalues --    4.20753   4.20883   4.21556   4.22341   4.23067
 Alpha virt. eigenvalues --    4.23122   4.24308   4.25455   4.25692   4.26305
 Alpha virt. eigenvalues --    4.26770   4.27205   4.27732   4.28505   4.29047
 Alpha virt. eigenvalues --    4.29341   4.30920   4.31208   4.31830   4.32185
 Alpha virt. eigenvalues --    4.33298   4.33439   4.34698   4.34974   4.36152
 Alpha virt. eigenvalues --    4.36774   4.37658   4.38607   4.39573   4.40274
 Alpha virt. eigenvalues --    4.41614   4.42287   4.42788   4.43123   4.43868
 Alpha virt. eigenvalues --    4.45051   4.45431   4.46559   4.47313   4.47499
 Alpha virt. eigenvalues --    4.48282   4.48711   4.49958   4.50412   4.50954
 Alpha virt. eigenvalues --    4.52053   4.52760   4.53363   4.53897   4.54999
 Alpha virt. eigenvalues --    4.55515   4.55834   4.56455   4.57006   4.58924
 Alpha virt. eigenvalues --    4.60193   4.60559   4.61094   4.62641   4.63616
 Alpha virt. eigenvalues --    4.64697   4.64909   4.65710   4.67272   4.67939
 Alpha virt. eigenvalues --    4.68057   4.69729   4.70231   4.70853   4.71819
 Alpha virt. eigenvalues --    4.72588   4.73327   4.74043   4.74730   4.76764
 Alpha virt. eigenvalues --    4.76835   4.78271   4.78576   4.80537   4.81383
 Alpha virt. eigenvalues --    4.82234   4.83494   4.83928   4.84587   4.86216
 Alpha virt. eigenvalues --    4.86331   4.86842   4.87980   4.88652   4.89394
 Alpha virt. eigenvalues --    4.89876   4.91756   4.91983   4.92660   4.94100
 Alpha virt. eigenvalues --    4.94429   4.95280   4.96201   4.97634   4.98209
 Alpha virt. eigenvalues --    4.99277   5.00686   5.01358   5.01533   5.02939
 Alpha virt. eigenvalues --    5.03402   5.05044   5.05777   5.06486   5.08050
 Alpha virt. eigenvalues --    5.08899   5.09004   5.10082   5.11020   5.12400
 Alpha virt. eigenvalues --    5.13327   5.14651   5.14679   5.15291   5.15508
 Alpha virt. eigenvalues --    5.15679   5.16480   5.17650   5.17671   5.17798
 Alpha virt. eigenvalues --    5.19206   5.19929   5.20582   5.21588   5.25475
 Alpha virt. eigenvalues --    5.25966   5.27963   5.28162   5.28862   5.29952
 Alpha virt. eigenvalues --    5.30631   5.31871   5.32263   5.32994   5.33731
 Alpha virt. eigenvalues --    5.35582   5.36301   5.37340   5.38167   5.38783
 Alpha virt. eigenvalues --    5.41866   5.43340   5.43528   5.43982   5.45166
 Alpha virt. eigenvalues --    5.47368   5.48348   5.48705   5.49828   5.51084
 Alpha virt. eigenvalues --    5.52560   5.53140   5.53679   5.57116   5.57524
 Alpha virt. eigenvalues --    5.57974   5.58974   5.61017   5.62324   5.64028
 Alpha virt. eigenvalues --    5.64805   5.66074   5.66959   5.68017   5.68359
 Alpha virt. eigenvalues --    5.69766   5.71194   5.74789   5.76800   5.79123
 Alpha virt. eigenvalues --    5.85781   5.86931   5.88660   5.90945   5.91375
 Alpha virt. eigenvalues --    5.93079   5.94758   5.96458   5.97611   6.00055
 Alpha virt. eigenvalues --    6.01340   6.02847   6.04710   6.06763   6.10642
 Alpha virt. eigenvalues --    6.14041   6.14669   6.16811   6.18389   6.25483
 Alpha virt. eigenvalues --    6.27390   6.28925   6.30233   6.31347   6.33286
 Alpha virt. eigenvalues --    6.35098   6.35202   6.37466   6.39119   6.39683
 Alpha virt. eigenvalues --    6.41035   6.42786   6.43597   6.46988   6.47112
 Alpha virt. eigenvalues --    6.48085   6.49219   6.50670   6.52405   6.60224
 Alpha virt. eigenvalues --    6.61288   6.67199   6.74460   6.75803   6.78651
 Alpha virt. eigenvalues --    6.80568   6.90631   6.91501   6.94496   6.98810
 Alpha virt. eigenvalues --    6.99643   6.99706   7.02367   7.10422   7.11448
 Alpha virt. eigenvalues --    7.11686   7.12431   7.15029   7.22425   7.23579
 Alpha virt. eigenvalues --   22.12471  22.21310  22.31719  22.41141  22.43752
 Alpha virt. eigenvalues --   22.47887  22.52819  22.59487  22.61058  22.63380
 Alpha virt. eigenvalues --   22.66653  22.68861  22.83220  22.84073  22.86502
 Alpha virt. eigenvalues --   22.88471  22.95135  22.97231  22.99570  23.06946
 Alpha virt. eigenvalues --   23.25536  23.27196  23.27759  23.34565  23.36812
 Alpha virt. eigenvalues --   23.44867  23.46669  23.52022  23.64307  23.69475
 Alpha virt. eigenvalues --   23.72815  23.82476  23.83827  23.95926  32.82241
 Alpha virt. eigenvalues --   32.85570  32.93537  32.98454  43.87914  43.89116
 Alpha virt. eigenvalues --   43.90931  43.93055  43.94347  44.15053
  Beta  occ. eigenvalues -- -256.44857 -30.21389 -26.04253 -26.04015 -26.03673
  Beta  occ. eigenvalues --  -19.34858 -19.32937 -19.31682 -19.31248 -19.24845
  Beta  occ. eigenvalues --  -19.23326 -14.50543 -14.49849 -14.48320 -14.47671
  Beta  occ. eigenvalues --  -10.42052 -10.42033 -10.40709 -10.39117 -10.37503
  Beta  occ. eigenvalues --  -10.37127 -10.37102 -10.37075 -10.36740 -10.36470
  Beta  occ. eigenvalues --  -10.36156 -10.36100 -10.35855 -10.35700 -10.35399
  Beta  occ. eigenvalues --  -10.35391 -10.34489 -10.34289 -10.33819 -10.33581
  Beta  occ. eigenvalues --  -10.33116 -10.33079 -10.33010 -10.32794 -10.32748
  Beta  occ. eigenvalues --  -10.32545 -10.32273 -10.31818 -10.31440 -10.31432
  Beta  occ. eigenvalues --  -10.31148 -10.30721 -10.30589 -10.30318  -3.56971
  Beta  occ. eigenvalues --   -2.33875  -2.32218  -2.31805  -1.25536  -1.23945
  Beta  occ. eigenvalues --   -1.18651  -1.16675  -1.13307  -1.12283  -1.11852
  Beta  occ. eigenvalues --   -1.10632  -1.10193  -1.09264  -0.98313  -0.97828
  Beta  occ. eigenvalues --   -0.96083  -0.94668  -0.94007  -0.93363  -0.92764
  Beta  occ. eigenvalues --   -0.91349  -0.90617  -0.89690  -0.88325  -0.87110
  Beta  occ. eigenvalues --   -0.86311  -0.85790  -0.83888  -0.82656  -0.81449
  Beta  occ. eigenvalues --   -0.79334  -0.78598  -0.78469  -0.76889  -0.76523
  Beta  occ. eigenvalues --   -0.75084  -0.74408  -0.74085  -0.71240  -0.70881
  Beta  occ. eigenvalues --   -0.70564  -0.69724  -0.68240  -0.67585  -0.67425
  Beta  occ. eigenvalues --   -0.66387  -0.65037  -0.64955  -0.63792  -0.62083
  Beta  occ. eigenvalues --   -0.61984  -0.61582  -0.60945  -0.60502  -0.59893
  Beta  occ. eigenvalues --   -0.59725  -0.59219  -0.58593  -0.58015  -0.57772
  Beta  occ. eigenvalues --   -0.57422  -0.56927  -0.56718  -0.56556  -0.56184
  Beta  occ. eigenvalues --   -0.55688  -0.55266  -0.54891  -0.54721  -0.54439
  Beta  occ. eigenvalues --   -0.54378  -0.53437  -0.53342  -0.53053  -0.52858
  Beta  occ. eigenvalues --   -0.52508  -0.52173  -0.51951  -0.51680  -0.51452
  Beta  occ. eigenvalues --   -0.50984  -0.50691  -0.50625  -0.50172  -0.49821
  Beta  occ. eigenvalues --   -0.49345  -0.49121  -0.48899  -0.48465  -0.47915
  Beta  occ. eigenvalues --   -0.47827  -0.47612  -0.47201  -0.46589  -0.46201
  Beta  occ. eigenvalues --   -0.46083  -0.45951  -0.44559  -0.44367  -0.43433
  Beta  occ. eigenvalues --   -0.42648  -0.42092  -0.41395  -0.41132  -0.40787
  Beta  occ. eigenvalues --   -0.40364  -0.40028  -0.39231  -0.38985  -0.36632
  Beta  occ. eigenvalues --   -0.35576  -0.35288  -0.34872  -0.34776  -0.34027
  Beta  occ. eigenvalues --   -0.33615  -0.32599  -0.31673  -0.30868  -0.28930
  Beta virt. eigenvalues --   -0.25084  -0.20887  -0.19427  -0.17166  -0.16102
  Beta virt. eigenvalues --   -0.12370  -0.11520  -0.11177  -0.09692  -0.08309
  Beta virt. eigenvalues --   -0.07617  -0.06888  -0.05850  -0.05593  -0.05332
  Beta virt. eigenvalues --   -0.05242  -0.04405  -0.03857  -0.03562  -0.03434
  Beta virt. eigenvalues --   -0.02908  -0.02495  -0.02390  -0.02069  -0.01739
  Beta virt. eigenvalues --   -0.01550  -0.01084  -0.00938  -0.00651  -0.00086
  Beta virt. eigenvalues --    0.00464   0.00939   0.01025   0.01674   0.01998
  Beta virt. eigenvalues --    0.02304   0.02647   0.02846   0.03201   0.03602
  Beta virt. eigenvalues --    0.03905   0.04263   0.04499   0.05010   0.05216
  Beta virt. eigenvalues --    0.05381   0.05626   0.05637   0.06008   0.06214
  Beta virt. eigenvalues --    0.06629   0.06763   0.06990   0.07281   0.07545
  Beta virt. eigenvalues --    0.07789   0.08190   0.08382   0.08755   0.09089
  Beta virt. eigenvalues --    0.09214   0.09417   0.09725   0.09902   0.10005
  Beta virt. eigenvalues --    0.10537   0.10722   0.10974   0.11258   0.11557
  Beta virt. eigenvalues --    0.11604   0.11920   0.11991   0.12446   0.12601
  Beta virt. eigenvalues --    0.12933   0.13001   0.13199   0.13372   0.13625
  Beta virt. eigenvalues --    0.13746   0.13991   0.14024   0.14502   0.14732
  Beta virt. eigenvalues --    0.15052   0.15188   0.15461   0.15677   0.15994
  Beta virt. eigenvalues --    0.16232   0.16501   0.16689   0.16814   0.17153
  Beta virt. eigenvalues --    0.17259   0.17726   0.17840   0.17934   0.18149
  Beta virt. eigenvalues --    0.18366   0.18688   0.19039   0.19350   0.19459
  Beta virt. eigenvalues --    0.19926   0.20157   0.20337   0.20561   0.20943
  Beta virt. eigenvalues --    0.21102   0.21134   0.21563   0.21692   0.21809
  Beta virt. eigenvalues --    0.22004   0.22806   0.22897   0.23038   0.23603
  Beta virt. eigenvalues --    0.23663   0.23900   0.24280   0.24693   0.25157
  Beta virt. eigenvalues --    0.25225   0.25425   0.25635   0.25787   0.26309
  Beta virt. eigenvalues --    0.26326   0.26661   0.26806   0.27156   0.27470
  Beta virt. eigenvalues --    0.27789   0.28076   0.28473   0.28599   0.28696
  Beta virt. eigenvalues --    0.29120   0.29235   0.29395   0.29549   0.29607
  Beta virt. eigenvalues --    0.29768   0.29940   0.30186   0.30489   0.30768
  Beta virt. eigenvalues --    0.30877   0.31327   0.31645   0.31817   0.31930
  Beta virt. eigenvalues --    0.32450   0.32801   0.32936   0.33146   0.33310
  Beta virt. eigenvalues --    0.33826   0.33950   0.34096   0.34458   0.34936
  Beta virt. eigenvalues --    0.35154   0.35243   0.35430   0.35572   0.35902
  Beta virt. eigenvalues --    0.36014   0.36361   0.36678   0.36744   0.36935
  Beta virt. eigenvalues --    0.37093   0.37246   0.37533   0.37802   0.37915
  Beta virt. eigenvalues --    0.38091   0.38337   0.38749   0.38846   0.39303
  Beta virt. eigenvalues --    0.39374   0.39464   0.39895   0.40118   0.40216
  Beta virt. eigenvalues --    0.40423   0.40747   0.40906   0.41166   0.41451
  Beta virt. eigenvalues --    0.41610   0.41782   0.42058   0.42331   0.42541
  Beta virt. eigenvalues --    0.42563   0.42678   0.43214   0.43245   0.43598
  Beta virt. eigenvalues --    0.43761   0.44168   0.44299   0.44535   0.44899
  Beta virt. eigenvalues --    0.45142   0.45440   0.45711   0.46051   0.46205
  Beta virt. eigenvalues --    0.46326   0.46558   0.46921   0.47166   0.47398
  Beta virt. eigenvalues --    0.47664   0.47842   0.48522   0.48756   0.49064
  Beta virt. eigenvalues --    0.49176   0.49504   0.49776   0.49898   0.50132
  Beta virt. eigenvalues --    0.50333   0.50543   0.51049   0.51359   0.51520
  Beta virt. eigenvalues --    0.51818   0.51893   0.52310   0.52468   0.52679
  Beta virt. eigenvalues --    0.53047   0.53253   0.53553   0.53889   0.54010
  Beta virt. eigenvalues --    0.54313   0.54361   0.54731   0.54787   0.54990
  Beta virt. eigenvalues --    0.55618   0.56082   0.56233   0.56392   0.56887
  Beta virt. eigenvalues --    0.56990   0.57135   0.57420   0.57604   0.57889
  Beta virt. eigenvalues --    0.58133   0.58511   0.58614   0.58801   0.59377
  Beta virt. eigenvalues --    0.59546   0.59617   0.59957   0.60540   0.60736
  Beta virt. eigenvalues --    0.61033   0.61252   0.61465   0.61841   0.62295
  Beta virt. eigenvalues --    0.62382   0.62568   0.62773   0.63473   0.63726
  Beta virt. eigenvalues --    0.63995   0.64219   0.64471   0.64843   0.65311
  Beta virt. eigenvalues --    0.65647   0.65844   0.66070   0.66365   0.66938
  Beta virt. eigenvalues --    0.67216   0.67440   0.67935   0.68171   0.68390
  Beta virt. eigenvalues --    0.68580   0.69215   0.69345   0.69978   0.70058
  Beta virt. eigenvalues --    0.70607   0.70827   0.71127   0.71395   0.72005
  Beta virt. eigenvalues --    0.72390   0.72473   0.72866   0.73163   0.73856
  Beta virt. eigenvalues --    0.74169   0.74193   0.74358   0.74711   0.75154
  Beta virt. eigenvalues --    0.75525   0.75638   0.76069   0.76273   0.76553
  Beta virt. eigenvalues --    0.77156   0.77179   0.77721   0.78021   0.78620
  Beta virt. eigenvalues --    0.78930   0.79258   0.79552   0.79970   0.80479
  Beta virt. eigenvalues --    0.80741   0.81202   0.81426   0.81840   0.82200
  Beta virt. eigenvalues --    0.82348   0.82655   0.82797   0.83027   0.83427
  Beta virt. eigenvalues --    0.83635   0.84274   0.84610   0.85058   0.85612
  Beta virt. eigenvalues --    0.85811   0.86175   0.86467   0.86676   0.87130
  Beta virt. eigenvalues --    0.87644   0.87831   0.88318   0.88633   0.88968
  Beta virt. eigenvalues --    0.89367   0.89490   0.89855   0.90266   0.90326
  Beta virt. eigenvalues --    0.90927   0.91318   0.91609   0.91934   0.92272
  Beta virt. eigenvalues --    0.92564   0.92801   0.93038   0.93631   0.93941
  Beta virt. eigenvalues --    0.94520   0.94726   0.95082   0.95414   0.95625
  Beta virt. eigenvalues --    0.95958   0.96532   0.97173   0.97322   0.97478
  Beta virt. eigenvalues --    0.97768   0.98117   0.98608   0.99057   0.99243
  Beta virt. eigenvalues --    0.99680   0.99852   1.00226   1.00736   1.01056
  Beta virt. eigenvalues --    1.01197   1.01397   1.02369   1.02636   1.03192
  Beta virt. eigenvalues --    1.03538   1.04079   1.04310   1.05008   1.05137
  Beta virt. eigenvalues --    1.05491   1.06138   1.06789   1.07067   1.07241
  Beta virt. eigenvalues --    1.07698   1.07881   1.08289   1.08733   1.08842
  Beta virt. eigenvalues --    1.09467   1.10169   1.10524   1.10960   1.11181
  Beta virt. eigenvalues --    1.12242   1.12306   1.12612   1.12802   1.13408
  Beta virt. eigenvalues --    1.13830   1.14007   1.14709   1.15176   1.15632
  Beta virt. eigenvalues --    1.15713   1.16049   1.16378   1.16928   1.17368
  Beta virt. eigenvalues --    1.17607   1.18042   1.18599   1.19428   1.19645
  Beta virt. eigenvalues --    1.19972   1.20492   1.21190   1.21252   1.21663
  Beta virt. eigenvalues --    1.22199   1.22401   1.22585   1.23181   1.23826
  Beta virt. eigenvalues --    1.24375   1.24987   1.25316   1.25829   1.26417
  Beta virt. eigenvalues --    1.26720   1.27127   1.27599   1.27802   1.28223
  Beta virt. eigenvalues --    1.28821   1.29219   1.29850   1.30164   1.30871
  Beta virt. eigenvalues --    1.31496   1.32034   1.32184   1.32448   1.33296
  Beta virt. eigenvalues --    1.33647   1.33901   1.34447   1.35132   1.35342
  Beta virt. eigenvalues --    1.35555   1.35761   1.36222   1.36568   1.36848
  Beta virt. eigenvalues --    1.36932   1.37617   1.38221   1.38500   1.38984
  Beta virt. eigenvalues --    1.39158   1.39279   1.39685   1.40089   1.40345
  Beta virt. eigenvalues --    1.40501   1.40767   1.40975   1.41854   1.41932
  Beta virt. eigenvalues --    1.42846   1.43223   1.43812   1.43959   1.44383
  Beta virt. eigenvalues --    1.44918   1.45147   1.45540   1.45801   1.46026
  Beta virt. eigenvalues --    1.46527   1.47021   1.47225   1.47482   1.47859
  Beta virt. eigenvalues --    1.48123   1.48474   1.48603   1.49422   1.49537
  Beta virt. eigenvalues --    1.49917   1.50154   1.50272   1.50513   1.50729
  Beta virt. eigenvalues --    1.50784   1.51279   1.51508   1.51604   1.52246
  Beta virt. eigenvalues --    1.52389   1.52597   1.53159   1.53242   1.53580
  Beta virt. eigenvalues --    1.53903   1.54818   1.54992   1.55236   1.55878
  Beta virt. eigenvalues --    1.56017   1.56178   1.56363   1.56818   1.57196
  Beta virt. eigenvalues --    1.57466   1.58035   1.58651   1.58986   1.59193
  Beta virt. eigenvalues --    1.59713   1.59825   1.60017   1.60573   1.61298
  Beta virt. eigenvalues --    1.61325   1.61549   1.62171   1.62506   1.62811
  Beta virt. eigenvalues --    1.63084   1.63415   1.63618   1.63821   1.64443
  Beta virt. eigenvalues --    1.64719   1.65293   1.65542   1.66151   1.66717
  Beta virt. eigenvalues --    1.67003   1.67704   1.68170   1.68192   1.68940
  Beta virt. eigenvalues --    1.69100   1.69168   1.69526   1.69746   1.70476
  Beta virt. eigenvalues --    1.70829   1.71293   1.71352   1.72208   1.72376
  Beta virt. eigenvalues --    1.72815   1.72918   1.73103   1.73542   1.73984
  Beta virt. eigenvalues --    1.74851   1.75517   1.76047   1.76133   1.76802
  Beta virt. eigenvalues --    1.77400   1.77725   1.78164   1.78756   1.78935
  Beta virt. eigenvalues --    1.79214   1.79879   1.80175   1.80776   1.80903
  Beta virt. eigenvalues --    1.81625   1.81768   1.82238   1.82636   1.82641
  Beta virt. eigenvalues --    1.83150   1.83658   1.84014   1.84378   1.84777
  Beta virt. eigenvalues --    1.85296   1.85669   1.86373   1.86472   1.86540
  Beta virt. eigenvalues --    1.86908   1.87170   1.87559   1.87810   1.87967
  Beta virt. eigenvalues --    1.88821   1.89208   1.89445   1.89853   1.90673
  Beta virt. eigenvalues --    1.90884   1.91148   1.91733   1.92104   1.92972
  Beta virt. eigenvalues --    1.93131   1.93893   1.94136   1.94462   1.94565
  Beta virt. eigenvalues --    1.95197   1.95765   1.96238   1.96553   1.97172
  Beta virt. eigenvalues --    1.97391   1.98168   1.98403   1.99340   1.99853
  Beta virt. eigenvalues --    1.99975   2.00259   2.00719   2.01065   2.01723
  Beta virt. eigenvalues --    2.01898   2.02253   2.02542   2.03373   2.03697
  Beta virt. eigenvalues --    2.03742   2.04513   2.04811   2.05538   2.05988
  Beta virt. eigenvalues --    2.06036   2.06618   2.07004   2.07732   2.07832
  Beta virt. eigenvalues --    2.08308   2.08806   2.09259   2.09665   2.09954
  Beta virt. eigenvalues --    2.10653   2.11054   2.11476   2.11896   2.12214
  Beta virt. eigenvalues --    2.12477   2.13030   2.13382   2.13772   2.14181
  Beta virt. eigenvalues --    2.14866   2.15551   2.15920   2.16094   2.16616
  Beta virt. eigenvalues --    2.17122   2.17254   2.17772   2.18613   2.18749
  Beta virt. eigenvalues --    2.19683   2.20076   2.20808   2.20924   2.21110
  Beta virt. eigenvalues --    2.21531   2.22298   2.22778   2.23348   2.23963
  Beta virt. eigenvalues --    2.24107   2.25040   2.25366   2.25708   2.25863
  Beta virt. eigenvalues --    2.26449   2.26824   2.27370   2.27846   2.28382
  Beta virt. eigenvalues --    2.28616   2.28917   2.29125   2.29810   2.29976
  Beta virt. eigenvalues --    2.30348   2.30543   2.30875   2.31779   2.32214
  Beta virt. eigenvalues --    2.32552   2.32771   2.33130   2.33649   2.34099
  Beta virt. eigenvalues --    2.34158   2.34736   2.35345   2.35691   2.36265
  Beta virt. eigenvalues --    2.36536   2.37554   2.37915   2.38466   2.38656
  Beta virt. eigenvalues --    2.39641   2.40305   2.40383   2.40813   2.41456
  Beta virt. eigenvalues --    2.41510   2.41622   2.42060   2.42375   2.43377
  Beta virt. eigenvalues --    2.43779   2.44070   2.44686   2.44864   2.45093
  Beta virt. eigenvalues --    2.46010   2.46537   2.46854   2.47063   2.47244
  Beta virt. eigenvalues --    2.47530   2.48199   2.48252   2.48564   2.48783
  Beta virt. eigenvalues --    2.49162   2.49562   2.50053   2.50188   2.50564
  Beta virt. eigenvalues --    2.50793   2.51471   2.51478   2.51844   2.52298
  Beta virt. eigenvalues --    2.52849   2.53394   2.53415   2.53898   2.54293
  Beta virt. eigenvalues --    2.54751   2.54990   2.55127   2.55295   2.55758
  Beta virt. eigenvalues --    2.56655   2.56889   2.57508   2.57793   2.58196
  Beta virt. eigenvalues --    2.58506   2.58733   2.59274   2.59421   2.59720
  Beta virt. eigenvalues --    2.60311   2.60951   2.61379   2.61812   2.61880
  Beta virt. eigenvalues --    2.62499   2.62920   2.63558   2.63898   2.64339
  Beta virt. eigenvalues --    2.64727   2.65009   2.65319   2.65699   2.65832
  Beta virt. eigenvalues --    2.66261   2.66854   2.67236   2.67472   2.67766
  Beta virt. eigenvalues --    2.67804   2.68454   2.69078   2.69475   2.69844
  Beta virt. eigenvalues --    2.70231   2.70480   2.71188   2.71337   2.71582
  Beta virt. eigenvalues --    2.71860   2.72303   2.72796   2.73006   2.73387
  Beta virt. eigenvalues --    2.73918   2.74328   2.74723   2.75211   2.75488
  Beta virt. eigenvalues --    2.75880   2.76482   2.76622   2.76917   2.77445
  Beta virt. eigenvalues --    2.77574   2.78016   2.78274   2.78644   2.79409
  Beta virt. eigenvalues --    2.79648   2.80056   2.80603   2.80857   2.81165
  Beta virt. eigenvalues --    2.81673   2.81984   2.82126   2.82722   2.82840
  Beta virt. eigenvalues --    2.83133   2.83887   2.84657   2.84804   2.85147
  Beta virt. eigenvalues --    2.85712   2.85810   2.86158   2.86270   2.87054
  Beta virt. eigenvalues --    2.87476   2.87769   2.88026   2.88149   2.88544
  Beta virt. eigenvalues --    2.88719   2.89173   2.89348   2.89796   2.89965
  Beta virt. eigenvalues --    2.90313   2.91138   2.91256   2.91521   2.92106
  Beta virt. eigenvalues --    2.92537   2.92960   2.93130   2.93556   2.94624
  Beta virt. eigenvalues --    2.94693   2.95118   2.95343   2.95879   2.96341
  Beta virt. eigenvalues --    2.96749   2.97126   2.97525   2.97865   2.98173
  Beta virt. eigenvalues --    2.98597   2.99224   2.99671   2.99853   3.00033
  Beta virt. eigenvalues --    3.00270   3.00811   3.01241   3.01538   3.02043
  Beta virt. eigenvalues --    3.02260   3.02348   3.02679   3.03280   3.03535
  Beta virt. eigenvalues --    3.03852   3.04004   3.04255   3.04331   3.04494
  Beta virt. eigenvalues --    3.05116   3.05232   3.05538   3.06026   3.06275
  Beta virt. eigenvalues --    3.06859   3.07266   3.07346   3.08112   3.08308
  Beta virt. eigenvalues --    3.08536   3.09020   3.09274   3.09346   3.10001
  Beta virt. eigenvalues --    3.10230   3.10580   3.11004   3.11418   3.11939
  Beta virt. eigenvalues --    3.12239   3.12637   3.12870   3.13493   3.13566
  Beta virt. eigenvalues --    3.13910   3.14359   3.14644   3.14850   3.15099
  Beta virt. eigenvalues --    3.15390   3.15600   3.16193   3.16279   3.16578
  Beta virt. eigenvalues --    3.17102   3.17376   3.17570   3.17980   3.18199
  Beta virt. eigenvalues --    3.18468   3.18791   3.19159   3.19180   3.19798
  Beta virt. eigenvalues --    3.19919   3.20175   3.20427   3.20649   3.20763
  Beta virt. eigenvalues --    3.21657   3.21771   3.22028   3.22232   3.22344
  Beta virt. eigenvalues --    3.22645   3.22862   3.23069   3.23531   3.24141
  Beta virt. eigenvalues --    3.24257   3.24362   3.24896   3.25330   3.25564
  Beta virt. eigenvalues --    3.25716   3.25856   3.26404   3.26760   3.27112
  Beta virt. eigenvalues --    3.27596   3.27766   3.27953   3.28162   3.28511
  Beta virt. eigenvalues --    3.28745   3.29024   3.29254   3.29793   3.29926
  Beta virt. eigenvalues --    3.30612   3.30731   3.31074   3.31242   3.31825
  Beta virt. eigenvalues --    3.32219   3.32497   3.32818   3.33320   3.33631
  Beta virt. eigenvalues --    3.34069   3.34686   3.34998   3.35299   3.35509
  Beta virt. eigenvalues --    3.35915   3.36595   3.36639   3.37347   3.37549
  Beta virt. eigenvalues --    3.38185   3.38406   3.38917   3.39289   3.39500
  Beta virt. eigenvalues --    3.39915   3.40101   3.40257   3.40994   3.41662
  Beta virt. eigenvalues --    3.41932   3.42196   3.42602   3.43125   3.43562
  Beta virt. eigenvalues --    3.43698   3.44388   3.44685   3.45019   3.45264
[...]
    17 C(13)  Bbb    -0.0135    -1.818    -0.649    -0.606  0.4467  0.5969  0.6664
              Bcc     0.0410     5.506     1.965     1.836  0.7304  0.1869 -0.6570
 
              Baa    -0.0289    -3.881    -1.385    -1.295  0.7367 -0.6762  0.0061
    18 C(13)  Bbb    -0.0188    -2.525    -0.901    -0.842  0.6690  0.7301  0.1395
              Bcc     0.0477     6.407     2.286     2.137 -0.0987 -0.0987  0.9902
 
              Baa    -0.0078    -1.052    -0.375    -0.351 -0.1044 -0.1617  0.9813
    19 C(13)  Bbb    -0.0064    -0.858    -0.306    -0.286  0.1169  0.9779  0.1735
              Bcc     0.0142     1.910     0.681     0.637  0.9876 -0.1328  0.0832
 
              Baa    -0.1276   -17.127    -6.111    -5.713  0.0012 -0.2185  0.9758
    20 C(13)  Bbb     0.0006     0.076     0.027     0.026  0.9728 -0.2257 -0.0517
              Bcc     0.1271    17.051     6.084     5.688  0.2316  0.9494  0.2123
 
              Baa    -0.5285   -70.918   -25.305   -23.656  0.8341  0.5199  0.1844
    21 C(13)  Bbb    -0.4680   -62.807   -22.411   -20.950 -0.3045  0.1552  0.9398
              Bcc     0.9965   133.725    47.716    44.606 -0.4600  0.8400 -0.2877
 
              Baa    -0.0412    -5.523    -1.971    -1.842 -0.5499  0.7944  0.2581
    22 C(13)  Bbb    -0.0314    -4.214    -1.504    -1.406  0.8254  0.5640  0.0227
              Bcc     0.0726     9.737     3.475     3.248  0.1275 -0.2255  0.9659
 
              Baa    -0.3492   -46.855   -16.719   -15.629  0.0286 -0.1487  0.9885
    23 C(13)  Bbb     0.1737    23.304     8.316     7.774 -0.6556  0.7437  0.1308
              Bcc     0.1755    23.551     8.404     7.856  0.7546  0.6518  0.0762
 
              Baa    -0.1002   -13.448    -4.799    -4.486  0.8618  0.4924 -0.1220
    24 C(13)  Bbb    -0.0578    -7.762    -2.770    -2.589 -0.4934  0.8695  0.0234
              Bcc     0.1581    21.210     7.568     7.075  0.1176  0.0400  0.9923
 
              Baa    -0.0109    -1.466    -0.523    -0.489  0.2229 -0.2148  0.9509
    25 C(13)  Bbb     0.0021     0.288     0.103     0.096  0.6228  0.7818  0.0306
              Bcc     0.0088     1.178     0.420     0.393  0.7499 -0.5854 -0.3081
 
              Baa    -0.0933   -12.520    -4.467    -4.176 -0.3044 -0.5124  0.8030
    26 C(13)  Bbb     0.0365     4.904     1.750     1.636  0.9506 -0.2175  0.2215
              Bcc     0.0568     7.616     2.718     2.540  0.0612  0.8307  0.5533
 
              Baa    -0.5380   -72.189   -25.759   -24.080  0.0282 -0.1038  0.9942
    27 C(13)  Bbb     0.2440    32.746    11.685    10.923  0.9129  0.4078  0.0167
              Bcc     0.2939    39.443    14.074    13.157 -0.4072  0.9071  0.1063
 
              Baa    -0.3997   -53.634   -19.138   -17.890 -0.2779  0.4534  0.8469
    28 C(13)  Bbb    -0.3885   -52.135   -18.603   -17.391  0.9101 -0.1579  0.3832
              Bcc     0.7882   105.770    37.741    35.281  0.3074  0.8772 -0.3688
 
              Baa    -0.0071    -0.958    -0.342    -0.320  0.7630  0.6460 -0.0233
    29 C(13)  Bbb    -0.0053    -0.713    -0.255    -0.238 -0.6289  0.7501  0.2045
              Bcc     0.0125     1.672     0.597     0.558  0.1496 -0.1414  0.9786
 
              Baa    -0.0134    -1.804    -0.644    -0.602  0.3541  0.1459  0.9237
    30 C(13)  Bbb     0.0063     0.848     0.303     0.283  0.4313  0.8509 -0.2998
              Bcc     0.0071     0.955     0.341     0.319  0.8298 -0.5046 -0.2384
 
              Baa    -0.0089    -1.189    -0.424    -0.396  0.8522  0.4934 -0.1741
    31 C(13)  Bbb    -0.0083    -1.118    -0.399    -0.373 -0.4891  0.8694  0.0701
              Bcc     0.0172     2.307     0.823     0.770  0.1859  0.0254  0.9822
 
              Baa    -0.0147    -1.977    -0.705    -0.659  0.4286  0.0362  0.9028
    32 C(13)  Bbb     0.0060     0.809     0.289     0.270  0.9009  0.0587 -0.4300
              Bcc     0.0087     1.168     0.417     0.390 -0.0685  0.9976 -0.0075
 
              Baa    -0.0005    -0.064    -0.023    -0.021  0.4672  0.3971  0.7900
    33 C(13)  Bbb    -0.0001    -0.008    -0.003    -0.003 -0.5970 -0.5174  0.6131
              Bcc     0.0005     0.073     0.026     0.024 -0.6522  0.7580  0.0047
 
              Baa    -0.0004    -0.053    -0.019    -0.018  0.9638 -0.1046 -0.2453
    34 C(13)  Bbb     0.0000     0.003     0.001     0.001  0.2423  0.7280  0.6413
              Bcc     0.0004     0.051     0.018     0.017  0.1115 -0.6775  0.7270
 
              Baa    -0.0007    -0.088    -0.031    -0.029 -0.4310  0.4479  0.7834
    35 C(13)  Bbb    -0.0004    -0.052    -0.019    -0.017  0.6121  0.7830 -0.1109
              Bcc     0.0010     0.140     0.050     0.047  0.6630 -0.4317  0.6116
 
              Baa    -0.0001    -0.014    -0.005    -0.005 -0.3715  0.5555  0.7439
    36 C(13)  Bbb    -0.0001    -0.012    -0.004    -0.004 -0.3160  0.6778 -0.6639
              Bcc     0.0002     0.025     0.009     0.008  0.8730  0.4817  0.0763
 
              Baa    -0.0003     0.025     0.009     0.008 -0.3693  0.5524  0.7473
    37 O(17)  Bbb    -0.0002     0.017     0.006     0.006 -0.3113  0.6841 -0.6595
              Bcc     0.0006    -0.042    -0.015    -0.014  0.8756  0.4762  0.0807
 
              Baa    -0.0001     0.005     0.002     0.002 -0.0256  0.1315  0.9910
    38 O(17)  Bbb    -0.0000     0.003     0.001     0.001 -0.5964  0.7935 -0.1207
              Bcc     0.0001    -0.008    -0.003    -0.003  0.8023  0.5941 -0.0581
 
              Baa    -0.0248    -0.956    -0.341    -0.319  0.9421 -0.3352 -0.0135
    39 N(14)  Bbb    -0.0198    -0.764    -0.272    -0.255  0.3341  0.9412 -0.0501
              Bcc     0.0446     1.720     0.614     0.574  0.0295  0.0427  0.9987
 
              Baa    -0.1561    -6.019    -2.148    -2.008  0.0196  0.1015  0.9946
    40 N(14)  Bbb     0.0742     2.862     1.021     0.955  0.7517 -0.6574  0.0523
              Bcc     0.0818     3.157     1.126     1.053  0.6592  0.7466 -0.0892
 
              Baa    -0.1245    -4.800    -1.713    -1.601  0.0403 -0.1718  0.9843
    41 N(14)  Bbb     0.0553     2.133     0.761     0.712  0.9482  0.3174  0.0166
              Bcc     0.0691     2.666     0.951     0.889 -0.3153  0.9326  0.1757
 
              Baa    -0.0141    -0.545    -0.194    -0.182  0.7658  0.5642 -0.3087
    42 N(14)  Bbb    -0.0040    -0.156    -0.056    -0.052 -0.6133  0.7851 -0.0864
              Bcc     0.0182     0.701     0.250     0.234  0.1936  0.2555  0.9472
 
              Baa    -1.1637   -20.147    -7.189    -6.720  0.1382  0.8734 -0.4669
    43 Fe(57) Bbb     0.4512     7.811     2.787     2.606 -0.5451  0.4607  0.7005
              Bcc     0.7125    12.336     4.402     4.115  0.8269  0.1577  0.5398
 
              Baa    -0.0783     5.669     2.023     1.891  0.5666  0.4959  0.6581
    44 O(17)  Bbb    -0.0109     0.785     0.280     0.262  0.8200 -0.2601 -0.5099
              Bcc     0.0892    -6.454    -2.303    -2.153 -0.0816  0.8285 -0.5540
 
              Baa    -0.1954    14.137     5.044     4.716  0.1508  0.2797  0.9482
    45 O(17)  Bbb     0.0451    -3.266    -1.165    -1.089  0.9885 -0.0359 -0.1467
              Bcc     0.1502   -10.871    -3.879    -3.626 -0.0070  0.9594 -0.2819
 
              Baa    -0.0032    -1.711    -0.611    -0.571 -0.0679  0.9975  0.0210
    46 H(1)   Bbb     0.0002     0.108     0.038     0.036  0.2901 -0.0004  0.9570
              Bcc     0.0030     1.603     0.572     0.535  0.9546  0.0711 -0.2894
 
              Baa    -0.0013    -0.689    -0.246    -0.230  0.9040 -0.2272 -0.3622
    47 H(1)   Bbb    -0.0003    -0.163    -0.058    -0.055  0.3931  0.1085  0.9131
              Bcc     0.0016     0.853     0.304     0.284  0.1682  0.9678 -0.1874
 
              Baa    -0.0080    -4.291    -1.531    -1.431  0.9487 -0.1608 -0.2721
    48 H(1)   Bbb    -0.0027    -1.428    -0.509    -0.476  0.2691 -0.0407  0.9623
              Bcc     0.0107     5.719     2.041     1.908  0.1658  0.9861 -0.0046
 
              Baa    -0.0030    -1.617    -0.577    -0.539  0.8952  0.4094 -0.1759
    49 H(1)   Bbb    -0.0003    -0.182    -0.065    -0.061  0.3010 -0.2647  0.9162
              Bcc     0.0034     1.799     0.642     0.600 -0.3285  0.8731  0.3602
 
              Baa    -0.0004    -0.196    -0.070    -0.065 -0.0255  0.1087  0.9937
    50 H(1)   Bbb    -0.0003    -0.173    -0.062    -0.058  0.3156  0.9441 -0.0951
              Bcc     0.0007     0.369     0.132     0.123  0.9486 -0.3112  0.0584
 
              Baa    -0.0003    -0.144    -0.052    -0.048  0.1195 -0.2963  0.9476
    51 H(1)   Bbb    -0.0002    -0.101    -0.036    -0.034  0.1807  0.9450  0.2727
              Bcc     0.0005     0.245     0.088     0.082  0.9762 -0.1386 -0.1665
 
              Baa    -0.0002    -0.100    -0.036    -0.033 -0.0596  0.0416  0.9974
    52 H(1)   Bbb    -0.0001    -0.075    -0.027    -0.025  0.0518  0.9979 -0.0385
              Bcc     0.0003     0.175     0.062     0.058  0.9969 -0.0493  0.0617
 
              Baa    -0.0003    -0.169    -0.060    -0.056  0.3516  0.7270 -0.5897
    53 H(1)   Bbb    -0.0002    -0.125    -0.045    -0.042  0.4311  0.4334  0.7914
              Bcc     0.0006     0.294     0.105     0.098  0.8310 -0.5325 -0.1610
 
              Baa    -0.0001    -0.078    -0.028    -0.026  0.0794 -0.0745  0.9941
    54 H(1)   Bbb     0.0000     0.001     0.000     0.000  0.2576  0.9649  0.0518
              Bcc     0.0001     0.077     0.027     0.026  0.9630 -0.2519 -0.0958
 
              Baa    -0.0001    -0.067    -0.024    -0.022 -0.1435  0.2418  0.9597
    55 H(1)   Bbb    -0.0000    -0.012    -0.004    -0.004  0.1333  0.9656 -0.2233
              Bcc     0.0001     0.079     0.028     0.027  0.9806 -0.0959  0.1708
 
              Baa    -0.0002    -0.115    -0.041    -0.038 -0.2419  0.4278  0.8709
    56 H(1)   Bbb    -0.0001    -0.033    -0.012    -0.011  0.5775  0.7848 -0.2251
              Bcc     0.0003     0.148     0.053     0.049  0.7798 -0.4484  0.4369
 
              Baa    -0.0072    -3.848    -1.373    -1.284  0.4059  0.8892  0.2110
    57 H(1)   Bbb    -0.0048    -2.552    -0.910    -0.851 -0.3441 -0.0652  0.9367
              Bcc     0.0120     6.400     2.284     2.135  0.8467 -0.4528  0.2795
 
              Baa    -0.0063    -3.370    -1.202    -1.124  0.4041  0.9145 -0.0219
    58 H(1)   Bbb    -0.0039    -2.106    -0.752    -0.703  0.3362 -0.1262  0.9333
              Bcc     0.0103     5.476     1.954     1.827  0.8507 -0.3845 -0.3584
 
              Baa    -0.0022    -1.194    -0.426    -0.398  0.2559  0.9365  0.2399
    59 H(1)   Bbb    -0.0020    -1.041    -0.371    -0.347 -0.0678 -0.2301  0.9708
              Bcc     0.0042     2.235     0.798     0.746  0.9643 -0.2647  0.0046
 
              Baa    -0.0125    -6.678    -2.383    -2.228 -0.2433  0.1402  0.9598
    60 H(1)   Bbb    -0.0000    -0.006    -0.002    -0.002  0.9700  0.0365  0.2406
              Bcc     0.0125     6.684     2.385     2.230 -0.0013  0.9895 -0.1449
 
              Baa    -0.0628   -33.489   -11.950   -11.171 -0.4461  0.0621  0.8928
    61 H(1)   Bbb    -0.0120    -6.423    -2.292    -2.142 -0.2478  0.9500 -0.1899
              Bcc     0.0748    39.912    14.242    13.313  0.8600  0.3060  0.4084
 
              Baa    -0.0721   -38.487   -13.733   -12.838  0.7844  0.5523  0.2823
    62 H(1)   Bbb    -0.0130    -6.927    -2.472    -2.311 -0.6153  0.7501  0.2423
              Bcc     0.0851    45.415    16.205    15.149 -0.0779 -0.3637  0.9282
 
              Baa    -0.0107    -5.730    -2.045    -1.911  0.8158 -0.5442 -0.1957
    63 H(1)   Bbb    -0.0008    -0.413    -0.147    -0.138  0.0282 -0.3006  0.9533
              Bcc     0.0115     6.143     2.192     2.049  0.5777  0.7832  0.2299
 
              Baa    -0.0090    -4.786    -1.708    -1.596  0.9055 -0.2219 -0.3617
    64 H(1)   Bbb    -0.0006    -0.333    -0.119    -0.111  0.3961  0.7479  0.5327
              Bcc     0.0096     5.119     1.827     1.708  0.1523 -0.6257  0.7651
 
              Baa    -0.0068    -3.640    -1.299    -1.214  0.9120 -0.2504  0.3250
    65 H(1)   Bbb    -0.0047    -2.522    -0.900    -0.841 -0.2441  0.3053  0.9204
              Bcc     0.0115     6.162     2.199     2.055  0.3297  0.9187 -0.2173
 
              Baa    -0.0312   -16.624    -5.932    -5.545  0.7789  0.5668 -0.2685
    66 H(1)   Bbb    -0.0082    -4.368    -1.558    -1.457  0.2725  0.0797  0.9588
              Bcc     0.0393    20.991     7.490     7.002 -0.5649  0.8200  0.0924
 
              Baa    -0.0499   -26.602    -9.492    -8.874  0.9254 -0.3354  0.1765
    67 H(1)   Bbb    -0.0017    -0.931    -0.332    -0.310  0.3424  0.9395 -0.0100
              Bcc     0.0516    27.533     9.824     9.184 -0.1624  0.0697  0.9843
 
              Baa    -0.0494   -26.340    -9.399    -8.786  0.6534 -0.5086 -0.5607
    68 H(1)   Bbb    -0.0024    -1.307    -0.466    -0.436  0.0257  0.7551 -0.6551
              Bcc     0.0518    27.646     9.865     9.222  0.7565  0.4137  0.5065
 
              Baa    -0.0001    -0.079    -0.028    -0.026  0.8068  0.5574  0.1960
    69 H(1)   Bbb    -0.0001    -0.045    -0.016    -0.015 -0.0993 -0.1991  0.9749
              Bcc     0.0002     0.124     0.044     0.041 -0.5825  0.8060  0.1052
 
              Baa    -0.0002    -0.125    -0.045    -0.042 -0.4551 -0.6264  0.6328
    70 H(1)   Bbb    -0.0001    -0.041    -0.015    -0.014  0.5361  0.3747  0.7564
              Bcc     0.0003     0.166     0.059     0.055  0.7110 -0.6835 -0.1653
 
              Baa    -0.0003    -0.172    -0.061    -0.057  0.6285  0.7776  0.0172
    71 H(1)   Bbb    -0.0001    -0.078    -0.028    -0.026  0.0657 -0.0752  0.9950
              Bcc     0.0005     0.250     0.089     0.083  0.7751 -0.6242 -0.0983
 
              Baa    -0.0001    -0.076    -0.027    -0.025  0.6911 -0.3444  0.6355
    72 H(1)   Bbb    -0.0001    -0.052    -0.018    -0.017 -0.4322  0.5078  0.7452
              Bcc     0.0002     0.127     0.045     0.042  0.5793  0.7896 -0.2021
 
              Baa    -0.0002    -0.128    -0.046    -0.043  0.4207  0.0797  0.9037
    73 H(1)   Bbb    -0.0001    -0.045    -0.016    -0.015 -0.6340  0.7383  0.2301
              Bcc     0.0003     0.173     0.062     0.058  0.6488  0.6697 -0.3612
 
              Baa    -0.0003    -0.162    -0.058    -0.054 -0.3348  0.1684  0.9271
    74 H(1)   Bbb    -0.0001    -0.070    -0.025    -0.023 -0.5498  0.7641 -0.3374
              Bcc     0.0004     0.233     0.083     0.078  0.7653  0.6227  0.1632
 
              Baa    -0.0001    -0.072    -0.026    -0.024  0.0667 -0.7016  0.7094
    75 H(1)   Bbb    -0.0001    -0.042    -0.015    -0.014  0.8124 -0.3745 -0.4469
              Bcc     0.0002     0.114     0.041     0.038  0.5793  0.6062  0.5450
 
              Baa    -0.0022    -1.152    -0.411    -0.384  0.8822  0.1075  0.4584
    76 H(1)   Bbb     0.0009     0.500     0.179     0.167 -0.3447 -0.5155  0.7845
              Bcc     0.0012     0.652     0.233     0.217 -0.3206  0.8501  0.4177
 
              Baa    -0.0015    -0.826    -0.295    -0.276 -0.0721  0.7032  0.7073
    77 H(1)   Bbb    -0.0012    -0.659    -0.235    -0.220  0.0429  0.7107 -0.7022
              Bcc     0.0028     1.486     0.530     0.496  0.9965  0.0202  0.0814
 
              Baa    -0.0154    -8.213    -2.931    -2.740  0.2296  0.0802  0.9700
    78 H(1)   Bbb    -0.0038    -2.044    -0.729    -0.682  0.9324 -0.3040 -0.1956
              Bcc     0.0192    10.258     3.660     3.422  0.2792  0.9493 -0.1446
 
              Baa    -0.0065    -3.443    -1.229    -1.148  0.8116  0.2517 -0.5273
    79 H(1)   Bbb     0.0012     0.653     0.233     0.218  0.2703  0.6383  0.7208
              Bcc     0.0052     2.789     0.995     0.930 -0.5180  0.7275 -0.4500
 
              Baa    -0.0001    -0.029    -0.011    -0.010  0.1133 -0.0001  0.9936
    80 H(1)   Bbb    -0.0000    -0.014    -0.005    -0.005 -0.4488  0.8922  0.0513
              Bcc     0.0001     0.043     0.015     0.014  0.8864  0.4517 -0.1011
 
              Baa    -0.0001    -0.039    -0.014    -0.013 -0.2716  0.3513  0.8960
    81 H(1)   Bbb    -0.0000    -0.023    -0.008    -0.008  0.1355  0.9357 -0.3258
              Bcc     0.0001     0.062     0.022     0.021  0.9528 -0.0330  0.3018
 

 ---------------------------------------------------------------------------------

 1\1\GINC-NODE634\SP\UPBE1PBE\def2TZVP\C34H36Fe1N4O6(1+,2)\KLEICH\18-Se
 p-2022\0\\# PBE1PBE/def2TZVP empiricaldispersion=GD3BJ int=(grid=ultra
 fine) geom=check guess=read scrf=(smd,solvent=Chloroform)\\1cce_III_D_
 solv\\1,2\C,0,-5.48,53.62,113.148\C,0,-7.571,57.663,114.65\C,0,-6.212,
 59.774,110.58\C,0,-3.759,55.864,109.383\C,0,-6.201,54.529,113.94\C,0,-
 6.717,54.212,115.182\C,0,-7.392,55.377,115.614\C,0,-7.138,56.332,114.6
 31\C,0,-8.283,55.562,116.835\C,0,-6.584,52.826,115.8\C,0,-5.521,52.715
 ,116.871\C,0,-5.378,51.363,117.57\O,0,-6.217,50.989,118.381\O,0,-4.403
 ,50.646,117.362\C,0,-7.47,58.618,113.624\C,0,-8.124,59.862,113.625\C,0
 ,-7.763,60.457,112.409\C,0,-6.911,59.538,111.776\C,0,-9.109,60.337,114
 .701\C,0,-8.111,61.69,111.839\C,0,-8.971,62.736,112.366\C,0,-5.303,58.
 954,109.91\C,0,-4.54,59.325,108.805\C,0,-3.794,58.17,108.484\C,0,-4.19
 6,57.199,109.399\C,0,-4.519,60.709,108.176\C,0,-2.842,57.879,107.491\C
 ,0,-2.374,58.685,106.381\C,0,-3.977,54.842,110.284\C,0,-3.64,53.509,11
 0.086\C,0,-4.164,52.855,111.174\C,0,-4.755,53.841,111.963\C,0,-2.888,5
 2.827,108.948\C,0,-4.093,51.352,111.4\C,0,-3.176,51.046,112.555\C,0,-2
 .982,49.599,112.903\O,0,-2.36,49.336,113.93\O,0,-3.445,48.727,112.182\
 N,0,-6.448,55.803,113.62\N,0,-6.816,58.405,112.482\N,0,-5.033,57.698,1
 10.293\N,0,-4.582,55.057,111.445\Fe,0,-5.719,56.734,111.941\O,0,-4.284
 ,57.394,113.195\O,0,-7.101,55.961,110.708\H,0,-5.48270944,52.60896755,
 113.49829422\H,0,-8.03524361,57.99339133,115.55565967\H,0,-6.40448998,
 60.71877956,110.11606123\H,0,-3.16139901,55.59694099,108.5365648\H,0,-
 8.36891296,56.60472598,117.05914613\H,0,-9.2535454,55.15955328,116.632
 5691\H,0,-7.85260181,55.05171079,117.67121906\H,0,-6.26267678,52.18481
 752,115.00593676\H,0,-7.51406047,52.63955831,116.29510304\H,0,-5.82540
 006,53.39559646,117.63848228\H,0,-4.59286539,52.86505729,116.36016837\
 H,0,-8.77788362,61.27326601,115.09933139\H,0,-10.07993397,60.45711609,
 114.26768792\H,0,-9.15617378,59.61190816,115.48644029\H,0,-7.68211721,
 61.88898932,110.87912355\H,0,-9.61039298,63.44231863,111.87897781\H,0,
 -9.71396272,62.06975701,111.97996027\H,0,-4.33953601,61.02979666,107.1
 7112082\H,0,-3.48301127,60.45600158,108.08871229\H,0,-5.390304,60.3087
 7178,107.70108241\H,0,-2.39264453,56.91087831,107.56663101\H,0,-1.5328
 8319,59.26802394,106.69325886\H,0,-3.15887185,59.3361707,106.05719003\
 H,0,-2.17243963,52.14237926,109.35317626\H,0,-3.58132302,52.29459616,1
 08.33095109\H,0,-2.3826099,53.56551138,108.36141514\H,0,-3.63788041,50
 .93188344,110.52749313\H,0,-5.07286653,51.03970224,111.69535012\H,0,-3
 .65009218,51.4786957,113.41110223\H,0,-2.21158769,51.39132073,112.2458
 6815\H,0,-3.53292348,57.99189971,113.195\H,0,-3.97065359,56.48657836,1
 13.195\H,0,-6.34992348,56.55889971,110.708\H,0,-6.78765359,55.05357836
 ,110.708\H,0,-2.85733077,48.14197171,111.69827821\H,0,-3.51645184,50.9
 9970047,117.46460767\\Version=ES64L-G16RevA.03\State=2-A\HF=-3249.1158
 418\S2=1.795966\S2-1=0.\S2A=1.637795\RMSD=2.637e-09\Dipole=-0.7402133,
 6.5793246,-3.4120709\Quadrupole=-2.9288952,31.1882492,-28.259354,-53.4
 607116,-8.519049,24.0453023\PG=C01 [X(C34H36Fe1N4O6)]\\@


 Where a calculator on the ENIAC is equipped with 18,000
 vacuum tubes and weighs 30 tons, computers inthe future
 may  have only 1,000 vacuum tubes and weigh only 1 1/2 tons.
              ---Popular Mechanics, March 1949
 Job cpu time:       1 days 22 hours 51 minutes  7.8 seconds.
 Elapsed time:       0 days 11 hours 45 minutes 51.1 seconds.
 File lengths (MBytes):  RWF=   3010 Int=      0 D2E=      0 Chk=    213 Scr=      1
 Normal termination of Gaussian 16 at Sun Sep 18 01:05:10 2022.
