 Entering Gaussian System, Link 0=g16
 Input=/work/kleich/bench/splitthejobs/1aw3/1aw301/1aw301.com
 Output=/work/kleich/bench/splitthejobs/1aw3/1aw301/1aw301.log
 Initial command:
 /afs/math/software/gaussian/g16.A03/g16/l1.exe "/scratch/kleich_gaussian.s70RNhq/Gau-18837.inp" -scrdir="/scratch/kleich_gaussian.s70RNhq/"
 Entering Link 1 = /afs/math/software/gaussian/g16.A03/g16/l1.exe PID=     18838.
  
 Copyright (c) 1988,1990,1992,1993,1995,1998,2003,2009,2016,
            Gaussian, Inc.  All Rights Reserved.
  
 This is part of the Gaussian(R) 16 program.  It is based on
 the Gaussian(R) 09 system (copyright 2009, Gaussian, Inc.),
 the Gaussian(R) 03 system (copyright 2003, Gaussian, Inc.),
 the Gaussian(R) 98 system (copyright 1998, Gaussian, Inc.),
 the Gaussian(R) 94 system (copyright 1995, Gaussian, Inc.),
 the Gaussian 92(TM) system (copyright 1992, Gaussian, Inc.),
 the Gaussian 90(TM) system (copyright 1990, Gaussian, Inc.),
 the Gaussian 88(TM) system (copyright 1988, Gaussian, Inc.),
 the Gaussian 86(TM) system (copyright 1986, Carnegie Mellon
 University), and the Gaussian 82(TM) system (copyright 1983,
 Carnegie Mellon University). Gaussian is a federally registered
 trademark of Gaussian, Inc.
  
 This software contains proprietary and confidential information,
 including trade secrets, belonging to Gaussian, Inc.
  
 This software is provided under written license and may be
 used, copied, transmitted, or stored only in accord with that
 written license.
  
 The following legend is applicable only to US Government
 contracts under FAR:
  
                    RESTRICTED RIGHTS LEGEND
  
 Use, reproduction and disclosure by the US Government is
 subject to restrictions as set forth in subparagraphs (a)
 and (c) of the Commercial Computer Software - Restricted
 Rights clause in FAR 52.227-19.
  
 Gaussian, Inc.
 340 Quinnipiac St., Bldg. 40, Wallingford CT 06492
  
  
 ---------------------------------------------------------------
 Warning -- This program may not be used in any manner that
 competes with the business of Gaussian, Inc. or will provide
 assistance to any competitor of Gaussian, Inc.  The licensee
 of this program is prohibited from giving any competitor of
 Gaussian, Inc. access to this program.  By using this program,
 the user acknowledges that Gaussian, Inc. is engaged in the
 business of creating and licensing software in the field of
 computational chemistry and represents and warrants to the
 licensee that it is not a competitor of Gaussian, Inc. and that
 it will not use this program in any manner prohibited above.
 ---------------------------------------------------------------
  

 Cite this work as:
 Gaussian 16, Revision A.03,
 M. J. Frisch, G. W. Trucks, H. B. Schlegel, G. E. Scuseria, 
 M. A. Robb, J. R. Cheeseman, G. Scalmani, V. Barone, 
 G. A. Petersson, H. Nakatsuji, X. Li, M. Caricato, A. V. Marenich, 
 J. Bloino, B. G. Janesko, R. Gomperts, B. Mennucci, H. P. Hratchian, 
 J. V. Ortiz, A. F. Izmaylov, J. L. Sonnenberg, D. Williams-Young, 
 F. Ding, F. Lipparini, F. Egidi, J. Goings, B. Peng, A. Petrone, 
 T. Henderson, D. Ranasinghe, V. G. Zakrzewski, J. Gao, N. Rega, 
 G. Zheng, W. Liang, M. Hada, M. Ehara, K. Toyota, R. Fukuda, 
 J. Hasegawa, M. Ishida, T. Nakajima, Y. Honda, O. Kitao, H. Nakai, 
 T. Vreven, K. Throssell, J. A. Montgomery, Jr., J. E. Peralta, 
 F. Ogliaro, M. J. Bearpark, J. J. Heyd, E. N. Brothers, K. N. Kudin, 
 V. N. Staroverov, T. A. Keith, R. Kobayashi, J. Normand, 
 K. Raghavachari, A. P. Rendell, J. C. Burant, S. S. Iyengar, 
 J. Tomasi, M. Cossi, J. M. Millam, M. Klene, C. Adamo, R. Cammi, 
 J. W. Ochterski, R. L. Martin, K. Morokuma, O. Farkas, 
 J. B. Foresman, and D. J. Fox, Gaussian, Inc., Wallingford CT, 2016.
 
 ******************************************
 Gaussian 16:  ES64L-G16RevA.03 25-Dec-2016
                12-Oct-2022 
 ******************************************
 %nprocs=12
 Will use up to   12 processors via shared memory.
 %mem=16GB
 %chk=1aw3_II_S.chk
 ----------------------------------------------------------------------
 # PBE1PBE/def2TZVP empiricaldispersion=GD3BJ int=(grid=ultrafine) geom
 =check guess=read pop=nbo
 ----------------------------------------------------------------------
 1/29=2,38=1,172=1/1;
 2/12=2,40=1/2;
 3/5=44,7=101,11=2,14=-4,25=1,30=1,74=-13,75=-5,116=-2,124=41/1,2,3;
 4/5=1/1;
 5/5=2,38=6/2;
 6/7=2,8=2,9=2,10=2,28=1,40=1/1,7;
 99/5=1,9=1/99;
 -------------
 1aw3_II_S_nbo
 -------------
 Structure from the checkpoint file:  "1aw3_II_S.chk"
 Charge =  0 Multiplicity = 1
 Z-Matrix found in chk file.
 C,0,4.428,9.754,1.996
 C,0,3.012,9.72,2.522
 N,0,2.674,9.452,3.824
 C,0,1.843,9.805,1.81
 C,0,1.338,9.387,3.894
 N,0,0.779,9.575,2.689
 H,0,4.583,8.873,1.373
 H,0,5.099,9.671,2.852
 H,0,3.321,9.286,4.585
 H,0,1.751,9.989,0.755
 H,0,0.806,9.184,4.805
 C,0,-6.248,10.013,0.126
 C,0,-5.16,9.694,1.112
 N,0,-5.297,8.979,2.278
 C,0,-3.834,9.989,0.948
 C,0,-4.062,8.858,2.802
 N,0,-3.129,9.446,2.021
 H,0,-6.869,9.133,-0.016
 H,0,-5.763,10.207,-0.826
 H,0,-6.156,8.576,2.649
 H,0,-3.408,10.531,0.12
 H,0,-3.877,8.333,3.724
 C,0,-1.333,12.913,2.873
 C,0,-0.466,10.195,-1.128
 C,0,-1.143,6.149,1.56
 C,0,-1.72,8.874,5.632
 C,0,-1.123,12.495,1.558
 C,0,-1.063,13.397,0.434
 C,0,-0.748,12.656,-0.682
 C,0,-0.715,11.269,-0.274
 C,0,-0.515,13.218,-2.067
 C,0,-1.36,14.878,0.473
 C,0,-2.786,15.185,0.941
 C,0,-3.153,16.658,0.83
 O,0,-2.5,17.359,0.027
 O,0,-4.098,17.055,1.544
 C,0,-0.534,8.873,-0.708
 C,0,-0.314,7.74,-1.577
 C,0,-0.563,6.629,-0.812
 C,0,-0.863,7.033,0.532
 C,0,0.108,7.775,-3.026
 C,0,-0.44,5.191,-1.257
 C,0,-0.981,4.782,-2.415
 C,0,-1.347,6.551,2.877
 C,0,-1.673,5.652,3.954
 C,0,-1.699,6.409,5.097
 C,0,-1.571,7.799,4.746
 C,0,-1.997,4.189,3.838
 C,0,-2.042,5.893,6.476
 C,0,-1.558,4.719,6.939
 C,0,-1.672,10.215,5.225
 C,0,-1.869,11.355,6.093
 C,0,-1.72,12.494,5.327
 C,0,-1.482,12.058,3.967
 C,0,-2.221,11.305,7.561
 C,0,-1.929,13.933,5.773
 C,0,-1.24,14.359,7.076
 C,0,-1.561,15.812,7.393
 O,0,-0.742,16.674,7.011
 O,0,-2.63,16.031,8.002
 N,0,-0.975,11.234,1.077
 N,0,-0.821,8.393,0.554
 N,0,-1.332,7.823,3.394
 N,0,-1.461,10.7,3.968
 Fe,0,-1.148,9.534,2.257
 H,0,-0.257,10.379,-2.168
 H,0,-1.196,5.104,1.306
 H,0,-1.899,8.65,6.671
 H,0,-0.18,4.44,-0.536
 H,0,-2.635,6.508,7.131
 H,0,-1.347,13.973,3.044
 H,0,0.244,13.998,-2.019
 H,0,-0.176,12.464,-2.774
 H,0,-1.442,13.654,-2.439
 H,0,-0.665,15.381,1.137
 H,0,-1.23,15.299,-0.524
 H,0,-3.456,14.608,0.324
 H,0,-2.954,14.883,1.971
 H,0,0.921,8.486,-3.162
 H,0,0.467,6.797,-3.34
 H,0,-0.741,8.059,-3.645
 H,0,-1.84,5.341,-2.723
 H,0,-0.882,3.752,-2.724
 H,0,-1.096,3.595,3.995
 H,0,-2.746,3.95,4.592
 H,0,-2.42,3.965,2.862
 H,0,-0.823,4.169,6.371
 H,0,-1.719,4.449,7.972
 H,0,-1.321,11.466,8.155
 H,0,-2.959,12.076,7.784
 H,0,-2.658,10.349,7.838
 H,0,-1.535,14.623,5.031
 H,0,-3.002,14.12,5.836
 H,0,-1.564,13.767,7.925
 H,0,-0.163,14.253,6.971
 H,0,4.60592924,10.65110633,1.44062498
 H,0,-6.83464038,10.83913137,0.46988957
 H,0,-3.91740169,17.51318705,2.36804422
 H,0,0.20042932,16.50684755,7.08507452
 Recover connectivity data from disk.
 Center=     -1.33725943     10.20181083      2.41749125
 Residue   0                        charge    0.00000000 layers R        AvRTP=      7.20799197     94.37794463     71.31600884
 Residue   4                        charge    0.00000000 layers R        AvRTP=      0.00000000      0.00000000      0.00000000
 Residue   2 PDB Number    63_A HIS charge    0.00000000 layers R        AvRTP=      3.93924200    189.95149815    106.72305001
 Residue   3 PDB Number    96_A HEM charge    0.00000000 layers R        AvRTP=      0.09971393    164.60152012     41.54271360
 Residue   1 PDB Number    39_A HIS charge    0.00000000 layers R        AvRTP=      4.24209913    351.99191005     86.01719095
 Stoichiometry    C42H44FeN8O4
 Framework group  C1[X(C42H44FeN8O4)]
 Deg. of freedom   291
 Full point group                 C1      NOp   1
 Largest Abelian subgroup         C1      NOp   1
 Largest concise Abelian subgroup C1      NOp   1
                         Standard orientation:                         
 ---------------------------------------------------------------------
 Center     Atomic      Atomic             Coordinates (Angstroms)
 Number     Number       Type             X           Y           Z
 ---------------------------------------------------------------------
      1          6           0       -1.448354   -0.350397    5.649956
      2          6           0       -1.144289    0.176523    4.266920
      3          7           0       -0.956512    1.501253    3.965085
      4          6           0       -1.137778   -0.513185    3.081597
      5          6           0       -0.831320    1.603380    2.635455
      6          7           0       -0.954038    0.406028    2.042885
      7          1           0       -2.489932   -0.671197    5.672718
      8          1           0       -1.347314    0.481330    6.348445
      9          1           0       -0.959955    2.268689    4.625628
     10          1           0       -1.276016   -1.572094    2.959344
     11          1           0       -0.678031    2.538497    2.129280
     12          6           0       -0.457650   -2.085126   -5.006037
     13          6           0       -0.591051   -1.061441   -3.914261
     14          7           0       -0.891683    0.270313   -4.074272
     15          6           0       -0.526728   -1.324142   -2.572976
     16          6           0       -0.997935    0.791707   -2.836815
     17          7           0       -0.797563   -0.143860   -1.882478
     18          1           0       -1.255004   -1.940027   -5.729486
     19          1           0       -0.626189   -3.055884   -4.549542
     20          1           0       -1.052220    0.757896   -4.954285
     21          1           0       -0.321523   -2.284268   -2.129273
     22          1           0       -1.233793    1.828865   -2.667678
     23          6           0        2.513870   -0.429899    0.336577
     24          6           0       -1.384615   -3.400408    0.690272
     25          6           0       -4.296082    0.417483   -0.310159
     26          6           0       -0.405069    3.449967   -0.371803
     27          6           0        1.690452   -1.552756    0.432604
     28          6           0        2.189966   -2.901690    0.539583
     29          6           0        1.109689   -3.736413    0.712793
     30          6           0       -0.078477   -2.918785    0.607595
     31          6           0        1.186944   -5.230011    0.939850
     32          6           0        3.636446   -3.320494    0.415533
     33          6           0        4.245824   -2.954350   -0.941429
     34          6           0        5.647440   -3.512458   -1.143233
     35          8           0        5.982325   -4.500751   -0.454939
     36          8           0        6.357705   -2.945926   -2.000551
     37          6           0       -2.495274   -2.590365    0.492851
     38          6           0       -3.858112   -3.067615    0.539292
     39          6           0       -4.641538   -1.992955    0.203292
     40          6           0       -3.811326   -0.837148    0.017793
     41          6           0       -4.321228   -4.460794    0.890695
     42          6           0       -6.150339   -1.971430    0.139603
     43          6           0       -6.824352   -2.939161   -0.500811
     44          6           0       -3.487893    1.547135   -0.401957
     45          6           0       -3.966107    2.853530   -0.774851
     46          6           0       -2.898168    3.705621   -0.658143
     47          6           0       -1.709599    2.939389   -0.390043
     48          6           0       -5.342455    3.200724   -1.268738
     49          6           0       -2.920252    5.180519   -0.989404
     50          6           0       -3.946258    5.979166   -0.620114
     51          6           0        0.729977    2.646621   -0.191424
     52          6           0        2.096273    3.120484   -0.214294
     53          6           0        2.918178    2.037344    0.025620
     54          6           0        2.060522    0.876967    0.145165
     55          6           0        2.542403    4.535569   -0.497012
     56          6           0        4.438856    2.017453    0.004137
     57          6           0        5.155057    3.116043    0.800481
     58          6           0        6.663260    2.970472    0.663110
     59          8           0        7.258594    2.330543    1.555185
     60          8           0        7.188670    3.493825   -0.342698
     61          7           0        0.334591   -1.620636    0.412115
     62          7           0       -2.526151   -1.238501    0.215500
     63          7           0       -2.130761    1.643944   -0.216703
     64          7           0        0.776496    1.298837    0.011331
     65         26           0       -0.886986    0.030323    0.104848
     66          1           0       -1.555452   -4.448533    0.867429
     67          1           0       -5.353677    0.500726   -0.494311
     68          1           0       -0.276000    4.509201   -0.523800
     69          1           0       -6.670363   -1.056123    0.347517
     70          1           0       -2.065806    5.619291   -1.475511
     71          1           0        3.568470   -0.595922    0.451871
     72          1           0        1.844057   -5.435048    1.784212
     73          1           0        0.216757   -5.672174    1.155525
     74          1           0        1.599021   -5.708158    0.051382
     75          1           0        4.228779   -2.853302    1.195150
     76          1           0        3.712238   -4.400332    0.543420
     77          1           0        3.594959   -3.354201   -1.702358
     78          1           0        4.297157   -1.879608   -1.091840
     79          1           0       -3.792294   -4.819970    1.771722
     80          1           0       -5.384883   -4.460124    1.120038
     81          1           0       -4.137938   -5.127505    0.050148
     82          1           0       -6.284974   -3.395400   -1.304641
     83          1           0       -7.903426   -2.914609   -0.535136
     84          1           0       -5.966327    3.523788   -0.434653
     85          1           0       -5.244437    4.000263   -2.002065
     86          1           0       -5.800671    2.347269   -1.762029
     87          1           0       -4.730243    5.601300    0.018583
     88          1           0       -3.864668    7.046754   -0.759785
     89          1           0        2.765161    5.039916    0.443610
     90          1           0        3.429633    4.516965   -1.130488
     91          1           0        1.778970    5.100424   -1.025919
     92          1           0        4.814055    1.093549    0.437183
     93          1           0        4.767252    2.031736   -1.036160
     94          1           0        4.896491    4.110461    0.453326
     95          1           0        4.889749    3.036667    1.851909
     96          1           0       -0.793793   -1.158627    5.901383
     97          1           0        0.499954   -2.007654   -5.477092
     98          1           0        7.020348   -2.306755   -1.728586
     99          1           0        7.007068    2.441919    2.474930
 ---------------------------------------------------------------------
 Rotational constants (GHZ):           0.0609970           0.0416828           0.0332059
 Standard basis: def2TZVP (5D, 7F)
 There are  2260 symmetry adapted cartesian basis functions of A   symmetry.
 There are  1983 symmetry adapted basis functions of A   symmetry.
  1983 basis functions,  3208 primitive gaussians,  2260 cartesian basis functions
   205 alpha electrons      205 beta electrons
       nuclear repulsion energy      8826.4982644515 Hartrees.
 NAtoms=   99 NActive=   99 NUniq=   99 SFac= 1.00D+00 NAtFMM=   60 NAOKFM=T Big=T
 Integral buffers will be    131072 words long.
 Raffenetti 2 integral format.
 Two-electron integral symmetry is turned on.
 Nuclear repulsion after empirical dispersion term =     8826.3554469331 Hartrees.
 One-electron integrals computed using PRISM.
   1 Symmetry operations used in ECPInt.
 ECPInt:  NShTT=  308505 NPrTT=  954269 LenC2=  223323 LenP2D=  444511.
 LDataN:  DoStor=T MaxTD1= 6 Len=  172
 NBasis=  1983 RedAO= T EigKep=  3.25D-06  NBF=  1983
 NBsUse=  1983 1.00D-06 EigRej= -1.00D+00 NBFU=  1983
 Initial guess from the checkpoint file:  "1aw3_II_S.chk"
 B after Tr=     0.000000    0.000000   -0.000000
         Rot=    1.000000   -0.000000   -0.000000   -0.000000 Ang=   0.00 deg.
 Requested convergence on RMS density matrix=1.00D-08 within 128 cycles.
 Requested convergence on MAX density matrix=1.00D-06.
 Requested convergence on             energy=1.00D-06.
 No special actions if energy rises.
 SCF Done:  E(RPBE1PBE) =  -3627.67988195     A.U. after    1 cycles
            NFock=  1  Conv=0.27D-08     -V/T= 2.0038

 **********************************************************************

            Population analysis using the SCF density.

 **********************************************************************

 Orbital symmetries:
       Occupied  (A) (A) (A) (A) (A) (A) (A) (A) (A) (A) (A) (A)
                 (A) (A) (A) (A) (A) (A) (A) (A) (A) (A) (A) (A)
                 (A) (A) (A) (A) (A) (A) (A) (A) (A) (A) (A) (A)
                 (A) (A) (A) (A) (A) (A) (A) (A) (A) (A) (A) (A)
                 (A) (A) (A) (A) (A) (A) (A) (A) (A) (A) (A) (A)
                 (A) (A) (A) (A) (A) (A) (A) (A) (A) (A) (A) (A)
                 (A) (A) (A) (A) (A) (A) (A) (A) (A) (A) (A) (A)
                 (A) (A) (A) (A) (A) (A) (A) (A) (A) (A) (A) (A)
                 (A) (A) (A) (A) (A) (A) (A) (A) (A) (A) (A) (A)
                 (A) (A) (A) (A) (A) (A) (A) (A) (A) (A) (A) (A)
                 (A) (A) (A) (A) (A) (A) (A) (A) (A) (A) (A) (A)
                 (A) (A) (A) (A) (A) (A) (A) (A) (A) (A) (A) (A)
                 (A) (A) (A) (A) (A) (A) (A) (A) (A) (A) (A) (A)
                 (A) (A) (A) (A) (A) (A) (A) (A) (A) (A) (A) (A)
                 (A) (A) (A) (A) (A) (A) (A) (A) (A) (A) (A) (A)
                 (A) (A) (A) (A) (A) (A) (A) (A) (A) (A) (A) (A)
                 (A) (A) (A) (A) (A) (A) (A) (A) (A) (A) (A) (A)
                 (A)
       Virtual   (A) (A) (A) (A) (A) (A) (A) (A) (A) (A) (A) (A)
                 (A) (A) (A) (A) (A) (A) (A) (A) (A) (A) (A) (A)
                 (A) (A) (A) (A) (A) (A) (A) (A) (A) (A) (A) (A)
                 (A) (A) (A) (A) (A) (A) (A) (A) (A) (A) (A) (A)
                 (A) (A) (A) (A) (A) (A) (A) (A) (A) (A) (A) (A)
                 (A) (A) (A) (A) (A) (A) (A) (A) (A) (A) (A) (A)
                 (A) (A) (A) (A) (A) (A) (A) (A) (A) (A) (A) (A)
                 (A) (A) (A) (A) (A) (A) (A) (A) (A) (A) (A) (A)
                 (A) (A) (A) (A) (A) (A) (A) (A) (A) (A) (A) (A)
                 (A) (A) (A) (A) (A) (A) (A) (A) (A) (A) (A) (A)
                 (A) (A) (A) (A) (A) (A) (A) (A) (A) (A) (A) (A)
                 (A) (A) (A) (A) (A) (A) (A) (A) (A) (A) (A) (A)
                 (A) (A) (A) (A) (A) (A) (A) (A) (A) (A) (A) (A)
                 (A) (A) (A) (A) (A) (A) (A) (A) (A) (A) (A) (A)
                 (A) (A) (A) (A) (A) (A) (A) (A) (A) (A) (A) (A)
                 (A) (A) (A) (A) (A) (A) (A) (A) (A) (A) (A) (A)
                 (A) (A) (A) (A) (A) (A) (A) (A) (A) (A) (A) (A)
                 (A) (A) (A) (A) (A) (A) (A) (A) (A) (A) (A) (A)
                 (A) (A) (A) (A) (A) (A) (A) (A) (A) (A) (A) (A)
                 (A) (A) (A) (A) (A) (A) (A) (A) (A) (A) (A) (A)
                 (A) (A) (A) (A) (A) (A) (A) (A) (A) (A) (A) (A)
                 (A) (A) (A) (A) (A) (A) (A) (A) (A) (A) (A) (A)
                 (A) (A) (A) (A) (A) (A) (A) (A) (A) (A) (A) (A)
                 (A) (A) (A) (A) (A) (A) (A) (A) (A) (A) (A) (A)
                 (A) (A) (A) (A) (A) (A) (A) (A) (A) (A) (A) (A)
                 (A) (A) (A) (A) (A) (A) (A) (A) (A) (A) (A) (A)
                 (A) (A) (A) (A) (A) (A) (A) (A) (A) (A) (A) (A)
                 (A) (A) (A) (A) (A) (A) (A) (A) (A) (A) (A) (A)
                 (A) (A) (A) (A) (A) (A) (A) (A) (A) (A) (A) (A)
                 (A) (A) (A) (A) (A) (A) (A) (A) (A) (A) (A) (A)
                 (A) (A) (A) (A) (A) (A) (A) (A) (A) (A) (A) (A)
                 (A) (A) (A) (A) (A) (A) (A) (A) (A) (A) (A) (A)
                 (A) (A) (A) (A) (A) (A) (A) (A) (A) (A) (A) (A)
                 (A) (A) (A) (A) (A) (A) (A) (A) (A) (A) (A) (A)
                 (A) (A) (A) (A) (A) (A) (A) (A) (A) (A) (A) (A)
                 (A) (A) (A) (A) (A) (A) (A) (A) (A) (A) (A) (A)
                 (A) (A) (A) (A) (A) (A) (A) (A) (A) (A) (A) (A)
                 (A) (A) (A) (A) (A) (A) (A) (A) (A) (A) (A) (A)
                 (A) (A) (A) (A) (A) (A) (A) (A) (A) (A) (A) (A)
                 (A) (A) (A) (A) (A) (A) (A) (A) (A) (A) (A) (A)
                 (A) (A) (A) (A) (A) (A) (A) (A) (A) (A) (A) (A)
                 (A) (A) (A) (A) (A) (A) (A) (A) (A) (A) (A) (A)
                 (A) (A) (A) (A) (A) (A) (A) (A) (A) (A) (A) (A)
                 (A) (A) (A) (A) (A) (A) (A) (A) (A) (A) (A) (A)
                 (A) (A) (A) (A) (A) (A) (A) (A) (A) (A) (A) (A)
                 (A) (A) (A) (A) (A) (A) (A) (A) (A) (A) (A) (A)
                 (A) (A) (A) (A) (A) (A) (A) (A) (A) (A) (A) (A)
                 (A) (A) (A) (A) (A) (A) (A) (A) (A) (A) (A) (A)
                 (A) (A) (A) (A) (A) (A) (A) (A) (A) (A) (A) (A)
                 (A) (A) (A) (A) (A) (A) (A) (A) (A) (A) (A) (A)
                 (A) (A) (A) (A) (A) (A) (A) (A) (A) (A) (A) (A)
                 (A) (A) (A) (A) (A) (A) (A) (A) (A) (A) (A) (A)
                 (A) (A) (A) (A) (A) (A) (A) (A) (A) (A) (A) (A)
                 (A) (A) (A) (A) (A) (A) (A) (A) (A) (A) (A) (A)
                 (A) (A) (A) (A) (A) (A) (A) (A) (A) (A) (A) (A)
                 (A) (A) (A) (A) (A) (A) (A) (A) (A) (A) (A) (A)
                 (A) (A) (A) (A) (A) (A) (A) (A) (A) (A) (A) (A)
                 (A) (A) (A) (A) (A) (A) (A) (A) (A) (A) (A) (A)
                 (A) (A) (A) (A) (A) (A) (A) (A) (A) (A) (A) (A)
                 (A) (A) (A) (A) (A) (A) (A) (A) (A) (A) (A) (A)
                 (A) (A) (A) (A) (A) (A) (A) (A) (A) (A) (A) (A)
                 (A) (A) (A) (A) (A) (A) (A) (A) (A) (A) (A) (A)
                 (A) (A) (A) (A) (A) (A) (A) (A) (A) (A) (A) (A)
                 (A) (A) (A) (A) (A) (A) (A) (A) (A) (A) (A) (A)
                 (A) (A) (A) (A) (A) (A) (A) (A) (A) (A) (A) (A)
                 (A) (A) (A) (A) (A) (A) (A) (A) (A) (A) (A) (A)
                 (A) (A) (A) (A) (A) (A) (A) (A) (A) (A) (A) (A)
                 (A) (A) (A) (A) (A) (A) (A) (A) (A) (A) (A) (A)
                 (A) (A) (A) (A) (A) (A) (A) (A) (A) (A) (A) (A)
                 (A) (A) (A) (A) (A) (A) (A) (A) (A) (A) (A) (A)
                 (A) (A) (A) (A) (A) (A) (A) (A) (A) (A) (A) (A)
                 (A) (A) (A) (A) (A) (A) (A) (A) (A) (A) (A) (A)
                 (A) (A) (A) (A) (A) (A) (A) (A) (A) (A) (A) (A)
                 (A) (A) (A) (A) (A) (A) (A) (A) (A) (A) (A) (A)
                 (A) (A) (A) (A) (A) (A) (A) (A) (A) (A) (A) (A)
                 (A) (A) (A) (A) (A) (A) (A) (A) (A) (A) (A) (A)
                 (A) (A) (A) (A) (A) (A) (A) (A) (A) (A) (A) (A)
                 (A) (A) (A) (A) (A) (A) (A) (A) (A) (A) (A) (A)
                 (A) (A) (A) (A) (A) (A) (A) (A) (A) (A) (A) (A)
                 (A) (A) (A) (A) (A) (A) (A) (A) (A) (A) (A) (A)
                 (A) (A) (A) (A) (A) (A) (A) (A) (A) (A) (A) (A)
                 (A) (A) (A) (A) (A) (A) (A) (A) (A) (A) (A) (A)
                 (A) (A) (A) (A) (A) (A) (A) (A) (A) (A) (A) (A)
                 (A) (A) (A) (A) (A) (A) (A) (A) (A) (A) (A) (A)
                 (A) (A) (A) (A) (A) (A) (A) (A) (A) (A) (A) (A)
                 (A) (A) (A) (A) (A) (A) (A) (A) (A) (A) (A) (A)
                 (A) (A) (A) (A) (A) (A) (A) (A) (A) (A) (A) (A)
                 (A) (A) (A) (A) (A) (A) (A) (A) (A) (A) (A) (A)
                 (A) (A) (A) (A) (A) (A) (A) (A) (A) (A) (A) (A)
                 (A) (A) (A) (A) (A) (A) (A) (A) (A) (A) (A) (A)
                 (A) (A) (A) (A) (A) (A) (A) (A) (A) (A) (A) (A)
                 (A) (A) (A) (A) (A) (A) (A) (A) (A) (A) (A) (A)
                 (A) (A) (A) (A) (A) (A) (A) (A) (A) (A) (A) (A)
                 (A) (A) (A) (A) (A) (A) (A) (A) (A) (A) (A) (A)
                 (A) (A) (A) (A) (A) (A) (A) (A) (A) (A) (A) (A)
                 (A) (A) (A) (A) (A) (A) (A) (A) (A) (A) (A) (A)
                 (A) (A) (A) (A) (A) (A) (A) (A) (A) (A) (A) (A)
                 (A) (A) (A) (A) (A) (A) (A) (A) (A) (A) (A) (A)
                 (A) (A) (A) (A) (A) (A) (A) (A) (A) (A) (A) (A)
                 (A) (A) (A) (A) (A) (A) (A) (A) (A) (A) (A) (A)
                 (A) (A) (A) (A) (A) (A) (A) (A) (A) (A) (A) (A)
                 (A) (A) (A) (A) (A) (A) (A) (A) (A) (A) (A) (A)
                 (A) (A) (A) (A) (A) (A) (A) (A) (A) (A) (A) (A)
                 (A) (A) (A) (A) (A) (A) (A) (A) (A) (A) (A) (A)
                 (A) (A) (A) (A) (A) (A) (A) (A) (A) (A) (A) (A)
                 (A) (A) (A) (A) (A) (A) (A) (A) (A) (A) (A) (A)
                 (A) (A) (A) (A) (A) (A) (A) (A) (A) (A) (A) (A)
                 (A) (A) (A) (A) (A) (A) (A) (A) (A) (A) (A) (A)
                 (A) (A) (A) (A) (A) (A) (A) (A) (A) (A) (A) (A)
                 (A) (A) (A) (A) (A) (A) (A) (A) (A) (A) (A) (A)
                 (A) (A) (A) (A) (A) (A) (A) (A) (A) (A) (A) (A)
                 (A) (A) (A) (A) (A) (A) (A) (A) (A) (A) (A) (A)
                 (A) (A) (A) (A) (A) (A) (A) (A) (A) (A) (A) (A)
                 (A) (A) (A) (A) (A) (A) (A) (A) (A) (A) (A) (A)
                 (A) (A) (A) (A) (A) (A) (A) (A) (A) (A) (A) (A)
                 (A) (A) (A) (A) (A) (A) (A) (A) (A) (A) (A) (A)
                 (A) (A) (A) (A) (A) (A) (A) (A) (A) (A) (A) (A)
                 (A) (A) (A) (A) (A) (A) (A) (A) (A) (A) (A) (A)
                 (A) (A) (A) (A) (A) (A) (A) (A) (A) (A) (A) (A)
                 (A) (A) (A) (A) (A) (A) (A) (A) (A) (A) (A) (A)
                 (A) (A) (A) (A) (A) (A) (A) (A) (A) (A) (A) (A)
                 (A) (A) (A) (A) (A) (A) (A) (A) (A) (A) (A) (A)
                 (A) (A) (A) (A) (A) (A) (A) (A) (A) (A) (A) (A)
                 (A) (A) (A) (A) (A) (A) (A) (A) (A) (A) (A) (A)
                 (A) (A) (A) (A) (A) (A) (A) (A) (A) (A) (A) (A)
                 (A) (A) (A) (A) (A) (A) (A) (A) (A) (A) (A) (A)
                 (A) (A) (A) (A) (A) (A) (A) (A) (A) (A) (A) (A)
                 (A) (A) (A) (A) (A) (A) (A) (A) (A) (A) (A) (A)
                 (A) (A) (A) (A) (A) (A) (A) (A) (A) (A) (A) (A)
                 (A) (A) (A) (A) (A) (A) (A) (A) (A) (A) (A) (A)
                 (A) (A) (A) (A) (A) (A) (A) (A) (A) (A) (A) (A)
                 (A) (A) (A) (A) (A) (A) (A) (A) (A) (A) (A) (A)
                 (A) (A) (A) (A) (A) (A) (A) (A) (A) (A) (A) (A)
                 (A) (A) (A) (A) (A) (A) (A) (A) (A) (A) (A) (A)
                 (A) (A) (A) (A) (A) (A) (A) (A) (A) (A) (A) (A)
                 (A) (A) (A) (A) (A) (A) (A) (A) (A) (A) (A) (A)
                 (A) (A) (A) (A) (A) (A) (A) (A) (A) (A) (A) (A)
                 (A) (A) (A) (A) (A) (A) (A) (A) (A) (A) (A) (A)
                 (A) (A) (A) (A) (A) (A) (A) (A) (A) (A) (A) (A)
                 (A) (A) (A) (A) (A) (A) (A) (A) (A) (A) (A) (A)
                 (A) (A) (A) (A) (A) (A) (A) (A) (A) (A) (A) (A)
                 (A) (A) (A) (A) (A) (A) (A) (A) (A) (A) (A) (A)
                 (A) (A) (A) (A) (A) (A) (A) (A) (A) (A) (A) (A)
                 (A) (A) (A) (A) (A) (A) (A) (A) (A) (A) (A) (A)
                 (A) (A) (A) (A) (A) (A) (A) (A) (A) (A) (A) (A)
                 (A) (A) (A) (A) (A) (A) (A) (A) (A) (A) (A) (A)
                 (A) (A) (A) (A) (A) (A) (A) (A) (A) (A) (A) (A)
                 (A) (A) (A) (A) (A) (A) (A) (A) (A) (A) (A) (A)
                 (A) (A)
 The electronic state is 1-A.
 Alpha  occ. eigenvalues -- -256.29901 -30.06714 -25.89471 -25.89210 -25.89173
 Alpha  occ. eigenvalues --  -19.27393 -19.25409 -19.18146 -19.18141 -14.44985
 Alpha  occ. eigenvalues --  -14.44783 -14.39243 -14.39072 -14.36212 -14.36152
 Alpha  occ. eigenvalues --  -14.35934 -14.35864 -10.35473 -10.35075 -10.28019
 Alpha  occ. eigenvalues --  -10.27560 -10.25858 -10.25800 -10.24403 -10.24218
 Alpha  occ. eigenvalues --  -10.24056 -10.24013 -10.23986 -10.23913 -10.23654
 Alpha  occ. eigenvalues --  -10.23562 -10.23534 -10.23330 -10.23329 -10.23182
 Alpha  occ. eigenvalues --  -10.23136 -10.23131 -10.22985 -10.22501 -10.22408
 Alpha  occ. eigenvalues --  -10.22402 -10.21968 -10.21906 -10.21787 -10.21731
 Alpha  occ. eigenvalues --  -10.21697 -10.21694 -10.21640 -10.21629 -10.21593
 Alpha  occ. eigenvalues --  -10.21584 -10.21364 -10.21319 -10.21087 -10.21048
 Alpha  occ. eigenvalues --  -10.21031 -10.20757 -10.20698 -10.20515  -3.41202
 Alpha  occ. eigenvalues --   -2.17054  -2.16535  -2.16482  -1.17719  -1.16461
 Alpha  occ. eigenvalues --   -1.05188  -1.04960  -1.03223  -1.02750  -0.97075
 Alpha  occ. eigenvalues --   -0.96230  -0.96168  -0.95294  -0.90267  -0.90157
 Alpha  occ. eigenvalues --   -0.83327  -0.82887  -0.82200  -0.81778  -0.81500
 Alpha  occ. eigenvalues --   -0.80609  -0.80479  -0.80457  -0.80291  -0.78367
 Alpha  occ. eigenvalues --   -0.77734  -0.76738  -0.76099  -0.75109  -0.73457
 Alpha  occ. eigenvalues --   -0.72059  -0.71696  -0.71481  -0.71133  -0.70221
 Alpha  occ. eigenvalues --   -0.69895  -0.69210  -0.68549  -0.66407  -0.65598
 Alpha  occ. eigenvalues --   -0.64994  -0.64544  -0.64316  -0.63851  -0.61651
 Alpha  occ. eigenvalues --   -0.61611  -0.60419  -0.59565  -0.58446  -0.58059
 Alpha  occ. eigenvalues --   -0.55711  -0.55532  -0.55024  -0.54274  -0.53799
 Alpha  occ. eigenvalues --   -0.53543  -0.52636  -0.52578  -0.51854  -0.51471
 Alpha  occ. eigenvalues --   -0.51135  -0.50195  -0.49885  -0.49625  -0.48983
 Alpha  occ. eigenvalues --   -0.48516  -0.48168  -0.47677  -0.47604  -0.47400
 Alpha  occ. eigenvalues --   -0.47299  -0.47127  -0.45897  -0.45642  -0.45228
 Alpha  occ. eigenvalues --   -0.44886  -0.44573  -0.44006  -0.43967  -0.43777
 Alpha  occ. eigenvalues --   -0.43429  -0.43282  -0.43211  -0.42965  -0.42853
 Alpha  occ. eigenvalues --   -0.42825  -0.42768  -0.42633  -0.42450  -0.42339
 Alpha  occ. eigenvalues --   -0.42199  -0.42028  -0.41691  -0.41428  -0.41155
 Alpha  occ. eigenvalues --   -0.40585  -0.40482  -0.40148  -0.39878  -0.39769
 Alpha  occ. eigenvalues --   -0.39545  -0.39392  -0.39093  -0.38728  -0.38555
 Alpha  occ. eigenvalues --   -0.38291  -0.37883  -0.37511  -0.36876  -0.36725
 Alpha  occ. eigenvalues --   -0.36682  -0.36523  -0.36186  -0.34904  -0.34662
 Alpha  occ. eigenvalues --   -0.34494  -0.34192  -0.34142  -0.33206  -0.33005
 Alpha  occ. eigenvalues --   -0.32700  -0.32281  -0.31892  -0.31496  -0.31452
 Alpha  occ. eigenvalues --   -0.30142  -0.29197  -0.28694  -0.28079  -0.27764
 Alpha  occ. eigenvalues --   -0.27686  -0.27498  -0.27081  -0.26681  -0.24219
 Alpha  occ. eigenvalues --   -0.23625  -0.23359  -0.22748  -0.22214  -0.21910
 Alpha  occ. eigenvalues --   -0.19186  -0.18780  -0.18634  -0.17782  -0.17366
 Alpha virt. eigenvalues --   -0.06974  -0.06929  -0.02320  -0.01158  -0.00680
 Alpha virt. eigenvalues --   -0.00254   0.01175   0.01582   0.01844   0.02126
 Alpha virt. eigenvalues --    0.02324   0.02595   0.02939   0.04366   0.04658
 Alpha virt. eigenvalues --    0.04700   0.05248   0.05432   0.05540   0.05772
 Alpha virt. eigenvalues --    0.06269   0.06315   0.06421   0.06717   0.06861
 Alpha virt. eigenvalues --    0.07208   0.07565   0.07780   0.08009   0.08179
 Alpha virt. eigenvalues --    0.08761   0.09215   0.09544   0.09848   0.09887
 Alpha virt. eigenvalues --    0.10217   0.10544   0.10725   0.10888   0.11136
 Alpha virt. eigenvalues --    0.11536   0.11701   0.11755   0.11953   0.12015
 Alpha virt. eigenvalues --    0.12475   0.12531   0.12919   0.13094   0.13335
 Alpha virt. eigenvalues --    0.13522   0.13593   0.13968   0.14148   0.14333
 Alpha virt. eigenvalues --    0.14478   0.14681   0.14775   0.14972   0.15114
 Alpha virt. eigenvalues --    0.15329   0.15552   0.15722   0.15816   0.15926
 Alpha virt. eigenvalues --    0.16068   0.16404   0.16581   0.17094   0.17203
 Alpha virt. eigenvalues --    0.17325   0.17455   0.17625   0.17954   0.18178
 Alpha virt. eigenvalues --    0.18320   0.18724   0.18978   0.19212   0.19662
 Alpha virt. eigenvalues --    0.19984   0.20210   0.20465   0.20644   0.20854
 Alpha virt. eigenvalues --    0.21084   0.21112   0.21279   0.21391   0.21585
 Alpha virt. eigenvalues --    0.21664   0.22339   0.22396   0.22503   0.22835
 Alpha virt. eigenvalues --    0.22938   0.23011   0.23081   0.23577   0.23977
 Alpha virt. eigenvalues --    0.24220   0.24346   0.24742   0.24805   0.25026
 Alpha virt. eigenvalues --    0.25191   0.25390   0.25557   0.25749   0.25892
 Alpha virt. eigenvalues --    0.26006   0.26241   0.26321   0.26474   0.26661
 Alpha virt. eigenvalues --    0.26906   0.27328   0.27403   0.27989   0.28003
 Alpha virt. eigenvalues --    0.28044   0.28249   0.28549   0.28637   0.28857
 Alpha virt. eigenvalues --    0.28971   0.29279   0.29474   0.29577   0.29717
 Alpha virt. eigenvalues --    0.30271   0.30440   0.30577   0.31017   0.31066
 Alpha virt. eigenvalues --    0.31468   0.31577   0.31688   0.32069   0.32420
 Alpha virt. eigenvalues --    0.32602   0.32627   0.33003   0.33142   0.33216
 Alpha virt. eigenvalues --    0.33652   0.33735   0.34281   0.34317   0.34699
 Alpha virt. eigenvalues --    0.34849   0.34955   0.35090   0.35203   0.35430
 Alpha virt. eigenvalues --    0.35653   0.36081   0.36270   0.36652   0.36708
 Alpha virt. eigenvalues --    0.37047   0.37304   0.37410   0.37565   0.37731
 Alpha virt. eigenvalues --    0.37845   0.37937   0.38271   0.38402   0.38471
 Alpha virt. eigenvalues --    0.38735   0.39061   0.39185   0.39282   0.39498
 Alpha virt. eigenvalues --    0.39680   0.39785   0.40028   0.40270   0.40365
 Alpha virt. eigenvalues --    0.40530   0.40598   0.40754   0.40806   0.40871
 Alpha virt. eigenvalues --    0.41417   0.41522   0.41552   0.41806   0.41907
 Alpha virt. eigenvalues --    0.42265   0.42436   0.42449   0.42842   0.42955
 Alpha virt. eigenvalues --    0.43207   0.43309   0.43631   0.43726   0.43822
 Alpha virt. eigenvalues --    0.43968   0.44157   0.44428   0.44621   0.44752
 Alpha virt. eigenvalues --    0.44957   0.45071   0.45213   0.45320   0.45569
 Alpha virt. eigenvalues --    0.45842   0.45940   0.46082   0.46482   0.46512
 Alpha virt. eigenvalues --    0.46573   0.46716   0.46921   0.47082   0.47214
 Alpha virt. eigenvalues --    0.47269   0.47474   0.47698   0.47927   0.48184
 Alpha virt. eigenvalues --    0.48308   0.48418   0.48529   0.48687   0.48851
 Alpha virt. eigenvalues --    0.49013   0.49102   0.49415   0.49534   0.49625
 Alpha virt. eigenvalues --    0.49791   0.49822   0.50032   0.50228   0.50492
 Alpha virt. eigenvalues --    0.50586   0.50784   0.50930   0.51169   0.51310
 Alpha virt. eigenvalues --    0.51552   0.51646   0.51898   0.52166   0.52244
 Alpha virt. eigenvalues --    0.52600   0.52796   0.52883   0.52971   0.53370
 Alpha virt. eigenvalues --    0.53585   0.53957   0.54029   0.54162   0.54317
 Alpha virt. eigenvalues --    0.54834   0.54866   0.55020   0.55321   0.55492
 Alpha virt. eigenvalues --    0.55601   0.55799   0.56146   0.56350   0.56574
 Alpha virt. eigenvalues --    0.56750   0.56951   0.57449   0.57521   0.57607
 Alpha virt. eigenvalues --    0.57715   0.57888   0.58196   0.58500   0.58614
 Alpha virt. eigenvalues --    0.58806   0.59032   0.59225   0.59474   0.59820
 Alpha virt. eigenvalues --    0.59903   0.60064   0.60380   0.60544   0.61057
 Alpha virt. eigenvalues --    0.61186   0.61477   0.61737   0.61862   0.62248
 Alpha virt. eigenvalues --    0.62441   0.62615   0.62860   0.63028   0.63351
 Alpha virt. eigenvalues --    0.63447   0.63683   0.63980   0.64035   0.64131
 Alpha virt. eigenvalues --    0.64472   0.64814   0.65143   0.65379   0.65676
 Alpha virt. eigenvalues --    0.65943   0.66089   0.66355   0.66625   0.66919
 Alpha virt. eigenvalues --    0.67109   0.67408   0.67686   0.68098   0.68224
 Alpha virt. eigenvalues --    0.68669   0.68704   0.69085   0.69145   0.69254
 Alpha virt. eigenvalues --    0.70002   0.70206   0.70570   0.70902   0.70953
 Alpha virt. eigenvalues --    0.71143   0.71635   0.71847   0.71927   0.72246
 Alpha virt. eigenvalues --    0.72455   0.72908   0.73059   0.73353   0.73785
 Alpha virt. eigenvalues --    0.73896   0.74196   0.74732   0.74798   0.75099
 Alpha virt. eigenvalues --    0.75691   0.75778   0.76055   0.76149   0.76602
 Alpha virt. eigenvalues --    0.76672   0.77055   0.77328   0.77407   0.78023
 Alpha virt. eigenvalues --    0.78318   0.78337   0.78739   0.78885   0.79104
 Alpha virt. eigenvalues --    0.79254   0.79684   0.79890   0.80188   0.80496
 Alpha virt. eigenvalues --    0.80791   0.81163   0.81309   0.81780   0.82059
 Alpha virt. eigenvalues --    0.82206   0.82332   0.82955   0.83247   0.83741
 Alpha virt. eigenvalues --    0.83980   0.84140   0.84360   0.84557   0.85069
 Alpha virt. eigenvalues --    0.85373   0.85753   0.85915   0.86162   0.86272
 Alpha virt. eigenvalues --    0.86468   0.86757   0.86957   0.87603   0.87891
 Alpha virt. eigenvalues --    0.88026   0.88373   0.88535   0.89250   0.89313
 Alpha virt. eigenvalues --    0.89696   0.89866   0.90225   0.90531   0.90974
 Alpha virt. eigenvalues --    0.91447   0.91481   0.91763   0.91963   0.92153
 Alpha virt. eigenvalues --    0.92308   0.92963   0.93128   0.93369   0.93450
 Alpha virt. eigenvalues --    0.93724   0.93893   0.94231   0.94556   0.94876
 Alpha virt. eigenvalues --    0.95047   0.95417   0.95517   0.95653   0.95788
 Alpha virt. eigenvalues --    0.95919   0.96298   0.96366   0.96786   0.97180
 Alpha virt. eigenvalues --    0.97233   0.97554   0.97759   0.98138   0.98685
 Alpha virt. eigenvalues --    0.98717   0.98956   0.99182   0.99578   1.00067
 Alpha virt. eigenvalues --    1.00160   1.00431   1.00826   1.01225   1.01363
 Alpha virt. eigenvalues --    1.01618   1.01692   1.02169   1.02302   1.02489
 Alpha virt. eigenvalues --    1.02696   1.03129   1.03318   1.03608   1.03827
 Alpha virt. eigenvalues --    1.04100   1.04374   1.04507   1.04740   1.05025
 Alpha virt. eigenvalues --    1.05456   1.05543   1.05900   1.06057   1.06351
 Alpha virt. eigenvalues --    1.06625   1.07458   1.07705   1.07937   1.08346
 Alpha virt. eigenvalues --    1.08406   1.08640   1.08952   1.09598   1.09893
 Alpha virt. eigenvalues --    1.10102   1.10532   1.10683   1.11248   1.11433
 Alpha virt. eigenvalues --    1.12162   1.12329   1.12441   1.13009   1.13195
 Alpha virt. eigenvalues --    1.13831   1.14175   1.14327   1.14590   1.15257
 Alpha virt. eigenvalues --    1.15435   1.15834   1.16134   1.16474   1.16928
 Alpha virt. eigenvalues --    1.17114   1.17713   1.17834   1.17977   1.18403
 Alpha virt. eigenvalues --    1.18918   1.19134   1.19394   1.19584   1.20093
 Alpha virt. eigenvalues --    1.20476   1.20902   1.21016   1.21252   1.21554
 Alpha virt. eigenvalues --    1.21935   1.22354   1.22641   1.22725   1.23085
 Alpha virt. eigenvalues --    1.23611   1.23884   1.24057   1.24522   1.24905
 Alpha virt. eigenvalues --    1.25272   1.25797   1.25876   1.26062   1.26151
 Alpha virt. eigenvalues --    1.26647   1.26815   1.27235   1.27458   1.27769
 Alpha virt. eigenvalues --    1.28025   1.28400   1.28715   1.29045   1.29444
 Alpha virt. eigenvalues --    1.29683   1.29964   1.30250   1.30620   1.30930
 Alpha virt. eigenvalues --    1.31418   1.31770   1.32259   1.32452   1.32751
 Alpha virt. eigenvalues --    1.33025   1.33749   1.33921   1.33976   1.34401
 Alpha virt. eigenvalues --    1.35390   1.35556   1.35665   1.35816   1.36403
 Alpha virt. eigenvalues --    1.36702   1.36798   1.37156   1.37758   1.38256
 Alpha virt. eigenvalues --    1.38426   1.38515   1.38888   1.39118   1.39323
 Alpha virt. eigenvalues --    1.39817   1.40117   1.40453   1.40765   1.40995
 Alpha virt. eigenvalues --    1.41503   1.41811   1.42173   1.42752   1.42877
 Alpha virt. eigenvalues --    1.43324   1.43811   1.43922   1.44776   1.45014
 Alpha virt. eigenvalues --    1.45246   1.45534   1.46250   1.46567   1.46736
 Alpha virt. eigenvalues --    1.47162   1.47352   1.47737   1.48016   1.48148
 Alpha virt. eigenvalues --    1.48294   1.48902   1.49115   1.49250   1.49616
 Alpha virt. eigenvalues --    1.49815   1.50123   1.50232   1.50504   1.50739
 Alpha virt. eigenvalues --    1.51285   1.51622   1.51948   1.52091   1.52324
 Alpha virt. eigenvalues --    1.52724   1.52906   1.53059   1.53385   1.53631
 Alpha virt. eigenvalues --    1.53745   1.54081   1.54148   1.54665   1.55066
 Alpha virt. eigenvalues --    1.55101   1.55468   1.55629   1.56056   1.56138
 Alpha virt. eigenvalues --    1.56384   1.56494   1.57044   1.57174   1.57386
 Alpha virt. eigenvalues --    1.57591   1.57809   1.58058   1.58518   1.58874
 Alpha virt. eigenvalues --    1.58964   1.59144   1.59481   1.59615   1.59903
 Alpha virt. eigenvalues --    1.60012   1.60348   1.60510   1.60840   1.61215
 Alpha virt. eigenvalues --    1.61300   1.61424   1.61909   1.62172   1.62306
 Alpha virt. eigenvalues --    1.62606   1.62797   1.62947   1.63308   1.63515
 Alpha virt. eigenvalues --    1.63877   1.64274   1.64369   1.64676   1.64872
 Alpha virt. eigenvalues --    1.65086   1.65316   1.65587   1.66033   1.66294
 Alpha virt. eigenvalues --    1.66679   1.66935   1.67065   1.67182   1.67639
 Alpha virt. eigenvalues --    1.67878   1.68114   1.68304   1.68517   1.68934
 Alpha virt. eigenvalues --    1.69066   1.69461   1.69837   1.70216   1.70477
 Alpha virt. eigenvalues --    1.71033   1.71181   1.71562   1.71672   1.72268
 Alpha virt. eigenvalues --    1.72393   1.72573   1.72843   1.73079   1.73280
 Alpha virt. eigenvalues --    1.73393   1.73716   1.74318   1.74616   1.74903
 Alpha virt. eigenvalues --    1.75446   1.75687   1.75985   1.76654   1.76767
 Alpha virt. eigenvalues --    1.77050   1.77265   1.77575   1.78466   1.78660
 Alpha virt. eigenvalues --    1.78861   1.79789   1.80028   1.80124   1.80459
 Alpha virt. eigenvalues --    1.80722   1.81158   1.81388   1.81973   1.82183
 Alpha virt. eigenvalues --    1.82543   1.83084   1.83391   1.83474   1.83881
 Alpha virt. eigenvalues --    1.84068   1.84347   1.84823   1.85021   1.85355
 Alpha virt. eigenvalues --    1.85662   1.85869   1.86017   1.86644   1.86959
 Alpha virt. eigenvalues --    1.87134   1.87506   1.88055   1.88389   1.88681
 Alpha virt. eigenvalues --    1.89140   1.89418   1.89561   1.89615   1.90763
 Alpha virt. eigenvalues --    1.90847   1.91292   1.91425   1.91881   1.92150
 Alpha virt. eigenvalues --    1.92366   1.93050   1.93465   1.93716   1.93926
 Alpha virt. eigenvalues --    1.94574   1.94856   1.95271   1.95681   1.95982
 Alpha virt. eigenvalues --    1.96174   1.96835   1.96982   1.97176   1.97519
 Alpha virt. eigenvalues --    1.97726   1.98057   1.98649   1.98809   1.99024
 Alpha virt. eigenvalues --    1.99721   1.99852   2.00143   2.00562   2.00725
 Alpha virt. eigenvalues --    2.01278   2.01788   2.02017   2.02091   2.02758
 Alpha virt. eigenvalues --    2.03098   2.03549   2.03762   2.03966   2.04444
 Alpha virt. eigenvalues --    2.04636   2.04756   2.04947   2.05544   2.06027
 Alpha virt. eigenvalues --    2.06629   2.06728   2.07176   2.07299   2.07845
 Alpha virt. eigenvalues --    2.08358   2.08673   2.08907   2.09134   2.09328
 Alpha virt. eigenvalues --    2.09742   2.10498   2.10736   2.11166   2.11556
 Alpha virt. eigenvalues --    2.11892   2.12303   2.12659   2.13001   2.13376
 Alpha virt. eigenvalues --    2.13465   2.13943   2.14216   2.14713   2.15201
 Alpha virt. eigenvalues --    2.15503   2.15916   2.16065   2.16448   2.16580
 Alpha virt. eigenvalues --    2.16734   2.17155   2.17410   2.17880   2.18274
 Alpha virt. eigenvalues --    2.18470   2.18926   2.19422   2.19566   2.19887
 Alpha virt. eigenvalues --    2.20160   2.20443   2.21068   2.21119   2.21317
 Alpha virt. eigenvalues --    2.21916   2.22101   2.22435   2.22982   2.23293
 Alpha virt. eigenvalues --    2.23416   2.24363   2.24450   2.25001   2.25295
 Alpha virt. eigenvalues --    2.25803   2.26074   2.26375   2.26697   2.27010
 Alpha virt. eigenvalues --    2.27392   2.27571   2.28053   2.28731   2.28825
 Alpha virt. eigenvalues --    2.29392   2.30039   2.30235   2.30538   2.30744
 Alpha virt. eigenvalues --    2.30816   2.31032   2.31288   2.31703   2.31921
 Alpha virt. eigenvalues --    2.32497   2.32770   2.32895   2.33507   2.34155
 Alpha virt. eigenvalues --    2.34371   2.34692   2.34835   2.35529   2.35950
 Alpha virt. eigenvalues --    2.36120   2.36353   2.36868   2.37195   2.37440
 Alpha virt. eigenvalues --    2.37677   2.38245   2.38499   2.38621   2.39190
 Alpha virt. eigenvalues --    2.39478   2.39951   2.40275   2.40594   2.40786
 Alpha virt. eigenvalues --    2.40865   2.41454   2.41566   2.41688   2.41931
 Alpha virt. eigenvalues --    2.42506   2.42682   2.43379   2.43514   2.43717
 Alpha virt. eigenvalues --    2.43832   2.44905   2.45659   2.45771   2.46231
 Alpha virt. eigenvalues --    2.46761   2.46824   2.47030   2.48132   2.48369
 Alpha virt. eigenvalues --    2.48554   2.48669   2.49254   2.49590   2.49889
 Alpha virt. eigenvalues --    2.50463   2.50606   2.51018   2.51239   2.52186
 Alpha virt. eigenvalues --    2.52363   2.52705   2.53156   2.53324   2.53594
 Alpha virt. eigenvalues --    2.53758   2.54024   2.54543   2.54819   2.55184
 Alpha virt. eigenvalues --    2.55278   2.55909   2.56027   2.56229   2.56404
 Alpha virt. eigenvalues --    2.56727   2.57009   2.57261   2.57663   2.57811
 Alpha virt. eigenvalues --    2.58087   2.58350   2.58498   2.58600   2.58746
 Alpha virt. eigenvalues --    2.59498   2.59671   2.59843   2.60213   2.60312
 Alpha virt. eigenvalues --    2.60660   2.61053   2.61339   2.61552   2.62105
 Alpha virt. eigenvalues --    2.62277   2.62702   2.63274   2.63571   2.63861
 Alpha virt. eigenvalues --    2.63927   2.64032   2.64267   2.64730   2.65004
 Alpha virt. eigenvalues --    2.65318   2.65608   2.66086   2.66462   2.66695
 Alpha virt. eigenvalues --    2.67065   2.67588   2.67746   2.67987   2.68608
 Alpha virt. eigenvalues --    2.68748   2.69134   2.69407   2.69988   2.70033
 Alpha virt. eigenvalues --    2.70366   2.70545   2.70847   2.70984   2.71061
 Alpha virt. eigenvalues --    2.71636   2.71721   2.72092   2.72414   2.72772
 Alpha virt. eigenvalues --    2.73162   2.73446   2.74161   2.74288   2.74517
 Alpha virt. eigenvalues --    2.74968   2.75301   2.75691   2.75834   2.76625
 Alpha virt. eigenvalues --    2.77009   2.77210   2.77657   2.78069   2.78458
 Alpha virt. eigenvalues --    2.78736   2.78953   2.79269   2.79467   2.79583
 Alpha virt. eigenvalues --    2.80160   2.80268   2.80914   2.81272   2.81711
 Alpha virt. eigenvalues --    2.81836   2.82813   2.83203   2.83398   2.83955
 Alpha virt. eigenvalues --    2.84208   2.84600   2.84827   2.85514   2.85668
 Alpha virt. eigenvalues --    2.85841   2.86019   2.86697   2.87048   2.87363
 Alpha virt. eigenvalues --    2.87596   2.88031   2.88409   2.88502   2.88884
 Alpha virt. eigenvalues --    2.89073   2.89497   2.89865   2.90280   2.90312
 Alpha virt. eigenvalues --    2.90562   2.90719   2.91090   2.91193   2.91865
 Alpha virt. eigenvalues --    2.92243   2.92474   2.92710   2.92882   2.93239
 Alpha virt. eigenvalues --    2.93500   2.93937   2.94012   2.94455   2.94516
 Alpha virt. eigenvalues --    2.95017   2.95338   2.95861   2.96038   2.96240
 Alpha virt. eigenvalues --    2.96365   2.96789   2.97265   2.97470   2.97815
 Alpha virt. eigenvalues --    2.98047   2.98388   2.98656   2.98982   2.99263
 Alpha virt. eigenvalues --    2.99782   2.99941   3.00153   3.00463   3.00526
 Alpha virt. eigenvalues --    3.01262   3.01449   3.01666   3.01790   3.02119
 Alpha virt. eigenvalues --    3.02403   3.02828   3.03087   3.03244   3.03495
 Alpha virt. eigenvalues --    3.03630   3.04337   3.04563   3.04969   3.05061
 Alpha virt. eigenvalues --    3.05167   3.05406   3.05777   3.05851   3.06167
 Alpha virt. eigenvalues --    3.06654   3.06829   3.07027   3.07212   3.07580
 Alpha virt. eigenvalues --    3.08156   3.08396   3.08754   3.08988   3.09172
 Alpha virt. eigenvalues --    3.09340   3.09619   3.10135   3.10580   3.10666
 Alpha virt. eigenvalues --    3.10754   3.11043   3.11208   3.11713   3.12053
 Alpha virt. eigenvalues --    3.12237   3.12490   3.12759   3.12874   3.13374
 Alpha virt. eigenvalues --    3.13437   3.13827   3.13963   3.14123   3.14498
 Alpha virt. eigenvalues --    3.15112   3.15360   3.15520   3.15681   3.15909
 Alpha virt. eigenvalues --    3.16016   3.16493   3.16639   3.17308   3.17395
 Alpha virt. eigenvalues --    3.17565   3.17806   3.18084   3.18155   3.18504
 Alpha virt. eigenvalues --    3.18567   3.18971   3.19018   3.19295   3.19624
 Alpha virt. eigenvalues --    3.19715   3.20050   3.20409   3.20516   3.20703
 Alpha virt. eigenvalues --    3.20764   3.21256   3.21506   3.21740   3.21918
 Alpha virt. eigenvalues --    3.22323   3.22740   3.22991   3.23035   3.23295
 Alpha virt. eigenvalues --    3.23592   3.23757   3.24021   3.24284   3.24661
 Alpha virt. eigenvalues --    3.24798   3.24997   3.25272   3.25546   3.25733
 Alpha virt. eigenvalues --    3.25764   3.26449   3.26539   3.26627   3.26885
 Alpha virt. eigenvalues --    3.26989   3.27032   3.27467   3.27569   3.28067
 Alpha virt. eigenvalues --    3.28244   3.28311   3.28736   3.28940   3.29306
 Alpha virt. eigenvalues --    3.29558   3.29712   3.29961   3.30323   3.30552
 Alpha virt. eigenvalues --    3.30715   3.30895   3.31134   3.31413   3.31580
 Alpha virt. eigenvalues --    3.31935   3.32107   3.32734   3.32903   3.33197
 Alpha virt. eigenvalues --    3.33278   3.33371   3.33559   3.33763   3.34398
 Alpha virt. eigenvalues --    3.34584   3.34803   3.34932   3.35296   3.35601
 Alpha virt. eigenvalues --    3.35640   3.35914   3.36000   3.36343   3.36668
 Alpha virt. eigenvalues --    3.36970   3.36998   3.37194   3.37574   3.37848
 Alpha virt. eigenvalues --    3.38128   3.38380   3.38514   3.38756   3.39112
 Alpha virt. eigenvalues --    3.39313   3.39469   3.39707   3.40003   3.40448
 Alpha virt. eigenvalues --    3.40830   3.41062   3.41367   3.41681   3.41793
 Alpha virt. eigenvalues --    3.42280   3.42511   3.42641   3.42730   3.43317
 Alpha virt. eigenvalues --    3.43457   3.43542   3.43734   3.44301   3.44734
 Alpha virt. eigenvalues --    3.44880   3.45108   3.45243   3.45548   3.45749
 Alpha virt. eigenvalues --    3.45983   3.46518   3.46809   3.47153   3.47262
 Alpha virt. eigenvalues --    3.47565   3.47800   3.47929   3.48325   3.48536
 Alpha virt. eigenvalues --    3.48883   3.49171   3.49366   3.49662   3.50073
 Alpha virt. eigenvalues --    3.50241   3.50661   3.50747   3.51252   3.51686
 Alpha virt. eigenvalues --    3.52074   3.52410   3.52540   3.52703   3.52914
 Alpha virt. eigenvalues --    3.53309   3.53822   3.54063   3.54294   3.54660
 Alpha virt. eigenvalues --    3.54916   3.55256   3.55815   3.56192   3.56392
 Alpha virt. eigenvalues --    3.57054   3.57083   3.57419   3.57618   3.57991
 Alpha virt. eigenvalues --    3.58149   3.58724   3.59273   3.59379   3.59572
 Alpha virt. eigenvalues --    3.60506   3.60637   3.60961   3.61432   3.61672
 Alpha virt. eigenvalues --    3.62089   3.62294   3.62429   3.62993   3.63132
 Alpha virt. eigenvalues --    3.63296   3.63752   3.64401   3.64733   3.64916
 Alpha virt. eigenvalues --    3.65308   3.65890   3.66164   3.66460   3.66758
 Alpha virt. eigenvalues --    3.67016   3.67160   3.67826   3.68105   3.68430
 Alpha virt. eigenvalues --    3.69280   3.69684   3.69785   3.70084   3.70468
 Alpha virt. eigenvalues --    3.70630   3.70987   3.71252   3.71477   3.71799
 Alpha virt. eigenvalues --    3.72285   3.72577   3.72925   3.73507   3.73773
 Alpha virt. eigenvalues --    3.74063   3.74412   3.74729   3.74851   3.75050
 Alpha virt. eigenvalues --    3.75147   3.75447   3.75967   3.76165   3.76904
 Alpha virt. eigenvalues --    3.77119   3.77413   3.77829   3.77979   3.78303
 Alpha virt. eigenvalues --    3.79253   3.80092   3.80546   3.81372   3.81508
 Alpha virt. eigenvalues --    3.82181   3.82947   3.84034   3.84495   3.84801
 Alpha virt. eigenvalues --    3.84918   3.85648   3.86035   3.86206   3.86691
 Alpha virt. eigenvalues --    3.87112   3.87310   3.88076   3.88775   3.89097
 Alpha virt. eigenvalues --    3.89193   3.89572   3.90125   3.90358   3.90734
 Alpha virt. eigenvalues --    3.91224   3.91481   3.91765   3.92278   3.92598
 Alpha virt. eigenvalues --    3.93045   3.93488   3.93877   3.94271   3.94392
 Alpha virt. eigenvalues --    3.95240   3.95857   3.96297   3.96809   3.96913
 Alpha virt. eigenvalues --    3.97386   3.97814   3.98126   3.98554   3.98922
 Alpha virt. eigenvalues --    3.99198   4.00007   4.00995   4.01736   4.01889
 Alpha virt. eigenvalues --    4.02942   4.03074   4.03270   4.03474   4.04400
 Alpha virt. eigenvalues --    4.04961   4.05622   4.06103   4.06285   4.06984
 Alpha virt. eigenvalues --    4.07225   4.07816   4.08640   4.08958   4.09814
 Alpha virt. eigenvalues --    4.10402   4.10744   4.11455   4.11708   4.12396
 Alpha virt. eigenvalues --    4.13021   4.13100   4.13246   4.13967   4.14472
 Alpha virt. eigenvalues --    4.15054   4.15593   4.16050   4.16827   4.17372
 Alpha virt. eigenvalues --    4.17578   4.17940   4.18860   4.19539   4.19986
 Alpha virt. eigenvalues --    4.20129   4.20403   4.21170   4.21286   4.21779
 Alpha virt. eigenvalues --    4.22146   4.22525   4.22862   4.23815   4.24271
 Alpha virt. eigenvalues --    4.24774   4.25666   4.26064   4.26382   4.26631
 Alpha virt. eigenvalues --    4.26972   4.27116   4.27669   4.28278   4.28736
 Alpha virt. eigenvalues --    4.28974   4.29942   4.30582   4.30942   4.31193
 Alpha virt. eigenvalues --    4.31819   4.32210   4.32313   4.32557   4.32822
 Alpha virt. eigenvalues --    4.33257   4.34000   4.34400   4.34465   4.34755
 Alpha virt. eigenvalues --    4.35284   4.35966   4.36506   4.36660   4.36962
 Alpha virt. eigenvalues --    4.37390   4.38390   4.38495   4.38763   4.39569
 Alpha virt. eigenvalues --    4.40463   4.40809   4.41110   4.41430   4.42384
 Alpha virt. eigenvalues --    4.42621   4.43490   4.43787   4.44770   4.45354
 Alpha virt. eigenvalues --    4.45506   4.45977   4.46422   4.46837   4.47526
 Alpha virt. eigenvalues --    4.47889   4.48276   4.48670   4.49314   4.49807
 Alpha virt. eigenvalues --    4.51021   4.51575   4.52448   4.53388   4.53499
 Alpha virt. eigenvalues --    4.54361   4.55523   4.56235   4.56458   4.57123
 Alpha virt. eigenvalues --    4.57323   4.58016   4.58634   4.58883   4.59504
 Alpha virt. eigenvalues --    4.60236   4.60919   4.61069   4.61204   4.61453
 Alpha virt. eigenvalues --    4.63216   4.63385   4.64012   4.64248   4.64596
 Alpha virt. eigenvalues --    4.66115   4.66479   4.67019   4.67797   4.67906
 Alpha virt. eigenvalues --    4.68445   4.68962   4.70274   4.70467   4.71028
 Alpha virt. eigenvalues --    4.71603   4.71921   4.72247   4.72633   4.73205
 Alpha virt. eigenvalues --    4.73513   4.73987   4.75392   4.75853   4.76631
 Alpha virt. eigenvalues --    4.77232   4.77503   4.77995   4.78918   4.79650
 Alpha virt. eigenvalues --    4.80074   4.80427   4.80976   4.81510   4.81833
 Alpha virt. eigenvalues --    4.82336   4.83436   4.84282   4.85036   4.85768
 Alpha virt. eigenvalues --    4.85966   4.86587   4.87251   4.87471   4.88279
 Alpha virt. eigenvalues --    4.88719   4.90009   4.90597   4.90900   4.91470
 Alpha virt. eigenvalues --    4.93012   4.93338   4.94342   4.94837   4.95164
 Alpha virt. eigenvalues --    4.95672   4.96035   4.96556   4.97201   4.98027
 Alpha virt. eigenvalues --    4.98526   4.99602   4.99712   5.00155   5.00953
 Alpha virt. eigenvalues --    5.01836   5.02452   5.03016   5.03593   5.04466
 Alpha virt. eigenvalues --    5.04811   5.05594   5.06779   5.06940   5.07081
 Alpha virt. eigenvalues --    5.08250   5.09016   5.10060   5.10519   5.12155
 Alpha virt. eigenvalues --    5.12700   5.13318   5.14242   5.15543   5.16323
 Alpha virt. eigenvalues --    5.18232   5.18768   5.18912   5.19744   5.19875
 Alpha virt. eigenvalues --    5.20644   5.21483   5.21591   5.22349   5.22412
 Alpha virt. eigenvalues --    5.23290   5.23679   5.24055   5.24850   5.25155
 Alpha virt. eigenvalues --    5.25544   5.26334   5.27321   5.28022   5.29609
 Alpha virt. eigenvalues --    5.30089   5.31352   5.32294   5.32812   5.33587
 Alpha virt. eigenvalues --    5.33705   5.34702   5.37379   5.37714   5.38564
 Alpha virt. eigenvalues --    5.38732   5.39608   5.40130   5.41290   5.41841
 Alpha virt. eigenvalues --    5.42475   5.43080   5.43449   5.43971   5.44742
 Alpha virt. eigenvalues --    5.45092   5.45848   5.46338   5.47041   5.48589
 Alpha virt. eigenvalues --    5.49378   5.50863   5.51541   5.52008   5.54968
 Alpha virt. eigenvalues --    5.55408   5.56807   5.57012   5.58020   5.58834
 Alpha virt. eigenvalues --    5.59016   5.59569   5.60456   5.61047   5.61791
 Alpha virt. eigenvalues --    5.63269   5.64209   5.65435   5.66330   5.67717
 Alpha virt. eigenvalues --    5.68466   5.68919   5.70892   5.71117   5.72019
 Alpha virt. eigenvalues --    5.72661   5.74207   5.75651   5.77097   5.80868
 Alpha virt. eigenvalues --    5.81511   5.81965   5.82100   5.84262   5.90369
 Alpha virt. eigenvalues --    5.92708   5.93416   5.96395   5.97036   5.98208
 Alpha virt. eigenvalues --    6.00846   6.02364   6.03151   6.03424   6.04587
 Alpha virt. eigenvalues --    6.05814   6.06009   6.06878   6.08542   6.09816
 Alpha virt. eigenvalues --    6.10316   6.11484   6.13023   6.14337   6.16779
 Alpha virt. eigenvalues --    6.18237   6.19320   6.22090   6.23582   6.27030
 Alpha virt. eigenvalues --    6.27944   6.32130   6.32840   6.33548   6.35858
 Alpha virt. eigenvalues --    6.39226   6.40208   6.41290   6.44326   6.47231
 Alpha virt. eigenvalues --    6.48550   6.50819   6.52581   6.65838   6.67020
 Alpha virt. eigenvalues --    6.74583   6.76813   6.85107   6.86531   6.93021
 Alpha virt. eigenvalues --    6.94521   6.97532   7.08039   7.12518   7.13858
 Alpha virt. eigenvalues --    7.18832   7.19315   7.27004   7.27243  22.29697
 Alpha virt. eigenvalues --   22.31336  22.46397  22.46638  22.50401  22.52034
 Alpha virt. eigenvalues --   22.52699  22.55740  22.59325  22.62042  22.66108
 Alpha virt. eigenvalues --   22.69761  22.71382  22.77943  22.78360  22.82543
 Alpha virt. eigenvalues --   22.90225  22.91729  22.94466  22.96058  22.98759
 Alpha virt. eigenvalues --   23.00431  23.02464  23.07366  23.08350  23.10190
 Alpha virt. eigenvalues --   23.26152  23.28355  23.30034  23.32407  23.35041
 Alpha virt. eigenvalues --   23.36866  23.46559  23.48335  23.51452  23.52940
 Alpha virt. eigenvalues --   23.57490  23.59886  23.65994  23.71081  23.72561
 Alpha virt. eigenvalues --   23.80080  32.44007  32.47206  32.74272  32.85179
 Alpha virt. eigenvalues --   32.99120  33.12289  33.17665  33.40456  43.94046
 Alpha virt. eigenvalues --   43.95897  43.97668  43.97976
          Condensed to atoms (all electrons):
 Mulliken charges:
               1
     1  C   -0.362188
     2  C    0.128553
     3  N   -0.221077
     4  C   -0.191068
     5  C    0.000278
     6  N    0.135601
     7  H    0.148264
     8  H    0.111101
     9  H    0.236820
    10  H    0.154506
    11  H    0.179086
    12  C   -0.386519
    13  C    0.159915
    14  N   -0.222638
    15  C   -0.198065
    16  C    0.009501
    17  N    0.103050
    18  H    0.124888
    19  H    0.146995
    20  H    0.244004
    21  H    0.146337
    22  H    0.166101
    23  C   -0.528769
    24  C   -0.613346
    25  C   -0.530604
    26  C   -0.605704
    27  C    0.253915
    28  C   -0.025033
    29  C   -0.003091
    30  C    0.267149
    31  C   -0.444781
    32  C   -0.313470
    33  C   -0.238631
    34  C    0.296157
    35  O   -0.336118
    36  O   -0.351342
    37  C    0.225777
    38  C   -0.095296
    39  C    0.040526
    40  C    0.272678
    41  C   -0.391549
    42  C   -0.241508
    43  C   -0.285535
    44  C    0.295721
    45  C   -0.150840
    46  C    0.136806
    47  C    0.103414
    48  C   -0.407651
    49  C   -0.254917
    50  C   -0.257731
    51  C    0.277453
    52  C   -0.049376
    53  C   -0.023749
    54  C    0.309749
    55  C   -0.450814
    56  C   -0.354459
    57  C   -0.238380
    58  C    0.332581
    59  O   -0.311961
    60  O   -0.360984
    61  N   -0.042773
    62  N   -0.018393
    63  N   -0.022047
    64  N   -0.034754
    65  Fe  -0.260947
    66  H    0.113666
    67  H    0.110763
    68  H    0.104030
    69  H    0.114878
    70  H    0.109145
    71  H    0.115958
    72  H    0.145690
    73  H    0.125604
    74  H    0.141384
    75  H    0.114387
    76  H    0.147238
    77  H    0.129694
    78  H    0.113911
    79  H    0.125913
    80  H    0.155624
    81  H    0.131537
    82  H    0.136008
    83  H    0.121254
    84  H    0.135524
    85  H    0.157120
    86  H    0.129014
    87  H    0.130434
    88  H    0.123204
    89  H    0.144992
    90  H    0.155341
    91  H    0.128353
    92  H    0.095748
    93  H    0.138513
    94  H    0.123025
    95  H    0.102962
    96  H    0.148530
    97  H    0.141921
    98  H    0.357000
    99  H    0.350820
 Sum of Mulliken charges =  -0.00000
 Mulliken charges with hydrogens summed into heavy atoms:
               1
     1  C    0.045707
     2  C    0.128553
     3  N    0.015743
     4  C   -0.036562
     5  C    0.179364
     6  N    0.135601
    12  C    0.027285
    13  C    0.159915
    14  N    0.021366
    15  C   -0.051728
    16  C    0.175602
    17  N    0.103050
    23  C   -0.412811
    24  C   -0.499680
    25  C   -0.419841
    26  C   -0.501675
    27  C    0.253915
    28  C   -0.025033
    29  C   -0.003091
    30  C    0.267149
    31  C   -0.032103
    32  C   -0.051845
    33  C    0.004974
    34  C    0.296157
    35  O   -0.336118
    36  O    0.005658
    37  C    0.225777
    38  C   -0.095296
    39  C    0.040526
    40  C    0.272678
    41  C    0.021525
    42  C   -0.126630
    43  C   -0.028274
    44  C    0.295721
    45  C   -0.150840
    46  C    0.136806
    47  C    0.103414
    48  C    0.014006
    49  C   -0.145773
    50  C   -0.004093
    51  C    0.277453
    52  C   -0.049376
    53  C   -0.023749
    54  C    0.309749
    55  C   -0.022129
    56  C   -0.120199
    57  C   -0.012392
    58  C    0.332581
    59  O    0.038859
    60  O   -0.360984
    61  N   -0.042773
    62  N   -0.018393
    63  N   -0.022047
    64  N   -0.034754
    65  Fe  -0.260947
 Electronic spatial extent (au):  <R**2>=          35301.8201
 Charge=             -0.0000 electrons
 Dipole moment (field-independent basis, Debye):
    X=             -3.0389    Y=              3.4554    Z=              2.0825  Tot=              5.0509
 Quadrupole moment (field-independent basis, Debye-Ang):
   XX=           -361.5271   YY=           -338.2847   ZZ=           -268.2647
   XY=              5.8354   XZ=             19.7301   YZ=             16.6731
 Traceless Quadrupole moment (field-independent basis, Debye-Ang):
   XX=            -38.8349   YY=            -15.5925   ZZ=             54.4275
   XY=              5.8354   XZ=             19.7301   YZ=             16.6731
 Octapole moment (field-independent basis, Debye-Ang**2):
  XXX=           -207.3042  YYY=             83.4475  ZZZ=             17.5239  XYY=           -169.3297
  XXY=             25.5351  XXZ=            125.8668  XZZ=             32.2874  YZZ=             64.0400
  YYZ=             51.5208  XYZ=             56.3562
 Hexadecapole moment (field-independent basis, Debye-Ang**3):
 XXXX=         -26745.3824 YYYY=         -15994.4672 ZZZZ=          -5710.5412 XXXY=           -543.9338
 XXXZ=            848.2189 YYYX=            543.7199 YYYZ=            158.7100 ZZZX=            142.7247
 ZZZY=            305.6689 XXYY=          -8375.1353 XXZZ=          -4952.3498 YYZZ=          -3601.4076
 XXYZ=            572.5957 YYXZ=            225.7337 ZZXY=            115.8679
 N-N= 8.826355446933D+03 E-N=-2.617281405311D+04  KE= 3.613924287957D+03
 ******************************Gaussian NBO Version 3.1******************************
             N A T U R A L   A T O M I C   O R B I T A L   A N D
          N A T U R A L   B O N D   O R B I T A L   A N A L Y S I S
 ******************************Gaussian NBO Version 3.1******************************
       /RESON  / : Allow strongly delocalized NBO set

 Analyzing the SCF density

 Job title: 1aw3_II_S_nbo                                                   

 Storage needed:  11828352 in NPA,  15744951 in NBO (2147433257 available)
 GSVD:  LWork=     1814615 too small for GESVD, short by     2411490 words or     2411490 for optimal perf.


 NATURAL POPULATIONS:  Natural atomic orbital occupancies 
                                                          
   NAO  Atom  No  lang   Type(AO)    Occupancy      Energy
 ----------------------------------------------------------
     1    C    1  S      Cor( 1S)     1.99941     -10.08331
     2    C    1  S      Val( 2S)     1.11098      -0.31456
     3    C    1  S      Ryd( 3S)     0.00058       1.04179
     4    C    1  S      Ryd( 4S)     0.00015       1.98172
     5    C    1  S      Ryd( 5S)     0.00000      21.65216
     6    C    1  px     Val( 2p)     1.22309      -0.12183
     7    C    1  px     Ryd( 3p)     0.00033       0.72432
     8    C    1  px     Ryd( 4p)     0.00015       1.49152
     9    C    1  py     Val( 2p)     1.21437      -0.11940
    10    C    1  py     Ryd( 3p)     0.00088       0.81017
    11    C    1  py     Ryd( 4p)     0.00009       1.59183
    12    C    1  pz     Val( 2p)     1.08325      -0.11341
    13    C    1  pz     Ryd( 3p)     0.00042       0.74484
    14    C    1  pz     Ryd( 4p)     0.00031       1.56304
    15    C    1  dxy    Ryd( 4d)     0.00052       2.84141
    16    C    1  dxy    Ryd( 3d)     0.00006       2.43641
    17    C    1  dxz    Ryd( 4d)     0.00047       2.69335
    18    C    1  dxz    Ryd( 3d)     0.00019       2.35126
    19    C    1  dyz    Ryd( 4d)     0.00059       3.26127
    20    C    1  dyz    Ryd( 3d)     0.00004       2.42087
    21    C    1  dx2y2  Ryd( 4d)     0.00053       2.85427
    22    C    1  dx2y2  Ryd( 3d)     0.00009       2.61917
    23    C    1  dz2    Ryd( 4d)     0.00067       3.36895
    24    C    1  dz2    Ryd( 3d)     0.00003       2.52388
    25    C    1  f(0)   Ryd( 4f)     0.00007       3.51229
    26    C    1  f(C1)  Ryd( 4f)     0.00005       3.41411
    27    C    1  f(S1)  Ryd( 4f)     0.00010       3.60886
    28    C    1  f(C2)  Ryd( 4f)     0.00002       3.50281
    29    C    1  f(S2)  Ryd( 4f)     0.00001       3.32263
    30    C    1  f(C3)  Ryd( 4f)     0.00006       3.44759
    31    C    1  f(S3)  Ryd( 4f)     0.00006       3.44456

    32    C    2  S      Cor( 1S)     1.99912     -10.11461
    33    C    2  S      Val( 2S)     0.89607      -0.20520
    34    C    2  S      Ryd( 3S)     0.00113       1.54822
    35    C    2  S      Ryd( 4S)     0.00005       1.87984
    36    C    2  S      Ryd( 5S)     0.00001      21.25520
    37    C    2  px     Val( 2p)     1.07007      -0.11688
    38    C    2  px     Ryd( 3p)     0.00338       0.78714
    39    C    2  px     Ryd( 4p)     0.00051       1.36247
    40    C    2  py     Val( 2p)     0.86223      -0.04300
    41    C    2  py     Ryd( 3p)     0.00326       1.19621
    42    C    2  py     Ryd( 4p)     0.00015       1.92051
    43    C    2  pz     Val( 2p)     1.06254      -0.07102
    44    C    2  pz     Ryd( 3p)     0.00306       1.45978
    45    C    2  pz     Ryd( 4p)     0.00043       1.95652
    46    C    2  dxy    Ryd( 3d)     0.00049       1.10212
    47    C    2  dxy    Ryd( 4d)     0.00041       3.32290
    48    C    2  dxz    Ryd( 3d)     0.00080       1.13976
    49    C    2  dxz    Ryd( 4d)     0.00047       3.36095
    50    C    2  dyz    Ryd( 3d)     0.00120       1.64528
    51    C    2  dyz    Ryd( 4d)     0.00073       3.74968
    52    C    2  dx2y2  Ryd( 3d)     0.00048       1.45468
    53    C    2  dx2y2  Ryd( 4d)     0.00032       3.91996
    54    C    2  dz2    Ryd( 3d)     0.00096       1.89917
    55    C    2  dz2    Ryd( 4d)     0.00064       3.77490
    56    C    2  f(0)   Ryd( 4f)     0.00016       4.04323
    57    C    2  f(C1)  Ryd( 4f)     0.00026       3.56229
    58    C    2  f(S1)  Ryd( 4f)     0.00011       4.28814
    59    C    2  f(C2)  Ryd( 4f)     0.00010       3.84944
    60    C    2  f(S2)  Ryd( 4f)     0.00003       3.54921
    61    C    2  f(C3)  Ryd( 4f)     0.00009       3.50383
    62    C    2  f(S3)  Ryd( 4f)     0.00007       3.62306

    63    N    3  S      Cor( 1S)     1.99936     -14.24871
    64    N    3  S      Val( 2S)     1.24168      -0.58610
    65    N    3  S      Ryd( 3S)     0.00072       1.78229
    66    N    3  S      Ryd( 4S)     0.00006       2.48361
    67    N    3  S      Ryd( 5S)     0.00000      30.68954
    68    N    3  px     Val( 2p)     1.56611      -0.28282
    69    N    3  px     Ryd( 3p)     0.00232       0.60969
    70    N    3  px     Ryd( 4p)     0.00043       2.24024
    71    N    3  py     Val( 2p)     1.33452      -0.26637
    72    N    3  py     Ryd( 3p)     0.00196       1.18861
    73    N    3  py     Ryd( 4p)     0.00026       2.81563
    74    N    3  pz     Val( 2p)     1.32922      -0.27142
    75    N    3  pz     Ryd( 3p)     0.00214       1.08299
    76    N    3  pz     Ryd( 4p)     0.00033       2.95341
    77    N    3  dxy    Ryd( 3d)     0.00102       1.38505
    78    N    3  dxy    Ryd( 4d)     0.00006       4.55405
    79    N    3  dxz    Ryd( 3d)     0.00101       1.29622
    80    N    3  dxz    Ryd( 4d)     0.00007       4.49683
    81    N    3  dyz    Ryd( 3d)     0.00162       1.83623
    82    N    3  dyz    Ryd( 4d)     0.00027       4.97566
    83    N    3  dx2y2  Ryd( 3d)     0.00308       1.65348
    84    N    3  dx2y2  Ryd( 4d)     0.00005       4.79398
    85    N    3  dz2    Ryd( 3d)     0.00374       1.74938
    86    N    3  dz2    Ryd( 4d)     0.00006       4.98305
    87    N    3  f(0)   Ryd( 4f)     0.00017       5.07936
    88    N    3  f(C1)  Ryd( 4f)     0.00027       4.45894
    89    N    3  f(S1)  Ryd( 4f)     0.00011       5.01149
    90    N    3  f(C2)  Ryd( 4f)     0.00021       4.77030
    91    N    3  f(S2)  Ryd( 4f)     0.00002       4.33487
    92    N    3  f(C3)  Ryd( 4f)     0.00024       4.44354
    93    N    3  f(S3)  Ryd( 4f)     0.00018       4.58239

    94    C    4  S      Cor( 1S)     1.99893     -10.08720
    95    C    4  S      Val( 2S)     0.95127      -0.19894
    96    C    4  S      Ryd( 3S)     0.00161       1.03039
    97    C    4  S      Ryd( 4S)     0.00048       1.62717
    98    C    4  S      Ryd( 5S)     0.00001      21.86848
    99    C    4  px     Val( 2p)     1.05355      -0.10497
   100    C    4  px     Ryd( 3p)     0.00248       0.67964
   101    C    4  px     Ryd( 4p)     0.00055       1.39057
   102    C    4  py     Val( 2p)     1.13206      -0.05028
   103    C    4  py     Ryd( 3p)     0.00245       1.12133
   104    C    4  py     Ryd( 4p)     0.00083       1.63683
   105    C    4  pz     Val( 2p)     0.91870      -0.03993
   106    C    4  pz     Ryd( 3p)     0.00229       1.02846
   107    C    4  pz     Ryd( 4p)     0.00079       1.77711
   108    C    4  dxy    Ryd( 3d)     0.00086       1.35778
   109    C    4  dxy    Ryd( 4d)     0.00006       3.07407
   110    C    4  dxz    Ryd( 3d)     0.00047       1.41651
   111    C    4  dxz    Ryd( 4d)     0.00020       3.22906
   112    C    4  dyz    Ryd( 3d)     0.00122       1.86689
   113    C    4  dyz    Ryd( 4d)     0.00041       3.82417
   114    C    4  dx2y2  Ryd( 3d)     0.00117       1.75843
   115    C    4  dx2y2  Ryd( 4d)     0.00014       3.59812
   116    C    4  dz2    Ryd( 3d)     0.00098       1.84665
   117    C    4  dz2    Ryd( 4d)     0.00050       3.71418
   118    C    4  f(0)   Ryd( 4f)     0.00005       3.94098
   119    C    4  f(C1)  Ryd( 4f)     0.00004       3.45888
   120    C    4  f(S1)  Ryd( 4f)     0.00010       4.36393
   121    C    4  f(C2)  Ryd( 4f)     0.00005       3.86399
   122    C    4  f(S2)  Ryd( 4f)     0.00003       3.61140
   123    C    4  f(C3)  Ryd( 4f)     0.00014       3.41938
   124    C    4  f(S3)  Ryd( 4f)     0.00012       3.74881

   125    C    5  S      Cor( 1S)     1.99936     -10.14467
   126    C    5  S      Val( 2S)     0.90512      -0.19909
   127    C    5  S      Ryd( 3S)     0.00226       1.20278
   128    C    5  S      Ryd( 4S)     0.00049       1.38489
   129    C    5  S      Ryd( 5S)     0.00001      22.04249
   130    C    5  px     Val( 2p)     0.99059      -0.12369
   131    C    5  px     Ryd( 3p)     0.00348       0.77151
   132    C    5  px     Ryd( 4p)     0.00056       1.22031
   133    C    5  py     Val( 2p)     1.06529      -0.06742
   134    C    5  py     Ryd( 3p)     0.00375       1.20927
   135    C    5  py     Ryd( 4p)     0.00068       1.46874
   136    C    5  pz     Val( 2p)     0.83443      -0.03315
   137    C    5  pz     Ryd( 3p)     0.00348       1.18435
   138    C    5  pz     Ryd( 4p)     0.00078       1.60499
   139    C    5  dxy    Ryd( 4d)     0.00041       3.11742
   140    C    5  dxy    Ryd( 3d)     0.00017       2.31319
   141    C    5  dxz    Ryd( 4d)     0.00075       3.16386
   142    C    5  dxz    Ryd( 3d)     0.00006       2.45997
   143    C    5  dyz    Ryd( 4d)     0.00054       3.89170
   144    C    5  dyz    Ryd( 3d)     0.00017       2.90948
   145    C    5  dx2y2  Ryd( 4d)     0.00031       3.67215
   146    C    5  dx2y2  Ryd( 3d)     0.00015       2.60779
   147    C    5  dz2    Ryd( 4d)     0.00060       4.10011
   148    C    5  dz2    Ryd( 3d)     0.00016       2.77793
   149    C    5  f(0)   Ryd( 4f)     0.00007       3.86992
   150    C    5  f(C1)  Ryd( 4f)     0.00004       3.47360
   151    C    5  f(S1)  Ryd( 4f)     0.00002       4.29113
   152    C    5  f(C2)  Ryd( 4f)     0.00010       3.83476
   153    C    5  f(S2)  Ryd( 4f)     0.00003       3.40707
   154    C    5  f(C3)  Ryd( 4f)     0.00010       3.38036
   155    C    5  f(S3)  Ryd( 4f)     0.00010       3.55906

   156    N    6  S      Cor( 1S)     1.99939     -14.18800
   157    N    6  S      Val( 2S)     1.30275      -0.54343
   158    N    6  S      Ryd( 3S)     0.00451       1.71980
   159    N    6  S      Ryd( 4S)     0.00010       4.21645
   160    N    6  S      Ryd( 5S)     0.00000      31.85073
   161    N    6  px     Val( 2p)     1.31376      -0.19239
   162    N    6  px     Ryd( 3p)     0.00902       0.75850
   163    N    6  px     Ryd( 4p)     0.00016       2.59024
   164    N    6  py     Val( 2p)     1.20342      -0.17471
   165    N    6  py     Ryd( 3p)     0.01012       1.25576
   166    N    6  py     Ryd( 4p)     0.00013       3.63639
   167    N    6  pz     Val( 2p)     1.45810      -0.22082
   168    N    6  pz     Ryd( 3p)     0.01065       1.44150
   169    N    6  pz     Ryd( 4p)     0.00027       3.76254
   170    N    6  dxy    Ryd( 3d)     0.00070       1.44499
   171    N    6  dxy    Ryd( 4d)     0.00022       4.71099
   172    N    6  dxz    Ryd( 3d)     0.00298       1.55104
   173    N    6  dxz    Ryd( 4d)     0.00011       4.77363
   174    N    6  dyz    Ryd( 3d)     0.00458       1.94557
   175    N    6  dyz    Ryd( 4d)     0.00020       5.11873
   176    N    6  dx2y2  Ryd( 3d)     0.00263       1.64169
   177    N    6  dx2y2  Ryd( 4d)     0.00010       4.90095
   178    N    6  dz2    Ryd( 3d)     0.00199       1.71815
   179    N    6  dz2    Ryd( 4d)     0.00027       4.88727
   180    N    6  f(0)   Ryd( 4f)     0.00014       4.75778
   181    N    6  f(C1)  Ryd( 4f)     0.00006       4.33616
   182    N    6  f(S1)  Ryd( 4f)     0.00009       4.98946
   183    N    6  f(C2)  Ryd( 4f)     0.00018       4.81946
   184    N    6  f(S2)  Ryd( 4f)     0.00004       4.59891
   185    N    6  f(C3)  Ryd( 4f)     0.00022       4.47394
   186    N    6  f(S3)  Ryd( 4f)     0.00015       4.57566

   187    H    7  S      Val( 1S)     0.76881       0.01754
   188    H    7  S      Ryd( 2S)     0.00047       0.81227
   189    H    7  S      Ryd( 3S)     0.00012       1.66782
   190    H    7  px     Ryd( 2p)     0.00044       2.82130
   191    H    7  py     Ryd( 2p)     0.00008       2.17846
   192    H    7  pz     Ryd( 2p)     0.00022       2.11995

   193    H    8  S      Val( 1S)     0.78816       0.00062
   194    H    8  S      Ryd( 2S)     0.00043       0.96512
   195    H    8  S      Ryd( 3S)     0.00010       1.53553
   196    H    8  px     Ryd( 2p)     0.00009       2.06797
   197    H    8  py     Ryd( 2p)     0.00033       2.52387
   198    H    8  pz     Ryd( 2p)     0.00036       2.53069

   199    H    9  S      Val( 1S)     0.57992       0.04892
   200    H    9  S      Ryd( 3S)     0.00042       1.97098
   201    H    9  S      Ryd( 2S)     0.00033       1.01729
   202    H    9  px     Ryd( 2p)     0.00057       2.16233
   203    H    9  py     Ryd( 2p)     0.00018       2.96524
   204    H    9  pz     Ryd( 2p)     0.00026       2.86986

   205    H   10  S      Val( 1S)     0.76707       0.05331
   206    H   10  S      Ryd( 2S)     0.00046       0.83643
   207    H   10  S      Ryd( 3S)     0.00030       2.09142
   208    H   10  px     Ryd( 2p)     0.00026       2.31543
   209    H   10  py     Ryd( 2p)     0.00036       3.17617
   210    H   10  pz     Ryd( 2p)     0.00007       2.69024

   211    H   11  S      Val( 1S)     0.77295       0.02354
   212    H   11  S      Ryd( 2S)     0.00064       0.63761
   213    H   11  S      Ryd( 3S)     0.00030       2.40127
   214    H   11  px     Ryd( 2p)     0.00021       2.21056
   215    H   11  py     Ryd( 2p)     0.00044       3.10993
   216    H   11  pz     Ryd( 2p)     0.00030       2.64888

   217    C   12  S      Cor( 1S)     1.99940     -10.07786
   218    C   12  S      Val( 2S)     1.10660      -0.30917
   219    C   12  S      Ryd( 3S)     0.00057       1.01647
   220    C   12  S      Ryd( 4S)     0.00015       1.91300
   221    C   12  S      Ryd( 5S)     0.00000      21.66398
   222    C   12  px     Val( 2p)     1.22160      -0.11668
   223    C   12  px     Ryd( 3p)     0.00013       0.91623
   224    C   12  px     Ryd( 4p)     0.00013       1.36540
   225    C   12  py     Val( 2p)     1.15746      -0.11861
   226    C   12  py     Ryd( 3p)     0.00084       0.90141
   227    C   12  py     Ryd( 4p)     0.00017       1.48235
   228    C   12  pz     Val( 2p)     1.14698      -0.11352
   229    C   12  pz     Ryd( 3p)     0.00054       0.89597
   230    C   12  pz     Ryd( 4p)     0.00019       1.38895
   231    C   12  dxy    Ryd( 4d)     0.00030       2.62148
   232    C   12  dxy    Ryd( 3d)     0.00021       2.41515
   233    C   12  dxz    Ryd( 4d)     0.00079       3.00455
   234    C   12  dxz    Ryd( 3d)     0.00004       2.26533
   235    C   12  dyz    Ryd( 4d)     0.00081       3.46839
   236    C   12  dyz    Ryd( 3d)     0.00003       2.50236
   237    C   12  dx2y2  Ryd( 4d)     0.00071       3.11253
   238    C   12  dx2y2  Ryd( 3d)     0.00005       2.40674
   239    C   12  dz2    Ryd( 4d)     0.00016       2.95936
   240    C   12  dz2    Ryd( 3d)     0.00004       2.65483
   241    C   12  f(0)   Ryd( 4f)     0.00004       3.44453
   242    C   12  f(C1)  Ryd( 4f)     0.00002       3.37638
[...]
 Alpha virt. eigenvalues --    2.96654   2.97103   2.97506   2.97658   2.97944
 Alpha virt. eigenvalues --    2.98268   2.98695   2.98859   2.99144   2.99530
 Alpha virt. eigenvalues --    2.99876   3.00121   3.00231   3.00650   3.00762
 Alpha virt. eigenvalues --    3.01455   3.01652   3.01785   3.01876   3.02467
 Alpha virt. eigenvalues --    3.02576   3.03059   3.03313   3.03342   3.03746
 Alpha virt. eigenvalues --    3.03913   3.04539   3.04699   3.05067   3.05206
 Alpha virt. eigenvalues --    3.05278   3.05639   3.05996   3.06175   3.06427
 Alpha virt. eigenvalues --    3.06862   3.07016   3.07341   3.07422   3.07882
 Alpha virt. eigenvalues --    3.08168   3.08515   3.08924   3.09227   3.09508
 Alpha virt. eigenvalues --    3.09625   3.09864   3.10367   3.10704   3.10838
 Alpha virt. eigenvalues --    3.10960   3.11241   3.11416   3.11923   3.12174
 Alpha virt. eigenvalues --    3.12642   3.12697   3.12849   3.13126   3.13502
 Alpha virt. eigenvalues --    3.13618   3.13993   3.14151   3.14303   3.14538
 Alpha virt. eigenvalues --    3.15235   3.15425   3.15708   3.15918   3.15997
 Alpha virt. eigenvalues --    3.16058   3.16651   3.16900   3.17464   3.17842
 Alpha virt. eigenvalues --    3.17866   3.18048   3.18239   3.18283   3.18587
 Alpha virt. eigenvalues --    3.18753   3.19094   3.19350   3.19590   3.19810
 Alpha virt. eigenvalues --    3.19906   3.20204   3.20693   3.20811   3.20919
 Alpha virt. eigenvalues --    3.21001   3.21501   3.21693   3.21817   3.22164
 Alpha virt. eigenvalues --    3.22483   3.22828   3.23072   3.23103   3.23457
 Alpha virt. eigenvalues --    3.23784   3.23886   3.24178   3.24311   3.24773
 Alpha virt. eigenvalues --    3.25006   3.25142   3.25426   3.25805   3.25876
 Alpha virt. eigenvalues --    3.26070   3.26568   3.26682   3.26881   3.27058
 Alpha virt. eigenvalues --    3.27233   3.27297   3.27601   3.27751   3.28290
 Alpha virt. eigenvalues --    3.28465   3.28542   3.28894   3.29093   3.29372
 Alpha virt. eigenvalues --    3.29681   3.29839   3.30058   3.30451   3.30653
 Alpha virt. eigenvalues --    3.30761   3.31075   3.31257   3.31534   3.31888
 Alpha virt. eigenvalues --    3.31983   3.32236   3.32820   3.33081   3.33346
 Alpha virt. eigenvalues --    3.33424   3.33593   3.33846   3.33955   3.34593
 Alpha virt. eigenvalues --    3.34807   3.34971   3.35298   3.35585   3.35673
 Alpha virt. eigenvalues --    3.35857   3.36090   3.36233   3.36745   3.36785
 Alpha virt. eigenvalues --    3.37064   3.37150   3.37409   3.37715   3.38008
 Alpha virt. eigenvalues --    3.38236   3.38493   3.38703   3.38866   3.39291
 Alpha virt. eigenvalues --    3.39538   3.39702   3.39790   3.40144   3.40654
 Alpha virt. eigenvalues --    3.40919   3.41287   3.41430   3.41759   3.42003
 Alpha virt. eigenvalues --    3.42466   3.42579   3.42775   3.42895   3.43403
 Alpha virt. eigenvalues --    3.43535   3.43828   3.43887   3.44346   3.44938
 Alpha virt. eigenvalues --    3.45094   3.45242   3.45447   3.45553   3.45888
 Alpha virt. eigenvalues --    3.46070   3.46601   3.46985   3.47179   3.47495
 Alpha virt. eigenvalues --    3.47730   3.48043   3.48073   3.48428   3.48631
 Alpha virt. eigenvalues --    3.49047   3.49489   3.49604   3.49749   3.50208
 Alpha virt. eigenvalues --    3.50486   3.50759   3.50971   3.51344   3.51781
 Alpha virt. eigenvalues --    3.52144   3.52516   3.52633   3.52871   3.53045
 Alpha virt. eigenvalues --    3.53458   3.53940   3.54194   3.54337   3.54714
 Alpha virt. eigenvalues --    3.55056   3.55369   3.56013   3.56361   3.56585
 Alpha virt. eigenvalues --    3.57162   3.57250   3.57525   3.57779   3.58228
 Alpha virt. eigenvalues --    3.58304   3.58941   3.59392   3.59546   3.59719
 Alpha virt. eigenvalues --    3.60569   3.60793   3.61108   3.61722   3.61813
 Alpha virt. eigenvalues --    3.62201   3.62405   3.62654   3.63173   3.63355
 Alpha virt. eigenvalues --    3.63646   3.63924   3.64499   3.64900   3.65108
 Alpha virt. eigenvalues --    3.65529   3.65952   3.66280   3.66509   3.66853
 Alpha virt. eigenvalues --    3.67231   3.67444   3.67876   3.68134   3.68581
 Alpha virt. eigenvalues --    3.69307   3.69747   3.69889   3.70189   3.70627
 Alpha virt. eigenvalues --    3.70810   3.71223   3.71477   3.71905   3.72197
 Alpha virt. eigenvalues --    3.72421   3.72762   3.73403   3.73633   3.74041
 Alpha virt. eigenvalues --    3.74262   3.74686   3.74966   3.74997   3.75152
 Alpha virt. eigenvalues --    3.75320   3.75815   3.76205   3.76575   3.77008
 Alpha virt. eigenvalues --    3.77347   3.77498   3.78044   3.78185   3.78647
 Alpha virt. eigenvalues --    3.79222   3.80273   3.80561   3.81310   3.81543
 Alpha virt. eigenvalues --    3.82415   3.82987   3.84039   3.84686   3.84935
 Alpha virt. eigenvalues --    3.85542   3.85847   3.86186   3.86403   3.86744
 Alpha virt. eigenvalues --    3.87271   3.87674   3.88322   3.88808   3.89262
 Alpha virt. eigenvalues --    3.89692   3.89885   3.90422   3.90693   3.90910
 Alpha virt. eigenvalues --    3.91606   3.91872   3.92067   3.92638   3.92942
 Alpha virt. eigenvalues --    3.93387   3.93869   3.94314   3.94476   3.94565
 Alpha virt. eigenvalues --    3.95256   3.96025   3.96563   3.96943   3.97162
 Alpha virt. eigenvalues --    3.97712   3.97904   3.98501   3.98594   3.99134
 Alpha virt. eigenvalues --    3.99281   4.00044   4.00911   4.01742   4.01937
 Alpha virt. eigenvalues --    4.02946   4.03204   4.03347   4.03707   4.04407
 Alpha virt. eigenvalues --    4.05035   4.05837   4.06219   4.06627   4.07076
 Alpha virt. eigenvalues --    4.07537   4.07875   4.08711   4.08984   4.09848
 Alpha virt. eigenvalues --    4.10682   4.10897   4.11612   4.11733   4.12364
 Alpha virt. eigenvalues --    4.13054   4.13129   4.13495   4.14033   4.14537
 Alpha virt. eigenvalues --    4.15145   4.15708   4.16082   4.16840   4.17358
 Alpha virt. eigenvalues --    4.17694   4.17986   4.18701   4.19587   4.20010
 Alpha virt. eigenvalues --    4.20308   4.20590   4.21122   4.21322   4.21710
 Alpha virt. eigenvalues --    4.22037   4.22601   4.22899   4.23785   4.24353
 Alpha virt. eigenvalues --    4.24840   4.25572   4.26181   4.26524   4.27031
 Alpha virt. eigenvalues --    4.27170   4.27690   4.27862   4.28224   4.29010
 Alpha virt. eigenvalues --    4.29563   4.29978   4.30621   4.30893   4.31385
 Alpha virt. eigenvalues --    4.32040   4.32230   4.32283   4.32692   4.32922
 Alpha virt. eigenvalues --    4.33567   4.34198   4.34531   4.34642   4.34838
 Alpha virt. eigenvalues --    4.35437   4.36402   4.36686   4.36816   4.37278
 Alpha virt. eigenvalues --    4.37446   4.38523   4.38789   4.39050   4.39773
 Alpha virt. eigenvalues --    4.40558   4.40728   4.41296   4.41641   4.42614
 Alpha virt. eigenvalues --    4.43002   4.43565   4.43929   4.44941   4.45453
 Alpha virt. eigenvalues --    4.45689   4.46269   4.46527   4.46806   4.47692
 Alpha virt. eigenvalues --    4.47990   4.48417   4.49165   4.49475   4.49880
 Alpha virt. eigenvalues --    4.51071   4.51788   4.52487   4.53490   4.53569
 Alpha virt. eigenvalues --    4.54473   4.55522   4.56288   4.56433   4.57252
 Alpha virt. eigenvalues --    4.57513   4.58361   4.59027   4.59089   4.59495
 Alpha virt. eigenvalues --    4.60406   4.61053   4.61084   4.61358   4.61694
 Alpha virt. eigenvalues --    4.63276   4.63471   4.64113   4.64498   4.64730
 Alpha virt. eigenvalues --    4.66081   4.66693   4.67121   4.67837   4.68028
 Alpha virt. eigenvalues --    4.68681   4.68947   4.70254   4.70742   4.71374
 Alpha virt. eigenvalues --    4.71706   4.72230   4.72566   4.72834   4.73286
 Alpha virt. eigenvalues --    4.73660   4.74551   4.75572   4.76281   4.77183
 Alpha virt. eigenvalues --    4.77578   4.77920   4.78260   4.79086   4.79875
 Alpha virt. eigenvalues --    4.80234   4.81048   4.81487   4.81815   4.82401
 Alpha virt. eigenvalues --    4.82514   4.83563   4.84867   4.85429   4.85780
 Alpha virt. eigenvalues --    4.86059   4.86916   4.87547   4.87757   4.88271
 Alpha virt. eigenvalues --    4.88769   4.90046   4.90747   4.91189   4.91555
 Alpha virt. eigenvalues --    4.92936   4.93727   4.94509   4.94893   4.95385
 Alpha virt. eigenvalues --    4.95780   4.96125   4.96703   4.97256   4.98061
 Alpha virt. eigenvalues --    4.98453   4.99575   4.99643   5.00417   5.01080
 Alpha virt. eigenvalues --    5.01788   5.02525   5.03673   5.04018   5.04408
 Alpha virt. eigenvalues --    5.04989   5.05572   5.06673   5.06815   5.07062
 Alpha virt. eigenvalues --    5.08120   5.08954   5.10428   5.10587   5.12422
 Alpha virt. eigenvalues --    5.12633   5.13744   5.14781   5.15699   5.16327
 Alpha virt. eigenvalues --    5.17997   5.18663   5.18914   5.19804   5.19846
 Alpha virt. eigenvalues --    5.21081   5.21332   5.21445   5.22159   5.22520
 Alpha virt. eigenvalues --    5.23709   5.23795   5.24279   5.25023   5.25290
 Alpha virt. eigenvalues --    5.25510   5.26378   5.27337   5.27952   5.29529
 Alpha virt. eigenvalues --    5.30113   5.31328   5.32319   5.32970   5.33596
 Alpha virt. eigenvalues --    5.34166   5.35028   5.37562   5.37900   5.38377
 Alpha virt. eigenvalues --    5.38753   5.39603   5.40103   5.41373   5.41910
 Alpha virt. eigenvalues --    5.42465   5.43301   5.43725   5.43956   5.44852
 Alpha virt. eigenvalues --    5.45042   5.45802   5.46268   5.47028   5.48630
 Alpha virt. eigenvalues --    5.49910   5.51190   5.51726   5.51882   5.55169
 Alpha virt. eigenvalues --    5.55488   5.56786   5.57049   5.58294   5.58654
 Alpha virt. eigenvalues --    5.58988   5.59706   5.60793   5.61096   5.61429
 Alpha virt. eigenvalues --    5.63337   5.64303   5.65516   5.66551   5.68327
 Alpha virt. eigenvalues --    5.68553   5.69035   5.70803   5.71128   5.72260
 Alpha virt. eigenvalues --    5.72980   5.74117   5.75424   5.77336   5.80773
 Alpha virt. eigenvalues --    5.81638   5.82170   5.82299   5.84137   5.90795
 Alpha virt. eigenvalues --    5.92821   5.93446   5.96443   5.97175   5.98346
 Alpha virt. eigenvalues --    6.00636   6.02372   6.03065   6.03475   6.04698
 Alpha virt. eigenvalues --    6.06220   6.06381   6.07047   6.08385   6.09870
 Alpha virt. eigenvalues --    6.10272   6.11263   6.12962   6.14623   6.17546
 Alpha virt. eigenvalues --    6.18153   6.19629   6.22033   6.23280   6.27175
 Alpha virt. eigenvalues --    6.27698   6.31911   6.32749   6.33314   6.35724
 Alpha virt. eigenvalues --    6.39127   6.40502   6.41087   6.44392   6.47039
 Alpha virt. eigenvalues --    6.48766   6.50396   6.52727   6.66210   6.67724
 Alpha virt. eigenvalues --    6.74838   6.76732   6.84485   6.86118   6.93265
 Alpha virt. eigenvalues --    6.94517   6.98042   7.08009   7.12408   7.13907
 Alpha virt. eigenvalues --    7.18638   7.19055   7.26968   7.27933  22.29814
 Alpha virt. eigenvalues --   22.31259  22.47902  22.48184  22.51042  22.52349
 Alpha virt. eigenvalues --   22.53008  22.55860  22.60184  22.62481  22.66771
 Alpha virt. eigenvalues --   22.70392  22.71539  22.78156  22.78864  22.82447
 Alpha virt. eigenvalues --   22.90088  22.91611  22.94343  22.95889  22.98683
 Alpha virt. eigenvalues --   23.00412  23.02409  23.07810  23.08846  23.10201
 Alpha virt. eigenvalues --   23.26834  23.28878  23.30060  23.32206  23.34831
 Alpha virt. eigenvalues --   23.36667  23.46435  23.48122  23.51220  23.52745
 Alpha virt. eigenvalues --   23.57247  23.59852  23.65846  23.70912  23.72297
 Alpha virt. eigenvalues --   23.79881  32.45200  32.48388  32.74645  32.85336
 Alpha virt. eigenvalues --   32.98834  33.11999  33.17378  33.40370  43.93646
 Alpha virt. eigenvalues --   43.96699  43.97558  43.98228
          Condensed to atoms (all electrons):
 Mulliken charges:
               1
     1  C   -0.394548
     2  C    0.119149
     3  N   -0.209130
     4  C   -0.235497
     5  C   -0.021546
     6  N    0.110466
     7  H    0.155918
     8  H    0.139267
     9  H    0.281411
    10  H    0.173708
    11  H    0.196922
    12  C   -0.411479
    13  C    0.141704
    14  N   -0.211006
    15  C   -0.239393
    16  C   -0.017200
    17  N    0.079862
    18  H    0.142843
    19  H    0.159208
    20  H    0.287651
    21  H    0.169361
    22  H    0.187683
    23  C   -0.538055
    24  C   -0.628619
    25  C   -0.539546
    26  C   -0.620467
    27  C    0.221131
    28  C   -0.049361
    29  C   -0.014389
    30  C    0.261757
    31  C   -0.469412
    32  C   -0.300223
    33  C   -0.249321
    34  C    0.317035
    35  O   -0.387156
    36  O   -0.370456
    37  C    0.214299
    38  C   -0.098938
    39  C    0.024820
    40  C    0.244722
    41  C   -0.415431
    42  C   -0.272609
    43  C   -0.332528
    44  C    0.258008
    45  C   -0.145334
    46  C    0.106407
    47  C    0.120795
    48  C   -0.428936
    49  C   -0.285171
    50  C   -0.311608
    51  C    0.256536
    52  C   -0.059223
    53  C   -0.044564
    54  C    0.269679
    55  C   -0.466639
    56  C   -0.360998
    57  C   -0.238799
    58  C    0.338306
    59  O   -0.330398
    60  O   -0.417239
    61  N   -0.046433
    62  N   -0.030664
    63  N   -0.025052
    64  N   -0.042382
    65  Fe  -0.228172
    66  H    0.150326
    67  H    0.149333
    68  H    0.141500
    69  H    0.147961
    70  H    0.143369
    71  H    0.161249
    72  H    0.156358
    73  H    0.145441
    74  H    0.153179
    75  H    0.123739
    76  H    0.140130
    77  H    0.150343
    78  H    0.130617
    79  H    0.143863
    80  H    0.158836
    81  H    0.148036
    82  H    0.159934
    83  H    0.147444
    84  H    0.152496
    85  H    0.160801
    86  H    0.146099
    87  H    0.157827
    88  H    0.151961
    89  H    0.159564
    90  H    0.162586
    91  H    0.146936
    92  H    0.119089
    93  H    0.141093
    94  H    0.127747
    95  H    0.132980
    96  H    0.159125
    97  H    0.153354
    98  H    0.393697
    99  H    0.392259
 Sum of Mulliken charges =  -0.00000
 Mulliken charges with hydrogens summed into heavy atoms:
               1
     1  C    0.059762
     2  C    0.119149
     3  N    0.072281
     4  C   -0.061790
     5  C    0.175376
     6  N    0.110466
    12  C    0.043925
    13  C    0.141704
    14  N    0.076646
    15  C   -0.070032
    16  C    0.170483
    17  N    0.079862
    23  C   -0.376806
    24  C   -0.478293
    25  C   -0.390213
    26  C   -0.478967
    27  C    0.221131
    28  C   -0.049361
    29  C   -0.014389
    30  C    0.261757
    31  C   -0.014434
    32  C   -0.036353
    33  C    0.031638
    34  C    0.317035
    35  O   -0.387156
    36  O    0.023242
    37  C    0.214299
    38  C   -0.098938
    39  C    0.024820
    40  C    0.244722
    41  C    0.035304
    42  C   -0.124647
    43  C   -0.025150
    44  C    0.258008
    45  C   -0.145334
    46  C    0.106407
    47  C    0.120795
    48  C    0.030460
    49  C   -0.141802
    50  C   -0.001820
    51  C    0.256536
    52  C   -0.059223
    53  C   -0.044564
    54  C    0.269679
    55  C    0.002448
    56  C   -0.100816
    57  C    0.021929
    58  C    0.338306
    59  O    0.061861
    60  O   -0.417239
    61  N   -0.046433
    62  N   -0.030664
    63  N   -0.025052
    64  N   -0.042382
    65  Fe  -0.228172
 Electronic spatial extent (au):  <R**2>=          35289.5031
 Charge=              0.0000 electrons
 Dipole moment (field-independent basis, Debye):
    X=             -2.9824    Y=              4.8010    Z=              2.3229  Tot=              6.1106
 Quadrupole moment (field-independent basis, Debye-Ang):
   XX=           -361.0519   YY=           -334.9252   ZZ=           -255.5327
   XY=              6.4486   XZ=             23.9427   YZ=             20.0390
 Traceless Quadrupole moment (field-independent basis, Debye-Ang):
   XX=            -43.8819   YY=            -17.7553   ZZ=             61.6372
   XY=              6.4486   XZ=             23.9427   YZ=             20.0390
 Octapole moment (field-independent basis, Debye-Ang**2):
  XXX=           -256.9868  YYY=            109.2035  ZZZ=             20.6828  XYY=           -207.5077
  XXY=             34.2052  XXZ=            144.4029  XZZ=             28.8896  YZZ=             77.3393
  YYZ=             59.8352  XYZ=             69.1949
 Hexadecapole moment (field-independent basis, Debye-Ang**3):
 XXXX=         -26834.8046 YYYY=         -15829.9417 ZZZZ=          -5304.3215 XXXY=           -635.1334
 XXXZ=           1038.9227 YYYX=            630.5890 YYYZ=            152.5884 ZZZX=            157.5945
 ZZZY=            369.6543 XXYY=          -8551.0610 XXZZ=          -4868.9578 YYZZ=          -3545.5329
 XXYZ=            669.4088 YYXZ=            269.8847 ZZXY=            127.8243
 N-N= 8.826332314484D+03 E-N=-2.617575112827D+04  KE= 3.613950619466D+03
 1\1\GINC-NODE376\SP\RPBE1PBE\def2TZVP\C42H44Fe1N8O4\KLEICH\13-Oct-2022
 \0\\# PBE1PBE/def2TZVP empiricaldispersion=GD3BJ int=(grid=ultrafine) 
 geom=check guess=read scrf=(smd,solvent=Chloroform)\\1aw3_II_S_solv\\0
 ,1\C,0,4.428,9.754,1.996\C,0,3.012,9.72,2.522\N,0,2.674,9.452,3.824\C,
 0,1.843,9.805,1.81\C,0,1.338,9.387,3.894\N,0,0.779,9.575,2.689\H,0,4.5
 83,8.873,1.373\H,0,5.099,9.671,2.852\H,0,3.321,9.286,4.585\H,0,1.751,9
 .989,0.755\H,0,0.806,9.184,4.805\C,0,-6.248,10.013,0.126\C,0,-5.16,9.6
 94,1.112\N,0,-5.297,8.979,2.278\C,0,-3.834,9.989,0.948\C,0,-4.062,8.85
 8,2.802\N,0,-3.129,9.446,2.021\H,0,-6.869,9.133,-0.016\H,0,-5.763,10.2
 07,-0.826\H,0,-6.156,8.576,2.649\H,0,-3.408,10.531,0.12\H,0,-3.877,8.3
 33,3.724\C,0,-1.333,12.913,2.873\C,0,-0.466,10.195,-1.128\C,0,-1.143,6
 .149,1.56\C,0,-1.72,8.874,5.632\C,0,-1.123,12.495,1.558\C,0,-1.063,13.
 397,0.434\C,0,-0.748,12.656,-0.682\C,0,-0.715,11.269,-0.274\C,0,-0.515
 ,13.218,-2.067\C,0,-1.36,14.878,0.473\C,0,-2.786,15.185,0.941\C,0,-3.1
 53,16.658,0.83\O,0,-2.5,17.359,0.027\O,0,-4.098,17.055,1.544\C,0,-0.53
 4,8.873,-0.708\C,0,-0.314,7.74,-1.577\C,0,-0.563,6.629,-0.812\C,0,-0.8
 63,7.033,0.532\C,0,0.108,7.775,-3.026\C,0,-0.44,5.191,-1.257\C,0,-0.98
 1,4.782,-2.415\C,0,-1.347,6.551,2.877\C,0,-1.673,5.652,3.954\C,0,-1.69
 9,6.409,5.097\C,0,-1.571,7.799,4.746\C,0,-1.997,4.189,3.838\C,0,-2.042
 ,5.893,6.476\C,0,-1.558,4.719,6.939\C,0,-1.672,10.215,5.225\C,0,-1.869
 ,11.355,6.093\C,0,-1.72,12.494,5.327\C,0,-1.482,12.058,3.967\C,0,-2.22
 1,11.305,7.561\C,0,-1.929,13.933,5.773\C,0,-1.24,14.359,7.076\C,0,-1.5
 61,15.812,7.393\O,0,-0.742,16.674,7.011\O,0,-2.63,16.031,8.002\N,0,-0.
 975,11.234,1.077\N,0,-0.821,8.393,0.554\N,0,-1.332,7.823,3.394\N,0,-1.
 461,10.7,3.968\Fe,0,-1.148,9.534,2.257\H,0,-0.257,10.379,-2.168\H,0,-1
 .196,5.104,1.306\H,0,-1.899,8.65,6.671\H,0,-0.18,4.44,-0.536\H,0,-2.63
 5,6.508,7.131\H,0,-1.347,13.973,3.044\H,0,0.244,13.998,-2.019\H,0,-0.1
 76,12.464,-2.774\H,0,-1.442,13.654,-2.439\H,0,-0.665,15.381,1.137\H,0,
 -1.23,15.299,-0.524\H,0,-3.456,14.608,0.324\H,0,-2.954,14.883,1.971\H,
 0,0.921,8.486,-3.162\H,0,0.467,6.797,-3.34\H,0,-0.741,8.059,-3.645\H,0
 ,-1.84,5.341,-2.723\H,0,-0.882,3.752,-2.724\H,0,-1.096,3.595,3.995\H,0
 ,-2.746,3.95,4.592\H,0,-2.42,3.965,2.862\H,0,-0.823,4.169,6.371\H,0,-1
 .719,4.449,7.972\H,0,-1.321,11.466,8.155\H,0,-2.959,12.076,7.784\H,0,-
 2.658,10.349,7.838\H,0,-1.535,14.623,5.031\H,0,-3.002,14.12,5.836\H,0,
 -1.564,13.767,7.925\H,0,-0.163,14.253,6.971\H,0,4.60592924,10.65110633
 ,1.44062498\H,0,-6.83464038,10.83913137,0.46988957\H,0,-3.91740169,17.
 51318705,2.36804422\H,0,0.20042932,16.50684755,7.08507452\\Version=ES6
 4L-G16RevA.03\State=1-A\HF=-3627.7550009\RMSD=4.243e-09\Dipole=1.03002
 51,-1.5891417,1.4810248\Quadrupole=39.9269371,-29.7697536,-10.1571836,
 20.8862641,22.3872,1.3938929\PG=C01 [X(C42H44Fe1N8O4)]\\@


 The most important thing in communication is to hear what isn't being said.
 -- Peter F. Drucker
 Job cpu time:       1 days 17 hours 28 minutes 20.8 seconds.
 Elapsed time:       0 days 10 hours 25 minutes 22.3 seconds.
 File lengths (MBytes):  RWF=   2863 Int=      0 D2E=      0 Chk=    259 Scr=      1
 Normal termination of Gaussian 16 at Thu Oct 13 00:54:05 2022.
