 Entering Gaussian System, Link 0=g16
 Input=/work/kleich/bench/splitthejobs/1aw3/1aw305/1aw305.com
 Output=/work/kleich/bench/splitthejobs/1aw3/1aw305/1aw305.log
 Initial command:
 /afs/math/software/gaussian/g16.A03/g16/l1.exe "/scratch/kleich_gaussian.MDcPPyc/Gau-28562.inp" -scrdir="/scratch/kleich_gaussian.MDcPPyc/"
 Entering Link 1 = /afs/math/software/gaussian/g16.A03/g16/l1.exe PID=     28563.
  
 Copyright (c) 1988,1990,1992,1993,1995,1998,2003,2009,2016,
            Gaussian, Inc.  All Rights Reserved.
  
 This is part of the Gaussian(R) 16 program.  It is based on
 the Gaussian(R) 09 system (copyright 2009, Gaussian, Inc.),
 the Gaussian(R) 03 system (copyright 2003, Gaussian, Inc.),
 the Gaussian(R) 98 system (copyright 1998, Gaussian, Inc.),
 the Gaussian(R) 94 system (copyright 1995, Gaussian, Inc.),
 the Gaussian 92(TM) system (copyright 1992, Gaussian, Inc.),
 the Gaussian 90(TM) system (copyright 1990, Gaussian, Inc.),
 the Gaussian 88(TM) system (copyright 1988, Gaussian, Inc.),
 the Gaussian 86(TM) system (copyright 1986, Carnegie Mellon
 University), and the Gaussian 82(TM) system (copyright 1983,
 Carnegie Mellon University). Gaussian is a federally registered
 trademark of Gaussian, Inc.
  
 This software contains proprietary and confidential information,
 including trade secrets, belonging to Gaussian, Inc.
  
 This software is provided under written license and may be
 used, copied, transmitted, or stored only in accord with that
 written license.
  
 The following legend is applicable only to US Government
 contracts under FAR:
  
                    RESTRICTED RIGHTS LEGEND
  
 Use, reproduction and disclosure by the US Government is
 subject to restrictions as set forth in subparagraphs (a)
 and (c) of the Commercial Computer Software - Restricted
 Rights clause in FAR 52.227-19.
  
 Gaussian, Inc.
 340 Quinnipiac St., Bldg. 40, Wallingford CT 06492
  
  
 ---------------------------------------------------------------
 Warning -- This program may not be used in any manner that
 competes with the business of Gaussian, Inc. or will provide
 assistance to any competitor of Gaussian, Inc.  The licensee
 of this program is prohibited from giving any competitor of
 Gaussian, Inc. access to this program.  By using this program,
 the user acknowledges that Gaussian, Inc. is engaged in the
 business of creating and licensing software in the field of
 computational chemistry and represents and warrants to the
 licensee that it is not a competitor of Gaussian, Inc. and that
 it will not use this program in any manner prohibited above.
 ---------------------------------------------------------------
  

 Cite this work as:
 Gaussian 16, Revision A.03,
 M. J. Frisch, G. W. Trucks, H. B. Schlegel, G. E. Scuseria, 
 M. A. Robb, J. R. Cheeseman, G. Scalmani, V. Barone, 
 G. A. Petersson, H. Nakatsuji, X. Li, M. Caricato, A. V. Marenich, 
 J. Bloino, B. G. Janesko, R. Gomperts, B. Mennucci, H. P. Hratchian, 
 J. V. Ortiz, A. F. Izmaylov, J. L. Sonnenberg, D. Williams-Young, 
 F. Ding, F. Lipparini, F. Egidi, J. Goings, B. Peng, A. Petrone, 
 T. Henderson, D. Ranasinghe, V. G. Zakrzewski, J. Gao, N. Rega, 
 G. Zheng, W. Liang, M. Hada, M. Ehara, K. Toyota, R. Fukuda, 
 J. Hasegawa, M. Ishida, T. Nakajima, Y. Honda, O. Kitao, H. Nakai, 
 T. Vreven, K. Throssell, J. A. Montgomery, Jr., J. E. Peralta, 
 F. Ogliaro, M. J. Bearpark, J. J. Heyd, E. N. Brothers, K. N. Kudin, 
 V. N. Staroverov, T. A. Keith, R. Kobayashi, J. Normand, 
 K. Raghavachari, A. P. Rendell, J. C. Burant, S. S. Iyengar, 
 J. Tomasi, M. Cossi, J. M. Millam, M. Klene, C. Adamo, R. Cammi, 
 J. W. Ochterski, R. L. Martin, K. Morokuma, O. Farkas, 
 J. B. Foresman, and D. J. Fox, Gaussian, Inc., Wallingford CT, 2016.
 
 ******************************************
 Gaussian 16:  ES64L-G16RevA.03 25-Dec-2016
                12-Oct-2022 
 ******************************************
 %nprocs=12
 Will use up to   12 processors via shared memory.
 %mem=16GB
 %oldchk=1aw3_II_S.chk
 %chk=1aw3_II_Q.chk
 Copying data from "1aw3_II_S.chk" to current chk file "1aw3_II_Q.chk"
 IOpt=  2 FromEx=T IUOpen= 4 IOptOp= 5 NList=   0 IFRang= 0 IUIn= 4 IUOut= 2.
 ----------------------------------------------------------------------
 # PBE1PBE/def2TZVP empiricaldispersion=GD3BJ int=(grid=ultrafine) geom
 =check pop=nbo
 ----------------------------------------------------------------------
 1/29=2,38=1,172=1/1;
 2/12=2,40=1/2;
 3/5=44,7=101,11=2,14=-4,25=1,30=1,74=-13,75=-5,124=41/1,2,3;
 4//1;
 5/5=2,38=5/2;
 6/7=2,8=2,9=2,10=2,28=1,40=1/1,7;
 99/5=1,9=1/99;
 ---------
 1aw3_II_Q
 ---------
 Structure from the checkpoint file:  "1aw3_II_Q.chk"
 Charge =  0 Multiplicity = 5
 Z-Matrix found in chk file.
 C,0,4.428,9.754,1.996
 C,0,3.012,9.72,2.522
 N,0,2.674,9.452,3.824
 C,0,1.843,9.805,1.81
 C,0,1.338,9.387,3.894
 N,0,0.779,9.575,2.689
 H,0,4.583,8.873,1.373
 H,0,5.099,9.671,2.852
 H,0,3.321,9.286,4.585
 H,0,1.751,9.989,0.755
 H,0,0.806,9.184,4.805
 C,0,-6.248,10.013,0.126
 C,0,-5.16,9.694,1.112
 N,0,-5.297,8.979,2.278
 C,0,-3.834,9.989,0.948
 C,0,-4.062,8.858,2.802
 N,0,-3.129,9.446,2.021
 H,0,-6.869,9.133,-0.016
 H,0,-5.763,10.207,-0.826
 H,0,-6.156,8.576,2.649
 H,0,-3.408,10.531,0.12
 H,0,-3.877,8.333,3.724
 C,0,-1.333,12.913,2.873
 C,0,-0.466,10.195,-1.128
 C,0,-1.143,6.149,1.56
 C,0,-1.72,8.874,5.632
 C,0,-1.123,12.495,1.558
 C,0,-1.063,13.397,0.434
 C,0,-0.748,12.656,-0.682
 C,0,-0.715,11.269,-0.274
 C,0,-0.515,13.218,-2.067
 C,0,-1.36,14.878,0.473
 C,0,-2.786,15.185,0.941
 C,0,-3.153,16.658,0.83
 O,0,-2.5,17.359,0.027
 O,0,-4.098,17.055,1.544
 C,0,-0.534,8.873,-0.708
 C,0,-0.314,7.74,-1.577
 C,0,-0.563,6.629,-0.812
 C,0,-0.863,7.033,0.532
 C,0,0.108,7.775,-3.026
 C,0,-0.44,5.191,-1.257
 C,0,-0.981,4.782,-2.415
 C,0,-1.347,6.551,2.877
 C,0,-1.673,5.652,3.954
 C,0,-1.699,6.409,5.097
 C,0,-1.571,7.799,4.746
 C,0,-1.997,4.189,3.838
 C,0,-2.042,5.893,6.476
 C,0,-1.558,4.719,6.939
 C,0,-1.672,10.215,5.225
 C,0,-1.869,11.355,6.093
 C,0,-1.72,12.494,5.327
 C,0,-1.482,12.058,3.967
 C,0,-2.221,11.305,7.561
 C,0,-1.929,13.933,5.773
 C,0,-1.24,14.359,7.076
 C,0,-1.561,15.812,7.393
 O,0,-0.742,16.674,7.011
 O,0,-2.63,16.031,8.002
 N,0,-0.975,11.234,1.077
 N,0,-0.821,8.393,0.554
 N,0,-1.332,7.823,3.394
 N,0,-1.461,10.7,3.968
 Fe,0,-1.148,9.534,2.257
 H,0,-0.257,10.379,-2.168
 H,0,-1.196,5.104,1.306
 H,0,-1.899,8.65,6.671
 H,0,-0.18,4.44,-0.536
 H,0,-2.635,6.508,7.131
 H,0,-1.347,13.973,3.044
 H,0,0.244,13.998,-2.019
 H,0,-0.176,12.464,-2.774
 H,0,-1.442,13.654,-2.439
 H,0,-0.665,15.381,1.137
 H,0,-1.23,15.299,-0.524
 H,0,-3.456,14.608,0.324
 H,0,-2.954,14.883,1.971
 H,0,0.921,8.486,-3.162
 H,0,0.467,6.797,-3.34
 H,0,-0.741,8.059,-3.645
 H,0,-1.84,5.341,-2.723
 H,0,-0.882,3.752,-2.724
 H,0,-1.096,3.595,3.995
 H,0,-2.746,3.95,4.592
 H,0,-2.42,3.965,2.862
 H,0,-0.823,4.169,6.371
 H,0,-1.719,4.449,7.972
 H,0,-1.321,11.466,8.155
 H,0,-2.959,12.076,7.784
 H,0,-2.658,10.349,7.838
 H,0,-1.535,14.623,5.031
 H,0,-3.002,14.12,5.836
 H,0,-1.564,13.767,7.925
 H,0,-0.163,14.253,6.971
 H,0,4.60592924,10.65110633,1.44062498
 H,0,-6.83464038,10.83913137,0.46988957
 H,0,-3.91740169,17.51318705,2.36804422
 H,0,0.20042932,16.50684755,7.08507452
 Recover connectivity data from disk.
 Center=     -1.33725943     10.20181083      2.41749125
 Residue   0                        charge    0.00000000 layers R        AvRTP=      7.20799197     94.37794463     71.31600884
 Residue   4                        charge    0.00000000 layers R        AvRTP=      0.00000000      0.00000000      0.00000000
 Residue   2 PDB Number    63_A HIS charge    0.00000000 layers R        AvRTP=      3.93924200    189.95149815    106.72305001
 Residue   3 PDB Number    96_A HEM charge    0.00000000 layers R        AvRTP=      0.09971393    164.60152012     41.54271360
 Residue   1 PDB Number    39_A HIS charge    0.00000000 layers R        AvRTP=      4.24209913    351.99191005     86.01719095
 Stoichiometry    C42H44FeN8O4(5)
 Framework group  C1[X(C42H44FeN8O4)]
 Deg. of freedom   291
 Full point group                 C1      NOp   1
 Largest Abelian subgroup         C1      NOp   1
 Largest concise Abelian subgroup C1      NOp   1
                         Standard orientation:                         
 ---------------------------------------------------------------------
 Center     Atomic      Atomic             Coordinates (Angstroms)
 Number     Number       Type             X           Y           Z
 ---------------------------------------------------------------------
      1          6           0       -1.448354   -0.350397    5.649956
      2          6           0       -1.144289    0.176523    4.266920
      3          7           0       -0.956512    1.501253    3.965085
      4          6           0       -1.137778   -0.513185    3.081597
      5          6           0       -0.831320    1.603380    2.635455
      6          7           0       -0.954038    0.406028    2.042885
      7          1           0       -2.489932   -0.671197    5.672718
      8          1           0       -1.347314    0.481330    6.348445
      9          1           0       -0.959955    2.268689    4.625628
     10          1           0       -1.276016   -1.572094    2.959344
     11          1           0       -0.678031    2.538497    2.129280
     12          6           0       -0.457650   -2.085126   -5.006037
     13          6           0       -0.591051   -1.061441   -3.914261
     14          7           0       -0.891683    0.270313   -4.074272
     15          6           0       -0.526728   -1.324142   -2.572976
     16          6           0       -0.997935    0.791707   -2.836815
     17          7           0       -0.797563   -0.143860   -1.882478
     18          1           0       -1.255004   -1.940027   -5.729486
     19          1           0       -0.626189   -3.055884   -4.549542
     20          1           0       -1.052220    0.757896   -4.954285
     21          1           0       -0.321523   -2.284268   -2.129273
     22          1           0       -1.233793    1.828865   -2.667678
     23          6           0        2.513870   -0.429899    0.336577
     24          6           0       -1.384615   -3.400408    0.690272
     25          6           0       -4.296082    0.417483   -0.310159
     26          6           0       -0.405069    3.449967   -0.371803
     27          6           0        1.690452   -1.552756    0.432604
     28          6           0        2.189966   -2.901690    0.539583
     29          6           0        1.109689   -3.736413    0.712793
     30          6           0       -0.078477   -2.918785    0.607595
     31          6           0        1.186944   -5.230011    0.939850
     32          6           0        3.636446   -3.320494    0.415533
     33          6           0        4.245824   -2.954350   -0.941429
     34          6           0        5.647440   -3.512458   -1.143233
     35          8           0        5.982325   -4.500751   -0.454939
     36          8           0        6.357705   -2.945926   -2.000551
     37          6           0       -2.495274   -2.590365    0.492851
     38          6           0       -3.858112   -3.067615    0.539292
     39          6           0       -4.641538   -1.992955    0.203292
     40          6           0       -3.811326   -0.837148    0.017793
     41          6           0       -4.321228   -4.460794    0.890695
     42          6           0       -6.150339   -1.971430    0.139603
     43          6           0       -6.824352   -2.939161   -0.500811
     44          6           0       -3.487893    1.547135   -0.401957
     45          6           0       -3.966107    2.853530   -0.774851
     46          6           0       -2.898168    3.705621   -0.658143
     47          6           0       -1.709599    2.939389   -0.390043
     48          6           0       -5.342455    3.200724   -1.268738
     49          6           0       -2.920252    5.180519   -0.989404
     50          6           0       -3.946258    5.979166   -0.620114
     51          6           0        0.729977    2.646621   -0.191424
     52          6           0        2.096273    3.120484   -0.214294
     53          6           0        2.918178    2.037344    0.025620
     54          6           0        2.060522    0.876967    0.145165
     55          6           0        2.542403    4.535569   -0.497012
     56          6           0        4.438856    2.017453    0.004137
     57          6           0        5.155057    3.116043    0.800481
     58          6           0        6.663260    2.970472    0.663110
     59          8           0        7.258594    2.330543    1.555185
     60          8           0        7.188670    3.493825   -0.342698
     61          7           0        0.334591   -1.620636    0.412115
     62          7           0       -2.526151   -1.238501    0.215500
     63          7           0       -2.130761    1.643944   -0.216703
     64          7           0        0.776496    1.298837    0.011331
     65         26           0       -0.886986    0.030323    0.104848
     66          1           0       -1.555452   -4.448533    0.867429
     67          1           0       -5.353677    0.500726   -0.494311
     68          1           0       -0.276000    4.509201   -0.523800
     69          1           0       -6.670363   -1.056123    0.347517
     70          1           0       -2.065806    5.619291   -1.475511
     71          1           0        3.568470   -0.595922    0.451871
     72          1           0        1.844057   -5.435048    1.784212
     73          1           0        0.216757   -5.672174    1.155525
     74          1           0        1.599021   -5.708158    0.051382
     75          1           0        4.228779   -2.853302    1.195150
     76          1           0        3.712238   -4.400332    0.543420
     77          1           0        3.594959   -3.354201   -1.702358
     78          1           0        4.297157   -1.879608   -1.091840
     79          1           0       -3.792294   -4.819970    1.771722
     80          1           0       -5.384883   -4.460124    1.120038
     81          1           0       -4.137938   -5.127505    0.050148
     82          1           0       -6.284974   -3.395400   -1.304641
     83          1           0       -7.903426   -2.914609   -0.535136
     84          1           0       -5.966327    3.523788   -0.434653
     85          1           0       -5.244437    4.000263   -2.002065
     86          1           0       -5.800671    2.347269   -1.762029
     87          1           0       -4.730243    5.601300    0.018583
     88          1           0       -3.864668    7.046754   -0.759785
     89          1           0        2.765161    5.039916    0.443610
     90          1           0        3.429633    4.516965   -1.130488
     91          1           0        1.778970    5.100424   -1.025919
     92          1           0        4.814055    1.093549    0.437183
     93          1           0        4.767252    2.031736   -1.036160
     94          1           0        4.896491    4.110461    0.453326
     95          1           0        4.889749    3.036667    1.851909
     96          1           0       -0.793793   -1.158627    5.901383
     97          1           0        0.499954   -2.007654   -5.477092
     98          1           0        7.020348   -2.306755   -1.728586
     99          1           0        7.007068    2.441919    2.474930
 ---------------------------------------------------------------------
 Rotational constants (GHZ):           0.0609970           0.0416828           0.0332059
 Standard basis: def2TZVP (5D, 7F)
 There are  2260 symmetry adapted cartesian basis functions of A   symmetry.
 There are  1983 symmetry adapted basis functions of A   symmetry.
  1983 basis functions,  3208 primitive gaussians,  2260 cartesian basis functions
   207 alpha electrons      203 beta electrons
       nuclear repulsion energy      8826.4982644515 Hartrees.
 NAtoms=   99 NActive=   99 NUniq=   99 SFac= 1.00D+00 NAtFMM=   60 NAOKFM=T Big=T
 Integral buffers will be    131072 words long.
 Raffenetti 2 integral format.
 Two-electron integral symmetry is turned on.
 Nuclear repulsion after empirical dispersion term =     8826.3554469331 Hartrees.
 One-electron integrals computed using PRISM.
   1 Symmetry operations used in ECPInt.
 ECPInt:  NShTT=  308505 NPrTT=  954269 LenC2=  223323 LenP2D=  444511.
 LDataN:  DoStor=T MaxTD1= 6 Len=  172
 NBasis=  1983 RedAO= T EigKep=  3.25D-06  NBF=  1983
 NBsUse=  1983 1.00D-06 EigRej= -1.00D+00 NBFU=  1983
 ExpMin= 4.20D-02 ExpMax= 3.01D+05 ExpMxC= 2.91D+03 IAcc=3 IRadAn=         5 AccDes= 0.00D+00
 Harris functional with IExCor= 1009 and IRadAn=       5 diagonalized for initial guess.
 HarFok:  IExCor= 1009 AccDes= 0.00D+00 IRadAn=         5 IDoV= 1 UseB2=F ITyADJ=14
 ICtDFT=  3500011 ScaDFX=  1.000000  1.000000  1.000000  1.000000
 FoFCou: FMM=F IPFlag=           0 FMFlag=      100000 FMFlg1=        2001
         NFxFlg=           0 DoJE=T BraDBF=F KetDBF=T FulRan=T
         wScrn=  0.000000 ICntrl=       500 IOpCl=  0 I1Cent=   200000004 NGrid=           0
         NMat0=    1 NMatS0=      1 NMatT0=    0 NMatD0=    1 NMtDS0=    0 NMtDT0=    0
 Petite list used in FoFCou.
 Initial guess <Sx>= 0.0000 <Sy>= 0.0000 <Sz>= 2.0000 <S**2>= 6.0000 S= 2.0000
 Requested convergence on RMS density matrix=1.00D-08 within 128 cycles.
 Requested convergence on MAX density matrix=1.00D-06.
 Requested convergence on             energy=1.00D-06.
 No special actions if energy rises.
 EnCoef did   100 forward-backward iterations
 EnCoef did   100 forward-backward iterations
 EnCoef did     7 forward-backward iterations
 EnCoef did   100 forward-backward iterations
 EnCoef did   100 forward-backward iterations
 EnCoef did     4 forward-backward iterations
 EnCoef did     3 forward-backward iterations
 EnCoef did     6 forward-backward iterations
 Restarting incremental Fock formation.
 Restarting incremental Fock formation.
 SCF Done:  E(UPBE1PBE) =  -3627.66359372     A.U. after   58 cycles
            NFock= 58  Conv=0.36D-09     -V/T= 2.0035
 <Sx>= 0.0000 <Sy>= 0.0000 <Sz>= 2.0000 <S**2>= 6.2922 S= 2.0578
 <L.S>= 0.000000000000E+00
 Annihilation of the first spin contaminant:
 S**2 before annihilation     6.2922,   after     6.0028

 **********************************************************************

            Population analysis using the SCF density.

 **********************************************************************

 Orbital symmetries:
 Alpha Orbitals:
       Occupied  (A) (A) (A) (A) (A) (A) (A) (A) (A) (A) (A) (A)
                 (A) (A) (A) (A) (A) (A) (A) (A) (A) (A) (A) (A)
                 (A) (A) (A) (A) (A) (A) (A) (A) (A) (A) (A) (A)
                 (A) (A) (A) (A) (A) (A) (A) (A) (A) (A) (A) (A)
                 (A) (A) (A) (A) (A) (A) (A) (A) (A) (A) (A) (A)
                 (A) (A) (A) (A) (A) (A) (A) (A) (A) (A) (A) (A)
                 (A) (A) (A) (A) (A) (A) (A) (A) (A) (A) (A) (A)
                 (A) (A) (A) (A) (A) (A) (A) (A) (A) (A) (A) (A)
                 (A) (A) (A) (A) (A) (A) (A) (A) (A) (A) (A) (A)
                 (A) (A) (A) (A) (A) (A) (A) (A) (A) (A) (A) (A)
                 (A) (A) (A) (A) (A) (A) (A) (A) (A) (A) (A) (A)
                 (A) (A) (A) (A) (A) (A) (A) (A) (A) (A) (A) (A)
                 (A) (A) (A) (A) (A) (A) (A) (A) (A) (A) (A) (A)
                 (A) (A) (A) (A) (A) (A) (A) (A) (A) (A) (A) (A)
                 (A) (A) (A) (A) (A) (A) (A) (A) (A) (A) (A) (A)
                 (A) (A) (A) (A) (A) (A) (A) (A) (A) (A) (A) (A)
                 (A) (A) (A) (A) (A) (A) (A) (A) (A) (A) (A) (A)
                 (A) (A) (A)
       Virtual   (A) (A) (A) (A) (A) (A) (A) (A) (A) (A) (A) (A)
                 (A) (A) (A) (A) (A) (A) (A) (A) (A) (A) (A) (A)
                 (A) (A) (A) (A) (A) (A) (A) (A) (A) (A) (A) (A)
                 (A) (A) (A) (A) (A) (A) (A) (A) (A) (A) (A) (A)
                 (A) (A) (A) (A) (A) (A) (A) (A) (A) (A) (A) (A)
                 (A) (A) (A) (A) (A) (A) (A) (A) (A) (A) (A) (A)
                 (A) (A) (A) (A) (A) (A) (A) (A) (A) (A) (A) (A)
                 (A) (A) (A) (A) (A) (A) (A) (A) (A) (A) (A) (A)
                 (A) (A) (A) (A) (A) (A) (A) (A) (A) (A) (A) (A)
                 (A) (A) (A) (A) (A) (A) (A) (A) (A) (A) (A) (A)
                 (A) (A) (A) (A) (A) (A) (A) (A) (A) (A) (A) (A)
                 (A) (A) (A) (A) (A) (A) (A) (A) (A) (A) (A) (A)
                 (A) (A) (A) (A) (A) (A) (A) (A) (A) (A) (A) (A)
                 (A) (A) (A) (A) (A) (A) (A) (A) (A) (A) (A) (A)
                 (A) (A) (A) (A) (A) (A) (A) (A) (A) (A) (A) (A)
                 (A) (A) (A) (A) (A) (A) (A) (A) (A) (A) (A) (A)
                 (A) (A) (A) (A) (A) (A) (A) (A) (A) (A) (A) (A)
                 (A) (A) (A) (A) (A) (A) (A) (A) (A) (A) (A) (A)
                 (A) (A) (A) (A) (A) (A) (A) (A) (A) (A) (A) (A)
                 (A) (A) (A) (A) (A) (A) (A) (A) (A) (A) (A) (A)
                 (A) (A) (A) (A) (A) (A) (A) (A) (A) (A) (A) (A)
                 (A) (A) (A) (A) (A) (A) (A) (A) (A) (A) (A) (A)
                 (A) (A) (A) (A) (A) (A) (A) (A) (A) (A) (A) (A)
                 (A) (A) (A) (A) (A) (A) (A) (A) (A) (A) (A) (A)
                 (A) (A) (A) (A) (A) (A) (A) (A) (A) (A) (A) (A)
                 (A) (A) (A) (A) (A) (A) (A) (A) (A) (A) (A) (A)
                 (A) (A) (A) (A) (A) (A) (A) (A) (A) (A) (A) (A)
                 (A) (A) (A) (A) (A) (A) (A) (A) (A) (A) (A) (A)
                 (A) (A) (A) (A) (A) (A) (A) (A) (A) (A) (A) (A)
                 (A) (A) (A) (A) (A) (A) (A) (A) (A) (A) (A) (A)
                 (A) (A) (A) (A) (A) (A) (A) (A) (A) (A) (A) (A)
                 (A) (A) (A) (A) (A) (A) (A) (A) (A) (A) (A) (A)
                 (A) (A) (A) (A) (A) (A) (A) (A) (A) (A) (A) (A)
                 (A) (A) (A) (A) (A) (A) (A) (A) (A) (A) (A) (A)
                 (A) (A) (A) (A) (A) (A) (A) (A) (A) (A) (A) (A)
                 (A) (A) (A) (A) (A) (A) (A) (A) (A) (A) (A) (A)
                 (A) (A) (A) (A) (A) (A) (A) (A) (A) (A) (A) (A)
                 (A) (A) (A) (A) (A) (A) (A) (A) (A) (A) (A) (A)
                 (A) (A) (A) (A) (A) (A) (A) (A) (A) (A) (A) (A)
                 (A) (A) (A) (A) (A) (A) (A) (A) (A) (A) (A) (A)
                 (A) (A) (A) (A) (A) (A) (A) (A) (A) (A) (A) (A)
                 (A) (A) (A) (A) (A) (A) (A) (A) (A) (A) (A) (A)
                 (A) (A) (A) (A) (A) (A) (A) (A) (A) (A) (A) (A)
                 (A) (A) (A) (A) (A) (A) (A) (A) (A) (A) (A) (A)
                 (A) (A) (A) (A) (A) (A) (A) (A) (A) (A) (A) (A)
                 (A) (A) (A) (A) (A) (A) (A) (A) (A) (A) (A) (A)
                 (A) (A) (A) (A) (A) (A) (A) (A) (A) (A) (A) (A)
                 (A) (A) (A) (A) (A) (A) (A) (A) (A) (A) (A) (A)
                 (A) (A) (A) (A) (A) (A) (A) (A) (A) (A) (A) (A)
                 (A) (A) (A) (A) (A) (A) (A) (A) (A) (A) (A) (A)
                 (A) (A) (A) (A) (A) (A) (A) (A) (A) (A) (A) (A)
                 (A) (A) (A) (A) (A) (A) (A) (A) (A) (A) (A) (A)
                 (A) (A) (A) (A) (A) (A) (A) (A) (A) (A) (A) (A)
                 (A) (A) (A) (A) (A) (A) (A) (A) (A) (A) (A) (A)
                 (A) (A) (A) (A) (A) (A) (A) (A) (A) (A) (A) (A)
                 (A) (A) (A) (A) (A) (A) (A) (A) (A) (A) (A) (A)
                 (A) (A) (A) (A) (A) (A) (A) (A) (A) (A) (A) (A)
                 (A) (A) (A) (A) (A) (A) (A) (A) (A) (A) (A) (A)
                 (A) (A) (A) (A) (A) (A) (A) (A) (A) (A) (A) (A)
                 (A) (A) (A) (A) (A) (A) (A) (A) (A) (A) (A) (A)
                 (A) (A) (A) (A) (A) (A) (A) (A) (A) (A) (A) (A)
                 (A) (A) (A) (A) (A) (A) (A) (A) (A) (A) (A) (A)
                 (A) (A) (A) (A) (A) (A) (A) (A) (A) (A) (A) (A)
                 (A) (A) (A) (A) (A) (A) (A) (A) (A) (A) (A) (A)
                 (A) (A) (A) (A) (A) (A) (A) (A) (A) (A) (A) (A)
                 (A) (A) (A) (A) (A) (A) (A) (A) (A) (A) (A) (A)
                 (A) (A) (A) (A) (A) (A) (A) (A) (A) (A) (A) (A)
                 (A) (A) (A) (A) (A) (A) (A) (A) (A) (A) (A) (A)
                 (A) (A) (A) (A) (A) (A) (A) (A) (A) (A) (A) (A)
                 (A) (A) (A) (A) (A) (A) (A) (A) (A) (A) (A) (A)
                 (A) (A) (A) (A) (A) (A) (A) (A) (A) (A) (A) (A)
                 (A) (A) (A) (A) (A) (A) (A) (A) (A) (A) (A) (A)
                 (A) (A) (A) (A) (A) (A) (A) (A) (A) (A) (A) (A)
                 (A) (A) (A) (A) (A) (A) (A) (A) (A) (A) (A) (A)
                 (A) (A) (A) (A) (A) (A) (A) (A) (A) (A) (A) (A)
                 (A) (A) (A) (A) (A) (A) (A) (A) (A) (A) (A) (A)
                 (A) (A) (A) (A) (A) (A) (A) (A) (A) (A) (A) (A)
                 (A) (A) (A) (A) (A) (A) (A) (A) (A) (A) (A) (A)
                 (A) (A) (A) (A) (A) (A) (A) (A) (A) (A) (A) (A)
                 (A) (A) (A) (A) (A) (A) (A) (A) (A) (A) (A) (A)
                 (A) (A) (A) (A) (A) (A) (A) (A) (A) (A) (A) (A)
                 (A) (A) (A) (A) (A) (A) (A) (A) (A) (A) (A) (A)
                 (A) (A) (A) (A) (A) (A) (A) (A) (A) (A) (A) (A)
                 (A) (A) (A) (A) (A) (A) (A) (A) (A) (A) (A) (A)
                 (A) (A) (A) (A) (A) (A) (A) (A) (A) (A) (A) (A)
                 (A) (A) (A) (A) (A) (A) (A) (A) (A) (A) (A) (A)
                 (A) (A) (A) (A) (A) (A) (A) (A) (A) (A) (A) (A)
                 (A) (A) (A) (A) (A) (A) (A) (A) (A) (A) (A) (A)
                 (A) (A) (A) (A) (A) (A) (A) (A) (A) (A) (A) (A)
                 (A) (A) (A) (A) (A) (A) (A) (A) (A) (A) (A) (A)
                 (A) (A) (A) (A) (A) (A) (A) (A) (A) (A) (A) (A)
                 (A) (A) (A) (A) (A) (A) (A) (A) (A) (A) (A) (A)
                 (A) (A) (A) (A) (A) (A) (A) (A) (A) (A) (A) (A)
                 (A) (A) (A) (A) (A) (A) (A) (A) (A) (A) (A) (A)
                 (A) (A) (A) (A) (A) (A) (A) (A) (A) (A) (A) (A)
                 (A) (A) (A) (A) (A) (A) (A) (A) (A) (A) (A) (A)
                 (A) (A) (A) (A) (A) (A) (A) (A) (A) (A) (A) (A)
                 (A) (A) (A) (A) (A) (A) (A) (A) (A) (A) (A) (A)
                 (A) (A) (A) (A) (A) (A) (A) (A) (A) (A) (A) (A)
                 (A) (A) (A) (A) (A) (A) (A) (A) (A) (A) (A) (A)
                 (A) (A) (A) (A) (A) (A) (A) (A) (A) (A) (A) (A)
                 (A) (A) (A) (A) (A) (A) (A) (A) (A) (A) (A) (A)
                 (A) (A) (A) (A) (A) (A) (A) (A) (A) (A) (A) (A)
                 (A) (A) (A) (A) (A) (A) (A) (A) (A) (A) (A) (A)
                 (A) (A) (A) (A) (A) (A) (A) (A) (A) (A) (A) (A)
                 (A) (A) (A) (A) (A) (A) (A) (A) (A) (A) (A) (A)
                 (A) (A) (A) (A) (A) (A) (A) (A) (A) (A) (A) (A)
                 (A) (A) (A) (A) (A) (A) (A) (A) (A) (A) (A) (A)
                 (A) (A) (A) (A) (A) (A) (A) (A) (A) (A) (A) (A)
                 (A) (A) (A) (A) (A) (A) (A) (A) (A) (A) (A) (A)
                 (A) (A) (A) (A) (A) (A) (A) (A) (A) (A) (A) (A)
                 (A) (A) (A) (A) (A) (A) (A) (A) (A) (A) (A) (A)
                 (A) (A) (A) (A) (A) (A) (A) (A) (A) (A) (A) (A)
                 (A) (A) (A) (A) (A) (A) (A) (A) (A) (A) (A) (A)
                 (A) (A) (A) (A) (A) (A) (A) (A) (A) (A) (A) (A)
                 (A) (A) (A) (A) (A) (A) (A) (A) (A) (A) (A) (A)
                 (A) (A) (A) (A) (A) (A) (A) (A) (A) (A) (A) (A)
                 (A) (A) (A) (A) (A) (A) (A) (A) (A) (A) (A) (A)
                 (A) (A) (A) (A) (A) (A) (A) (A) (A) (A) (A) (A)
                 (A) (A) (A) (A) (A) (A) (A) (A) (A) (A) (A) (A)
                 (A) (A) (A) (A) (A) (A) (A) (A) (A) (A) (A) (A)
                 (A) (A) (A) (A) (A) (A) (A) (A) (A) (A) (A) (A)
                 (A) (A) (A) (A) (A) (A) (A) (A) (A) (A) (A) (A)
                 (A) (A) (A) (A) (A) (A) (A) (A) (A) (A) (A) (A)
                 (A) (A) (A) (A) (A) (A) (A) (A) (A) (A) (A) (A)
                 (A) (A) (A) (A) (A) (A) (A) (A) (A) (A) (A) (A)
                 (A) (A) (A) (A) (A) (A) (A) (A) (A) (A) (A) (A)
                 (A) (A) (A) (A) (A) (A) (A) (A) (A) (A) (A) (A)
                 (A) (A) (A) (A) (A) (A) (A) (A) (A) (A) (A) (A)
                 (A) (A) (A) (A) (A) (A) (A) (A) (A) (A) (A) (A)
                 (A) (A) (A) (A) (A) (A) (A) (A) (A) (A) (A) (A)
                 (A) (A) (A) (A) (A) (A) (A) (A) (A) (A) (A) (A)
                 (A) (A) (A) (A) (A) (A) (A) (A) (A) (A) (A) (A)
                 (A) (A) (A) (A) (A) (A) (A) (A) (A) (A) (A) (A)
                 (A) (A) (A) (A) (A) (A) (A) (A) (A) (A) (A) (A)
                 (A) (A) (A) (A) (A) (A) (A) (A) (A) (A) (A) (A)
                 (A) (A) (A) (A) (A) (A) (A) (A) (A) (A) (A) (A)
                 (A) (A) (A) (A) (A) (A) (A) (A) (A) (A) (A) (A)
                 (A) (A) (A) (A) (A) (A) (A) (A) (A) (A) (A) (A)
                 (A) (A) (A) (A) (A) (A) (A) (A) (A) (A) (A) (A)
                 (A) (A) (A) (A) (A) (A) (A) (A) (A) (A) (A) (A)
                 (A) (A) (A) (A) (A) (A) (A) (A) (A) (A) (A) (A)
                 (A) (A) (A) (A) (A) (A) (A) (A) (A) (A) (A) (A)
                 (A) (A) (A) (A) (A) (A) (A) (A) (A) (A) (A) (A)
                 (A) (A) (A) (A) (A) (A) (A) (A) (A) (A) (A) (A)
                 (A) (A) (A) (A) (A) (A) (A) (A) (A) (A) (A) (A)
                 (A) (A) (A) (A) (A) (A) (A) (A) (A) (A) (A) (A)
                 (A) (A) (A) (A) (A) (A) (A) (A) (A) (A) (A) (A)
 Beta  Orbitals:
       Occupied  (A) (A) (A) (A) (A) (A) (A) (A) (A) (A) (A) (A)
                 (A) (A) (A) (A) (A) (A) (A) (A) (A) (A) (A) (A)
                 (A) (A) (A) (A) (A) (A) (A) (A) (A) (A) (A) (A)
                 (A) (A) (A) (A) (A) (A) (A) (A) (A) (A) (A) (A)
                 (A) (A) (A) (A) (A) (A) (A) (A) (A) (A) (A) (A)
                 (A) (A) (A) (A) (A) (A) (A) (A) (A) (A) (A) (A)
                 (A) (A) (A) (A) (A) (A) (A) (A) (A) (A) (A) (A)
                 (A) (A) (A) (A) (A) (A) (A) (A) (A) (A) (A) (A)
                 (A) (A) (A) (A) (A) (A) (A) (A) (A) (A) (A) (A)
                 (A) (A) (A) (A) (A) (A) (A) (A) (A) (A) (A) (A)
                 (A) (A) (A) (A) (A) (A) (A) (A) (A) (A) (A) (A)
                 (A) (A) (A) (A) (A) (A) (A) (A) (A) (A) (A) (A)
                 (A) (A) (A) (A) (A) (A) (A) (A) (A) (A) (A) (A)
                 (A) (A) (A) (A) (A) (A) (A) (A) (A) (A) (A) (A)
                 (A) (A) (A) (A) (A) (A) (A) (A) (A) (A) (A) (A)
                 (A) (A) (A) (A) (A) (A) (A) (A) (A) (A) (A) (A)
                 (A) (A) (A) (A) (A) (A) (A) (A) (A) (A) (A)
       Virtual   (A) (A) (A) (A) (A) (A) (A) (A) (A) (A) (A) (A)
                 (A) (A) (A) (A) (A) (A) (A) (A) (A) (A) (A) (A)
                 (A) (A) (A) (A) (A) (A) (A) (A) (A) (A) (A) (A)
                 (A) (A) (A) (A) (A) (A) (A) (A) (A) (A) (A) (A)
                 (A) (A) (A) (A) (A) (A) (A) (A) (A) (A) (A) (A)
                 (A) (A) (A) (A) (A) (A) (A) (A) (A) (A) (A) (A)
                 (A) (A) (A) (A) (A) (A) (A) (A) (A) (A) (A) (A)
                 (A) (A) (A) (A) (A) (A) (A) (A) (A) (A) (A) (A)
                 (A) (A) (A) (A) (A) (A) (A) (A) (A) (A) (A) (A)
                 (A) (A) (A) (A) (A) (A) (A) (A) (A) (A) (A) (A)
                 (A) (A) (A) (A) (A) (A) (A) (A) (A) (A) (A) (A)
                 (A) (A) (A) (A) (A) (A) (A) (A) (A) (A) (A) (A)
                 (A) (A) (A) (A) (A) (A) (A) (A) (A) (A) (A) (A)
                 (A) (A) (A) (A) (A) (A) (A) (A) (A) (A) (A) (A)
                 (A) (A) (A) (A) (A) (A) (A) (A) (A) (A) (A) (A)
                 (A) (A) (A) (A) (A) (A) (A) (A) (A) (A) (A) (A)
                 (A) (A) (A) (A) (A) (A) (A) (A) (A) (A) (A) (A)
                 (A) (A) (A) (A) (A) (A) (A) (A) (A) (A) (A) (A)
                 (A) (A) (A) (A) (A) (A) (A) (A) (A) (A) (A) (A)
                 (A) (A) (A) (A) (A) (A) (A) (A) (A) (A) (A) (A)
                 (A) (A) (A) (A) (A) (A) (A) (A) (A) (A) (A) (A)
                 (A) (A) (A) (A) (A) (A) (A) (A) (A) (A) (A) (A)
                 (A) (A) (A) (A) (A) (A) (A) (A) (A) (A) (A) (A)
                 (A) (A) (A) (A) (A) (A) (A) (A) (A) (A) (A) (A)
                 (A) (A) (A) (A) (A) (A) (A) (A) (A) (A) (A) (A)
                 (A) (A) (A) (A) (A) (A) (A) (A) (A) (A) (A) (A)
                 (A) (A) (A) (A) (A) (A) (A) (A) (A) (A) (A) (A)
                 (A) (A) (A) (A) (A) (A) (A) (A) (A) (A) (A) (A)
                 (A) (A) (A) (A) (A) (A) (A) (A) (A) (A) (A) (A)
                 (A) (A) (A) (A) (A) (A) (A) (A) (A) (A) (A) (A)
                 (A) (A) (A) (A) (A) (A) (A) (A) (A) (A) (A) (A)
                 (A) (A) (A) (A) (A) (A) (A) (A) (A) (A) (A) (A)
                 (A) (A) (A) (A) (A) (A) (A) (A) (A) (A) (A) (A)
                 (A) (A) (A) (A) (A) (A) (A) (A) (A) (A) (A) (A)
                 (A) (A) (A) (A) (A) (A) (A) (A) (A) (A) (A) (A)
                 (A) (A) (A) (A) (A) (A) (A) (A) (A) (A) (A) (A)
                 (A) (A) (A) (A) (A) (A) (A) (A) (A) (A) (A) (A)
                 (A) (A) (A) (A) (A) (A) (A) (A) (A) (A) (A) (A)
                 (A) (A) (A) (A) (A) (A) (A) (A) (A) (A) (A) (A)
                 (A) (A) (A) (A) (A) (A) (A) (A) (A) (A) (A) (A)
                 (A) (A) (A) (A) (A) (A) (A) (A) (A) (A) (A) (A)
                 (A) (A) (A) (A) (A) (A) (A) (A) (A) (A) (A) (A)
                 (A) (A) (A) (A) (A) (A) (A) (A) (A) (A) (A) (A)
                 (A) (A) (A) (A) (A) (A) (A) (A) (A) (A) (A) (A)
                 (A) (A) (A) (A) (A) (A) (A) (A) (A) (A) (A) (A)
                 (A) (A) (A) (A) (A) (A) (A) (A) (A) (A) (A) (A)
                 (A) (A) (A) (A) (A) (A) (A) (A) (A) (A) (A) (A)
                 (A) (A) (A) (A) (A) (A) (A) (A) (A) (A) (A) (A)
                 (A) (A) (A) (A) (A) (A) (A) (A) (A) (A) (A) (A)
                 (A) (A) (A) (A) (A) (A) (A) (A) (A) (A) (A) (A)
                 (A) (A) (A) (A) (A) (A) (A) (A) (A) (A) (A) (A)
                 (A) (A) (A) (A) (A) (A) (A) (A) (A) (A) (A) (A)
                 (A) (A) (A) (A) (A) (A) (A) (A) (A) (A) (A) (A)
                 (A) (A) (A) (A) (A) (A) (A) (A) (A) (A) (A) (A)
                 (A) (A) (A) (A) (A) (A) (A) (A) (A) (A) (A) (A)
                 (A) (A) (A) (A) (A) (A) (A) (A) (A) (A) (A) (A)
                 (A) (A) (A) (A) (A) (A) (A) (A) (A) (A) (A) (A)
                 (A) (A) (A) (A) (A) (A) (A) (A) (A) (A) (A) (A)
                 (A) (A) (A) (A) (A) (A) (A) (A) (A) (A) (A) (A)
                 (A) (A) (A) (A) (A) (A) (A) (A) (A) (A) (A) (A)
                 (A) (A) (A) (A) (A) (A) (A) (A) (A) (A) (A) (A)
                 (A) (A) (A) (A) (A) (A) (A) (A) (A) (A) (A) (A)
                 (A) (A) (A) (A) (A) (A) (A) (A) (A) (A) (A) (A)
                 (A) (A) (A) (A) (A) (A) (A) (A) (A) (A) (A) (A)
                 (A) (A) (A) (A) (A) (A) (A) (A) (A) (A) (A) (A)
                 (A) (A) (A) (A) (A) (A) (A) (A) (A) (A) (A) (A)
                 (A) (A) (A) (A) (A) (A) (A) (A) (A) (A) (A) (A)
                 (A) (A) (A) (A) (A) (A) (A) (A) (A) (A) (A) (A)
                 (A) (A) (A) (A) (A) (A) (A) (A) (A) (A) (A) (A)
                 (A) (A) (A) (A) (A) (A) (A) (A) (A) (A) (A) (A)
                 (A) (A) (A) (A) (A) (A) (A) (A) (A) (A) (A) (A)
                 (A) (A) (A) (A) (A) (A) (A) (A) (A) (A) (A) (A)
                 (A) (A) (A) (A) (A) (A) (A) (A) (A) (A) (A) (A)
                 (A) (A) (A) (A) (A) (A) (A) (A) (A) (A) (A) (A)
                 (A) (A) (A) (A) (A) (A) (A) (A) (A) (A) (A) (A)
                 (A) (A) (A) (A) (A) (A) (A) (A) (A) (A) (A) (A)
                 (A) (A) (A) (A) (A) (A) (A) (A) (A) (A) (A) (A)
                 (A) (A) (A) (A) (A) (A) (A) (A) (A) (A) (A) (A)
                 (A) (A) (A) (A) (A) (A) (A) (A) (A) (A) (A) (A)
                 (A) (A) (A) (A) (A) (A) (A) (A) (A) (A) (A) (A)
                 (A) (A) (A) (A) (A) (A) (A) (A) (A) (A) (A) (A)
                 (A) (A) (A) (A) (A) (A) (A) (A) (A) (A) (A) (A)
                 (A) (A) (A) (A) (A) (A) (A) (A) (A) (A) (A) (A)
                 (A) (A) (A) (A) (A) (A) (A) (A) (A) (A) (A) (A)
                 (A) (A) (A) (A) (A) (A) (A) (A) (A) (A) (A) (A)
                 (A) (A) (A) (A) (A) (A) (A) (A) (A) (A) (A) (A)
                 (A) (A) (A) (A) (A) (A) (A) (A) (A) (A) (A) (A)
                 (A) (A) (A) (A) (A) (A) (A) (A) (A) (A) (A) (A)
                 (A) (A) (A) (A) (A) (A) (A) (A) (A) (A) (A) (A)
                 (A) (A) (A) (A) (A) (A) (A) (A) (A) (A) (A) (A)
                 (A) (A) (A) (A) (A) (A) (A) (A) (A) (A) (A) (A)
                 (A) (A) (A) (A) (A) (A) (A) (A) (A) (A) (A) (A)
                 (A) (A) (A) (A) (A) (A) (A) (A) (A) (A) (A) (A)
                 (A) (A) (A) (A) (A) (A) (A) (A) (A) (A) (A) (A)
                 (A) (A) (A) (A) (A) (A) (A) (A) (A) (A) (A) (A)
                 (A) (A) (A) (A) (A) (A) (A) (A) (A) (A) (A) (A)
                 (A) (A) (A) (A) (A) (A) (A) (A) (A) (A) (A) (A)
                 (A) (A) (A) (A) (A) (A) (A) (A) (A) (A) (A) (A)
                 (A) (A) (A) (A) (A) (A) (A) (A) (A) (A) (A) (A)
                 (A) (A) (A) (A) (A) (A) (A) (A) (A) (A) (A) (A)
                 (A) (A) (A) (A) (A) (A) (A) (A) (A) (A) (A) (A)
                 (A) (A) (A) (A) (A) (A) (A) (A) (A) (A) (A) (A)
                 (A) (A) (A) (A) (A) (A) (A) (A) (A) (A) (A) (A)
                 (A) (A) (A) (A) (A) (A) (A) (A) (A) (A) (A) (A)
                 (A) (A) (A) (A) (A) (A) (A) (A) (A) (A) (A) (A)
                 (A) (A) (A) (A) (A) (A) (A) (A) (A) (A) (A) (A)
                 (A) (A) (A) (A) (A) (A) (A) (A) (A) (A) (A) (A)
                 (A) (A) (A) (A) (A) (A) (A) (A) (A) (A) (A) (A)
                 (A) (A) (A) (A) (A) (A) (A) (A) (A) (A) (A) (A)
                 (A) (A) (A) (A) (A) (A) (A) (A) (A) (A) (A) (A)
                 (A) (A) (A) (A) (A) (A) (A) (A) (A) (A) (A) (A)
                 (A) (A) (A) (A) (A) (A) (A) (A) (A) (A) (A) (A)
                 (A) (A) (A) (A) (A) (A) (A) (A) (A) (A) (A) (A)
                 (A) (A) (A) (A) (A) (A) (A) (A) (A) (A) (A) (A)
                 (A) (A) (A) (A) (A) (A) (A) (A) (A) (A) (A) (A)
                 (A) (A) (A) (A) (A) (A) (A) (A) (A) (A) (A) (A)
                 (A) (A) (A) (A) (A) (A) (A) (A) (A) (A) (A) (A)
                 (A) (A) (A) (A) (A) (A) (A) (A) (A) (A) (A) (A)
                 (A) (A) (A) (A) (A) (A) (A) (A) (A) (A) (A) (A)
                 (A) (A) (A) (A) (A) (A) (A) (A) (A) (A) (A) (A)
                 (A) (A) (A) (A) (A) (A) (A) (A) (A) (A) (A) (A)
                 (A) (A) (A) (A) (A) (A) (A) (A) (A) (A) (A) (A)
                 (A) (A) (A) (A) (A) (A) (A) (A) (A) (A) (A) (A)
                 (A) (A) (A) (A) (A) (A) (A) (A) (A) (A) (A) (A)
                 (A) (A) (A) (A) (A) (A) (A) (A) (A) (A) (A) (A)
                 (A) (A) (A) (A) (A) (A) (A) (A) (A) (A) (A) (A)
                 (A) (A) (A) (A) (A) (A) (A) (A) (A) (A) (A) (A)
                 (A) (A) (A) (A) (A) (A) (A) (A) (A) (A) (A) (A)
                 (A) (A) (A) (A) (A) (A) (A) (A) (A) (A) (A) (A)
                 (A) (A) (A) (A) (A) (A) (A) (A) (A) (A) (A) (A)
                 (A) (A) (A) (A) (A) (A) (A) (A) (A) (A) (A) (A)
                 (A) (A) (A) (A) (A) (A) (A) (A) (A) (A) (A) (A)
                 (A) (A) (A) (A) (A) (A) (A) (A) (A) (A) (A) (A)
                 (A) (A) (A) (A) (A) (A) (A) (A) (A) (A) (A) (A)
                 (A) (A) (A) (A) (A) (A) (A) (A) (A) (A) (A) (A)
                 (A) (A) (A) (A) (A) (A) (A) (A) (A) (A) (A) (A)
                 (A) (A) (A) (A) (A) (A) (A) (A) (A) (A) (A) (A)
                 (A) (A) (A) (A) (A) (A) (A) (A) (A) (A) (A) (A)
                 (A) (A) (A) (A) (A) (A) (A) (A) (A) (A) (A) (A)
                 (A) (A) (A) (A) (A) (A) (A) (A) (A) (A) (A) (A)
                 (A) (A) (A) (A) (A) (A) (A) (A) (A) (A) (A) (A)
                 (A) (A) (A) (A) (A) (A) (A) (A) (A) (A) (A) (A)
                 (A) (A) (A) (A) (A) (A) (A) (A) (A) (A) (A) (A)
                 (A) (A) (A) (A) (A) (A) (A) (A) (A) (A) (A) (A)
                 (A) (A) (A) (A) (A) (A) (A) (A) (A) (A) (A) (A)
                 (A) (A) (A) (A) (A) (A) (A) (A) (A) (A) (A) (A)
                 (A) (A) (A) (A) (A) (A) (A) (A) (A) (A) (A) (A)
                 (A) (A) (A) (A) (A) (A) (A) (A) (A) (A) (A) (A)
                 (A) (A) (A) (A)
 The electronic state is 5-A.
 Alpha  occ. eigenvalues -- -256.32680 -30.14074 -25.97151 -25.95301 -25.95175
 Alpha  occ. eigenvalues --  -19.27341 -19.25406 -19.18133 -19.18086 -14.45524
 Alpha  occ. eigenvalues --  -14.45305 -14.38788 -14.38550 -14.35331 -14.35259
 Alpha  occ. eigenvalues --  -14.35201 -14.34980 -10.35410 -10.35069 -10.28690
 Alpha  occ. eigenvalues --  -10.28230 -10.26234 -10.26183 -10.24495 -10.24192
 Alpha  occ. eigenvalues --  -10.24183 -10.24028 -10.23595 -10.23580 -10.23554
 Alpha  occ. eigenvalues --  -10.23546 -10.23531 -10.23427 -10.23273 -10.23247
 Alpha  occ. eigenvalues --  -10.23216 -10.23145 -10.22919 -10.22480 -10.22412
 Alpha  occ. eigenvalues --  -10.21852 -10.21817 -10.21683 -10.21650 -10.21616
 Alpha  occ. eigenvalues --  -10.21616 -10.21465 -10.21380 -10.21336 -10.21278
 Alpha  occ. eigenvalues --  -10.21222 -10.21107 -10.21102 -10.21027 -10.20942
 Alpha  occ. eigenvalues --  -10.20916 -10.20838 -10.20555 -10.20550  -3.57030
 Alpha  occ. eigenvalues --   -2.35869  -2.32097  -2.31835  -1.17665  -1.16457
 Alpha  occ. eigenvalues --   -1.05667  -1.05451  -1.03164  -1.02742  -0.97067
 Alpha  occ. eigenvalues --   -0.96180  -0.96158  -0.95266  -0.90798  -0.90668
 Alpha  occ. eigenvalues --   -0.83226  -0.82787  -0.82151  -0.81673  -0.81483
 Alpha  occ. eigenvalues --   -0.80960  -0.80818  -0.80309  -0.80097  -0.78230
 Alpha  occ. eigenvalues --   -0.77669  -0.76630  -0.76003  -0.74910  -0.73344
 Alpha  occ. eigenvalues --   -0.72074  -0.71976  -0.71843  -0.71057  -0.70175
 Alpha  occ. eigenvalues --   -0.69838  -0.69203  -0.68470  -0.66341  -0.65517
 Alpha  occ. eigenvalues --   -0.65185  -0.64880  -0.64755  -0.63854  -0.62107
 Alpha  occ. eigenvalues --   -0.62060  -0.60300  -0.59551  -0.58276  -0.57986
 Alpha  occ. eigenvalues --   -0.56136  -0.55964  -0.55005  -0.54263  -0.53732
 Alpha  occ. eigenvalues --   -0.53498  -0.52645  -0.52622  -0.51797  -0.51404
 Alpha  occ. eigenvalues --   -0.51127  -0.50190  -0.49865  -0.49595  -0.49062
 Alpha  occ. eigenvalues --   -0.48482  -0.48259  -0.48090  -0.47893  -0.47828
 Alpha  occ. eigenvalues --   -0.47740  -0.47548  -0.45972  -0.45637  -0.45186
 Alpha  occ. eigenvalues --   -0.44859  -0.44787  -0.44524  -0.44119  -0.43915
 Alpha  occ. eigenvalues --   -0.43807  -0.43450  -0.43301  -0.43248  -0.43143
 Alpha  occ. eigenvalues --   -0.43059  -0.43016  -0.42900  -0.42699  -0.42369
 Alpha  occ. eigenvalues --   -0.42323  -0.42203  -0.41813  -0.41623  -0.41061
 Alpha  occ. eigenvalues --   -0.40685  -0.40537  -0.40200  -0.39929  -0.39787
 Alpha  occ. eigenvalues --   -0.39554  -0.39505  -0.39313  -0.39206  -0.38959
 Alpha  occ. eigenvalues --   -0.38650  -0.38361  -0.38271  -0.37882  -0.37472
 Alpha  occ. eigenvalues --   -0.37006  -0.36689  -0.36577  -0.36301  -0.35871
 Alpha  occ. eigenvalues --   -0.35166  -0.34733  -0.34500  -0.34444  -0.34180
 Alpha  occ. eigenvalues --   -0.34058  -0.33705  -0.32914  -0.32866  -0.32546
 Alpha  occ. eigenvalues --   -0.32126  -0.31932  -0.30195  -0.29941  -0.29284
 Alpha  occ. eigenvalues --   -0.28989  -0.28485  -0.28038  -0.27726  -0.27649
 Alpha  occ. eigenvalues --   -0.26885  -0.26451  -0.24119  -0.24056  -0.22632
 Alpha  occ. eigenvalues --   -0.22044  -0.21701  -0.21554  -0.18722  -0.18377
 Alpha  occ. eigenvalues --   -0.18280  -0.17767
 Alpha virt. eigenvalues --   -0.07272  -0.06658  -0.02126  -0.01151  -0.00625
 Alpha virt. eigenvalues --   -0.00133   0.01246   0.01311   0.01730   0.02031
 Alpha virt. eigenvalues --    0.02151   0.02322   0.02543   0.04076   0.04633
 Alpha virt. eigenvalues --    0.04701   0.04867   0.05627   0.06025   0.06177
 Alpha virt. eigenvalues --    0.06362   0.06528   0.06802   0.07284   0.07612
 Alpha virt. eigenvalues --    0.07829   0.08008   0.08233   0.08714   0.09210
 Alpha virt. eigenvalues --    0.09512   0.09796   0.09887   0.10139   0.10400
 Alpha virt. eigenvalues --    0.10773   0.10887   0.11151   0.11538   0.11725
 Alpha virt. eigenvalues --    0.11778   0.11848   0.12045   0.12462   0.12518
 Alpha virt. eigenvalues --    0.12937   0.13083   0.13274   0.13544   0.13554
 Alpha virt. eigenvalues --    0.13852   0.14001   0.14328   0.14497   0.14512
 Alpha virt. eigenvalues --    0.14800   0.14885   0.15176   0.15423   0.15625
 Alpha virt. eigenvalues --    0.15781   0.15815   0.15966   0.16100   0.16399
 Alpha virt. eigenvalues --    0.16583   0.17108   0.17213   0.17349   0.17419
 Alpha virt. eigenvalues --    0.17560   0.17876   0.18171   0.18309   0.18688
 Alpha virt. eigenvalues --    0.18922   0.19183   0.19610   0.19828   0.20221
 Alpha virt. eigenvalues --    0.20388   0.20624   0.20885   0.20973   0.21094
 Alpha virt. eigenvalues --    0.21219   0.21344   0.21491   0.21640   0.22257
 Alpha virt. eigenvalues --    0.22381   0.22471   0.22781   0.22811   0.23001
 Alpha virt. eigenvalues --    0.23109   0.23551   0.23828   0.24132   0.24194
 Alpha virt. eigenvalues --    0.24494   0.24698   0.24934   0.25037   0.25257
 Alpha virt. eigenvalues --    0.25446   0.25705   0.25845   0.25905   0.26170
 Alpha virt. eigenvalues --    0.26184   0.26310   0.26566   0.26802   0.27310
 Alpha virt. eigenvalues --    0.27405   0.27908   0.27924   0.27977   0.28149
 Alpha virt. eigenvalues --    0.28351   0.28578   0.28807   0.28860   0.29225
 Alpha virt. eigenvalues --    0.29439   0.29447   0.29609   0.30036   0.30341
 Alpha virt. eigenvalues --    0.30468   0.30892   0.31055   0.31251   0.31526
 Alpha virt. eigenvalues --    0.31577   0.31887   0.32319   0.32426   0.32586
 Alpha virt. eigenvalues --    0.32955   0.33031   0.33111   0.33483   0.33725
 Alpha virt. eigenvalues --    0.34090   0.34143   0.34573   0.34684   0.34773
 Alpha virt. eigenvalues --    0.34880   0.35059   0.35305   0.35537   0.35889
 Alpha virt. eigenvalues --    0.36039   0.36271   0.36571   0.36720   0.37144
 Alpha virt. eigenvalues --    0.37295   0.37401   0.37563   0.37733   0.37830
 Alpha virt. eigenvalues --    0.38190   0.38354   0.38402   0.38729   0.38791
 Alpha virt. eigenvalues --    0.39010   0.39187   0.39409   0.39544   0.39683
 Alpha virt. eigenvalues --    0.39864   0.40007   0.40245   0.40257   0.40399
 Alpha virt. eigenvalues --    0.40746   0.40786   0.40817   0.41189   0.41407
 Alpha virt. eigenvalues --    0.41478   0.41758   0.41888   0.42115   0.42324
 Alpha virt. eigenvalues --    0.42421   0.42700   0.42828   0.43095   0.43266
 Alpha virt. eigenvalues --    0.43515   0.43686   0.43725   0.43801   0.43992
 Alpha virt. eigenvalues --    0.44353   0.44519   0.44685   0.44727   0.44956
 Alpha virt. eigenvalues --    0.45097   0.45290   0.45371   0.45686   0.45845
 Alpha virt. eigenvalues --    0.46040   0.46331   0.46364   0.46530   0.46604
 Alpha virt. eigenvalues --    0.46689   0.46931   0.47071   0.47218   0.47402
 Alpha virt. eigenvalues --    0.47613   0.47834   0.48097   0.48246   0.48378
 Alpha virt. eigenvalues --    0.48455   0.48545   0.48804   0.48963   0.49012
 Alpha virt. eigenvalues --    0.49335   0.49492   0.49562   0.49681   0.49765
 Alpha virt. eigenvalues --    0.50009   0.50182   0.50392   0.50467   0.50686
 Alpha virt. eigenvalues --    0.50840   0.51113   0.51156   0.51395   0.51452
 Alpha virt. eigenvalues --    0.51725   0.51958   0.52133   0.52502   0.52675
 Alpha virt. eigenvalues --    0.52786   0.52808   0.53233   0.53485   0.53875
 Alpha virt. eigenvalues --    0.53894   0.54015   0.54226   0.54638   0.54834
 Alpha virt. eigenvalues --    0.54888   0.55226   0.55246   0.55454   0.55701
 Alpha virt. eigenvalues --    0.55980   0.56263   0.56425   0.56664   0.56879
 Alpha virt. eigenvalues --    0.57370   0.57404   0.57533   0.57649   0.57739
 Alpha virt. eigenvalues --    0.58053   0.58416   0.58526   0.58671   0.58869
 Alpha virt. eigenvalues --    0.58993   0.59332   0.59630   0.59776   0.59952
 Alpha virt. eigenvalues --    0.60289   0.60456   0.60939   0.60982   0.61315
 Alpha virt. eigenvalues --    0.61550   0.61733   0.62135   0.62355   0.62552
 Alpha virt. eigenvalues --    0.62745   0.62913   0.63200   0.63387   0.63483
 Alpha virt. eigenvalues --    0.63929   0.63967   0.64059   0.64365   0.64639
 Alpha virt. eigenvalues --    0.65122   0.65339   0.65519   0.65769   0.65935
 Alpha virt. eigenvalues --    0.66167   0.66494   0.66784   0.66931   0.67329
 Alpha virt. eigenvalues --    0.67577   0.68002   0.68166   0.68441   0.68600
 Alpha virt. eigenvalues --    0.68920   0.69007   0.69114   0.69721   0.70090
 Alpha virt. eigenvalues --    0.70458   0.70779   0.70926   0.71134   0.71558
 Alpha virt. eigenvalues --    0.71617   0.71743   0.72068   0.72353   0.72798
 Alpha virt. eigenvalues --    0.72856   0.73247   0.73621   0.73768   0.74039
 Alpha virt. eigenvalues --    0.74582   0.74596   0.74984   0.75581   0.75653
 Alpha virt. eigenvalues --    0.75945   0.76025   0.76455   0.76558   0.76931
 Alpha virt. eigenvalues --    0.77130   0.77216   0.77806   0.78123   0.78250
 Alpha virt. eigenvalues --    0.78498   0.78877   0.78907   0.79124   0.79441
 Alpha virt. eigenvalues --    0.79773   0.80025   0.80365   0.80694   0.80964
 Alpha virt. eigenvalues --    0.81144   0.81613   0.81944   0.82034   0.82185
 Alpha virt. eigenvalues --    0.82834   0.83146   0.83593   0.83784   0.83995
 Alpha virt. eigenvalues --    0.84232   0.84530   0.84986   0.85269   0.85657
 Alpha virt. eigenvalues --    0.85772   0.86020   0.86098   0.86366   0.86696
 Alpha virt. eigenvalues --    0.86813   0.87580   0.87687   0.87929   0.88159
 Alpha virt. eigenvalues --    0.88351   0.89190   0.89278   0.89507   0.89730
 Alpha virt. eigenvalues --    0.90073   0.90345   0.90911   0.91270   0.91356
 Alpha virt. eigenvalues --    0.91687   0.91879   0.92028   0.92163   0.92849
 Alpha virt. eigenvalues --    0.93047   0.93266   0.93397   0.93637   0.93778
 Alpha virt. eigenvalues --    0.94138   0.94487   0.94692   0.94865   0.95027
 Alpha virt. eigenvalues --    0.95346   0.95519   0.95728   0.95867   0.96152
 Alpha virt. eigenvalues --    0.96289   0.96652   0.97006   0.97134   0.97441
 Alpha virt. eigenvalues --    0.97693   0.98039   0.98474   0.98615   0.98881
 Alpha virt. eigenvalues --    0.98990   0.99427   0.99854   0.99988   1.00312
 Alpha virt. eigenvalues --    1.00739   1.01122   1.01267   1.01470   1.01590
 Alpha virt. eigenvalues --    1.01850   1.02199   1.02287   1.02574   1.02941
 Alpha virt. eigenvalues --    1.03119   1.03448   1.03748   1.03935   1.04244
 Alpha virt. eigenvalues --    1.04455   1.04692   1.04823   1.05220   1.05362
 Alpha virt. eigenvalues --    1.05650   1.05935   1.06221   1.06497   1.07370
 Alpha virt. eigenvalues --    1.07480   1.07568   1.07947   1.08229   1.08514
 Alpha virt. eigenvalues --    1.08655   1.09418   1.09612   1.09689   1.10139
 Alpha virt. eigenvalues --    1.10407   1.10983   1.11310   1.11918   1.11963
 Alpha virt. eigenvalues --    1.12115   1.12800   1.13019   1.13608   1.13993
 Alpha virt. eigenvalues --    1.14166   1.14463   1.15074   1.15250   1.15657
 Alpha virt. eigenvalues --    1.15859   1.16324   1.16617   1.16858   1.17498
 Alpha virt. eigenvalues --    1.17593   1.17698   1.18151   1.18728   1.19011
 Alpha virt. eigenvalues --    1.19231   1.19458   1.19839   1.20331   1.20653
 Alpha virt. eigenvalues --    1.20924   1.20950   1.21364   1.21619   1.22156
 Alpha virt. eigenvalues --    1.22389   1.22503   1.22994   1.23401   1.23747
 Alpha virt. eigenvalues --    1.23812   1.24406   1.24730   1.24912   1.25563
 Alpha virt. eigenvalues --    1.25618   1.25802   1.25917   1.26377   1.26573
 Alpha virt. eigenvalues --    1.27018   1.27174   1.27501   1.27907   1.28211
 Alpha virt. eigenvalues --    1.28565   1.28809   1.28939   1.29521   1.29792
 Alpha virt. eigenvalues --    1.29999   1.30472   1.30777   1.31122   1.31627
 Alpha virt. eigenvalues --    1.31911   1.32281   1.32563   1.32740   1.33492
 Alpha virt. eigenvalues --    1.33624   1.33700   1.34222   1.35041   1.35124
 Alpha virt. eigenvalues --    1.35402   1.35639   1.36038   1.36375   1.36476
 Alpha virt. eigenvalues --    1.36974   1.37571   1.37878   1.38083   1.38308
 Alpha virt. eigenvalues --    1.38597   1.38917   1.39035   1.39387   1.39867
 Alpha virt. eigenvalues --    1.40195   1.40235   1.40864   1.41283   1.41505
 Alpha virt. eigenvalues --    1.41962   1.42454   1.42648   1.42969   1.43479
 Alpha virt. eigenvalues --    1.43696   1.44548   1.44860   1.44912   1.45345
 Alpha virt. eigenvalues --    1.45952   1.46369   1.46520   1.46908   1.47058
 Alpha virt. eigenvalues --    1.47585   1.47803   1.48062   1.48107   1.48775
 Alpha virt. eigenvalues --    1.48909   1.48957   1.49251   1.49445   1.49937
 Alpha virt. eigenvalues --    1.50126   1.50164   1.50577   1.51134   1.51333
 Alpha virt. eigenvalues --    1.51649   1.51961   1.52225   1.52470   1.52619
 Alpha virt. eigenvalues --    1.52887   1.53267   1.53453   1.53657   1.53950
 Alpha virt. eigenvalues --    1.53966   1.54340   1.54985   1.54998   1.55219
 Alpha virt. eigenvalues --    1.55460   1.55849   1.56049   1.56157   1.56331
 Alpha virt. eigenvalues --    1.56693   1.57017   1.57180   1.57505   1.57687
 Alpha virt. eigenvalues --    1.57819   1.58429   1.58711   1.58910   1.58990
 Alpha virt. eigenvalues --    1.59404   1.59480   1.59805   1.59908   1.60275
 Alpha virt. eigenvalues --    1.60313   1.60659   1.61153   1.61222   1.61248
 Alpha virt. eigenvalues --    1.61732   1.62057   1.62181   1.62463   1.62623
 Alpha virt. eigenvalues --    1.62882   1.63275   1.63382   1.63793   1.64101
 Alpha virt. eigenvalues --    1.64283   1.64581   1.64823   1.64992   1.65183
 Alpha virt. eigenvalues --    1.65412   1.65899   1.66264   1.66593   1.66780
 Alpha virt. eigenvalues --    1.66839   1.67150   1.67480   1.67674   1.67959
 Alpha virt. eigenvalues --    1.68264   1.68358   1.68851   1.68988   1.69313
 Alpha virt. eigenvalues --    1.69747   1.70109   1.70270   1.70844   1.71027
 Alpha virt. eigenvalues --    1.71452   1.71537   1.72204   1.72325   1.72503
 Alpha virt. eigenvalues --    1.72824   1.72947   1.73135   1.73348   1.73629
 Alpha virt. eigenvalues --    1.74190   1.74525   1.74821   1.75404   1.75568
 Alpha virt. eigenvalues --    1.75788   1.76547   1.76762   1.76953   1.77225
 Alpha virt. eigenvalues --    1.77458   1.78443   1.78493   1.78761   1.79689
 Alpha virt. eigenvalues --    1.79924   1.80043   1.80337   1.80587   1.80863
 Alpha virt. eigenvalues --    1.81268   1.81809   1.82065   1.82446   1.83055
 Alpha virt. eigenvalues --    1.83231   1.83426   1.83883   1.83966   1.84240
 Alpha virt. eigenvalues --    1.84808   1.84911   1.85200   1.85600   1.85814
 Alpha virt. eigenvalues --    1.86027   1.86544   1.86904   1.87075   1.87486
 Alpha virt. eigenvalues --    1.87958   1.88309   1.88482   1.89022   1.89420
 Alpha virt. eigenvalues --    1.89461   1.89520   1.90640   1.90696   1.91197
 Alpha virt. eigenvalues --    1.91365   1.91761   1.92099   1.92302   1.92880
 Alpha virt. eigenvalues --    1.93270   1.93622   1.93792   1.94448   1.94744
 Alpha virt. eigenvalues --    1.95116   1.95570   1.95917   1.96070   1.96626
 Alpha virt. eigenvalues --    1.96860   1.97066   1.97445   1.97515   1.97914
 Alpha virt. eigenvalues --    1.98435   1.98702   1.98879   1.99541   1.99630
 Alpha virt. eigenvalues --    1.99979   2.00469   2.00581   2.01176   2.01545
 Alpha virt. eigenvalues --    2.01927   2.01970   2.02569   2.02947   2.03385
 Alpha virt. eigenvalues --    2.03647   2.03901   2.04295   2.04329   2.04506
 Alpha virt. eigenvalues --    2.04740   2.05377   2.05836   2.06445   2.06594
 Alpha virt. eigenvalues --    2.06853   2.07040   2.07392   2.08264   2.08581
 Alpha virt. eigenvalues --    2.08730   2.09072   2.09256   2.09630   2.10337
 Alpha virt. eigenvalues --    2.10563   2.11042   2.11297   2.11739   2.12092
 Alpha virt. eigenvalues --    2.12518   2.12978   2.13239   2.13297   2.13854
 Alpha virt. eigenvalues --    2.14027   2.14524   2.15080   2.15302   2.15709
 Alpha virt. eigenvalues --    2.15850   2.16332   2.16468   2.16609   2.17014
 Alpha virt. eigenvalues --    2.17287   2.17773   2.18177   2.18248   2.18765
 Alpha virt. eigenvalues --    2.19282   2.19440   2.19798   2.20063   2.20322
 Alpha virt. eigenvalues --    2.20892   2.21040   2.21138   2.21730   2.21919
 Alpha virt. eigenvalues --    2.22355   2.22854   2.23107   2.23346   2.24180
 Alpha virt. eigenvalues --    2.24362   2.24901   2.25138   2.25577   2.26097
 Alpha virt. eigenvalues --    2.26203   2.26618   2.26885   2.27057   2.27459
 Alpha virt. eigenvalues --    2.27867   2.28540   2.28810   2.29206   2.29967
 Alpha virt. eigenvalues --    2.30231   2.30363   2.30527   2.30598   2.30819
 Alpha virt. eigenvalues --    2.31130   2.31550   2.31858   2.32266   2.32675
 Alpha virt. eigenvalues --    2.32819   2.33193   2.33996   2.34210   2.34644
 Alpha virt. eigenvalues --    2.34756   2.35377   2.35709   2.36029   2.36226
 Alpha virt. eigenvalues --    2.36801   2.37079   2.37254   2.37539   2.38066
 Alpha virt. eigenvalues --    2.38525   2.38594   2.39057   2.39389   2.39866
 Alpha virt. eigenvalues --    2.40181   2.40517   2.40555   2.40798   2.41448
 Alpha virt. eigenvalues --    2.41527   2.41542   2.41776   2.42409   2.42556
 Alpha virt. eigenvalues --    2.43309   2.43373   2.43560   2.43601   2.44852
 Alpha virt. eigenvalues --    2.45363   2.45659   2.45982   2.46497   2.46579
 Alpha virt. eigenvalues --    2.46881   2.47885   2.48121   2.48283   2.48516
 Alpha virt. eigenvalues --    2.49066   2.49457   2.49850   2.50323   2.50444
 Alpha virt. eigenvalues --    2.50871   2.51057   2.51841   2.52213   2.52586
 Alpha virt. eigenvalues --    2.53038   2.53203   2.53382   2.53700   2.53974
 Alpha virt. eigenvalues --    2.54389   2.54651   2.54985   2.55184   2.55769
 Alpha virt. eigenvalues --    2.55933   2.56236   2.56287   2.56717   2.56803
 Alpha virt. eigenvalues --    2.57128   2.57540   2.57783   2.58058   2.58272
 Alpha virt. eigenvalues --    2.58400   2.58539   2.58693   2.59449   2.59492
 Alpha virt. eigenvalues --    2.59655   2.60056   2.60217   2.60649   2.60891
 Alpha virt. eigenvalues --    2.61158   2.61431   2.61964   2.62180   2.62591
 Alpha virt. eigenvalues --    2.63231   2.63536   2.63724   2.63800   2.64052
 Alpha virt. eigenvalues --    2.64241   2.64636   2.64927   2.65228   2.65483
 Alpha virt. eigenvalues --    2.66039   2.66356   2.66585   2.66928   2.67526
 Alpha virt. eigenvalues --    2.67694   2.67876   2.68579   2.68680   2.69105
 Alpha virt. eigenvalues --    2.69355   2.69813   2.70034   2.70290   2.70423
 Alpha virt. eigenvalues --    2.70703   2.70766   2.70943   2.71462   2.71532
 Alpha virt. eigenvalues --    2.72111   2.72301   2.72640   2.73117   2.73370
 Alpha virt. eigenvalues --    2.74021   2.74090   2.74332   2.74751   2.74998
 Alpha virt. eigenvalues --    2.75415   2.75754   2.76603   2.76827   2.77133
 Alpha virt. eigenvalues --    2.77412   2.78034   2.78279   2.78621   2.78877
 Alpha virt. eigenvalues --    2.79239   2.79393   2.79566   2.80125   2.80213
 Alpha virt. eigenvalues --    2.80815   2.81165   2.81581   2.81857   2.82734
 Alpha virt. eigenvalues --    2.83099   2.83217   2.83764   2.83999   2.84426
 Alpha virt. eigenvalues --    2.84606   2.85364   2.85411   2.85699   2.85912
 Alpha virt. eigenvalues --    2.86305   2.86784   2.87257   2.87357   2.87885
 Alpha virt. eigenvalues --    2.88331   2.88363   2.88786   2.89042   2.89439
 Alpha virt. eigenvalues --    2.89911   2.90172   2.90311   2.90494   2.90599
 Alpha virt. eigenvalues --    2.91111   2.91223   2.91719   2.92011   2.92407
 Alpha virt. eigenvalues --    2.92679   2.92770   2.92996   2.93385   2.93814
 Alpha virt. eigenvalues --    2.94000   2.94373   2.94458   2.94872   2.95090
 Alpha virt. eigenvalues --    2.95847   2.95884   2.96034   2.96263   2.96539
 Alpha virt. eigenvalues --    2.97120   2.97400   2.97823   2.97864   2.98216
 Alpha virt. eigenvalues --    2.98377   2.98858   2.99070   2.99576   2.99812
 Alpha virt. eigenvalues --    2.99952   3.00158   3.00457   3.00999   3.01192
 Alpha virt. eigenvalues --    3.01531   3.01591   3.01946   3.02297   3.02556
 Alpha virt. eigenvalues --    3.02916   3.03120   3.03393   3.03520   3.04204
 Alpha virt. eigenvalues --    3.04517   3.04809   3.05032   3.05142   3.05439
 Alpha virt. eigenvalues --    3.05668   3.05719   3.05959   3.06512   3.06655
 Alpha virt. eigenvalues --    3.06890   3.07131   3.07379   3.07941   3.08385
 Alpha virt. eigenvalues --    3.08610   3.08770   3.09015   3.09057   3.09560
 Alpha virt. eigenvalues --    3.10032   3.10315   3.10582   3.10716   3.10867
 Alpha virt. eigenvalues --    3.11138   3.11571   3.11954   3.12054   3.12378
 Alpha virt. eigenvalues --    3.12662   3.12723   3.13233   3.13319   3.13662
 Alpha virt. eigenvalues --    3.13943   3.14114   3.14464   3.15043   3.15317
 Alpha virt. eigenvalues --    3.15338   3.15652   3.15800   3.16020   3.16475
 Alpha virt. eigenvalues --    3.16556   3.17124   3.17285   3.17461   3.17693
 Alpha virt. eigenvalues --    3.17975   3.18078   3.18481   3.18554   3.18881
 Alpha virt. eigenvalues --    3.18962   3.19070   3.19582   3.19620   3.19978
 Alpha virt. eigenvalues --    3.20223   3.20404   3.20552   3.20723   3.21139
 Alpha virt. eigenvalues --    3.21405   3.21765   3.21879   3.22244   3.22637
 Alpha virt. eigenvalues --    3.22951   3.23000   3.23284   3.23539   3.23752
 Alpha virt. eigenvalues --    3.23968   3.24306   3.24579   3.24727   3.24914
 Alpha virt. eigenvalues --    3.25221   3.25427   3.25658   3.25728   3.26456
 Alpha virt. eigenvalues --    3.26547   3.26579   3.26772   3.26854   3.27042
 Alpha virt. eigenvalues --    3.27444   3.27532   3.27925   3.28179   3.28195
 Alpha virt. eigenvalues --    3.28646   3.28926   3.29273   3.29518   3.29675
 Alpha virt. eigenvalues --    3.29934   3.30299   3.30481   3.30697   3.30853
 Alpha virt. eigenvalues --    3.31017   3.31433   3.31528   3.31968   3.32062
 Alpha virt. eigenvalues --    3.32675   3.32857   3.33118   3.33268   3.33323
 Alpha virt. eigenvalues --    3.33416   3.33727   3.34359   3.34555   3.34729
 Alpha virt. eigenvalues --    3.34821   3.35257   3.35452   3.35669   3.35874
 Alpha virt. eigenvalues --    3.36026   3.36229   3.36673   3.36887   3.36991
 Alpha virt. eigenvalues --    3.37232   3.37578   3.37859   3.38100   3.38312
 Alpha virt. eigenvalues --    3.38500   3.38721   3.39071   3.39270   3.39427
 Alpha virt. eigenvalues --    3.39693   3.39972   3.40310   3.40799   3.40976
 Alpha virt. eigenvalues --    3.41310   3.41605   3.41736   3.42162   3.42433
 Alpha virt. eigenvalues --    3.42555   3.42709   3.43183   3.43426   3.43506
 Alpha virt. eigenvalues --    3.43650   3.44269   3.44533   3.44813   3.44871
 Alpha virt. eigenvalues --    3.45070   3.45559   3.45667   3.45880   3.46441
 Alpha virt. eigenvalues --    3.46673   3.46831   3.47213   3.47378   3.47668
 Alpha virt. eigenvalues --    3.47807   3.48285   3.48508   3.48900   3.49013
 Alpha virt. eigenvalues --    3.49282   3.49493   3.49992   3.50053   3.50578
 Alpha virt. eigenvalues --    3.50684   3.51200   3.51623   3.51956   3.52305
 Alpha virt. eigenvalues --    3.52515   3.52608   3.52862   3.53211   3.53772
 Alpha virt. eigenvalues --    3.54062   3.54277   3.54604   3.54891   3.55200
 Alpha virt. eigenvalues --    3.55593   3.56022   3.56384   3.56904   3.57054
 Alpha virt. eigenvalues --    3.57371   3.57536   3.57779   3.58067   3.58476
 Alpha virt. eigenvalues --    3.59088   3.59272   3.59503   3.60343   3.60482
 Alpha virt. eigenvalues --    3.60799   3.61242   3.61619   3.61937   3.62185
 Alpha virt. eigenvalues --    3.62261   3.62753   3.63057   3.63177   3.63732
 Alpha virt. eigenvalues --    3.64250   3.64427   3.64775   3.65237   3.65734
 Alpha virt. eigenvalues --    3.66032   3.66367   3.66666   3.66835   3.67050
 Alpha virt. eigenvalues --    3.67745   3.67977   3.68350   3.69238   3.69450
 Alpha virt. eigenvalues --    3.69726   3.70047   3.70353   3.70458   3.70835
 Alpha virt. eigenvalues --    3.71125   3.71274   3.71682   3.72147   3.72445
 Alpha virt. eigenvalues --    3.72705   3.73396   3.73819   3.73942   3.74192
 Alpha virt. eigenvalues --    3.74600   3.74722   3.74945   3.75073   3.75289
 Alpha virt. eigenvalues --    3.75845   3.76104   3.76688   3.77076   3.77362
 Alpha virt. eigenvalues --    3.77478   3.77943   3.78211   3.79256   3.79847
 Alpha virt. eigenvalues --    3.80248   3.81177   3.81528   3.82210   3.82632
 Alpha virt. eigenvalues --    3.83911   3.84353   3.84402   3.84591   3.85499
 Alpha virt. eigenvalues --    3.85764   3.85944   3.86331   3.86900   3.86992
 Alpha virt. eigenvalues --    3.87808   3.88446   3.88622   3.88840   3.89097
 Alpha virt. eigenvalues --    3.89897   3.90008   3.90136   3.90745   3.91279
 Alpha virt. eigenvalues --    3.91497   3.92051   3.92325   3.92875   3.93195
 Alpha virt. eigenvalues --    3.93510   3.93883   3.94164   3.94910   3.95682
 Alpha virt. eigenvalues --    3.96043   3.96196   3.96385   3.97001   3.97268
 Alpha virt. eigenvalues --    3.97340   3.97710   3.98410   3.98764   3.99622
 Alpha virt. eigenvalues --    4.00529   4.00995   4.01403   4.01979   4.02489
 Alpha virt. eigenvalues --    4.02884   4.03027   4.03549   4.04416   4.04721
 Alpha virt. eigenvalues --    4.05241   4.05751   4.06169   4.06590   4.07004
 Alpha virt. eigenvalues --    4.07766   4.08059   4.09084   4.09475   4.10244
 Alpha virt. eigenvalues --    4.10617   4.11016   4.11168   4.11621   4.12134
 Alpha virt. eigenvalues --    4.12499   4.12741   4.13197   4.13601   4.14208
 Alpha virt. eigenvalues --    4.14696   4.15008   4.15536   4.16141   4.16792
 Alpha virt. eigenvalues --    4.17130   4.17463   4.17988   4.18994   4.19609
 Alpha virt. eigenvalues --    4.19794   4.20322   4.20715   4.21415   4.21537
 Alpha virt. eigenvalues --    4.22062   4.22993   4.23315   4.23912   4.24237
 Alpha virt. eigenvalues --    4.25067   4.25524   4.25581   4.26054   4.26404
 Alpha virt. eigenvalues --    4.26716   4.27137   4.27730   4.28098   4.28710
 Alpha virt. eigenvalues --    4.29115   4.29470   4.29946   4.30248   4.30747
 Alpha virt. eigenvalues --    4.31078   4.31398   4.32139   4.32341   4.32799
 Alpha virt. eigenvalues --    4.33625   4.33961   4.34179   4.34637   4.34788
 Alpha virt. eigenvalues --    4.35398   4.35724   4.36129   4.36526   4.37626
 Alpha virt. eigenvalues --    4.37975   4.38241   4.39271   4.39944   4.39967
 Alpha virt. eigenvalues --    4.40640   4.40877   4.41131   4.41687   4.42643
 Alpha virt. eigenvalues --    4.43246   4.43739   4.44146   4.45111   4.45311
 Alpha virt. eigenvalues --    4.45665   4.46010   4.46999   4.47343   4.47669
 Alpha virt. eigenvalues --    4.48143   4.48728   4.49543   4.50707   4.50806
 Alpha virt. eigenvalues --    4.51608   4.52075   4.53497   4.54216   4.55440
 Alpha virt. eigenvalues --    4.55737   4.55794   4.56321   4.57052   4.57216
 Alpha virt. eigenvalues --    4.58218   4.58859   4.59295   4.59783   4.60569
 Alpha virt. eigenvalues --    4.60838   4.61132   4.61369   4.62242   4.63230
 Alpha virt. eigenvalues --    4.63622   4.64127   4.64565   4.65894   4.66285
 Alpha virt. eigenvalues --    4.66849   4.67541   4.67679   4.68203   4.68935
 Alpha virt. eigenvalues --    4.70106   4.70276   4.70874   4.71241   4.71800
 Alpha virt. eigenvalues --    4.72174   4.72571   4.73095   4.73201   4.73629
 Alpha virt. eigenvalues --    4.75109   4.75501   4.76262   4.76749   4.77387
 Alpha virt. eigenvalues --    4.77813   4.78859   4.79395   4.79911   4.80208
 Alpha virt. eigenvalues --    4.80378   4.81265   4.81505   4.82185   4.83161
 Alpha virt. eigenvalues --    4.83884   4.84611   4.85618   4.85829   4.86157
 Alpha virt. eigenvalues --    4.86999   4.87222   4.87716   4.88465   4.89763
 Alpha virt. eigenvalues --    4.90418   4.90729   4.91374   4.92872   4.93026
 Alpha virt. eigenvalues --    4.93996   4.94139   4.94784   4.95079   4.95631
 Alpha virt. eigenvalues --    4.95784   4.96855   4.97812   4.98235   4.99320
 Alpha virt. eigenvalues --    4.99429   4.99743   5.00730   5.01746   5.02066
 Alpha virt. eigenvalues --    5.02509   5.03169   5.04304   5.04568   5.05548
 Alpha virt. eigenvalues --    5.06546   5.06859   5.06901   5.08070   5.08971
 Alpha virt. eigenvalues --    5.09632   5.10349   5.11869   5.12506   5.12923
 Alpha virt. eigenvalues --    5.13831   5.15396   5.16244   5.18236   5.18697
 Alpha virt. eigenvalues --    5.18732   5.19446   5.19893   5.20128   5.21450
 Alpha virt. eigenvalues --    5.21525   5.21927   5.22426   5.22925   5.23678
 Alpha virt. eigenvalues --    5.23905   5.24661   5.25065   5.25520   5.26133
 Alpha virt. eigenvalues --    5.26976   5.27701   5.29198   5.29807   5.31002
 Alpha virt. eigenvalues --    5.31903   5.32799   5.33164   5.33746   5.34286
 Alpha virt. eigenvalues --    5.37019   5.37341   5.38343   5.38533   5.39501
 Alpha virt. eigenvalues --    5.39832   5.41019   5.41526   5.42220   5.42725
 Alpha virt. eigenvalues --    5.43080   5.43962   5.44395   5.45125   5.45688
 Alpha virt. eigenvalues --    5.46231   5.46873   5.48212   5.49012   5.50432
 Alpha virt. eigenvalues --    5.51416   5.51884   5.54540   5.55376   5.56734
 Alpha virt. eigenvalues --    5.57033   5.57567   5.58718   5.58881   5.59404
 Alpha virt. eigenvalues --    5.60016   5.60911   5.61797   5.63137   5.63982
 Alpha virt. eigenvalues --    5.64971   5.66363   5.67024   5.68214   5.68679
 Alpha virt. eigenvalues --    5.70763   5.71003   5.71675   5.71967   5.74053
 Alpha virt. eigenvalues --    5.75639   5.76652   5.80869   5.81105   5.81739
 Alpha virt. eigenvalues --    5.82034   5.84094   5.90423   5.92686   5.93227
 Alpha virt. eigenvalues --    5.95742   5.96806   5.97770   6.00710   6.02093
 Alpha virt. eigenvalues --    6.02907   6.03140   6.04318   6.05362   6.05698
 Alpha virt. eigenvalues --    6.06922   6.08106   6.09452   6.10236   6.10875
 Alpha virt. eigenvalues --    6.12464   6.14391   6.16248   6.18205   6.18889
 Alpha virt. eigenvalues --    6.21739   6.23273   6.27084   6.27490   6.32056
 Alpha virt. eigenvalues --    6.32844   6.33438   6.35864   6.39282   6.40213
 Alpha virt. eigenvalues --    6.41258   6.44380   6.47238   6.48605   6.50827
 Alpha virt. eigenvalues --    6.52636   6.65842   6.67072   6.74638   6.76819
 Alpha virt. eigenvalues --    6.85115   6.86588   6.93074   6.94526   6.97585
 Alpha virt. eigenvalues --    7.08044   7.12574   7.13863   7.18838   7.19372
 Alpha virt. eigenvalues --    7.27009   7.27294  22.29932  22.31335  22.46163
 Alpha virt. eigenvalues --   22.46408  22.50585  22.52156  22.52801  22.55869
 Alpha virt. eigenvalues --   22.59412  22.62044  22.66231  22.69341  22.71422
 Alpha virt. eigenvalues --   22.77719  22.78410  22.82561  22.90403  22.91962
 Alpha virt. eigenvalues --   22.94668  22.96234  22.98834  23.00741  23.02484
 Alpha virt. eigenvalues --   23.07072  23.07847  23.10360  23.25750  23.27987
 Alpha virt. eigenvalues --   23.30068  23.32449  23.35343  23.37118  23.46658
 Alpha virt. eigenvalues --   23.48608  23.51515  23.53145  23.57508  23.59981
 Alpha virt. eigenvalues --   23.66131  23.71195  23.72786  23.80280  32.43489
 Alpha virt. eigenvalues --   32.46689  32.74633  32.85656  32.99843  33.13015
 Alpha virt. eigenvalues --   33.18376  33.41072  43.94054  43.95948  43.97690
 Alpha virt. eigenvalues --   43.98017
  Beta  occ. eigenvalues -- -256.32552 -30.05288 -25.89050 -25.88238 -25.88191
  Beta  occ. eigenvalues --  -19.27341 -19.25406 -19.18133 -19.18085 -14.45510
  Beta  occ. eigenvalues --  -14.45292 -14.38614 -14.38366 -14.35102 -14.35025
  Beta  occ. eigenvalues --  -14.34963 -14.34750 -10.35410 -10.35069 -10.28667
  Beta  occ. eigenvalues --  -10.28213 -10.26230 -10.26181 -10.24454 -10.24171
  Beta  occ. eigenvalues --  -10.24145 -10.23999 -10.23678 -10.23624 -10.23598
  Beta  occ. eigenvalues --  -10.23553 -10.23548 -10.23427 -10.23368 -10.23245
  Beta  occ. eigenvalues --  -10.23244 -10.23215 -10.22896 -10.22492 -10.22409
  Beta  occ. eigenvalues --  -10.21916 -10.21809 -10.21617 -10.21612 -10.21607
  Beta  occ. eigenvalues --  -10.21568 -10.21544 -10.21415 -10.21364 -10.21350
  Beta  occ. eigenvalues --  -10.21296 -10.21139 -10.21096 -10.21052 -10.20944
  Beta  occ. eigenvalues --  -10.20910 -10.20778 -10.20547 -10.20532  -3.35920
  Beta  occ. eigenvalues --   -2.10761  -2.10590  -2.10459  -1.17665  -1.16457
  Beta  occ. eigenvalues --   -1.05580  -1.05363  -1.03163  -1.02742  -0.96891
  Beta  occ. eigenvalues --   -0.96016  -0.95971  -0.95075  -0.90606  -0.90491
  Beta  occ. eigenvalues --   -0.83217  -0.82796  -0.82137  -0.81628  -0.81425
  Beta  occ. eigenvalues --   -0.80938  -0.80797  -0.80351  -0.80171  -0.78239
  Beta  occ. eigenvalues --   -0.77640  -0.76632  -0.75976  -0.74948  -0.73336
  Beta  occ. eigenvalues --   -0.72030  -0.71946  -0.71799  -0.71042  -0.70105
  Beta  occ. eigenvalues --   -0.69821  -0.69157  -0.68438  -0.66292  -0.65480
  Beta  occ. eigenvalues --   -0.64976  -0.64863  -0.64748  -0.63816  -0.62065
  Beta  occ. eigenvalues --   -0.62018  -0.60267  -0.59508  -0.58295  -0.57890
  Beta  occ. eigenvalues --   -0.56057  -0.55891  -0.54973  -0.54209  -0.53691
  Beta  occ. eigenvalues --   -0.53453  -0.52611  -0.52523  -0.51728  -0.51346
  Beta  occ. eigenvalues --   -0.51041  -0.50137  -0.49831  -0.49549  -0.48897
  Beta  occ. eigenvalues --   -0.48469  -0.48154  -0.48009  -0.47742  -0.47680
  Beta  occ. eigenvalues --   -0.47562  -0.47335  -0.45842  -0.45559  -0.45154
  Beta  occ. eigenvalues --   -0.44804  -0.44527  -0.44098  -0.43943  -0.43771
  Beta  occ. eigenvalues --   -0.43404  -0.43340  -0.43243  -0.43090  -0.43011
  Beta  occ. eigenvalues --   -0.42987  -0.42903  -0.42805  -0.42651  -0.42326
  Beta  occ. eigenvalues --   -0.42275  -0.42083  -0.41715  -0.41525  -0.41018
  Beta  occ. eigenvalues --   -0.40519  -0.40388  -0.40014  -0.39764  -0.39690
  Beta  occ. eigenvalues --   -0.39435  -0.39334  -0.39021  -0.38660  -0.38479
  Beta  occ. eigenvalues --   -0.38215  -0.37752  -0.37452  -0.37039  -0.36686
  Beta  occ. eigenvalues --   -0.36639  -0.36373  -0.36127  -0.34846  -0.34575
  Beta  occ. eigenvalues --   -0.34395  -0.34147  -0.34014  -0.33629  -0.32943
  Beta  occ. eigenvalues --   -0.32684  -0.32356  -0.31850  -0.31774  -0.31439
  Beta  occ. eigenvalues --   -0.30111  -0.29160  -0.28771  -0.28176  -0.27793
  Beta  occ. eigenvalues --   -0.27657  -0.27580  -0.27049  -0.26710  -0.24311
  Beta  occ. eigenvalues --   -0.23947  -0.22910  -0.22646  -0.21912  -0.21779
  Beta  occ. eigenvalues --   -0.18810  -0.18779  -0.13249
  Beta virt. eigenvalues --   -0.07449  -0.06110  -0.02378  -0.01352  -0.01145
  Beta virt. eigenvalues --   -0.00626  -0.00087   0.00558   0.01264   0.01479
  Beta virt. eigenvalues --    0.01819   0.02074   0.02306   0.02478   0.03426
  Beta virt. eigenvalues --    0.04299   0.04695   0.04743   0.05613   0.05914
  Beta virt. eigenvalues --    0.06094   0.06212   0.06298   0.06489   0.06776
  Beta virt. eigenvalues --    0.07235   0.07611   0.07749   0.07834   0.07976
  Beta virt. eigenvalues --    0.08283   0.08718   0.09197   0.09466   0.09767
  Beta virt. eigenvalues --    0.09896   0.10138   0.10401   0.10581   0.10816
  Beta virt. eigenvalues --    0.10998   0.11153   0.11588   0.11743   0.11774
  Beta virt. eigenvalues --    0.11865   0.12066   0.12477   0.12513   0.12925
  Beta virt. eigenvalues --    0.13099   0.13287   0.13557   0.13564   0.13873
  Beta virt. eigenvalues --    0.14034   0.14315   0.14496   0.14563   0.14800
  Beta virt. eigenvalues --    0.14885   0.15116   0.15407   0.15610   0.15753
  Beta virt. eigenvalues --    0.15821   0.15962   0.16114   0.16405   0.16557
  Beta virt. eigenvalues --    0.17142   0.17221   0.17355   0.17422   0.17596
  Beta virt. eigenvalues --    0.17916   0.18210   0.18323   0.18713   0.18936
  Beta virt. eigenvalues --    0.19196   0.19637   0.19859   0.20222   0.20402
  Beta virt. eigenvalues --    0.20656   0.20896   0.21007   0.21107   0.21231
  Beta virt. eigenvalues --    0.21360   0.21513   0.21645   0.22279   0.22396
  Beta virt. eigenvalues --    0.22485   0.22826   0.22870   0.23024   0.23121
  Beta virt. eigenvalues --    0.23581   0.23919   0.24226   0.24279   0.24672
  Beta virt. eigenvalues --    0.24785   0.25045   0.25108   0.25313   0.25561
  Beta virt. eigenvalues --    0.25799   0.25893   0.25952   0.26210   0.26309
  Beta virt. eigenvalues --    0.26522   0.26607   0.26861   0.27343   0.27411
  Beta virt. eigenvalues --    0.27925   0.27987   0.28055   0.28172   0.28432
  Beta virt. eigenvalues --    0.28568   0.28848   0.28913   0.29256   0.29460
  Beta virt. eigenvalues --    0.29593   0.29760   0.30207   0.30444   0.30484
  Beta virt. eigenvalues --    0.31001   0.31069   0.31482   0.31610   0.31647
  Beta virt. eigenvalues --    0.32023   0.32442   0.32532   0.32613   0.32985
  Beta virt. eigenvalues --    0.33125   0.33156   0.33645   0.33746   0.34219
  Beta virt. eigenvalues --    0.34277   0.34675   0.34743   0.34890   0.35029
  Beta virt. eigenvalues --    0.35208   0.35419   0.35653   0.35990   0.36272
  Beta virt. eigenvalues --    0.36582   0.36625   0.36999   0.37184   0.37348
  Beta virt. eigenvalues --    0.37471   0.37721   0.37820   0.37879   0.38236
  Beta virt. eigenvalues --    0.38388   0.38429   0.38719   0.39026   0.39091
  Beta virt. eigenvalues --    0.39280   0.39499   0.39677   0.39776   0.39964
  Beta virt. eigenvalues --    0.40157   0.40352   0.40464   0.40499   0.40744
  Beta virt. eigenvalues --    0.40781   0.40864   0.41393   0.41445   0.41549
  Beta virt. eigenvalues --    0.41786   0.41902   0.42225   0.42407   0.42468
  Beta virt. eigenvalues --    0.42790   0.42890   0.43130   0.43317   0.43589
  Beta virt. eigenvalues --    0.43726   0.43818   0.43908   0.44084   0.44422
  Beta virt. eigenvalues --    0.44595   0.44732   0.44846   0.45027   0.45164
  Beta virt. eigenvalues --    0.45318   0.45531   0.45740   0.45912   0.46088
  Beta virt. eigenvalues --    0.46407   0.46440   0.46563   0.46722   0.46800
  Beta virt. eigenvalues --    0.47067   0.47113   0.47235   0.47466   0.47639
  Beta virt. eigenvalues --    0.47905   0.48169   0.48275   0.48407   0.48519
  Beta virt. eigenvalues --    0.48635   0.48884   0.48990   0.49040   0.49427
  Beta virt. eigenvalues --    0.49531   0.49601   0.49753   0.49794   0.50033
  Beta virt. eigenvalues --    0.50198   0.50434   0.50514   0.50747   0.50861
  Beta virt. eigenvalues --    0.51177   0.51231   0.51420   0.51583   0.51830
  Beta virt. eigenvalues --    0.52077   0.52180   0.52594   0.52777   0.52840
  Beta virt. eigenvalues --    0.52878   0.53357   0.53555   0.53933   0.53954
  Beta virt. eigenvalues --    0.54087   0.54252   0.54812   0.54867   0.54952
  Beta virt. eigenvalues --    0.55268   0.55372   0.55540   0.55738   0.56050
  Beta virt. eigenvalues --    0.56324   0.56474   0.56706   0.56931   0.57434
  Beta virt. eigenvalues --    0.57453   0.57572   0.57713   0.57783   0.58120
  Beta virt. eigenvalues --    0.58438   0.58577   0.58743   0.58967   0.59128
  Beta virt. eigenvalues --    0.59464   0.59704   0.59800   0.59996   0.60329
  Beta virt. eigenvalues --    0.60537   0.61034   0.61071   0.61387   0.61730
  Beta virt. eigenvalues --    0.61765   0.62223   0.62411   0.62578   0.62845
  Beta virt. eigenvalues --    0.62966   0.63259   0.63430   0.63649   0.63999
  Beta virt. eigenvalues --    0.64014   0.64128   0.64397   0.64770   0.65148
  Beta virt. eigenvalues --    0.65399   0.65655   0.65863   0.66007   0.66310
  Beta virt. eigenvalues --    0.66592   0.66935   0.67042   0.67455   0.67643
  Beta virt. eigenvalues --    0.68066   0.68178   0.68611   0.68673   0.69049
[...]
 
              Baa    -0.0015    -0.207    -0.074    -0.069  0.3435  0.8115 -0.4727
    34 C(13)  Bbb    -0.0014    -0.187    -0.067    -0.062  0.3262  0.3689  0.8704
              Bcc     0.0029     0.394     0.140     0.131  0.8807 -0.4532 -0.1380
 
              Baa    -0.0013     0.092     0.033     0.031  0.4872  0.6171  0.6178
    35 O(17)  Bbb    -0.0009     0.065     0.023     0.022 -0.2873 -0.5549  0.7808
              Bcc     0.0022    -0.157    -0.056    -0.052  0.8247 -0.5579 -0.0931
 
              Baa    -0.0012     0.090     0.032     0.030  0.4068  0.8822  0.2372
    36 O(17)  Bbb    -0.0012     0.086     0.031     0.029  0.1424 -0.3177  0.9374
              Bcc     0.0024    -0.176    -0.063    -0.059  0.9023 -0.3476 -0.2549
 
              Baa    -0.0309    -4.144    -1.479    -1.382 -0.0319  0.1808  0.9830
    37 C(13)  Bbb    -0.0196    -2.633    -0.940    -0.878  0.9037 -0.4149  0.1057
              Bcc     0.0505     6.777     2.418     2.261  0.4269  0.8917 -0.1501
 
              Baa    -0.0624    -8.367    -2.986    -2.791 -0.0856  0.2698  0.9591
    38 C(13)  Bbb     0.0184     2.472     0.882     0.824 -0.6692  0.6976 -0.2559
              Bcc     0.0439     5.896     2.104     1.967  0.7381  0.6638 -0.1208
 
              Baa    -0.0167    -2.248    -0.802    -0.750 -0.5162  0.8298 -0.2118
    39 C(13)  Bbb     0.0049     0.660     0.236     0.220 -0.2135  0.1149  0.9702
              Bcc     0.0118     1.587     0.566     0.529  0.8294  0.5460  0.1179
 
              Baa    -0.0947   -12.713    -4.536    -4.241 -0.0945  0.2045  0.9743
    40 C(13)  Bbb     0.0121     1.623     0.579     0.541 -0.1665  0.9616 -0.2180
              Bcc     0.0826    11.091     3.957     3.699  0.9815  0.1828  0.0568
 
              Baa    -0.0043    -0.576    -0.205    -0.192 -0.3423  0.3788  0.8599
    41 C(13)  Bbb    -0.0031    -0.412    -0.147    -0.137  0.7607 -0.4255  0.4902
              Bcc     0.0074     0.988     0.352     0.329  0.5516  0.8219 -0.1425
 
              Baa    -0.0074    -0.996    -0.355    -0.332 -0.0328 -0.2795  0.9596
    42 C(13)  Bbb    -0.0017    -0.223    -0.080    -0.075 -0.3040  0.9174  0.2568
              Bcc     0.0091     1.220     0.435     0.407  0.9521  0.2832  0.1150
 
              Baa    -0.0049    -0.655    -0.234    -0.219 -0.4022  0.6813  0.6116
    43 C(13)  Bbb     0.0006     0.084     0.030     0.028  0.8566  0.0442  0.5141
              Bcc     0.0043     0.571     0.204     0.191  0.3232  0.7307 -0.6013
 
              Baa    -0.0835   -11.203    -3.997    -3.737 -0.1641  0.1748  0.9708
    44 C(13)  Bbb     0.0069     0.928     0.331     0.310  0.4240  0.9011 -0.0905
              Bcc     0.0766    10.274     3.666     3.427  0.8907 -0.3968  0.2220
 
              Baa    -0.0252    -3.379    -1.206    -1.127  0.6950  0.7133  0.0907
    45 C(13)  Bbb     0.0022     0.300     0.107     0.100 -0.6022  0.6463 -0.4687
              Bcc     0.0229     3.078     1.098     1.027 -0.3930  0.2711  0.8787
 
              Baa    -0.0548    -7.357    -2.625    -2.454 -0.1958  0.1713  0.9656
    46 C(13)  Bbb     0.0144     1.938     0.691     0.646  0.8412  0.5354  0.0756
              Bcc     0.0404     5.419     1.934     1.808 -0.5040  0.8271 -0.2490
 
              Baa    -0.0265    -3.561    -1.271    -1.188  0.9719  0.1400 -0.1893
    47 C(13)  Bbb    -0.0197    -2.638    -0.941    -0.880  0.1555  0.2219  0.9626
              Bcc     0.0462     6.199     2.212     2.068 -0.1768  0.9650 -0.1939
 
              Baa    -0.0044    -0.594    -0.212    -0.198  0.5470  0.8345 -0.0664
    48 C(13)  Bbb    -0.0032    -0.429    -0.153    -0.143 -0.1825  0.1964  0.9634
              Bcc     0.0076     1.023     0.365     0.341  0.8170 -0.5149  0.2597
 
              Baa    -0.0075    -1.006    -0.359    -0.335  0.8920  0.1348 -0.4316
    49 C(13)  Bbb     0.0030     0.409     0.146     0.136  0.1049  0.8668  0.4875
              Bcc     0.0044     0.597     0.213     0.199  0.4398 -0.4801  0.7590
 
              Baa    -0.0182    -2.447    -0.873    -0.816  0.5296  0.0902  0.8434
    50 C(13)  Bbb     0.0064     0.859     0.307     0.287  0.7571  0.3982 -0.5179
              Bcc     0.0118     1.588     0.567     0.530 -0.3826  0.9128  0.1426
 
              Baa    -0.0409    -5.489    -1.959    -1.831 -0.0544  0.1657  0.9847
    51 C(13)  Bbb    -0.0149    -1.998    -0.713    -0.666  0.8996 -0.4197  0.1203
              Bcc     0.0558     7.487     2.672     2.498  0.4332  0.8924 -0.1263
 
              Baa    -0.0596    -7.992    -2.852    -2.666 -0.0495  0.1953  0.9795
    52 C(13)  Bbb     0.0170     2.279     0.813     0.760 -0.6657  0.7247 -0.1781
              Bcc     0.0426     5.713     2.039     1.906  0.7446  0.6609 -0.0941
 
              Baa    -0.0135    -1.815    -0.648    -0.605 -0.5302  0.8425 -0.0948
    53 C(13)  Bbb     0.0003     0.039     0.014     0.013 -0.0318  0.0919  0.9953
              Bcc     0.0132     1.776     0.634     0.593  0.8473  0.5307 -0.0220
 
              Baa    -0.0979   -13.139    -4.688    -4.383 -0.0628  0.1375  0.9885
    54 C(13)  Bbb     0.0144     1.930     0.689     0.644 -0.1595  0.9764 -0.1459
              Bcc     0.0835    11.209     4.000     3.739  0.9852  0.1668  0.0394
 
              Baa    -0.0042    -0.568    -0.203    -0.189 -0.1877  0.2642  0.9460
    55 C(13)  Bbb    -0.0032    -0.423    -0.151    -0.141  0.8113 -0.5013  0.3009
              Bcc     0.0074     0.991     0.354     0.330  0.5537  0.8240 -0.1202
 
              Baa    -0.0037    -0.490    -0.175    -0.164  0.2177 -0.6534  0.7250
    56 C(13)  Bbb    -0.0034    -0.456    -0.163    -0.152 -0.1839  0.7021  0.6879
              Bcc     0.0071     0.946     0.338     0.316  0.9585  0.2831 -0.0327
 
              Baa    -0.0021    -0.278    -0.099    -0.093 -0.4079  0.8211 -0.3993
    57 C(13)  Bbb    -0.0018    -0.245    -0.087    -0.082 -0.2993  0.2929  0.9081
              Bcc     0.0039     0.523     0.187     0.174  0.8626  0.4899  0.1262
 
              Baa    -0.0012    -0.159    -0.057    -0.053  0.1517 -0.5355  0.8308
    58 C(13)  Bbb    -0.0009    -0.124    -0.044    -0.041 -0.2734  0.7850  0.5559
              Bcc     0.0021     0.283     0.101     0.094  0.9499  0.3114  0.0273
 
              Baa    -0.0010     0.069     0.025     0.023 -0.1861  0.0942  0.9780
    59 O(17)  Bbb    -0.0008     0.058     0.021     0.019 -0.2095  0.9687 -0.1331
              Bcc     0.0018    -0.127    -0.045    -0.042  0.9599  0.2297  0.1606
 
              Baa    -0.0011     0.082     0.029     0.027  0.2636 -0.5195  0.8128
    60 O(17)  Bbb    -0.0004     0.028     0.010     0.009 -0.3469  0.7352  0.5823
              Bcc     0.0015    -0.110    -0.039    -0.037  0.9001  0.4355 -0.0136
 
              Baa    -0.1460    -5.630    -2.009    -1.878  0.7974  0.6005 -0.0595
    61 N(14)  Bbb    -0.0690    -2.660    -0.949    -0.887 -0.0190  0.1234  0.9922
              Bcc     0.2149     8.290     2.958     2.765 -0.6031  0.7901 -0.1098
 
              Baa    -0.1398    -5.392    -1.924    -1.799 -0.5957  0.7728 -0.2187
    62 N(14)  Bbb    -0.0940    -3.627    -1.294    -1.210 -0.0796  0.2142  0.9735
              Bcc     0.2338     9.019     3.218     3.008  0.7992  0.5974 -0.0661
 
              Baa    -0.1392    -5.370    -1.916    -1.791  0.7945  0.6070 -0.0167
    63 N(14)  Bbb    -0.1017    -3.921    -1.399    -1.308 -0.1173  0.1803  0.9766
              Bcc     0.2409     9.291     3.315     3.099 -0.5958  0.7739 -0.2145
 
              Baa    -0.1420    -5.479    -1.955    -1.827 -0.6018  0.7861 -0.1409
    64 N(14)  Bbb    -0.1006    -3.879    -1.384    -1.294 -0.0371  0.1486  0.9882
              Bcc     0.2426     9.358     3.339     3.121  0.7978  0.6000 -0.0603
 
              Baa    -0.8001   -13.851    -4.943    -4.620 -0.3065  0.8024  0.5121
    65 Fe(57) Bbb    -0.6891   -11.931    -4.257    -3.980  0.2074 -0.4688  0.8586
              Bcc     1.4892    25.782     9.200     8.600  0.9290  0.3694 -0.0227
 
              Baa    -0.0065    -3.460    -1.234    -1.154 -0.0262  0.1589  0.9869
    66 H(1)   Bbb    -0.0032    -1.719    -0.613    -0.573  0.9937 -0.1038  0.0431
              Bcc     0.0097     5.179     1.848     1.727  0.1093  0.9818 -0.1552
 
              Baa    -0.0072    -3.824    -1.365    -1.276  0.1440  0.9719 -0.1861
    67 H(1)   Bbb    -0.0062    -3.295    -1.176    -1.099 -0.1140  0.2031  0.9725
              Bcc     0.0133     7.119     2.540     2.375  0.9830 -0.1189  0.1400
 
              Baa    -0.0067    -3.553    -1.268    -1.185 -0.0513  0.1232  0.9911
    68 H(1)   Bbb    -0.0026    -1.413    -0.504    -0.471  0.9928 -0.1016  0.0640
              Bcc     0.0093     4.966     1.772     1.656  0.1086  0.9872 -0.1171
 
              Baa    -0.0030    -1.621    -0.578    -0.541 -0.1912  0.8632 -0.4672
    69 H(1)   Bbb    -0.0028    -1.508    -0.538    -0.503 -0.0664  0.4635  0.8836
              Bcc     0.0059     3.129     1.116     1.044  0.9793  0.2000 -0.0313
 
              Baa    -0.0026    -1.367    -0.488    -0.456 -0.3106  0.2252  0.9235
    70 H(1)   Bbb    -0.0025    -1.349    -0.481    -0.450  0.9409  0.2107  0.2651
              Bcc     0.0051     2.716     0.969     0.906 -0.1349  0.9512 -0.2774
 
              Baa    -0.0072    -3.867    -1.380    -1.290  0.1740  0.9714 -0.1616
    71 H(1)   Bbb    -0.0062    -3.317    -1.184    -1.107 -0.0435  0.1715  0.9842
              Bcc     0.0135     7.184     2.564     2.396  0.9838 -0.1642  0.0721
 
              Baa    -0.0022    -1.194    -0.426    -0.398  0.9062  0.4118 -0.0966
    72 H(1)   Bbb    -0.0021    -1.113    -0.397    -0.371 -0.0200  0.2697  0.9627
              Bcc     0.0043     2.307     0.823     0.769 -0.4225  0.8704 -0.2526
 
              Baa    -0.0028    -1.517    -0.541    -0.506  0.9368  0.2188  0.2732
    73 H(1)   Bbb    -0.0027    -1.467    -0.523    -0.489 -0.3034  0.1184  0.9455
              Bcc     0.0056     2.984     1.065     0.995 -0.1745  0.9686 -0.1773
 
              Baa    -0.0024    -1.275    -0.455    -0.425  0.8893  0.3795 -0.2553
    74 H(1)   Bbb    -0.0022    -1.158    -0.413    -0.386  0.2307  0.1097  0.9668
              Bcc     0.0046     2.433     0.868     0.812 -0.3949  0.9187 -0.0100
 
              Baa    -0.0030    -1.578    -0.563    -0.526  0.4752  0.6584 -0.5837
    75 H(1)   Bbb    -0.0027    -1.444    -0.515    -0.482  0.1437  0.5964  0.7897
              Bcc     0.0057     3.022     1.078     1.008  0.8681 -0.4591  0.1887
 
              Baa    -0.0024    -1.274    -0.455    -0.425  0.7147  0.6742 -0.1859
    76 H(1)   Bbb    -0.0023    -1.216    -0.434    -0.406  0.0851  0.1799  0.9800
              Bcc     0.0047     2.490     0.888     0.830 -0.6942  0.7163 -0.0712
 
              Baa    -0.0031    -1.675    -0.598    -0.559  0.5453  0.8211 -0.1688
    77 H(1)   Bbb    -0.0027    -1.435    -0.512    -0.479  0.3496 -0.0397  0.9361
              Bcc     0.0058     3.110     1.110     1.037  0.7619 -0.5694 -0.3087
 
              Baa    -0.0033    -1.750    -0.625    -0.584  0.3711  0.6091  0.7010
    78 H(1)   Bbb    -0.0031    -1.640    -0.585    -0.547  0.1057  0.7223 -0.6835
              Bcc     0.0064     3.390     1.210     1.131  0.9226 -0.3277 -0.2037
 
              Baa    -0.0029    -1.525    -0.544    -0.509  0.8606 -0.5031  0.0790
    79 H(1)   Bbb    -0.0025    -1.341    -0.478    -0.447  0.0664  0.2647  0.9620
              Bcc     0.0054     2.865     1.022     0.956  0.5050  0.8227 -0.2612
 
              Baa    -0.0021    -1.106    -0.394    -0.369 -0.0192  0.2323  0.9724
    80 H(1)   Bbb    -0.0019    -1.017    -0.363    -0.339  0.7370 -0.6540  0.1708
              Bcc     0.0040     2.123     0.757     0.708  0.6756  0.7200 -0.1587
 
              Baa    -0.0024    -1.285    -0.459    -0.429  0.8015 -0.5197  0.2959
    81 H(1)   Bbb    -0.0023    -1.224    -0.437    -0.408 -0.2442  0.1673  0.9552
              Bcc     0.0047     2.509     0.895     0.837  0.5459  0.8378 -0.0072
 
              Baa    -0.0022    -1.174    -0.419    -0.392  0.2180 -0.6162  0.7568
    82 H(1)   Bbb    -0.0016    -0.880    -0.314    -0.294 -0.5327  0.5746  0.6214
              Bcc     0.0039     2.054     0.733     0.685  0.8177  0.5386  0.2030
 
              Baa    -0.0016    -0.840    -0.300    -0.280 -0.2830  0.6638  0.6923
    83 H(1)   Bbb    -0.0013    -0.679    -0.242    -0.226  0.2012 -0.6647  0.7195
              Bcc     0.0028     1.519     0.542     0.507  0.9378  0.3430  0.0545
 
              Baa    -0.0029    -1.570    -0.560    -0.524  0.5530  0.8325  0.0347
    84 H(1)   Bbb    -0.0024    -1.299    -0.464    -0.433 -0.0760  0.0089  0.9971
              Bcc     0.0054     2.869     1.024     0.957  0.8297 -0.5540  0.0682
 
              Baa    -0.0028    -1.495    -0.533    -0.499  0.4570  0.7428  0.4893
    85 H(1)   Bbb    -0.0024    -1.278    -0.456    -0.426 -0.5752 -0.1728  0.7996
              Bcc     0.0052     2.773     0.989     0.925  0.6785 -0.6468  0.3483
 
              Baa    -0.0032    -1.713    -0.611    -0.571 -0.4069 -0.1508  0.9009
    86 H(1)   Bbb    -0.0031    -1.642    -0.586    -0.548  0.2837  0.9166  0.2816
              Bcc     0.0063     3.355     1.197     1.119  0.8683 -0.3702  0.3302
 
              Baa    -0.0030    -1.576    -0.562    -0.526  0.8049  0.4826 -0.3452
    87 H(1)   Bbb    -0.0017    -0.921    -0.329    -0.307  0.2956  0.1784  0.9385
              Bcc     0.0047     2.497     0.891     0.833 -0.5145  0.8575 -0.0009
 
              Baa    -0.0015    -0.819    -0.292    -0.273  0.6240  0.4327  0.6507
    88 H(1)   Bbb    -0.0007    -0.391    -0.140    -0.131 -0.5201 -0.3916  0.7591
              Bcc     0.0023     1.210     0.432     0.404 -0.5832  0.8121  0.0193
 
              Baa    -0.0023    -1.208    -0.431    -0.403  0.7443 -0.5621  0.3607
    89 H(1)   Bbb    -0.0021    -1.132    -0.404    -0.378 -0.3096  0.1883  0.9321
              Bcc     0.0044     2.340     0.835     0.781  0.5918  0.8054  0.0338
 
              Baa    -0.0021    -1.140    -0.407    -0.380  0.6458 -0.4313  0.6300
    90 H(1)   Bbb    -0.0020    -1.069    -0.381    -0.357 -0.3804  0.5337  0.7553
              Bcc     0.0041     2.209     0.788     0.737  0.6620  0.7274 -0.1806
 
              Baa    -0.0029    -1.522    -0.543    -0.508  0.8611 -0.4893 -0.1380
    91 H(1)   Bbb    -0.0026    -1.400    -0.500    -0.467  0.2069  0.0893  0.9743
              Bcc     0.0055     2.922     1.043     0.975  0.4644  0.8675 -0.1782
 
              Baa    -0.0029    -1.572    -0.561    -0.524 -0.0797  0.1198  0.9896
    92 H(1)   Bbb    -0.0029    -1.535    -0.548    -0.512 -0.1782  0.9750 -0.1324
              Bcc     0.0058     3.107     1.109     1.036  0.9808  0.1869  0.0564
 
              Baa    -0.0027    -1.437    -0.513    -0.479 -0.3447  0.9374 -0.0497
    93 H(1)   Bbb    -0.0024    -1.293    -0.461    -0.431  0.1598  0.1107  0.9809
              Bcc     0.0051     2.731     0.974     0.911  0.9250  0.3301 -0.1879
 
              Baa    -0.0017    -0.885    -0.316    -0.295 -0.5657  0.7629 -0.3131
    94 H(1)   Bbb    -0.0016    -0.846    -0.302    -0.282 -0.2200  0.2263  0.9489
              Bcc     0.0032     1.730     0.617     0.577  0.7948  0.6056  0.0399
 
              Baa    -0.0020    -1.074    -0.383    -0.358 -0.3625  0.8670 -0.3419
    95 H(1)   Bbb    -0.0018    -0.967    -0.345    -0.323 -0.3755  0.1998  0.9050
              Bcc     0.0038     2.042     0.728     0.681  0.8530  0.4565  0.2531
 
              Baa    -0.0031    -1.640    -0.585    -0.547  0.8316  0.5452  0.1058
    96 H(1)   Bbb    -0.0029    -1.554    -0.554    -0.518 -0.5549  0.8089  0.1944
              Bcc     0.0060     3.194     1.140     1.065  0.0204 -0.2204  0.9752
 
              Baa    -0.0028    -1.469    -0.524    -0.490  0.0494  0.9373 -0.3450
    97 H(1)   Bbb    -0.0027    -1.442    -0.515    -0.481  0.9699  0.0375  0.2407
              Bcc     0.0055     2.912     1.039     0.971 -0.2385  0.3465  0.9072
 
              Baa    -0.0010    -0.529    -0.189    -0.176  0.1668  0.8991 -0.4047
    98 H(1)   Bbb    -0.0010    -0.523    -0.187    -0.174  0.3025  0.3440  0.8889
              Bcc     0.0020     1.052     0.375     0.351  0.9385 -0.2707 -0.2146
 
              Baa    -0.0009    -0.503    -0.179    -0.168 -0.2912  0.9564 -0.0225
    99 H(1)   Bbb    -0.0009    -0.488    -0.174    -0.163 -0.2676 -0.0588  0.9617
              Bcc     0.0019     0.990     0.353     0.330  0.9185  0.2861  0.2731
 

 ---------------------------------------------------------------------------------

 1\1\GINC-NODE593\SP\UPBE1PBE\def2TZVP\C42H44Fe1N8O4(5)\KLEICH\16-Oct-2
 022\0\\# PBE1PBE/def2TZVP empiricaldispersion=GD3BJ int=(grid=ultrafin
 e) geom=check guess=read scrf=(smd,solvent=Chloroform)\\1aw3_II_Q_solv
 \\0,5\C,0,4.428,9.754,1.996\C,0,3.012,9.72,2.522\N,0,2.674,9.452,3.824
 \C,0,1.843,9.805,1.81\C,0,1.338,9.387,3.894\N,0,0.779,9.575,2.689\H,0,
 4.583,8.873,1.373\H,0,5.099,9.671,2.852\H,0,3.321,9.286,4.585\H,0,1.75
 1,9.989,0.755\H,0,0.806,9.184,4.805\C,0,-6.248,10.013,0.126\C,0,-5.16,
 9.694,1.112\N,0,-5.297,8.979,2.278\C,0,-3.834,9.989,0.948\C,0,-4.062,8
 .858,2.802\N,0,-3.129,9.446,2.021\H,0,-6.869,9.133,-0.016\H,0,-5.763,1
 0.207,-0.826\H,0,-6.156,8.576,2.649\H,0,-3.408,10.531,0.12\H,0,-3.877,
 8.333,3.724\C,0,-1.333,12.913,2.873\C,0,-0.466,10.195,-1.128\C,0,-1.14
 3,6.149,1.56\C,0,-1.72,8.874,5.632\C,0,-1.123,12.495,1.558\C,0,-1.063,
 13.397,0.434\C,0,-0.748,12.656,-0.682\C,0,-0.715,11.269,-0.274\C,0,-0.
 515,13.218,-2.067\C,0,-1.36,14.878,0.473\C,0,-2.786,15.185,0.941\C,0,-
 3.153,16.658,0.83\O,0,-2.5,17.359,0.027\O,0,-4.098,17.055,1.544\C,0,-0
 .534,8.873,-0.708\C,0,-0.314,7.74,-1.577\C,0,-0.563,6.629,-0.812\C,0,-
 0.863,7.033,0.532\C,0,0.108,7.775,-3.026\C,0,-0.44,5.191,-1.257\C,0,-0
 .981,4.782,-2.415\C,0,-1.347,6.551,2.877\C,0,-1.673,5.652,3.954\C,0,-1
 .699,6.409,5.097\C,0,-1.571,7.799,4.746\C,0,-1.997,4.189,3.838\C,0,-2.
 042,5.893,6.476\C,0,-1.558,4.719,6.939\C,0,-1.672,10.215,5.225\C,0,-1.
 869,11.355,6.093\C,0,-1.72,12.494,5.327\C,0,-1.482,12.058,3.967\C,0,-2
 .221,11.305,7.561\C,0,-1.929,13.933,5.773\C,0,-1.24,14.359,7.076\C,0,-
 1.561,15.812,7.393\O,0,-0.742,16.674,7.011\O,0,-2.63,16.031,8.002\N,0,
 -0.975,11.234,1.077\N,0,-0.821,8.393,0.554\N,0,-1.332,7.823,3.394\N,0,
 -1.461,10.7,3.968\Fe,0,-1.148,9.534,2.257\H,0,-0.257,10.379,-2.168\H,0
 ,-1.196,5.104,1.306\H,0,-1.899,8.65,6.671\H,0,-0.18,4.44,-0.536\H,0,-2
 .635,6.508,7.131\H,0,-1.347,13.973,3.044\H,0,0.244,13.998,-2.019\H,0,-
 0.176,12.464,-2.774\H,0,-1.442,13.654,-2.439\H,0,-0.665,15.381,1.137\H
 ,0,-1.23,15.299,-0.524\H,0,-3.456,14.608,0.324\H,0,-2.954,14.883,1.971
 \H,0,0.921,8.486,-3.162\H,0,0.467,6.797,-3.34\H,0,-0.741,8.059,-3.645\
 H,0,-1.84,5.341,-2.723\H,0,-0.882,3.752,-2.724\H,0,-1.096,3.595,3.995\
 H,0,-2.746,3.95,4.592\H,0,-2.42,3.965,2.862\H,0,-0.823,4.169,6.371\H,0
 ,-1.719,4.449,7.972\H,0,-1.321,11.466,8.155\H,0,-2.959,12.076,7.784\H,
 0,-2.658,10.349,7.838\H,0,-1.535,14.623,5.031\H,0,-3.002,14.12,5.836\H
 ,0,-1.564,13.767,7.925\H,0,-0.163,14.253,6.971\H,0,4.60592924,10.65110
 633,1.44062498\H,0,-6.83464038,10.83913137,0.46988957\H,0,-3.91740169,
 17.51318705,2.36804422\H,0,0.20042932,16.50684755,7.08507452\\Version=
 ES64L-G16RevA.03\State=5-A\HF=-3627.7388409\S2=6.318354\S2-1=0.\S2A=6.
 002409\RMSD=1.835e-09\Dipole=1.0160939,-1.5919601,1.4191641\Quadrupole
 =43.2063012,-30.7669406,-12.4393606,20.9780648,23.3786471,1.6333414\PG
 =C01 [X(C42H44Fe1N8O4)]\\@


 YOU CANNOT THROW TO THE GROUND THE LETTERS OF
 THE GREEK ALPHABET AND PICK UP THE ILIAD.
        - RUFUS CHOATE, 1799-1859
 Job cpu time:       8 days  4 hours 28 minutes  4.9 seconds.
 Elapsed time:       2 days  1 hours 14 minutes 15.5 seconds.
 File lengths (MBytes):  RWF=   4484 Int=      0 D2E=      0 Chk=    317 Scr=      1
 Normal termination of Gaussian 16 at Sun Oct 16 00:36:43 2022.
