 Entering Gaussian System, Link 0=g16
 Input=/net/homes/chemie/zhartovska/work/BioModel/Konrad/2gsm/2gsm12/2gsm12.com
 Output=/net/homes/chemie/zhartovska/work/BioModel/Konrad/2gsm/2gsm12/2gsm12.log
 Initial command:
 /afs/math/software/gaussian/g16.A03/g16/l1.exe "/scratch/zhartovska_gaussian.eesgQ42/Gau-5401.inp" -scrdir="/scratch/zhartovska_gaussian.eesgQ42/"
 Entering Link 1 = /afs/math/software/gaussian/g16.A03/g16/l1.exe PID=      5402.
  
 Copyright (c) 1988,1990,1992,1993,1995,1998,2003,2009,2016,
            Gaussian, Inc.  All Rights Reserved.
  
 This is part of the Gaussian(R) 16 program.  It is based on
 the Gaussian(R) 09 system (copyright 2009, Gaussian, Inc.),
 the Gaussian(R) 03 system (copyright 2003, Gaussian, Inc.),
 the Gaussian(R) 98 system (copyright 1998, Gaussian, Inc.),
 the Gaussian(R) 94 system (copyright 1995, Gaussian, Inc.),
 the Gaussian 92(TM) system (copyright 1992, Gaussian, Inc.),
 the Gaussian 90(TM) system (copyright 1990, Gaussian, Inc.),
 the Gaussian 88(TM) system (copyright 1988, Gaussian, Inc.),
 the Gaussian 86(TM) system (copyright 1986, Carnegie Mellon
 University), and the Gaussian 82(TM) system (copyright 1983,
 Carnegie Mellon University). Gaussian is a federally registered
 trademark of Gaussian, Inc.
  
 This software contains proprietary and confidential information,
 including trade secrets, belonging to Gaussian, Inc.
  
 This software is provided under written license and may be
 used, copied, transmitted, or stored only in accord with that
 written license.
  
 The following legend is applicable only to US Government
 contracts under FAR:
  
                    RESTRICTED RIGHTS LEGEND
  
 Use, reproduction and disclosure by the US Government is
 subject to restrictions as set forth in subparagraphs (a)
 and (c) of the Commercial Computer Software - Restricted
 Rights clause in FAR 52.227-19.
  
 Gaussian, Inc.
 340 Quinnipiac St., Bldg. 40, Wallingford CT 06492
  
  
 ---------------------------------------------------------------
 Warning -- This program may not be used in any manner that
 competes with the business of Gaussian, Inc. or will provide
 assistance to any competitor of Gaussian, Inc.  The licensee
 of this program is prohibited from giving any competitor of
 Gaussian, Inc. access to this program.  By using this program,
 the user acknowledges that Gaussian, Inc. is engaged in the
 business of creating and licensing software in the field of
 computational chemistry and represents and warrants to the
 licensee that it is not a competitor of Gaussian, Inc. and that
 it will not use this program in any manner prohibited above.
 ---------------------------------------------------------------
  

 Cite this work as:
 Gaussian 16, Revision A.03,
 M. J. Frisch, G. W. Trucks, H. B. Schlegel, G. E. Scuseria, 
 M. A. Robb, J. R. Cheeseman, G. Scalmani, V. Barone, 
 G. A. Petersson, H. Nakatsuji, X. Li, M. Caricato, A. V. Marenich, 
 J. Bloino, B. G. Janesko, R. Gomperts, B. Mennucci, H. P. Hratchian, 
 J. V. Ortiz, A. F. Izmaylov, J. L. Sonnenberg, D. Williams-Young, 
 F. Ding, F. Lipparini, F. Egidi, J. Goings, B. Peng, A. Petrone, 
 T. Henderson, D. Ranasinghe, V. G. Zakrzewski, J. Gao, N. Rega, 
 G. Zheng, W. Liang, M. Hada, M. Ehara, K. Toyota, R. Fukuda, 
 J. Hasegawa, M. Ishida, T. Nakajima, Y. Honda, O. Kitao, H. Nakai, 
 T. Vreven, K. Throssell, J. A. Montgomery, Jr., J. E. Peralta, 
 F. Ogliaro, M. J. Bearpark, J. J. Heyd, E. N. Brothers, K. N. Kudin, 
 V. N. Staroverov, T. A. Keith, R. Kobayashi, J. Normand, 
 K. Raghavachari, A. P. Rendell, J. C. Burant, S. S. Iyengar, 
 J. Tomasi, M. Cossi, J. M. Millam, M. Klene, C. Adamo, R. Cammi, 
 J. W. Ochterski, R. L. Martin, K. Morokuma, O. Farkas, 
 J. B. Foresman, and D. J. Fox, Gaussian, Inc., Wallingford CT, 2016.
 
 ******************************************
 Gaussian 16:  ES64L-G16RevA.03 25-Dec-2016
                31-Aug-2022 
 ******************************************
 %nprocs=12
 Will use up to   12 processors via shared memory.
 %mem=16GB
 %oldchk=2gsm_II_S.chk
 %chk=2gsm_III_D.chk
 Copying data from "2gsm_II_S.chk" to current chk file "2gsm_III_D.chk"
 IOpt=  2 FromEx=T IUOpen= 4 IOptOp= 5 NList=   0 IFRang= 0 IUIn= 4 IUOut= 2.
 ----------------------------------------------------------------------
 # PBE1PBE/def2TZVP empiricaldispersion=GD3BJ scf=maxcycle=999 geom=che
 ck pop=nbo
 ----------------------------------------------------------------------
 1/29=2,38=1,172=1/1;
 2/12=2,40=1/2;
 3/5=44,7=101,11=2,14=-4,25=1,30=1,74=-13,124=41/1,2,3;
 4//1;
 5/5=2,7=999,38=5/2;
 6/7=2,8=2,9=2,10=2,28=1,40=1/1,7;
 99/5=1,9=1/99;
 ----------
 2gsm_III_D
 ----------
 Structure from the checkpoint file:  "2gsm_III_D.chk"
 Charge =  1 Multiplicity = 2
 Z-Matrix found in chk file.
 C,0,-5.474,-37.528,20.323
 C,0,-5.651,-36.312,21.197001
 N,0,-6.76,-36.129002,21.996
 C,0,-4.88,-35.206001,21.370001
 C,0,-6.668,-34.964001,22.622
 N,0,-5.531,-34.386002,22.267
 Fe,0,-4.52,-32.644001,22.892
 C,0,-1.505,-33.622002,21.511999
 C,0,-3.669,-34.209,25.865999
 C,0,-7.35,-31.365,24.419001
 C,0,-5.164,-30.729,20.121
 N,0,-2.873,-33.743,23.577
 C,0,-1.717,-33.959,22.844
 C,0,-0.784,-34.632,23.719999
 C,0,-1.369,-34.789001,24.924999
 C,0,-2.709,-34.240002,24.858
 C,0,-0.713,-35.43,26.132
 C,0,0.641,-35.077999,23.351
 C,0,0.614,-36.492001,22.771999
 C,0,1.968,-36.821999,22.18
 O,0,2.509,-37.910999,22.504999
 O,0,2.522,-36.009998,21.382
 N,0,-5.361,-32.737,24.851999
 C,0,-4.884,-33.529999,25.874001
 C,0,-5.891,-33.502998,26.929001
 C,0,-6.902,-32.712002,26.533001
 C,0,-6.587,-32.209999,25.195999
 C,0,-5.815,-34.251999,28.274
 N,0,-5.992,-31.296,22.363001
 C,0,-7.062,-30.905001,23.145
 C,0,-7.835,-29.938999,22.396
 C,0,-7.245,-29.76,21.193001
 C,0,-6.066,-30.617001,21.146999
 C,0,-9.098,-29.238001,22.921
 C,0,-7.702,-28.816999,20.072001
 C,0,-8.75969665,-28.08576393,20.49994972
 N,0,-3.508,-32.266998,21.104
 C,0,-3.943,-31.403999,20.125
 C,0,-2.906,-31.361,19.101999
 C,0,-1.903,-32.160999,19.488001
 C,0,-2.265,-32.749001,20.766001
 C,0,-2.973,-30.514999,17.811001
 C,0,-0.603,-32.486,18.752001
 C,0,0.463,-31.393999,18.716999
 C,0,1.5,-31.948999,17.750999
 O,0,2.4,-32.716,18.177999
 O,0,1.407,-31.631001,16.547001
 C,0,-8.129,-32.311001,27.386999
 C,0,-8.57108656,-33.51064774,28.24549022
 H,0,-4.56452282,-38.0267336,20.58570906
 H,0,-6.29974669,-38.19327544,20.46600697
 H,0,-5.43213475,-37.22684082,19.29710992
 H,0,-7.51713514,-36.77562007,22.08890559
 H,0,-7.3904874,-34.55928526,23.29958182
 H,0,-3.9407778,-35.00818999,20.89710306
 H,0,-0.67412167,-34.08387267,21.02086084
 H,0,-5.42815395,-30.23976443,19.20679475
 H,0,-8.26923448,-31.02597678,24.84908381
 H,0,-3.44477242,-34.77809616,26.74392357
 H,0,0.2289573,-34.9580119,26.3186646
 H,0,-1.34627267,-35.31265441,26.9864564
 H,0,-0.55865769,-36.47177242,25.94282105
 H,0,-2.11563814,-30.72081274,17.20480685
 H,0,-3.86129698,-30.76234558,17.26818598
 H,0,-2.98846756,-29.47591759,18.06589426
 H,0,-0.17247032,-33.35104379,19.21161327
 H,0,-0.85094826,-32.7358406,17.74155489
 H,0,0.88966186,-31.25193368,19.6879146
 H,0,0.05301022,-30.47823941,18.34525614
 H,0,3.32412137,-32.48883142,18.05153113
 H,0,3.47960041,-35.96161681,21.33445302
 H,0,0.38460747,-37.1910653,23.54890838
 H,0,-0.13291057,-36.55023353,22.00803985
 H,0,1.25467458,-35.06533955,24.22743781
 H,0,1.04628101,-34.40501289,22.62454491
 H,0,-4.92482514,-33.96367767,28.79299859
 H,0,-6.67000253,-34.00559394,28.86826865
 H,0,-5.79741384,-35.30667488,28.09441851
 H,0,-7.86741933,-31.49289726,28.025107
 H,0,-8.93165372,-32.01836805,26.742784
 H,0,-7.83659535,-33.69890175,29.00046247
 H,0,-9.5103538,-33.29099325,28.70855498
 H,0,-8.67347458,-34.37556899,27.62393739
 H,0,-8.89326064,-28.1983192,23.06947067
 H,0,-9.88892916,-29.34760068,22.20873672
 H,0,-9.3910949,-29.68005715,23.85029099
 H,0,-8.49186734,-27.05005339,20.52165552
 H,0,-9.58426318,-28.22702938,19.83284095
 H,0,-9.03806526,-28.40286138,21.48324018
 H,0,-6.89869522,-28.16142405,19.80776074
 H,0,-7.98885959,-29.39237827,19.21669388
 Recover connectivity data from disk.
 Stoichiometry    C38H42FeN6O4(1+,2)
 Framework group  C1[X(C38H42FeN6O4)]
 Deg. of freedom   267
 Full point group                 C1      NOp   1
 Largest Abelian subgroup         C1      NOp   1
 Largest concise Abelian subgroup C1      NOp   1
                         Standard orientation:                         
 ---------------------------------------------------------------------
 Center     Atomic      Atomic             Coordinates (Angstroms)
 Number     Number       Type             X           Y           Z
 ---------------------------------------------------------------------
      1          6           0       -0.514159   -0.889651    5.116774
      2          6           0        0.318559   -0.748219    3.867598
      3          7           0        1.671159   -1.016014    3.844635
      4          6           0       -0.001279   -0.335145    2.612737
      5          6           0        2.150671   -0.772999    2.632786
      6          7           0        1.154316   -0.366543    1.861458
      7         26           0        0.979555    0.058860   -0.196649
      8          6           0       -2.473216   -0.111193   -0.172800
      9          6           0        1.143814   -3.330182   -0.907639
     10          6           0        4.410096    0.271037   -0.600190
     11          6           0        0.810378    3.474352    0.060651
     12          7           0       -0.422719   -1.471668   -0.480800
     13          6           0       -1.795613   -1.283534   -0.487776
     14          6           0       -2.391008   -2.549427   -0.853577
     15          6           0       -1.400670   -3.439615   -1.067344
     16          6           0       -0.132640   -2.780246   -0.824814
     17          6           0       -1.604658   -4.879911   -1.493963
     18          6           0       -3.896169   -2.832725   -0.994771
     19          6           0       -4.473204   -3.280400    0.347611
     20          6           0       -5.984783   -3.309008    0.264018
     21          8           0       -6.582033   -4.344531    0.657985
     22          8           0       -6.609977   -2.307316   -0.192940
     23          7           0        2.534736   -1.308801   -0.714764
     24          6           0        2.368146   -2.670165   -0.855479
     25          6           0        3.704711   -3.248725   -0.937124
     26          6           0        4.604866   -2.254498   -0.860675
     27          6           0        3.876619   -0.994977   -0.712119
     28          6           0        4.036494   -4.746506   -1.086700
     29          7           0        2.359313    1.594029   -0.253723
     30          6           0        3.722165    1.462070   -0.439530
     31          6           0        4.306353    2.785034   -0.426143
     32          6           0        3.317987    3.686557   -0.231884
     33          6           0        2.064387    2.950354   -0.117421
     34          6           0        5.801746    3.079302   -0.624639
     35          6           0        3.461427    5.212749   -0.161858
     36          6           0        4.744309    5.558613   -0.428615
     37          7           0       -0.579091    1.441909   -0.051675
     38          6           0       -0.412964    2.806637   -0.003164
     39          6           0       -1.744359    3.399204   -0.002765
     40          6           0       -2.644139    2.408418   -0.063949
     41          6           0       -1.921983    1.148502   -0.098274
     42          6           0       -2.036564    4.915541    0.044363
     43          6           0       -4.170080    2.501943   -0.055051
     44          6           0       -4.839178    3.004634   -1.331631
     45          6           0       -6.293702    3.178477   -0.918484
     46          8           0       -7.078292    2.197866   -0.977129
     47          8           0       -6.656199    4.302628   -0.513191
     48          6           0        6.137457   -2.403427   -1.017610
     49          6           0        6.596043   -3.716308   -0.356064
     50          1           0       -1.311836   -1.579903    4.937429
     51          1           0        0.099005   -1.252742    5.914956
     52          1           0       -0.920527    0.063333    5.384329
     53          1           0        2.207762   -1.343192    4.622460
     54          1           0        3.170487   -0.886209    2.329375
     55          1           0       -0.971296   -0.039963    2.270924
     56          1           0       -3.520312   -0.195545    0.030605
     57          1           0        0.764118    4.521770    0.274366
     58          1           0        5.476945    0.341527   -0.642215
     59          1           0        1.189215   -4.392627   -1.026162
     60          1           0       -2.223470   -4.909255   -2.366380
     61          1           0       -0.656559   -5.324393   -1.714062
     62          1           0       -2.077927   -5.422693   -0.702569
     63          1           0       -3.093170    5.073477    0.103858
     64          1           0       -1.563051    5.343495    0.903166
     65          1           0       -1.655845    5.379832   -0.841293
     66          1           0       -4.557896    1.527637    0.157614
     67          1           0       -4.454790    3.154092    0.744037
     68          1           0       -4.753126    2.279298   -2.113541
     69          1           0       -4.418551    3.940650   -1.634696
     70          1           0       -7.877850    2.253793   -1.505502
     71          1           0       -7.448550   -2.429733   -0.643948
     72          1           0       -4.110560   -4.259176    0.582957
     73          1           0       -4.171302   -2.595032    1.111827
     74          1           0       -4.045124   -3.605131   -1.720100
     75          1           0       -4.395835   -1.942946   -1.316529
     76          1           0        3.561163   -5.131156   -1.964769
     77          1           0        5.095922   -4.870421   -1.171297
     78          1           0        3.682718   -5.277685   -0.227869
     79          1           0        6.389490   -2.420941   -2.057356
     80          1           0        6.626292   -1.576671   -0.545999
     81          1           0        6.240079   -4.547380   -0.928348
     82          1           0        7.665036   -3.741712   -0.317232
     83          1           0        6.201641   -3.772028    0.637034
     84          1           0        5.945650    3.580680   -1.558882
     85          1           0        6.151499    3.702156    0.171995
     86          1           0        6.349161    2.159934   -0.625219
     87          1           0        4.777624    6.140457   -1.325971
     88          1           0        5.134953    6.134213    0.384393
     89          1           0        5.333250    4.674247   -0.554885
     90          1           0        2.812783    5.665388   -0.882467
     91          1           0        3.197190    5.551227    0.818199
 ---------------------------------------------------------------------
 Rotational constants (GHZ):           0.0719672           0.0452670           0.0325000
 Standard basis: def2TZVP (5D, 7F)
 There are  2032 symmetry adapted cartesian basis functions of A   symmetry.
 There are  1785 symmetry adapted basis functions of A   symmetry.
  1785 basis functions,  2886 primitive gaussians,  2032 cartesian basis functions
   185 alpha electrons      184 beta electrons
       nuclear repulsion energy      7175.2473456615 Hartrees.
 NAtoms=   91 NActive=   91 NUniq=   91 SFac= 1.00D+00 NAtFMM=   60 NAOKFM=T Big=T
 Integral buffers will be    131072 words long.
 Raffenetti 2 integral format.
 Two-electron integral symmetry is turned on.
 Nuclear repulsion after empirical dispersion term =     7175.1224597716 Hartrees.
 One-electron integrals computed using PRISM.
   1 Symmetry operations used in ECPInt.
 ECPInt:  NShTT=  253116 NPrTT=  780617 LenC2=  179537 LenP2D=  358852.
 LDataN:  DoStor=T MaxTD1= 6 Len=  172
 NBasis=  1785 RedAO= T EigKep=  3.00D-06  NBF=  1785
 NBsUse=  1785 1.00D-06 EigRej= -1.00D+00 NBFU=  1785
 ExpMin= 4.20D-02 ExpMax= 3.01D+05 ExpMxC= 2.91D+03 IAcc=3 IRadAn=         5 AccDes= 0.00D+00
 Harris functional with IExCor= 1009 and IRadAn=       5 diagonalized for initial guess.
 HarFok:  IExCor= 1009 AccDes= 0.00D+00 IRadAn=         5 IDoV= 1 UseB2=F ITyADJ=14
 ICtDFT=  3500011 ScaDFX=  1.000000  1.000000  1.000000  1.000000
 FoFCou: FMM=F IPFlag=           0 FMFlag=      100000 FMFlg1=        2001
         NFxFlg=           0 DoJE=T BraDBF=F KetDBF=T FulRan=T
         wScrn=  0.000000 ICntrl=       500 IOpCl=  0 I1Cent=   200000004 NGrid=           0
         NMat0=    1 NMatS0=      1 NMatT0=    0 NMatD0=    1 NMtDS0=    0 NMtDT0=    0
 Petite list used in FoFCou.
 Initial guess <Sx>= 0.0000 <Sy>= 0.0000 <Sz>= 0.5000 <S**2>= 0.7500 S= 0.5000
 Requested convergence on RMS density matrix=1.00D-08 within 999 cycles.
 Requested convergence on MAX density matrix=1.00D-06.
 Requested convergence on             energy=1.00D-06.
 No special actions if energy rises.
 EnCoef did    26 forward-backward iterations
 EnCoef did   100 forward-backward iterations
 EnCoef did    10 forward-backward iterations
 EnCoef did     1 forward-backward iterations
 Restarting incremental Fock formation.
 Rare condition: small coef for last iteration:  0.000D+00
 Rare condition: small coef for last iteration:  0.000D+00
 Rare condition: small coef for last iteration:  0.000D+00
 Rare condition: small coef for last iteration:  0.000D+00
 Rare condition: small coef for last iteration:  0.000D+00
 Rare condition: small coef for last iteration:  0.000D+00
 Rare condition: small coef for last iteration:  0.000D+00
 Rare condition: small coef for last iteration:  0.000D+00
 Rare condition: small coef for last iteration:  0.000D+00
 Rare condition: small coef for last iteration:  0.000D+00
 Restarting incremental Fock formation.
 Restarting incremental Fock formation.
 Restarting incremental Fock formation.
 Restarting incremental Fock formation.
 Restarting incremental Fock formation.
 Restarting incremental Fock formation.
 Restarting incremental Fock formation.
 Restarting incremental Fock formation.
 Restarting incremental Fock formation.
 SCF Done:  E(UPBE1PBE) =  -3364.49760672     A.U. after  210 cycles
            NFock=210  Conv=0.17D-08     -V/T= 2.0033
 <Sx>= 0.0000 <Sy>= 0.0000 <Sz>= 0.5000 <S**2>= 1.3273 S= 0.7559
 <L.S>= 0.000000000000E+00
 Annihilation of the first spin contaminant:
 S**2 before annihilation     1.3273,   after     0.7780

 **********************************************************************

            Population analysis using the SCF density.

 **********************************************************************

 Orbital symmetries:
 Alpha Orbitals:
       Occupied  (A) (A) (A) (A) (A) (A) (A) (A) (A) (A) (A) (A)
                 (A) (A) (A) (A) (A) (A) (A) (A) (A) (A) (A) (A)
                 (A) (A) (A) (A) (A) (A) (A) (A) (A) (A) (A) (A)
                 (A) (A) (A) (A) (A) (A) (A) (A) (A) (A) (A) (A)
                 (A) (A) (A) (A) (A) (A) (A) (A) (A) (A) (A) (A)
                 (A) (A) (A) (A) (A) (A) (A) (A) (A) (A) (A) (A)
                 (A) (A) (A) (A) (A) (A) (A) (A) (A) (A) (A) (A)
                 (A) (A) (A) (A) (A) (A) (A) (A) (A) (A) (A) (A)
                 (A) (A) (A) (A) (A) (A) (A) (A) (A) (A) (A) (A)
                 (A) (A) (A) (A) (A) (A) (A) (A) (A) (A) (A) (A)
                 (A) (A) (A) (A) (A) (A) (A) (A) (A) (A) (A) (A)
                 (A) (A) (A) (A) (A) (A) (A) (A) (A) (A) (A) (A)
                 (A) (A) (A) (A) (A) (A) (A) (A) (A) (A) (A) (A)
                 (A) (A) (A) (A) (A) (A) (A) (A) (A) (A) (A) (A)
                 (A) (A) (A) (A) (A) (A) (A) (A) (A) (A) (A) (A)
                 (A) (A) (A) (A) (A)
       Virtual   (A) (A) (A) (A) (A) (A) (A) (A) (A) (A) (A) (A)
                 (A) (A) (A) (A) (A) (A) (A) (A) (A) (A) (A) (A)
                 (A) (A) (A) (A) (A) (A) (A) (A) (A) (A) (A) (A)
                 (A) (A) (A) (A) (A) (A) (A) (A) (A) (A) (A) (A)
                 (A) (A) (A) (A) (A) (A) (A) (A) (A) (A) (A) (A)
                 (A) (A) (A) (A) (A) (A) (A) (A) (A) (A) (A) (A)
                 (A) (A) (A) (A) (A) (A) (A) (A) (A) (A) (A) (A)
                 (A) (A) (A) (A) (A) (A) (A) (A) (A) (A) (A) (A)
                 (A) (A) (A) (A) (A) (A) (A) (A) (A) (A) (A) (A)
                 (A) (A) (A) (A) (A) (A) (A) (A) (A) (A) (A) (A)
                 (A) (A) (A) (A) (A) (A) (A) (A) (A) (A) (A) (A)
                 (A) (A) (A) (A) (A) (A) (A) (A) (A) (A) (A) (A)
                 (A) (A) (A) (A) (A) (A) (A) (A) (A) (A) (A) (A)
                 (A) (A) (A) (A) (A) (A) (A) (A) (A) (A) (A) (A)
                 (A) (A) (A) (A) (A) (A) (A) (A) (A) (A) (A) (A)
                 (A) (A) (A) (A) (A) (A) (A) (A) (A) (A) (A) (A)
                 (A) (A) (A) (A) (A) (A) (A) (A) (A) (A) (A) (A)
                 (A) (A) (A) (A) (A) (A) (A) (A) (A) (A) (A) (A)
                 (A) (A) (A) (A) (A) (A) (A) (A) (A) (A) (A) (A)
                 (A) (A) (A) (A) (A) (A) (A) (A) (A) (A) (A) (A)
                 (A) (A) (A) (A) (A) (A) (A) (A) (A) (A) (A) (A)
                 (A) (A) (A) (A) (A) (A) (A) (A) (A) (A) (A) (A)
                 (A) (A) (A) (A) (A) (A) (A) (A) (A) (A) (A) (A)
                 (A) (A) (A) (A) (A) (A) (A) (A) (A) (A) (A) (A)
                 (A) (A) (A) (A) (A) (A) (A) (A) (A) (A) (A) (A)
                 (A) (A) (A) (A) (A) (A) (A) (A) (A) (A) (A) (A)
                 (A) (A) (A) (A) (A) (A) (A) (A) (A) (A) (A) (A)
                 (A) (A) (A) (A) (A) (A) (A) (A) (A) (A) (A) (A)
                 (A) (A) (A) (A) (A) (A) (A) (A) (A) (A) (A) (A)
                 (A) (A) (A) (A) (A) (A) (A) (A) (A) (A) (A) (A)
                 (A) (A) (A) (A) (A) (A) (A) (A) (A) (A) (A) (A)
                 (A) (A) (A) (A) (A) (A) (A) (A) (A) (A) (A) (A)
                 (A) (A) (A) (A) (A) (A) (A) (A) (A) (A) (A) (A)
                 (A) (A) (A) (A) (A) (A) (A) (A) (A) (A) (A) (A)
                 (A) (A) (A) (A) (A) (A) (A) (A) (A) (A) (A) (A)
                 (A) (A) (A) (A) (A) (A) (A) (A) (A) (A) (A) (A)
                 (A) (A) (A) (A) (A) (A) (A) (A) (A) (A) (A) (A)
                 (A) (A) (A) (A) (A) (A) (A) (A) (A) (A) (A) (A)
                 (A) (A) (A) (A) (A) (A) (A) (A) (A) (A) (A) (A)
                 (A) (A) (A) (A) (A) (A) (A) (A) (A) (A) (A) (A)
                 (A) (A) (A) (A) (A) (A) (A) (A) (A) (A) (A) (A)
                 (A) (A) (A) (A) (A) (A) (A) (A) (A) (A) (A) (A)
                 (A) (A) (A) (A) (A) (A) (A) (A) (A) (A) (A) (A)
                 (A) (A) (A) (A) (A) (A) (A) (A) (A) (A) (A) (A)
                 (A) (A) (A) (A) (A) (A) (A) (A) (A) (A) (A) (A)
                 (A) (A) (A) (A) (A) (A) (A) (A) (A) (A) (A) (A)
                 (A) (A) (A) (A) (A) (A) (A) (A) (A) (A) (A) (A)
                 (A) (A) (A) (A) (A) (A) (A) (A) (A) (A) (A) (A)
                 (A) (A) (A) (A) (A) (A) (A) (A) (A) (A) (A) (A)
                 (A) (A) (A) (A) (A) (A) (A) (A) (A) (A) (A) (A)
                 (A) (A) (A) (A) (A) (A) (A) (A) (A) (A) (A) (A)
                 (A) (A) (A) (A) (A) (A) (A) (A) (A) (A) (A) (A)
                 (A) (A) (A) (A) (A) (A) (A) (A) (A) (A) (A) (A)
                 (A) (A) (A) (A) (A) (A) (A) (A) (A) (A) (A) (A)
                 (A) (A) (A) (A) (A) (A) (A) (A) (A) (A) (A) (A)
                 (A) (A) (A) (A) (A) (A) (A) (A) (A) (A) (A) (A)
                 (A) (A) (A) (A) (A) (A) (A) (A) (A) (A) (A) (A)
                 (A) (A) (A) (A) (A) (A) (A) (A) (A) (A) (A) (A)
                 (A) (A) (A) (A) (A) (A) (A) (A) (A) (A) (A) (A)
                 (A) (A) (A) (A) (A) (A) (A) (A) (A) (A) (A) (A)
                 (A) (A) (A) (A) (A) (A) (A) (A) (A) (A) (A) (A)
                 (A) (A) (A) (A) (A) (A) (A) (A) (A) (A) (A) (A)
                 (A) (A) (A) (A) (A) (A) (A) (A) (A) (A) (A) (A)
                 (A) (A) (A) (A) (A) (A) (A) (A) (A) (A) (A) (A)
                 (A) (A) (A) (A) (A) (A) (A) (A) (A) (A) (A) (A)
                 (A) (A) (A) (A) (A) (A) (A) (A) (A) (A) (A) (A)
                 (A) (A) (A) (A) (A) (A) (A) (A) (A) (A) (A) (A)
                 (A) (A) (A) (A) (A) (A) (A) (A) (A) (A) (A) (A)
                 (A) (A) (A) (A) (A) (A) (A) (A) (A) (A) (A) (A)
                 (A) (A) (A) (A) (A) (A) (A) (A) (A) (A) (A) (A)
                 (A) (A) (A) (A) (A) (A) (A) (A) (A) (A) (A) (A)
                 (A) (A) (A) (A) (A) (A) (A) (A) (A) (A) (A) (A)
                 (A) (A) (A) (A) (A) (A) (A) (A) (A) (A) (A) (A)
                 (A) (A) (A) (A) (A) (A) (A) (A) (A) (A) (A) (A)
                 (A) (A) (A) (A) (A) (A) (A) (A) (A) (A) (A) (A)
                 (A) (A) (A) (A) (A) (A) (A) (A) (A) (A) (A) (A)
                 (A) (A) (A) (A) (A) (A) (A) (A) (A) (A) (A) (A)
                 (A) (A) (A) (A) (A) (A) (A) (A) (A) (A) (A) (A)
                 (A) (A) (A) (A) (A) (A) (A) (A) (A) (A) (A) (A)
                 (A) (A) (A) (A) (A) (A) (A) (A) (A) (A) (A) (A)
                 (A) (A) (A) (A) (A) (A) (A) (A) (A) (A) (A) (A)
                 (A) (A) (A) (A) (A) (A) (A) (A) (A) (A) (A) (A)
                 (A) (A) (A) (A) (A) (A) (A) (A) (A) (A) (A) (A)
                 (A) (A) (A) (A) (A) (A) (A) (A) (A) (A) (A) (A)
                 (A) (A) (A) (A) (A) (A) (A) (A) (A) (A) (A) (A)
                 (A) (A) (A) (A) (A) (A) (A) (A) (A) (A) (A) (A)
                 (A) (A) (A) (A) (A) (A) (A) (A) (A) (A) (A) (A)
                 (A) (A) (A) (A) (A) (A) (A) (A) (A) (A) (A) (A)
                 (A) (A) (A) (A) (A) (A) (A) (A) (A) (A) (A) (A)
                 (A) (A) (A) (A) (A) (A) (A) (A) (A) (A) (A) (A)
                 (A) (A) (A) (A) (A) (A) (A) (A) (A) (A) (A) (A)
                 (A) (A) (A) (A) (A) (A) (A) (A) (A) (A) (A) (A)
                 (A) (A) (A) (A) (A) (A) (A) (A) (A) (A) (A) (A)
                 (A) (A) (A) (A) (A) (A) (A) (A) (A) (A) (A) (A)
                 (A) (A) (A) (A) (A) (A) (A) (A) (A) (A) (A) (A)
                 (A) (A) (A) (A) (A) (A) (A) (A) (A) (A) (A) (A)
                 (A) (A) (A) (A) (A) (A) (A) (A) (A) (A) (A) (A)
                 (A) (A) (A) (A) (A) (A) (A) (A) (A) (A) (A) (A)
                 (A) (A) (A) (A) (A) (A) (A) (A) (A) (A) (A) (A)
                 (A) (A) (A) (A) (A) (A) (A) (A) (A) (A) (A) (A)
                 (A) (A) (A) (A) (A) (A) (A) (A) (A) (A) (A) (A)
                 (A) (A) (A) (A) (A) (A) (A) (A) (A) (A) (A) (A)
                 (A) (A) (A) (A) (A) (A) (A) (A) (A) (A) (A) (A)
                 (A) (A) (A) (A) (A) (A) (A) (A) (A) (A) (A) (A)
                 (A) (A) (A) (A) (A) (A) (A) (A) (A) (A) (A) (A)
                 (A) (A) (A) (A) (A) (A) (A) (A) (A) (A) (A) (A)
                 (A) (A) (A) (A) (A) (A) (A) (A) (A) (A) (A) (A)
                 (A) (A) (A) (A) (A) (A) (A) (A) (A) (A) (A) (A)
                 (A) (A) (A) (A) (A) (A) (A) (A) (A) (A) (A) (A)
                 (A) (A) (A) (A) (A) (A) (A) (A) (A) (A) (A) (A)
                 (A) (A) (A) (A) (A) (A) (A) (A) (A) (A) (A) (A)
                 (A) (A) (A) (A) (A) (A) (A) (A) (A) (A) (A) (A)
                 (A) (A) (A) (A) (A) (A) (A) (A) (A) (A) (A) (A)
                 (A) (A) (A) (A) (A) (A) (A) (A) (A) (A) (A) (A)
                 (A) (A) (A) (A) (A) (A) (A) (A) (A) (A) (A) (A)
                 (A) (A) (A) (A) (A) (A) (A) (A) (A) (A) (A) (A)
                 (A) (A) (A) (A) (A) (A) (A) (A) (A) (A) (A) (A)
                 (A) (A) (A) (A) (A) (A) (A) (A) (A) (A) (A) (A)
                 (A) (A) (A) (A) (A) (A) (A) (A) (A) (A) (A) (A)
                 (A) (A) (A) (A) (A) (A) (A) (A) (A) (A) (A) (A)
                 (A) (A) (A) (A) (A) (A) (A) (A) (A) (A) (A) (A)
                 (A) (A) (A) (A) (A) (A) (A) (A) (A) (A) (A) (A)
                 (A) (A) (A) (A) (A) (A) (A) (A) (A) (A) (A) (A)
                 (A) (A) (A) (A) (A) (A) (A) (A) (A) (A) (A) (A)
                 (A) (A) (A) (A) (A) (A) (A) (A) (A) (A) (A) (A)
                 (A) (A) (A) (A) (A) (A) (A) (A) (A) (A) (A) (A)
                 (A) (A) (A) (A) (A) (A) (A) (A) (A) (A) (A) (A)
                 (A) (A) (A) (A) (A) (A) (A) (A) (A) (A) (A) (A)
                 (A) (A) (A) (A) (A) (A) (A) (A) (A) (A) (A) (A)
                 (A) (A) (A) (A) (A) (A) (A) (A) (A) (A) (A) (A)
                 (A) (A) (A) (A) (A) (A) (A) (A) (A) (A) (A) (A)
                 (A) (A) (A) (A) (A) (A) (A) (A) (A) (A) (A) (A)
                 (A) (A) (A) (A) (A) (A) (A) (A) (A) (A) (A) (A)
                 (A) (A) (A) (A)
 Beta  Orbitals:
       Occupied  (A) (A) (A) (A) (A) (A) (A) (A) (A) (A) (A) (A)
                 (A) (A) (A) (A) (A) (A) (A) (A) (A) (A) (A) (A)
                 (A) (A) (A) (A) (A) (A) (A) (A) (A) (A) (A) (A)
                 (A) (A) (A) (A) (A) (A) (A) (A) (A) (A) (A) (A)
                 (A) (A) (A) (A) (A) (A) (A) (A) (A) (A) (A) (A)
                 (A) (A) (A) (A) (A) (A) (A) (A) (A) (A) (A) (A)
                 (A) (A) (A) (A) (A) (A) (A) (A) (A) (A) (A) (A)
                 (A) (A) (A) (A) (A) (A) (A) (A) (A) (A) (A) (A)
                 (A) (A) (A) (A) (A) (A) (A) (A) (A) (A) (A) (A)
                 (A) (A) (A) (A) (A) (A) (A) (A) (A) (A) (A) (A)
                 (A) (A) (A) (A) (A) (A) (A) (A) (A) (A) (A) (A)
                 (A) (A) (A) (A) (A) (A) (A) (A) (A) (A) (A) (A)
                 (A) (A) (A) (A) (A) (A) (A) (A) (A) (A) (A) (A)
                 (A) (A) (A) (A) (A) (A) (A) (A) (A) (A) (A) (A)
                 (A) (A) (A) (A) (A) (A) (A) (A) (A) (A) (A) (A)
                 (A) (A) (A) (A)
       Virtual   (A) (A) (A) (A) (A) (A) (A) (A) (A) (A) (A) (A)
                 (A) (A) (A) (A) (A) (A) (A) (A) (A) (A) (A) (A)
                 (A) (A) (A) (A) (A) (A) (A) (A) (A) (A) (A) (A)
                 (A) (A) (A) (A) (A) (A) (A) (A) (A) (A) (A) (A)
                 (A) (A) (A) (A) (A) (A) (A) (A) (A) (A) (A) (A)
                 (A) (A) (A) (A) (A) (A) (A) (A) (A) (A) (A) (A)
                 (A) (A) (A) (A) (A) (A) (A) (A) (A) (A) (A) (A)
                 (A) (A) (A) (A) (A) (A) (A) (A) (A) (A) (A) (A)
                 (A) (A) (A) (A) (A) (A) (A) (A) (A) (A) (A) (A)
                 (A) (A) (A) (A) (A) (A) (A) (A) (A) (A) (A) (A)
                 (A) (A) (A) (A) (A) (A) (A) (A) (A) (A) (A) (A)
                 (A) (A) (A) (A) (A) (A) (A) (A) (A) (A) (A) (A)
                 (A) (A) (A) (A) (A) (A) (A) (A) (A) (A) (A) (A)
                 (A) (A) (A) (A) (A) (A) (A) (A) (A) (A) (A) (A)
                 (A) (A) (A) (A) (A) (A) (A) (A) (A) (A) (A) (A)
                 (A) (A) (A) (A) (A) (A) (A) (A) (A) (A) (A) (A)
                 (A) (A) (A) (A) (A) (A) (A) (A) (A) (A) (A) (A)
                 (A) (A) (A) (A) (A) (A) (A) (A) (A) (A) (A) (A)
                 (A) (A) (A) (A) (A) (A) (A) (A) (A) (A) (A) (A)
                 (A) (A) (A) (A) (A) (A) (A) (A) (A) (A) (A) (A)
                 (A) (A) (A) (A) (A) (A) (A) (A) (A) (A) (A) (A)
                 (A) (A) (A) (A) (A) (A) (A) (A) (A) (A) (A) (A)
                 (A) (A) (A) (A) (A) (A) (A) (A) (A) (A) (A) (A)
                 (A) (A) (A) (A) (A) (A) (A) (A) (A) (A) (A) (A)
                 (A) (A) (A) (A) (A) (A) (A) (A) (A) (A) (A) (A)
                 (A) (A) (A) (A) (A) (A) (A) (A) (A) (A) (A) (A)
                 (A) (A) (A) (A) (A) (A) (A) (A) (A) (A) (A) (A)
                 (A) (A) (A) (A) (A) (A) (A) (A) (A) (A) (A) (A)
                 (A) (A) (A) (A) (A) (A) (A) (A) (A) (A) (A) (A)
                 (A) (A) (A) (A) (A) (A) (A) (A) (A) (A) (A) (A)
                 (A) (A) (A) (A) (A) (A) (A) (A) (A) (A) (A) (A)
                 (A) (A) (A) (A) (A) (A) (A) (A) (A) (A) (A) (A)
                 (A) (A) (A) (A) (A) (A) (A) (A) (A) (A) (A) (A)
                 (A) (A) (A) (A) (A) (A) (A) (A) (A) (A) (A) (A)
                 (A) (A) (A) (A) (A) (A) (A) (A) (A) (A) (A) (A)
                 (A) (A) (A) (A) (A) (A) (A) (A) (A) (A) (A) (A)
                 (A) (A) (A) (A) (A) (A) (A) (A) (A) (A) (A) (A)
                 (A) (A) (A) (A) (A) (A) (A) (A) (A) (A) (A) (A)
                 (A) (A) (A) (A) (A) (A) (A) (A) (A) (A) (A) (A)
                 (A) (A) (A) (A) (A) (A) (A) (A) (A) (A) (A) (A)
                 (A) (A) (A) (A) (A) (A) (A) (A) (A) (A) (A) (A)
                 (A) (A) (A) (A) (A) (A) (A) (A) (A) (A) (A) (A)
                 (A) (A) (A) (A) (A) (A) (A) (A) (A) (A) (A) (A)
                 (A) (A) (A) (A) (A) (A) (A) (A) (A) (A) (A) (A)
                 (A) (A) (A) (A) (A) (A) (A) (A) (A) (A) (A) (A)
                 (A) (A) (A) (A) (A) (A) (A) (A) (A) (A) (A) (A)
                 (A) (A) (A) (A) (A) (A) (A) (A) (A) (A) (A) (A)
                 (A) (A) (A) (A) (A) (A) (A) (A) (A) (A) (A) (A)
                 (A) (A) (A) (A) (A) (A) (A) (A) (A) (A) (A) (A)
                 (A) (A) (A) (A) (A) (A) (A) (A) (A) (A) (A) (A)
                 (A) (A) (A) (A) (A) (A) (A) (A) (A) (A) (A) (A)
                 (A) (A) (A) (A) (A) (A) (A) (A) (A) (A) (A) (A)
                 (A) (A) (A) (A) (A) (A) (A) (A) (A) (A) (A) (A)
                 (A) (A) (A) (A) (A) (A) (A) (A) (A) (A) (A) (A)
                 (A) (A) (A) (A) (A) (A) (A) (A) (A) (A) (A) (A)
                 (A) (A) (A) (A) (A) (A) (A) (A) (A) (A) (A) (A)
                 (A) (A) (A) (A) (A) (A) (A) (A) (A) (A) (A) (A)
                 (A) (A) (A) (A) (A) (A) (A) (A) (A) (A) (A) (A)
                 (A) (A) (A) (A) (A) (A) (A) (A) (A) (A) (A) (A)
                 (A) (A) (A) (A) (A) (A) (A) (A) (A) (A) (A) (A)
                 (A) (A) (A) (A) (A) (A) (A) (A) (A) (A) (A) (A)
                 (A) (A) (A) (A) (A) (A) (A) (A) (A) (A) (A) (A)
                 (A) (A) (A) (A) (A) (A) (A) (A) (A) (A) (A) (A)
                 (A) (A) (A) (A) (A) (A) (A) (A) (A) (A) (A) (A)
                 (A) (A) (A) (A) (A) (A) (A) (A) (A) (A) (A) (A)
                 (A) (A) (A) (A) (A) (A) (A) (A) (A) (A) (A) (A)
                 (A) (A) (A) (A) (A) (A) (A) (A) (A) (A) (A) (A)
                 (A) (A) (A) (A) (A) (A) (A) (A) (A) (A) (A) (A)
                 (A) (A) (A) (A) (A) (A) (A) (A) (A) (A) (A) (A)
                 (A) (A) (A) (A) (A) (A) (A) (A) (A) (A) (A) (A)
                 (A) (A) (A) (A) (A) (A) (A) (A) (A) (A) (A) (A)
                 (A) (A) (A) (A) (A) (A) (A) (A) (A) (A) (A) (A)
                 (A) (A) (A) (A) (A) (A) (A) (A) (A) (A) (A) (A)
                 (A) (A) (A) (A) (A) (A) (A) (A) (A) (A) (A) (A)
                 (A) (A) (A) (A) (A) (A) (A) (A) (A) (A) (A) (A)
                 (A) (A) (A) (A) (A) (A) (A) (A) (A) (A) (A) (A)
                 (A) (A) (A) (A) (A) (A) (A) (A) (A) (A) (A) (A)
                 (A) (A) (A) (A) (A) (A) (A) (A) (A) (A) (A) (A)
                 (A) (A) (A) (A) (A) (A) (A) (A) (A) (A) (A) (A)
                 (A) (A) (A) (A) (A) (A) (A) (A) (A) (A) (A) (A)
                 (A) (A) (A) (A) (A) (A) (A) (A) (A) (A) (A) (A)
                 (A) (A) (A) (A) (A) (A) (A) (A) (A) (A) (A) (A)
                 (A) (A) (A) (A) (A) (A) (A) (A) (A) (A) (A) (A)
                 (A) (A) (A) (A) (A) (A) (A) (A) (A) (A) (A) (A)
                 (A) (A) (A) (A) (A) (A) (A) (A) (A) (A) (A) (A)
                 (A) (A) (A) (A) (A) (A) (A) (A) (A) (A) (A) (A)
                 (A) (A) (A) (A) (A) (A) (A) (A) (A) (A) (A) (A)
                 (A) (A) (A) (A) (A) (A) (A) (A) (A) (A) (A) (A)
                 (A) (A) (A) (A) (A) (A) (A) (A) (A) (A) (A) (A)
                 (A) (A) (A) (A) (A) (A) (A) (A) (A) (A) (A) (A)
                 (A) (A) (A) (A) (A) (A) (A) (A) (A) (A) (A) (A)
                 (A) (A) (A) (A) (A) (A) (A) (A) (A) (A) (A) (A)
                 (A) (A) (A) (A) (A) (A) (A) (A) (A) (A) (A) (A)
                 (A) (A) (A) (A) (A) (A) (A) (A) (A) (A) (A) (A)
                 (A) (A) (A) (A) (A) (A) (A) (A) (A) (A) (A) (A)
                 (A) (A) (A) (A) (A) (A) (A) (A) (A) (A) (A) (A)
                 (A) (A) (A) (A) (A) (A) (A) (A) (A) (A) (A) (A)
                 (A) (A) (A) (A) (A) (A) (A) (A) (A) (A) (A) (A)
                 (A) (A) (A) (A) (A) (A) (A) (A) (A) (A) (A) (A)
                 (A) (A) (A) (A) (A) (A) (A) (A) (A) (A) (A) (A)
                 (A) (A) (A) (A) (A) (A) (A) (A) (A) (A) (A) (A)
                 (A) (A) (A) (A) (A) (A) (A) (A) (A) (A) (A) (A)
                 (A) (A) (A) (A) (A) (A) (A) (A) (A) (A) (A) (A)
                 (A) (A) (A) (A) (A) (A) (A) (A) (A) (A) (A) (A)
                 (A) (A) (A) (A) (A) (A) (A) (A) (A) (A) (A) (A)
                 (A) (A) (A) (A) (A) (A) (A) (A) (A) (A) (A) (A)
                 (A) (A) (A) (A) (A) (A) (A) (A) (A) (A) (A) (A)
                 (A) (A) (A) (A) (A) (A) (A) (A) (A) (A) (A) (A)
                 (A) (A) (A) (A) (A) (A) (A) (A) (A) (A) (A) (A)
                 (A) (A) (A) (A) (A) (A) (A) (A) (A) (A) (A) (A)
                 (A) (A) (A) (A) (A) (A) (A) (A) (A) (A) (A) (A)
                 (A) (A) (A) (A) (A) (A) (A) (A) (A) (A) (A) (A)
                 (A) (A) (A) (A) (A) (A) (A) (A) (A) (A) (A) (A)
                 (A) (A) (A) (A) (A) (A) (A) (A) (A) (A) (A) (A)
                 (A) (A) (A) (A) (A) (A) (A) (A) (A) (A) (A) (A)
                 (A) (A) (A) (A) (A) (A) (A) (A) (A) (A) (A) (A)
                 (A) (A) (A) (A) (A) (A) (A) (A) (A) (A) (A) (A)
                 (A) (A) (A) (A) (A) (A) (A) (A) (A) (A) (A) (A)
                 (A) (A) (A) (A) (A) (A) (A) (A) (A) (A) (A) (A)
                 (A) (A) (A) (A) (A) (A) (A) (A) (A) (A) (A) (A)
                 (A) (A) (A) (A) (A) (A) (A) (A) (A) (A) (A) (A)
                 (A) (A) (A) (A) (A) (A) (A) (A) (A) (A) (A) (A)
                 (A) (A) (A) (A) (A) (A) (A) (A) (A) (A) (A) (A)
                 (A) (A) (A) (A) (A) (A) (A) (A) (A) (A) (A) (A)
                 (A) (A) (A) (A) (A) (A) (A) (A) (A) (A) (A) (A)
                 (A) (A) (A) (A) (A) (A) (A) (A) (A) (A) (A) (A)
                 (A) (A) (A) (A) (A) (A) (A) (A) (A) (A) (A) (A)
                 (A) (A) (A) (A) (A) (A) (A) (A) (A) (A) (A) (A)
                 (A) (A) (A) (A) (A) (A) (A) (A) (A) (A) (A) (A)
                 (A) (A) (A) (A) (A) (A) (A) (A) (A) (A) (A) (A)
                 (A) (A) (A) (A) (A) (A) (A) (A) (A) (A) (A) (A)
                 (A) (A) (A) (A) (A) (A) (A) (A) (A) (A) (A) (A)
                 (A) (A) (A) (A) (A) (A) (A) (A) (A) (A) (A) (A)
                 (A) (A) (A) (A) (A)
 The electronic state is 2-A.
 Alpha  occ. eigenvalues -- -256.53921 -30.32305 -26.14902 -26.14516 -26.14478
 Alpha  occ. eigenvalues --  -19.33866 -19.32889 -19.25013 -19.24662 -14.56666
 Alpha  occ. eigenvalues --  -14.52871 -14.50355 -14.50340 -14.50202 -14.50085
 Alpha  occ. eigenvalues --  -10.42637 -10.42496 -10.40766 -10.37810 -10.36670
 Alpha  occ. eigenvalues --  -10.36586 -10.36547 -10.36543 -10.36537 -10.36524
 Alpha  occ. eigenvalues --  -10.36431 -10.36274 -10.35408 -10.33641 -10.33619
 Alpha  occ. eigenvalues --  -10.33366 -10.33198 -10.32950 -10.32893 -10.32839
 Alpha  occ. eigenvalues --  -10.32743 -10.32706 -10.32531 -10.32525 -10.32506
 Alpha  occ. eigenvalues --  -10.32429 -10.31804 -10.31768 -10.31488 -10.31411
 Alpha  occ. eigenvalues --  -10.30994 -10.30790 -10.30234 -10.30142 -10.29543
 Alpha  occ. eigenvalues --  -10.29019 -10.28599 -10.24817  -3.68561  -2.44321
 Alpha  occ. eigenvalues --   -2.44159  -2.43786  -1.23698  -1.23602  -1.18552
 Alpha  occ. eigenvalues --   -1.09624  -1.09271  -1.08935  -1.08472  -1.08144
 Alpha  occ. eigenvalues --   -1.07372  -1.03200  -0.94833  -0.94684  -0.93352
 Alpha  occ. eigenvalues --   -0.93123  -0.92694  -0.92411  -0.92260  -0.91629
 Alpha  occ. eigenvalues --   -0.88913  -0.88432  -0.87811  -0.86928  -0.86149
 Alpha  occ. eigenvalues --   -0.84446  -0.83598  -0.82725  -0.81993  -0.81892
 Alpha  occ. eigenvalues --   -0.79936  -0.78308  -0.77751  -0.76901  -0.76774
 Alpha  occ. eigenvalues --   -0.76725  -0.74025  -0.73840  -0.73681  -0.73203
 Alpha  occ. eigenvalues --   -0.71250  -0.70449  -0.69680  -0.68308  -0.66662
 Alpha  occ. eigenvalues --   -0.66044  -0.65681  -0.64492  -0.63568  -0.63363
 Alpha  occ. eigenvalues --   -0.62741  -0.60704  -0.60566  -0.59571  -0.59546
 Alpha  occ. eigenvalues --   -0.59350  -0.59326  -0.59052  -0.58157  -0.58044
 Alpha  occ. eigenvalues --   -0.57788  -0.57695  -0.56995  -0.56583  -0.56317
 Alpha  occ. eigenvalues --   -0.55729  -0.55425  -0.55136  -0.54761  -0.54649
 Alpha  occ. eigenvalues --   -0.54403  -0.54341  -0.53944  -0.53519  -0.53466
 Alpha  occ. eigenvalues --   -0.53356  -0.52843  -0.52714  -0.52563  -0.52452
 Alpha  occ. eigenvalues --   -0.52053  -0.51793  -0.51644  -0.51232  -0.51068
 Alpha  occ. eigenvalues --   -0.50897  -0.50599  -0.50118  -0.49710  -0.49560
 Alpha  occ. eigenvalues --   -0.49199  -0.48882  -0.48553  -0.48522  -0.48240
 Alpha  occ. eigenvalues --   -0.48006  -0.47614  -0.47428  -0.47104  -0.47032
 Alpha  occ. eigenvalues --   -0.46723  -0.46071  -0.45789  -0.45755  -0.45039
 Alpha  occ. eigenvalues --   -0.44486  -0.44194  -0.44014  -0.43925  -0.43604
 Alpha  occ. eigenvalues --   -0.43272  -0.42638  -0.42377  -0.41907  -0.41360
 Alpha  occ. eigenvalues --   -0.40725  -0.40192  -0.39659  -0.39343  -0.38978
 Alpha  occ. eigenvalues --   -0.38900  -0.36184  -0.35758  -0.35050  -0.34717
 Alpha  occ. eigenvalues --   -0.34322  -0.34194  -0.33698  -0.31382  -0.30131
 Alpha virt. eigenvalues --   -0.22646  -0.19394  -0.18456  -0.18369  -0.11555
 Alpha virt. eigenvalues --   -0.09753  -0.08258  -0.07304  -0.07028  -0.06845
 Alpha virt. eigenvalues --   -0.06297  -0.05664  -0.05229  -0.04484  -0.03961
 Alpha virt. eigenvalues --   -0.03658  -0.03394  -0.03104  -0.02964  -0.02543
 Alpha virt. eigenvalues --   -0.02301  -0.01977  -0.01687  -0.01482  -0.00867
 Alpha virt. eigenvalues --   -0.00545  -0.00307  -0.00111   0.00256   0.00652
 Alpha virt. eigenvalues --    0.01017   0.01201   0.01435   0.01641   0.01785
 Alpha virt. eigenvalues --    0.01964   0.02415   0.02509   0.02580   0.02900
 Alpha virt. eigenvalues --    0.03097   0.03635   0.03740   0.03831   0.04172
 Alpha virt. eigenvalues --    0.04494   0.04901   0.05049   0.05128   0.05216
 Alpha virt. eigenvalues --    0.05411   0.05545   0.05588   0.05766   0.05911
 Alpha virt. eigenvalues --    0.06202   0.06463   0.06775   0.06925   0.07085
 Alpha virt. eigenvalues --    0.07344   0.07550   0.07691   0.07926   0.08321
 Alpha virt. eigenvalues --    0.08390   0.08519   0.08789   0.08959   0.09521
 Alpha virt. eigenvalues --    0.09750   0.10097   0.10414   0.10611   0.10957
 Alpha virt. eigenvalues --    0.11189   0.11384   0.11483   0.11676   0.11997
 Alpha virt. eigenvalues --    0.12244   0.12405   0.12555   0.12698   0.12963
 Alpha virt. eigenvalues --    0.13282   0.13480   0.13580   0.13719   0.13961
 Alpha virt. eigenvalues --    0.14014   0.14199   0.14353   0.14755   0.14938
 Alpha virt. eigenvalues --    0.15085   0.15279   0.15550   0.15754   0.15861
 Alpha virt. eigenvalues --    0.16228   0.16387   0.16498   0.16715   0.16969
 Alpha virt. eigenvalues --    0.17249   0.17498   0.17626   0.18002   0.18167
 Alpha virt. eigenvalues --    0.18401   0.18676   0.19013   0.19105   0.19550
 Alpha virt. eigenvalues --    0.19829   0.20001   0.20126   0.20495   0.20827
 Alpha virt. eigenvalues --    0.20985   0.21195   0.21541   0.21731   0.21869
 Alpha virt. eigenvalues --    0.21969   0.22130   0.22541   0.22571   0.23132
 Alpha virt. eigenvalues --    0.23237   0.23375   0.23467   0.23820   0.23852
 Alpha virt. eigenvalues --    0.24157   0.24304   0.24421   0.24725   0.24817
 Alpha virt. eigenvalues --    0.25344   0.25644   0.25916   0.26484   0.26608
 Alpha virt. eigenvalues --    0.26650   0.27262   0.27349   0.27398   0.27676
 Alpha virt. eigenvalues --    0.27894   0.28030   0.28338   0.28476   0.28706
 Alpha virt. eigenvalues --    0.28972   0.29220   0.29323   0.29800   0.30045
 Alpha virt. eigenvalues --    0.30153   0.30672   0.30855   0.31108   0.31260
 Alpha virt. eigenvalues --    0.31459   0.31553   0.31959   0.32215   0.32397
 Alpha virt. eigenvalues --    0.32662   0.32780   0.33048   0.33360   0.33506
 Alpha virt. eigenvalues --    0.33901   0.34140   0.34326   0.34528   0.34578
 Alpha virt. eigenvalues --    0.34702   0.34906   0.35063   0.35428   0.35474
 Alpha virt. eigenvalues --    0.35654   0.35758   0.35934   0.36106   0.36436
 Alpha virt. eigenvalues --    0.36564   0.36713   0.36740   0.37134   0.37185
 Alpha virt. eigenvalues --    0.37325   0.37493   0.37635   0.37802   0.37914
 Alpha virt. eigenvalues --    0.38092   0.38238   0.38593   0.38720   0.38872
 Alpha virt. eigenvalues --    0.39084   0.39172   0.39352   0.39909   0.39958
 Alpha virt. eigenvalues --    0.40045   0.40253   0.40414   0.40676   0.40830
 Alpha virt. eigenvalues --    0.40889   0.41313   0.41442   0.41590   0.41882
 Alpha virt. eigenvalues --    0.41893   0.42179   0.42340   0.42435   0.42795
 Alpha virt. eigenvalues --    0.42816   0.42980   0.43171   0.43478   0.43594
 Alpha virt. eigenvalues --    0.43735   0.43880   0.44028   0.44227   0.44437
 Alpha virt. eigenvalues --    0.44662   0.44815   0.45211   0.45350   0.45538
 Alpha virt. eigenvalues --    0.45584   0.45830   0.46056   0.46303   0.46569
 Alpha virt. eigenvalues --    0.46843   0.47267   0.47462   0.47806   0.48024
 Alpha virt. eigenvalues --    0.48222   0.48316   0.48634   0.48852   0.48933
 Alpha virt. eigenvalues --    0.49242   0.49517   0.49646   0.49734   0.49915
 Alpha virt. eigenvalues --    0.50403   0.50520   0.50785   0.51093   0.51329
 Alpha virt. eigenvalues --    0.51549   0.51780   0.51823   0.52552   0.52718
 Alpha virt. eigenvalues --    0.52838   0.53371   0.53473   0.53903   0.54026
 Alpha virt. eigenvalues --    0.54233   0.54263   0.54979   0.55116   0.55243
 Alpha virt. eigenvalues --    0.55454   0.55939   0.55993   0.56229   0.56614
 Alpha virt. eigenvalues --    0.56689   0.57073   0.57148   0.57556   0.57666
 Alpha virt. eigenvalues --    0.58249   0.58534   0.58716   0.59036   0.59294
 Alpha virt. eigenvalues --    0.59341   0.59611   0.59798   0.60234   0.60303
 Alpha virt. eigenvalues --    0.60549   0.60729   0.61121   0.61313   0.61713
 Alpha virt. eigenvalues --    0.61812   0.62268   0.62337   0.62639   0.63059
 Alpha virt. eigenvalues --    0.63244   0.63361   0.64117   0.64151   0.64465
 Alpha virt. eigenvalues --    0.64895   0.65145   0.65378   0.65506   0.65982
 Alpha virt. eigenvalues --    0.66027   0.66492   0.66799   0.67260   0.67346
 Alpha virt. eigenvalues --    0.67699   0.67801   0.68057   0.68789   0.68804
 Alpha virt. eigenvalues --    0.69244   0.69383   0.69753   0.70219   0.70358
 Alpha virt. eigenvalues --    0.70603   0.70918   0.71137   0.71498   0.71702
 Alpha virt. eigenvalues --    0.71824   0.72647   0.73031   0.73391   0.73701
 Alpha virt. eigenvalues --    0.74058   0.74205   0.74270   0.74824   0.75045
 Alpha virt. eigenvalues --    0.75548   0.75887   0.76487   0.76867   0.77050
 Alpha virt. eigenvalues --    0.77358   0.77989   0.78115   0.78291   0.78662
 Alpha virt. eigenvalues --    0.78973   0.79263   0.79441   0.79561   0.80002
 Alpha virt. eigenvalues --    0.80710   0.80892   0.81323   0.81379   0.81533
 Alpha virt. eigenvalues --    0.82110   0.82571   0.82854   0.83109   0.83215
 Alpha virt. eigenvalues --    0.83379   0.83845   0.84169   0.84620   0.84828
 Alpha virt. eigenvalues --    0.85031   0.85429   0.85494   0.85905   0.85992
 Alpha virt. eigenvalues --    0.86028   0.86607   0.86863   0.87156   0.87526
 Alpha virt. eigenvalues --    0.87847   0.88275   0.88491   0.89096   0.89219
 Alpha virt. eigenvalues --    0.89362   0.89668   0.89898   0.90420   0.90852
 Alpha virt. eigenvalues --    0.91113   0.91349   0.91740   0.92119   0.92352
 Alpha virt. eigenvalues --    0.92457   0.92978   0.93057   0.93238   0.93468
 Alpha virt. eigenvalues --    0.93947   0.94304   0.94456   0.94827   0.95087
 Alpha virt. eigenvalues --    0.95146   0.95680   0.96102   0.96352   0.96556
 Alpha virt. eigenvalues --    0.97012   0.97380   0.97897   0.98143   0.98300
 Alpha virt. eigenvalues --    0.98642   0.99004   0.99265   0.99687   1.00391
 Alpha virt. eigenvalues --    1.00482   1.00692   1.01008   1.01232   1.01692
 Alpha virt. eigenvalues --    1.02558   1.02974   1.03302   1.03659   1.03861
 Alpha virt. eigenvalues --    1.04189   1.04661   1.04976   1.05140   1.05430
 Alpha virt. eigenvalues --    1.05952   1.06092   1.06498   1.07053   1.07478
 Alpha virt. eigenvalues --    1.07771   1.08388   1.08638   1.09190   1.09266
 Alpha virt. eigenvalues --    1.09630   1.09837   1.10426   1.10756   1.10899
 Alpha virt. eigenvalues --    1.11425   1.12180   1.12318   1.12728   1.13187
 Alpha virt. eigenvalues --    1.13497   1.13975   1.14090   1.14426   1.14517
 Alpha virt. eigenvalues --    1.14928   1.15287   1.15509   1.15851   1.16062
 Alpha virt. eigenvalues --    1.16159   1.16907   1.17061   1.17778   1.18000
 Alpha virt. eigenvalues --    1.18538   1.19013   1.19174   1.19420   1.19855
 Alpha virt. eigenvalues --    1.19951   1.20493   1.20914   1.21469   1.21685
 Alpha virt. eigenvalues --    1.21802   1.22242   1.22591   1.23213   1.23941
 Alpha virt. eigenvalues --    1.24132   1.24321   1.24691   1.24937   1.25295
 Alpha virt. eigenvalues --    1.25526   1.25655   1.26223   1.26397   1.27109
 Alpha virt. eigenvalues --    1.27536   1.28033   1.28833   1.29048   1.29783
 Alpha virt. eigenvalues --    1.30454   1.30959   1.31576   1.32132   1.32448
 Alpha virt. eigenvalues --    1.32595   1.33510   1.33706   1.34210   1.34616
 Alpha virt. eigenvalues --    1.34709   1.35398   1.35716   1.35884   1.36370
 Alpha virt. eigenvalues --    1.36797   1.36861   1.37002   1.37366   1.37521
 Alpha virt. eigenvalues --    1.38195   1.38742   1.38928   1.39173   1.39463
 Alpha virt. eigenvalues --    1.39745   1.39958   1.40320   1.40528   1.40714
 Alpha virt. eigenvalues --    1.41068   1.41240   1.41840   1.42326   1.42471
 Alpha virt. eigenvalues --    1.43028   1.43337   1.43554   1.43988   1.44407
 Alpha virt. eigenvalues --    1.44801   1.44940   1.45389   1.45620   1.46024
 Alpha virt. eigenvalues --    1.46306   1.46429   1.46543   1.46630   1.47000
 Alpha virt. eigenvalues --    1.47696   1.47761   1.47935   1.48443   1.48674
 Alpha virt. eigenvalues --    1.48704   1.49194   1.49560   1.49669   1.49899
 Alpha virt. eigenvalues --    1.50062   1.50446   1.50732   1.51033   1.51288
 Alpha virt. eigenvalues --    1.51472   1.51697   1.52147   1.52243   1.52417
 Alpha virt. eigenvalues --    1.52799   1.53251   1.53448   1.53899   1.54182
 Alpha virt. eigenvalues --    1.54535   1.54926   1.55108   1.55431   1.55459
 Alpha virt. eigenvalues --    1.55902   1.56114   1.56340   1.56605   1.56937
 Alpha virt. eigenvalues --    1.57122   1.57799   1.57965   1.58198   1.58338
 Alpha virt. eigenvalues --    1.58684   1.58865   1.59374   1.59683   1.60052
 Alpha virt. eigenvalues --    1.60396   1.60594   1.60809   1.61285   1.61588
 Alpha virt. eigenvalues --    1.61954   1.62262   1.62588   1.62761   1.63030
 Alpha virt. eigenvalues --    1.63260   1.63383   1.64200   1.64316   1.64813
 Alpha virt. eigenvalues --    1.65382   1.65497   1.65839   1.66250   1.66981
 Alpha virt. eigenvalues --    1.67584   1.67910   1.68177   1.68856   1.68958
 Alpha virt. eigenvalues --    1.68967   1.70062   1.70651   1.70882   1.71379
 Alpha virt. eigenvalues --    1.71532   1.71627   1.72377   1.72468   1.72920
 Alpha virt. eigenvalues --    1.73264   1.73552   1.74023   1.74319   1.74932
 Alpha virt. eigenvalues --    1.75973   1.76308   1.76501   1.76737   1.76967
 Alpha virt. eigenvalues --    1.77436   1.77884   1.78191   1.78441   1.78776
 Alpha virt. eigenvalues --    1.79179   1.79575   1.79936   1.80421   1.80838
 Alpha virt. eigenvalues --    1.81177   1.81464   1.81556   1.82113   1.82820
 Alpha virt. eigenvalues --    1.83054   1.83258   1.83885   1.84685   1.84761
 Alpha virt. eigenvalues --    1.85030   1.85577   1.85813   1.86050   1.86490
 Alpha virt. eigenvalues --    1.86781   1.87129   1.87341   1.87809   1.87971
 Alpha virt. eigenvalues --    1.88649   1.88926   1.89446   1.89649   1.90150
 Alpha virt. eigenvalues --    1.91024   1.91155   1.92020   1.92234   1.92808
 Alpha virt. eigenvalues --    1.93062   1.93257   1.93525   1.94076   1.94468
 Alpha virt. eigenvalues --    1.94723   1.94863   1.95599   1.95817   1.95965
 Alpha virt. eigenvalues --    1.96151   1.96723   1.97128   1.97327   1.97503
 Alpha virt. eigenvalues --    1.97876   1.98325   1.99048   1.99605   1.99639
 Alpha virt. eigenvalues --    2.00380   2.00506   2.01159   2.01493   2.01694
 Alpha virt. eigenvalues --    2.01955   2.02851   2.03027   2.03116   2.03639
 Alpha virt. eigenvalues --    2.03871   2.04174   2.04416   2.04723   2.04818
 Alpha virt. eigenvalues --    2.05519   2.05714   2.06026   2.06555   2.06762
 Alpha virt. eigenvalues --    2.06876   2.07059   2.07395   2.07805   2.08500
 Alpha virt. eigenvalues --    2.08854   2.09174   2.09495   2.10274   2.10905
 Alpha virt. eigenvalues --    2.11014   2.11364   2.11931   2.12091   2.12505
 Alpha virt. eigenvalues --    2.13212   2.13743   2.14052   2.14586   2.14991
 Alpha virt. eigenvalues --    2.15228   2.15959   2.16335   2.16632   2.16910
 Alpha virt. eigenvalues --    2.17532   2.18067   2.18733   2.19039   2.19586
 Alpha virt. eigenvalues --    2.19897   2.20173   2.20590   2.20926   2.21518
 Alpha virt. eigenvalues --    2.21648   2.22154   2.22305   2.23188   2.23388
 Alpha virt. eigenvalues --    2.24026   2.24528   2.25032   2.25117   2.25496
 Alpha virt. eigenvalues --    2.26320   2.26452   2.26728   2.26867   2.27401
 Alpha virt. eigenvalues --    2.27851   2.28109   2.28566   2.29096   2.29400
 Alpha virt. eigenvalues --    2.29421   2.29816   2.29990   2.30647   2.31033
 Alpha virt. eigenvalues --    2.31225   2.31487   2.31685   2.32211   2.32701
 Alpha virt. eigenvalues --    2.32871   2.33109   2.33339   2.34183   2.34787
 Alpha virt. eigenvalues --    2.34980   2.35326   2.35511   2.36173   2.36606
 Alpha virt. eigenvalues --    2.37076   2.37211   2.37986   2.38056   2.38540
 Alpha virt. eigenvalues --    2.38728   2.39037   2.39402   2.39641   2.40477
 Alpha virt. eigenvalues --    2.40733   2.40987   2.41444   2.41939   2.42366
 Alpha virt. eigenvalues --    2.42444   2.43472   2.43648   2.43714   2.44238
 Alpha virt. eigenvalues --    2.44608   2.44924   2.45337   2.45648   2.45974
 Alpha virt. eigenvalues --    2.46167   2.46712   2.47352   2.47645   2.47967
 Alpha virt. eigenvalues --    2.48073   2.48408   2.48559   2.48822   2.49479
 Alpha virt. eigenvalues --    2.49742   2.50236   2.50490   2.50707   2.51131
 Alpha virt. eigenvalues --    2.51269   2.51498   2.51966   2.52435   2.52656
 Alpha virt. eigenvalues --    2.53086   2.53628   2.54099   2.54181   2.54419
 Alpha virt. eigenvalues --    2.54746   2.54946   2.55619   2.55978   2.56116
 Alpha virt. eigenvalues --    2.56201   2.56770   2.57200   2.57530   2.57603
 Alpha virt. eigenvalues --    2.57994   2.58481   2.58667   2.58955   2.59203
 Alpha virt. eigenvalues --    2.59554   2.59649   2.60165   2.60387   2.60599
 Alpha virt. eigenvalues --    2.61005   2.61386   2.62267   2.62366   2.62724
 Alpha virt. eigenvalues --    2.63336   2.63526   2.63738   2.64526   2.64678
 Alpha virt. eigenvalues --    2.64983   2.65222   2.65429   2.65593   2.65957
 Alpha virt. eigenvalues --    2.66353   2.66842   2.67533   2.67882   2.68240
 Alpha virt. eigenvalues --    2.68446   2.68955   2.69319   2.69680   2.69895
 Alpha virt. eigenvalues --    2.70346   2.70999   2.71254   2.71744   2.71872
 Alpha virt. eigenvalues --    2.72480   2.72937   2.73295   2.73345   2.73508
 Alpha virt. eigenvalues --    2.73862   2.74342   2.74609   2.74675   2.75247
 Alpha virt. eigenvalues --    2.75526   2.75743   2.76090   2.76786   2.77001
 Alpha virt. eigenvalues --    2.77630   2.77729   2.77917   2.78423   2.78666
 Alpha virt. eigenvalues --    2.79053   2.79267   2.79994   2.80122   2.80483
 Alpha virt. eigenvalues --    2.81227   2.81738   2.81957   2.82098   2.82754
 Alpha virt. eigenvalues --    2.83013   2.83233   2.83940   2.83951   2.84337
 Alpha virt. eigenvalues --    2.84633   2.84932   2.85098   2.85647   2.85923
 Alpha virt. eigenvalues --    2.86226   2.86842   2.87305   2.87655   2.87741
 Alpha virt. eigenvalues --    2.88346   2.88650   2.89105   2.89578   2.89729
 Alpha virt. eigenvalues --    2.90010   2.90212   2.90821   2.91126   2.91563
 Alpha virt. eigenvalues --    2.91906   2.92328   2.92550   2.93064   2.93289
 Alpha virt. eigenvalues --    2.93465   2.93621   2.94143   2.94264   2.94652
 Alpha virt. eigenvalues --    2.94794   2.94890   2.95445   2.95779   2.96045
 Alpha virt. eigenvalues --    2.96369   2.97144   2.97295   2.97548   2.97838
 Alpha virt. eigenvalues --    2.98114   2.98317   2.98607   2.99033   2.99100
 Alpha virt. eigenvalues --    2.99338   2.99738   2.99915   3.00456   3.00590
 Alpha virt. eigenvalues --    3.00812   3.01046   3.01568   3.01695   3.02038
 Alpha virt. eigenvalues --    3.02270   3.02618   3.02873   3.03267   3.03492
 Alpha virt. eigenvalues --    3.03868   3.04091   3.04469   3.04662   3.04996
 Alpha virt. eigenvalues --    3.05273   3.05976   3.06018   3.06193   3.06867
 Alpha virt. eigenvalues --    3.07229   3.07395   3.07516   3.07739   3.08150
 Alpha virt. eigenvalues --    3.08221   3.08291   3.08634   3.08918   3.09320
 Alpha virt. eigenvalues --    3.09403   3.09827   3.10009   3.10348   3.10688
 Alpha virt. eigenvalues --    3.10771   3.11023   3.11408   3.11661   3.11913
 Alpha virt. eigenvalues --    3.12146   3.12574   3.12888   3.12959   3.13314
 Alpha virt. eigenvalues --    3.13660   3.13887   3.14070   3.14343   3.14718
 Alpha virt. eigenvalues --    3.14825   3.15160   3.15396   3.15748   3.16057
 Alpha virt. eigenvalues --    3.16133   3.16481   3.16660   3.16769   3.17156
 Alpha virt. eigenvalues --    3.17669   3.18051   3.18356   3.18384   3.18518
 Alpha virt. eigenvalues --    3.18916   3.19108   3.19376   3.19477   3.20043
 Alpha virt. eigenvalues --    3.20130   3.20430   3.20709   3.21237   3.21595
 Alpha virt. eigenvalues --    3.21777   3.22175   3.22874   3.22913   3.23240
 Alpha virt. eigenvalues --    3.23493   3.23558   3.23745   3.24423   3.24587
 Alpha virt. eigenvalues --    3.24652   3.24808   3.25359   3.25408   3.25584
 Alpha virt. eigenvalues --    3.26145   3.26497   3.26562   3.26889   3.26958
 Alpha virt. eigenvalues --    3.27239   3.27597   3.27771   3.27967   3.28317
 Alpha virt. eigenvalues --    3.28568   3.28727   3.29016   3.29151   3.29470
 Alpha virt. eigenvalues --    3.29920   3.29985   3.30284   3.30607   3.30692
 Alpha virt. eigenvalues --    3.31089   3.31351   3.31911   3.32043   3.32229
 Alpha virt. eigenvalues --    3.32455   3.32999   3.33858   3.34268   3.34441
 Alpha virt. eigenvalues --    3.34515   3.34854   3.35273   3.35422   3.35893
 Alpha virt. eigenvalues --    3.36403   3.36433   3.36608   3.36955   3.37404
 Alpha virt. eigenvalues --    3.37972   3.38121   3.38700   3.38917   3.39526
 Alpha virt. eigenvalues --    3.39708   3.40233   3.40277   3.40651   3.41213
 Alpha virt. eigenvalues --    3.41522   3.41872   3.42104   3.42346   3.43302
 Alpha virt. eigenvalues --    3.43499   3.43991   3.44269   3.44344   3.44737
 Alpha virt. eigenvalues --    3.44973   3.45323   3.45906   3.46172   3.46504
 Alpha virt. eigenvalues --    3.47068   3.47240   3.47644   3.48160   3.48236
 Alpha virt. eigenvalues --    3.48718   3.49156   3.49396   3.50046   3.50276
 Alpha virt. eigenvalues --    3.50911   3.51250   3.51435   3.51509   3.51924
 Alpha virt. eigenvalues --    3.52331   3.52859   3.53549   3.54061   3.54420
 Alpha virt. eigenvalues --    3.54475   3.54699   3.55185   3.55499   3.56252
 Alpha virt. eigenvalues --    3.56498   3.56738   3.57257   3.57399   3.57783
 Alpha virt. eigenvalues --    3.58114   3.58920   3.59124   3.59240   3.59440
 Alpha virt. eigenvalues --    3.60243   3.60577   3.61144   3.61593   3.61822
 Alpha virt. eigenvalues --    3.62224   3.62530   3.62911   3.63035   3.63461
 Alpha virt. eigenvalues --    3.63882   3.64262   3.64603   3.65117   3.65379
 Alpha virt. eigenvalues --    3.65932   3.66395   3.66805   3.67240   3.67288
 Alpha virt. eigenvalues --    3.68305   3.68616   3.69142   3.69662   3.69911
 Alpha virt. eigenvalues --    3.70412   3.70996   3.71677   3.72315   3.72504
 Alpha virt. eigenvalues --    3.72947   3.73684   3.73803   3.74280   3.74860
 Alpha virt. eigenvalues --    3.75319   3.75449   3.75797   3.76247   3.76865
 Alpha virt. eigenvalues --    3.77043   3.77484   3.77940   3.78285   3.78884
 Alpha virt. eigenvalues --    3.79505   3.80297   3.80682   3.81058   3.81155
 Alpha virt. eigenvalues --    3.81473   3.82082   3.82529   3.82704   3.83037
 Alpha virt. eigenvalues --    3.83284   3.83754   3.84007   3.85006   3.85380
 Alpha virt. eigenvalues --    3.85779   3.86274   3.87033   3.87704   3.87904
 Alpha virt. eigenvalues --    3.88643   3.88949   3.89375   3.90035   3.90305
 Alpha virt. eigenvalues --    3.90500   3.90899   3.91139   3.92030   3.92643
 Alpha virt. eigenvalues --    3.92912   3.93254   3.93804   3.94179   3.94273
 Alpha virt. eigenvalues --    3.95390   3.96097   3.96398   3.97213   3.97877
 Alpha virt. eigenvalues --    3.98394   3.98862   3.99194   3.99405   3.99956
 Alpha virt. eigenvalues --    4.01141   4.01509   4.01784   4.02258   4.02661
 Alpha virt. eigenvalues --    4.03578   4.03853   4.03990   4.04556   4.04951
 Alpha virt. eigenvalues --    4.06262   4.06569   4.07181   4.07702   4.07840
 Alpha virt. eigenvalues --    4.08446   4.09275   4.09636   4.10155   4.10701
 Alpha virt. eigenvalues --    4.11115   4.11441   4.12159   4.12480   4.12892
 Alpha virt. eigenvalues --    4.13543   4.14201   4.14257   4.14831   4.15455
 Alpha virt. eigenvalues --    4.15941   4.16715   4.17285   4.18131   4.18912
 Alpha virt. eigenvalues --    4.19297   4.20649   4.20941   4.21033   4.21944
 Alpha virt. eigenvalues --    4.22223   4.23366   4.23649   4.24072   4.24550
 Alpha virt. eigenvalues --    4.25143   4.25890   4.26057   4.26485   4.26901
 Alpha virt. eigenvalues --    4.27156   4.27796   4.28520   4.29087   4.29258
 Alpha virt. eigenvalues --    4.29634   4.30296   4.31311   4.31714   4.32078
 Alpha virt. eigenvalues --    4.32518   4.32892   4.33568   4.34231   4.34378
 Alpha virt. eigenvalues --    4.35179   4.36068   4.36271   4.37201   4.38299
 Alpha virt. eigenvalues --    4.39299   4.39711   4.40023   4.40514   4.41664
 Alpha virt. eigenvalues --    4.42518   4.42622   4.43921   4.44310   4.45481
 Alpha virt. eigenvalues --    4.45845   4.47247   4.47436   4.48397   4.49441
 Alpha virt. eigenvalues --    4.49505   4.50118   4.50599   4.51609   4.52210
 Alpha virt. eigenvalues --    4.52817   4.53575   4.54244   4.54526   4.55324
 Alpha virt. eigenvalues --    4.56225   4.56600   4.56973   4.57640   4.58060
 Alpha virt. eigenvalues --    4.58502   4.59186   4.59349   4.60124   4.60804
 Alpha virt. eigenvalues --    4.61186   4.62003   4.62768   4.63662   4.64288
 Alpha virt. eigenvalues --    4.64742   4.65359   4.65727   4.66609   4.67260
 Alpha virt. eigenvalues --    4.68243   4.69311   4.69670   4.70493   4.70742
 Alpha virt. eigenvalues --    4.71667   4.71972   4.72468   4.72902   4.73717
 Alpha virt. eigenvalues --    4.75005   4.75396   4.76147   4.77043   4.77760
 Alpha virt. eigenvalues --    4.77856   4.78362   4.79499   4.79904   4.80649
 Alpha virt. eigenvalues --    4.81478   4.81861   4.82008   4.82555   4.83252
 Alpha virt. eigenvalues --    4.83704   4.84775   4.85081   4.86253   4.87220
 Alpha virt. eigenvalues --    4.88234   4.88652   4.89180   4.89528   4.90147
 Alpha virt. eigenvalues --    4.90544   4.90794   4.91938   4.92177   4.92809
 Alpha virt. eigenvalues --    4.94439   4.95834   4.96850   4.97469   5.00550
 Alpha virt. eigenvalues --    5.01214   5.02467   5.03287   5.03537   5.04465
 Alpha virt. eigenvalues --    5.04605   5.06151   5.06837   5.08760   5.09036
 Alpha virt. eigenvalues --    5.09927   5.10352   5.10579   5.11212   5.11821
 Alpha virt. eigenvalues --    5.12571   5.13596   5.14309   5.15699   5.16091
 Alpha virt. eigenvalues --    5.16708   5.16923   5.17549   5.19630   5.20170
 Alpha virt. eigenvalues --    5.21163   5.22132   5.22557   5.23938   5.24824
 Alpha virt. eigenvalues --    5.25163   5.25599   5.26334   5.26516   5.28979
 Alpha virt. eigenvalues --    5.29517   5.31409   5.32111   5.33732   5.34479
 Alpha virt. eigenvalues --    5.34674   5.35841   5.36684   5.37759   5.37924
 Alpha virt. eigenvalues --    5.38775   5.42509   5.43521   5.44685   5.46123
 Alpha virt. eigenvalues --    5.46414   5.47700   5.47937   5.49185   5.49902
 Alpha virt. eigenvalues --    5.50476   5.50714   5.50900   5.51572   5.52801
 Alpha virt. eigenvalues --    5.55935   5.57664   5.57829   5.59113   5.61242
 Alpha virt. eigenvalues --    5.62483   5.64362   5.65677   5.67960   5.70084
 Alpha virt. eigenvalues --    5.70211   5.70432   5.74298   5.76317   5.77568
 Alpha virt. eigenvalues --    5.82432   5.83162   5.83809   5.84952   5.85857
 Alpha virt. eigenvalues --    5.87222   5.89604   5.92050   5.92453   5.93871
 Alpha virt. eigenvalues --    5.94776   5.98154   6.00296   6.04588   6.04912
 Alpha virt. eigenvalues --    6.05755   6.06492   6.10518   6.17641   6.18162
 Alpha virt. eigenvalues --    6.20499   6.25046   6.26213   6.26387   6.27101
 Alpha virt. eigenvalues --    6.35187   6.36048   6.40063   6.40793   6.45444
 Alpha virt. eigenvalues --    6.46123   6.57593   6.58655   6.67255   6.67743
 Alpha virt. eigenvalues --    6.75016   6.77388   6.84563   6.87188   6.93185
 Alpha virt. eigenvalues --    6.96973   7.04158   7.06018   7.06436   7.08050
 Alpha virt. eigenvalues --    7.21944   7.24789  22.42447  22.42502  22.45939
 Alpha virt. eigenvalues --   22.46116  22.52648  22.53413  22.54899  22.55495
 Alpha virt. eigenvalues --   22.56559  22.59320  22.60591  22.63667  22.64090
 Alpha virt. eigenvalues --   22.74113  22.76545  22.78215  22.79285  22.83590
 Alpha virt. eigenvalues --   22.90917  22.92943  22.94026  22.99965  23.06242
 Alpha virt. eigenvalues --   23.11674  23.16247  23.17088  23.18634  23.23430
 Alpha virt. eigenvalues --   23.27243  23.39334  23.40546  23.42041  23.47616
 Alpha virt. eigenvalues --   23.52930  23.59415  23.64635  23.65190  23.72315
 Alpha virt. eigenvalues --   32.32874  32.49113  32.74534  32.80039  32.80940
 Alpha virt. eigenvalues --   32.89755  43.85812  43.88408  43.89020  43.89485
  Beta  occ. eigenvalues -- -256.53882 -30.29780 -26.13188 -26.12439 -26.11916
  Beta  occ. eigenvalues --  -19.33866 -19.32889 -19.25013 -19.24662 -14.56662
  Beta  occ. eigenvalues --  -14.53103 -14.50478 -14.50475 -14.50339 -14.50235
  Beta  occ. eigenvalues --  -10.42637 -10.42496 -10.40750 -10.37817 -10.36651
  Beta  occ. eigenvalues --  -10.36571 -10.36529 -10.36527 -10.36514 -10.36509
  Beta  occ. eigenvalues --  -10.36416 -10.36254 -10.35407 -10.33674 -10.33649
  Beta  occ. eigenvalues --  -10.33406 -10.33234 -10.32954 -10.32880 -10.32826
  Beta  occ. eigenvalues --  -10.32745 -10.32690 -10.32538 -10.32527 -10.32488
  Beta  occ. eigenvalues --  -10.32431 -10.31806 -10.31769 -10.31488 -10.31412
  Beta  occ. eigenvalues --  -10.30994 -10.30791 -10.30234 -10.30143 -10.29544
  Beta  occ. eigenvalues --  -10.29020 -10.28600 -10.24817  -3.62306  -2.38737
  Beta  occ. eigenvalues --   -2.37424  -2.35829  -1.23698  -1.23602  -1.18626
  Beta  occ. eigenvalues --   -1.09625  -1.09380  -1.08935  -1.08596  -1.08254
  Beta  occ. eigenvalues --   -1.07492  -1.03390  -0.94854  -0.94704  -0.93372
  Beta  occ. eigenvalues --   -0.93145  -0.92725  -0.92428  -0.92296  -0.91679
  Beta  occ. eigenvalues --   -0.88920  -0.88454  -0.87841  -0.87021  -0.86162
  Beta  occ. eigenvalues --   -0.84459  -0.83622  -0.82749  -0.82032  -0.81905
  Beta  occ. eigenvalues --   -0.79942  -0.78338  -0.77768  -0.76912  -0.76876
  Beta  occ. eigenvalues --   -0.76783  -0.74052  -0.73848  -0.73689  -0.73219
  Beta  occ. eigenvalues --   -0.71257  -0.70460  -0.69702  -0.68357  -0.66658
  Beta  occ. eigenvalues --   -0.66063  -0.65706  -0.64536  -0.63617  -0.63414
  Beta  occ. eigenvalues --   -0.62776  -0.60725  -0.60572  -0.59649  -0.59538
  Beta  occ. eigenvalues --   -0.59359  -0.59298  -0.59056  -0.58164  -0.58027
  Beta  occ. eigenvalues --   -0.57809  -0.57700  -0.57035  -0.56603  -0.56353
  Beta  occ. eigenvalues --   -0.55729  -0.55457  -0.55133  -0.54778  -0.54593
  Beta  occ. eigenvalues --   -0.54494  -0.54304  -0.53882  -0.53512  -0.53451
  Beta  occ. eigenvalues --   -0.53371  -0.52813  -0.52730  -0.52595  -0.52513
  Beta  occ. eigenvalues --   -0.52128  -0.51727  -0.51493  -0.51203  -0.50916
  Beta  occ. eigenvalues --   -0.50852  -0.50386  -0.50042  -0.49704  -0.49506
  Beta  occ. eigenvalues --   -0.49313  -0.48636  -0.48571  -0.48368  -0.48056
  Beta  occ. eigenvalues --   -0.47764  -0.47678  -0.47012  -0.46740  -0.46622
  Beta  occ. eigenvalues --   -0.46058  -0.45804  -0.45689  -0.44968  -0.44466
  Beta  occ. eigenvalues --   -0.44017  -0.43755  -0.43632  -0.43061  -0.42714
  Beta  occ. eigenvalues --   -0.42347  -0.41950  -0.41297  -0.40901  -0.40340
  Beta  occ. eigenvalues --   -0.40197  -0.39659  -0.39365  -0.39108  -0.38852
  Beta  occ. eigenvalues --   -0.36190  -0.35525  -0.35420  -0.34728  -0.34649
  Beta  occ. eigenvalues --   -0.34143  -0.33723  -0.31405  -0.29967
  Beta virt. eigenvalues --   -0.20388  -0.18637  -0.18318  -0.17167  -0.15941
  Beta virt. eigenvalues --   -0.11601  -0.09473  -0.08257  -0.07307  -0.07038
  Beta virt. eigenvalues --   -0.06796  -0.06354  -0.05624  -0.05200  -0.04416
  Beta virt. eigenvalues --   -0.03938  -0.03602  -0.03269  -0.03043  -0.02935
  Beta virt. eigenvalues --   -0.02511  -0.02255  -0.01953  -0.01680  -0.01443
  Beta virt. eigenvalues --   -0.00850  -0.00533  -0.00283  -0.00092   0.00254
  Beta virt. eigenvalues --    0.00658   0.01054   0.01211   0.01434   0.01653
  Beta virt. eigenvalues --    0.01792   0.01967   0.02429   0.02508   0.02615
  Beta virt. eigenvalues --    0.02890   0.03102   0.03640   0.03743   0.03821
  Beta virt. eigenvalues --    0.04182   0.04494   0.04908   0.05042   0.05125
  Beta virt. eigenvalues --    0.05225   0.05419   0.05553   0.05591   0.05764
  Beta virt. eigenvalues --    0.05892   0.06200   0.06470   0.06761   0.06937
  Beta virt. eigenvalues --    0.07091   0.07361   0.07580   0.07707   0.07947
  Beta virt. eigenvalues --    0.08359   0.08435   0.08567   0.08786   0.09057
  Beta virt. eigenvalues --    0.09553   0.09761   0.10101   0.10423   0.10626
  Beta virt. eigenvalues --    0.11011   0.11197   0.11388   0.11512   0.11681
  Beta virt. eigenvalues --    0.12000   0.12279   0.12464   0.12589   0.12713
  Beta virt. eigenvalues --    0.12980   0.13300   0.13560   0.13591   0.13761
  Beta virt. eigenvalues --    0.13976   0.14014   0.14243   0.14352   0.14791
  Beta virt. eigenvalues --    0.14975   0.15114   0.15317   0.15563   0.15761
  Beta virt. eigenvalues --    0.15876   0.16256   0.16394   0.16537   0.16755
  Beta virt. eigenvalues --    0.17003   0.17300   0.17521   0.17637   0.18012
  Beta virt. eigenvalues --    0.18196   0.18415   0.18681   0.19039   0.19112
  Beta virt. eigenvalues --    0.19594   0.19833   0.20016   0.20178   0.20579
  Beta virt. eigenvalues --    0.20832   0.20993   0.21200   0.21634   0.21747
  Beta virt. eigenvalues --    0.21881   0.22032   0.22207   0.22640   0.22709
  Beta virt. eigenvalues --    0.23133   0.23241   0.23413   0.23489   0.23846
  Beta virt. eigenvalues --    0.23877   0.24165   0.24354   0.24421   0.24733
  Beta virt. eigenvalues --    0.24837   0.25358   0.25674   0.25922   0.26506
  Beta virt. eigenvalues --    0.26627   0.26661   0.27274   0.27338   0.27417
  Beta virt. eigenvalues --    0.27704   0.27927   0.28055   0.28371   0.28524
  Beta virt. eigenvalues --    0.28708   0.28994   0.29226   0.29333   0.29824
  Beta virt. eigenvalues --    0.30042   0.30186   0.30707   0.30852   0.31124
  Beta virt. eigenvalues --    0.31303   0.31487   0.31597   0.31982   0.32264
  Beta virt. eigenvalues --    0.32457   0.32706   0.32796   0.33065   0.33381
  Beta virt. eigenvalues --    0.33543   0.33959   0.34146   0.34319   0.34526
  Beta virt. eigenvalues --    0.34597   0.34705   0.34947   0.35090   0.35431
  Beta virt. eigenvalues --    0.35508   0.35663   0.35762   0.35968   0.36129
  Beta virt. eigenvalues --    0.36442   0.36622   0.36701   0.36779   0.37144
  Beta virt. eigenvalues --    0.37188   0.37367   0.37501   0.37665   0.37815
  Beta virt. eigenvalues --    0.37915   0.38096   0.38257   0.38602   0.38739
  Beta virt. eigenvalues --    0.38871   0.39108   0.39180   0.39447   0.39935
  Beta virt. eigenvalues --    0.39994   0.40055   0.40272   0.40421   0.40715
  Beta virt. eigenvalues --    0.40827   0.40897   0.41311   0.41515   0.41597
  Beta virt. eigenvalues --    0.41899   0.41914   0.42218   0.42371   0.42452
  Beta virt. eigenvalues --    0.42814   0.42843   0.42990   0.43194   0.43507
  Beta virt. eigenvalues --    0.43609   0.43767   0.43888   0.44032   0.44232
  Beta virt. eigenvalues --    0.44446   0.44679   0.44852   0.45237   0.45366
  Beta virt. eigenvalues --    0.45543   0.45574   0.45860   0.46056   0.46298
  Beta virt. eigenvalues --    0.46572   0.46851   0.47263   0.47485   0.47830
  Beta virt. eigenvalues --    0.48026   0.48236   0.48334   0.48653   0.48877
  Beta virt. eigenvalues --    0.48940   0.49275   0.49528   0.49681   0.49753
  Beta virt. eigenvalues --    0.49943   0.50410   0.50537   0.50775   0.51082
  Beta virt. eigenvalues --    0.51346   0.51572   0.51785   0.51836   0.52560
  Beta virt. eigenvalues --    0.52730   0.52832   0.53384   0.53464   0.53929
  Beta virt. eigenvalues --    0.54030   0.54237   0.54273   0.54986   0.55118
  Beta virt. eigenvalues --    0.55244   0.55459   0.55948   0.56009   0.56253
  Beta virt. eigenvalues --    0.56618   0.56708   0.57077   0.57170   0.57581
  Beta virt. eigenvalues --    0.57736   0.58248   0.58624   0.58743   0.59052
  Beta virt. eigenvalues --    0.59300   0.59382   0.59605   0.59827   0.60246
  Beta virt. eigenvalues --    0.60309   0.60566   0.60755   0.61126   0.61333
  Beta virt. eigenvalues --    0.61710   0.61829   0.62306   0.62363   0.62686
  Beta virt. eigenvalues --    0.63112   0.63253   0.63377   0.64110   0.64216
  Beta virt. eigenvalues --    0.64481   0.64920   0.65207   0.65427   0.65520
  Beta virt. eigenvalues --    0.66030   0.66050   0.66569   0.66862   0.67297
  Beta virt. eigenvalues --    0.67358   0.67734   0.67880   0.68069   0.68800
  Beta virt. eigenvalues --    0.68814   0.69260   0.69395   0.69779   0.70227
  Beta virt. eigenvalues --    0.70365   0.70625   0.70929   0.71142   0.71508
  Beta virt. eigenvalues --    0.71746   0.71839   0.72669   0.73033   0.73392
  Beta virt. eigenvalues --    0.73716   0.74047   0.74211   0.74273   0.74830
  Beta virt. eigenvalues --    0.75053   0.75554   0.75888   0.76496   0.76866
  Beta virt. eigenvalues --    0.77048   0.77370   0.78005   0.78131   0.78307
  Beta virt. eigenvalues --    0.78685   0.78974   0.79276   0.79434   0.79601
  Beta virt. eigenvalues --    0.80040   0.80720   0.80894   0.81330   0.81383
  Beta virt. eigenvalues --    0.81525   0.82113   0.82602   0.82950   0.83124
  Beta virt. eigenvalues --    0.83250   0.83437   0.83865   0.84206   0.84633
  Beta virt. eigenvalues --    0.84852   0.85023   0.85460   0.85591   0.85936
  Beta virt. eigenvalues --    0.86005   0.86084   0.86639   0.86889   0.87183
  Beta virt. eigenvalues --    0.87526   0.87949   0.88279   0.88516   0.89153
  Beta virt. eigenvalues --    0.89258   0.89467   0.89692   0.89986   0.90435
  Beta virt. eigenvalues --    0.90891   0.91189   0.91375   0.91757   0.92134
  Beta virt. eigenvalues --    0.92396   0.92528   0.92981   0.93145   0.93269
  Beta virt. eigenvalues --    0.93565   0.93992   0.94351   0.94541   0.94861
  Beta virt. eigenvalues --    0.95084   0.95309   0.95723   0.96192   0.96400
  Beta virt. eigenvalues --    0.96738   0.97029   0.97409   0.97916   0.98143
  Beta virt. eigenvalues --    0.98410   0.98683   0.99000   0.99284   0.99775
  Beta virt. eigenvalues --    1.00409   1.00608   1.00866   1.01035   1.01269
  Beta virt. eigenvalues --    1.01734   1.02539   1.02990   1.03296   1.03785
  Beta virt. eigenvalues --    1.04085   1.04371   1.04704   1.05027   1.05172
  Beta virt. eigenvalues --    1.05438   1.05958   1.06162   1.06628   1.07100
  Beta virt. eigenvalues --    1.07550   1.07860   1.08442   1.08719   1.09201
  Beta virt. eigenvalues --    1.09279   1.09663   1.09853   1.10418   1.10761
  Beta virt. eigenvalues --    1.10942   1.11475   1.12231   1.12342   1.12766
  Beta virt. eigenvalues --    1.13245   1.13518   1.13996   1.14103   1.14451
  Beta virt. eigenvalues --    1.14528   1.14963   1.15296   1.15542   1.15858
  Beta virt. eigenvalues --    1.16074   1.16172   1.16922   1.17170   1.17810
  Beta virt. eigenvalues --    1.18039   1.18556   1.19002   1.19250   1.19434
  Beta virt. eigenvalues --    1.19878   1.19956   1.20524   1.20917   1.21518
  Beta virt. eigenvalues --    1.21718   1.21807   1.22257   1.22606   1.23239
  Beta virt. eigenvalues --    1.23943   1.24149   1.24334   1.24738   1.24996
  Beta virt. eigenvalues --    1.25309   1.25534   1.25662   1.26253   1.26460
  Beta virt. eigenvalues --    1.27140   1.27557   1.28039   1.28831   1.29057
  Beta virt. eigenvalues --    1.29793   1.30528   1.31028   1.31585   1.32134
  Beta virt. eigenvalues --    1.32466   1.32716   1.33539   1.33730   1.34207
  Beta virt. eigenvalues --    1.34618   1.34720   1.35469   1.35737   1.35872
  Beta virt. eigenvalues --    1.36400   1.36812   1.36877   1.37027   1.37517
  Beta virt. eigenvalues --    1.37563   1.38199   1.38802   1.38943   1.39189
  Beta virt. eigenvalues --    1.39480   1.39753   1.39945   1.40322   1.40624
  Beta virt. eigenvalues --    1.40731   1.41051   1.41268   1.41862   1.42343
  Beta virt. eigenvalues --    1.42477   1.43039   1.43350   1.43573   1.44012
  Beta virt. eigenvalues --    1.44404   1.44823   1.44938   1.45420   1.45641
  Beta virt. eigenvalues --    1.46014   1.46328   1.46440   1.46536   1.46642
  Beta virt. eigenvalues --    1.47004   1.47698   1.47777   1.47936   1.48455
  Beta virt. eigenvalues --    1.48680   1.48714   1.49205   1.49567   1.49674
  Beta virt. eigenvalues --    1.49904   1.50077   1.50457   1.50729   1.51040
  Beta virt. eigenvalues --    1.51289   1.51461   1.51697   1.52142   1.52247
  Beta virt. eigenvalues --    1.52427   1.52796   1.53257   1.53448   1.53903
  Beta virt. eigenvalues --    1.54190   1.54525   1.54919   1.55101   1.55444
  Beta virt. eigenvalues --    1.55462   1.55928   1.56134   1.56345   1.56613
  Beta virt. eigenvalues --    1.56929   1.57202   1.57795   1.57960   1.58206
  Beta virt. eigenvalues --    1.58333   1.58683   1.58862   1.59405   1.59679
  Beta virt. eigenvalues --    1.60057   1.60396   1.60594   1.60800   1.61265
  Beta virt. eigenvalues --    1.61599   1.61976   1.62271   1.62590   1.62764
  Beta virt. eigenvalues --    1.63032   1.63268   1.63390   1.64220   1.64321
  Beta virt. eigenvalues --    1.64812   1.65379   1.65504   1.65843   1.66249
  Beta virt. eigenvalues --    1.66981   1.67596   1.67924   1.68189   1.68844
  Beta virt. eigenvalues --    1.68941   1.68974   1.70073   1.70667   1.70866
  Beta virt. eigenvalues --    1.71378   1.71540   1.71650   1.72372   1.72461
  Beta virt. eigenvalues --    1.72988   1.73271   1.73540   1.74014   1.74335
  Beta virt. eigenvalues --    1.74933   1.75939   1.76298   1.76511   1.76718
  Beta virt. eigenvalues --    1.76995   1.77443   1.77892   1.78187   1.78469
  Beta virt. eigenvalues --    1.78767   1.79213   1.79584   1.79930   1.80457
[...]
  1555. RY*(   4) H  67                  0.00004     1.73643   
  1556. RY*(   5) H  67                  0.00000     2.70741   
  1557. RY*(   1) H  68                  0.00039     0.95576   
  1558. RY*(   2) H  68                  0.00007     1.60448   
  1559. RY*(   3) H  68                  0.00006     2.35604   
  1560. RY*(   4) H  68                  0.00003     2.32646   
  1561. RY*(   5) H  68                  0.00001     2.86706   
  1562. RY*(   1) H  69                  0.00028     1.22687   
  1563. RY*(   2) H  69                  0.00005     1.35305   
  1564. RY*(   3) H  69                  0.00006     2.35321   
  1565. RY*(   4) H  69                  0.00003     2.33094   
  1566. RY*(   5) H  69                  0.00001     2.98373   
  1567. RY*(   1) H  70                  0.00046     1.17523   
  1568. RY*(   2) H  70                  0.00035     1.68161   
  1569. RY*(   3) H  70                  0.00023     1.78793   
  1570. RY*(   4) H  70                  0.00012     2.10302   
  1571. RY*(   5) H  70                  0.00000     3.08766   
  1572. RY*(   1) H  71                  0.00067     0.80338   
  1573. RY*(   2) H  71                  0.00033     2.07523   
  1574. RY*(   3) H  71                  0.00024     1.71883   
  1575. RY*(   4) H  71                  0.00011     2.09821   
  1576. RY*(   5) H  71                  0.00000     3.14269   
  1577. RY*(   1) H  72                  0.00036     1.00438   
  1578. RY*(   2) H  72                  0.00007     1.68522   
  1579. RY*(   3) H  72                  0.00006     2.48633   
  1580. RY*(   4) H  72                  0.00004     2.15653   
  1581. RY*(   5) H  72                  0.00001     2.89603   
  1582. RY*(   1) H  73                  0.00033     1.37881   
  1583. RY*(   2) H  73                  0.00006     1.67436   
  1584. RY*(   3) H  73                  0.00006     2.28690   
  1585. RY*(   4) H  73                  0.00002     2.15032   
  1586. RY*(   5) H  73                  0.00000     2.79900   
  1587. RY*(   1) H  74                  0.00034     1.71749   
  1588. RY*(   2) H  74                  0.00008     2.62240   
  1589. RY*(   3) H  74                  0.00005     2.27204   
  1590. RY*(   4) H  74                  0.00003     1.37739   
  1591. RY*(   5) H  74                  0.00000     2.79832   
  1592. RY*(   1) H  75                  0.00040     1.51059   
  1593. RY*(   2) H  75                  0.00008     2.64067   
  1594. RY*(   3) H  75                  0.00005     1.34379   
  1595. RY*(   4) H  75                  0.00006     2.39175   
  1596. RY*(   5) H  75                  0.00000     2.91425   
  1597. RY*(   1) H  76                  0.00029     1.02872   
  1598. RY*(   2) H  76                  0.00009     1.70269   
  1599. RY*(   3) H  76                  0.00003     1.99222   
  1600. RY*(   4) H  76                  0.00004     2.00603   
  1601. RY*(   5) H  76                  0.00000     2.80251   
  1602. RY*(   1) H  77                  0.00039     1.19432   
  1603. RY*(   2) H  77                  0.00010     1.91414   
  1604. RY*(   3) H  77                  0.00007     2.40332   
  1605. RY*(   4) H  77                  0.00004     2.10496   
  1606. RY*(   5) H  77                  0.00000     2.64344   
  1607. RY*(   1) H  78                  0.00029     1.05533   
  1608. RY*(   2) H  78                  0.00009     1.74326   
  1609. RY*(   3) H  78                  0.00005     1.96737   
  1610. RY*(   4) H  78                  0.00002     2.13134   
  1611. RY*(   5) H  78                  0.00001     2.61810   
  1612. RY*(   1) H  79                  0.00042     1.15084   
  1613. RY*(   2) H  79                  0.00010     1.81428   
  1614. RY*(   3) H  79                  0.00005     2.37408   
  1615. RY*(   4) H  79                  0.00004     1.87066   
  1616. RY*(   5) H  79                  0.00001     2.94806   
  1617. RY*(   1) H  80                  0.00028     1.60932   
  1618. RY*(   2) H  80                  0.00010     1.46571   
  1619. RY*(   3) H  80                  0.00004     2.28325   
  1620. RY*(   4) H  80                  0.00003     2.06888   
  1621. RY*(   5) H  80                  0.00000     2.93042   
  1622. RY*(   1) H  81                  0.00029     1.36008   
  1623. RY*(   2) H  81                  0.00008     1.47783   
  1624. RY*(   3) H  81                  0.00007     2.56362   
  1625. RY*(   4) H  81                  0.00004     2.08451   
  1626. RY*(   5) H  81                  0.00001     2.65012   
  1627. RY*(   1) H  82                  0.00019     1.32268   
  1628. RY*(   2) H  82                  0.00005     1.55353   
  1629. RY*(   3) H  82                  0.00003     1.98151   
  1630. RY*(   4) H  82                  0.00003     2.02184   
  1631. RY*(   5) H  82                  0.00000     2.49777   
  1632. RY*(   1) H  83                  0.00029     1.22536   
  1633. RY*(   2) H  83                  0.00006     1.84376   
  1634. RY*(   3) H  83                  0.00003     1.57594   
  1635. RY*(   4) H  83                  0.00003     2.08086   
  1636. RY*(   5) H  83                  0.00001     2.76492   
  1637. RY*(   1) H  84                  0.00032     1.17140   
  1638. RY*(   2) H  84                  0.00009     1.47930   
  1639. RY*(   3) H  84                  0.00005     2.22563   
  1640. RY*(   4) H  84                  0.00003     1.92324   
  1641. RY*(   5) H  84                  0.00000     2.92652   
  1642. RY*(   1) H  85                  0.00035     1.17210   
  1643. RY*(   2) H  85                  0.00010     1.41046   
  1644. RY*(   3) H  85                  0.00008     2.20321   
  1645. RY*(   4) H  85                  0.00004     2.04760   
  1646. RY*(   5) H  85                  0.00001     2.90779   
  1647. RY*(   1) H  86                  0.00026     1.34452   
  1648. RY*(   2) H  86                  0.00009     1.70533   
  1649. RY*(   3) H  86                  0.00004     2.81423   
  1650. RY*(   4) H  86                  0.00003     2.02529   
  1651. RY*(   5) H  86                  0.00001     1.93142   
  1652. RY*(   1) H  87                  0.00027     1.00233   
  1653. RY*(   2) H  87                  0.00007     1.85358   
  1654. RY*(   3) H  87                  0.00005     2.03615   
  1655. RY*(   4) H  87                  0.00002     2.22820   
  1656. RY*(   5) H  87                  0.00001     2.98130   
  1657. RY*(   1) H  88                  0.00026     1.01307   
  1658. RY*(   2) H  88                  0.00007     1.86341   
  1659. RY*(   3) H  88                  0.00005     1.99847   
  1660. RY*(   4) H  88                  0.00002     2.47706   
  1661. RY*(   5) H  88                  0.00001     2.74818   
  1662. RY*(   1) H  89                  0.00072     1.43022   
  1663. RY*(   2) H  89                  0.00008     2.22506   
  1664. RY*(   3) H  89                  0.00006     2.40528   
  1665. RY*(   4) H  89                  0.00003     3.24273   
  1666. RY*(   5) H  89                  0.00001     2.15465   
  1667. RY*(   1) H  90                  0.00034     1.67705   
  1668. RY*(   2) H  90                  0.00008     2.59695   
  1669. RY*(   3) H  90                  0.00005     1.81064   
  1670. RY*(   4) H  90                  0.00003     2.00699   
  1671. RY*(   5) H  90                  0.00000     2.72383   
  1672. RY*(   1) H  91                  0.00035     1.66927   
  1673. RY*(   2) H  91                  0.00008     2.59113   
  1674. RY*(   3) H  91                  0.00004     2.24520   
  1675. RY*(   4) H  91                  0.00004     1.53819   
  1676. RY*(   5) H  91                  0.00000     2.73877   
  1691. BD*(   1) C   8 - C  13          0.01001     0.45173   
  1692. BD*(   2) C   8 - C  13          0.20539    -0.06876  1711(v),187(v),1696(r)
                                                    375(g),507(g),177(r),172(r)
  1693. BD*(   1) C   8 - C  41          0.00990     0.46888   
  1694. BD*(   1) C   8 - H  56          0.00654     0.34107   
  1695. BD*(   1) C   9 - C  16          0.00942     0.45010   
  1696. BD*(   2) C   9 - C  16          0.20060    -0.06676  1729(v),1711(v),402(g)
                                                    1700(r),1692(r),587(g)
                                                    177(r)
  1697. BD*(   1) C   9 - C  24          0.00953     0.45049   
  1698. BD*(   1) C   9 - H  59          0.00588     0.34111   
  1699. BD*(   1) C  10 - C  27          0.00968     0.47066   
  1700. BD*(   2) C  10 - C  27          0.19655    -0.06426  1741(v),1733(v),1729(v)
                                                    1696(r),428(g),871(g),873(g)
                                                    1704(r),177(r)
  1701. BD*(   1) C  10 - C  30          0.00999     0.46006   
  1702. BD*(   1) C  10 - H  58          0.00703     0.34202   
  1703. BD*(   1) C  11 - C  33          0.00920     0.48199   
  1704. BD*(   2) C  11 - C  33          0.18652    -0.05874  1759(v),1745(v),1741(v)
                                                    1029(g),453(g),454(g)
                                                    1700(r),177(r)
  1705. BD*(   1) C  11 - C  38          0.00976     0.44756   
  1706. BD*(   1) C  11 - H  57          0.00581     0.34258   
  1707. BD*(   1) N  12 - C  13          0.01365     0.35612   
  1708. BD*(   1) N  12 - C  16          0.01326     0.35998   
  1709. BD*(   1) C  13 - C  14          0.01667     0.38285   
  1710. BD*(   1) C  14 - C  15          0.00982     0.51713   
  1711. BD*(   2) C  14 - C  15          0.11749    -0.03022  1696(v),1692(v),1718(v)
                                                    1717(v),1715(v)
  1712. BD*(   1) C  14 - C  18          0.01185     0.27883   
  1713. BD*(   1) C  15 - C  16          0.01698     0.37930   
  1714. BD*(   1) C  15 - C  17          0.00825     0.29650   
  1715. BD*(   1) C  17 - H  60          0.00366     0.32314   
  1716. BD*(   1) C  17 - H  61          0.00237     0.32588   
  1717. BD*(   1) C  17 - H  62          0.00408     0.32195   
  1718. BD*(   1) C  18 - C  19          0.00700     0.26453   
  1719. BD*(   1) C  18 - H  74          0.00646     0.32461   
  1720. BD*(   1) C  18 - H  75          0.00653     0.32314   
  1721. BD*(   1) C  19 - C  20          0.03182     0.26588   
  1722. BD*(   1) C  19 - H  72          0.00453     0.32133   
  1723. BD*(   1) C  19 - H  73          0.00660     0.30552   
  1724. BD*(   1) C  20 - O  21          0.01598     0.46928   
  1725. BD*(   2) C  20 - O  21          0.10856    -0.07353  1723(v),1718(v),689(g)
                                                    1727(v)
  1726. BD*(   1) C  20 - O  22          0.03649     0.39080   
  1727. BD*(   1) O  22 - H  71          0.00629     0.31639   
  1728. BD*(   1) N  23 - C  24          0.01288     0.36599   
  1729. BD*(   2) N  23 - C  24          0.32722    -0.11465  1696(v),1700(v),1733(v)
                                                    793(g),1759(r),177(r),402(v)
                                                    171(r),173(r),176(r),172(r)
                                                    175(r)
  1730. BD*(   1) N  23 - C  27          0.01317     0.36682   
  1731. BD*(   1) C  24 - C  25          0.01718     0.36944   
  1732. BD*(   1) C  25 - C  26          0.00906     0.52317   
  1733. BD*(   2) C  25 - C  26          0.10724    -0.02737  1700(v),1729(v),1781(v)
                                                    1739(v),1737(v)
  1734. BD*(   1) C  25 - C  28          0.00869     0.27192   
  1735. BD*(   1) C  26 - C  27          0.01757     0.36730   
  1736. BD*(   1) C  26 - C  48          0.01185     0.27029   
  1737. BD*(   1) C  28 - H  76          0.00394     0.32338   
  1738. BD*(   1) C  28 - H  77          0.01416     0.39404   
  1739. BD*(   1) C  28 - H  78          0.00360     0.31774   
  1740. BD*(   1) N  29 - C  30          0.01322     0.36034   
  1741. BD*(   2) N  29 - C  30          0.32682    -0.11525  1700(v),1745(v),1704(v)
                                                    949(g),922(g),177(r),176(r)
                                                    174(r),172(r),1687(r)
  1742. BD*(   1) N  29 - C  33          0.01423     0.34527   
  1743. BD*(   1) C  30 - C  31          0.01616     0.38259   
  1744. BD*(   1) C  31 - C  32          0.00951     0.50994   
  1745. BD*(   2) C  31 - C  32          0.11155    -0.02980  1704(v),1741(v),1749(v)
                                                    1754(v),1750(v),1001(g)
                                                    1753(v)
  1746. BD*(   1) C  31 - C  34          0.00980     0.26668   
  1747. BD*(   1) C  32 - C  33          0.01604     0.37262   
  1748. BD*(   1) C  32 - C  35          0.01434     0.29410   
  1749. BD*(   1) C  34 - H  84          0.00458     0.30774   
  1750. BD*(   1) C  34 - H  85          0.00359     0.30528   
  1751. BD*(   1) C  34 - H  86          0.00918     0.34758   
  1752. BD*(   1) C  35 - C  36          0.00404     0.49690   
  1753. BD*(   1) C  35 - H  90          0.00894     0.33316   
  1754. BD*(   1) C  35 - H  91          0.00933     0.33183   
  1755. BD*(   1) C  36 - H  87          0.00494     0.33474   
  1756. BD*(   1) C  36 - H  88          0.00475     0.33345   
  1757. BD*(   1) C  36 - H  89          0.01844     0.41293   
  1758. BD*(   1) N  37 - C  38          0.01309     0.36831   
  1759. BD*(   2) N  37 - C  38          0.32207    -0.11431  1704(v),1763(v),187(v)
                                                    1157(g),1729(r),177(r)
                                                    1130(g),172(r),176(r),174(r)
  1760. BD*(   1) N  37 - C  41          0.01364     0.36831   
  1761. BD*(   1) C  38 - C  39          0.01688     0.36988   
  1762. BD*(   1) C  39 - C  40          0.00961     0.53232   
  1763. BD*(   2) C  39 - C  40          0.11086    -0.02648  1759(v),187(v),1770(v)
                                                    1769(v),1772(v),1768(v)
  1764. BD*(   1) C  39 - C  42          0.00852     0.26905   
  1765. BD*(   1) C  40 - C  41          0.01750     0.37754   
  1766. BD*(   1) C  40 - C  43          0.01355     0.29142   
  1767. BD*(   1) C  42 - H  63          0.00200     0.33487   
  1768. BD*(   1) C  42 - H  64          0.00335     0.32443   
  1769. BD*(   1) C  42 - H  65          0.00336     0.32518   
  1770. BD*(   1) C  43 - C  44          0.00682     0.26594   
  1771. BD*(   1) C  43 - H  66          0.00628     0.32203   
  1772. BD*(   1) C  43 - H  67          0.00774     0.32760   
  1773. BD*(   1) C  44 - C  45          0.03529     0.25837   
  1774. BD*(   1) C  44 - H  68          0.00663     0.31631   
  1775. BD*(   1) C  44 - H  69          0.00510     0.32491   
  1776. BD*(   1) C  45 - O  46          0.03631     0.41044   
  1777. BD*(   1) C  45 - O  47          0.01928     0.48122   
  1778. BD*(   2) C  45 - O  47          0.09293    -0.06955   
  1779. BD*(   1) O  46 - H  70          0.00649     0.31121   
  1780. BD*(   1) C  48 - C  49          0.00248     0.26169   
  1781. BD*(   1) C  48 - H  79          0.00752     0.31918   
  1782. BD*(   1) C  48 - H  80          0.00553     0.31646   
  1783. BD*(   1) C  49 - H  81          0.00963     0.37170   
  1784. BD*(   1) C  49 - H  82          0.00376     0.34191   
  1785. BD*(   1) C  49 - H  83          0.00370     0.32193   
       -------------------------------
              Total Lewis  146.64826  ( 97.6287%)
        Valence non-Lewis    3.27611  (  2.1810%)
        Rydberg non-Lewis    0.28577  (  0.1902%)
       -------------------------------
            Total unit  3  150.21013  (100.0000%)
           Charge unit  3   -0.21013
 1\1\GINC-NODE380\SP\UPBE1PBE\def2TZVP\C38H42Fe1N6O4(1+,2)\ZHARTOVSKA\0
 5-Sep-2022\0\\# PBE1PBE/def2TZVP empiricaldispersion=GD3BJ scf=maxcycl
 e=999 geom=check pop=nbo\\2gsm_III_D\\1,2\C,0,-5.474,-37.528,20.323\C,
 0,-5.651,-36.312,21.197001\N,0,-6.76,-36.129002,21.996\C,0,-4.88,-35.2
 06001,21.370001\C,0,-6.668,-34.964001,22.622\N,0,-5.531,-34.386002,22.
 267\Fe,0,-4.52,-32.644001,22.892\C,0,-1.505,-33.622002,21.511999\C,0,-
 3.669,-34.209,25.865999\C,0,-7.35,-31.365,24.419001\C,0,-5.164,-30.729
 ,20.121\N,0,-2.873,-33.743,23.577\C,0,-1.717,-33.959,22.844\C,0,-0.784
 ,-34.632,23.719999\C,0,-1.369,-34.789001,24.924999\C,0,-2.709,-34.2400
 02,24.858\C,0,-0.713,-35.43,26.132\C,0,0.641,-35.077999,23.351\C,0,0.6
 14,-36.492001,22.771999\C,0,1.968,-36.821999,22.18\O,0,2.509,-37.91099
 9,22.504999\O,0,2.522,-36.009998,21.382\N,0,-5.361,-32.737,24.851999\C
 ,0,-4.884,-33.529999,25.874001\C,0,-5.891,-33.502998,26.929001\C,0,-6.
 902,-32.712002,26.533001\C,0,-6.587,-32.209999,25.195999\C,0,-5.815,-3
 4.251999,28.274\N,0,-5.992,-31.296,22.363001\C,0,-7.062,-30.905001,23.
 145\C,0,-7.835,-29.938999,22.396\C,0,-7.245,-29.76,21.193001\C,0,-6.06
 6,-30.617001,21.146999\C,0,-9.098,-29.238001,22.921\C,0,-7.702,-28.816
 999,20.072001\C,0,-8.75969665,-28.08576393,20.49994972\N,0,-3.508,-32.
 266998,21.104\C,0,-3.943,-31.403999,20.125\C,0,-2.906,-31.361,19.10199
 9\C,0,-1.903,-32.160999,19.488001\C,0,-2.265,-32.749001,20.766001\C,0,
 -2.973,-30.514999,17.811001\C,0,-0.603,-32.486,18.752001\C,0,0.463,-31
 .393999,18.716999\C,0,1.5,-31.948999,17.750999\O,0,2.4,-32.716,18.1779
 99\O,0,1.407,-31.631001,16.547001\C,0,-8.129,-32.311001,27.386999\C,0,
 -8.57108656,-33.51064774,28.24549022\H,0,-4.56452282,-38.0267336,20.58
 570906\H,0,-6.29974669,-38.19327544,20.46600697\H,0,-5.43213475,-37.22
 684082,19.29710992\H,0,-7.51713514,-36.77562007,22.08890559\H,0,-7.390
 4874,-34.55928526,23.29958182\H,0,-3.9407778,-35.00818999,20.89710306\
 H,0,-0.67412167,-34.08387267,21.02086084\H,0,-5.42815395,-30.23976443,
 19.20679475\H,0,-8.26923448,-31.02597678,24.84908381\H,0,-3.44477242,-
 34.77809616,26.74392357\H,0,0.2289573,-34.9580119,26.3186646\H,0,-1.34
 627267,-35.31265441,26.9864564\H,0,-0.55865769,-36.47177242,25.9428210
 5\H,0,-2.11563814,-30.72081274,17.20480685\H,0,-3.86129698,-30.7623455
 8,17.26818598\H,0,-2.98846756,-29.47591759,18.06589426\H,0,-0.17247032
 ,-33.35104379,19.21161327\H,0,-0.85094826,-32.7358406,17.74155489\H,0,
 0.88966186,-31.25193368,19.6879146\H,0,0.05301022,-30.47823941,18.3452
 5614\H,0,3.32412137,-32.48883142,18.05153113\H,0,3.47960041,-35.961616
 81,21.33445302\H,0,0.38460747,-37.1910653,23.54890838\H,0,-0.13291057,
 -36.55023353,22.00803985\H,0,1.25467458,-35.06533955,24.22743781\H,0,1
 .04628101,-34.40501289,22.62454491\H,0,-4.92482514,-33.96367767,28.792
 99859\H,0,-6.67000253,-34.00559394,28.86826865\H,0,-5.79741384,-35.306
 67488,28.09441851\H,0,-7.86741933,-31.49289726,28.025107\H,0,-8.931653
 72,-32.01836805,26.742784\H,0,-7.83659535,-33.69890175,29.00046247\H,0
 ,-9.5103538,-33.29099325,28.70855498\H,0,-8.67347458,-34.37556899,27.6
 2393739\H,0,-8.89326064,-28.1983192,23.06947067\H,0,-9.88892916,-29.34
 760068,22.20873672\H,0,-9.3910949,-29.68005715,23.85029099\H,0,-8.4918
 6734,-27.05005339,20.52165552\H,0,-9.58426318,-28.22702938,19.83284095
 \H,0,-9.03806526,-28.40286138,21.48324018\H,0,-6.89869522,-28.16142405
 ,19.80776074\H,0,-7.98885959,-29.39237827,19.21669388\\Version=ES64L-G
 16RevA.03\State=2-A\HF=-3364.4976067\S2=1.327339\S2-1=0.\S2A=0.777982\
 RMSD=1.711e-09\Dipole=-2.7940578,-0.5117279,1.1128258\Quadrupole=32.64
 62576,-17.9750857,-14.6711719,10.5713745,-8.6463736,-3.1600582\PG=C01 
 [X(C38H42Fe1N6O4)]\\@


 THE FIRST MORNING OF CREATION WROTE WHAT THE LAST DAWN OF
 RECKONING SHALL READ. -- OMAR KHAYYAM
 Job cpu time:      20 days 22 hours 54 minutes 57.5 seconds.
 Elapsed time:       5 days  6 hours 27 minutes 52.8 seconds.
 File lengths (MBytes):  RWF=   2927 Int=      0 D2E=      0 Chk=    245 Scr=      1
 Normal termination of Gaussian 16 at Mon Sep  5 19:18:51 2022.
