 Entering Gaussian System, Link 0=g16
 Input=/net/homes/chemie/zhartovska/work/BioModel/Konrad/1fj0/1fj012/1fj016/1fj016.com
 Output=/net/homes/chemie/zhartovska/work/BioModel/Konrad/1fj0/1fj012/1fj016/1fj016.log
 Initial command:
 /afs/math/software/gaussian/g16.A03/g16/l1.exe "/scratch/zhartovska_gaussian.oensWhy/Gau-9145.inp" -scrdir="/scratch/zhartovska_gaussian.oensWhy/"
 Entering Link 1 = /afs/math/software/gaussian/g16.A03/g16/l1.exe PID=      9146.
  
 Copyright (c) 1988,1990,1992,1993,1995,1998,2003,2009,2016,
            Gaussian, Inc.  All Rights Reserved.
  
 This is part of the Gaussian(R) 16 program.  It is based on
 the Gaussian(R) 09 system (copyright 2009, Gaussian, Inc.),
 the Gaussian(R) 03 system (copyright 2003, Gaussian, Inc.),
 the Gaussian(R) 98 system (copyright 1998, Gaussian, Inc.),
 the Gaussian(R) 94 system (copyright 1995, Gaussian, Inc.),
 the Gaussian 92(TM) system (copyright 1992, Gaussian, Inc.),
 the Gaussian 90(TM) system (copyright 1990, Gaussian, Inc.),
 the Gaussian 88(TM) system (copyright 1988, Gaussian, Inc.),
 the Gaussian 86(TM) system (copyright 1986, Carnegie Mellon
 University), and the Gaussian 82(TM) system (copyright 1983,
 Carnegie Mellon University). Gaussian is a federally registered
 trademark of Gaussian, Inc.
  
 This software contains proprietary and confidential information,
 including trade secrets, belonging to Gaussian, Inc.
  
 This software is provided under written license and may be
 used, copied, transmitted, or stored only in accord with that
 written license.
  
 The following legend is applicable only to US Government
 contracts under FAR:
  
                    RESTRICTED RIGHTS LEGEND
  
 Use, reproduction and disclosure by the US Government is
 subject to restrictions as set forth in subparagraphs (a)
 and (c) of the Commercial Computer Software - Restricted
 Rights clause in FAR 52.227-19.
  
 Gaussian, Inc.
 340 Quinnipiac St., Bldg. 40, Wallingford CT 06492
  
  
 ---------------------------------------------------------------
 Warning -- This program may not be used in any manner that
 competes with the business of Gaussian, Inc. or will provide
 assistance to any competitor of Gaussian, Inc.  The licensee
 of this program is prohibited from giving any competitor of
 Gaussian, Inc. access to this program.  By using this program,
 the user acknowledges that Gaussian, Inc. is engaged in the
 business of creating and licensing software in the field of
 computational chemistry and represents and warrants to the
 licensee that it is not a competitor of Gaussian, Inc. and that
 it will not use this program in any manner prohibited above.
 ---------------------------------------------------------------
  

 Cite this work as:
 Gaussian 16, Revision A.03,
 M. J. Frisch, G. W. Trucks, H. B. Schlegel, G. E. Scuseria, 
 M. A. Robb, J. R. Cheeseman, G. Scalmani, V. Barone, 
 G. A. Petersson, H. Nakatsuji, X. Li, M. Caricato, A. V. Marenich, 
 J. Bloino, B. G. Janesko, R. Gomperts, B. Mennucci, H. P. Hratchian, 
 J. V. Ortiz, A. F. Izmaylov, J. L. Sonnenberg, D. Williams-Young, 
 F. Ding, F. Lipparini, F. Egidi, J. Goings, B. Peng, A. Petrone, 
 T. Henderson, D. Ranasinghe, V. G. Zakrzewski, J. Gao, N. Rega, 
 G. Zheng, W. Liang, M. Hada, M. Ehara, K. Toyota, R. Fukuda, 
 J. Hasegawa, M. Ishida, T. Nakajima, Y. Honda, O. Kitao, H. Nakai, 
 T. Vreven, K. Throssell, J. A. Montgomery, Jr., J. E. Peralta, 
 F. Ogliaro, M. J. Bearpark, J. J. Heyd, E. N. Brothers, K. N. Kudin, 
 V. N. Staroverov, T. A. Keith, R. Kobayashi, J. Normand, 
 K. Raghavachari, A. P. Rendell, J. C. Burant, S. S. Iyengar, 
 J. Tomasi, M. Cossi, J. M. Millam, M. Klene, C. Adamo, R. Cammi, 
 J. W. Ochterski, R. L. Martin, K. Morokuma, O. Farkas, 
 J. B. Foresman, and D. J. Fox, Gaussian, Inc., Wallingford CT, 2016.
 
 ******************************************
 Gaussian 16:  ES64L-G16RevA.03 25-Dec-2016
                10-Nov-2022 
 ******************************************
 %nprocs=12
 Will use up to   12 processors via shared memory.
 %mem=16GB
 %oldchk=1fj0_III_D.chk
 %chk=1fj0_III_H.chk
 Copying data from "1fj0_III_D.chk" to current chk file "1fj0_III_H.chk"
 IOpt=  2 FromEx=T IUOpen= 4 IOptOp= 5 NList=   0 IFRang= 0 IUIn= 4 IUOut= 2.
 ----------------------------------------------------------------------
 # PBE1PBE/def2TZVP empiricaldispersion=GD3BJ scf=maxcycle=999 geom=che
 ck pop=nbo
 ----------------------------------------------------------------------
 1/29=2,38=1,172=1/1;
 2/12=2,40=1/2;
 3/5=44,7=101,11=2,14=-4,25=1,30=1,74=-13,124=41/1,2,3;
 4//1;
 5/5=2,7=999,38=5/2;
 6/7=2,8=2,9=2,10=2,28=1,40=1/1,7;
 99/5=1,9=1/99;
 ----------
 1fj0_III_H
 ----------
 Structure from the checkpoint file:  "1fj0_III_H.chk"
 Charge =  1 Multiplicity = 6
 Z-Matrix found in chk file.
 C,0,15.934,20.177,30.131001
 C,0,16.115,21.657,30.191999
 N,0,16.947001,22.33,29.302999
 C,0,15.617,22.582001,31.054001
 C,0,16.933001,23.622999,29.613001
 N,0,16.153999,23.806999,30.663
 C,0,14.555,29.431999,30.641001
 C,0,14.215,28.549,31.85
 S,0,15.699,27.711,32.465
 C,0,15.3,27.622,34.210999
 Fe,0,15.897,25.57,31.547001
 C,0,18.000999,27.209999,29.415001
 C,0,18.561001,24.83,33.604
 C,0,13.77,24.263,33.856998
 C,0,13.31,26.013,29.374001
 N,0,17.872999,25.941999,31.503
 C,0,18.562,26.684,30.549
 C,0,19.93,26.797001,30.959999
 C,0,20.084,26.124001,32.108002
 C,0,18.796,25.594999,32.477001
 C,0,21.358999,25.962999,32.964001
 C,0,21.023001,27.518,30.122999
 C,0,21.716,26.427,29.271999
 C,0,22.688999,26.872,28.216
 O,0,23.075001,28.059,28.25
 O,0,23.065001,25.997,27.388
 N,0,16.115999,24.733999,33.360001
 C,0,17.304001,24.417,33.992001
 C,0,17.028,23.628,35.178001
 C,0,15.701,23.475,35.266998
 C,0,15.123,24.188,34.151001
 C,0,18.127001,23.066,36.105
 C,0,14.898,22.759001,36.361
 C,0,15.268,23.4,37.712002
 N,0,13.924,25.243999,31.603001
 C,0,13.238,24.66,32.659
 C,0,11.853,24.535,32.280998
 C,0,11.7,25.035999,31.052999
 C,0,13.011,25.465,30.599001
 C,0,10.798,23.896999,33.241001
 C,0,10.445,25.052999,30.163
 C,0,9.14619722,25.70251289,30.67568219
 N,0,15.688,26.421,29.743
 C,0,14.552,26.500999,28.993999
 C,0,14.829,27.198999,27.752001
 C,0,16.121,27.521999,27.768
 C,0,16.691,27.059,29.023001
 C,0,13.737,27.441,26.679001
 C,0,16.93,28.34,26.719
 C,0,17.031,29.812,27.238001
 C,0,17.254,30.886,26.209
 O,0,17.643,30.521999,25.101999
 O,0,17.030001,32.084999,26.584999
 H,0,10.47466351,24.6135355,29.18786313
 H,0,9.31482261,26.74381336,30.855011
 H,0,8.37596187,25.58710114,29.94198086
 H,0,8.84539224,25.22790981,31.58626897
 H,0,11.20165735,23.84498048,34.23057405
 H,0,9.91272659,24.49794935,33.24804882
 H,0,10.55719197,22.91118823,32.90175386
 H,0,13.08417798,23.98768893,34.63078865
 H,0,16.20174369,23.91417297,37.61900261
 H,0,14.50559153,24.09407471,37.99817263
 H,0,15.35366761,22.63699166,38.45723977
 H,0,14.20483213,21.95759908,36.21209308
 H,0,18.99444377,23.68992737,36.0488068
 H,0,17.76740293,23.04502748,37.11254622
 H,0,18.38092335,22.07349767,35.79619171
 H,0,19.39766152,24.54354314,34.20636337
 H,0,22.14631776,26.55486619,32.54600291
 H,0,21.16069189,26.2881752,33.96391836
 H,0,21.65350482,24.9343884,32.97525088
 H,0,18.63741512,27.78879721,28.77870928
 H,0,14.10571686,27.14006506,25.7206764
 H,0,12.8657134,26.86922335,26.92155227
 H,0,13.48571513,28.4807753,26.65403624
 H,0,12.51989607,26.06763568,28.65452152
 H,0,17.91040308,27.9247218,26.61291598
 H,0,16.42419225,28.32168017,25.77627899
 H,0,16.12430676,30.03942444,27.75865972
 H,0,17.83694744,29.85786462,27.94031515
 H,0,17.76424475,32.67511745,26.77005666
 H,0,24.01404764,28.25839605,28.25571143
 H,0,22.23827243,25.77576431,29.94134464
 H,0,20.95037625,25.85671343,28.78878736
 H,0,21.73454042,27.98383218,30.77231559
 H,0,20.57330346,28.2501212,29.48529164
 H,0,16.0723902,28.09815093,34.77809129
 H,0,14.36888965,28.11794295,34.38981202
 H,0,15.22063992,26.5968005,34.50691786
 H,0,15.48594607,29.11569094,30.21887705
 H,0,13.78203127,29.34392174,29.90638427
 H,0,14.63398867,30.45179829,30.95511913
 H,0,13.80634208,29.15896648,32.62835698
 H,0,13.49129965,27.81645534,31.55924905
 H,0,14.94701096,22.40520692,31.86932826
 H,0,17.46750252,24.39135381,29.09450413
 H,0,17.46698192,21.91249201,28.55780982
 H,0,16.75794053,19.69661917,30.61603323
 H,0,15.02353828,19.90837218,30.6247606
 H,0,15.8907394,19.86480945,29.10847199
 Recover connectivity data from disk.
 Stoichiometry    C41H48FeN6O4S(1+,6)
 Framework group  C1[X(C41H48FeN6O4S)]
 Deg. of freedom   297
 Full point group                 C1      NOp   1
 Largest Abelian subgroup         C1      NOp   1
 Largest concise Abelian subgroup C1      NOp   1
                         Standard orientation:                         
 ---------------------------------------------------------------------
 Center     Atomic      Atomic             Coordinates (Angstroms)
 Number     Number       Type             X           Y           Z
 ---------------------------------------------------------------------
      1          6           0        2.539931   -1.278184    5.085850
      2          6           0        1.743601   -0.939978    3.869973
      3          7           0        0.352443   -0.941403    3.882255
      4          6           0        2.133309   -0.639332    2.603317
      5          6           0       -0.077681   -0.632783    2.662464
      6          7           0        0.963003   -0.455113    1.869615
      7          6           0       -0.859115    2.787809   -2.642729
      8          6           0        0.544383    2.166189   -2.670075
      9         16           0        0.459986    0.386385   -2.341597
     10          6           0        1.849296   -0.173942   -3.327237
     11         26           0        0.811159   -0.067953   -0.075309
     12          6           0       -2.602792   -0.149521   -0.064561
     13          6           0        0.888636   -3.461654   -0.669057
     14          6           0        4.188172    0.060896   -0.459554
     15          6           0        0.760016    3.217479    0.826950
     16          7           0       -0.579282   -1.502263   -0.308370
     17          6           0       -1.960176   -1.333465   -0.314903
     18          6           0       -2.571809   -2.591331   -0.626017
     19          6           0       -1.605098   -3.506648   -0.775083
     20          6           0       -0.342203   -2.836626   -0.598694
     21          6           0       -1.744385   -5.001413   -1.136408
     22          6           0       -4.109400   -2.810727   -0.678349
     23          6           0       -4.527023   -3.330651    0.718075
     24          6           0       -5.996295   -3.442938    1.015596
     25          8           0       -6.788232   -3.357567    0.053999
     26          8           0       -6.316155   -3.644956    2.219533
     27          7           0        2.240884   -1.415431   -0.492459
     28          6           0        2.088096   -2.785525   -0.596191
     29          6           0        3.392625   -3.414696   -0.683610
     30          6           0        4.316536   -2.446832   -0.640186
     31          6           0        3.603636   -1.193190   -0.550421
     32          6           0        3.600413   -4.941865   -0.770519
     33          6           0        5.841517   -2.583307   -0.740735
     34          6           0        6.162599   -3.315116   -2.057681
     35          7           0        2.184827    1.374060    0.113843
     36          6           0        3.551012    1.208002   -0.067117
     37          6           0        4.199616    2.459289    0.233433
     38          6           0        3.266056    3.353099    0.568034
     39          6           0        1.984638    2.671320    0.523071
     40          6           0        5.751763    2.617138    0.146257
     41          6           0        3.442570    4.798450    1.065244
     42          6           0        4.224180    5.815760    0.213326
     43          7           0       -0.626196    1.272329    0.324640
     44          6           0       -0.462252    2.575486    0.689058
     45          6           0       -1.758196    3.199555    0.882864
     46          6           0       -2.678118    2.267607    0.639832
     47          6           0       -1.995077    1.039415    0.266610
     48          6           0       -1.905585    4.681215    1.313350
     49          6           0       -4.228242    2.412735    0.631944
     50          6           0       -4.682397    2.589499   -0.854275
     51          6           0       -5.995694    3.283586   -1.089952
     52          8           0       -6.751257    3.384018   -0.126466
     53          8           0       -6.212404    3.695924   -2.278297
     54          1           0        3.022254    5.096742    2.002931
     55          1           0        3.725768    5.954246   -0.723321
     56          1           0        4.275420    6.750407    0.731697
     57          1           0        5.214418    5.449458    0.039684
     58          1           0        6.163916    1.793946   -0.399074
     59          1           0        5.989632    3.531979   -0.355125
     60          1           0        6.164593    2.633577    1.133273
     61          1           0        5.223646    0.139000   -0.717613
     62          1           0        5.293551   -3.840458   -2.394834
     63          1           0        6.458395   -2.602323   -2.798851
     64          1           0        6.958874   -4.010882   -1.894114
     65          1           0        6.554580   -2.232773   -0.024099
     66          1           0        2.740386   -5.393897   -1.218761
     67          1           0        4.464435   -5.150940   -1.366046
     68          1           0        3.740444   -5.339308    0.213011
     69          1           0        0.911826   -4.524980   -0.786102
     70          1           0       -2.770292   -5.224279   -1.343161
     71          1           0       -1.151525   -5.216133   -2.000879
     72          1           0       -1.407860   -5.599632   -0.315564
     73          1           0       -3.670628   -0.149696   -0.132586
     74          1           0       -2.585720    4.747441    2.136716
     75          1           0       -0.950685    5.063741    1.607866
     76          1           0       -2.282099    5.255316    0.492652
     77          1           0        0.748615    4.220088    1.200509
     78          1           0       -4.676920    1.534149    1.046280
     79          1           0       -4.515140    3.270671    1.203377
     80          1           0       -3.922525    3.142157   -1.366195
     81          1           0       -4.740707    1.617374   -1.297527
     82          1           0       -6.823287    3.221620   -2.847031
     83          1           0       -7.443229   -4.044303   -0.090824
     84          1           0       -4.094466   -4.300888    0.846271
     85          1           0       -4.096243   -2.679250    1.449516
     86          1           0       -4.351233   -3.535776   -1.427162
     87          1           0       -4.604953   -1.886046   -0.888805
     88          1           0        1.513913   -0.904210   -4.033725
     89          1           0        2.275048    0.657692   -3.848792
     90          1           0        2.587917   -0.609649   -2.687317
     91          1           0       -1.527317    2.136952   -2.118524
     92          1           0       -0.820249    3.734570   -2.145703
     93          1           0       -1.207958    2.925150   -3.644899
     94          1           0        0.982435    2.326676   -3.633016
     95          1           0        1.151894    2.634088   -1.923817
     96          1           0        3.137283   -0.559983    2.241876
     97          1           0       -1.103063   -0.542826    2.370233
     98          1           0       -0.225573   -1.140588    4.673598
     99          1           0        2.591552   -2.341449    5.194030
    100          1           0        3.528644   -0.881372    4.986422
    101          1           0        2.070585   -0.854234    5.948915
 ---------------------------------------------------------------------
 Rotational constants (GHZ):           0.0645645           0.0444180           0.0335573
 Standard basis: def2TZVP (5D, 7F)
 There are  2218 symmetry adapted cartesian basis functions of A   symmetry.
 There are  1951 symmetry adapted basis functions of A   symmetry.
  1951 basis functions,  3156 primitive gaussians,  2218 cartesian basis functions
   207 alpha electrons      202 beta electrons
       nuclear repulsion energy      8950.5547870811 Hartrees.
 NAtoms=  101 NActive=  101 NUniq=  101 SFac= 1.00D+00 NAtFMM=   60 NAOKFM=T Big=T
 Integral buffers will be    131072 words long.
 Raffenetti 2 integral format.
 Two-electron integral symmetry is turned on.
 Nuclear repulsion after empirical dispersion term =     8950.4038909673 Hartrees.
 One-electron integrals computed using PRISM.
   1 Symmetry operations used in ECPInt.
 ECPInt:  NShTT=  305371 NPrTT=  941867 LenC2=  223486 LenP2D=  445847.
 LDataN:  DoStor=T MaxTD1= 6 Len=  172
 NBasis=  1951 RedAO= T EigKep=  2.88D-06  NBF=  1951
 NBsUse=  1951 1.00D-06 EigRej= -1.00D+00 NBFU=  1951
 ExpMin= 4.20D-02 ExpMax= 3.01D+05 ExpMxC= 2.91D+03 IAcc=3 IRadAn=         5 AccDes= 0.00D+00
 Harris functional with IExCor= 1009 and IRadAn=       5 diagonalized for initial guess.
 HarFok:  IExCor= 1009 AccDes= 0.00D+00 IRadAn=         5 IDoV= 1 UseB2=F ITyADJ=14
 ICtDFT=  3500011 ScaDFX=  1.000000  1.000000  1.000000  1.000000
 FoFCou: FMM=F IPFlag=           0 FMFlag=      100000 FMFlg1=        2001
         NFxFlg=           0 DoJE=T BraDBF=F KetDBF=T FulRan=T
         wScrn=  0.000000 ICntrl=       500 IOpCl=  0 I1Cent=   200000004 NGrid=           0
         NMat0=    1 NMatS0=      1 NMatT0=    0 NMatD0=    1 NMtDS0=    0 NMtDT0=    0
 Petite list used in FoFCou.
 Initial guess <Sx>= 0.0000 <Sy>= 0.0000 <Sz>= 2.5000 <S**2>= 8.7500 S= 2.5000
 Requested convergence on RMS density matrix=1.00D-08 within 999 cycles.
 Requested convergence on MAX density matrix=1.00D-06.
 Requested convergence on             energy=1.00D-06.
 No special actions if energy rises.
 EnCoef did   100 forward-backward iterations
 EnCoef did     2 forward-backward iterations
 Restarting incremental Fock formation.
 Restarting incremental Fock formation.
 Restarting incremental Fock formation.
 Restarting incremental Fock formation.
 Restarting incremental Fock formation.
 Restarting incremental Fock formation.
 Restarting incremental Fock formation.
 Restarting incremental Fock formation.
 Restarting incremental Fock formation.
 Restarting incremental Fock formation.
 SCF Done:  E(UPBE1PBE) =  -3880.38139272     A.U. after  201 cycles
            NFock=201  Conv=0.15D-08     -V/T= 2.0031
 <Sx>= 0.0000 <Sy>= 0.0000 <Sz>= 2.5000 <S**2>= 8.8313 S= 2.5135
 <L.S>= 0.000000000000E+00
 Annihilation of the first spin contaminant:
 S**2 before annihilation     8.8313,   after     8.7515
 Hyperfine terms turned off by default for NAtoms > 100.

 **********************************************************************

            Population analysis using the SCF density.

 **********************************************************************

 Orbital symmetries:
 Alpha Orbitals:
       Occupied  (A) (A) (A) (A) (A) (A) (A) (A) (A) (A) (A) (A)
                 (A) (A) (A) (A) (A) (A) (A) (A) (A) (A) (A) (A)
                 (A) (A) (A) (A) (A) (A) (A) (A) (A) (A) (A) (A)
                 (A) (A) (A) (A) (A) (A) (A) (A) (A) (A) (A) (A)
                 (A) (A) (A) (A) (A) (A) (A) (A) (A) (A) (A) (A)
                 (A) (A) (A) (A) (A) (A) (A) (A) (A) (A) (A) (A)
                 (A) (A) (A) (A) (A) (A) (A) (A) (A) (A) (A) (A)
                 (A) (A) (A) (A) (A) (A) (A) (A) (A) (A) (A) (A)
                 (A) (A) (A) (A) (A) (A) (A) (A) (A) (A) (A) (A)
                 (A) (A) (A) (A) (A) (A) (A) (A) (A) (A) (A) (A)
                 (A) (A) (A) (A) (A) (A) (A) (A) (A) (A) (A) (A)
                 (A) (A) (A) (A) (A) (A) (A) (A) (A) (A) (A) (A)
                 (A) (A) (A) (A) (A) (A) (A) (A) (A) (A) (A) (A)
                 (A) (A) (A) (A) (A) (A) (A) (A) (A) (A) (A) (A)
                 (A) (A) (A) (A) (A) (A) (A) (A) (A) (A) (A) (A)
                 (A) (A) (A) (A) (A) (A) (A) (A) (A) (A) (A) (A)
                 (A) (A) (A) (A) (A) (A) (A) (A) (A) (A) (A) (A)
                 (A) (A) (A)
       Virtual   (A) (A) (A) (A) (A) (A) (A) (A) (A) (A) (A) (A)
                 (A) (A) (A) (A) (A) (A) (A) (A) (A) (A) (A) (A)
                 (A) (A) (A) (A) (A) (A) (A) (A) (A) (A) (A) (A)
                 (A) (A) (A) (A) (A) (A) (A) (A) (A) (A) (A) (A)
                 (A) (A) (A) (A) (A) (A) (A) (A) (A) (A) (A) (A)
                 (A) (A) (A) (A) (A) (A) (A) (A) (A) (A) (A) (A)
                 (A) (A) (A) (A) (A) (A) (A) (A) (A) (A) (A) (A)
                 (A) (A) (A) (A) (A) (A) (A) (A) (A) (A) (A) (A)
                 (A) (A) (A) (A) (A) (A) (A) (A) (A) (A) (A) (A)
                 (A) (A) (A) (A) (A) (A) (A) (A) (A) (A) (A) (A)
                 (A) (A) (A) (A) (A) (A) (A) (A) (A) (A) (A) (A)
                 (A) (A) (A) (A) (A) (A) (A) (A) (A) (A) (A) (A)
                 (A) (A) (A) (A) (A) (A) (A) (A) (A) (A) (A) (A)
                 (A) (A) (A) (A) (A) (A) (A) (A) (A) (A) (A) (A)
                 (A) (A) (A) (A) (A) (A) (A) (A) (A) (A) (A) (A)
                 (A) (A) (A) (A) (A) (A) (A) (A) (A) (A) (A) (A)
                 (A) (A) (A) (A) (A) (A) (A) (A) (A) (A) (A) (A)
                 (A) (A) (A) (A) (A) (A) (A) (A) (A) (A) (A) (A)
                 (A) (A) (A) (A) (A) (A) (A) (A) (A) (A) (A) (A)
                 (A) (A) (A) (A) (A) (A) (A) (A) (A) (A) (A) (A)
                 (A) (A) (A) (A) (A) (A) (A) (A) (A) (A) (A) (A)
                 (A) (A) (A) (A) (A) (A) (A) (A) (A) (A) (A) (A)
                 (A) (A) (A) (A) (A) (A) (A) (A) (A) (A) (A) (A)
                 (A) (A) (A) (A) (A) (A) (A) (A) (A) (A) (A) (A)
                 (A) (A) (A) (A) (A) (A) (A) (A) (A) (A) (A) (A)
                 (A) (A) (A) (A) (A) (A) (A) (A) (A) (A) (A) (A)
                 (A) (A) (A) (A) (A) (A) (A) (A) (A) (A) (A) (A)
                 (A) (A) (A) (A) (A) (A) (A) (A) (A) (A) (A) (A)
                 (A) (A) (A) (A) (A) (A) (A) (A) (A) (A) (A) (A)
                 (A) (A) (A) (A) (A) (A) (A) (A) (A) (A) (A) (A)
                 (A) (A) (A) (A) (A) (A) (A) (A) (A) (A) (A) (A)
                 (A) (A) (A) (A) (A) (A) (A) (A) (A) (A) (A) (A)
                 (A) (A) (A) (A) (A) (A) (A) (A) (A) (A) (A) (A)
                 (A) (A) (A) (A) (A) (A) (A) (A) (A) (A) (A) (A)
                 (A) (A) (A) (A) (A) (A) (A) (A) (A) (A) (A) (A)
                 (A) (A) (A) (A) (A) (A) (A) (A) (A) (A) (A) (A)
                 (A) (A) (A) (A) (A) (A) (A) (A) (A) (A) (A) (A)
                 (A) (A) (A) (A) (A) (A) (A) (A) (A) (A) (A) (A)
                 (A) (A) (A) (A) (A) (A) (A) (A) (A) (A) (A) (A)
                 (A) (A) (A) (A) (A) (A) (A) (A) (A) (A) (A) (A)
                 (A) (A) (A) (A) (A) (A) (A) (A) (A) (A) (A) (A)
                 (A) (A) (A) (A) (A) (A) (A) (A) (A) (A) (A) (A)
                 (A) (A) (A) (A) (A) (A) (A) (A) (A) (A) (A) (A)
                 (A) (A) (A) (A) (A) (A) (A) (A) (A) (A) (A) (A)
                 (A) (A) (A) (A) (A) (A) (A) (A) (A) (A) (A) (A)
                 (A) (A) (A) (A) (A) (A) (A) (A) (A) (A) (A) (A)
                 (A) (A) (A) (A) (A) (A) (A) (A) (A) (A) (A) (A)
                 (A) (A) (A) (A) (A) (A) (A) (A) (A) (A) (A) (A)
                 (A) (A) (A) (A) (A) (A) (A) (A) (A) (A) (A) (A)
                 (A) (A) (A) (A) (A) (A) (A) (A) (A) (A) (A) (A)
                 (A) (A) (A) (A) (A) (A) (A) (A) (A) (A) (A) (A)
                 (A) (A) (A) (A) (A) (A) (A) (A) (A) (A) (A) (A)
                 (A) (A) (A) (A) (A) (A) (A) (A) (A) (A) (A) (A)
                 (A) (A) (A) (A) (A) (A) (A) (A) (A) (A) (A) (A)
                 (A) (A) (A) (A) (A) (A) (A) (A) (A) (A) (A) (A)
                 (A) (A) (A) (A) (A) (A) (A) (A) (A) (A) (A) (A)
                 (A) (A) (A) (A) (A) (A) (A) (A) (A) (A) (A) (A)
                 (A) (A) (A) (A) (A) (A) (A) (A) (A) (A) (A) (A)
                 (A) (A) (A) (A) (A) (A) (A) (A) (A) (A) (A) (A)
                 (A) (A) (A) (A) (A) (A) (A) (A) (A) (A) (A) (A)
                 (A) (A) (A) (A) (A) (A) (A) (A) (A) (A) (A) (A)
                 (A) (A) (A) (A) (A) (A) (A) (A) (A) (A) (A) (A)
                 (A) (A) (A) (A) (A) (A) (A) (A) (A) (A) (A) (A)
                 (A) (A) (A) (A) (A) (A) (A) (A) (A) (A) (A) (A)
                 (A) (A) (A) (A) (A) (A) (A) (A) (A) (A) (A) (A)
                 (A) (A) (A) (A) (A) (A) (A) (A) (A) (A) (A) (A)
                 (A) (A) (A) (A) (A) (A) (A) (A) (A) (A) (A) (A)
                 (A) (A) (A) (A) (A) (A) (A) (A) (A) (A) (A) (A)
                 (A) (A) (A) (A) (A) (A) (A) (A) (A) (A) (A) (A)
                 (A) (A) (A) (A) (A) (A) (A) (A) (A) (A) (A) (A)
                 (A) (A) (A) (A) (A) (A) (A) (A) (A) (A) (A) (A)
                 (A) (A) (A) (A) (A) (A) (A) (A) (A) (A) (A) (A)
                 (A) (A) (A) (A) (A) (A) (A) (A) (A) (A) (A) (A)
                 (A) (A) (A) (A) (A) (A) (A) (A) (A) (A) (A) (A)
                 (A) (A) (A) (A) (A) (A) (A) (A) (A) (A) (A) (A)
                 (A) (A) (A) (A) (A) (A) (A) (A) (A) (A) (A) (A)
                 (A) (A) (A) (A) (A) (A) (A) (A) (A) (A) (A) (A)
                 (A) (A) (A) (A) (A) (A) (A) (A) (A) (A) (A) (A)
                 (A) (A) (A) (A) (A) (A) (A) (A) (A) (A) (A) (A)
                 (A) (A) (A) (A) (A) (A) (A) (A) (A) (A) (A) (A)
                 (A) (A) (A) (A) (A) (A) (A) (A) (A) (A) (A) (A)
                 (A) (A) (A) (A) (A) (A) (A) (A) (A) (A) (A) (A)
                 (A) (A) (A) (A) (A) (A) (A) (A) (A) (A) (A) (A)
                 (A) (A) (A) (A) (A) (A) (A) (A) (A) (A) (A) (A)
                 (A) (A) (A) (A) (A) (A) (A) (A) (A) (A) (A) (A)
                 (A) (A) (A) (A) (A) (A) (A) (A) (A) (A) (A) (A)
                 (A) (A) (A) (A) (A) (A) (A) (A) (A) (A) (A) (A)
                 (A) (A) (A) (A) (A) (A) (A) (A) (A) (A) (A) (A)
                 (A) (A) (A) (A) (A) (A) (A) (A) (A) (A) (A) (A)
                 (A) (A) (A) (A) (A) (A) (A) (A) (A) (A) (A) (A)
                 (A) (A) (A) (A) (A) (A) (A) (A) (A) (A) (A) (A)
                 (A) (A) (A) (A) (A) (A) (A) (A) (A) (A) (A) (A)
                 (A) (A) (A) (A) (A) (A) (A) (A) (A) (A) (A) (A)
                 (A) (A) (A) (A) (A) (A) (A) (A) (A) (A) (A) (A)
                 (A) (A) (A) (A) (A) (A) (A) (A) (A) (A) (A) (A)
                 (A) (A) (A) (A) (A) (A) (A) (A) (A) (A) (A) (A)
                 (A) (A) (A) (A) (A) (A) (A) (A) (A) (A) (A) (A)
                 (A) (A) (A) (A) (A) (A) (A) (A) (A) (A) (A) (A)
                 (A) (A) (A) (A) (A) (A) (A) (A) (A) (A) (A) (A)
                 (A) (A) (A) (A) (A) (A) (A) (A) (A) (A) (A) (A)
                 (A) (A) (A) (A) (A) (A) (A) (A) (A) (A) (A) (A)
                 (A) (A) (A) (A) (A) (A) (A) (A) (A) (A) (A) (A)
                 (A) (A) (A) (A) (A) (A) (A) (A) (A) (A) (A) (A)
                 (A) (A) (A) (A) (A) (A) (A) (A) (A) (A) (A) (A)
                 (A) (A) (A) (A) (A) (A) (A) (A) (A) (A) (A) (A)
                 (A) (A) (A) (A) (A) (A) (A) (A) (A) (A) (A) (A)
                 (A) (A) (A) (A) (A) (A) (A) (A) (A) (A) (A) (A)
                 (A) (A) (A) (A) (A) (A) (A) (A) (A) (A) (A) (A)
                 (A) (A) (A) (A) (A) (A) (A) (A) (A) (A) (A) (A)
                 (A) (A) (A) (A) (A) (A) (A) (A) (A) (A) (A) (A)
                 (A) (A) (A) (A) (A) (A) (A) (A) (A) (A) (A) (A)
                 (A) (A) (A) (A) (A) (A) (A) (A) (A) (A) (A) (A)
                 (A) (A) (A) (A) (A) (A) (A) (A) (A) (A) (A) (A)
                 (A) (A) (A) (A) (A) (A) (A) (A) (A) (A) (A) (A)
                 (A) (A) (A) (A) (A) (A) (A) (A) (A) (A) (A) (A)
                 (A) (A) (A) (A) (A) (A) (A) (A) (A) (A) (A) (A)
                 (A) (A) (A) (A) (A) (A) (A) (A) (A) (A) (A) (A)
                 (A) (A) (A) (A) (A) (A) (A) (A) (A) (A) (A) (A)
                 (A) (A) (A) (A) (A) (A) (A) (A) (A) (A) (A) (A)
                 (A) (A) (A) (A) (A) (A) (A) (A) (A) (A) (A) (A)
                 (A) (A) (A) (A) (A) (A) (A) (A) (A) (A) (A) (A)
                 (A) (A) (A) (A) (A) (A) (A) (A) (A) (A) (A) (A)
                 (A) (A) (A) (A) (A) (A) (A) (A) (A) (A) (A) (A)
                 (A) (A) (A) (A) (A) (A) (A) (A) (A) (A) (A) (A)
                 (A) (A) (A) (A) (A) (A) (A) (A) (A) (A) (A) (A)
                 (A) (A) (A) (A) (A) (A) (A) (A) (A) (A) (A) (A)
                 (A) (A) (A) (A) (A) (A) (A) (A) (A) (A) (A) (A)
                 (A) (A) (A) (A) (A) (A) (A) (A) (A) (A) (A) (A)
                 (A) (A) (A) (A) (A) (A) (A) (A) (A) (A) (A) (A)
                 (A) (A) (A) (A) (A) (A) (A) (A) (A) (A) (A) (A)
                 (A) (A) (A) (A) (A) (A) (A) (A) (A) (A) (A) (A)
                 (A) (A) (A) (A) (A) (A) (A) (A) (A) (A) (A) (A)
                 (A) (A) (A) (A) (A) (A) (A) (A) (A) (A) (A) (A)
                 (A) (A) (A) (A) (A) (A) (A) (A) (A) (A) (A) (A)
                 (A) (A) (A) (A) (A) (A) (A) (A) (A) (A) (A) (A)
                 (A) (A) (A) (A) (A) (A) (A) (A) (A) (A) (A) (A)
                 (A) (A) (A) (A) (A) (A) (A) (A) (A) (A) (A) (A)
                 (A) (A) (A) (A) (A) (A) (A) (A) (A) (A) (A) (A)
                 (A) (A) (A) (A) (A) (A) (A) (A) (A) (A) (A) (A)
                 (A) (A) (A) (A) (A) (A) (A) (A) (A) (A) (A) (A)
                 (A) (A) (A) (A) (A) (A) (A) (A) (A) (A) (A) (A)
                 (A) (A) (A) (A) (A) (A) (A) (A) (A) (A) (A) (A)
                 (A) (A) (A) (A) (A) (A) (A) (A) (A) (A) (A) (A)
                 (A) (A) (A) (A) (A) (A) (A) (A) (A) (A) (A) (A)
                 (A) (A) (A) (A) (A) (A) (A) (A) (A) (A) (A) (A)
                 (A) (A) (A) (A)
 Beta  Orbitals:
       Occupied  (A) (A) (A) (A) (A) (A) (A) (A) (A) (A) (A) (A)
                 (A) (A) (A) (A) (A) (A) (A) (A) (A) (A) (A) (A)
                 (A) (A) (A) (A) (A) (A) (A) (A) (A) (A) (A) (A)
                 (A) (A) (A) (A) (A) (A) (A) (A) (A) (A) (A) (A)
                 (A) (A) (A) (A) (A) (A) (A) (A) (A) (A) (A) (A)
                 (A) (A) (A) (A) (A) (A) (A) (A) (A) (A) (A) (A)
                 (A) (A) (A) (A) (A) (A) (A) (A) (A) (A) (A) (A)
                 (A) (A) (A) (A) (A) (A) (A) (A) (A) (A) (A) (A)
                 (A) (A) (A) (A) (A) (A) (A) (A) (A) (A) (A) (A)
                 (A) (A) (A) (A) (A) (A) (A) (A) (A) (A) (A) (A)
                 (A) (A) (A) (A) (A) (A) (A) (A) (A) (A) (A) (A)
                 (A) (A) (A) (A) (A) (A) (A) (A) (A) (A) (A) (A)
                 (A) (A) (A) (A) (A) (A) (A) (A) (A) (A) (A) (A)
                 (A) (A) (A) (A) (A) (A) (A) (A) (A) (A) (A) (A)
                 (A) (A) (A) (A) (A) (A) (A) (A) (A) (A) (A) (A)
                 (A) (A) (A) (A) (A) (A) (A) (A) (A) (A) (A) (A)
                 (A) (A) (A) (A) (A) (A) (A) (A) (A) (A)
       Virtual   (A) (A) (A) (A) (A) (A) (A) (A) (A) (A) (A) (A)
                 (A) (A) (A) (A) (A) (A) (A) (A) (A) (A) (A) (A)
                 (A) (A) (A) (A) (A) (A) (A) (A) (A) (A) (A) (A)
                 (A) (A) (A) (A) (A) (A) (A) (A) (A) (A) (A) (A)
                 (A) (A) (A) (A) (A) (A) (A) (A) (A) (A) (A) (A)
                 (A) (A) (A) (A) (A) (A) (A) (A) (A) (A) (A) (A)
                 (A) (A) (A) (A) (A) (A) (A) (A) (A) (A) (A) (A)
                 (A) (A) (A) (A) (A) (A) (A) (A) (A) (A) (A) (A)
                 (A) (A) (A) (A) (A) (A) (A) (A) (A) (A) (A) (A)
                 (A) (A) (A) (A) (A) (A) (A) (A) (A) (A) (A) (A)
                 (A) (A) (A) (A) (A) (A) (A) (A) (A) (A) (A) (A)
                 (A) (A) (A) (A) (A) (A) (A) (A) (A) (A) (A) (A)
                 (A) (A) (A) (A) (A) (A) (A) (A) (A) (A) (A) (A)
                 (A) (A) (A) (A) (A) (A) (A) (A) (A) (A) (A) (A)
                 (A) (A) (A) (A) (A) (A) (A) (A) (A) (A) (A) (A)
                 (A) (A) (A) (A) (A) (A) (A) (A) (A) (A) (A) (A)
                 (A) (A) (A) (A) (A) (A) (A) (A) (A) (A) (A) (A)
                 (A) (A) (A) (A) (A) (A) (A) (A) (A) (A) (A) (A)
                 (A) (A) (A) (A) (A) (A) (A) (A) (A) (A) (A) (A)
                 (A) (A) (A) (A) (A) (A) (A) (A) (A) (A) (A) (A)
                 (A) (A) (A) (A) (A) (A) (A) (A) (A) (A) (A) (A)
                 (A) (A) (A) (A) (A) (A) (A) (A) (A) (A) (A) (A)
                 (A) (A) (A) (A) (A) (A) (A) (A) (A) (A) (A) (A)
                 (A) (A) (A) (A) (A) (A) (A) (A) (A) (A) (A) (A)
                 (A) (A) (A) (A) (A) (A) (A) (A) (A) (A) (A) (A)
                 (A) (A) (A) (A) (A) (A) (A) (A) (A) (A) (A) (A)
                 (A) (A) (A) (A) (A) (A) (A) (A) (A) (A) (A) (A)
                 (A) (A) (A) (A) (A) (A) (A) (A) (A) (A) (A) (A)
                 (A) (A) (A) (A) (A) (A) (A) (A) (A) (A) (A) (A)
                 (A) (A) (A) (A) (A) (A) (A) (A) (A) (A) (A) (A)
                 (A) (A) (A) (A) (A) (A) (A) (A) (A) (A) (A) (A)
                 (A) (A) (A) (A) (A) (A) (A) (A) (A) (A) (A) (A)
                 (A) (A) (A) (A) (A) (A) (A) (A) (A) (A) (A) (A)
                 (A) (A) (A) (A) (A) (A) (A) (A) (A) (A) (A) (A)
                 (A) (A) (A) (A) (A) (A) (A) (A) (A) (A) (A) (A)
                 (A) (A) (A) (A) (A) (A) (A) (A) (A) (A) (A) (A)
                 (A) (A) (A) (A) (A) (A) (A) (A) (A) (A) (A) (A)
                 (A) (A) (A) (A) (A) (A) (A) (A) (A) (A) (A) (A)
                 (A) (A) (A) (A) (A) (A) (A) (A) (A) (A) (A) (A)
                 (A) (A) (A) (A) (A) (A) (A) (A) (A) (A) (A) (A)
                 (A) (A) (A) (A) (A) (A) (A) (A) (A) (A) (A) (A)
                 (A) (A) (A) (A) (A) (A) (A) (A) (A) (A) (A) (A)
                 (A) (A) (A) (A) (A) (A) (A) (A) (A) (A) (A) (A)
                 (A) (A) (A) (A) (A) (A) (A) (A) (A) (A) (A) (A)
                 (A) (A) (A) (A) (A) (A) (A) (A) (A) (A) (A) (A)
                 (A) (A) (A) (A) (A) (A) (A) (A) (A) (A) (A) (A)
                 (A) (A) (A) (A) (A) (A) (A) (A) (A) (A) (A) (A)
                 (A) (A) (A) (A) (A) (A) (A) (A) (A) (A) (A) (A)
                 (A) (A) (A) (A) (A) (A) (A) (A) (A) (A) (A) (A)
                 (A) (A) (A) (A) (A) (A) (A) (A) (A) (A) (A) (A)
                 (A) (A) (A) (A) (A) (A) (A) (A) (A) (A) (A) (A)
                 (A) (A) (A) (A) (A) (A) (A) (A) (A) (A) (A) (A)
                 (A) (A) (A) (A) (A) (A) (A) (A) (A) (A) (A) (A)
                 (A) (A) (A) (A) (A) (A) (A) (A) (A) (A) (A) (A)
                 (A) (A) (A) (A) (A) (A) (A) (A) (A) (A) (A) (A)
                 (A) (A) (A) (A) (A) (A) (A) (A) (A) (A) (A) (A)
                 (A) (A) (A) (A) (A) (A) (A) (A) (A) (A) (A) (A)
                 (A) (A) (A) (A) (A) (A) (A) (A) (A) (A) (A) (A)
                 (A) (A) (A) (A) (A) (A) (A) (A) (A) (A) (A) (A)
                 (A) (A) (A) (A) (A) (A) (A) (A) (A) (A) (A) (A)
                 (A) (A) (A) (A) (A) (A) (A) (A) (A) (A) (A) (A)
                 (A) (A) (A) (A) (A) (A) (A) (A) (A) (A) (A) (A)
                 (A) (A) (A) (A) (A) (A) (A) (A) (A) (A) (A) (A)
                 (A) (A) (A) (A) (A) (A) (A) (A) (A) (A) (A) (A)
                 (A) (A) (A) (A) (A) (A) (A) (A) (A) (A) (A) (A)
                 (A) (A) (A) (A) (A) (A) (A) (A) (A) (A) (A) (A)
                 (A) (A) (A) (A) (A) (A) (A) (A) (A) (A) (A) (A)
                 (A) (A) (A) (A) (A) (A) (A) (A) (A) (A) (A) (A)
                 (A) (A) (A) (A) (A) (A) (A) (A) (A) (A) (A) (A)
                 (A) (A) (A) (A) (A) (A) (A) (A) (A) (A) (A) (A)
                 (A) (A) (A) (A) (A) (A) (A) (A) (A) (A) (A) (A)
                 (A) (A) (A) (A) (A) (A) (A) (A) (A) (A) (A) (A)
                 (A) (A) (A) (A) (A) (A) (A) (A) (A) (A) (A) (A)
                 (A) (A) (A) (A) (A) (A) (A) (A) (A) (A) (A) (A)
                 (A) (A) (A) (A) (A) (A) (A) (A) (A) (A) (A) (A)
                 (A) (A) (A) (A) (A) (A) (A) (A) (A) (A) (A) (A)
                 (A) (A) (A) (A) (A) (A) (A) (A) (A) (A) (A) (A)
                 (A) (A) (A) (A) (A) (A) (A) (A) (A) (A) (A) (A)
                 (A) (A) (A) (A) (A) (A) (A) (A) (A) (A) (A) (A)
                 (A) (A) (A) (A) (A) (A) (A) (A) (A) (A) (A) (A)
                 (A) (A) (A) (A) (A) (A) (A) (A) (A) (A) (A) (A)
                 (A) (A) (A) (A) (A) (A) (A) (A) (A) (A) (A) (A)
                 (A) (A) (A) (A) (A) (A) (A) (A) (A) (A) (A) (A)
                 (A) (A) (A) (A) (A) (A) (A) (A) (A) (A) (A) (A)
                 (A) (A) (A) (A) (A) (A) (A) (A) (A) (A) (A) (A)
                 (A) (A) (A) (A) (A) (A) (A) (A) (A) (A) (A) (A)
                 (A) (A) (A) (A) (A) (A) (A) (A) (A) (A) (A) (A)
                 (A) (A) (A) (A) (A) (A) (A) (A) (A) (A) (A) (A)
                 (A) (A) (A) (A) (A) (A) (A) (A) (A) (A) (A) (A)
                 (A) (A) (A) (A) (A) (A) (A) (A) (A) (A) (A) (A)
                 (A) (A) (A) (A) (A) (A) (A) (A) (A) (A) (A) (A)
                 (A) (A) (A) (A) (A) (A) (A) (A) (A) (A) (A) (A)
                 (A) (A) (A) (A) (A) (A) (A) (A) (A) (A) (A) (A)
                 (A) (A) (A) (A) (A) (A) (A) (A) (A) (A) (A) (A)
                 (A) (A) (A) (A) (A) (A) (A) (A) (A) (A) (A) (A)
                 (A) (A) (A) (A) (A) (A) (A) (A) (A) (A) (A) (A)
                 (A) (A) (A) (A) (A) (A) (A) (A) (A) (A) (A) (A)
                 (A) (A) (A) (A) (A) (A) (A) (A) (A) (A) (A) (A)
                 (A) (A) (A) (A) (A) (A) (A) (A) (A) (A) (A) (A)
                 (A) (A) (A) (A) (A) (A) (A) (A) (A) (A) (A) (A)
                 (A) (A) (A) (A) (A) (A) (A) (A) (A) (A) (A) (A)
                 (A) (A) (A) (A) (A) (A) (A) (A) (A) (A) (A) (A)
                 (A) (A) (A) (A) (A) (A) (A) (A) (A) (A) (A) (A)
                 (A) (A) (A) (A) (A) (A) (A) (A) (A) (A) (A) (A)
                 (A) (A) (A) (A) (A) (A) (A) (A) (A) (A) (A) (A)
                 (A) (A) (A) (A) (A) (A) (A) (A) (A) (A) (A) (A)
                 (A) (A) (A) (A) (A) (A) (A) (A) (A) (A) (A) (A)
                 (A) (A) (A) (A) (A) (A) (A) (A) (A) (A) (A) (A)
                 (A) (A) (A) (A) (A) (A) (A) (A) (A) (A) (A) (A)
                 (A) (A) (A) (A) (A) (A) (A) (A) (A) (A) (A) (A)
                 (A) (A) (A) (A) (A) (A) (A) (A) (A) (A) (A) (A)
                 (A) (A) (A) (A) (A) (A) (A) (A) (A) (A) (A) (A)
                 (A) (A) (A) (A) (A) (A) (A) (A) (A) (A) (A) (A)
                 (A) (A) (A) (A) (A) (A) (A) (A) (A) (A) (A) (A)
                 (A) (A) (A) (A) (A) (A) (A) (A) (A) (A) (A) (A)
                 (A) (A) (A) (A) (A) (A) (A) (A) (A) (A) (A) (A)
                 (A) (A) (A) (A) (A) (A) (A) (A) (A) (A) (A) (A)
                 (A) (A) (A) (A) (A) (A) (A) (A) (A) (A) (A) (A)
                 (A) (A) (A) (A) (A) (A) (A) (A) (A) (A) (A) (A)
                 (A) (A) (A) (A) (A) (A) (A) (A) (A) (A) (A) (A)
                 (A) (A) (A) (A) (A) (A) (A) (A) (A) (A) (A) (A)
                 (A) (A) (A) (A) (A) (A) (A) (A) (A) (A) (A) (A)
                 (A) (A) (A) (A) (A) (A) (A) (A) (A) (A) (A) (A)
                 (A) (A) (A) (A) (A) (A) (A) (A) (A) (A) (A) (A)
                 (A) (A) (A) (A) (A) (A) (A) (A) (A) (A) (A) (A)
                 (A) (A) (A) (A) (A) (A) (A) (A) (A) (A) (A) (A)
                 (A) (A) (A) (A) (A) (A) (A) (A) (A) (A) (A) (A)
                 (A) (A) (A) (A) (A) (A) (A) (A) (A) (A) (A) (A)
                 (A) (A) (A) (A) (A) (A) (A) (A) (A) (A) (A) (A)
                 (A) (A) (A) (A) (A) (A) (A) (A) (A) (A) (A) (A)
                 (A) (A) (A) (A) (A) (A) (A) (A) (A) (A) (A) (A)
                 (A) (A) (A) (A) (A) (A) (A) (A) (A) (A) (A) (A)
                 (A) (A) (A) (A) (A) (A) (A) (A) (A) (A) (A) (A)
                 (A) (A) (A) (A) (A) (A) (A) (A) (A) (A) (A) (A)
                 (A) (A) (A) (A) (A) (A) (A) (A) (A) (A) (A) (A)
                 (A) (A) (A) (A) (A) (A) (A) (A) (A) (A) (A) (A)
                 (A) (A) (A) (A) (A) (A) (A) (A) (A) (A) (A) (A)
                 (A) (A) (A) (A) (A) (A) (A) (A) (A) (A) (A) (A)
                 (A) (A) (A) (A) (A) (A) (A) (A) (A) (A) (A) (A)
                 (A) (A) (A) (A) (A) (A) (A) (A) (A) (A) (A) (A)
                 (A) (A) (A) (A) (A) (A) (A) (A) (A) (A) (A) (A)
                 (A) (A) (A) (A) (A) (A) (A) (A) (A) (A) (A) (A)
                 (A) (A) (A) (A) (A) (A) (A) (A) (A) (A) (A) (A)
                 (A) (A) (A) (A) (A) (A) (A) (A) (A) (A) (A) (A)
                 (A) (A) (A) (A) (A) (A) (A) (A) (A) (A) (A) (A)
                 (A) (A) (A) (A) (A) (A) (A) (A) (A)
 The electronic state is 6-A.
 Alpha  occ. eigenvalues -- -256.51296 -89.12966 -30.32181 -26.15585 -26.13823
 Alpha  occ. eigenvalues --  -26.12956 -19.33503 -19.32226 -19.25666 -19.24785
 Alpha  occ. eigenvalues --  -14.54854 -14.49987 -14.49632 -14.49625 -14.47680
 Alpha  occ. eigenvalues --  -14.47659 -10.42469 -10.42402 -10.38891 -10.36371
 Alpha  occ. eigenvalues --  -10.35954 -10.35892 -10.35697 -10.35636 -10.35487
 Alpha  occ. eigenvalues --  -10.35271 -10.35266 -10.35144 -10.34143 -10.33729
 Alpha  occ. eigenvalues --  -10.33622 -10.33315 -10.32660 -10.32557 -10.32545
 Alpha  occ. eigenvalues --  -10.32507 -10.32470 -10.32347 -10.32344 -10.32314
 Alpha  occ. eigenvalues --  -10.32208 -10.32147 -10.32118 -10.32071 -10.31970
 Alpha  occ. eigenvalues --  -10.31598 -10.31444 -10.31160 -10.30752 -10.30749
 Alpha  occ. eigenvalues --  -10.30374 -10.30212 -10.30179 -10.30145 -10.29305
 Alpha  occ. eigenvalues --  -10.29278 -10.29117  -8.10904  -6.04514  -6.04240
 Alpha  occ. eigenvalues --   -6.03775  -3.71814  -2.51395  -2.46016  -2.45575
 Alpha  occ. eigenvalues --   -1.24091  -1.22419  -1.16434  -1.11147  -1.09165
 Alpha  occ. eigenvalues --   -1.09039  -1.08395  -1.07659  -1.06888  -1.01402
 Alpha  occ. eigenvalues --   -0.94521  -0.94089  -0.92749  -0.92413  -0.92374
 Alpha  occ. eigenvalues --   -0.91877  -0.91520  -0.91128  -0.91121  -0.88134
 Alpha  occ. eigenvalues --   -0.87559  -0.86543  -0.86294  -0.86178  -0.85531
 Alpha  occ. eigenvalues --   -0.83615  -0.82333  -0.81789  -0.81524  -0.81033
 Alpha  occ. eigenvalues --   -0.79241  -0.78248  -0.77925  -0.76772  -0.76346
 Alpha  occ. eigenvalues --   -0.76163  -0.75104  -0.73937  -0.72858  -0.72516
 Alpha  occ. eigenvalues --   -0.72447  -0.72313  -0.70827  -0.69969  -0.68945
 Alpha  occ. eigenvalues --   -0.66947  -0.65930  -0.65333  -0.64934  -0.64165
 Alpha  occ. eigenvalues --   -0.62600  -0.62571  -0.61881  -0.60515  -0.60167
 Alpha  occ. eigenvalues --   -0.59499  -0.59090  -0.58933  -0.58754  -0.58501
 Alpha  occ. eigenvalues --   -0.58181  -0.58040  -0.57913  -0.57250  -0.56483
 Alpha  occ. eigenvalues --   -0.56204  -0.55777  -0.55380  -0.55047  -0.54881
 Alpha  occ. eigenvalues --   -0.54613  -0.54477  -0.54238  -0.54012  -0.53833
 Alpha  occ. eigenvalues --   -0.53739  -0.53684  -0.53503  -0.53191  -0.52960
 Alpha  occ. eigenvalues --   -0.52755  -0.52506  -0.52440  -0.52100  -0.51853
 Alpha  occ. eigenvalues --   -0.51693  -0.51574  -0.51413  -0.51134  -0.50977
 Alpha  occ. eigenvalues --   -0.50646  -0.50322  -0.50248  -0.49793  -0.49685
 Alpha  occ. eigenvalues --   -0.49529  -0.49240  -0.48908  -0.48818  -0.48679
 Alpha  occ. eigenvalues --   -0.48350  -0.47992  -0.47725  -0.47564  -0.47479
 Alpha  occ. eigenvalues --   -0.47164  -0.47109  -0.46884  -0.46775  -0.46403
 Alpha  occ. eigenvalues --   -0.46047  -0.45646  -0.45223  -0.45073  -0.44987
 Alpha  occ. eigenvalues --   -0.44558  -0.44237  -0.44104  -0.43778  -0.43423
 Alpha  occ. eigenvalues --   -0.43030  -0.42877  -0.42336  -0.42249  -0.41041
 Alpha  occ. eigenvalues --   -0.40283  -0.39488  -0.38943  -0.38805  -0.37466
 Alpha  occ. eigenvalues --   -0.35818  -0.35692  -0.35324  -0.35162  -0.34764
 Alpha  occ. eigenvalues --   -0.34169  -0.33371  -0.30791  -0.30595  -0.29833
 Alpha  occ. eigenvalues --   -0.29343  -0.28339
 Alpha virt. eigenvalues --   -0.19512  -0.17806  -0.17590  -0.10643  -0.08411
 Alpha virt. eigenvalues --   -0.08209  -0.07995  -0.07004  -0.06378  -0.05939
 Alpha virt. eigenvalues --   -0.05456  -0.04824  -0.04631  -0.04051  -0.03554
 Alpha virt. eigenvalues --   -0.03256  -0.02942  -0.02583  -0.02490  -0.02267
 Alpha virt. eigenvalues --   -0.02097  -0.01643  -0.01593  -0.01471  -0.01050
 Alpha virt. eigenvalues --   -0.00821  -0.00614  -0.00313  -0.00208   0.00627
 Alpha virt. eigenvalues --    0.00723   0.00816   0.01128   0.01415   0.01794
 Alpha virt. eigenvalues --    0.02054   0.02452   0.02793   0.02880   0.02927
 Alpha virt. eigenvalues --    0.03092   0.03246   0.03570   0.03797   0.04152
 Alpha virt. eigenvalues --    0.04287   0.04301   0.04628   0.04737   0.04969
 Alpha virt. eigenvalues --    0.05224   0.05283   0.05560   0.05625   0.05774
 Alpha virt. eigenvalues --    0.06003   0.06202   0.06362   0.06497   0.06646
 Alpha virt. eigenvalues --    0.06682   0.07080   0.07385   0.07510   0.07694
 Alpha virt. eigenvalues --    0.08027   0.08107   0.08420   0.08684   0.08760
 Alpha virt. eigenvalues --    0.08825   0.09163   0.09240   0.09603   0.09752
 Alpha virt. eigenvalues --    0.10056   0.10274   0.10385   0.10594   0.10729
 Alpha virt. eigenvalues --    0.10811   0.11035   0.11314   0.11589   0.11687
 Alpha virt. eigenvalues --    0.12063   0.12134   0.12329   0.12626   0.12644
 Alpha virt. eigenvalues --    0.12934   0.12990   0.13395   0.13592   0.13722
 Alpha virt. eigenvalues --    0.13873   0.14052   0.14611   0.14753   0.14825
 Alpha virt. eigenvalues --    0.14990   0.15141   0.15494   0.15599   0.15707
 Alpha virt. eigenvalues --    0.15992   0.16201   0.16556   0.16778   0.16928
 Alpha virt. eigenvalues --    0.17040   0.17216   0.17514   0.17838   0.17917
 Alpha virt. eigenvalues --    0.18002   0.18110   0.18163   0.18441   0.18594
 Alpha virt. eigenvalues --    0.18868   0.18986   0.19151   0.19458   0.19903
 Alpha virt. eigenvalues --    0.20004   0.20099   0.20225   0.20315   0.20450
 Alpha virt. eigenvalues --    0.20784   0.21089   0.21220   0.21458   0.21582
 Alpha virt. eigenvalues --    0.22073   0.22575   0.22796   0.22944   0.22973
 Alpha virt. eigenvalues --    0.23507   0.23547   0.23758   0.23968   0.23988
 Alpha virt. eigenvalues --    0.24245   0.24519   0.24567   0.24888   0.25045
 Alpha virt. eigenvalues --    0.25398   0.25742   0.25929   0.26293   0.26600
 Alpha virt. eigenvalues --    0.26687   0.26808   0.27033   0.27323   0.27686
 Alpha virt. eigenvalues --    0.27887   0.28050   0.28230   0.28411   0.28550
 Alpha virt. eigenvalues --    0.28861   0.29165   0.29491   0.29726   0.29941
 Alpha virt. eigenvalues --    0.29997   0.30181   0.30402   0.30610   0.30797
 Alpha virt. eigenvalues --    0.30839   0.30950   0.31118   0.31257   0.31442
 Alpha virt. eigenvalues --    0.31713   0.32008   0.32153   0.32232   0.32417
 Alpha virt. eigenvalues --    0.32766   0.32945   0.33121   0.33455   0.33548
 Alpha virt. eigenvalues --    0.33742   0.34026   0.34206   0.34320   0.34427
 Alpha virt. eigenvalues --    0.34712   0.34743   0.35103   0.35210   0.35484
 Alpha virt. eigenvalues --    0.35752   0.35930   0.36008   0.36157   0.36396
 Alpha virt. eigenvalues --    0.36445   0.36608   0.36998   0.37061   0.37105
 Alpha virt. eigenvalues --    0.37400   0.37433   0.37841   0.37961   0.38027
 Alpha virt. eigenvalues --    0.38219   0.38251   0.38440   0.38623   0.38871
 Alpha virt. eigenvalues --    0.39023   0.39227   0.39253   0.39496   0.39545
 Alpha virt. eigenvalues --    0.39754   0.40156   0.40253   0.40367   0.40545
 Alpha virt. eigenvalues --    0.40644   0.40834   0.40977   0.41186   0.41314
 Alpha virt. eigenvalues --    0.41416   0.41513   0.41759   0.41919   0.42073
 Alpha virt. eigenvalues --    0.42307   0.42355   0.42498   0.42576   0.42831
 Alpha virt. eigenvalues --    0.43077   0.43196   0.43353   0.43601   0.43717
 Alpha virt. eigenvalues --    0.43902   0.44116   0.44197   0.44580   0.44680
 Alpha virt. eigenvalues --    0.44842   0.45015   0.45062   0.45368   0.45649
 Alpha virt. eigenvalues --    0.45820   0.46112   0.46183   0.46279   0.46594
 Alpha virt. eigenvalues --    0.46795   0.46969   0.47351   0.47628   0.47668
 Alpha virt. eigenvalues --    0.47919   0.48464   0.48586   0.48663   0.48919
 Alpha virt. eigenvalues --    0.48990   0.49249   0.49697   0.49741   0.50005
 Alpha virt. eigenvalues --    0.50290   0.50429   0.50762   0.50949   0.51101
 Alpha virt. eigenvalues --    0.51643   0.51817   0.51994   0.52164   0.52337
 Alpha virt. eigenvalues --    0.52494   0.52668   0.52948   0.53079   0.53352
 Alpha virt. eigenvalues --    0.53545   0.53842   0.54034   0.54306   0.54642
 Alpha virt. eigenvalues --    0.54825   0.55021   0.55316   0.55722   0.55824
 Alpha virt. eigenvalues --    0.56009   0.56200   0.56650   0.56844   0.57064
 Alpha virt. eigenvalues --    0.57143   0.57262   0.57522   0.57630   0.58040
 Alpha virt. eigenvalues --    0.58499   0.58719   0.58878   0.59032   0.59312
 Alpha virt. eigenvalues --    0.59636   0.59934   0.60230   0.60378   0.60438
 Alpha virt. eigenvalues --    0.61015   0.61358   0.61406   0.61849   0.62022
 Alpha virt. eigenvalues --    0.62155   0.62862   0.63008   0.63348   0.63599
 Alpha virt. eigenvalues --    0.63905   0.64186   0.64562   0.64823   0.65060
 Alpha virt. eigenvalues --    0.65190   0.65660   0.65979   0.66321   0.66614
 Alpha virt. eigenvalues --    0.66681   0.66878   0.67142   0.67484   0.67522
 Alpha virt. eigenvalues --    0.67996   0.68515   0.68897   0.69053   0.69410
 Alpha virt. eigenvalues --    0.69739   0.69887   0.70048   0.70515   0.70663
 Alpha virt. eigenvalues --    0.70986   0.71581   0.71679   0.72220   0.72435
 Alpha virt. eigenvalues --    0.72930   0.73214   0.73553   0.73733   0.74067
 Alpha virt. eigenvalues --    0.74244   0.74484   0.74658   0.74823   0.75145
 Alpha virt. eigenvalues --    0.75301   0.75973   0.76179   0.76312   0.76664
 Alpha virt. eigenvalues --    0.77032   0.77185   0.77412   0.77871   0.78113
 Alpha virt. eigenvalues --    0.78400   0.78633   0.79293   0.79398   0.79593
 Alpha virt. eigenvalues --    0.79762   0.80120   0.80287   0.80597   0.80782
 Alpha virt. eigenvalues --    0.81304   0.81784   0.81801   0.82021   0.82509
 Alpha virt. eigenvalues --    0.82613   0.82932   0.83074   0.83191   0.83568
 Alpha virt. eigenvalues --    0.83706   0.84147   0.84400   0.84652   0.84772
 Alpha virt. eigenvalues --    0.85162   0.85383   0.85465   0.85709   0.86147
 Alpha virt. eigenvalues --    0.86506   0.86748   0.87102   0.87533   0.87893
 Alpha virt. eigenvalues --    0.88048   0.88206   0.88388   0.88694   0.88811
 Alpha virt. eigenvalues --    0.89087   0.89532   0.89903   0.89975   0.90323
 Alpha virt. eigenvalues --    0.90474   0.90661   0.91074   0.91395   0.91532
 Alpha virt. eigenvalues --    0.91798   0.92082   0.92253   0.92328   0.92733
 Alpha virt. eigenvalues --    0.93184   0.93398   0.93665   0.93795   0.94097
 Alpha virt. eigenvalues --    0.94333   0.94863   0.95069   0.95317   0.95469
 Alpha virt. eigenvalues --    0.95679   0.95877   0.96089   0.96378   0.96840
 Alpha virt. eigenvalues --    0.96933   0.97373   0.97551   0.97812   0.98073
 Alpha virt. eigenvalues --    0.98441   0.98740   0.98998   0.99020   0.99184
 Alpha virt. eigenvalues --    0.99517   1.00139   1.00497   1.00748   1.01277
 Alpha virt. eigenvalues --    1.01493   1.01754   1.01840   1.02273   1.02596
 Alpha virt. eigenvalues --    1.02859   1.03268   1.03563   1.04065   1.04312
 Alpha virt. eigenvalues --    1.04589   1.04734   1.04920   1.05817   1.05964
 Alpha virt. eigenvalues --    1.06394   1.06498   1.06568   1.07119   1.07403
 Alpha virt. eigenvalues --    1.07924   1.08097   1.08257   1.08349   1.08790
 Alpha virt. eigenvalues --    1.09093   1.09754   1.09864   1.10096   1.10673
 Alpha virt. eigenvalues --    1.10789   1.11269   1.11475   1.11786   1.12164
 Alpha virt. eigenvalues --    1.12501   1.12788   1.13438   1.13618   1.14339
 Alpha virt. eigenvalues --    1.14507   1.14977   1.15217   1.15422   1.15727
 Alpha virt. eigenvalues --    1.15815   1.15995   1.17160   1.17339   1.17522
 Alpha virt. eigenvalues --    1.17691   1.18067   1.18398   1.18863   1.18955
 Alpha virt. eigenvalues --    1.19293   1.20016   1.20098   1.20352   1.21017
 Alpha virt. eigenvalues --    1.21547   1.21678   1.22280   1.22459   1.22758
 Alpha virt. eigenvalues --    1.23225   1.23528   1.23821   1.24762   1.24877
 Alpha virt. eigenvalues --    1.25022   1.25559   1.25779   1.25851   1.26635
 Alpha virt. eigenvalues --    1.26937   1.27444   1.27847   1.28201   1.28326
 Alpha virt. eigenvalues --    1.28485   1.28908   1.29118   1.29392   1.30202
 Alpha virt. eigenvalues --    1.30705   1.30934   1.31285   1.31568   1.32454
 Alpha virt. eigenvalues --    1.33025   1.33448   1.33872   1.34086   1.34289
 Alpha virt. eigenvalues --    1.34759   1.35681   1.35865   1.36548   1.36640
 Alpha virt. eigenvalues --    1.36827   1.37167   1.37762   1.37892   1.38469
 Alpha virt. eigenvalues --    1.38887   1.39078   1.39414   1.40050   1.40133
 Alpha virt. eigenvalues --    1.40472   1.40724   1.40795   1.40966   1.41145
 Alpha virt. eigenvalues --    1.41221   1.41599   1.42368   1.42765   1.42840
 Alpha virt. eigenvalues --    1.43198   1.43357   1.43617   1.44306   1.44359
 Alpha virt. eigenvalues --    1.44680   1.44965   1.45246   1.45338   1.45733
 Alpha virt. eigenvalues --    1.45928   1.45960   1.46118   1.46503   1.46561
 Alpha virt. eigenvalues --    1.46867   1.47113   1.47280   1.47551   1.47841
 Alpha virt. eigenvalues --    1.47891   1.48135   1.48255   1.48647   1.48976
 Alpha virt. eigenvalues --    1.49145   1.49619   1.49801   1.50006   1.50278
 Alpha virt. eigenvalues --    1.50734   1.50928   1.51284   1.51460   1.51789
 Alpha virt. eigenvalues --    1.51916   1.52206   1.52292   1.52619   1.53065
 Alpha virt. eigenvalues --    1.53247   1.53788   1.54031   1.54059   1.54194
 Alpha virt. eigenvalues --    1.54402   1.54723   1.54916   1.55000   1.55415
 Alpha virt. eigenvalues --    1.55824   1.55977   1.56230   1.56610   1.56753
 Alpha virt. eigenvalues --    1.57061   1.57384   1.57602   1.57796   1.57953
 Alpha virt. eigenvalues --    1.58422   1.58893   1.59172   1.59262   1.59572
 Alpha virt. eigenvalues --    1.59852   1.60108   1.60278   1.60806   1.61120
 Alpha virt. eigenvalues --    1.61398   1.61521   1.61827   1.61876   1.62146
 Alpha virt. eigenvalues --    1.62154   1.62420   1.62816   1.63373   1.63478
 Alpha virt. eigenvalues --    1.63648   1.63830   1.63957   1.64419   1.64666
 Alpha virt. eigenvalues --    1.64865   1.65210   1.65579   1.65986   1.66225
 Alpha virt. eigenvalues --    1.66318   1.66759   1.66854   1.67610   1.67710
 Alpha virt. eigenvalues --    1.67838   1.67954   1.68711   1.69229   1.69354
 Alpha virt. eigenvalues --    1.69987   1.70346   1.70873   1.71266   1.71604
 Alpha virt. eigenvalues --    1.72102   1.72611   1.72751   1.73056   1.73552
 Alpha virt. eigenvalues --    1.73952   1.74493   1.74693   1.75001   1.75313
 Alpha virt. eigenvalues --    1.75489   1.75815   1.76190   1.76957   1.77339
 Alpha virt. eigenvalues --    1.77580   1.77796   1.78192   1.78559   1.79000
 Alpha virt. eigenvalues --    1.79224   1.79372   1.79459   1.79775   1.80253
 Alpha virt. eigenvalues --    1.80463   1.80986   1.81205   1.81372   1.81792
 Alpha virt. eigenvalues --    1.82423   1.82594   1.82890   1.82943   1.83563
 Alpha virt. eigenvalues --    1.83750   1.84102   1.84514   1.84630   1.84998
 Alpha virt. eigenvalues --    1.85385   1.85622   1.85861   1.86292   1.86581
 Alpha virt. eigenvalues --    1.86862   1.87656   1.87979   1.88595   1.88713
 Alpha virt. eigenvalues --    1.89149   1.89199   1.89575   1.89905   1.89989
 Alpha virt. eigenvalues --    1.90266   1.90658   1.91044   1.91277   1.91814
 Alpha virt. eigenvalues --    1.92263   1.92503   1.92781   1.93224   1.93597
 Alpha virt. eigenvalues --    1.93812   1.94125   1.94682   1.95338   1.95478
 Alpha virt. eigenvalues --    1.95947   1.96390   1.96640   1.96926   1.97146
 Alpha virt. eigenvalues --    1.97428   1.98161   1.98580   1.98858   1.99106
 Alpha virt. eigenvalues --    1.99329   1.99781   1.99965   2.00293   2.00591
 Alpha virt. eigenvalues --    2.01201   2.01302   2.01453   2.02071   2.02322
 Alpha virt. eigenvalues --    2.02878   2.03030   2.03204   2.03554   2.04204
 Alpha virt. eigenvalues --    2.04367   2.04664   2.05031   2.05470   2.05706
 Alpha virt. eigenvalues --    2.05897   2.06052   2.06320   2.06637   2.06832
 Alpha virt. eigenvalues --    2.07278   2.07615   2.08132   2.08226   2.08436
 Alpha virt. eigenvalues --    2.08820   2.09107   2.09395   2.09556   2.09919
 Alpha virt. eigenvalues --    2.10387   2.10489   2.10999   2.11389   2.11846
 Alpha virt. eigenvalues --    2.12080   2.12631   2.13146   2.13262   2.13297
 Alpha virt. eigenvalues --    2.13651   2.14093   2.14475   2.14666   2.15372
 Alpha virt. eigenvalues --    2.16056   2.16132   2.16401   2.16548   2.16743
 Alpha virt. eigenvalues --    2.17177   2.17361   2.17768   2.17986   2.18346
 Alpha virt. eigenvalues --    2.19001   2.19181   2.19609   2.20277   2.20454
 Alpha virt. eigenvalues --    2.20872   2.21463   2.21772   2.22279   2.22517
 Alpha virt. eigenvalues --    2.22655   2.23222   2.23620   2.24105   2.24301
 Alpha virt. eigenvalues --    2.24549   2.24874   2.24974   2.25555   2.26014
 Alpha virt. eigenvalues --    2.26065   2.26802   2.27169   2.27304   2.27732
 Alpha virt. eigenvalues --    2.28012   2.28356   2.28447   2.28860   2.28968
 Alpha virt. eigenvalues --    2.29396   2.29513   2.30203   2.30420   2.30608
 Alpha virt. eigenvalues --    2.30751   2.31040   2.31394   2.31899   2.32114
 Alpha virt. eigenvalues --    2.32300   2.32849   2.32941   2.33491   2.33560
 Alpha virt. eigenvalues --    2.33670   2.34227   2.34655   2.34736   2.35197
 Alpha virt. eigenvalues --    2.35854   2.36279   2.36486   2.36697   2.37278
 Alpha virt. eigenvalues --    2.37587   2.37769   2.37993   2.38303   2.39042
 Alpha virt. eigenvalues --    2.39266   2.39639   2.39867   2.40248   2.40565
 Alpha virt. eigenvalues --    2.41112   2.41343   2.41768   2.42266   2.42448
 Alpha virt. eigenvalues --    2.42942   2.43593   2.43860   2.44097   2.44466
 Alpha virt. eigenvalues --    2.44726   2.45475   2.45676   2.46067   2.46134
 Alpha virt. eigenvalues --    2.46685   2.46988   2.47276   2.47368   2.47781
 Alpha virt. eigenvalues --    2.48114   2.48307   2.48763   2.48970   2.49164
 Alpha virt. eigenvalues --    2.49593   2.49655   2.50082   2.50371   2.50668
 Alpha virt. eigenvalues --    2.51366   2.51450   2.51779   2.52080   2.52650
 Alpha virt. eigenvalues --    2.52935   2.53098   2.53222   2.53383   2.53849
 Alpha virt. eigenvalues --    2.54221   2.54803   2.54937   2.55286   2.55573
 Alpha virt. eigenvalues --    2.55859   2.55992   2.56361   2.56447   2.56643
 Alpha virt. eigenvalues --    2.56899   2.57388   2.57450   2.57957   2.58214
 Alpha virt. eigenvalues --    2.58453   2.58587   2.58665   2.59315   2.59807
 Alpha virt. eigenvalues --    2.60361   2.60477   2.60560   2.60941   2.61247
 Alpha virt. eigenvalues --    2.61460   2.61822   2.62377   2.62541   2.62881
 Alpha virt. eigenvalues --    2.63220   2.63758   2.63872   2.64245   2.64686
 Alpha virt. eigenvalues --    2.64830   2.64919   2.65062   2.65708   2.65998
 Alpha virt. eigenvalues --    2.66551   2.66977   2.67372   2.67535   2.68027
 Alpha virt. eigenvalues --    2.68151   2.68336   2.68722   2.68891   2.69337
 Alpha virt. eigenvalues --    2.69604   2.69937   2.69984   2.70247   2.70268
 Alpha virt. eigenvalues --    2.70886   2.71317   2.71461   2.71751   2.72092
 Alpha virt. eigenvalues --    2.72358   2.72637   2.72669   2.73431   2.73795
 Alpha virt. eigenvalues --    2.74081   2.74661   2.75032   2.75543   2.75800
 Alpha virt. eigenvalues --    2.75989   2.76421   2.76518   2.77114   2.77416
 Alpha virt. eigenvalues --    2.77661   2.78144   2.78485   2.78583   2.79182
 Alpha virt. eigenvalues --    2.79394   2.80392   2.80489   2.80793   2.81254
 Alpha virt. eigenvalues --    2.81714   2.81909   2.82074   2.82306   2.82655
 Alpha virt. eigenvalues --    2.83134   2.83314   2.83708   2.83831   2.84306
 Alpha virt. eigenvalues --    2.84416   2.84649   2.84933   2.85233   2.85671
 Alpha virt. eigenvalues --    2.85825   2.86234   2.86769   2.86849   2.86993
 Alpha virt. eigenvalues --    2.87625   2.87896   2.88240   2.88606   2.88714
 Alpha virt. eigenvalues --    2.88887   2.89337   2.89658   2.90076   2.90261
 Alpha virt. eigenvalues --    2.90442   2.91029   2.91339   2.91545   2.92085
 Alpha virt. eigenvalues --    2.92555   2.92640   2.92836   2.93060   2.93548
 Alpha virt. eigenvalues --    2.93803   2.94171   2.94448   2.94546   2.94761
 Alpha virt. eigenvalues --    2.95339   2.95464   2.95870   2.96159   2.96398
 Alpha virt. eigenvalues --    2.96754   2.96952   2.97538   2.97742   2.98020
 Alpha virt. eigenvalues --    2.98413   2.98520   2.98888   2.99076   2.99136
 Alpha virt. eigenvalues --    2.99266   2.99861   3.00099   3.00288   3.00322
 Alpha virt. eigenvalues --    3.00916   3.01201   3.01592   3.02088   3.02378
 Alpha virt. eigenvalues --    3.02473   3.02823   3.03043   3.03088   3.03435
 Alpha virt. eigenvalues --    3.03742   3.03966   3.04051   3.04643   3.04740
 Alpha virt. eigenvalues --    3.04894   3.05528   3.05649   3.05750   3.05889
 Alpha virt. eigenvalues --    3.06246   3.06969   3.07067   3.07429   3.07785
 Alpha virt. eigenvalues --    3.07833   3.08212   3.08472   3.08805   3.08982
 Alpha virt. eigenvalues --    3.09149   3.09446   3.09938   3.10104   3.10507
 Alpha virt. eigenvalues --    3.10694   3.10854   3.10966   3.11348   3.11748
 Alpha virt. eigenvalues --    3.11926   3.12155   3.12432   3.12779   3.13089
 Alpha virt. eigenvalues --    3.13625   3.13787   3.14158   3.14279   3.14422
 Alpha virt. eigenvalues --    3.14551   3.14778   3.15362   3.15700   3.15892
 Alpha virt. eigenvalues --    3.15955   3.16163   3.16442   3.16590   3.16894
 Alpha virt. eigenvalues --    3.16980   3.17469   3.17704   3.18014   3.18103
 Alpha virt. eigenvalues --    3.18419   3.18475   3.18723   3.19020   3.19321
 Alpha virt. eigenvalues --    3.19600   3.19997   3.20155   3.20469   3.20566
 Alpha virt. eigenvalues --    3.20763   3.21099   3.21194   3.21385   3.21595
 Alpha virt. eigenvalues --    3.22105   3.22412   3.22750   3.22927   3.23241
 Alpha virt. eigenvalues --    3.23515   3.23882   3.23999   3.24337   3.24721
 Alpha virt. eigenvalues --    3.25087   3.25138   3.25277   3.25441   3.25654
 Alpha virt. eigenvalues --    3.25812   3.26119   3.26428   3.26640   3.26880
 Alpha virt. eigenvalues --    3.27576   3.27852   3.27981   3.28212   3.28339
 Alpha virt. eigenvalues --    3.28446   3.28558   3.29035   3.29302   3.29516
 Alpha virt. eigenvalues --    3.29820   3.29900   3.30015   3.30450   3.30507
 Alpha virt. eigenvalues --    3.30754   3.30949   3.31004   3.31094   3.31760
 Alpha virt. eigenvalues --    3.31879   3.32110   3.32623   3.32832   3.32940
 Alpha virt. eigenvalues --    3.33331   3.33620   3.34167   3.34322   3.34621
 Alpha virt. eigenvalues --    3.35096   3.35200   3.35424   3.35461   3.35842
 Alpha virt. eigenvalues --    3.36106   3.36576   3.36776   3.37019   3.37270
 Alpha virt. eigenvalues --    3.37490   3.37929   3.38147   3.38310   3.38865
 Alpha virt. eigenvalues --    3.39202   3.39362   3.39873   3.40128   3.40243
 Alpha virt. eigenvalues --    3.40458   3.40700   3.41034   3.41403   3.41627
 Alpha virt. eigenvalues --    3.41727   3.42312   3.42590   3.42924   3.43260
 Alpha virt. eigenvalues --    3.43545   3.44130   3.44322   3.44596   3.44793
 Alpha virt. eigenvalues --    3.45011   3.45242   3.45686   3.45954   3.46258
 Alpha virt. eigenvalues --    3.46387   3.46815   3.47449   3.47810   3.47974
 Alpha virt. eigenvalues --    3.48404   3.48939   3.48983   3.49482   3.49772
 Alpha virt. eigenvalues --    3.50212   3.50572   3.50873   3.50982   3.51352
 Alpha virt. eigenvalues --    3.51586   3.51849   3.52085   3.52679   3.53548
 Alpha virt. eigenvalues --    3.53648   3.53964   3.54227   3.54619   3.54979
 Alpha virt. eigenvalues --    3.55467   3.55604   3.55921   3.56226   3.56329
 Alpha virt. eigenvalues --    3.56848   3.56886   3.57427   3.57703   3.58089
 Alpha virt. eigenvalues --    3.58707   3.59080   3.59315   3.59572   3.59797
 Alpha virt. eigenvalues --    3.59879   3.61024   3.61354   3.61533   3.61866
 Alpha virt. eigenvalues --    3.62341   3.62542   3.62999   3.63431   3.63719
 Alpha virt. eigenvalues --    3.64202   3.64367   3.64769   3.65144   3.65181
 Alpha virt. eigenvalues --    3.65541   3.65839   3.65966   3.66299   3.66532
 Alpha virt. eigenvalues --    3.66891   3.67397   3.67822   3.68155   3.68723
 Alpha virt. eigenvalues --    3.69096   3.69474   3.69969   3.70488   3.70932
 Alpha virt. eigenvalues --    3.71486   3.71547   3.72195   3.72444   3.72982
 Alpha virt. eigenvalues --    3.73429   3.73925   3.74202   3.75111   3.75183
 Alpha virt. eigenvalues --    3.76060   3.76511   3.76716   3.77100   3.77392
 Alpha virt. eigenvalues --    3.78233   3.78594   3.78786   3.79654   3.79919
 Alpha virt. eigenvalues --    3.80624   3.81186   3.81314   3.81721   3.82024
 Alpha virt. eigenvalues --    3.82806   3.83095   3.83488   3.83892   3.83903
 Alpha virt. eigenvalues --    3.84377   3.84446   3.84630   3.85510   3.85824
 Alpha virt. eigenvalues --    3.86362   3.86659   3.87420   3.87736   3.88192
 Alpha virt. eigenvalues --    3.88633   3.88984   3.89266   3.89632   3.90250
 Alpha virt. eigenvalues --    3.90615   3.91040   3.91407   3.91890   3.92365
 Alpha virt. eigenvalues --    3.92739   3.93017   3.93482   3.93827   3.94345
 Alpha virt. eigenvalues --    3.94865   3.95102   3.95657   3.96175   3.97067
 Alpha virt. eigenvalues --    3.97422   3.97918   3.98350   3.98838   3.99133
 Alpha virt. eigenvalues --    3.99608   3.99819   4.01237   4.01352   4.02307
 Alpha virt. eigenvalues --    4.03729   4.03969   4.04506   4.05263   4.05562
 Alpha virt. eigenvalues --    4.06535   4.07292   4.07495   4.08064   4.08500
 Alpha virt. eigenvalues --    4.09540   4.09701   4.09989   4.10630   4.10872
 Alpha virt. eigenvalues --    4.11869   4.12283   4.12922   4.13175   4.13781
 Alpha virt. eigenvalues --    4.13953   4.14138   4.14961   4.15569   4.15940
 Alpha virt. eigenvalues --    4.16124   4.16175   4.17058   4.17633   4.18355
 Alpha virt. eigenvalues --    4.19319   4.19704   4.20445   4.20830   4.21165
 Alpha virt. eigenvalues --    4.21622   4.22095   4.23263   4.23454   4.23837
 Alpha virt. eigenvalues --    4.24978   4.25440   4.25928   4.26265   4.26676
 Alpha virt. eigenvalues --    4.26757   4.27024   4.27254   4.28025   4.28108
 Alpha virt. eigenvalues --    4.28343   4.28660   4.29382   4.29769   4.30104
 Alpha virt. eigenvalues --    4.30999   4.31526   4.31691   4.32328   4.33009
 Alpha virt. eigenvalues --    4.33320   4.34004   4.34406   4.34735   4.35177
 Alpha virt. eigenvalues --    4.35440   4.35903   4.36286   4.36579   4.37357
 Alpha virt. eigenvalues --    4.38388   4.38712   4.39763   4.40196   4.40418
 Alpha virt. eigenvalues --    4.40744   4.40971   4.42054   4.42198   4.42575
 Alpha virt. eigenvalues --    4.44176   4.44565   4.45408   4.45700   4.45957
 Alpha virt. eigenvalues --    4.46794   4.48140   4.49004   4.49134   4.49536
 Alpha virt. eigenvalues --    4.50305   4.50697   4.51456   4.51908   4.52344
 Alpha virt. eigenvalues --    4.53864   4.54014   4.54677   4.55229   4.55748
 Alpha virt. eigenvalues --    4.56485   4.56897   4.57370   4.58097   4.58319
 Alpha virt. eigenvalues --    4.59215   4.59512   4.59948   4.60110   4.60782
 Alpha virt. eigenvalues --    4.61255   4.61886   4.62284   4.62773   4.63060
 Alpha virt. eigenvalues --    4.63894   4.64877   4.65203   4.65990   4.66918
 Alpha virt. eigenvalues --    4.68092   4.68477   4.69595   4.70267   4.71230
 Alpha virt. eigenvalues --    4.71588   4.71947   4.72297   4.73145   4.74079
 Alpha virt. eigenvalues --    4.74920   4.75557   4.76443   4.76900   4.77110
 Alpha virt. eigenvalues --    4.77553   4.78187   4.79781   4.79958   4.81150
 Alpha virt. eigenvalues --    4.81680   4.82053   4.82853   4.83606   4.84132
 Alpha virt. eigenvalues --    4.85327   4.85669   4.85795   4.86317   4.86504
 Alpha virt. eigenvalues --    4.87513   4.87834   4.89236   4.90671   4.91024
 Alpha virt. eigenvalues --    4.91058   4.92025   4.92709   4.93427   4.94061
 Alpha virt. eigenvalues --    4.94517   4.95088   4.95634   4.97622   4.98944
 Alpha virt. eigenvalues --    5.00295   5.00943   5.02166   5.02529   5.05839
 Alpha virt. eigenvalues --    5.06739   5.07629   5.08578   5.09022   5.09548
 Alpha virt. eigenvalues --    5.10530   5.10946   5.12105   5.13213   5.14169
 Alpha virt. eigenvalues --    5.14314   5.15334   5.15683   5.16009   5.16925
 Alpha virt. eigenvalues --    5.17211   5.17723   5.19113   5.19500   5.21580
 Alpha virt. eigenvalues --    5.23163   5.23330   5.23969   5.24103   5.24920
 Alpha virt. eigenvalues --    5.26256   5.26766   5.27648   5.27984   5.28603
 Alpha virt. eigenvalues --    5.29978   5.33393   5.33959   5.35077   5.35659
 Alpha virt. eigenvalues --    5.36481   5.38297   5.39196   5.39978   5.40425
 Alpha virt. eigenvalues --    5.41070   5.41579   5.41703   5.47326   5.48132
 Alpha virt. eigenvalues --    5.49068   5.49680   5.49916   5.50408   5.51094
 Alpha virt. eigenvalues --    5.52000   5.52874   5.53394   5.54735   5.55596
 Alpha virt. eigenvalues --    5.55907   5.56442   5.57410   5.59374   5.61454
 Alpha virt. eigenvalues --    5.63600   5.66221   5.67952   5.71715   5.72444
 Alpha virt. eigenvalues --    5.73073   5.73201   5.79622   5.82393   5.84424
 Alpha virt. eigenvalues --    5.84725   5.85479   5.88496   5.88813   5.89930
 Alpha virt. eigenvalues --    5.91316   5.91878   5.93586   5.96355   5.99416
 Alpha virt. eigenvalues --    5.99755   6.01376   6.01758   6.02155   6.05430
 Alpha virt. eigenvalues --    6.08409   6.09078   6.11437   6.12093   6.16448
 Alpha virt. eigenvalues --    6.18015   6.21164   6.24309   6.25722   6.26111
 Alpha virt. eigenvalues --    6.27558   6.30309   6.32787   6.35554   6.38538
 Alpha virt. eigenvalues --    6.39311   6.44384   6.45408   6.58055   6.58177
 Alpha virt. eigenvalues --    6.67624   6.68809   6.75359   6.77779   6.86302
 Alpha virt. eigenvalues --    6.86542   6.95712   7.00449   7.05151   7.07088
 Alpha virt. eigenvalues --    7.12287   7.13478   7.21387   7.21717   9.20143
 Alpha virt. eigenvalues --    9.42246   9.51755  20.10032  22.30760  22.31400
 Alpha virt. eigenvalues --   22.34833  22.39783  22.40230  22.42677  22.44675
 Alpha virt. eigenvalues --   22.48072  22.48599  22.49714  22.51084  22.53568
 Alpha virt. eigenvalues --   22.58244  22.59581  22.61943  22.65066  22.67497
 Alpha virt. eigenvalues --   22.80713  22.82953  22.85547  22.87040  22.91365
 Alpha virt. eigenvalues --   22.96776  22.98768  23.03547  23.08996  23.14323
 Alpha virt. eigenvalues --   23.19233  23.19648  23.22277  23.32219  23.32568
 Alpha virt. eigenvalues --   23.40995  23.42632  23.46581  23.48088  23.48766
 Alpha virt. eigenvalues --   23.60341  23.64641  23.67391  23.76747  32.37217
 Alpha virt. eigenvalues --   32.74000  32.87262  32.95348  32.97387  33.07762
 Alpha virt. eigenvalues --   43.85781  43.86816  43.89150  43.90443
  Beta  occ. eigenvalues -- -256.51198 -89.12937 -30.25755 -26.09855 -26.08423
  Beta  occ. eigenvalues --  -26.07890 -19.33503 -19.32226 -19.25666 -19.24784
  Beta  occ. eigenvalues --  -14.54846 -14.49857 -14.49819 -14.49727 -14.47434
  Beta  occ. eigenvalues --  -14.47433 -10.42469 -10.42402 -10.38880 -10.36366
  Beta  occ. eigenvalues --  -10.35894 -10.35867 -10.35679 -10.35667 -10.35379
  Beta  occ. eigenvalues --  -10.35284 -10.35233 -10.35150 -10.34146 -10.33619
  Beta  occ. eigenvalues --  -10.32747 -10.32561 -10.32539 -10.32520 -10.32462
  Beta  occ. eigenvalues --  -10.32318 -10.32306 -10.32242 -10.32210 -10.32181
  Beta  occ. eigenvalues --  -10.32150 -10.32086 -10.32083 -10.31960 -10.31835
  Beta  occ. eigenvalues --  -10.31596 -10.31443 -10.31160 -10.30752 -10.30748
  Beta  occ. eigenvalues --  -10.30374 -10.30221 -10.30180 -10.30156 -10.29354
  Beta  occ. eigenvalues --  -10.29306 -10.29195  -8.10869  -6.04489  -6.04194
  Beta  occ. eigenvalues --   -6.03737  -3.56377  -2.33831  -2.30314  -2.29113
  Beta  occ. eigenvalues --   -1.24091  -1.22419  -1.16360  -1.11147  -1.09136
  Beta  occ. eigenvalues --   -1.09039  -1.08463  -1.07355  -1.06697  -1.01261
  Beta  occ. eigenvalues --   -0.94445  -0.94000  -0.92571  -0.92377  -0.92049
  Beta  occ. eigenvalues --   -0.91587  -0.91282  -0.91107  -0.90533  -0.88037
  Beta  occ. eigenvalues --   -0.87524  -0.86448  -0.86244  -0.85320  -0.84273
  Beta  occ. eigenvalues --   -0.83231  -0.82298  -0.81750  -0.81514  -0.80959
  Beta  occ. eigenvalues --   -0.79195  -0.78213  -0.77916  -0.76715  -0.76255
  Beta  occ. eigenvalues --   -0.76066  -0.74945  -0.73884  -0.72607  -0.72402
  Beta  occ. eigenvalues --   -0.71149  -0.70830  -0.70473  -0.69810  -0.68719
  Beta  occ. eigenvalues --   -0.66875  -0.65755  -0.64888  -0.64329  -0.63720
  Beta  occ. eigenvalues --   -0.62460  -0.62361  -0.61581  -0.60137  -0.59913
  Beta  occ. eigenvalues --   -0.59416  -0.58788  -0.58733  -0.58584  -0.58425
  Beta  occ. eigenvalues --   -0.57950  -0.57877  -0.57704  -0.56997  -0.56324
  Beta  occ. eigenvalues --   -0.56036  -0.55560  -0.55322  -0.54860  -0.54480
  Beta  occ. eigenvalues --   -0.54305  -0.54158  -0.53869  -0.53639  -0.53603
  Beta  occ. eigenvalues --   -0.53489  -0.53250  -0.53001  -0.52957  -0.52690
  Beta  occ. eigenvalues --   -0.52512  -0.52269  -0.51731  -0.51533  -0.51412
  Beta  occ. eigenvalues --   -0.51296  -0.50903  -0.50750  -0.50654  -0.50318
  Beta  occ. eigenvalues --   -0.49983  -0.49828  -0.49414  -0.49289  -0.48971
  Beta  occ. eigenvalues --   -0.48691  -0.48532  -0.48207  -0.48098  -0.47585
  Beta  occ. eigenvalues --   -0.47499  -0.47080  -0.47033  -0.46911  -0.46824
  Beta  occ. eigenvalues --   -0.46649  -0.46211  -0.46035  -0.45714  -0.45322
  Beta  occ. eigenvalues --   -0.45034  -0.44942  -0.44238  -0.43956  -0.43943
  Beta  occ. eigenvalues --   -0.43776  -0.43250  -0.43209  -0.42905  -0.42345
  Beta  occ. eigenvalues --   -0.42112  -0.41084  -0.40915  -0.39485  -0.39043
  Beta  occ. eigenvalues --   -0.38723  -0.37965  -0.36687  -0.35432  -0.35283
  Beta  occ. eigenvalues --   -0.34931  -0.34613  -0.34405  -0.33346  -0.33031
  Beta  occ. eigenvalues --   -0.30027  -0.29436
  Beta virt. eigenvalues --   -0.19368  -0.18136  -0.17029  -0.15302  -0.13479
  Beta virt. eigenvalues --   -0.12976  -0.10965  -0.09846  -0.09420  -0.08223
  Beta virt. eigenvalues --   -0.08058  -0.07980  -0.06696  -0.06266  -0.05755
  Beta virt. eigenvalues --   -0.05281  -0.04779  -0.04458  -0.03963  -0.03319
  Beta virt. eigenvalues --   -0.03146  -0.02474  -0.02430  -0.02367  -0.02141
  Beta virt. eigenvalues --   -0.01962  -0.01523  -0.01472  -0.01299  -0.00904
  Beta virt. eigenvalues --   -0.00635  -0.00474  -0.00144   0.00048   0.00755
  Beta virt. eigenvalues --    0.00815   0.00938   0.01287   0.01622   0.01963
  Beta virt. eigenvalues --    0.02095   0.02664   0.02984   0.03167   0.03259
  Beta virt. eigenvalues --    0.03316   0.03393   0.03828   0.03955   0.04242
  Beta virt. eigenvalues --    0.04471   0.04501   0.04771   0.04813   0.05100
  Beta virt. eigenvalues --    0.05315   0.05528   0.05687   0.05903   0.05943
  Beta virt. eigenvalues --    0.06172   0.06256   0.06548   0.06681   0.06744
  Beta virt. eigenvalues --    0.06805   0.07272   0.07551   0.07713   0.07768
  Beta virt. eigenvalues --    0.08172   0.08206   0.08501   0.08792   0.08903
  Beta virt. eigenvalues --    0.08935   0.09242   0.09409   0.09741   0.09851
  Beta virt. eigenvalues --    0.10180   0.10345   0.10493   0.10714   0.10874
  Beta virt. eigenvalues --    0.11023   0.11195   0.11515   0.11688   0.11881
  Beta virt. eigenvalues --    0.12297   0.12389   0.12561   0.12766   0.12898
  Beta virt. eigenvalues --    0.13124   0.13251   0.13722   0.13777   0.13947
  Beta virt. eigenvalues --    0.14130   0.14222   0.14799   0.14940   0.15009
  Beta virt. eigenvalues --    0.15213   0.15330   0.15663   0.15862   0.16141
  Beta virt. eigenvalues --    0.16324   0.16472   0.16673   0.16951   0.17147
  Beta virt. eigenvalues --    0.17306   0.17541   0.17634   0.17994   0.18070
  Beta virt. eigenvalues --    0.18160   0.18254   0.18400   0.18612   0.18857
  Beta virt. eigenvalues --    0.19193   0.19364   0.19589   0.19739   0.20103
  Beta virt. eigenvalues --    0.20246   0.20371   0.20529   0.20582   0.21056
  Beta virt. eigenvalues --    0.21257   0.21459   0.21664   0.22001   0.22081
  Beta virt. eigenvalues --    0.22791   0.22923   0.23061   0.23112   0.23189
  Beta virt. eigenvalues --    0.23684   0.23873   0.23924   0.24168   0.24319
  Beta virt. eigenvalues --    0.24519   0.24749   0.24976   0.25111   0.25301
  Beta virt. eigenvalues --    0.25633   0.26185   0.26235   0.26474   0.26786
  Beta virt. eigenvalues --    0.26866   0.27064   0.27397   0.27596   0.27940
  Beta virt. eigenvalues --    0.28012   0.28163   0.28524   0.28634   0.28784
  Beta virt. eigenvalues --    0.29114   0.29312   0.29697   0.29905   0.30180
  Beta virt. eigenvalues --    0.30334   0.30468   0.30709   0.30859   0.30951
  Beta virt. eigenvalues --    0.31068   0.31316   0.31409   0.31573   0.31852
  Beta virt. eigenvalues --    0.31923   0.32215   0.32239   0.32516   0.32652
  Beta virt. eigenvalues --    0.32935   0.33144   0.33364   0.33634   0.33838
  Beta virt. eigenvalues --    0.33990   0.34260   0.34419   0.34563   0.34812
  Beta virt. eigenvalues --    0.34855   0.34984   0.35353   0.35442   0.35645
  Beta virt. eigenvalues --    0.35922   0.36109   0.36265   0.36311   0.36553
  Beta virt. eigenvalues --    0.36636   0.36726   0.37158   0.37223   0.37252
  Beta virt. eigenvalues --    0.37537   0.37581   0.37975   0.38097   0.38199
  Beta virt. eigenvalues --    0.38354   0.38395   0.38559   0.38763   0.38957
  Beta virt. eigenvalues --    0.39149   0.39325   0.39404   0.39730   0.39756
  Beta virt. eigenvalues --    0.39939   0.40303   0.40412   0.40538   0.40695
  Beta virt. eigenvalues --    0.40807   0.40997   0.41164   0.41338   0.41447
  Beta virt. eigenvalues --    0.41589   0.41711   0.41930   0.42096   0.42216
  Beta virt. eigenvalues --    0.42449   0.42591   0.42678   0.42838   0.43025
  Beta virt. eigenvalues --    0.43260   0.43351   0.43571   0.43720   0.43858
  Beta virt. eigenvalues --    0.44081   0.44232   0.44275   0.44699   0.44809
  Beta virt. eigenvalues --    0.45014   0.45188   0.45237   0.45480   0.45862
  Beta virt. eigenvalues --    0.46115   0.46232   0.46390   0.46464   0.46857
  Beta virt. eigenvalues --    0.46960   0.47060   0.47505   0.47703   0.47934
  Beta virt. eigenvalues --    0.48043   0.48628   0.48710   0.48842   0.49131
  Beta virt. eigenvalues --    0.49287   0.49454   0.49799   0.49967   0.50273
  Beta virt. eigenvalues --    0.50569   0.50649   0.50969   0.51048   0.51234
  Beta virt. eigenvalues --    0.51729   0.52095   0.52188   0.52328   0.52487
  Beta virt. eigenvalues --    0.52661   0.52825   0.53145   0.53409   0.53596
  Beta virt. eigenvalues --    0.53721   0.54057   0.54190   0.54484   0.54839
  Beta virt. eigenvalues --    0.54954   0.55219   0.55485   0.55924   0.55940
  Beta virt. eigenvalues --    0.56194   0.56345   0.56841   0.57110   0.57275
  Beta virt. eigenvalues --    0.57395   0.57494   0.57663   0.57863   0.58274
  Beta virt. eigenvalues --    0.58707   0.58921   0.59033   0.59267   0.59559
  Beta virt. eigenvalues --    0.59797   0.60206   0.60503   0.60545   0.60669
  Beta virt. eigenvalues --    0.61141   0.61541   0.61585   0.62005   0.62195
[...]
  1739. RY*(   4) H  84                  0.00003     2.28552   
  1740. RY*(   5) H  84                  0.00001     2.98524   
  1741. RY*(   1) H  85                  0.00031     1.38650   
  1742. RY*(   2) H  85                  0.00007     1.90276   
  1743. RY*(   3) H  85                  0.00004     1.95168   
  1744. RY*(   4) H  85                  0.00004     2.27091   
  1745. RY*(   5) H  85                  0.00001     2.94217   
  1746. RY*(   1) H  86                  0.00034     1.58307   
  1747. RY*(   2) H  86                  0.00008     2.54708   
  1748. RY*(   3) H  86                  0.00007     2.05991   
  1749. RY*(   4) H  86                  0.00004     1.87068   
  1750. RY*(   5) H  86                  0.00000     2.69346   
  1751. RY*(   1) H  87                  0.00030     1.59493   
  1752. RY*(   2) H  87                  0.00008     2.62965   
  1753. RY*(   3) H  87                  0.00006     2.31907   
  1754. RY*(   4) H  87                  0.00004     1.36615   
  1755. RY*(   5) H  87                  0.00000     2.91039   
  1756. RY*(   1) H  88                  0.00019     1.22283   
  1757. RY*(   2) H  88                  0.00006     1.25522   
  1758. RY*(   3) H  88                  0.00004     2.14244   
  1759. RY*(   4) H  88                  0.00003     2.13053   
  1760. RY*(   5) H  88                  0.00000     2.89843   
  1761. RY*(   1) H  89                  0.00034     1.19649   
  1762. RY*(   2) H  89                  0.00006     1.65683   
  1763. RY*(   3) H  89                  0.00005     2.12189   
  1764. RY*(   4) H  89                  0.00003     1.85181   
  1765. RY*(   5) H  89                  0.00001     2.86797   
  1766. RY*(   1) H  90                  0.00057     1.59364   
  1767. RY*(   2) H  90                  0.00007     2.15134   
  1768. RY*(   3) H  90                  0.00004     2.78157   
  1769. RY*(   4) H  90                  0.00003     2.39988   
  1770. RY*(   5) H  90                  0.00001     1.87810   
  1771. RY*(   1) H  91                  0.00084     0.74468   
  1772. RY*(   2) H  91                  0.00017     2.43751   
  1773. RY*(   3) H  91                  0.00005     2.32625   
  1774. RY*(   4) H  91                  0.00002     2.86305   
  1775. RY*(   5) H  91                  0.00002     2.48960   
  1776. RY*(   1) H  92                  0.00022     1.14743   
  1777. RY*(   2) H  92                  0.00009     1.80756   
  1778. RY*(   3) H  92                  0.00004     2.28822   
  1779. RY*(   4) H  92                  0.00004     1.94094   
  1780. RY*(   5) H  92                  0.00000     2.97031   
  1781. RY*(   1) H  93                  0.00021     1.21846   
  1782. RY*(   2) H  93                  0.00008     1.56082   
  1783. RY*(   3) H  93                  0.00004     2.15212   
  1784. RY*(   4) H  93                  0.00005     2.04980   
  1785. RY*(   5) H  93                  0.00000     2.86349   
  1786. RY*(   1) H  94                  0.00028     1.80951   
  1787. RY*(   2) H  94                  0.00011     2.35983   
  1788. RY*(   3) H  94                  0.00005     2.18347   
  1789. RY*(   4) H  94                  0.00003     1.34534   
  1790. RY*(   5) H  94                  0.00001     2.83745   
  1791. RY*(   1) H  95                  0.00067     0.88409   
  1792. RY*(   2) H  95                  0.00010     2.37994   
  1793. RY*(   3) H  95                  0.00008     2.43352   
  1794. RY*(   4) H  95                  0.00006     2.32845   
  1795. RY*(   5) H  95                  0.00001     3.14967   
  1796. RY*(   1) H  96                  0.00026     0.61683   
  1797. RY*(   2) H  96                  0.00016     2.21073   
  1798. RY*(   3) H  96                  0.00011     2.21359   
  1799. RY*(   4) H  96                  0.00003     2.62735   
  1800. RY*(   5) H  96                  0.00001     3.05346   
  1801. RY*(   1) H  97                  0.00043     0.59608   
  1802. RY*(   2) H  97                  0.00021     2.31327   
  1803. RY*(   3) H  97                  0.00009     2.18381   
  1804. RY*(   4) H  97                  0.00002     2.50799   
  1805. RY*(   5) H  97                  0.00001     3.06637   
  1806. RY*(   1) H  98                  0.00027     2.11426   
  1807. RY*(   2) H  98                  0.00020     2.03702   
  1808. RY*(   3) H  98                  0.00009     2.65135   
  1809. RY*(   4) H  98                  0.00008     1.06188   
  1810. RY*(   5) H  98                  0.00000     3.03232   
  1811. RY*(   1) H  99                  0.00024     0.97030   
  1812. RY*(   2) H  99                  0.00010     1.48206   
  1813. RY*(   3) H  99                  0.00005     2.13117   
  1814. RY*(   4) H  99                  0.00003     2.22533   
  1815. RY*(   5) H  99                  0.00001     2.97513   
  1816. RY*(   1) H 100                  0.00012     1.87821   
  1817. RY*(   2) H 100                  0.00005     0.65841   
  1818. RY*(   3) H 100                  0.00006     2.14196   
  1819. RY*(   4) H 100                  0.00003     2.31345   
  1820. RY*(   5) H 100                  0.00000     2.91851   
  1821. RY*(   1) H 101                  0.00022     1.01682   
  1822. RY*(   2) H 101                  0.00008     1.34010   
  1823. RY*(   3) H 101                  0.00005     1.21019   
  1824. RY*(   4) H 101                  0.00002     1.79326   
  1825. RY*(   5) H 101                  0.00000     3.13878   
  1826. BD*(   1) C   1 - C   2          0.00668     0.29796   
  1827. BD*(   1) C   1 - H  99          0.00521     0.30878   
  1828. BD*(   1) C   1 - H 100          0.00193     0.31313   
  1829. BD*(   1) C   1 - H 101          0.00328     0.30810   
  1830. BD*(   1) C   2 - N   3          0.01427     0.30954   
  1831. BD*(   1) C   2 - C   4          0.00948     0.47348   
  1832. BD*(   1) N   3 - C   5          0.00992     0.38493   
  1833. BD*(   1) N   3 - H  98          0.00669     0.29416   
  1834. BD*(   1) C   4 - N   6          0.00978     0.34738   
  1835. BD*(   2) C   4 - N   6          0.34431    -0.12455  7(v),192(v),195(v),285(g)
                                                    1930(r),312(v),341(g)
  1836. BD*(   1) C   4 - H  96          0.00582     0.32412   
  1837. BD*(   1) C   5 - N   6          0.01070     0.42534   
  1838. BD*(   1) C   5 - H  97          0.00815     0.28913   
  1839. BD*(   1) N   6 -Fe  11          0.03110     0.27419   
  1840. BD*(   1) C   7 - C   8          0.00419     0.25094   
  1841. BD*(   1) C   7 - H  91          0.00359     0.33527   
  1842. BD*(   1) C   7 - H  92          0.00286     0.32697   
  1843. BD*(   1) C   7 - H  93          0.00289     0.32775   
  1844. BD*(   1) C   8 - S   9          0.01403     0.07365   
  1845. BD*(   1) C   8 - H  94          0.00668     0.30889   
  1846. BD*(   1) C   8 - H  95          0.00987     0.32273   
  1847. BD*(   1) S   9 - C  10          0.00831     0.08210   
  1848. BD*(   1) S   9 -Fe  11          0.02520     0.27129   
  1849. BD*(   1) C  10 - H  88          0.00519     0.29885   
  1850. BD*(   1) C  10 - H  89          0.00376     0.29461   
  1851. BD*(   1) C  10 - H  90          0.00668     0.31994   
  1852. BD*(   1)Fe  11 - N  16          0.03109     0.31219   
  1853. BD*(   1)Fe  11 - N  27          0.02813     0.29494   
  1854. BD*(   1)Fe  11 - N  35          0.02818     0.29831   
  1855. BD*(   1)Fe  11 - N  43          0.02986     0.29685   
  1856. BD*(   1) C  12 - C  17          0.01040     0.49101   
  1857. BD*(   2) C  12 - C  17          0.20428    -0.05415  1930(v),1877(v),1874(v)
                                                    496(g),1862(r),1870(r)
                                                    630(g)
  1858. BD*(   1) C  12 - C  47          0.01016     0.47943   
  1859. BD*(   1) C  12 - H  73          0.00718     0.34696   
  1860. BD*(   1) C  13 - C  20          0.00983     0.47318   
  1861. BD*(   1) C  13 - C  28          0.00981     0.47420   
  1862. BD*(   2) C  13 - C  28          0.19688    -0.05650  1874(v),1899(v),1896(v)
                                                    522(g),1857(r),1866(r)
                                                    915(g),196(r)
  1863. BD*(   1) C  13 - H  69          0.00640     0.34796   
  1864. BD*(   1) C  14 - C  31          0.01054     0.46611   
  1865. BD*(   1) C  14 - C  36          0.00971     0.49020   
  1866. BD*(   2) C  14 - C  36          0.19227    -0.05297  1896(v),1916(v),1913(v)
                                                    1862(r),548(g),1870(r)
                                                    1123(g)
  1867. BD*(   1) C  14 - H  61          0.00685     0.35356   
  1868. BD*(   1) C  15 - C  39          0.00983     0.48618   
  1869. BD*(   1) C  15 - C  44          0.01048     0.46480   
  1870. BD*(   2) C  15 - C  44          0.19934    -0.05746  1913(v),1933(v),1930(v)
                                                    574(g),1857(r),1866(r)
                                                    1331(g)
  1871. BD*(   1) C  15 - H  77          0.00660     0.35406   
  1872. BD*(   1) N  16 - C  17          0.01466     0.37213   
  1873. BD*(   1) N  16 - C  20          0.01404     0.37739   
  1874. BD*(   2) N  16 - C  20          0.32826    -0.10006  1862(v),1877(v),1857(v)
                                                    195(v),705(g),602(g),522(v)
  1875. BD*(   1) C  17 - C  18          0.01601     0.40985   
  1876. BD*(   1) C  18 - C  19          0.00990     0.52752   
  1877. BD*(   2) C  18 - C  19          0.11665    -0.02144  1857(v),1874(v),1884(v)
                                                    1883(v),1882(v)
  1878. BD*(   1) C  18 - C  22          0.01200     0.26683   
  1879. BD*(   1) C  19 - C  20          0.01641     0.39019   
  1880. BD*(   1) C  19 - C  21          0.00909     0.26830   
  1881. BD*(   1) C  21 - H  70          0.00220     0.32803   
  1882. BD*(   1) C  21 - H  71          0.00336     0.32363   
  1883. BD*(   1) C  21 - H  72          0.00354     0.32220   
  1884. BD*(   1) C  22 - C  23          0.00854     0.25561   
  1885. BD*(   1) C  22 - H  86          0.00595     0.33034   
  1886. BD*(   1) C  22 - H  87          0.00569     0.32724   
  1887. BD*(   1) C  23 - C  24          0.03584     0.28533   
  1888. BD*(   1) C  23 - H  84          0.00538     0.31253   
  1889. BD*(   1) C  23 - H  85          0.00544     0.31782   
  1890. BD*(   1) C  24 - O  25          0.03612     0.42283   
  1891. BD*(   1) C  24 - O  26          0.02494     0.44255   
  1892. BD*(   2) C  24 - O  26          0.09742    -0.05130   
  1893. BD*(   1) O  25 - H  83          0.00721     0.30841   
  1894. BD*(   1) N  27 - C  28          0.01492     0.36730   
  1895. BD*(   1) N  27 - C  31          0.01542     0.36645   
  1896. BD*(   2) N  27 - C  31          0.32106    -0.11073  1866(v),1899(v),1862(v)
                                                    991(g),885(g),196(v),992(g)
                                                    890(g)
  1897. BD*(   1) C  28 - C  29          0.01654     0.38570   
  1898. BD*(   1) C  29 - C  30          0.00950     0.53191   
  1899. BD*(   2) C  29 - C  30          0.11917    -0.02317  1862(v),1896(v),201(v)
                                                    1905(v),1906(v),1907(v)
  1900. BD*(   1) C  29 - C  32          0.00894     0.27084   
  1901. BD*(   1) C  30 - C  31          0.01591     0.39055   
  1902. BD*(   1) C  30 - C  33          0.01043     0.30155   
  1903. BD*(   1) C  32 - H  66          0.00243     0.32481   
  1904. BD*(   1) C  32 - H  67          0.00337     0.33414   
  1905. BD*(   1) C  32 - H  68          0.00396     0.32502   
  1906. BD*(   1) C  33 - C  34          0.00214     0.27993   
  1907. BD*(   1) C  33 - H  65          0.00557     0.36428   
  1908. BD*(   1) C  34 - H  62          0.00289     0.33381   
  1909. BD*(   1) C  34 - H  63          0.00135     0.33194   
  1910. BD*(   1) C  34 - H  64          0.00269     0.33180   
  1911. BD*(   1) N  35 - C  36          0.01537     0.37401   
  1912. BD*(   1) N  35 - C  39          0.01440     0.39248   
  1913. BD*(   2) N  35 - C  39          0.30397    -0.09503  1870(v),1866(v),1916(v)
                                                    195(v),1199(g),1095(g)
                                                    574(v),1848(v)
  1914. BD*(   1) C  36 - C  37          0.01631     0.40133   
  1915. BD*(   1) C  37 - C  38          0.00900     0.54448   
  1916. BD*(   2) C  37 - C  38          0.11006    -0.01735  1866(v),1913(v),202(v)
                                                    1922(v),1923(v),1924(v)
                                                    1921(v)
  1917. BD*(   1) C  37 - C  40          0.00934     0.25583   
  1918. BD*(   1) C  38 - C  39          0.01576     0.38709   
  1919. BD*(   1) C  38 - C  41          0.01192     0.30418   
  1920. BD*(   1) C  40 - H  58          0.00228     0.33147   
  1921. BD*(   1) C  40 - H  59          0.00277     0.33139   
  1922. BD*(   1) C  40 - H  60          0.00327     0.32685   
  1923. BD*(   1) C  41 - C  42          0.00308     0.28813   
  1924. BD*(   1) C  41 - H  54          0.00538     0.36856   
  1925. BD*(   1) C  42 - H  55          0.00125     0.33142   
  1926. BD*(   1) C  42 - H  56          0.00230     0.33465   
  1927. BD*(   1) C  42 - H  57          0.00182     0.33447   
  1928. BD*(   1) N  43 - C  44          0.01463     0.39820   
  1929. BD*(   1) N  43 - C  47          0.01617     0.35791   
  1930. BD*(   2) N  43 - C  47          0.34061    -0.11499  1857(v),1933(v),1870(v)
                                                    1406(g),1301(g),496(v)
                                                    1835(r),1407(g),1405(g)
                                                    1896(r)
  1931. BD*(   1) C  44 - C  45          0.01700     0.38065   
  1932. BD*(   1) C  45 - C  46          0.00976     0.54592   
  1933. BD*(   2) C  45 - C  46          0.10695    -0.01936  1870(v),1930(v),1940(v)
                                                    1939(v),1937(v)
  1934. BD*(   1) C  45 - C  48          0.00926     0.26627   
  1935. BD*(   1) C  46 - C  47          0.01698     0.39195   
  1936. BD*(   1) C  46 - C  49          0.01181     0.26992   
  1937. BD*(   1) C  48 - H  74          0.00301     0.34393   
  1938. BD*(   1) C  48 - H  75          0.00218     0.33091   
  1939. BD*(   1) C  48 - H  76          0.00367     0.32526   
  1940. BD*(   1) C  49 - C  50          0.00693     0.24462   
  1941. BD*(   1) C  49 - H  78          0.00511     0.34052   
  1942. BD*(   1) C  49 - H  79          0.00493     0.35156   
  1943. BD*(   1) C  50 - C  51          0.03956     0.29609   
  1944. BD*(   1) C  50 - H  80          0.00605     0.31899   
  1945. BD*(   1) C  50 - H  81          0.00533     0.36708   
  1946. BD*(   1) C  51 - O  52          0.01932     0.71825   
  1947. BD*(   2) C  51 - O  52          0.08397     0.09683   
  1948. BD*(   1) C  51 - O  53          0.03902     3.56423   
  1949. BD*(   1) O  53 - H  82          0.00582     5.96810   
       -------------------------------
              Total Lewis  196.85351  ( 97.4522%)
        Valence non-Lewis    4.77805  (  2.3654%)
        Rydberg non-Lewis    0.36843  (  0.1824%)
       -------------------------------
            Total unit  1  202.00000  (100.0000%)
           Charge unit  1    3.00000
 1\1\GINC-NODE529\SP\UPBE1PBE\def2TZVP\C41H48Fe1N6O4S1(1+,6)\ZHARTOVSKA
 \14-Nov-2022\0\\# PBE1PBE/def2TZVP empiricaldispersion=GD3BJ scf=maxcy
 cle=999 geom=check pop=nbo\\1fj0_III_H\\1,6\C,0,15.934,20.177,30.13100
 1\C,0,16.115,21.657,30.191999\N,0,16.947001,22.33,29.302999\C,0,15.617
 ,22.582001,31.054001\C,0,16.933001,23.622999,29.613001\N,0,16.153999,2
 3.806999,30.663\C,0,14.555,29.431999,30.641001\C,0,14.215,28.549,31.85
 \S,0,15.699,27.711,32.465\C,0,15.3,27.622,34.210999\Fe,0,15.897,25.57,
 31.547001\C,0,18.000999,27.209999,29.415001\C,0,18.561001,24.83,33.604
 \C,0,13.77,24.263,33.856998\C,0,13.31,26.013,29.374001\N,0,17.872999,2
 5.941999,31.503\C,0,18.562,26.684,30.549\C,0,19.93,26.797001,30.959999
 \C,0,20.084,26.124001,32.108002\C,0,18.796,25.594999,32.477001\C,0,21.
 358999,25.962999,32.964001\C,0,21.023001,27.518,30.122999\C,0,21.716,2
 6.427,29.271999\C,0,22.688999,26.872,28.216\O,0,23.075001,28.059,28.25
 \O,0,23.065001,25.997,27.388\N,0,16.115999,24.733999,33.360001\C,0,17.
 304001,24.417,33.992001\C,0,17.028,23.628,35.178001\C,0,15.701,23.475,
 35.266998\C,0,15.123,24.188,34.151001\C,0,18.127001,23.066,36.105\C,0,
 14.898,22.759001,36.361\C,0,15.268,23.4,37.712002\N,0,13.924,25.243999
 ,31.603001\C,0,13.238,24.66,32.659\C,0,11.853,24.535,32.280998\C,0,11.
 7,25.035999,31.052999\C,0,13.011,25.465,30.599001\C,0,10.798,23.896999
 ,33.241001\C,0,10.445,25.052999,30.163\C,0,9.14619722,25.70251289,30.6
 7568219\N,0,15.688,26.421,29.743\C,0,14.552,26.500999,28.993999\C,0,14
 .829,27.198999,27.752001\C,0,16.121,27.521999,27.768\C,0,16.691,27.059
 ,29.023001\C,0,13.737,27.441,26.679001\C,0,16.93,28.34,26.719\C,0,17.0
 31,29.812,27.238001\C,0,17.254,30.886,26.209\O,0,17.643,30.521999,25.1
 01999\O,0,17.030001,32.084999,26.584999\H,0,10.47466351,24.6135355,29.
 18786313\H,0,9.31482261,26.74381336,30.855011\H,0,8.37596187,25.587101
 14,29.94198086\H,0,8.84539224,25.22790981,31.58626897\H,0,11.20165735,
 23.84498048,34.23057405\H,0,9.91272659,24.49794935,33.24804882\H,0,10.
 55719197,22.91118823,32.90175386\H,0,13.08417798,23.98768893,34.630788
 65\H,0,16.20174369,23.91417297,37.61900261\H,0,14.50559153,24.09407471
 ,37.99817263\H,0,15.35366761,22.63699166,38.45723977\H,0,14.20483213,2
 1.95759908,36.21209308\H,0,18.99444377,23.68992737,36.0488068\H,0,17.7
 6740293,23.04502748,37.11254622\H,0,18.38092335,22.07349767,35.7961917
 1\H,0,19.39766152,24.54354314,34.20636337\H,0,22.14631776,26.55486619,
 32.54600291\H,0,21.16069189,26.2881752,33.96391836\H,0,21.65350482,24.
 9343884,32.97525088\H,0,18.63741512,27.78879721,28.77870928\H,0,14.105
 71686,27.14006506,25.7206764\H,0,12.8657134,26.86922335,26.92155227\H,
 0,13.48571513,28.4807753,26.65403624\H,0,12.51989607,26.06763568,28.65
 452152\H,0,17.91040308,27.9247218,26.61291598\H,0,16.42419225,28.32168
 017,25.77627899\H,0,16.12430676,30.03942444,27.75865972\H,0,17.8369474
 4,29.85786462,27.94031515\H,0,17.76424475,32.67511745,26.77005666\H,0,
 24.01404764,28.25839605,28.25571143\H,0,22.23827243,25.77576431,29.941
 34464\H,0,20.95037625,25.85671343,28.78878736\H,0,21.73454042,27.98383
 218,30.77231559\H,0,20.57330346,28.2501212,29.48529164\H,0,16.0723902,
 28.09815093,34.77809129\H,0,14.36888965,28.11794295,34.38981202\H,0,15
 .22063992,26.5968005,34.50691786\H,0,15.48594607,29.11569094,30.218877
 05\H,0,13.78203127,29.34392174,29.90638427\H,0,14.63398867,30.45179829
 ,30.95511913\H,0,13.80634208,29.15896648,32.62835698\H,0,13.49129965,2
 7.81645534,31.55924905\H,0,14.94701096,22.40520692,31.86932826\H,0,17.
 46750252,24.39135381,29.09450413\H,0,17.46698192,21.91249201,28.557809
 82\H,0,16.75794053,19.69661917,30.61603323\H,0,15.02353828,19.90837218
 ,30.6247606\H,0,15.8907394,19.86480945,29.10847199\\Version=ES64L-G16R
 evA.03\State=6-A\HF=-3880.3813927\S2=8.831341\S2-1=0.\S2A=8.751477\RMS
 D=1.461e-09\Dipole=-0.6656626,-0.9677569,2.4489374\Quadrupole=14.01922
 64,11.0881679,-25.1073943,16.952986,8.7079789,-4.7981739\PG=C01 [X(C41
 H48Fe1N6O4S1)]\\@


 THERE'S NOTHING SO GREAT AS THE GREAT OUTDOORS.

                                       -- ZIGGY
 Job cpu time:      14 days 20 hours 56 minutes 53.8 seconds.
 Elapsed time:       3 days 17 hours 28 minutes 48.8 seconds.
 File lengths (MBytes):  RWF=   3495 Int=      0 D2E=      0 Chk=    292 Scr=      1
 Normal termination of Gaussian 16 at Mon Nov 14 04:51:08 2022.
