 Entering Gaussian System, Link 0=g16
 Input=/homes2/chemie/zhartovska/work/BioModel/Konrad/2ce0/2ce005/2ce005.com
 Output=/homes2/chemie/zhartovska/work/BioModel/Konrad/2ce0/2ce005/2ce005.log
 Initial command:
 /afs/math/software/gaussian/g16.A03/g16/l1.exe "/scratch/zhartovska_gaussian.etvh6Pn/Gau-2185.inp" -scrdir="/scratch/zhartovska_gaussian.etvh6Pn/"
 Entering Link 1 = /afs/math/software/gaussian/g16.A03/g16/l1.exe PID=      2186.
  
 Copyright (c) 1988,1990,1992,1993,1995,1998,2003,2009,2016,
            Gaussian, Inc.  All Rights Reserved.
  
 This is part of the Gaussian(R) 16 program.  It is based on
 the Gaussian(R) 09 system (copyright 2009, Gaussian, Inc.),
 the Gaussian(R) 03 system (copyright 2003, Gaussian, Inc.),
 the Gaussian(R) 98 system (copyright 1998, Gaussian, Inc.),
 the Gaussian(R) 94 system (copyright 1995, Gaussian, Inc.),
 the Gaussian 92(TM) system (copyright 1992, Gaussian, Inc.),
 the Gaussian 90(TM) system (copyright 1990, Gaussian, Inc.),
 the Gaussian 88(TM) system (copyright 1988, Gaussian, Inc.),
 the Gaussian 86(TM) system (copyright 1986, Carnegie Mellon
 University), and the Gaussian 82(TM) system (copyright 1983,
 Carnegie Mellon University). Gaussian is a federally registered
 trademark of Gaussian, Inc.
  
 This software contains proprietary and confidential information,
 including trade secrets, belonging to Gaussian, Inc.
  
 This software is provided under written license and may be
 used, copied, transmitted, or stored only in accord with that
 written license.
  
 The following legend is applicable only to US Government
 contracts under FAR:
  
                    RESTRICTED RIGHTS LEGEND
  
 Use, reproduction and disclosure by the US Government is
 subject to restrictions as set forth in subparagraphs (a)
 and (c) of the Commercial Computer Software - Restricted
 Rights clause in FAR 52.227-19.
  
 Gaussian, Inc.
 340 Quinnipiac St., Bldg. 40, Wallingford CT 06492
  
  
 ---------------------------------------------------------------
 Warning -- This program may not be used in any manner that
 competes with the business of Gaussian, Inc. or will provide
 assistance to any competitor of Gaussian, Inc.  The licensee
 of this program is prohibited from giving any competitor of
 Gaussian, Inc. access to this program.  By using this program,
 the user acknowledges that Gaussian, Inc. is engaged in the
 business of creating and licensing software in the field of
 computational chemistry and represents and warrants to the
 licensee that it is not a competitor of Gaussian, Inc. and that
 it will not use this program in any manner prohibited above.
 ---------------------------------------------------------------
  

 Cite this work as:
 Gaussian 16, Revision A.03,
 M. J. Frisch, G. W. Trucks, H. B. Schlegel, G. E. Scuseria, 
 M. A. Robb, J. R. Cheeseman, G. Scalmani, V. Barone, 
 G. A. Petersson, H. Nakatsuji, X. Li, M. Caricato, A. V. Marenich, 
 J. Bloino, B. G. Janesko, R. Gomperts, B. Mennucci, H. P. Hratchian, 
 J. V. Ortiz, A. F. Izmaylov, J. L. Sonnenberg, D. Williams-Young, 
 F. Ding, F. Lipparini, F. Egidi, J. Goings, B. Peng, A. Petrone, 
 T. Henderson, D. Ranasinghe, V. G. Zakrzewski, J. Gao, N. Rega, 
 G. Zheng, W. Liang, M. Hada, M. Ehara, K. Toyota, R. Fukuda, 
 J. Hasegawa, M. Ishida, T. Nakajima, Y. Honda, O. Kitao, H. Nakai, 
 T. Vreven, K. Throssell, J. A. Montgomery, Jr., J. E. Peralta, 
 F. Ogliaro, M. J. Bearpark, J. J. Heyd, E. N. Brothers, K. N. Kudin, 
 V. N. Staroverov, T. A. Keith, R. Kobayashi, J. Normand, 
 K. Raghavachari, A. P. Rendell, J. C. Burant, S. S. Iyengar, 
 J. Tomasi, M. Cossi, J. M. Millam, M. Klene, C. Adamo, R. Cammi, 
 J. W. Ochterski, R. L. Martin, K. Morokuma, O. Farkas, 
 J. B. Foresman, and D. J. Fox, Gaussian, Inc., Wallingford CT, 2016.
 
 ******************************************
 Gaussian 16:  ES64L-G16RevA.03 25-Dec-2016
                 2-Feb-2023 
 ******************************************
 %nprocs=12
 Will use up to   12 processors via shared memory.
 %mem=16GB
 %oldchk=2ce0_II_S.chk
 %chk=2ce0_II_Q.chk
 Copying data from "2ce0_II_S.chk" to current chk file "2ce0_II_Q.chk"
 IOpt=  2 FromEx=T IUOpen= 4 IOptOp= 5 NList=   0 IFRang= 0 IUIn= 4 IUOut= 2.
 ----------------------------------------------------------------------
 # PBE1PBE/def2TZVP scf=maxcycle=999 empiricaldispersion=GD3BJ int=(gri
 d=ultrafine) geom=check pop=nbo
 ----------------------------------------------------------------------
 1/29=2,38=1,172=1/1;
 2/12=2,40=1/2;
 3/5=44,7=101,11=2,14=-4,25=1,30=1,74=-13,75=-5,124=41/1,2,3;
 4//1;
 5/5=2,7=999,38=5/2;
 6/7=2,8=2,9=2,10=2,28=1,40=1/1,7;
 99/5=1,9=1/99;
 ---------
 2ce0_II_Q
 ---------
 Structure from the checkpoint file:  "2ce0_II_Q.chk"
 Charge =  0 Multiplicity = 5
 Z-Matrix found in chk file.
 C,0,3.129,43.032001,9.118
 C,0,1.868,43.118999,8.322
 N,0,0.821,42.243,8.505
 C,0,1.498,43.953999,7.325
 C,0,-0.145,42.541,7.649
 N,0,0.246,43.563999,6.905
 C,0,-4.421,46.051998,4.498
 C,0,-3.158,46.528999,3.845
 S,0,-1.989,45.251999,3.656
 C,0,-0.978,45.750999,2.271
 Fe,0,-0.796,44.398998,5.398
 C,0,-2.981,41.816002,5.156
 C,0,1.359,42.792999,3.29
 C,0,1.179,47.182999,5.304
 C,0,-2.686,45.830002,7.849
 N,0,-0.812,42.647999,4.396
 C,0,-1.805,41.693001,4.471
 C,0,-1.402,40.542,3.702
 C,0,-0.199,40.821999,3.166
 C,0,0.187,42.147999,3.598
 C,0,0.669,39.923,2.262
 C,0,-2.244,39.243,3.594
 C,0,-2.013,38.433998,4.89
 C,0,-2.937,37.243999,5.074
 O,0,-3.965,37.154999,4.362
 O,0,-2.67,36.370998,5.955
 N,0,0.947,44.882999,4.491
 C,0,1.707,44.073002,3.673
 C,0,2.888,44.797001,3.259
 C,0,2.813,46.014999,3.812
 C,0,1.608,46.085999,4.592
 C,0,3.978,44.203999,2.337
 C,0,3.809,47.18,3.639
 C,0,4.003,47.707001,2.397
 N,0,-0.773,46.168999,6.389
 C,0,0.132,47.192001,6.189
 C,0,-0.148,48.237999,7.131
 C,0,-1.209,47.856998,7.847
 C,0,-1.621,46.554001,7.392
 C,0,0.67,49.546001,7.247
 C,0,-1.891,48.624001,8.997
 C,0,-2.329,49.888,8.858
 N,0,-2.532,43.910999,6.343
 C,0,-3.176,44.685001,7.288
 C,0,-4.458,44.120998,7.604
 C,0,-4.542,42.891998,6.757
 C,0,-3.319,42.821999,6.016
 C,0,-5.505,44.655998,8.574
 C,0,-5.733,41.931,6.71
 C,0,-6.646,42.365002,5.56
 C,0,-7.816,41.424,5.435
 O,0,-8.941,41.839001,5.799
 O,0,-7.605,40.273998,4.973
 H,0,3.89841926,43.59277462,8.62971018
 H,0,2.96176316,43.43251599,10.09601819
 H,0,3.43009121,42.00839439,9.19845863
 H,0,2.07229992,44.76791853,6.93434081
 H,0,0.79438889,41.50176912,9.17572247
 H,0,-1.08616166,42.03788724,7.57159017
 H,0,-0.0559105,45.20847086,2.28872499
 H,0,-1.49626488,45.54375797,1.35811848
 H,0,-0.77608769,46.79974218,2.33633889
 H,0,-4.25028536,45.91186518,5.54495716
 H,0,-5.19246041,46.77985979,4.35669869
 H,0,-4.72137288,45.12394085,4.05824318
 H,0,-2.72966825,47.3049142,4.44448938
 H,0,-3.39549254,46.92687114,2.8805338
 H,0,3.4481434,48.61727382,2.30514394
 H,0,5.04412221,47.90787717,2.25342666
 H,0,3.66902419,47.00954726,1.65746066
 H,0,4.3403097,47.56910042,4.48233319
 H,0,-3.02108093,50.11391748,9.64214621
 H,0,-1.49874754,50.56094518,8.91020771
 H,0,-2.81563366,49.99474417,7.91106106
 H,0,-2.02053181,48.1335325,9.93910517
 H,0,1.6001253,49.4319812,6.73050565
 H,0,0.11704172,50.35223613,6.81211835
 H,0,0.85858351,49.7584346,8.27860468
 H,0,1.70496398,48.10278021,5.15478732
 H,0,4.84900554,43.97617213,2.91522509
 H,0,3.60995628,43.30973009,1.87904046
 H,0,4.22948091,44.91564886,1.57857279
 H,0,2.06872946,42.25366009,2.69814053
 H,0,1.59189139,39.70415158,2.75725432
 H,0,0.14755698,39.01075391,2.05999939
 H,0,0.86972419,40.43041649,1.34159883
 H,0,-1.92525836,38.67212648,2.74700107
 H,0,-3.28104972,39.48847865,3.49824979
 H,0,-1.00344714,38.0794518,4.89005661
 H,0,-2.14063138,39.0914623,5.72447643
 H,0,-1.75621791,36.16385985,6.16403608
 H,0,-6.70484702,39.96439451,4.84862038
 H,0,-6.08962855,42.36051465,4.64603574
 H,0,-7.0068373,43.35437719,5.74929654
 H,0,-5.386234,40.93315698,6.53981585
 H,0,-6.26992166,41.97480529,7.63449783
 H,0,-3.70981915,41.04758697,5.00348447
 H,0,-5.11506155,45.51268913,9.08285
 H,0,-6.38492412,44.93303573,8.03188964
 H,0,-5.74999283,43.89783122,9.288186
 H,0,-3.18085816,46.19281164,8.72557548
 Recover connectivity data from disk.
 Stoichiometry    C41H48FeN6O4S(5)
 Framework group  C1[X(C41H48FeN6O4S)]
 Deg. of freedom   297
 Full point group                 C1      NOp   1
 Largest Abelian subgroup         C1      NOp   1
 Largest concise Abelian subgroup C1      NOp   1
                         Standard orientation:                         
 ---------------------------------------------------------------------
 Center     Atomic      Atomic             Coordinates (Angstroms)
 Number     Number       Type             X           Y           Z
 ---------------------------------------------------------------------
      1          6           0        2.463463   -1.764388    4.967158
      2          6           0        1.671824   -1.242089    3.813114
      3          7           0        0.322260   -0.982503    3.904583
      4          6           0        2.029958   -0.959966    2.540211
      5          6           0       -0.115795   -0.558411    2.728594
      6          7           0        0.895494   -0.553455    1.874070
      7          6           0       -0.421372    2.908623   -2.603046
      8          6           0        0.771200    2.054163   -2.914137
      9         16           0        0.606091    0.436851   -2.289596
     10          6           0        1.636523   -0.573279   -3.341828
     11         26           0        0.796276   -0.059784   -0.075413
     12          6           0       -2.587887   -0.250923   -0.200191
     13          6           0        1.024013   -3.405572   -0.724072
     14          6           0        4.184291    0.235404   -0.382558
     15          6           0        0.620957    3.164099    1.021453
     16          7           0       -0.525684   -1.544961   -0.417364
     17          6           0       -1.898986   -1.417457   -0.378922
     18          6           0       -2.491977   -2.718452   -0.564252
     19          6           0       -1.484228   -3.596057   -0.729045
     20          6           0       -0.236515   -2.869092   -0.636142
     21          6           0       -1.580156   -5.118086   -0.959399
     22          6           0       -4.021410   -2.978554   -0.529429
     23          6           0       -4.449672   -3.016010    0.954704
     24          6           0       -5.949539   -3.023321    1.187244
     25          8           0       -6.714296   -2.721101    0.240957
     26          8           0       -6.406437   -3.312859    2.334847
     27          7           0        2.312777   -1.344790   -0.454805
     28          6           0        2.211498   -2.703112   -0.672798
     29          6           0        3.535279   -3.247426   -0.876898
     30          6           0        4.395208   -2.223284   -0.795614
     31          6           0        3.649515   -1.024726   -0.525674
     32          6           0        3.814941   -4.743791   -1.146188
     33          6           0        5.924981   -2.273449   -0.986537
     34          6           0        6.429940   -2.659837   -2.192211
     35          7           0        2.136879    1.426952    0.253084
     36          6           0        3.499967    1.340694    0.052814
     37          6           0        4.099834    2.577362    0.465957
     38          6           0        3.114763    3.383624    0.869834
     39          6           0        1.866369    2.676958    0.740577
     40          6           0        5.619944    2.862370    0.427416
     41          6           0        3.240751    4.817073    1.422345
     42          6           0        3.882389    5.791676    0.753533
     43          7           0       -0.718007    1.235644    0.341334
     44          6           0       -0.563970    2.554020    0.722120
     45          6           0       -1.838128    3.215020    0.754973
     46          6           0       -2.816654    2.154920    0.363077
     47          6           0       -2.057642    0.962911    0.133457
     48          6           0       -2.131335    4.670572    1.099550
     49          6           0       -4.328797    2.354170    0.229184
     50          6           0       -4.634230    2.688767   -1.233410
     51          6           0       -6.118462    2.850153   -1.435948
     52          8           0       -6.560756    4.008450   -1.617805
     53          8           0       -6.835569    1.817834   -1.412658
     54          1           0        3.389156   -2.166535    4.611814
     55          1           0        2.660815   -0.967933    5.653898
     56          1           0        1.907480   -2.532826    5.462421
     57          1           0        3.013718   -1.038184    2.126693
     58          1           0       -0.236596   -1.095875    4.726061
     59          1           0       -1.121210   -0.267758    2.505968
     60          1           0        1.853040   -1.497454   -2.847943
     61          1           0        1.123460   -0.771068   -4.259730
     62          1           0        2.550450   -0.056532   -3.548250
     63          1           0       -0.397312    3.192727   -1.571733
     64          1           0       -0.401005    3.785944   -3.215249
     65          1           0       -1.316671    2.356834   -2.800199
     66          1           0        1.641577    2.504358   -2.484405
     67          1           0        0.894515    2.004687   -3.975855
     68          1           0        6.731505   -1.795476   -2.746141
     69          1           0        7.275466   -3.296967   -2.037130
     70          1           0        5.679240   -3.190383   -2.739817
     71          1           0        6.580750   -2.008586   -0.183596
     72          1           0        3.595704    6.743802    1.148715
     73          1           0        4.939008    5.663488    0.863189
     74          1           0        3.622926    5.743108   -0.283395
     75          1           0        2.802277    5.044795    2.371440
     76          1           0        6.152727    1.941426    0.313814
     77          1           0        5.841233    3.506573   -0.397771
     78          1           0        5.917220    3.336229    1.339548
     79          1           0        5.217223    0.362616   -0.631091
     80          1           0        4.237736   -5.190790   -0.270782
     81          1           0        2.899066   -5.239075   -1.392699
     82          1           0        4.501587   -4.837216   -1.961473
     83          1           0        1.092606   -4.466679   -0.843432
     84          1           0       -1.116962   -5.632222   -0.143301
     85          1           0       -2.608979   -5.404924   -1.023805
     86          1           0       -1.081078   -5.373017   -1.870898
     87          1           0       -4.241764   -3.916161   -0.995515
     88          1           0       -4.536308   -2.189748   -1.036937
     89          1           0       -4.035321   -3.895023    1.402531
     90          1           0       -4.037068   -2.159589    1.445826
     91          1           0       -5.944346   -3.945303    2.889903
     92          1           0       -6.462881    0.980863   -1.125981
     93          1           0       -4.276062    1.898097   -1.859077
     94          1           0       -4.140245    3.600278   -1.498033
     95          1           0       -4.838256    1.455741    0.508787
     96          1           0       -4.644629    3.160045    0.858244
     97          1           0       -3.648539   -0.292479   -0.335059
     98          1           0       -1.227983    5.152446    1.410440
     99          1           0       -2.523160    5.169169    0.237706
    100          1           0       -2.848689    4.711876    1.892391
    101          1           0        0.569268    4.108891    1.521050
 ---------------------------------------------------------------------
 Rotational constants (GHZ):           0.0666780           0.0439529           0.0341569
 Standard basis: def2TZVP (5D, 7F)
 There are  2218 symmetry adapted cartesian basis functions of A   symmetry.
 There are  1951 symmetry adapted basis functions of A   symmetry.
  1951 basis functions,  3156 primitive gaussians,  2218 cartesian basis functions
   207 alpha electrons      203 beta electrons
       nuclear repulsion energy      8975.5084355631 Hartrees.
 NAtoms=  101 NActive=  101 NUniq=  101 SFac= 1.00D+00 NAtFMM=   60 NAOKFM=T Big=T
 Integral buffers will be    131072 words long.
 Raffenetti 2 integral format.
 Two-electron integral symmetry is turned on.
 Nuclear repulsion after empirical dispersion term =     8975.3572036892 Hartrees.
 One-electron integrals computed using PRISM.
   1 Symmetry operations used in ECPInt.
 ECPInt:  NShTT=  305371 NPrTT=  941867 LenC2=  224412 LenP2D=  447641.
 LDataN:  DoStor=T MaxTD1= 6 Len=  172
 NBasis=  1951 RedAO= T EigKep=  3.15D-06  NBF=  1951
 NBsUse=  1951 1.00D-06 EigRej= -1.00D+00 NBFU=  1951
 ExpMin= 4.20D-02 ExpMax= 3.01D+05 ExpMxC= 2.91D+03 IAcc=3 IRadAn=         5 AccDes= 0.00D+00
 Harris functional with IExCor= 1009 and IRadAn=       5 diagonalized for initial guess.
 HarFok:  IExCor= 1009 AccDes= 0.00D+00 IRadAn=         5 IDoV= 1 UseB2=F ITyADJ=14
 ICtDFT=  3500011 ScaDFX=  1.000000  1.000000  1.000000  1.000000
 FoFCou: FMM=F IPFlag=           0 FMFlag=      100000 FMFlg1=        2001
         NFxFlg=           0 DoJE=T BraDBF=F KetDBF=T FulRan=T
         wScrn=  0.000000 ICntrl=       500 IOpCl=  0 I1Cent=   200000004 NGrid=           0
         NMat0=    1 NMatS0=      1 NMatT0=    0 NMatD0=    1 NMtDS0=    0 NMtDT0=    0
 Petite list used in FoFCou.
 Initial guess <Sx>= 0.0000 <Sy>= 0.0000 <Sz>= 2.0000 <S**2>= 6.0000 S= 2.0000
 Requested convergence on RMS density matrix=1.00D-08 within 999 cycles.
 Requested convergence on MAX density matrix=1.00D-06.
 Requested convergence on             energy=1.00D-06.
 No special actions if energy rises.
 EnCoef did   100 forward-backward iterations
 EnCoef did   100 forward-backward iterations
 EnCoef did     3 forward-backward iterations
 Restarting incremental Fock formation.
 Restarting incremental Fock formation.
 Restarting incremental Fock formation.
 Restarting incremental Fock formation.
 Restarting incremental Fock formation.
 Restarting incremental Fock formation.
 Restarting incremental Fock formation.
 Restarting incremental Fock formation.
 Restarting incremental Fock formation.
 SCF Done:  E(UPBE1PBE) =  -3880.53604663     A.U. after  189 cycles
            NFock=189  Conv=0.18D-08     -V/T= 2.0029
 <Sx>= 0.0000 <Sy>= 0.0000 <Sz>= 2.0000 <S**2>= 6.2018 S= 2.0400
 <L.S>= 0.000000000000E+00
 Annihilation of the first spin contaminant:
 S**2 before annihilation     6.2018,   after     6.0111
 Hyperfine terms turned off by default for NAtoms > 100.

 **********************************************************************

            Population analysis using the SCF density.

 **********************************************************************

 Orbital symmetries:
 Alpha Orbitals:
       Occupied  (A) (A) (A) (A) (A) (A) (A) (A) (A) (A) (A) (A)
                 (A) (A) (A) (A) (A) (A) (A) (A) (A) (A) (A) (A)
                 (A) (A) (A) (A) (A) (A) (A) (A) (A) (A) (A) (A)
                 (A) (A) (A) (A) (A) (A) (A) (A) (A) (A) (A) (A)
                 (A) (A) (A) (A) (A) (A) (A) (A) (A) (A) (A) (A)
                 (A) (A) (A) (A) (A) (A) (A) (A) (A) (A) (A) (A)
                 (A) (A) (A) (A) (A) (A) (A) (A) (A) (A) (A) (A)
                 (A) (A) (A) (A) (A) (A) (A) (A) (A) (A) (A) (A)
                 (A) (A) (A) (A) (A) (A) (A) (A) (A) (A) (A) (A)
                 (A) (A) (A) (A) (A) (A) (A) (A) (A) (A) (A) (A)
                 (A) (A) (A) (A) (A) (A) (A) (A) (A) (A) (A) (A)
                 (A) (A) (A) (A) (A) (A) (A) (A) (A) (A) (A) (A)
                 (A) (A) (A) (A) (A) (A) (A) (A) (A) (A) (A) (A)
                 (A) (A) (A) (A) (A) (A) (A) (A) (A) (A) (A) (A)
                 (A) (A) (A) (A) (A) (A) (A) (A) (A) (A) (A) (A)
                 (A) (A) (A) (A) (A) (A) (A) (A) (A) (A) (A) (A)
                 (A) (A) (A) (A) (A) (A) (A) (A) (A) (A) (A) (A)
                 (A) (A) (A)
       Virtual   (A) (A) (A) (A) (A) (A) (A) (A) (A) (A) (A) (A)
                 (A) (A) (A) (A) (A) (A) (A) (A) (A) (A) (A) (A)
                 (A) (A) (A) (A) (A) (A) (A) (A) (A) (A) (A) (A)
                 (A) (A) (A) (A) (A) (A) (A) (A) (A) (A) (A) (A)
                 (A) (A) (A) (A) (A) (A) (A) (A) (A) (A) (A) (A)
                 (A) (A) (A) (A) (A) (A) (A) (A) (A) (A) (A) (A)
                 (A) (A) (A) (A) (A) (A) (A) (A) (A) (A) (A) (A)
                 (A) (A) (A) (A) (A) (A) (A) (A) (A) (A) (A) (A)
                 (A) (A) (A) (A) (A) (A) (A) (A) (A) (A) (A) (A)
                 (A) (A) (A) (A) (A) (A) (A) (A) (A) (A) (A) (A)
                 (A) (A) (A) (A) (A) (A) (A) (A) (A) (A) (A) (A)
                 (A) (A) (A) (A) (A) (A) (A) (A) (A) (A) (A) (A)
                 (A) (A) (A) (A) (A) (A) (A) (A) (A) (A) (A) (A)
                 (A) (A) (A) (A) (A) (A) (A) (A) (A) (A) (A) (A)
                 (A) (A) (A) (A) (A) (A) (A) (A) (A) (A) (A) (A)
                 (A) (A) (A) (A) (A) (A) (A) (A) (A) (A) (A) (A)
                 (A) (A) (A) (A) (A) (A) (A) (A) (A) (A) (A) (A)
                 (A) (A) (A) (A) (A) (A) (A) (A) (A) (A) (A) (A)
                 (A) (A) (A) (A) (A) (A) (A) (A) (A) (A) (A) (A)
                 (A) (A) (A) (A) (A) (A) (A) (A) (A) (A) (A) (A)
                 (A) (A) (A) (A) (A) (A) (A) (A) (A) (A) (A) (A)
                 (A) (A) (A) (A) (A) (A) (A) (A) (A) (A) (A) (A)
                 (A) (A) (A) (A) (A) (A) (A) (A) (A) (A) (A) (A)
                 (A) (A) (A) (A) (A) (A) (A) (A) (A) (A) (A) (A)
                 (A) (A) (A) (A) (A) (A) (A) (A) (A) (A) (A) (A)
                 (A) (A) (A) (A) (A) (A) (A) (A) (A) (A) (A) (A)
                 (A) (A) (A) (A) (A) (A) (A) (A) (A) (A) (A) (A)
                 (A) (A) (A) (A) (A) (A) (A) (A) (A) (A) (A) (A)
                 (A) (A) (A) (A) (A) (A) (A) (A) (A) (A) (A) (A)
                 (A) (A) (A) (A) (A) (A) (A) (A) (A) (A) (A) (A)
                 (A) (A) (A) (A) (A) (A) (A) (A) (A) (A) (A) (A)
                 (A) (A) (A) (A) (A) (A) (A) (A) (A) (A) (A) (A)
                 (A) (A) (A) (A) (A) (A) (A) (A) (A) (A) (A) (A)
                 (A) (A) (A) (A) (A) (A) (A) (A) (A) (A) (A) (A)
                 (A) (A) (A) (A) (A) (A) (A) (A) (A) (A) (A) (A)
                 (A) (A) (A) (A) (A) (A) (A) (A) (A) (A) (A) (A)
                 (A) (A) (A) (A) (A) (A) (A) (A) (A) (A) (A) (A)
                 (A) (A) (A) (A) (A) (A) (A) (A) (A) (A) (A) (A)
                 (A) (A) (A) (A) (A) (A) (A) (A) (A) (A) (A) (A)
                 (A) (A) (A) (A) (A) (A) (A) (A) (A) (A) (A) (A)
                 (A) (A) (A) (A) (A) (A) (A) (A) (A) (A) (A) (A)
                 (A) (A) (A) (A) (A) (A) (A) (A) (A) (A) (A) (A)
                 (A) (A) (A) (A) (A) (A) (A) (A) (A) (A) (A) (A)
                 (A) (A) (A) (A) (A) (A) (A) (A) (A) (A) (A) (A)
                 (A) (A) (A) (A) (A) (A) (A) (A) (A) (A) (A) (A)
                 (A) (A) (A) (A) (A) (A) (A) (A) (A) (A) (A) (A)
                 (A) (A) (A) (A) (A) (A) (A) (A) (A) (A) (A) (A)
                 (A) (A) (A) (A) (A) (A) (A) (A) (A) (A) (A) (A)
                 (A) (A) (A) (A) (A) (A) (A) (A) (A) (A) (A) (A)
                 (A) (A) (A) (A) (A) (A) (A) (A) (A) (A) (A) (A)
                 (A) (A) (A) (A) (A) (A) (A) (A) (A) (A) (A) (A)
                 (A) (A) (A) (A) (A) (A) (A) (A) (A) (A) (A) (A)
                 (A) (A) (A) (A) (A) (A) (A) (A) (A) (A) (A) (A)
                 (A) (A) (A) (A) (A) (A) (A) (A) (A) (A) (A) (A)
                 (A) (A) (A) (A) (A) (A) (A) (A) (A) (A) (A) (A)
                 (A) (A) (A) (A) (A) (A) (A) (A) (A) (A) (A) (A)
                 (A) (A) (A) (A) (A) (A) (A) (A) (A) (A) (A) (A)
                 (A) (A) (A) (A) (A) (A) (A) (A) (A) (A) (A) (A)
                 (A) (A) (A) (A) (A) (A) (A) (A) (A) (A) (A) (A)
                 (A) (A) (A) (A) (A) (A) (A) (A) (A) (A) (A) (A)
                 (A) (A) (A) (A) (A) (A) (A) (A) (A) (A) (A) (A)
                 (A) (A) (A) (A) (A) (A) (A) (A) (A) (A) (A) (A)
                 (A) (A) (A) (A) (A) (A) (A) (A) (A) (A) (A) (A)
                 (A) (A) (A) (A) (A) (A) (A) (A) (A) (A) (A) (A)
                 (A) (A) (A) (A) (A) (A) (A) (A) (A) (A) (A) (A)
                 (A) (A) (A) (A) (A) (A) (A) (A) (A) (A) (A) (A)
                 (A) (A) (A) (A) (A) (A) (A) (A) (A) (A) (A) (A)
                 (A) (A) (A) (A) (A) (A) (A) (A) (A) (A) (A) (A)
                 (A) (A) (A) (A) (A) (A) (A) (A) (A) (A) (A) (A)
                 (A) (A) (A) (A) (A) (A) (A) (A) (A) (A) (A) (A)
                 (A) (A) (A) (A) (A) (A) (A) (A) (A) (A) (A) (A)
                 (A) (A) (A) (A) (A) (A) (A) (A) (A) (A) (A) (A)
                 (A) (A) (A) (A) (A) (A) (A) (A) (A) (A) (A) (A)
                 (A) (A) (A) (A) (A) (A) (A) (A) (A) (A) (A) (A)
                 (A) (A) (A) (A) (A) (A) (A) (A) (A) (A) (A) (A)
                 (A) (A) (A) (A) (A) (A) (A) (A) (A) (A) (A) (A)
                 (A) (A) (A) (A) (A) (A) (A) (A) (A) (A) (A) (A)
                 (A) (A) (A) (A) (A) (A) (A) (A) (A) (A) (A) (A)
                 (A) (A) (A) (A) (A) (A) (A) (A) (A) (A) (A) (A)
                 (A) (A) (A) (A) (A) (A) (A) (A) (A) (A) (A) (A)
                 (A) (A) (A) (A) (A) (A) (A) (A) (A) (A) (A) (A)
                 (A) (A) (A) (A) (A) (A) (A) (A) (A) (A) (A) (A)
                 (A) (A) (A) (A) (A) (A) (A) (A) (A) (A) (A) (A)
                 (A) (A) (A) (A) (A) (A) (A) (A) (A) (A) (A) (A)
                 (A) (A) (A) (A) (A) (A) (A) (A) (A) (A) (A) (A)
                 (A) (A) (A) (A) (A) (A) (A) (A) (A) (A) (A) (A)
                 (A) (A) (A) (A) (A) (A) (A) (A) (A) (A) (A) (A)
                 (A) (A) (A) (A) (A) (A) (A) (A) (A) (A) (A) (A)
                 (A) (A) (A) (A) (A) (A) (A) (A) (A) (A) (A) (A)
                 (A) (A) (A) (A) (A) (A) (A) (A) (A) (A) (A) (A)
                 (A) (A) (A) (A) (A) (A) (A) (A) (A) (A) (A) (A)
                 (A) (A) (A) (A) (A) (A) (A) (A) (A) (A) (A) (A)
                 (A) (A) (A) (A) (A) (A) (A) (A) (A) (A) (A) (A)
                 (A) (A) (A) (A) (A) (A) (A) (A) (A) (A) (A) (A)
                 (A) (A) (A) (A) (A) (A) (A) (A) (A) (A) (A) (A)
                 (A) (A) (A) (A) (A) (A) (A) (A) (A) (A) (A) (A)
                 (A) (A) (A) (A) (A) (A) (A) (A) (A) (A) (A) (A)
                 (A) (A) (A) (A) (A) (A) (A) (A) (A) (A) (A) (A)
                 (A) (A) (A) (A) (A) (A) (A) (A) (A) (A) (A) (A)
                 (A) (A) (A) (A) (A) (A) (A) (A) (A) (A) (A) (A)
                 (A) (A) (A) (A) (A) (A) (A) (A) (A) (A) (A) (A)
                 (A) (A) (A) (A) (A) (A) (A) (A) (A) (A) (A) (A)
                 (A) (A) (A) (A) (A) (A) (A) (A) (A) (A) (A) (A)
                 (A) (A) (A) (A) (A) (A) (A) (A) (A) (A) (A) (A)
                 (A) (A) (A) (A) (A) (A) (A) (A) (A) (A) (A) (A)
                 (A) (A) (A) (A) (A) (A) (A) (A) (A) (A) (A) (A)
                 (A) (A) (A) (A) (A) (A) (A) (A) (A) (A) (A) (A)
                 (A) (A) (A) (A) (A) (A) (A) (A) (A) (A) (A) (A)
                 (A) (A) (A) (A) (A) (A) (A) (A) (A) (A) (A) (A)
                 (A) (A) (A) (A) (A) (A) (A) (A) (A) (A) (A) (A)
                 (A) (A) (A) (A) (A) (A) (A) (A) (A) (A) (A) (A)
                 (A) (A) (A) (A) (A) (A) (A) (A) (A) (A) (A) (A)
                 (A) (A) (A) (A) (A) (A) (A) (A) (A) (A) (A) (A)
                 (A) (A) (A) (A) (A) (A) (A) (A) (A) (A) (A) (A)
                 (A) (A) (A) (A) (A) (A) (A) (A) (A) (A) (A) (A)
                 (A) (A) (A) (A) (A) (A) (A) (A) (A) (A) (A) (A)
                 (A) (A) (A) (A) (A) (A) (A) (A) (A) (A) (A) (A)
                 (A) (A) (A) (A) (A) (A) (A) (A) (A) (A) (A) (A)
                 (A) (A) (A) (A) (A) (A) (A) (A) (A) (A) (A) (A)
                 (A) (A) (A) (A) (A) (A) (A) (A) (A) (A) (A) (A)
                 (A) (A) (A) (A) (A) (A) (A) (A) (A) (A) (A) (A)
                 (A) (A) (A) (A) (A) (A) (A) (A) (A) (A) (A) (A)
                 (A) (A) (A) (A) (A) (A) (A) (A) (A) (A) (A) (A)
                 (A) (A) (A) (A) (A) (A) (A) (A) (A) (A) (A) (A)
                 (A) (A) (A) (A) (A) (A) (A) (A) (A) (A) (A) (A)
                 (A) (A) (A) (A) (A) (A) (A) (A) (A) (A) (A) (A)
                 (A) (A) (A) (A) (A) (A) (A) (A) (A) (A) (A) (A)
                 (A) (A) (A) (A) (A) (A) (A) (A) (A) (A) (A) (A)
                 (A) (A) (A) (A) (A) (A) (A) (A) (A) (A) (A) (A)
                 (A) (A) (A) (A) (A) (A) (A) (A) (A) (A) (A) (A)
                 (A) (A) (A) (A) (A) (A) (A) (A) (A) (A) (A) (A)
                 (A) (A) (A) (A) (A) (A) (A) (A) (A) (A) (A) (A)
                 (A) (A) (A) (A) (A) (A) (A) (A) (A) (A) (A) (A)
                 (A) (A) (A) (A) (A) (A) (A) (A) (A) (A) (A) (A)
                 (A) (A) (A) (A) (A) (A) (A) (A) (A) (A) (A) (A)
                 (A) (A) (A) (A) (A) (A) (A) (A) (A) (A) (A) (A)
                 (A) (A) (A) (A) (A) (A) (A) (A) (A) (A) (A) (A)
                 (A) (A) (A) (A) (A) (A) (A) (A) (A) (A) (A) (A)
                 (A) (A) (A) (A) (A) (A) (A) (A) (A) (A) (A) (A)
                 (A) (A) (A) (A) (A) (A) (A) (A) (A) (A) (A) (A)
                 (A) (A) (A) (A) (A) (A) (A) (A) (A) (A) (A) (A)
                 (A) (A) (A) (A) (A) (A) (A) (A) (A) (A) (A) (A)
                 (A) (A) (A) (A) (A) (A) (A) (A) (A) (A) (A) (A)
                 (A) (A) (A) (A) (A) (A) (A) (A) (A) (A) (A) (A)
                 (A) (A) (A) (A) (A) (A) (A) (A) (A) (A) (A) (A)
                 (A) (A) (A) (A)
 Beta  Orbitals:
       Occupied  (A) (A) (A) (A) (A) (A) (A) (A) (A) (A) (A) (A)
                 (A) (A) (A) (A) (A) (A) (A) (A) (A) (A) (A) (A)
                 (A) (A) (A) (A) (A) (A) (A) (A) (A) (A) (A) (A)
                 (A) (A) (A) (A) (A) (A) (A) (A) (A) (A) (A) (A)
                 (A) (A) (A) (A) (A) (A) (A) (A) (A) (A) (A) (A)
                 (A) (A) (A) (A) (A) (A) (A) (A) (A) (A) (A) (A)
                 (A) (A) (A) (A) (A) (A) (A) (A) (A) (A) (A) (A)
                 (A) (A) (A) (A) (A) (A) (A) (A) (A) (A) (A) (A)
                 (A) (A) (A) (A) (A) (A) (A) (A) (A) (A) (A) (A)
                 (A) (A) (A) (A) (A) (A) (A) (A) (A) (A) (A) (A)
                 (A) (A) (A) (A) (A) (A) (A) (A) (A) (A) (A) (A)
                 (A) (A) (A) (A) (A) (A) (A) (A) (A) (A) (A) (A)
                 (A) (A) (A) (A) (A) (A) (A) (A) (A) (A) (A) (A)
                 (A) (A) (A) (A) (A) (A) (A) (A) (A) (A) (A) (A)
                 (A) (A) (A) (A) (A) (A) (A) (A) (A) (A) (A) (A)
                 (A) (A) (A) (A) (A) (A) (A) (A) (A) (A) (A) (A)
                 (A) (A) (A) (A) (A) (A) (A) (A) (A) (A) (A)
       Virtual   (A) (A) (A) (A) (A) (A) (A) (A) (A) (A) (A) (A)
                 (A) (A) (A) (A) (A) (A) (A) (A) (A) (A) (A) (A)
                 (A) (A) (A) (A) (A) (A) (A) (A) (A) (A) (A) (A)
                 (A) (A) (A) (A) (A) (A) (A) (A) (A) (A) (A) (A)
                 (A) (A) (A) (A) (A) (A) (A) (A) (A) (A) (A) (A)
                 (A) (A) (A) (A) (A) (A) (A) (A) (A) (A) (A) (A)
                 (A) (A) (A) (A) (A) (A) (A) (A) (A) (A) (A) (A)
                 (A) (A) (A) (A) (A) (A) (A) (A) (A) (A) (A) (A)
                 (A) (A) (A) (A) (A) (A) (A) (A) (A) (A) (A) (A)
                 (A) (A) (A) (A) (A) (A) (A) (A) (A) (A) (A) (A)
                 (A) (A) (A) (A) (A) (A) (A) (A) (A) (A) (A) (A)
                 (A) (A) (A) (A) (A) (A) (A) (A) (A) (A) (A) (A)
                 (A) (A) (A) (A) (A) (A) (A) (A) (A) (A) (A) (A)
                 (A) (A) (A) (A) (A) (A) (A) (A) (A) (A) (A) (A)
                 (A) (A) (A) (A) (A) (A) (A) (A) (A) (A) (A) (A)
                 (A) (A) (A) (A) (A) (A) (A) (A) (A) (A) (A) (A)
                 (A) (A) (A) (A) (A) (A) (A) (A) (A) (A) (A) (A)
                 (A) (A) (A) (A) (A) (A) (A) (A) (A) (A) (A) (A)
                 (A) (A) (A) (A) (A) (A) (A) (A) (A) (A) (A) (A)
                 (A) (A) (A) (A) (A) (A) (A) (A) (A) (A) (A) (A)
                 (A) (A) (A) (A) (A) (A) (A) (A) (A) (A) (A) (A)
                 (A) (A) (A) (A) (A) (A) (A) (A) (A) (A) (A) (A)
                 (A) (A) (A) (A) (A) (A) (A) (A) (A) (A) (A) (A)
                 (A) (A) (A) (A) (A) (A) (A) (A) (A) (A) (A) (A)
                 (A) (A) (A) (A) (A) (A) (A) (A) (A) (A) (A) (A)
                 (A) (A) (A) (A) (A) (A) (A) (A) (A) (A) (A) (A)
                 (A) (A) (A) (A) (A) (A) (A) (A) (A) (A) (A) (A)
                 (A) (A) (A) (A) (A) (A) (A) (A) (A) (A) (A) (A)
                 (A) (A) (A) (A) (A) (A) (A) (A) (A) (A) (A) (A)
                 (A) (A) (A) (A) (A) (A) (A) (A) (A) (A) (A) (A)
                 (A) (A) (A) (A) (A) (A) (A) (A) (A) (A) (A) (A)
                 (A) (A) (A) (A) (A) (A) (A) (A) (A) (A) (A) (A)
                 (A) (A) (A) (A) (A) (A) (A) (A) (A) (A) (A) (A)
                 (A) (A) (A) (A) (A) (A) (A) (A) (A) (A) (A) (A)
                 (A) (A) (A) (A) (A) (A) (A) (A) (A) (A) (A) (A)
                 (A) (A) (A) (A) (A) (A) (A) (A) (A) (A) (A) (A)
                 (A) (A) (A) (A) (A) (A) (A) (A) (A) (A) (A) (A)
                 (A) (A) (A) (A) (A) (A) (A) (A) (A) (A) (A) (A)
                 (A) (A) (A) (A) (A) (A) (A) (A) (A) (A) (A) (A)
                 (A) (A) (A) (A) (A) (A) (A) (A) (A) (A) (A) (A)
                 (A) (A) (A) (A) (A) (A) (A) (A) (A) (A) (A) (A)
                 (A) (A) (A) (A) (A) (A) (A) (A) (A) (A) (A) (A)
                 (A) (A) (A) (A) (A) (A) (A) (A) (A) (A) (A) (A)
                 (A) (A) (A) (A) (A) (A) (A) (A) (A) (A) (A) (A)
                 (A) (A) (A) (A) (A) (A) (A) (A) (A) (A) (A) (A)
                 (A) (A) (A) (A) (A) (A) (A) (A) (A) (A) (A) (A)
                 (A) (A) (A) (A) (A) (A) (A) (A) (A) (A) (A) (A)
                 (A) (A) (A) (A) (A) (A) (A) (A) (A) (A) (A) (A)
                 (A) (A) (A) (A) (A) (A) (A) (A) (A) (A) (A) (A)
                 (A) (A) (A) (A) (A) (A) (A) (A) (A) (A) (A) (A)
                 (A) (A) (A) (A) (A) (A) (A) (A) (A) (A) (A) (A)
                 (A) (A) (A) (A) (A) (A) (A) (A) (A) (A) (A) (A)
                 (A) (A) (A) (A) (A) (A) (A) (A) (A) (A) (A) (A)
                 (A) (A) (A) (A) (A) (A) (A) (A) (A) (A) (A) (A)
                 (A) (A) (A) (A) (A) (A) (A) (A) (A) (A) (A) (A)
                 (A) (A) (A) (A) (A) (A) (A) (A) (A) (A) (A) (A)
                 (A) (A) (A) (A) (A) (A) (A) (A) (A) (A) (A) (A)
                 (A) (A) (A) (A) (A) (A) (A) (A) (A) (A) (A) (A)
                 (A) (A) (A) (A) (A) (A) (A) (A) (A) (A) (A) (A)
                 (A) (A) (A) (A) (A) (A) (A) (A) (A) (A) (A) (A)
                 (A) (A) (A) (A) (A) (A) (A) (A) (A) (A) (A) (A)
                 (A) (A) (A) (A) (A) (A) (A) (A) (A) (A) (A) (A)
                 (A) (A) (A) (A) (A) (A) (A) (A) (A) (A) (A) (A)
                 (A) (A) (A) (A) (A) (A) (A) (A) (A) (A) (A) (A)
                 (A) (A) (A) (A) (A) (A) (A) (A) (A) (A) (A) (A)
                 (A) (A) (A) (A) (A) (A) (A) (A) (A) (A) (A) (A)
                 (A) (A) (A) (A) (A) (A) (A) (A) (A) (A) (A) (A)
                 (A) (A) (A) (A) (A) (A) (A) (A) (A) (A) (A) (A)
                 (A) (A) (A) (A) (A) (A) (A) (A) (A) (A) (A) (A)
                 (A) (A) (A) (A) (A) (A) (A) (A) (A) (A) (A) (A)
                 (A) (A) (A) (A) (A) (A) (A) (A) (A) (A) (A) (A)
                 (A) (A) (A) (A) (A) (A) (A) (A) (A) (A) (A) (A)
                 (A) (A) (A) (A) (A) (A) (A) (A) (A) (A) (A) (A)
                 (A) (A) (A) (A) (A) (A) (A) (A) (A) (A) (A) (A)
                 (A) (A) (A) (A) (A) (A) (A) (A) (A) (A) (A) (A)
                 (A) (A) (A) (A) (A) (A) (A) (A) (A) (A) (A) (A)
                 (A) (A) (A) (A) (A) (A) (A) (A) (A) (A) (A) (A)
                 (A) (A) (A) (A) (A) (A) (A) (A) (A) (A) (A) (A)
                 (A) (A) (A) (A) (A) (A) (A) (A) (A) (A) (A) (A)
                 (A) (A) (A) (A) (A) (A) (A) (A) (A) (A) (A) (A)
                 (A) (A) (A) (A) (A) (A) (A) (A) (A) (A) (A) (A)
                 (A) (A) (A) (A) (A) (A) (A) (A) (A) (A) (A) (A)
                 (A) (A) (A) (A) (A) (A) (A) (A) (A) (A) (A) (A)
                 (A) (A) (A) (A) (A) (A) (A) (A) (A) (A) (A) (A)
                 (A) (A) (A) (A) (A) (A) (A) (A) (A) (A) (A) (A)
                 (A) (A) (A) (A) (A) (A) (A) (A) (A) (A) (A) (A)
                 (A) (A) (A) (A) (A) (A) (A) (A) (A) (A) (A) (A)
                 (A) (A) (A) (A) (A) (A) (A) (A) (A) (A) (A) (A)
                 (A) (A) (A) (A) (A) (A) (A) (A) (A) (A) (A) (A)
                 (A) (A) (A) (A) (A) (A) (A) (A) (A) (A) (A) (A)
                 (A) (A) (A) (A) (A) (A) (A) (A) (A) (A) (A) (A)
                 (A) (A) (A) (A) (A) (A) (A) (A) (A) (A) (A) (A)
                 (A) (A) (A) (A) (A) (A) (A) (A) (A) (A) (A) (A)
                 (A) (A) (A) (A) (A) (A) (A) (A) (A) (A) (A) (A)
                 (A) (A) (A) (A) (A) (A) (A) (A) (A) (A) (A) (A)
                 (A) (A) (A) (A) (A) (A) (A) (A) (A) (A) (A) (A)
                 (A) (A) (A) (A) (A) (A) (A) (A) (A) (A) (A) (A)
                 (A) (A) (A) (A) (A) (A) (A) (A) (A) (A) (A) (A)
                 (A) (A) (A) (A) (A) (A) (A) (A) (A) (A) (A) (A)
                 (A) (A) (A) (A) (A) (A) (A) (A) (A) (A) (A) (A)
                 (A) (A) (A) (A) (A) (A) (A) (A) (A) (A) (A) (A)
                 (A) (A) (A) (A) (A) (A) (A) (A) (A) (A) (A) (A)
                 (A) (A) (A) (A) (A) (A) (A) (A) (A) (A) (A) (A)
                 (A) (A) (A) (A) (A) (A) (A) (A) (A) (A) (A) (A)
                 (A) (A) (A) (A) (A) (A) (A) (A) (A) (A) (A) (A)
                 (A) (A) (A) (A) (A) (A) (A) (A) (A) (A) (A) (A)
                 (A) (A) (A) (A) (A) (A) (A) (A) (A) (A) (A) (A)
                 (A) (A) (A) (A) (A) (A) (A) (A) (A) (A) (A) (A)
                 (A) (A) (A) (A) (A) (A) (A) (A) (A) (A) (A) (A)
                 (A) (A) (A) (A) (A) (A) (A) (A) (A) (A) (A) (A)
                 (A) (A) (A) (A) (A) (A) (A) (A) (A) (A) (A) (A)
                 (A) (A) (A) (A) (A) (A) (A) (A) (A) (A) (A) (A)
                 (A) (A) (A) (A) (A) (A) (A) (A) (A) (A) (A) (A)
                 (A) (A) (A) (A) (A) (A) (A) (A) (A) (A) (A) (A)
                 (A) (A) (A) (A) (A) (A) (A) (A) (A) (A) (A) (A)
                 (A) (A) (A) (A) (A) (A) (A) (A) (A) (A) (A) (A)
                 (A) (A) (A) (A) (A) (A) (A) (A) (A) (A) (A) (A)
                 (A) (A) (A) (A) (A) (A) (A) (A) (A) (A) (A) (A)
                 (A) (A) (A) (A) (A) (A) (A) (A) (A) (A) (A) (A)
                 (A) (A) (A) (A) (A) (A) (A) (A) (A) (A) (A) (A)
                 (A) (A) (A) (A) (A) (A) (A) (A) (A) (A) (A) (A)
                 (A) (A) (A) (A) (A) (A) (A) (A) (A) (A) (A) (A)
                 (A) (A) (A) (A) (A) (A) (A) (A) (A) (A) (A) (A)
                 (A) (A) (A) (A) (A) (A) (A) (A) (A) (A) (A) (A)
                 (A) (A) (A) (A) (A) (A) (A) (A) (A) (A) (A) (A)
                 (A) (A) (A) (A) (A) (A) (A) (A) (A) (A) (A) (A)
                 (A) (A) (A) (A) (A) (A) (A) (A) (A) (A) (A) (A)
                 (A) (A) (A) (A) (A) (A) (A) (A) (A) (A) (A) (A)
                 (A) (A) (A) (A) (A) (A) (A) (A) (A) (A) (A) (A)
                 (A) (A) (A) (A) (A) (A) (A) (A) (A) (A) (A) (A)
                 (A) (A) (A) (A) (A) (A) (A) (A) (A) (A) (A) (A)
                 (A) (A) (A) (A) (A) (A) (A) (A) (A) (A) (A) (A)
                 (A) (A) (A) (A) (A) (A) (A) (A) (A) (A) (A) (A)
                 (A) (A) (A) (A) (A) (A) (A) (A) (A) (A) (A) (A)
                 (A) (A) (A) (A) (A) (A) (A) (A) (A) (A) (A) (A)
                 (A) (A) (A) (A) (A) (A) (A) (A) (A) (A) (A) (A)
                 (A) (A) (A) (A) (A) (A) (A) (A) (A) (A) (A) (A)
                 (A) (A) (A) (A) (A) (A) (A) (A) (A) (A) (A) (A)
                 (A) (A) (A) (A) (A) (A) (A) (A) (A) (A) (A) (A)
                 (A) (A) (A) (A) (A) (A) (A) (A) (A) (A) (A) (A)
                 (A) (A) (A) (A) (A) (A) (A) (A) (A) (A) (A) (A)
                 (A) (A) (A) (A) (A) (A) (A) (A) (A) (A) (A) (A)
                 (A) (A) (A) (A) (A) (A) (A) (A) (A) (A) (A) (A)
                 (A) (A) (A) (A) (A) (A) (A) (A) (A) (A) (A) (A)
                 (A) (A) (A) (A) (A) (A) (A) (A) (A) (A) (A) (A)
                 (A) (A) (A) (A) (A) (A) (A) (A)
 The electronic state is 5-A.
 Alpha  occ. eigenvalues -- -256.32717 -88.99108 -30.12081 -25.95542 -25.95281
 Alpha  occ. eigenvalues --  -25.91881 -19.27749 -19.26213 -19.18795 -19.16271
 Alpha  occ. eigenvalues --  -14.44524 -14.37583 -14.37551 -14.37504 -14.37289
 Alpha  occ. eigenvalues --  -14.36920 -10.36383 -10.33916 -10.27530 -10.25851
 Alpha  occ. eigenvalues --  -10.24727 -10.24635 -10.24604 -10.24578 -10.24517
 Alpha  occ. eigenvalues --  -10.24473 -10.24376 -10.24295 -10.24273 -10.23499
 Alpha  occ. eigenvalues --  -10.23414 -10.23244 -10.23086 -10.23084 -10.23080
 Alpha  occ. eigenvalues --  -10.22796 -10.22517 -10.22505 -10.22378 -10.22316
 Alpha  occ. eigenvalues --  -10.22161 -10.22153 -10.22084 -10.22037 -10.22032
 Alpha  occ. eigenvalues --  -10.21891 -10.21856 -10.21762 -10.21713 -10.21679
 Alpha  occ. eigenvalues --  -10.21654 -10.21454 -10.21427 -10.21316 -10.20097
 Alpha  occ. eigenvalues --  -10.19697 -10.18853  -7.97235  -5.90895  -5.90580
 Alpha  occ. eigenvalues --   -5.90020  -3.50859  -2.28846  -2.28352  -2.23016
 Alpha  occ. eigenvalues --   -1.17344  -1.15977  -1.06186  -1.03523  -1.01329
 Alpha  occ. eigenvalues --   -0.98203  -0.97344  -0.96958  -0.95670  -0.90557
 Alpha  occ. eigenvalues --   -0.84568  -0.84091  -0.83901  -0.83712  -0.83442
 Alpha  occ. eigenvalues --   -0.82982  -0.81606  -0.81438  -0.81225  -0.79427
 Alpha  occ. eigenvalues --   -0.79248  -0.78600  -0.77854  -0.76090  -0.75827
 Alpha  occ. eigenvalues --   -0.74456  -0.72728  -0.72608  -0.72066  -0.71835
 Alpha  occ. eigenvalues --   -0.70285  -0.69733  -0.68456  -0.67310  -0.66622
 Alpha  occ. eigenvalues --   -0.66323  -0.65976  -0.65424  -0.64680  -0.62757
 Alpha  occ. eigenvalues --   -0.62246  -0.62138  -0.59533  -0.59043  -0.58437
 Alpha  occ. eigenvalues --   -0.56693  -0.56471  -0.55563  -0.55303  -0.54458
 Alpha  occ. eigenvalues --   -0.54116  -0.53335  -0.52706  -0.52172  -0.51709
 Alpha  occ. eigenvalues --   -0.51447  -0.50199  -0.49545  -0.49183  -0.48413
 Alpha  occ. eigenvalues --   -0.48260  -0.48146  -0.48055  -0.47652  -0.47277
 Alpha  occ. eigenvalues --   -0.47002  -0.46803  -0.46524  -0.46025  -0.45822
 Alpha  occ. eigenvalues --   -0.45520  -0.45258  -0.44951  -0.44761  -0.44655
 Alpha  occ. eigenvalues --   -0.44322  -0.43993  -0.43837  -0.43718  -0.43586
 Alpha  occ. eigenvalues --   -0.43487  -0.43280  -0.43260  -0.43077  -0.42903
 Alpha  occ. eigenvalues --   -0.42834  -0.42610  -0.42503  -0.41669  -0.41491
 Alpha  occ. eigenvalues --   -0.41330  -0.40963  -0.40637  -0.40607  -0.40429
 Alpha  occ. eigenvalues --   -0.39961  -0.39748  -0.39527  -0.39186  -0.39004
 Alpha  occ. eigenvalues --   -0.38841  -0.38507  -0.38331  -0.38068  -0.37761
 Alpha  occ. eigenvalues --   -0.37455  -0.37212  -0.36960  -0.36625  -0.36390
 Alpha  occ. eigenvalues --   -0.36072  -0.35704  -0.35145  -0.35023  -0.34418
 Alpha  occ. eigenvalues --   -0.34176  -0.33766  -0.33517  -0.32891  -0.32376
 Alpha  occ. eigenvalues --   -0.32108  -0.31651  -0.31288  -0.30734  -0.30174
 Alpha  occ. eigenvalues --   -0.28907  -0.28583  -0.28384  -0.27787  -0.26665
 Alpha  occ. eigenvalues --   -0.26142  -0.25055  -0.24393  -0.23564  -0.22868
 Alpha  occ. eigenvalues --   -0.21841  -0.20940  -0.20346  -0.19457  -0.19309
 Alpha  occ. eigenvalues --   -0.18207  -0.14461
 Alpha virt. eigenvalues --   -0.07696  -0.07054  -0.02408  -0.01261  -0.00866
 Alpha virt. eigenvalues --    0.00172   0.01441   0.02114   0.02288   0.02389
 Alpha virt. eigenvalues --    0.03343   0.03856   0.04588   0.04937   0.05323
 Alpha virt. eigenvalues --    0.05429   0.05459   0.05892   0.06014   0.06559
 Alpha virt. eigenvalues --    0.06597   0.06793   0.07212   0.07538   0.07638
 Alpha virt. eigenvalues --    0.07998   0.08292   0.08380   0.09145   0.09330
 Alpha virt. eigenvalues --    0.09652   0.09894   0.10048   0.10239   0.10486
 Alpha virt. eigenvalues --    0.10655   0.11100   0.11289   0.11519   0.11575
 Alpha virt. eigenvalues --    0.11742   0.12075   0.12236   0.12292   0.12529
 Alpha virt. eigenvalues --    0.12604   0.12764   0.12968   0.13003   0.13308
 Alpha virt. eigenvalues --    0.13483   0.13772   0.13895   0.14145   0.14189
 Alpha virt. eigenvalues --    0.14274   0.14505   0.14706   0.15045   0.15246
 Alpha virt. eigenvalues --    0.15274   0.15737   0.15817   0.16158   0.16236
 Alpha virt. eigenvalues --    0.16332   0.16533   0.16716   0.17048   0.17153
 Alpha virt. eigenvalues --    0.17255   0.17713   0.17930   0.18115   0.18237
 Alpha virt. eigenvalues --    0.18389   0.18760   0.19022   0.19295   0.19612
 Alpha virt. eigenvalues --    0.19726   0.19873   0.19976   0.20195   0.20424
 Alpha virt. eigenvalues --    0.20651   0.20938   0.21013   0.21481   0.21690
 Alpha virt. eigenvalues --    0.21912   0.22012   0.22090   0.22130   0.22443
 Alpha virt. eigenvalues --    0.22691   0.22844   0.22933   0.23450   0.23567
 Alpha virt. eigenvalues --    0.23593   0.23965   0.24257   0.24542   0.24603
 Alpha virt. eigenvalues --    0.24830   0.25017   0.25322   0.25419   0.25581
 Alpha virt. eigenvalues --    0.25659   0.26130   0.26206   0.26559   0.26622
 Alpha virt. eigenvalues --    0.26860   0.27108   0.27263   0.27709   0.27751
 Alpha virt. eigenvalues --    0.28035   0.28116   0.28291   0.28577   0.29047
 Alpha virt. eigenvalues --    0.29240   0.29301   0.29569   0.29745   0.30010
 Alpha virt. eigenvalues --    0.30229   0.30363   0.30500   0.30731   0.30956
 Alpha virt. eigenvalues --    0.31263   0.31455   0.31535   0.31714   0.32279
 Alpha virt. eigenvalues --    0.32479   0.32854   0.33156   0.33323   0.33476
 Alpha virt. eigenvalues --    0.33773   0.34110   0.34214   0.34282   0.34658
 Alpha virt. eigenvalues --    0.34751   0.35099   0.35109   0.35384   0.35570
 Alpha virt. eigenvalues --    0.35719   0.35984   0.36208   0.36384   0.36707
 Alpha virt. eigenvalues --    0.37087   0.37259   0.37357   0.37495   0.37860
 Alpha virt. eigenvalues --    0.38080   0.38351   0.38482   0.38765   0.38850
 Alpha virt. eigenvalues --    0.39156   0.39255   0.39333   0.39588   0.39674
 Alpha virt. eigenvalues --    0.40112   0.40149   0.40324   0.40469   0.40713
 Alpha virt. eigenvalues --    0.40899   0.41258   0.41397   0.41669   0.41749
 Alpha virt. eigenvalues --    0.41881   0.42072   0.42192   0.42259   0.42553
 Alpha virt. eigenvalues --    0.42845   0.43034   0.43196   0.43305   0.43475
 Alpha virt. eigenvalues --    0.43718   0.43821   0.44000   0.44081   0.44251
 Alpha virt. eigenvalues --    0.44433   0.44636   0.44724   0.44774   0.45218
 Alpha virt. eigenvalues --    0.45431   0.45636   0.45678   0.46044   0.46102
 Alpha virt. eigenvalues --    0.46334   0.46417   0.46571   0.46839   0.46924
 Alpha virt. eigenvalues --    0.46999   0.47260   0.47311   0.47500   0.47695
 Alpha virt. eigenvalues --    0.47859   0.48059   0.48179   0.48362   0.48576
 Alpha virt. eigenvalues --    0.48758   0.48954   0.49182   0.49243   0.49458
 Alpha virt. eigenvalues --    0.49577   0.50013   0.50152   0.50225   0.50394
 Alpha virt. eigenvalues --    0.50574   0.50670   0.50785   0.51033   0.51273
 Alpha virt. eigenvalues --    0.51472   0.51567   0.51937   0.52008   0.52328
 Alpha virt. eigenvalues --    0.52503   0.52734   0.52960   0.53004   0.53168
 Alpha virt. eigenvalues --    0.53271   0.53465   0.53742   0.53762   0.53881
 Alpha virt. eigenvalues --    0.54011   0.54174   0.54532   0.54623   0.54705
 Alpha virt. eigenvalues --    0.54979   0.55129   0.55454   0.55712   0.55865
 Alpha virt. eigenvalues --    0.56130   0.56220   0.56543   0.56702   0.56974
 Alpha virt. eigenvalues --    0.57181   0.57451   0.57606   0.57931   0.57984
 Alpha virt. eigenvalues --    0.58124   0.58245   0.58546   0.58747   0.59074
 Alpha virt. eigenvalues --    0.59300   0.59650   0.59762   0.59911   0.59999
 Alpha virt. eigenvalues --    0.60285   0.60453   0.60805   0.61087   0.61243
 Alpha virt. eigenvalues --    0.61411   0.61803   0.62093   0.62478   0.62746
 Alpha virt. eigenvalues --    0.62955   0.63185   0.63456   0.63572   0.64001
 Alpha virt. eigenvalues --    0.64118   0.64361   0.64758   0.65197   0.65362
 Alpha virt. eigenvalues --    0.65627   0.65885   0.65951   0.66296   0.66506
 Alpha virt. eigenvalues --    0.66660   0.66774   0.67137   0.67298   0.67774
 Alpha virt. eigenvalues --    0.67920   0.68071   0.68327   0.68516   0.68858
 Alpha virt. eigenvalues --    0.69301   0.69514   0.69725   0.69964   0.70234
 Alpha virt. eigenvalues --    0.70372   0.70976   0.71050   0.71147   0.71496
 Alpha virt. eigenvalues --    0.72031   0.72376   0.72473   0.73095   0.73241
 Alpha virt. eigenvalues --    0.73492   0.73931   0.73987   0.74289   0.74621
 Alpha virt. eigenvalues --    0.74967   0.75331   0.75569   0.75870   0.76067
 Alpha virt. eigenvalues --    0.76136   0.76771   0.76874   0.77150   0.77397
 Alpha virt. eigenvalues --    0.77905   0.78076   0.78175   0.78615   0.78722
 Alpha virt. eigenvalues --    0.78927   0.79054   0.79374   0.79592   0.80079
 Alpha virt. eigenvalues --    0.80418   0.80498   0.81000   0.81239   0.81624
 Alpha virt. eigenvalues --    0.82022   0.82384   0.82493   0.83242   0.83666
 Alpha virt. eigenvalues --    0.83705   0.83803   0.84151   0.84614   0.84931
 Alpha virt. eigenvalues --    0.85003   0.85519   0.85624   0.86084   0.86174
 Alpha virt. eigenvalues --    0.86362   0.86493   0.86934   0.87145   0.87376
 Alpha virt. eigenvalues --    0.87782   0.88028   0.88367   0.88522   0.89232
 Alpha virt. eigenvalues --    0.89244   0.89652   0.89868   0.89980   0.90294
 Alpha virt. eigenvalues --    0.90667   0.91055   0.91221   0.91627   0.91870
 Alpha virt. eigenvalues --    0.92165   0.92335   0.92490   0.92631   0.92984
 Alpha virt. eigenvalues --    0.93219   0.93308   0.93745   0.93850   0.94218
 Alpha virt. eigenvalues --    0.94378   0.94756   0.94967   0.95073   0.95211
 Alpha virt. eigenvalues --    0.95690   0.95904   0.96172   0.96622   0.96840
 Alpha virt. eigenvalues --    0.97159   0.97479   0.97669   0.97917   0.98050
 Alpha virt. eigenvalues --    0.98409   0.98619   0.98920   0.99147   0.99321
 Alpha virt. eigenvalues --    0.99478   1.00004   1.00130   1.00504   1.00595
 Alpha virt. eigenvalues --    1.00748   1.01166   1.01345   1.01916   1.01965
 Alpha virt. eigenvalues --    1.02162   1.02417   1.02747   1.02918   1.03173
 Alpha virt. eigenvalues --    1.03524   1.03923   1.03999   1.04201   1.04493
 Alpha virt. eigenvalues --    1.05105   1.05586   1.05675   1.05913   1.06236
 Alpha virt. eigenvalues --    1.06525   1.06669   1.06915   1.07185   1.07639
 Alpha virt. eigenvalues --    1.07928   1.08256   1.08775   1.08988   1.09204
 Alpha virt. eigenvalues --    1.09513   1.10016   1.10194   1.10391   1.10922
 Alpha virt. eigenvalues --    1.10980   1.11635   1.11738   1.12151   1.12373
 Alpha virt. eigenvalues --    1.12926   1.12962   1.13517   1.13996   1.14272
 Alpha virt. eigenvalues --    1.14646   1.14813   1.15396   1.15560   1.16024
 Alpha virt. eigenvalues --    1.16161   1.16657   1.16867   1.17311   1.17400
 Alpha virt. eigenvalues --    1.18129   1.18397   1.18566   1.18949   1.19653
 Alpha virt. eigenvalues --    1.19771   1.19974   1.20240   1.21028   1.21132
 Alpha virt. eigenvalues --    1.21710   1.22185   1.22298   1.22588   1.23142
 Alpha virt. eigenvalues --    1.23344   1.23510   1.23806   1.24090   1.24579
 Alpha virt. eigenvalues --    1.24808   1.25150   1.25280   1.25664   1.25961
 Alpha virt. eigenvalues --    1.26164   1.26408   1.26908   1.27371   1.27653
 Alpha virt. eigenvalues --    1.28012   1.28189   1.28376   1.28508   1.29040
 Alpha virt. eigenvalues --    1.29289   1.29915   1.30130   1.30338   1.30739
 Alpha virt. eigenvalues --    1.31058   1.31110   1.31652   1.32005   1.32217
 Alpha virt. eigenvalues --    1.32895   1.33172   1.33491   1.33811   1.34247
 Alpha virt. eigenvalues --    1.34847   1.35040   1.35074   1.35716   1.36167
 Alpha virt. eigenvalues --    1.36432   1.37321   1.37560   1.37961   1.38201
 Alpha virt. eigenvalues --    1.38437   1.39349   1.39482   1.40071   1.40284
 Alpha virt. eigenvalues --    1.40836   1.41174   1.41222   1.41608   1.41845
 Alpha virt. eigenvalues --    1.42390   1.42994   1.43155   1.43469   1.44099
 Alpha virt. eigenvalues --    1.44341   1.45018   1.45346   1.45666   1.46056
 Alpha virt. eigenvalues --    1.46397   1.46832   1.47139   1.47303   1.47645
 Alpha virt. eigenvalues --    1.48368   1.48407   1.48956   1.49163   1.49372
 Alpha virt. eigenvalues --    1.49553   1.49937   1.50296   1.50496   1.51085
 Alpha virt. eigenvalues --    1.51371   1.51547   1.51909   1.51964   1.52234
 Alpha virt. eigenvalues --    1.52505   1.52917   1.53103   1.53318   1.53459
 Alpha virt. eigenvalues --    1.53798   1.54256   1.54600   1.54853   1.54969
 Alpha virt. eigenvalues --    1.55164   1.55207   1.55764   1.55795   1.56153
 Alpha virt. eigenvalues --    1.56280   1.56491   1.56847   1.56940   1.57407
 Alpha virt. eigenvalues --    1.57500   1.57633   1.57674   1.57991   1.58603
 Alpha virt. eigenvalues --    1.58785   1.59083   1.59182   1.59395   1.59661
 Alpha virt. eigenvalues --    1.59879   1.60226   1.60480   1.60596   1.60825
 Alpha virt. eigenvalues --    1.61036   1.61456   1.61708   1.62056   1.62205
 Alpha virt. eigenvalues --    1.62610   1.62925   1.63010   1.63092   1.63309
 Alpha virt. eigenvalues --    1.63672   1.63923   1.64239   1.64319   1.64696
 Alpha virt. eigenvalues --    1.64867   1.64983   1.65244   1.65670   1.65906
 Alpha virt. eigenvalues --    1.66184   1.66401   1.66814   1.67024   1.67331
 Alpha virt. eigenvalues --    1.67566   1.67712   1.67914   1.68177   1.68346
 Alpha virt. eigenvalues --    1.68780   1.68838   1.69259   1.69636   1.70080
 Alpha virt. eigenvalues --    1.70312   1.70669   1.70758   1.70831   1.71172
 Alpha virt. eigenvalues --    1.71580   1.72150   1.72254   1.72416   1.72595
 Alpha virt. eigenvalues --    1.73100   1.73309   1.73468   1.73831   1.74027
 Alpha virt. eigenvalues --    1.74421   1.74542   1.74905   1.75404   1.75602
 Alpha virt. eigenvalues --    1.76012   1.76390   1.76519   1.76656   1.77067
 Alpha virt. eigenvalues --    1.77627   1.77907   1.78257   1.78618   1.79062
 Alpha virt. eigenvalues --    1.79314   1.79906   1.80662   1.80777   1.81427
 Alpha virt. eigenvalues --    1.81553   1.82154   1.82477   1.82870   1.83027
 Alpha virt. eigenvalues --    1.83517   1.83666   1.84076   1.84627   1.85284
 Alpha virt. eigenvalues --    1.85594   1.85836   1.86045   1.86397   1.86970
 Alpha virt. eigenvalues --    1.87123   1.87469   1.87748   1.87937   1.88388
 Alpha virt. eigenvalues --    1.88796   1.89292   1.89508   1.89709   1.89978
 Alpha virt. eigenvalues --    1.90297   1.90556   1.90836   1.91526   1.91984
 Alpha virt. eigenvalues --    1.92169   1.92455   1.92799   1.93299   1.93441
 Alpha virt. eigenvalues --    1.93917   1.94458   1.94596   1.95384   1.95495
 Alpha virt. eigenvalues --    1.95601   1.95681   1.95964   1.96475   1.97021
 Alpha virt. eigenvalues --    1.97522   1.97797   1.97884   1.98663   1.99168
 Alpha virt. eigenvalues --    1.99316   1.99429   1.99912   1.99984   2.00127
 Alpha virt. eigenvalues --    2.00215   2.00640   2.00870   2.01160   2.01529
 Alpha virt. eigenvalues --    2.02025   2.02615   2.03110   2.03212   2.03452
 Alpha virt. eigenvalues --    2.04169   2.04325   2.04630   2.04801   2.05292
 Alpha virt. eigenvalues --    2.05666   2.05795   2.06386   2.06843   2.07076
 Alpha virt. eigenvalues --    2.07645   2.07857   2.08108   2.08668   2.09008
 Alpha virt. eigenvalues --    2.09500   2.10044   2.10243   2.10472   2.10788
 Alpha virt. eigenvalues --    2.11273   2.11613   2.11971   2.12185   2.12262
 Alpha virt. eigenvalues --    2.12919   2.13102   2.13557   2.13726   2.13995
 Alpha virt. eigenvalues --    2.14249   2.14436   2.15175   2.15446   2.15793
 Alpha virt. eigenvalues --    2.16109   2.16257   2.16613   2.16750   2.17228
 Alpha virt. eigenvalues --    2.17412   2.17740   2.18117   2.18282   2.18476
 Alpha virt. eigenvalues --    2.18686   2.18842   2.19420   2.19761   2.19784
 Alpha virt. eigenvalues --    2.20219   2.20553   2.20671   2.21439   2.21701
 Alpha virt. eigenvalues --    2.22153   2.22351   2.22526   2.22891   2.23414
 Alpha virt. eigenvalues --    2.23829   2.24103   2.24470   2.24635   2.24997
 Alpha virt. eigenvalues --    2.25201   2.25559   2.25841   2.26970   2.27099
 Alpha virt. eigenvalues --    2.27413   2.27790   2.28231   2.28417   2.28737
 Alpha virt. eigenvalues --    2.29141   2.29328   2.30104   2.30621   2.31054
 Alpha virt. eigenvalues --    2.31203   2.31666   2.31979   2.32238   2.32854
 Alpha virt. eigenvalues --    2.33232   2.33565   2.33871   2.34183   2.34438
 Alpha virt. eigenvalues --    2.35119   2.35464   2.35542   2.35870   2.36298
 Alpha virt. eigenvalues --    2.36645   2.37036   2.37263   2.37280   2.37679
 Alpha virt. eigenvalues --    2.38220   2.38377   2.38773   2.38958   2.39324
 Alpha virt. eigenvalues --    2.39359   2.39983   2.40184   2.40557   2.41258
 Alpha virt. eigenvalues --    2.41422   2.42034   2.42131   2.42272   2.42342
 Alpha virt. eigenvalues --    2.42730   2.43158   2.43581   2.43742   2.44039
 Alpha virt. eigenvalues --    2.44469   2.44573   2.44915   2.45608   2.46013
 Alpha virt. eigenvalues --    2.46233   2.46503   2.46625   2.47291   2.47386
 Alpha virt. eigenvalues --    2.47942   2.48139   2.49053   2.49453   2.49894
 Alpha virt. eigenvalues --    2.50021   2.50331   2.51004   2.51274   2.51526
 Alpha virt. eigenvalues --    2.51980   2.52309   2.52363   2.52480   2.52658
 Alpha virt. eigenvalues --    2.52802   2.53575   2.54055   2.54224   2.54531
 Alpha virt. eigenvalues --    2.55085   2.55237   2.55527   2.55667   2.55896
 Alpha virt. eigenvalues --    2.56457   2.56981   2.57260   2.57645   2.57788
 Alpha virt. eigenvalues --    2.58020   2.58520   2.58693   2.58895   2.59105
 Alpha virt. eigenvalues --    2.59356   2.59613   2.60032   2.60443   2.60626
 Alpha virt. eigenvalues --    2.60867   2.61028   2.61230   2.61794   2.62066
 Alpha virt. eigenvalues --    2.62302   2.62542   2.62830   2.63260   2.63592
 Alpha virt. eigenvalues --    2.63718   2.64180   2.64726   2.64780   2.65339
 Alpha virt. eigenvalues --    2.65579   2.65845   2.66308   2.66403   2.66900
 Alpha virt. eigenvalues --    2.67100   2.67466   2.67919   2.68005   2.68314
 Alpha virt. eigenvalues --    2.68734   2.69022   2.69194   2.69336   2.69587
 Alpha virt. eigenvalues --    2.70341   2.70456   2.70580   2.70764   2.71064
 Alpha virt. eigenvalues --    2.71238   2.71736   2.71910   2.72221   2.72311
 Alpha virt. eigenvalues --    2.72440   2.73086   2.73501   2.73709   2.73847
 Alpha virt. eigenvalues --    2.74182   2.74558   2.74823   2.75462   2.75568
 Alpha virt. eigenvalues --    2.75917   2.76297   2.76767   2.77031   2.77210
 Alpha virt. eigenvalues --    2.77335   2.77499   2.78109   2.78775   2.79127
 Alpha virt. eigenvalues --    2.79218   2.79532   2.79818   2.79936   2.80618
 Alpha virt. eigenvalues --    2.80651   2.81194   2.81440   2.81635   2.81741
 Alpha virt. eigenvalues --    2.82327   2.82501   2.82898   2.83480   2.83674
 Alpha virt. eigenvalues --    2.84003   2.84180   2.84843   2.84884   2.85470
 Alpha virt. eigenvalues --    2.85657   2.86021   2.86521   2.86756   2.86948
 Alpha virt. eigenvalues --    2.87394   2.87767   2.87914   2.88479   2.88710
 Alpha virt. eigenvalues --    2.89329   2.89892   2.89918   2.90441   2.90487
 Alpha virt. eigenvalues --    2.90941   2.91299   2.92258   2.92478   2.92656
 Alpha virt. eigenvalues --    2.92843   2.93085   2.93295   2.93540   2.93777
 Alpha virt. eigenvalues --    2.94124   2.94684   2.94841   2.95180   2.95417
 Alpha virt. eigenvalues --    2.95653   2.96121   2.96412   2.96735   2.97114
 Alpha virt. eigenvalues --    2.97217   2.97472   2.98266   2.98296   2.98674
 Alpha virt. eigenvalues --    2.98800   2.99076   2.99294   2.99511   2.99997
 Alpha virt. eigenvalues --    3.00421   3.00791   3.00952   3.01076   3.01479
 Alpha virt. eigenvalues --    3.01816   3.01987   3.02326   3.02564   3.02831
 Alpha virt. eigenvalues --    3.03163   3.03464   3.03659   3.03959   3.04768
 Alpha virt. eigenvalues --    3.04916   3.05160   3.05347   3.05432   3.06499
 Alpha virt. eigenvalues --    3.07045   3.07176   3.07287   3.07682   3.07830
 Alpha virt. eigenvalues --    3.08086   3.08436   3.08564   3.08990   3.09249
 Alpha virt. eigenvalues --    3.09685   3.09845   3.10236   3.10504   3.10672
 Alpha virt. eigenvalues --    3.10819   3.11146   3.11500   3.11762   3.11823
 Alpha virt. eigenvalues --    3.11960   3.12386   3.12879   3.13119   3.13445
 Alpha virt. eigenvalues --    3.13641   3.13917   3.14115   3.14353   3.14572
 Alpha virt. eigenvalues --    3.15151   3.15468   3.15625   3.15888   3.16214
 Alpha virt. eigenvalues --    3.16308   3.16632   3.16890   3.16922   3.17331
 Alpha virt. eigenvalues --    3.17557   3.17990   3.18108   3.18385   3.18716
 Alpha virt. eigenvalues --    3.18929   3.19140   3.19537   3.19911   3.20094
 Alpha virt. eigenvalues --    3.20343   3.20627   3.21082   3.21348   3.21514
 Alpha virt. eigenvalues --    3.21944   3.21993   3.22345   3.22502   3.22878
 Alpha virt. eigenvalues --    3.23071   3.23323   3.23408   3.23556   3.23940
 Alpha virt. eigenvalues --    3.24217   3.24385   3.24692   3.24766   3.25177
 Alpha virt. eigenvalues --    3.25288   3.25905   3.26109   3.26397   3.26548
 Alpha virt. eigenvalues --    3.26641   3.27065   3.27187   3.27433   3.27595
 Alpha virt. eigenvalues --    3.27704   3.27958   3.28285   3.28431   3.28735
 Alpha virt. eigenvalues --    3.29043   3.29137   3.29512   3.29751   3.30306
 Alpha virt. eigenvalues --    3.30348   3.30696   3.30829   3.31257   3.31406
 Alpha virt. eigenvalues --    3.31905   3.32117   3.32390   3.32519   3.32772
 Alpha virt. eigenvalues --    3.32988   3.33197   3.33798   3.34117   3.34274
 Alpha virt. eigenvalues --    3.34280   3.34603   3.34856   3.34893   3.35445
 Alpha virt. eigenvalues --    3.35770   3.35852   3.35947   3.36178   3.36604
 Alpha virt. eigenvalues --    3.36717   3.37134   3.37432   3.37503   3.37672
 Alpha virt. eigenvalues --    3.38186   3.38471   3.38718   3.39080   3.39175
 Alpha virt. eigenvalues --    3.39253   3.39420   3.39858   3.40073   3.40283
 Alpha virt. eigenvalues --    3.40837   3.41150   3.41252   3.41428   3.41889
 Alpha virt. eigenvalues --    3.42299   3.42532   3.42629   3.43002   3.43212
 Alpha virt. eigenvalues --    3.43674   3.43853   3.44102   3.44432   3.44703
 Alpha virt. eigenvalues --    3.44903   3.45024   3.45421   3.45598   3.45839
 Alpha virt. eigenvalues --    3.46071   3.46356   3.46710   3.46754   3.47023
 Alpha virt. eigenvalues --    3.47493   3.47685   3.47992   3.48479   3.48606
 Alpha virt. eigenvalues --    3.48929   3.49126   3.49204   3.49535   3.49654
 Alpha virt. eigenvalues --    3.50207   3.50379   3.50724   3.50888   3.51718
 Alpha virt. eigenvalues --    3.52326   3.52604   3.52771   3.53156   3.53287
 Alpha virt. eigenvalues --    3.53546   3.53648   3.54157   3.54341   3.54922
 Alpha virt. eigenvalues --    3.55245   3.55465   3.55834   3.55982   3.56509
 Alpha virt. eigenvalues --    3.56900   3.57079   3.57269   3.58199   3.58325
 Alpha virt. eigenvalues --    3.58961   3.59138   3.59470   3.59884   3.60138
 Alpha virt. eigenvalues --    3.60266   3.60658   3.60809   3.61063   3.61466
 Alpha virt. eigenvalues --    3.62131   3.62483   3.62684   3.63367   3.63800
 Alpha virt. eigenvalues --    3.63932   3.64386   3.64833   3.64974   3.65150
 Alpha virt. eigenvalues --    3.65696   3.66428   3.66732   3.66966   3.67405
 Alpha virt. eigenvalues --    3.67703   3.68028   3.68299   3.68516   3.68907
 Alpha virt. eigenvalues --    3.69340   3.69554   3.69682   3.70086   3.70399
 Alpha virt. eigenvalues --    3.70627   3.71064   3.71363   3.71687   3.72133
 Alpha virt. eigenvalues --    3.72561   3.72943   3.73351   3.73630   3.73847
 Alpha virt. eigenvalues --    3.74073   3.74296   3.74667   3.74986   3.75193
 Alpha virt. eigenvalues --    3.75633   3.75966   3.76340   3.76833   3.77133
 Alpha virt. eigenvalues --    3.77847   3.77942   3.78368   3.78523   3.79277
 Alpha virt. eigenvalues --    3.79544   3.79872   3.80005   3.80978   3.81636
 Alpha virt. eigenvalues --    3.82171   3.82952   3.83068   3.83565   3.83995
 Alpha virt. eigenvalues --    3.84701   3.85103   3.85493   3.85812   3.86523
 Alpha virt. eigenvalues --    3.86564   3.87249   3.87569   3.88314   3.88546
 Alpha virt. eigenvalues --    3.88900   3.89681   3.90161   3.90229   3.90425
 Alpha virt. eigenvalues --    3.90901   3.91327   3.92065   3.92388   3.92972
 Alpha virt. eigenvalues --    3.93208   3.93732   3.93898   3.94167   3.95045
 Alpha virt. eigenvalues --    3.95312   3.95792   3.96554   3.96792   3.97318
 Alpha virt. eigenvalues --    3.98016   3.98449   3.98769   3.99019   3.99835
 Alpha virt. eigenvalues --    4.00756   4.00993   4.01126   4.02212   4.02391
 Alpha virt. eigenvalues --    4.02667   4.03179   4.03899   4.04745   4.05000
 Alpha virt. eigenvalues --    4.05361   4.05831   4.06247   4.07119   4.07439
 Alpha virt. eigenvalues --    4.07958   4.08781   4.09295   4.10023   4.10635
 Alpha virt. eigenvalues --    4.10820   4.11343   4.11478   4.12316   4.12831
 Alpha virt. eigenvalues --    4.13579   4.14063   4.15196   4.15312   4.15738
 Alpha virt. eigenvalues --    4.16158   4.16713   4.17498   4.17858   4.18497
 Alpha virt. eigenvalues --    4.18715   4.19019   4.19186   4.19692   4.20012
 Alpha virt. eigenvalues --    4.20602   4.21055   4.21284   4.22062   4.22081
 Alpha virt. eigenvalues --    4.23068   4.23298   4.24264   4.24440   4.25105
 Alpha virt. eigenvalues --    4.25766   4.25801   4.26353   4.27002   4.27247
 Alpha virt. eigenvalues --    4.27463   4.27999   4.28847   4.29417   4.30070
 Alpha virt. eigenvalues --    4.30719   4.30960   4.31532   4.31677   4.32133
 Alpha virt. eigenvalues --    4.32738   4.33222   4.33521   4.33647   4.34648
 Alpha virt. eigenvalues --    4.35442   4.35827   4.36322   4.36666   4.37110
 Alpha virt. eigenvalues --    4.37686   4.37974   4.38389   4.38547   4.38972
 Alpha virt. eigenvalues --    4.39732   4.40193   4.40331   4.40774   4.41046
 Alpha virt. eigenvalues --    4.41151   4.41848   4.42272   4.43213   4.43365
 Alpha virt. eigenvalues --    4.44343   4.44407   4.45259   4.45484   4.45956
 Alpha virt. eigenvalues --    4.46915   4.47472   4.48133   4.48453   4.49105
 Alpha virt. eigenvalues --    4.49619   4.49999   4.50579   4.51016   4.51655
 Alpha virt. eigenvalues --    4.52234   4.52414   4.53235   4.54225   4.54750
 Alpha virt. eigenvalues --    4.55361   4.55415   4.55916   4.56798   4.57100
 Alpha virt. eigenvalues --    4.58236   4.58621   4.59278   4.59909   4.60540
 Alpha virt. eigenvalues --    4.60607   4.61411   4.62280   4.62920   4.63426
 Alpha virt. eigenvalues --    4.63618   4.64346   4.64982   4.65444   4.66143
 Alpha virt. eigenvalues --    4.67369   4.67873   4.68433   4.68994   4.69332
 Alpha virt. eigenvalues --    4.69611   4.70226   4.70615   4.71062   4.71678
 Alpha virt. eigenvalues --    4.72680   4.73009   4.73139   4.73916   4.74409
 Alpha virt. eigenvalues --    4.74560   4.75557   4.76101   4.77149   4.77388
 Alpha virt. eigenvalues --    4.77972   4.79385   4.79638   4.80572   4.81559
 Alpha virt. eigenvalues --    4.82649   4.83161   4.83614   4.84197   4.84791
 Alpha virt. eigenvalues --    4.85433   4.86388   4.87246   4.87778   4.88971
 Alpha virt. eigenvalues --    4.89202   4.89580   4.90258   4.91133   4.91897
 Alpha virt. eigenvalues --    4.93357   4.93858   4.94175   4.94529   4.95362
 Alpha virt. eigenvalues --    4.95778   4.96150   4.96709   4.97199   4.97722
 Alpha virt. eigenvalues --    4.97873   4.98857   5.00750   5.01422   5.02465
 Alpha virt. eigenvalues --    5.02895   5.03128   5.03476   5.04038   5.05194
 Alpha virt. eigenvalues --    5.05489   5.06615   5.07892   5.08139   5.11451
 Alpha virt. eigenvalues --    5.11658   5.12358   5.13108   5.14009   5.15089
 Alpha virt. eigenvalues --    5.16900   5.18033   5.18406   5.18777   5.19037
 Alpha virt. eigenvalues --    5.20227   5.20822   5.21562   5.22601   5.23023
 Alpha virt. eigenvalues --    5.23084   5.23794   5.23982   5.24385   5.24917
 Alpha virt. eigenvalues --    5.26753   5.27315   5.27969   5.30265   5.30697
 Alpha virt. eigenvalues --    5.31420   5.33571   5.35282   5.36594   5.37605
 Alpha virt. eigenvalues --    5.38185   5.38562   5.38984   5.39906   5.40853
 Alpha virt. eigenvalues --    5.41548   5.42605   5.42734   5.44840   5.44961
 Alpha virt. eigenvalues --    5.46383   5.47133   5.48281   5.49022   5.50054
 Alpha virt. eigenvalues --    5.51036   5.52545   5.53577   5.55172   5.56564
 Alpha virt. eigenvalues --    5.58747   5.58954   5.59641   5.60895   5.61417
 Alpha virt. eigenvalues --    5.62376   5.63411   5.63562   5.64274   5.64602
 Alpha virt. eigenvalues --    5.64969   5.67091   5.69255   5.70905   5.73563
 Alpha virt. eigenvalues --    5.75952   5.77041   5.79633   5.83342   5.83983
 Alpha virt. eigenvalues --    5.85238   5.85701   5.87828   5.90689   5.94862
 Alpha virt. eigenvalues --    5.96276   5.97490   5.97697   5.98448   6.00557
 Alpha virt. eigenvalues --    6.01665   6.03006   6.03693   6.04563   6.05125
 Alpha virt. eigenvalues --    6.08083   6.10507   6.13176   6.13458   6.13682
 Alpha virt. eigenvalues --    6.15297   6.17701   6.21000   6.22047   6.22211
 Alpha virt. eigenvalues --    6.24637   6.27037   6.31518   6.33533   6.37212
 Alpha virt. eigenvalues --    6.37357   6.39122   6.44227   6.44697   6.47382
 Alpha virt. eigenvalues --    6.48246   6.52838   6.55344   6.68641   6.74224
 Alpha virt. eigenvalues --    6.75312   6.76181   6.84423   6.87557   6.90164
 Alpha virt. eigenvalues --    6.93312   6.93750   6.96479   7.10275   7.13825
 Alpha virt. eigenvalues --    7.15074   7.18969   7.25917   7.32080   9.28705
 Alpha virt. eigenvalues --    9.57796   9.73425  20.42890  22.40240  22.40682
 Alpha virt. eigenvalues --   22.49275  22.52651  22.52904  22.55684  22.57599
 Alpha virt. eigenvalues --   22.58141  22.59998  22.63323  22.63977  22.69302
 Alpha virt. eigenvalues --   22.70409  22.72378  22.83609  22.86442  22.94379
 Alpha virt. eigenvalues --   22.94705  22.95871  22.97534  23.02307  23.03841
 Alpha virt. eigenvalues --   23.11044  23.11613  23.15361  23.20703  23.24917
 Alpha virt. eigenvalues --   23.28770  23.32078  23.33970  23.34513  23.45750
 Alpha virt. eigenvalues --   23.46234  23.49170  23.54877  23.56051  23.59691
 Alpha virt. eigenvalues --   23.68728  23.74876  23.78906  23.87624  32.48327
 Alpha virt. eigenvalues --   32.85038  33.00771  33.07605  33.10589  33.20486
 Alpha virt. eigenvalues --   43.93032  43.94477  43.94978  44.02082
  Beta  occ. eigenvalues -- -256.32645 -88.99050 -30.07287 -25.91463 -25.91347
  Beta  occ. eigenvalues --  -25.87812 -19.27750 -19.26213 -19.18795 -19.16272
  Beta  occ. eigenvalues --  -14.44524 -14.37540 -14.37451 -14.37359 -14.37243
  Beta  occ. eigenvalues --  -14.36914 -10.36383 -10.33916 -10.27556 -10.25840
  Beta  occ. eigenvalues --  -10.24786 -10.24675 -10.24598 -10.24590 -10.24517
  Beta  occ. eigenvalues --  -10.24493 -10.24439 -10.24291 -10.24251 -10.23497
  Beta  occ. eigenvalues --  -10.23412 -10.23263 -10.23100 -10.23098 -10.23078
  Beta  occ. eigenvalues --  -10.22522 -10.22386 -10.22331 -10.22289 -10.22162
  Beta  occ. eigenvalues --  -10.22038 -10.22030 -10.21945 -10.21864 -10.21855
  Beta  occ. eigenvalues --  -10.21850 -10.21730 -10.21685 -10.21661 -10.21468
  Beta  occ. eigenvalues --  -10.21438 -10.21359 -10.21315 -10.20979 -10.20193
  Beta  occ. eigenvalues --  -10.19797 -10.18854  -7.97165  -5.90848  -5.90507
  Beta  occ. eigenvalues --   -5.89922  -3.39348  -2.16167  -2.16115  -2.10846
  Beta  occ. eigenvalues --   -1.17345  -1.15978  -1.06118  -1.03523  -1.01330
  Beta  occ. eigenvalues --   -0.98135  -0.97285  -0.96892  -0.95651  -0.90373
  Beta  occ. eigenvalues --   -0.84496  -0.83739  -0.83363  -0.83051  -0.82648
  Beta  occ. eigenvalues --   -0.82457  -0.81565  -0.81423  -0.81154  -0.79345
  Beta  occ. eigenvalues --   -0.78794  -0.78167  -0.77812  -0.76074  -0.75786
  Beta  occ. eigenvalues --   -0.74461  -0.72717  -0.72586  -0.72048  -0.71806
  Beta  occ. eigenvalues --   -0.70285  -0.69743  -0.68457  -0.67300  -0.66603
  Beta  occ. eigenvalues --   -0.66247  -0.65958  -0.65358  -0.64535  -0.62138
  Beta  occ. eigenvalues --   -0.61179  -0.60473  -0.59481  -0.58892  -0.58319
  Beta  occ. eigenvalues --   -0.56595  -0.56369  -0.55344  -0.54700  -0.54373
  Beta  occ. eigenvalues --   -0.53871  -0.53201  -0.52585  -0.52004  -0.51578
  Beta  occ. eigenvalues --   -0.51394  -0.49954  -0.49454  -0.49115  -0.48382
  Beta  occ. eigenvalues --   -0.48232  -0.48105  -0.48012  -0.47541  -0.47134
  Beta  occ. eigenvalues --   -0.46957  -0.46409  -0.45867  -0.45804  -0.45542
  Beta  occ. eigenvalues --   -0.44994  -0.44734  -0.44649  -0.44338  -0.44075
  Beta  occ. eigenvalues --   -0.44024  -0.43822  -0.43790  -0.43554  -0.43466
  Beta  occ. eigenvalues --   -0.43361  -0.43126  -0.43029  -0.42919  -0.42740
  Beta  occ. eigenvalues --   -0.42599  -0.42361  -0.42334  -0.41653  -0.41378
  Beta  occ. eigenvalues --   -0.41179  -0.40813  -0.40543  -0.40380  -0.40292
  Beta  occ. eigenvalues --   -0.39882  -0.39677  -0.39496  -0.39122  -0.38967
  Beta  occ. eigenvalues --   -0.38686  -0.38354  -0.38178  -0.37939  -0.37478
  Beta  occ. eigenvalues --   -0.37296  -0.36928  -0.36812  -0.36260  -0.36171
  Beta  occ. eigenvalues --   -0.35504  -0.35015  -0.34706  -0.34135  -0.33792
  Beta  occ. eigenvalues --   -0.33747  -0.33158  -0.32568  -0.32189  -0.31995
  Beta  occ. eigenvalues --   -0.31670  -0.31259  -0.30348  -0.29863  -0.28926
  Beta  occ. eigenvalues --   -0.28624  -0.28422  -0.26234  -0.26140  -0.25280
  Beta  occ. eigenvalues --   -0.24582  -0.24116  -0.22633  -0.21953  -0.19808
  Beta  occ. eigenvalues --   -0.19189  -0.16792  -0.15821
  Beta virt. eigenvalues --   -0.07522  -0.07177  -0.04282  -0.03557  -0.01711
  Beta virt. eigenvalues --   -0.00876  -0.00684   0.00169   0.01431   0.02060
  Beta virt. eigenvalues --    0.02272   0.02368   0.02944   0.03491   0.03985
  Beta virt. eigenvalues --    0.04725   0.04890   0.05436   0.05447   0.05553
  Beta virt. eigenvalues --    0.05994   0.06199   0.06551   0.06730   0.06899
  Beta virt. eigenvalues --    0.07375   0.07611   0.07675   0.08122   0.08350
  Beta virt. eigenvalues --    0.08487   0.09064   0.09236   0.09574   0.09770
  Beta virt. eigenvalues --    0.10045   0.10270   0.10494   0.10705   0.10774
  Beta virt. eigenvalues --    0.11192   0.11439   0.11650   0.11694   0.11881
  Beta virt. eigenvalues --    0.12193   0.12353   0.12501   0.12609   0.12657
  Beta virt. eigenvalues --    0.12889   0.13040   0.13189   0.13394   0.13620
  Beta virt. eigenvalues --    0.13819   0.14004   0.14290   0.14430   0.14468
  Beta virt. eigenvalues --    0.14576   0.14953   0.15134   0.15373   0.15522
  Beta virt. eigenvalues --    0.15820   0.15919   0.16227   0.16399   0.16447
  Beta virt. eigenvalues --    0.16762   0.16903   0.17168   0.17211   0.17357
  Beta virt. eigenvalues --    0.17777   0.18049   0.18239   0.18386   0.18486
  Beta virt. eigenvalues --    0.18877   0.19101   0.19461   0.19771   0.19874
  Beta virt. eigenvalues --    0.20050   0.20149   0.20326   0.20577   0.20721
  Beta virt. eigenvalues --    0.21028   0.21173   0.21605   0.21802   0.22057
  Beta virt. eigenvalues --    0.22120   0.22211   0.22275   0.22570   0.22819
  Beta virt. eigenvalues --    0.22993   0.23076   0.23570   0.23711   0.23767
  Beta virt. eigenvalues --    0.24088   0.24322   0.24675   0.24763   0.25071
  Beta virt. eigenvalues --    0.25169   0.25434   0.25675   0.25753   0.26172
  Beta virt. eigenvalues --    0.26215   0.26419   0.26687   0.26824   0.27028
  Beta virt. eigenvalues --    0.27325   0.27531   0.27883   0.28094   0.28268
  Beta virt. eigenvalues --    0.28499   0.28629   0.28785   0.29155   0.29402
  Beta virt. eigenvalues --    0.29624   0.29872   0.29970   0.30359   0.30526
  Beta virt. eigenvalues --    0.30585   0.30914   0.30996   0.31230   0.31687
  Beta virt. eigenvalues --    0.31924   0.31981   0.32362   0.32579   0.32937
  Beta virt. eigenvalues --    0.33081   0.33394   0.33619   0.33803   0.34060
  Beta virt. eigenvalues --    0.34283   0.34334   0.34521   0.34842   0.34859
  Beta virt. eigenvalues --    0.35291   0.35368   0.35493   0.35745   0.36105
  Beta virt. eigenvalues --    0.36168   0.36363   0.36504   0.36788   0.37225
  Beta virt. eigenvalues --    0.37342   0.37502   0.37718   0.37943   0.38232
  Beta virt. eigenvalues --    0.38540   0.38742   0.38873   0.39062   0.39338
  Beta virt. eigenvalues --    0.39384   0.39596   0.39752   0.39870   0.40225
  Beta virt. eigenvalues --    0.40276   0.40447   0.40751   0.40967   0.41072
  Beta virt. eigenvalues --    0.41486   0.41562   0.41790   0.41888   0.42012
  Beta virt. eigenvalues --    0.42289   0.42404   0.42466   0.42670   0.42983
  Beta virt. eigenvalues --    0.43111   0.43356   0.43608   0.43675   0.43853
  Beta virt. eigenvalues --    0.44070   0.44143   0.44374   0.44405   0.44631
  Beta virt. eigenvalues --    0.44797   0.44910   0.44971   0.45325   0.45560
  Beta virt. eigenvalues --    0.45730   0.45937   0.46231   0.46408   0.46519
  Beta virt. eigenvalues --    0.46569   0.46750   0.46951   0.47008   0.47176
  Beta virt. eigenvalues --    0.47354   0.47397   0.47606   0.47824   0.48028
  Beta virt. eigenvalues --    0.48176   0.48266   0.48476   0.48760   0.48976
  Beta virt. eigenvalues --    0.49087   0.49338   0.49386   0.49621   0.49681
  Beta virt. eigenvalues --    0.50103   0.50246   0.50365   0.50469   0.50659
  Beta virt. eigenvalues --    0.50719   0.50947   0.51255   0.51507   0.51712
  Beta virt. eigenvalues --    0.51851   0.52111   0.52318   0.52468   0.52713
  Beta virt. eigenvalues --    0.52870   0.53119   0.53169   0.53365   0.53513
  Beta virt. eigenvalues --    0.53700   0.53873   0.53900   0.54083   0.54237
  Beta virt. eigenvalues --    0.54452   0.54689   0.54799   0.54987   0.55188
  Beta virt. eigenvalues --    0.55319   0.55690   0.55857   0.56134   0.56268
  Beta virt. eigenvalues --    0.56525   0.56672   0.56902   0.57271   0.57342
  Beta virt. eigenvalues --    0.57683   0.57772   0.58038   0.58128   0.58273
  Beta virt. eigenvalues --    0.58407   0.58702   0.58829   0.59143   0.59442
  Beta virt. eigenvalues --    0.59718   0.59896   0.60177   0.60296   0.60468
  Beta virt. eigenvalues --    0.60776   0.60960   0.61185   0.61304   0.61538
  Beta virt. eigenvalues --    0.61935   0.62200   0.62738   0.62859   0.63071
  Beta virt. eigenvalues --    0.63466   0.63667   0.63862   0.64152   0.64237
  Beta virt. eigenvalues --    0.64493   0.64866   0.65359   0.65498   0.65814
  Beta virt. eigenvalues --    0.66047   0.66159   0.66432   0.66673   0.66869
  Beta virt. eigenvalues --    0.67010   0.67294   0.67524   0.67906   0.68105
  Beta virt. eigenvalues --    0.68248   0.68439   0.68670   0.68944   0.69447
  Beta virt. eigenvalues --    0.69612   0.69809   0.70117   0.70328   0.70514
  Beta virt. eigenvalues --    0.71050   0.71191   0.71552   0.71627   0.72159
  Beta virt. eigenvalues --    0.72572   0.72623   0.73270   0.73401   0.73593
  Beta virt. eigenvalues --    0.74014   0.74219   0.74403   0.74760   0.75103
  Beta virt. eigenvalues --    0.75497   0.75760   0.76076   0.76189   0.76286
[...]
  Beta virt. eigenvalues --    3.36566   3.36684   3.37066   3.37186   3.37390
  Beta virt. eigenvalues --    3.37833   3.37990   3.38121   3.38481   3.38678
  Beta virt. eigenvalues --    3.39304   3.39365   3.39586   3.39823   3.39876
  Beta virt. eigenvalues --    3.40164   3.40364   3.40737   3.40988   3.41560
  Beta virt. eigenvalues --    3.41818   3.41953   3.42117   3.42354   3.42703
  Beta virt. eigenvalues --    3.43127   3.43226   3.43571   3.43885   3.44240
  Beta virt. eigenvalues --    3.44520   3.45001   3.45134   3.45285   3.45460
  Beta virt. eigenvalues --    3.45623   3.46074   3.46305   3.46612   3.46674
  Beta virt. eigenvalues --    3.47052   3.47271   3.47620   3.47769   3.47973
  Beta virt. eigenvalues --    3.48148   3.48438   3.49044   3.49203   3.49520
  Beta virt. eigenvalues --    3.49738   3.49930   3.50164   3.50527   3.50906
  Beta virt. eigenvalues --    3.51004   3.51461   3.51722   3.52618   3.52899
  Beta virt. eigenvalues --    3.53308   3.53377   3.53660   3.53902   3.54144
  Beta virt. eigenvalues --    3.54243   3.54738   3.54944   3.55575   3.55851
  Beta virt. eigenvalues --    3.56121   3.56272   3.56573   3.57092   3.57635
  Beta virt. eigenvalues --    3.57838   3.57951   3.58885   3.59160   3.59461
  Beta virt. eigenvalues --    3.59762   3.60046   3.60399   3.60855   3.61017
  Beta virt. eigenvalues --    3.61324   3.61564   3.61861   3.62329   3.62767
  Beta virt. eigenvalues --    3.63080   3.63309   3.64085   3.64350   3.64520
  Beta virt. eigenvalues --    3.64863   3.65503   3.65725   3.66003   3.66291
  Beta virt. eigenvalues --    3.67152   3.67446   3.67683   3.68115   3.68348
  Beta virt. eigenvalues --    3.68579   3.68915   3.69207   3.69709   3.69896
  Beta virt. eigenvalues --    3.70325   3.70412   3.70657   3.71114   3.71474
  Beta virt. eigenvalues --    3.71702   3.72024   3.72311   3.72779   3.73014
  Beta virt. eigenvalues --    3.73573   3.73986   3.74472   3.74571   3.74687
  Beta virt. eigenvalues --    3.75378   3.75489   3.75901   3.75958   3.76396
  Beta virt. eigenvalues --    3.76724   3.77435   3.77615   3.77855   3.78504
  Beta virt. eigenvalues --    3.78739   3.79133   3.79388   3.79947   3.80239
  Beta virt. eigenvalues --    3.80524   3.80763   3.81746   3.82379   3.82932
  Beta virt. eigenvalues --    3.83554   3.83806   3.84330   3.85017   3.85490
  Beta virt. eigenvalues --    3.85992   3.86304   3.86777   3.87294   3.87468
  Beta virt. eigenvalues --    3.87947   3.88188   3.89132   3.89260   3.89846
  Beta virt. eigenvalues --    3.90460   3.91078   3.91253   3.91507   3.91960
  Beta virt. eigenvalues --    3.92301   3.92759   3.93246   3.93856   3.94488
  Beta virt. eigenvalues --    3.94667   3.95083   3.95315   3.95995   3.96306
  Beta virt. eigenvalues --    3.96692   3.97365   3.97703   3.98183   3.98958
  Beta virt. eigenvalues --    3.99517   3.99816   3.99925   4.00602   4.01629
  Beta virt. eigenvalues --    4.01891   4.02468   4.03232   4.03278   4.03564
  Beta virt. eigenvalues --    4.04512   4.04962   4.05711   4.06106   4.06521
  Beta virt. eigenvalues --    4.06876   4.07060   4.07896   4.08255   4.08790
  Beta virt. eigenvalues --    4.09954   4.10784   4.11222   4.11448   4.12056
  Beta virt. eigenvalues --    4.12269   4.12632   4.13653   4.14290   4.14663
  Beta virt. eigenvalues --    4.15537   4.16381   4.16908   4.16967   4.17629
  Beta virt. eigenvalues --    4.18213   4.19041   4.19291   4.19525   4.19961
  Beta virt. eigenvalues --    4.20203   4.20676   4.21112   4.21571   4.21784
  Beta virt. eigenvalues --    4.22151   4.22295   4.22756   4.22808   4.23813
  Beta virt. eigenvalues --    4.24282   4.24953   4.25328   4.25901   4.26495
  Beta virt. eigenvalues --    4.27180   4.27383   4.27762   4.28108   4.28593
  Beta virt. eigenvalues --    4.29379   4.30687   4.30829   4.31326   4.31769
  Beta virt. eigenvalues --    4.32218   4.32941   4.33180   4.33271   4.33683
  Beta virt. eigenvalues --    4.34829   4.35476   4.35753   4.36061   4.36639
  Beta virt. eigenvalues --    4.36957   4.37916   4.38203   4.38772   4.39105
  Beta virt. eigenvalues --    4.39461   4.39602   4.40427   4.40675   4.40801
  Beta virt. eigenvalues --    4.41098   4.41485   4.41847   4.42051   4.42185
  Beta virt. eigenvalues --    4.42857   4.43659   4.44312   4.44758   4.45025
  Beta virt. eigenvalues --    4.45601   4.46118   4.46680   4.47227   4.47770
  Beta virt. eigenvalues --    4.48657   4.49173   4.49446   4.49759   4.50452
  Beta virt. eigenvalues --    4.50937   4.51188   4.51899   4.52683   4.53563
  Beta virt. eigenvalues --    4.54032   4.54098   4.55066   4.55610   4.56089
  Beta virt. eigenvalues --    4.56575   4.56837   4.57641   4.58250   4.59163
  Beta virt. eigenvalues --    4.59273   4.59797   4.61026   4.61305   4.62072
  Beta virt. eigenvalues --    4.62591   4.63053   4.63918   4.64416   4.64947
  Beta virt. eigenvalues --    4.65355   4.65880   4.66339   4.66942   4.68136
  Beta virt. eigenvalues --    4.68538   4.69192   4.69852   4.70047   4.70446
  Beta virt. eigenvalues --    4.70950   4.71197   4.71811   4.72753   4.73277
  Beta virt. eigenvalues --    4.73645   4.74168   4.74538   4.75202   4.75403
  Beta virt. eigenvalues --    4.76412   4.77208   4.77639   4.77834   4.78661
  Beta virt. eigenvalues --    4.80518   4.80817   4.81489   4.82480   4.83556
  Beta virt. eigenvalues --    4.83805   4.84587   4.85353   4.85855   4.86053
  Beta virt. eigenvalues --    4.87084   4.87952   4.88422   4.89779   4.90076
  Beta virt. eigenvalues --    4.90319   4.91209   4.91841   4.92573   4.94245
  Beta virt. eigenvalues --    4.94528   4.94639   4.95287   4.95848   4.96164
  Beta virt. eigenvalues --    4.96637   4.97357   4.98417   4.98655   4.98704
  Beta virt. eigenvalues --    4.99686   5.01396   5.01984   5.02988   5.03384
  Beta virt. eigenvalues --    5.03630   5.03954   5.04584   5.05934   5.06292
  Beta virt. eigenvalues --    5.07046   5.08443   5.08802   5.12018   5.12501
  Beta virt. eigenvalues --    5.13112   5.14004   5.14749   5.15523   5.17313
  Beta virt. eigenvalues --    5.18183   5.18625   5.18890   5.19202   5.20524
  Beta virt. eigenvalues --    5.21351   5.21855   5.22099   5.22603   5.23293
  Beta virt. eigenvalues --    5.23779   5.24876   5.25035   5.25638   5.27338
  Beta virt. eigenvalues --    5.28007   5.28400   5.30645   5.30927   5.31026
  Beta virt. eigenvalues --    5.33981   5.36079   5.36966   5.37593   5.37929
  Beta virt. eigenvalues --    5.38709   5.39372   5.40582   5.41427   5.42076
  Beta virt. eigenvalues --    5.43143   5.43220   5.45270   5.45794   5.47146
  Beta virt. eigenvalues --    5.47854   5.48727   5.49446   5.50453   5.51489
  Beta virt. eigenvalues --    5.53171   5.54456   5.55594   5.56989   5.59001
  Beta virt. eigenvalues --    5.59625   5.60106   5.60251   5.62285   5.62919
  Beta virt. eigenvalues --    5.63755   5.63954   5.64349   5.64723   5.65260
  Beta virt. eigenvalues --    5.67712   5.69725   5.72112   5.74350   5.76306
  Beta virt. eigenvalues --    5.77722   5.79942   5.83702   5.84605   5.84670
  Beta virt. eigenvalues --    5.85982   5.88249   5.91545   5.95244   5.95795
  Beta virt. eigenvalues --    5.98214   5.98402   5.98768   6.00830   6.02021
  Beta virt. eigenvalues --    6.03025   6.03516   6.04847   6.05386   6.08815
  Beta virt. eigenvalues --    6.11578   6.13676   6.13996   6.14165   6.14314
  Beta virt. eigenvalues --    6.18375   6.21878   6.22604   6.22703   6.23736
  Beta virt. eigenvalues --    6.27168   6.31772   6.33814   6.36393   6.37650
  Beta virt. eigenvalues --    6.39387   6.43769   6.44766   6.47357   6.48185
  Beta virt. eigenvalues --    6.53225   6.54179   6.69720   6.74747   6.74986
  Beta virt. eigenvalues --    6.75609   6.84468   6.86170   6.91083   6.92656
  Beta virt. eigenvalues --    6.94394   6.95662   7.10589   7.12760   7.15217
  Beta virt. eigenvalues --    7.17688   7.26961   7.31622   9.28802   9.57906
  Beta virt. eigenvalues --    9.73507  20.42985  22.41720  22.42096  22.49561
  Beta virt. eigenvalues --   22.53334  22.54748  22.56719  22.58313  22.58707
  Beta virt. eigenvalues --   22.60829  22.64191  22.64706  22.69620  22.71398
  Beta virt. eigenvalues --   22.72977  22.84611  22.87864  22.94883  22.95509
  Beta virt. eigenvalues --   22.96492  22.97893  23.02610  23.04167  23.11430
  Beta virt. eigenvalues --   23.12152  23.16168  23.21052  23.25192  23.29090
  Beta virt. eigenvalues --   23.32338  23.34776  23.35023  23.46034  23.46491
  Beta virt. eigenvalues --   23.49625  23.55218  23.56227  23.59084  23.68931
  Beta virt. eigenvalues --   23.75144  23.79154  23.87850  32.49892  32.85932
  Beta virt. eigenvalues --   33.00950  33.07836  33.10785  33.20800  43.93257
  Beta virt. eigenvalues --   43.94429  43.95207  44.01497
          Condensed to atoms (all electrons):
          Atomic-Atomic Spin Densities.
 Mulliken charges and spin densities:
               1          2
     1  C   -0.412700   0.001051
     2  C    0.157779   0.004564
     3  N   -0.215564  -0.001175
     4  C   -0.243529  -0.004128
     5  C   -0.014051  -0.011563
     6  N    0.037200   0.053086
     7  C   -0.359090   0.001161
     8  C   -0.180265   0.005444
     9  S    0.007042   0.048585
    10  C   -0.395413   0.000552
    11  Fe  -0.318219   2.181489
    12  C   -0.609625  -0.016519
    13  C   -0.539363   0.010935
    14  C   -0.552515   0.025851
    15  C   -0.503723  -0.013287
    16  N    0.042706  -0.013887
    17  C    0.278676  -0.009860
    18  C   -0.013589  -0.008689
    19  C   -0.089826  -0.000306
    20  C    0.204668  -0.024465
    21  C   -0.427793   0.000484
    22  C   -0.313470   0.001378
    23  C   -0.285116  -0.000382
    24  C    0.329499  -0.000020
    25  O   -0.421868  -0.000019
    26  O   -0.333360  -0.000038
    27  N   -0.027907   0.015304
    28  C    0.258992  -0.034794
    29  C   -0.101820   0.072836
    30  C    0.075953  -0.122429
    31  C    0.112854  -0.016824
    32  C   -0.398251  -0.003453
    33  C   -0.282679   0.976777
    34  C   -0.341820  -0.068596
    35  N    0.023245  -0.002334
    36  C    0.278407  -0.041021
    37  C   -0.070338   0.119049
    38  C    0.011345  -0.156210
    39  C    0.190623   0.008091
    40  C   -0.429343  -0.007888
    41  C   -0.301082   0.963016
    42  C   -0.329329  -0.073554
    43  N   -0.006169  -0.007765
    44  C    0.204556  -0.010766
    45  C   -0.110568  -0.011424
    46  C    0.036373  -0.008116
    47  C    0.238443  -0.006839
    48  C   -0.423780   0.000829
    49  C   -0.359233   0.001506
    50  C   -0.262501  -0.000747
    51  C    0.323129  -0.000207
    52  O   -0.432462  -0.000121
    53  O   -0.305784  -0.000001
    54  H    0.157327  -0.000004
    55  H    0.152039   0.000183
    56  H    0.144230   0.000158
    57  H    0.163881   0.001918
    58  H    0.266674   0.002694
    59  H    0.183248   0.002315
    60  H    0.164417   0.000467
    61  H    0.155597   0.002317
    62  H    0.145481  -0.000126
    63  H    0.130094  -0.000395
    64  H    0.134519   0.000015
    65  H    0.109531  -0.000422
    66  H    0.118461   0.000229
    67  H    0.138922   0.004135
    68  H    0.144196   0.078165
    69  H    0.131925   0.032042
    70  H    0.136092   0.008541
    71  H    0.149710  -0.047830
    72  H    0.135432   0.007437
    73  H    0.141275   0.083938
    74  H    0.138070   0.042092
    75  H    0.145172  -0.049586
    76  H    0.141427   0.000426
    77  H    0.156784   0.003203
    78  H    0.155118   0.004485
    79  H    0.158200  -0.000058
    80  H    0.152987   0.003208
    81  H    0.139452  -0.000193
    82  H    0.141091   0.001596
    83  H    0.151857  -0.000469
    84  H    0.148307  -0.000303
    85  H    0.142646  -0.000029
    86  H    0.152434  -0.000272
    87  H    0.142781   0.000012
    88  H    0.135626  -0.000429
    89  H    0.151083  -0.000007
    90  H    0.169596   0.000095
    91  H    0.381639   0.000001
    92  H    0.380134   0.000011
    93  H    0.164320   0.000081
    94  H    0.134818   0.000079
    95  H    0.148530  -0.000283
    96  H    0.143149  -0.000020
    97  H    0.142471   0.000582
    98  H    0.139307   0.000188
    99  H    0.153590  -0.000462
   100  H    0.151719  -0.000225
   101  H    0.135292   0.005941
 Sum of Mulliken charges =  -0.00000   4.00000
 Mulliken charges and spin densities with hydrogens summed into heavy atoms:
               1          2
     1  C    0.040897   0.001387
     2  C    0.157779   0.004564
     3  N    0.051110   0.001518
     4  C   -0.079648  -0.002210
     5  C    0.169197  -0.009248
     6  N    0.037200   0.053086
     7  C    0.015055   0.000359
     8  C    0.077117   0.009808
     9  S    0.007042   0.048585
    10  C    0.070082   0.003210
    11  Fe  -0.318219   2.181489
    12  C   -0.467155  -0.015938
    13  C   -0.387506   0.010466
    14  C   -0.394315   0.025793
    15  C   -0.368431  -0.007346
    16  N    0.042706  -0.013887
    17  C    0.278676  -0.009860
    18  C   -0.013589  -0.008689
    19  C   -0.089826  -0.000306
    20  C    0.204668  -0.024465
    21  C    0.015595  -0.000120
    22  C   -0.035063   0.000960
    23  C    0.035563  -0.000294
    24  C    0.329499  -0.000020
    25  O   -0.421868  -0.000019
    26  O    0.048279  -0.000037
    27  N   -0.027907   0.015304
    28  C    0.258992  -0.034794
    29  C   -0.101820   0.072836
    30  C    0.075953  -0.122429
    31  C    0.112854  -0.016824
    32  C    0.035279   0.001158
    33  C   -0.132969   0.928947
    34  C    0.070393   0.050153
    35  N    0.023245  -0.002334
    36  C    0.278407  -0.041021
    37  C   -0.070338   0.119049
    38  C    0.011345  -0.156210
    39  C    0.190623   0.008091
    40  C    0.023986   0.000226
    41  C   -0.155910   0.913430
    42  C    0.085448   0.059912
    43  N   -0.006169  -0.007765
    44  C    0.204556  -0.010766
    45  C   -0.110568  -0.011424
    46  C    0.036373  -0.008116
    47  C    0.238443  -0.006839
    48  C    0.020837   0.000330
    49  C   -0.067554   0.001203
    50  C    0.036637  -0.000588
    51  C    0.323129  -0.000207
    52  O   -0.432462  -0.000121
    53  O    0.074350   0.000010
 Electronic spatial extent (au):  <R**2>=          33825.7664
 Charge=             -0.0000 electrons
 Dipole moment (field-independent basis, Debye):
    X=              8.9181    Y=             -7.6474    Z=              8.4142  Tot=             14.4504
 Quadrupole moment (field-independent basis, Debye-Ang):
   XX=           -381.2201   YY=           -307.6843   ZZ=           -287.3190
   XY=             39.8128   XZ=            -33.8748   YZ=             -6.3510
 Traceless Quadrupole moment (field-independent basis, Debye-Ang):
   XX=            -55.8123   YY=             17.7235   ZZ=             38.0888
   XY=             39.8128   XZ=            -33.8748   YZ=             -6.3510
 Octapole moment (field-independent basis, Debye-Ang**2):
  XXX=            811.8551  YYY=           -189.9678  ZZZ=            170.3545  XYY=            139.7663
  XXY=           -243.3796  XXZ=            164.7175  XZZ=            -25.4913  YZZ=            -91.6471
  YYZ=            119.1258  XYZ=             -1.0185
 Hexadecapole moment (field-independent basis, Debye-Ang**3):
 XXXX=         -29435.4029 YYYY=         -14348.9794 ZZZZ=          -5114.0753 XXXY=           1317.6786
 XXXZ=          -1165.2103 YYYX=           1300.7356 YYYZ=             78.7435 ZZZX=           -195.2741
 ZZZY=           -447.3931 XXYY=          -7442.7037 XXZZ=          -4921.8057 YYZZ=          -3288.0389
 XXYZ=            229.9496 YYXZ=           -652.2671 ZZXY=            319.8465
 N-N= 8.975336478289D+03 E-N=-2.707991242443D+04  KE= 3.869481364242D+03
 1\1\GINC-NODE463\SP\UPBE1PBE\def2TZVP\C41H48Fe1N6O4S1(5)\ZHARTOVSKA\08
 -Feb-2023\0\\# PBE1PBE/def2TZVP empiricaldispersion=GD3BJ int=(grid=ul
 trafine) geom=check guess=read scrf=(smd,solvent=Chloroform)\\2ce0_II_
 Q_solv\\0,5\C,0,3.129,43.032001,9.118\C,0,1.868,43.118999,8.322\N,0,0.
 821,42.243,8.505\C,0,1.498,43.953999,7.325\C,0,-0.145,42.541,7.649\N,0
 ,0.246,43.563999,6.905\C,0,-4.421,46.051998,4.498\C,0,-3.158,46.528999
 ,3.845\S,0,-1.989,45.251999,3.656\C,0,-0.978,45.750999,2.271\Fe,0,-0.7
 96,44.398998,5.398\C,0,-2.981,41.816002,5.156\C,0,1.359,42.792999,3.29
 \C,0,1.179,47.182999,5.304\C,0,-2.686,45.830002,7.849\N,0,-0.812,42.64
 7999,4.396\C,0,-1.805,41.693001,4.471\C,0,-1.402,40.542,3.702\C,0,-0.1
 99,40.821999,3.166\C,0,0.187,42.147999,3.598\C,0,0.669,39.923,2.262\C,
 0,-2.244,39.243,3.594\C,0,-2.013,38.433998,4.89\C,0,-2.937,37.243999,5
 .074\O,0,-3.965,37.154999,4.362\O,0,-2.67,36.370998,5.955\N,0,0.947,44
 .882999,4.491\C,0,1.707,44.073002,3.673\C,0,2.888,44.797001,3.259\C,0,
 2.813,46.014999,3.812\C,0,1.608,46.085999,4.592\C,0,3.978,44.203999,2.
 337\C,0,3.809,47.18,3.639\C,0,4.003,47.707001,2.397\N,0,-0.773,46.1689
 99,6.389\C,0,0.132,47.192001,6.189\C,0,-0.148,48.237999,7.131\C,0,-1.2
 09,47.856998,7.847\C,0,-1.621,46.554001,7.392\C,0,0.67,49.546001,7.247
 \C,0,-1.891,48.624001,8.997\C,0,-2.329,49.888,8.858\N,0,-2.532,43.9109
 99,6.343\C,0,-3.176,44.685001,7.288\C,0,-4.458,44.120998,7.604\C,0,-4.
 542,42.891998,6.757\C,0,-3.319,42.821999,6.016\C,0,-5.505,44.655998,8.
 574\C,0,-5.733,41.931,6.71\C,0,-6.646,42.365002,5.56\C,0,-7.816,41.424
 ,5.435\O,0,-8.941,41.839001,5.799\O,0,-7.605,40.273998,4.973\H,0,3.898
 41926,43.59277462,8.62971018\H,0,2.96176316,43.43251599,10.09601819\H,
 0,3.43009121,42.00839439,9.19845863\H,0,2.07229992,44.76791853,6.93434
 081\H,0,0.79438889,41.50176912,9.17572247\H,0,-1.08616166,42.03788724,
 7.57159017\H,0,-0.0559105,45.20847086,2.28872499\H,0,-1.49626488,45.54
 375797,1.35811848\H,0,-0.77608769,46.79974218,2.33633889\H,0,-4.250285
 36,45.91186518,5.54495716\H,0,-5.19246041,46.77985979,4.35669869\H,0,-
 4.72137288,45.12394085,4.05824318\H,0,-2.72966825,47.3049142,4.4444893
 8\H,0,-3.39549254,46.92687114,2.8805338\H,0,3.4481434,48.61727382,2.30
 514394\H,0,5.04412221,47.90787717,2.25342666\H,0,3.66902419,47.0095472
 6,1.65746066\H,0,4.3403097,47.56910042,4.48233319\H,0,-3.02108093,50.1
 1391748,9.64214621\H,0,-1.49874754,50.56094518,8.91020771\H,0,-2.81563
 366,49.99474417,7.91106106\H,0,-2.02053181,48.1335325,9.93910517\H,0,1
 .6001253,49.4319812,6.73050565\H,0,0.11704172,50.35223613,6.81211835\H
 ,0,0.85858351,49.7584346,8.27860468\H,0,1.70496398,48.10278021,5.15478
 732\H,0,4.84900554,43.97617213,2.91522509\H,0,3.60995628,43.30973009,1
 .87904046\H,0,4.22948091,44.91564886,1.57857279\H,0,2.06872946,42.2536
 6009,2.69814053\H,0,1.59189139,39.70415158,2.75725432\H,0,0.14755698,3
 9.01075391,2.05999939\H,0,0.86972419,40.43041649,1.34159883\H,0,-1.925
 25836,38.67212648,2.74700107\H,0,-3.28104972,39.48847865,3.49824979\H,
 0,-1.00344714,38.0794518,4.89005661\H,0,-2.14063138,39.0914623,5.72447
 643\H,0,-1.75621791,36.16385985,6.16403608\H,0,-6.70484702,39.96439451
 ,4.84862038\H,0,-6.08962855,42.36051465,4.64603574\H,0,-7.0068373,43.3
 5437719,5.74929654\H,0,-5.386234,40.93315698,6.53981585\H,0,-6.2699216
 6,41.97480529,7.63449783\H,0,-3.70981915,41.04758697,5.00348447\H,0,-5
 .11506155,45.51268913,9.08285\H,0,-6.38492412,44.93303573,8.03188964\H
 ,0,-5.74999283,43.89783122,9.288186\H,0,-3.18085816,46.19281164,8.7255
 7548\\Version=ES64L-G16RevA.03\State=5-A\HF=-3880.6015064\S2=6.205066\
 S2-1=0.\S2A=6.011439\RMSD=5.926e-10\Dipole=5.4488683,-0.2255803,1.6064
 381\Quadrupole=-45.2319152,24.1851566,21.0467586,-34.3711618,-0.200630
 8,-12.7712459\PG=C01 [X(C41H48Fe1N6O4S1)]\\@


 LIVE PURE, SPEAK TRUE, RIGHT WRONG, FOLLOW THE KING...
 ELSE, WHEREFORE BORN......
           IDYLLS OF THE KING, TENNYSON
 Job cpu time:       5 days  5 hours 57 minutes 59.5 seconds.
 Elapsed time:       1 days  7 hours 36 minutes 35.4 seconds.
 File lengths (MBytes):  RWF=   4360 Int=      0 D2E=      0 Chk=    295 Scr=      1
 Normal termination of Gaussian 16 at Wed Feb  8 09:03:19 2023.
