 Entering Gaussian System, Link 0=g16
 Input=/work/kleich/bench/splitthejobs/1es1/1es112/1es112.com
 Output=/work/kleich/bench/splitthejobs/1es1/1es112/1es112.log
 Initial command:
 /afs/math/software/gaussian/g16.A03/g16/l1.exe "/scratch/kleich_gaussian.UfvcQOq/Gau-27087.inp" -scrdir="/scratch/kleich_gaussian.UfvcQOq/"
 Entering Link 1 = /afs/math/software/gaussian/g16.A03/g16/l1.exe PID=     27088.
  
 Copyright (c) 1988,1990,1992,1993,1995,1998,2003,2009,2016,
            Gaussian, Inc.  All Rights Reserved.
  
 This is part of the Gaussian(R) 16 program.  It is based on
 the Gaussian(R) 09 system (copyright 2009, Gaussian, Inc.),
 the Gaussian(R) 03 system (copyright 2003, Gaussian, Inc.),
 the Gaussian(R) 98 system (copyright 1998, Gaussian, Inc.),
 the Gaussian(R) 94 system (copyright 1995, Gaussian, Inc.),
 the Gaussian 92(TM) system (copyright 1992, Gaussian, Inc.),
 the Gaussian 90(TM) system (copyright 1990, Gaussian, Inc.),
 the Gaussian 88(TM) system (copyright 1988, Gaussian, Inc.),
 the Gaussian 86(TM) system (copyright 1986, Carnegie Mellon
 University), and the Gaussian 82(TM) system (copyright 1983,
 Carnegie Mellon University). Gaussian is a federally registered
 trademark of Gaussian, Inc.
  
 This software contains proprietary and confidential information,
 including trade secrets, belonging to Gaussian, Inc.
  
 This software is provided under written license and may be
 used, copied, transmitted, or stored only in accord with that
 written license.
  
 The following legend is applicable only to US Government
 contracts under FAR:
  
                    RESTRICTED RIGHTS LEGEND
  
 Use, reproduction and disclosure by the US Government is
 subject to restrictions as set forth in subparagraphs (a)
 and (c) of the Commercial Computer Software - Restricted
 Rights clause in FAR 52.227-19.
  
 Gaussian, Inc.
 340 Quinnipiac St., Bldg. 40, Wallingford CT 06492
  
  
 ---------------------------------------------------------------
 Warning -- This program may not be used in any manner that
 competes with the business of Gaussian, Inc. or will provide
 assistance to any competitor of Gaussian, Inc.  The licensee
 of this program is prohibited from giving any competitor of
 Gaussian, Inc. access to this program.  By using this program,
 the user acknowledges that Gaussian, Inc. is engaged in the
 business of creating and licensing software in the field of
 computational chemistry and represents and warrants to the
 licensee that it is not a competitor of Gaussian, Inc. and that
 it will not use this program in any manner prohibited above.
 ---------------------------------------------------------------
  

 Cite this work as:
 Gaussian 16, Revision A.03,
 M. J. Frisch, G. W. Trucks, H. B. Schlegel, G. E. Scuseria, 
 M. A. Robb, J. R. Cheeseman, G. Scalmani, V. Barone, 
 G. A. Petersson, H. Nakatsuji, X. Li, M. Caricato, A. V. Marenich, 
 J. Bloino, B. G. Janesko, R. Gomperts, B. Mennucci, H. P. Hratchian, 
 J. V. Ortiz, A. F. Izmaylov, J. L. Sonnenberg, D. Williams-Young, 
 F. Ding, F. Lipparini, F. Egidi, J. Goings, B. Peng, A. Petrone, 
 T. Henderson, D. Ranasinghe, V. G. Zakrzewski, J. Gao, N. Rega, 
 G. Zheng, W. Liang, M. Hada, M. Ehara, K. Toyota, R. Fukuda, 
 J. Hasegawa, M. Ishida, T. Nakajima, Y. Honda, O. Kitao, H. Nakai, 
 T. Vreven, K. Throssell, J. A. Montgomery, Jr., J. E. Peralta, 
 F. Ogliaro, M. J. Bearpark, J. J. Heyd, E. N. Brothers, K. N. Kudin, 
 V. N. Staroverov, T. A. Keith, R. Kobayashi, J. Normand, 
 K. Raghavachari, A. P. Rendell, J. C. Burant, S. S. Iyengar, 
 J. Tomasi, M. Cossi, J. M. Millam, M. Klene, C. Adamo, R. Cammi, 
 J. W. Ochterski, R. L. Martin, K. Morokuma, O. Farkas, 
 J. B. Foresman, and D. J. Fox, Gaussian, Inc., Wallingford CT, 2016.
 
 ******************************************
 Gaussian 16:  AM64L-G16RevA.03 25-Dec-2016
                12-Oct-2022 
 ******************************************
 %nprocs=12
 Will use up to   12 processors via shared memory.
 %mem=16GB
 %oldchk=1es1_II_S.chk
 %chk=1es1_III_D.chk
 Copying data from "1es1_II_S.chk" to current chk file "1es1_III_D.chk"
 IOpt=  2 FromEx=T IUOpen= 4 IOptOp= 5 NList=   0 IFRang= 0 IUIn= 4 IUOut= 2.
 ----------------------------------------------------------------------
 # PBE1PBE/def2TZVP empiricaldispersion=GD3BJ int=(grid=ultrafine) geom
 =check pop=nbo
 ----------------------------------------------------------------------
 1/29=2,38=1,172=1/1;
 2/12=2,40=1/2;
 3/5=44,7=101,11=2,14=-4,25=1,30=1,74=-13,75=-5,124=41/1,2,3;
 4//1;
 5/5=2,38=5/2;
 6/7=2,8=2,9=2,10=2,28=1,40=1/1,7;
 99/5=1,9=1/99;
 ----------
 1es1_III_D
 ----------
 Structure from the checkpoint file:  "1es1_III_D.chk"
 Charge =  1 Multiplicity = 2
 Z-Matrix found in chk file.
 C,0,10.389,7.264,-0.33
 C,0,10.259,5.837,-0.756
 N,0,9.134,5.066,-0.552
 C,0,11.151,5.032,-1.386
 C,0,9.377,3.851,-1.051
 N,0,10.59,3.786,-1.567
 C,0,15.294,-1.376,-4.837
 C,0,14.155,-0.842,-4.034
 N,0,13.153,-1.622,-3.506
 C,0,13.828,0.437,-3.727
 C,0,12.272,-0.809,-2.914
 N,0,12.643,0.45,-3.024
 C,0,10.604,2.74,-5.477
 C,0,14.465,4.118,-2.957
 C,0,13.023,1.409,0.762
 C,0,8.949,0.248,-1.643
 C,0,11.847,3.243,-5.138
 C,0,12.689,3.98,-6.045
 C,0,13.741,4.42,-5.313
 C,0,13.553,3.927,-3.964
 C,0,14.926,5.206,-5.829
 C,0,12.516,4.197,-7.544
 C,0,12.704,2.938,-8.38
 C,0,14.03,2.26,-8.115
 O,0,15.081,2.905,-8.307
 O,0,14.021,1.08,-7.709
 C,0,14.378,3.519,-1.705
 C,0,15.454,3.576,-0.732
 C,0,15.067,2.779,0.297
 C,0,13.74,2.28,-0.026
 C,0,16.767,4.356,-0.901
 C,0,15.891,2.344,1.32
 C,0,15.811,2.826,2.613
 C,0,11.803,0.824,0.411
 C,0,11.068,-0.079,1.279
 C,0,9.894,-0.389,0.647
 C,0,9.929,0.33,-0.627
 C,0,11.49,-0.455,2.707
 C,0,8.843,-1.203,1.073
 C,0,8.724,-1.87,2.298
 C,0,9.038,0.896,-2.887
 C,0,8.005,0.907,-3.919
 C,0,8.492,1.577,-4.993
 C,0,9.801,2.015,-4.623
 C,0,6.58,0.399,-3.808
 C,0,7.791,1.784,-6.337
 C,0,7.888,0.521,-7.174
 C,0,6.983,0.554,-8.391
 O,0,6.894,-0.478,-9.09
 O,0,6.357,1.606,-8.646
 N,0,12.403,3.173,-3.862
 N,0,13.341,2.706,-1.291
 N,0,11.114,1.069,-0.755
 N,0,10.119,1.648,-3.315
 Fe,0,11.722,2.174,-2.311
 H,0,11.39301548,7.59530484,-0.49459044
 H,0,9.71568828,7.86922777,-0.90030753
 H,0,10.15134638,7.34887162,0.70981612
 H,0,12.13475414,5.31903192,-1.6937994
 H,0,8.68088072,3.03856669,-1.03456622
 H,0,16.12537355,-0.70615757,-4.76608356
 H,0,15.57677429,-2.33661723,-4.45996785
 H,0,14.99647121,-1.4680826,-5.86066861
 H,0,14.40076373,1.3017994,-3.98960941
 H,0,11.38334878,-1.13758422,-2.41677629
 H,0,10.24220082,2.92579471,-6.46668767
 H,0,15.29388273,4.76755728,-3.14654883
 H,0,13.43167283,1.15988615,1.71898945
 H,0,8.08093901,-0.34767135,-1.45183054
 H,0,15.83157875,4.76053392,-5.47349037
 H,0,14.92068971,5.19801828,-6.89895705
 H,0,14.86393187,6.21541865,-5.47954108
 H,0,13.30389399,4.85992132,-7.83496116
 H,0,11.49510642,4.48705096,-7.68018638
 H,0,12.7334206,3.26008784,-9.39994796
 H,0,11.94937887,2.25147381,-8.05731015
 H,0,17.57858644,3.776441,-0.5132645
 H,0,16.93363033,4.55312077,-1.93940153
 H,0,16.70312161,5.28160954,-0.36802109
 H,0,16.62586767,1.59821028,1.09939356
 H,0,15.08553266,3.5720822,2.86191462
 H,0,16.47453864,2.4530382,3.36500796
 H,0,10.92579482,-0.809282,3.54429134
 H,0,10.90915833,0.41913513,2.91535244
 H,0,11.21262451,-1.42145384,2.34103579
 H,0,8.03498904,-1.33202301,0.38352821
 H,0,9.49755029,-1.78263903,3.03208992
 H,0,7.85949217,-2.46718181,2.50023771
 H,0,6.21394285,0.14807279,-4.78162092
 H,0,6.55871955,-0.46999403,-3.1840637
 H,0,5.96216789,1.16058706,-3.38001795
 H,0,8.34176467,2.53970743,-6.85706207
 H,0,6.75309308,1.93072391,-6.12224124
 H,0,7.52444511,-0.27299895,-6.55570112
 H,0,8.88931937,0.49072568,-7.54995609
 H,0,7.68908665,-0.92343443,-9.39170413
 H,0,15.93354949,2.48202666,-8.18109166
 H,0,8.28782269,5.36325904,-0.10970934
 H,0,13.09388415,-2.61900255,-3.55591233
 Recover connectivity data from disk.
 Center=     11.71287671      2.01178952     -2.94560547
 Residue   0                        charge    0.00000000 layers R        AvRTP=      2.58417927    243.74169436    156.17688519
 Residue   4                        charge    0.00000000 layers R        AvRTP=      0.00000000      0.00000000      0.00000000
 Residue   2 PDB Number    63_A HIS charge    0.00000000 layers R        AvRTP=      3.70683377    309.56710070    105.84552655
 Residue   3 PDB Number   201_A HEM charge    0.00000000 layers R        AvRTP=      0.13368844    219.02449887    106.40813221
 Residue   1 PDB Number    39_A HIS charge    0.00000000 layers R        AvRTP=      4.44151601    111.69608844     61.45485724
 Stoichiometry    C42H44FeN8O4(1+,2)
 Framework group  C1[X(C42H44FeN8O4)]
 Deg. of freedom   291
 Full point group                 C1      NOp   1
 Largest Abelian subgroup         C1      NOp   1
 Largest concise Abelian subgroup C1      NOp   1
                         Standard orientation:                         
 ---------------------------------------------------------------------
 Center     Atomic      Atomic             Coordinates (Angstroms)
 Number     Number       Type             X           Y           Z
 ---------------------------------------------------------------------
      1          6           0       -2.376143   -0.158234    5.582419
      2          6           0       -1.849930    0.387159    4.293872
      3          7           0       -1.578163    1.720338    4.069240
      4          6           0       -1.548717   -0.252873    3.136194
      5          6           0       -1.134542    1.839813    2.814967
      6          7           0       -1.100846    0.666369    2.211854
      7          6           0        0.492488   -2.311109   -4.720870
      8          6           0        0.137980   -1.290222   -3.691599
      9          7           0        0.064346    0.060284   -3.940392
     10          6           0       -0.100267   -1.434919   -2.365205
     11          6           0       -0.206164    0.674143   -2.783848
     12          7           0       -0.314690   -0.196163   -1.801193
     13          6           0        2.580579   -0.318988    0.848554
     14          6           0       -1.264239   -3.212404    0.802467
     15          6           0       -4.021767    0.450955   -0.689125
     16          6           0       -0.217458    3.474221   -0.347774
     17          6           0        1.777270   -1.444853    0.838492
     18          6           0        2.264017   -2.780018    1.073423
     19          6           0        1.170587   -3.578740    1.124239
     20          6           0        0.017919   -2.732608    0.892698
     21          6           0        1.165071   -5.080504    1.305762
     22          6           0        3.705352   -3.264006    1.184463
     23          6           0        4.484369   -3.201514   -0.122651
     24          6           0        3.787773   -3.935281   -1.247163
     25          8           0        3.539582   -5.150158   -1.105867
     26          8           0        3.483353   -3.294029   -2.273536
     27          6           0       -2.358136   -2.441833    0.423677
     28          6           0       -3.661609   -3.015666    0.141846
     29          6           0       -4.426249   -1.992472   -0.318825
     30          6           0       -3.606946   -0.792234   -0.269507
     31          6           0       -4.035878   -4.497255    0.302308
     32          6           0       -5.654240   -2.134150   -0.940674
     33          6           0       -6.851707   -1.801503   -0.335703
     34          6           0       -3.211060    1.587157   -0.764124
     35          6           0       -3.691543    2.887398   -1.197214
     36          6           0       -2.653297    3.770407   -1.070169
     37          6           0       -1.526759    2.985827   -0.563604
     38          6           0       -5.149860    3.203268   -1.560783
     39          6           0       -2.612248    5.139281   -1.340673
     40          6           0       -3.665314    5.955020   -1.771133
     41          6           0        0.865427    2.684600    0.075569
     42          6           0        2.203748    3.173138    0.395667
     43          6           0        2.980533    2.102598    0.695824
     44          6           0        2.127857    0.959533    0.603244
     45          6           0        2.657374    4.615141    0.521609
     46          6           0        4.473976    2.120190    1.027343
     47          6           0        5.287805    2.260104   -0.246727
     48          6           0        6.749057    2.565944    0.022361
     49          8           0        7.490249    2.815605   -0.952242
     50          8           0        7.155736    2.563120    1.204820
     51          7           0        0.392524   -1.422220    0.682998
     52          7           0       -2.311195   -1.089399    0.147173
     53          7           0       -1.889324    1.643010   -0.384390
     54          7           0        0.818749    1.315536    0.277398
     55         26           0       -0.735671    0.118124    0.211960
     56          1           0       -2.614104   -1.194289    5.460501
     57          1           0       -1.633566   -0.050194    6.345182
     58          1           0       -3.257406    0.379406    5.863877
     59          1           0       -1.643811   -1.305175    2.967324
     60          1           0       -0.845035    2.763880    2.359791
     61          1           0        0.080271   -3.257980   -4.440846
     62          1           0        0.094253   -2.015042   -5.668843
     63          1           0        1.557109   -2.392243   -4.790868
     64          1           0       -0.118932   -2.365957   -1.838213
     65          1           0       -0.319469    1.732174   -2.671455
     66          1           0        3.621272   -0.448991    1.060585
     67          1           0       -1.432828   -4.242466    1.037944
     68          1           0       -5.045785    0.556158   -0.981046
     69          1           0       -0.039022    4.515368   -0.518278
     70          1           0        0.526475   -5.526125    0.571925
     71          1           0        2.159653   -5.457507    1.189248
     72          1           0        0.805182   -5.320142    2.284513
     73          1           0        3.645179   -4.301769    1.438093
     74          1           0        4.192268   -2.578813    1.846521
     75          1           0        5.400510   -3.726017    0.051942
     76          1           0        4.504190   -2.170421   -0.407877
     77          1           0       -4.661787   -4.797231   -0.512033
     78          1           0       -3.146086   -5.091526    0.305958
     79          1           0       -4.560390   -4.634746    1.224741
     80          1           0       -5.677991   -2.519990   -1.938403
     81          1           0       -6.857699   -1.413469    0.661440
     82          1           0       -7.772686   -1.932032   -0.864533
     83          1           0       -5.696987    4.122782   -1.567480
     84          1           0       -5.179180    3.402799   -0.509961
     85          1           0       -4.651642    3.703182   -2.365001
     86          1           0       -1.666594    5.620645   -1.203096
     87          1           0       -4.637172    5.535750   -1.927995
     88          1           0       -3.498367    6.997800   -1.943294
     89          1           0        3.710180    4.674988    0.340178
     90          1           0        2.137293    5.216486   -0.194491
     91          1           0        2.444630    4.971112    1.507978
     92          1           0        4.708531    1.160070    1.437286
     93          1           0        4.650106    3.005054    1.602577
     94          1           0        4.895156    3.114761   -0.756911
     95          1           0        5.267897    1.299752   -0.718136
     96          1           0        7.501935    2.226079   -1.709819
     97          1           0        3.132192   -5.643275   -1.821736
     98          1           0       -1.692688    2.464403    4.727458
     99          1           0        0.190561    0.503883   -4.827686
 ---------------------------------------------------------------------
 Rotational constants (GHZ):           0.0601254           0.0458176           0.0361345
 Standard basis: def2TZVP (5D, 7F)
 There are  2260 symmetry adapted cartesian basis functions of A   symmetry.
 There are  1983 symmetry adapted basis functions of A   symmetry.
  1983 basis functions,  3208 primitive gaussians,  2260 cartesian basis functions
   205 alpha electrons      204 beta electrons
       nuclear repulsion energy      8970.5809964871 Hartrees.
 NAtoms=   99 NActive=   99 NUniq=   99 SFac= 1.00D+00 NAtFMM=   60 NAOKFM=T Big=T
 Integral buffers will be    131072 words long.
 Raffenetti 2 integral format.
 Two-electron integral symmetry is turned on.
 Nuclear repulsion after empirical dispersion term =     8970.4364949169 Hartrees.
 One-electron integrals computed using PRISM.
   1 Symmetry operations used in ECPInt.
 ECPInt:  NShTT=  308505 NPrTT=  954269 LenC2=  226969 LenP2D=  452321.
 LDataN:  DoStor=T MaxTD1= 6 Len=  172
 NBasis=  1983 RedAO= T EigKep=  2.85D-06  NBF=  1983
 NBsUse=  1983 1.00D-06 EigRej= -1.00D+00 NBFU=  1983
 ExpMin= 4.20D-02 ExpMax= 3.01D+05 ExpMxC= 2.91D+03 IAcc=3 IRadAn=         5 AccDes= 0.00D+00
 Harris functional with IExCor= 1009 and IRadAn=       5 diagonalized for initial guess.
 HarFok:  IExCor= 1009 AccDes= 0.00D+00 IRadAn=         5 IDoV= 1 UseB2=F ITyADJ=14
 ICtDFT=  3500011 ScaDFX=  1.000000  1.000000  1.000000  1.000000
 FoFCou: FMM=F IPFlag=           0 FMFlag=      100000 FMFlg1=        2001
         NFxFlg=           0 DoJE=T BraDBF=F KetDBF=T FulRan=T
         wScrn=  0.000000 ICntrl=       500 IOpCl=  0 I1Cent=   200000004 NGrid=           0
         NMat0=    1 NMatS0=      1 NMatT0=    0 NMatD0=    1 NMtDS0=    0 NMtDT0=    0
 Petite list used in FoFCou.
 Initial guess <Sx>= 0.0000 <Sy>= 0.0000 <Sz>= 0.5000 <S**2>= 0.7500 S= 0.5000
 Requested convergence on RMS density matrix=1.00D-08 within 128 cycles.
 Requested convergence on MAX density matrix=1.00D-06.
 Requested convergence on             energy=1.00D-06.
 No special actions if energy rises.
 EnCoef did   100 forward-backward iterations
 Restarting incremental Fock formation.
 Restarting incremental Fock formation.
 SCF Done:  E(UPBE1PBE) =  -3627.32082407     A.U. after   58 cycles
            NFock= 58  Conv=0.11D-08     -V/T= 2.0034
 <Sx>= 0.0000 <Sy>= 0.0000 <Sz>= 0.5000 <S**2>= 0.8609 S= 0.5540
 <L.S>= 0.000000000000E+00
 Annihilation of the first spin contaminant:
 S**2 before annihilation     0.8609,   after     0.7519

 **********************************************************************

            Population analysis using the SCF density.

 **********************************************************************

 Orbital symmetries:
 Alpha Orbitals:
       Occupied  (A) (A) (A) (A) (A) (A) (A) (A) (A) (A) (A) (A)
                 (A) (A) (A) (A) (A) (A) (A) (A) (A) (A) (A) (A)
                 (A) (A) (A) (A) (A) (A) (A) (A) (A) (A) (A) (A)
                 (A) (A) (A) (A) (A) (A) (A) (A) (A) (A) (A) (A)
                 (A) (A) (A) (A) (A) (A) (A) (A) (A) (A) (A) (A)
                 (A) (A) (A) (A) (A) (A) (A) (A) (A) (A) (A) (A)
                 (A) (A) (A) (A) (A) (A) (A) (A) (A) (A) (A) (A)
                 (A) (A) (A) (A) (A) (A) (A) (A) (A) (A) (A) (A)
                 (A) (A) (A) (A) (A) (A) (A) (A) (A) (A) (A) (A)
                 (A) (A) (A) (A) (A) (A) (A) (A) (A) (A) (A) (A)
                 (A) (A) (A) (A) (A) (A) (A) (A) (A) (A) (A) (A)
                 (A) (A) (A) (A) (A) (A) (A) (A) (A) (A) (A) (A)
                 (A) (A) (A) (A) (A) (A) (A) (A) (A) (A) (A) (A)
                 (A) (A) (A) (A) (A) (A) (A) (A) (A) (A) (A) (A)
                 (A) (A) (A) (A) (A) (A) (A) (A) (A) (A) (A) (A)
                 (A) (A) (A) (A) (A) (A) (A) (A) (A) (A) (A) (A)
                 (A) (A) (A) (A) (A) (A) (A) (A) (A) (A) (A) (A)
                 (A)
       Virtual   (A) (A) (A) (A) (A) (A) (A) (A) (A) (A) (A) (A)
                 (A) (A) (A) (A) (A) (A) (A) (A) (A) (A) (A) (A)
                 (A) (A) (A) (A) (A) (A) (A) (A) (A) (A) (A) (A)
                 (A) (A) (A) (A) (A) (A) (A) (A) (A) (A) (A) (A)
                 (A) (A) (A) (A) (A) (A) (A) (A) (A) (A) (A) (A)
                 (A) (A) (A) (A) (A) (A) (A) (A) (A) (A) (A) (A)
                 (A) (A) (A) (A) (A) (A) (A) (A) (A) (A) (A) (A)
                 (A) (A) (A) (A) (A) (A) (A) (A) (A) (A) (A) (A)
                 (A) (A) (A) (A) (A) (A) (A) (A) (A) (A) (A) (A)
                 (A) (A) (A) (A) (A) (A) (A) (A) (A) (A) (A) (A)
                 (A) (A) (A) (A) (A) (A) (A) (A) (A) (A) (A) (A)
                 (A) (A) (A) (A) (A) (A) (A) (A) (A) (A) (A) (A)
                 (A) (A) (A) (A) (A) (A) (A) (A) (A) (A) (A) (A)
                 (A) (A) (A) (A) (A) (A) (A) (A) (A) (A) (A) (A)
                 (A) (A) (A) (A) (A) (A) (A) (A) (A) (A) (A) (A)
                 (A) (A) (A) (A) (A) (A) (A) (A) (A) (A) (A) (A)
                 (A) (A) (A) (A) (A) (A) (A) (A) (A) (A) (A) (A)
                 (A) (A) (A) (A) (A) (A) (A) (A) (A) (A) (A) (A)
                 (A) (A) (A) (A) (A) (A) (A) (A) (A) (A) (A) (A)
                 (A) (A) (A) (A) (A) (A) (A) (A) (A) (A) (A) (A)
                 (A) (A) (A) (A) (A) (A) (A) (A) (A) (A) (A) (A)
                 (A) (A) (A) (A) (A) (A) (A) (A) (A) (A) (A) (A)
                 (A) (A) (A) (A) (A) (A) (A) (A) (A) (A) (A) (A)
                 (A) (A) (A) (A) (A) (A) (A) (A) (A) (A) (A) (A)
                 (A) (A) (A) (A) (A) (A) (A) (A) (A) (A) (A) (A)
                 (A) (A) (A) (A) (A) (A) (A) (A) (A) (A) (A) (A)
                 (A) (A) (A) (A) (A) (A) (A) (A) (A) (A) (A) (A)
                 (A) (A) (A) (A) (A) (A) (A) (A) (A) (A) (A) (A)
                 (A) (A) (A) (A) (A) (A) (A) (A) (A) (A) (A) (A)
                 (A) (A) (A) (A) (A) (A) (A) (A) (A) (A) (A) (A)
                 (A) (A) (A) (A) (A) (A) (A) (A) (A) (A) (A) (A)
                 (A) (A) (A) (A) (A) (A) (A) (A) (A) (A) (A) (A)
                 (A) (A) (A) (A) (A) (A) (A) (A) (A) (A) (A) (A)
                 (A) (A) (A) (A) (A) (A) (A) (A) (A) (A) (A) (A)
                 (A) (A) (A) (A) (A) (A) (A) (A) (A) (A) (A) (A)
                 (A) (A) (A) (A) (A) (A) (A) (A) (A) (A) (A) (A)
                 (A) (A) (A) (A) (A) (A) (A) (A) (A) (A) (A) (A)
                 (A) (A) (A) (A) (A) (A) (A) (A) (A) (A) (A) (A)
                 (A) (A) (A) (A) (A) (A) (A) (A) (A) (A) (A) (A)
                 (A) (A) (A) (A) (A) (A) (A) (A) (A) (A) (A) (A)
                 (A) (A) (A) (A) (A) (A) (A) (A) (A) (A) (A) (A)
                 (A) (A) (A) (A) (A) (A) (A) (A) (A) (A) (A) (A)
                 (A) (A) (A) (A) (A) (A) (A) (A) (A) (A) (A) (A)
                 (A) (A) (A) (A) (A) (A) (A) (A) (A) (A) (A) (A)
                 (A) (A) (A) (A) (A) (A) (A) (A) (A) (A) (A) (A)
                 (A) (A) (A) (A) (A) (A) (A) (A) (A) (A) (A) (A)
                 (A) (A) (A) (A) (A) (A) (A) (A) (A) (A) (A) (A)
                 (A) (A) (A) (A) (A) (A) (A) (A) (A) (A) (A) (A)
                 (A) (A) (A) (A) (A) (A) (A) (A) (A) (A) (A) (A)
                 (A) (A) (A) (A) (A) (A) (A) (A) (A) (A) (A) (A)
                 (A) (A) (A) (A) (A) (A) (A) (A) (A) (A) (A) (A)
                 (A) (A) (A) (A) (A) (A) (A) (A) (A) (A) (A) (A)
                 (A) (A) (A) (A) (A) (A) (A) (A) (A) (A) (A) (A)
                 (A) (A) (A) (A) (A) (A) (A) (A) (A) (A) (A) (A)
                 (A) (A) (A) (A) (A) (A) (A) (A) (A) (A) (A) (A)
                 (A) (A) (A) (A) (A) (A) (A) (A) (A) (A) (A) (A)
                 (A) (A) (A) (A) (A) (A) (A) (A) (A) (A) (A) (A)
                 (A) (A) (A) (A) (A) (A) (A) (A) (A) (A) (A) (A)
                 (A) (A) (A) (A) (A) (A) (A) (A) (A) (A) (A) (A)
                 (A) (A) (A) (A) (A) (A) (A) (A) (A) (A) (A) (A)
                 (A) (A) (A) (A) (A) (A) (A) (A) (A) (A) (A) (A)
                 (A) (A) (A) (A) (A) (A) (A) (A) (A) (A) (A) (A)
                 (A) (A) (A) (A) (A) (A) (A) (A) (A) (A) (A) (A)
                 (A) (A) (A) (A) (A) (A) (A) (A) (A) (A) (A) (A)
                 (A) (A) (A) (A) (A) (A) (A) (A) (A) (A) (A) (A)
                 (A) (A) (A) (A) (A) (A) (A) (A) (A) (A) (A) (A)
                 (A) (A) (A) (A) (A) (A) (A) (A) (A) (A) (A) (A)
                 (A) (A) (A) (A) (A) (A) (A) (A) (A) (A) (A) (A)
                 (A) (A) (A) (A) (A) (A) (A) (A) (A) (A) (A) (A)
                 (A) (A) (A) (A) (A) (A) (A) (A) (A) (A) (A) (A)
                 (A) (A) (A) (A) (A) (A) (A) (A) (A) (A) (A) (A)
                 (A) (A) (A) (A) (A) (A) (A) (A) (A) (A) (A) (A)
                 (A) (A) (A) (A) (A) (A) (A) (A) (A) (A) (A) (A)
                 (A) (A) (A) (A) (A) (A) (A) (A) (A) (A) (A) (A)
                 (A) (A) (A) (A) (A) (A) (A) (A) (A) (A) (A) (A)
                 (A) (A) (A) (A) (A) (A) (A) (A) (A) (A) (A) (A)
                 (A) (A) (A) (A) (A) (A) (A) (A) (A) (A) (A) (A)
                 (A) (A) (A) (A) (A) (A) (A) (A) (A) (A) (A) (A)
                 (A) (A) (A) (A) (A) (A) (A) (A) (A) (A) (A) (A)
                 (A) (A) (A) (A) (A) (A) (A) (A) (A) (A) (A) (A)
                 (A) (A) (A) (A) (A) (A) (A) (A) (A) (A) (A) (A)
                 (A) (A) (A) (A) (A) (A) (A) (A) (A) (A) (A) (A)
                 (A) (A) (A) (A) (A) (A) (A) (A) (A) (A) (A) (A)
                 (A) (A) (A) (A) (A) (A) (A) (A) (A) (A) (A) (A)
                 (A) (A) (A) (A) (A) (A) (A) (A) (A) (A) (A) (A)
                 (A) (A) (A) (A) (A) (A) (A) (A) (A) (A) (A) (A)
                 (A) (A) (A) (A) (A) (A) (A) (A) (A) (A) (A) (A)
                 (A) (A) (A) (A) (A) (A) (A) (A) (A) (A) (A) (A)
                 (A) (A) (A) (A) (A) (A) (A) (A) (A) (A) (A) (A)
                 (A) (A) (A) (A) (A) (A) (A) (A) (A) (A) (A) (A)
                 (A) (A) (A) (A) (A) (A) (A) (A) (A) (A) (A) (A)
                 (A) (A) (A) (A) (A) (A) (A) (A) (A) (A) (A) (A)
                 (A) (A) (A) (A) (A) (A) (A) (A) (A) (A) (A) (A)
                 (A) (A) (A) (A) (A) (A) (A) (A) (A) (A) (A) (A)
                 (A) (A) (A) (A) (A) (A) (A) (A) (A) (A) (A) (A)
                 (A) (A) (A) (A) (A) (A) (A) (A) (A) (A) (A) (A)
                 (A) (A) (A) (A) (A) (A) (A) (A) (A) (A) (A) (A)
                 (A) (A) (A) (A) (A) (A) (A) (A) (A) (A) (A) (A)
                 (A) (A) (A) (A) (A) (A) (A) (A) (A) (A) (A) (A)
                 (A) (A) (A) (A) (A) (A) (A) (A) (A) (A) (A) (A)
                 (A) (A) (A) (A) (A) (A) (A) (A) (A) (A) (A) (A)
                 (A) (A) (A) (A) (A) (A) (A) (A) (A) (A) (A) (A)
                 (A) (A) (A) (A) (A) (A) (A) (A) (A) (A) (A) (A)
                 (A) (A) (A) (A) (A) (A) (A) (A) (A) (A) (A) (A)
                 (A) (A) (A) (A) (A) (A) (A) (A) (A) (A) (A) (A)
                 (A) (A) (A) (A) (A) (A) (A) (A) (A) (A) (A) (A)
                 (A) (A) (A) (A) (A) (A) (A) (A) (A) (A) (A) (A)
                 (A) (A) (A) (A) (A) (A) (A) (A) (A) (A) (A) (A)
                 (A) (A) (A) (A) (A) (A) (A) (A) (A) (A) (A) (A)
                 (A) (A) (A) (A) (A) (A) (A) (A) (A) (A) (A) (A)
                 (A) (A) (A) (A) (A) (A) (A) (A) (A) (A) (A) (A)
                 (A) (A) (A) (A) (A) (A) (A) (A) (A) (A) (A) (A)
                 (A) (A) (A) (A) (A) (A) (A) (A) (A) (A) (A) (A)
                 (A) (A) (A) (A) (A) (A) (A) (A) (A) (A) (A) (A)
                 (A) (A) (A) (A) (A) (A) (A) (A) (A) (A) (A) (A)
                 (A) (A) (A) (A) (A) (A) (A) (A) (A) (A) (A) (A)
                 (A) (A) (A) (A) (A) (A) (A) (A) (A) (A) (A) (A)
                 (A) (A) (A) (A) (A) (A) (A) (A) (A) (A) (A) (A)
                 (A) (A) (A) (A) (A) (A) (A) (A) (A) (A) (A) (A)
                 (A) (A) (A) (A) (A) (A) (A) (A) (A) (A) (A) (A)
                 (A) (A) (A) (A) (A) (A) (A) (A) (A) (A) (A) (A)
                 (A) (A) (A) (A) (A) (A) (A) (A) (A) (A) (A) (A)
                 (A) (A) (A) (A) (A) (A) (A) (A) (A) (A) (A) (A)
                 (A) (A) (A) (A) (A) (A) (A) (A) (A) (A) (A) (A)
                 (A) (A) (A) (A) (A) (A) (A) (A) (A) (A) (A) (A)
                 (A) (A) (A) (A) (A) (A) (A) (A) (A) (A) (A) (A)
                 (A) (A) (A) (A) (A) (A) (A) (A) (A) (A) (A) (A)
                 (A) (A) (A) (A) (A) (A) (A) (A) (A) (A) (A) (A)
                 (A) (A) (A) (A) (A) (A) (A) (A) (A) (A) (A) (A)
                 (A) (A) (A) (A) (A) (A) (A) (A) (A) (A) (A) (A)
                 (A) (A) (A) (A) (A) (A) (A) (A) (A) (A) (A) (A)
                 (A) (A) (A) (A) (A) (A) (A) (A) (A) (A) (A) (A)
                 (A) (A) (A) (A) (A) (A) (A) (A) (A) (A) (A) (A)
                 (A) (A) (A) (A) (A) (A) (A) (A) (A) (A) (A) (A)
                 (A) (A) (A) (A) (A) (A) (A) (A) (A) (A) (A) (A)
                 (A) (A) (A) (A) (A) (A) (A) (A) (A) (A) (A) (A)
                 (A) (A) (A) (A) (A) (A) (A) (A) (A) (A) (A) (A)
                 (A) (A) (A) (A) (A) (A) (A) (A) (A) (A) (A) (A)
                 (A) (A) (A) (A) (A) (A) (A) (A) (A) (A) (A) (A)
                 (A) (A) (A) (A) (A) (A) (A) (A) (A) (A) (A) (A)
                 (A) (A) (A) (A) (A) (A) (A) (A) (A) (A) (A) (A)
                 (A) (A) (A) (A) (A) (A) (A) (A) (A) (A) (A) (A)
                 (A) (A) (A) (A) (A) (A) (A) (A) (A) (A) (A) (A)
                 (A) (A) (A) (A) (A) (A) (A) (A) (A) (A) (A) (A)
                 (A) (A) (A) (A) (A) (A) (A) (A) (A) (A) (A) (A)
                 (A) (A) (A) (A) (A) (A) (A) (A) (A) (A) (A) (A)
                 (A) (A) (A) (A) (A) (A) (A) (A) (A) (A) (A) (A)
                 (A) (A) (A) (A) (A) (A) (A) (A) (A) (A) (A) (A)
                 (A) (A)
 Beta  Orbitals:
       Occupied  (A) (A) (A) (A) (A) (A) (A) (A) (A) (A) (A) (A)
                 (A) (A) (A) (A) (A) (A) (A) (A) (A) (A) (A) (A)
                 (A) (A) (A) (A) (A) (A) (A) (A) (A) (A) (A) (A)
                 (A) (A) (A) (A) (A) (A) (A) (A) (A) (A) (A) (A)
                 (A) (A) (A) (A) (A) (A) (A) (A) (A) (A) (A) (A)
                 (A) (A) (A) (A) (A) (A) (A) (A) (A) (A) (A) (A)
                 (A) (A) (A) (A) (A) (A) (A) (A) (A) (A) (A) (A)
                 (A) (A) (A) (A) (A) (A) (A) (A) (A) (A) (A) (A)
                 (A) (A) (A) (A) (A) (A) (A) (A) (A) (A) (A) (A)
                 (A) (A) (A) (A) (A) (A) (A) (A) (A) (A) (A) (A)
                 (A) (A) (A) (A) (A) (A) (A) (A) (A) (A) (A) (A)
                 (A) (A) (A) (A) (A) (A) (A) (A) (A) (A) (A) (A)
                 (A) (A) (A) (A) (A) (A) (A) (A) (A) (A) (A) (A)
                 (A) (A) (A) (A) (A) (A) (A) (A) (A) (A) (A) (A)
                 (A) (A) (A) (A) (A) (A) (A) (A) (A) (A) (A) (A)
                 (A) (A) (A) (A) (A) (A) (A) (A) (A) (A) (A) (A)
                 (A) (A) (A) (A) (A) (A) (A) (A) (A) (A) (A) (A)
       Virtual   (A) (A) (A) (A) (A) (A) (A) (A) (A) (A) (A) (A)
                 (A) (A) (A) (A) (A) (A) (A) (A) (A) (A) (A) (A)
                 (A) (A) (A) (A) (A) (A) (A) (A) (A) (A) (A) (A)
                 (A) (A) (A) (A) (A) (A) (A) (A) (A) (A) (A) (A)
                 (A) (A) (A) (A) (A) (A) (A) (A) (A) (A) (A) (A)
                 (A) (A) (A) (A) (A) (A) (A) (A) (A) (A) (A) (A)
                 (A) (A) (A) (A) (A) (A) (A) (A) (A) (A) (A) (A)
                 (A) (A) (A) (A) (A) (A) (A) (A) (A) (A) (A) (A)
                 (A) (A) (A) (A) (A) (A) (A) (A) (A) (A) (A) (A)
                 (A) (A) (A) (A) (A) (A) (A) (A) (A) (A) (A) (A)
                 (A) (A) (A) (A) (A) (A) (A) (A) (A) (A) (A) (A)
                 (A) (A) (A) (A) (A) (A) (A) (A) (A) (A) (A) (A)
                 (A) (A) (A) (A) (A) (A) (A) (A) (A) (A) (A) (A)
                 (A) (A) (A) (A) (A) (A) (A) (A) (A) (A) (A) (A)
                 (A) (A) (A) (A) (A) (A) (A) (A) (A) (A) (A) (A)
                 (A) (A) (A) (A) (A) (A) (A) (A) (A) (A) (A) (A)
                 (A) (A) (A) (A) (A) (A) (A) (A) (A) (A) (A) (A)
                 (A) (A) (A) (A) (A) (A) (A) (A) (A) (A) (A) (A)
                 (A) (A) (A) (A) (A) (A) (A) (A) (A) (A) (A) (A)
                 (A) (A) (A) (A) (A) (A) (A) (A) (A) (A) (A) (A)
                 (A) (A) (A) (A) (A) (A) (A) (A) (A) (A) (A) (A)
                 (A) (A) (A) (A) (A) (A) (A) (A) (A) (A) (A) (A)
                 (A) (A) (A) (A) (A) (A) (A) (A) (A) (A) (A) (A)
                 (A) (A) (A) (A) (A) (A) (A) (A) (A) (A) (A) (A)
                 (A) (A) (A) (A) (A) (A) (A) (A) (A) (A) (A) (A)
                 (A) (A) (A) (A) (A) (A) (A) (A) (A) (A) (A) (A)
                 (A) (A) (A) (A) (A) (A) (A) (A) (A) (A) (A) (A)
                 (A) (A) (A) (A) (A) (A) (A) (A) (A) (A) (A) (A)
                 (A) (A) (A) (A) (A) (A) (A) (A) (A) (A) (A) (A)
                 (A) (A) (A) (A) (A) (A) (A) (A) (A) (A) (A) (A)
                 (A) (A) (A) (A) (A) (A) (A) (A) (A) (A) (A) (A)
                 (A) (A) (A) (A) (A) (A) (A) (A) (A) (A) (A) (A)
                 (A) (A) (A) (A) (A) (A) (A) (A) (A) (A) (A) (A)
                 (A) (A) (A) (A) (A) (A) (A) (A) (A) (A) (A) (A)
                 (A) (A) (A) (A) (A) (A) (A) (A) (A) (A) (A) (A)
                 (A) (A) (A) (A) (A) (A) (A) (A) (A) (A) (A) (A)
                 (A) (A) (A) (A) (A) (A) (A) (A) (A) (A) (A) (A)
                 (A) (A) (A) (A) (A) (A) (A) (A) (A) (A) (A) (A)
                 (A) (A) (A) (A) (A) (A) (A) (A) (A) (A) (A) (A)
                 (A) (A) (A) (A) (A) (A) (A) (A) (A) (A) (A) (A)
                 (A) (A) (A) (A) (A) (A) (A) (A) (A) (A) (A) (A)
                 (A) (A) (A) (A) (A) (A) (A) (A) (A) (A) (A) (A)
                 (A) (A) (A) (A) (A) (A) (A) (A) (A) (A) (A) (A)
                 (A) (A) (A) (A) (A) (A) (A) (A) (A) (A) (A) (A)
                 (A) (A) (A) (A) (A) (A) (A) (A) (A) (A) (A) (A)
                 (A) (A) (A) (A) (A) (A) (A) (A) (A) (A) (A) (A)
                 (A) (A) (A) (A) (A) (A) (A) (A) (A) (A) (A) (A)
                 (A) (A) (A) (A) (A) (A) (A) (A) (A) (A) (A) (A)
                 (A) (A) (A) (A) (A) (A) (A) (A) (A) (A) (A) (A)
                 (A) (A) (A) (A) (A) (A) (A) (A) (A) (A) (A) (A)
                 (A) (A) (A) (A) (A) (A) (A) (A) (A) (A) (A) (A)
                 (A) (A) (A) (A) (A) (A) (A) (A) (A) (A) (A) (A)
                 (A) (A) (A) (A) (A) (A) (A) (A) (A) (A) (A) (A)
                 (A) (A) (A) (A) (A) (A) (A) (A) (A) (A) (A) (A)
                 (A) (A) (A) (A) (A) (A) (A) (A) (A) (A) (A) (A)
                 (A) (A) (A) (A) (A) (A) (A) (A) (A) (A) (A) (A)
                 (A) (A) (A) (A) (A) (A) (A) (A) (A) (A) (A) (A)
                 (A) (A) (A) (A) (A) (A) (A) (A) (A) (A) (A) (A)
                 (A) (A) (A) (A) (A) (A) (A) (A) (A) (A) (A) (A)
                 (A) (A) (A) (A) (A) (A) (A) (A) (A) (A) (A) (A)
                 (A) (A) (A) (A) (A) (A) (A) (A) (A) (A) (A) (A)
                 (A) (A) (A) (A) (A) (A) (A) (A) (A) (A) (A) (A)
                 (A) (A) (A) (A) (A) (A) (A) (A) (A) (A) (A) (A)
                 (A) (A) (A) (A) (A) (A) (A) (A) (A) (A) (A) (A)
                 (A) (A) (A) (A) (A) (A) (A) (A) (A) (A) (A) (A)
                 (A) (A) (A) (A) (A) (A) (A) (A) (A) (A) (A) (A)
                 (A) (A) (A) (A) (A) (A) (A) (A) (A) (A) (A) (A)
                 (A) (A) (A) (A) (A) (A) (A) (A) (A) (A) (A) (A)
                 (A) (A) (A) (A) (A) (A) (A) (A) (A) (A) (A) (A)
                 (A) (A) (A) (A) (A) (A) (A) (A) (A) (A) (A) (A)
                 (A) (A) (A) (A) (A) (A) (A) (A) (A) (A) (A) (A)
                 (A) (A) (A) (A) (A) (A) (A) (A) (A) (A) (A) (A)
                 (A) (A) (A) (A) (A) (A) (A) (A) (A) (A) (A) (A)
                 (A) (A) (A) (A) (A) (A) (A) (A) (A) (A) (A) (A)
                 (A) (A) (A) (A) (A) (A) (A) (A) (A) (A) (A) (A)
                 (A) (A) (A) (A) (A) (A) (A) (A) (A) (A) (A) (A)
                 (A) (A) (A) (A) (A) (A) (A) (A) (A) (A) (A) (A)
                 (A) (A) (A) (A) (A) (A) (A) (A) (A) (A) (A) (A)
                 (A) (A) (A) (A) (A) (A) (A) (A) (A) (A) (A) (A)
                 (A) (A) (A) (A) (A) (A) (A) (A) (A) (A) (A) (A)
                 (A) (A) (A) (A) (A) (A) (A) (A) (A) (A) (A) (A)
                 (A) (A) (A) (A) (A) (A) (A) (A) (A) (A) (A) (A)
                 (A) (A) (A) (A) (A) (A) (A) (A) (A) (A) (A) (A)
                 (A) (A) (A) (A) (A) (A) (A) (A) (A) (A) (A) (A)
                 (A) (A) (A) (A) (A) (A) (A) (A) (A) (A) (A) (A)
                 (A) (A) (A) (A) (A) (A) (A) (A) (A) (A) (A) (A)
                 (A) (A) (A) (A) (A) (A) (A) (A) (A) (A) (A) (A)
                 (A) (A) (A) (A) (A) (A) (A) (A) (A) (A) (A) (A)
                 (A) (A) (A) (A) (A) (A) (A) (A) (A) (A) (A) (A)
                 (A) (A) (A) (A) (A) (A) (A) (A) (A) (A) (A) (A)
                 (A) (A) (A) (A) (A) (A) (A) (A) (A) (A) (A) (A)
                 (A) (A) (A) (A) (A) (A) (A) (A) (A) (A) (A) (A)
                 (A) (A) (A) (A) (A) (A) (A) (A) (A) (A) (A) (A)
                 (A) (A) (A) (A) (A) (A) (A) (A) (A) (A) (A) (A)
                 (A) (A) (A) (A) (A) (A) (A) (A) (A) (A) (A) (A)
                 (A) (A) (A) (A) (A) (A) (A) (A) (A) (A) (A) (A)
                 (A) (A) (A) (A) (A) (A) (A) (A) (A) (A) (A) (A)
                 (A) (A) (A) (A) (A) (A) (A) (A) (A) (A) (A) (A)
                 (A) (A) (A) (A) (A) (A) (A) (A) (A) (A) (A) (A)
                 (A) (A) (A) (A) (A) (A) (A) (A) (A) (A) (A) (A)
                 (A) (A) (A) (A) (A) (A) (A) (A) (A) (A) (A) (A)
                 (A) (A) (A) (A) (A) (A) (A) (A) (A) (A) (A) (A)
                 (A) (A) (A) (A) (A) (A) (A) (A) (A) (A) (A) (A)
                 (A) (A) (A) (A) (A) (A) (A) (A) (A) (A) (A) (A)
                 (A) (A) (A) (A) (A) (A) (A) (A) (A) (A) (A) (A)
                 (A) (A) (A) (A) (A) (A) (A) (A) (A) (A) (A) (A)
                 (A) (A) (A) (A) (A) (A) (A) (A) (A) (A) (A) (A)
                 (A) (A) (A) (A) (A) (A) (A) (A) (A) (A) (A) (A)
                 (A) (A) (A) (A) (A) (A) (A) (A) (A) (A) (A) (A)
                 (A) (A) (A) (A) (A) (A) (A) (A) (A) (A) (A) (A)
                 (A) (A) (A) (A) (A) (A) (A) (A) (A) (A) (A) (A)
                 (A) (A) (A) (A) (A) (A) (A) (A) (A) (A) (A) (A)
                 (A) (A) (A) (A) (A) (A) (A) (A) (A) (A) (A) (A)
                 (A) (A) (A) (A) (A) (A) (A) (A) (A) (A) (A) (A)
                 (A) (A) (A) (A) (A) (A) (A) (A) (A) (A) (A) (A)
                 (A) (A) (A) (A) (A) (A) (A) (A) (A) (A) (A) (A)
                 (A) (A) (A) (A) (A) (A) (A) (A) (A) (A) (A) (A)
                 (A) (A) (A) (A) (A) (A) (A) (A) (A) (A) (A) (A)
                 (A) (A) (A) (A) (A) (A) (A) (A) (A) (A) (A) (A)
                 (A) (A) (A) (A) (A) (A) (A) (A) (A) (A) (A) (A)
                 (A) (A) (A) (A) (A) (A) (A) (A) (A) (A) (A) (A)
                 (A) (A) (A) (A) (A) (A) (A) (A) (A) (A) (A) (A)
                 (A) (A) (A) (A) (A) (A) (A) (A) (A) (A) (A) (A)
                 (A) (A) (A) (A) (A) (A) (A) (A) (A) (A) (A) (A)
                 (A) (A) (A) (A) (A) (A) (A) (A) (A) (A) (A) (A)
                 (A) (A) (A) (A) (A) (A) (A) (A) (A) (A) (A) (A)
                 (A) (A) (A) (A) (A) (A) (A) (A) (A) (A) (A) (A)
                 (A) (A) (A) (A) (A) (A) (A) (A) (A) (A) (A) (A)
                 (A) (A) (A) (A) (A) (A) (A) (A) (A) (A) (A) (A)
                 (A) (A) (A) (A) (A) (A) (A) (A) (A) (A) (A) (A)
                 (A) (A) (A) (A) (A) (A) (A) (A) (A) (A) (A) (A)
                 (A) (A) (A) (A) (A) (A) (A) (A) (A) (A) (A) (A)
                 (A) (A) (A) (A) (A) (A) (A) (A) (A) (A) (A) (A)
                 (A) (A) (A) (A) (A) (A) (A) (A) (A) (A) (A) (A)
                 (A) (A) (A) (A) (A) (A) (A) (A) (A) (A) (A) (A)
                 (A) (A) (A) (A) (A) (A) (A) (A) (A) (A) (A) (A)
                 (A) (A) (A) (A) (A) (A) (A) (A) (A) (A) (A) (A)
                 (A) (A) (A) (A) (A) (A) (A) (A) (A) (A) (A) (A)
                 (A) (A) (A) (A) (A) (A) (A) (A) (A) (A) (A) (A)
                 (A) (A) (A) (A) (A) (A) (A) (A) (A) (A) (A) (A)
                 (A) (A) (A) (A) (A) (A) (A) (A) (A) (A) (A) (A)
                 (A) (A) (A) (A) (A) (A) (A) (A) (A) (A) (A) (A)
                 (A) (A) (A) (A) (A) (A) (A) (A) (A) (A) (A) (A)
                 (A) (A) (A) (A) (A) (A) (A) (A) (A) (A) (A) (A)
                 (A) (A) (A) (A) (A) (A) (A) (A) (A) (A) (A) (A)
                 (A) (A) (A) (A) (A) (A) (A) (A) (A) (A) (A) (A)
                 (A) (A) (A) (A) (A) (A) (A) (A) (A) (A) (A) (A)
                 (A) (A) (A) (A) (A) (A) (A) (A) (A) (A) (A) (A)
                 (A) (A) (A)
 The electronic state is 2-A.
 Alpha  occ. eigenvalues -- -256.50575 -30.29324 -26.12423 -26.11912 -26.10546
 Alpha  occ. eigenvalues --  -19.34961 -19.32960 -19.25217 -19.24695 -14.54818
 Alpha  occ. eigenvalues --  -14.54377 -14.50390 -14.50232 -14.48798 -14.48265
 Alpha  occ. eigenvalues --  -14.48256 -14.48168 -10.42874 -10.41992 -10.38741
 Alpha  occ. eigenvalues --  -10.38246 -10.36404 -10.36020 -10.35790 -10.35479
 Alpha  occ. eigenvalues --  -10.35226 -10.35099 -10.34860 -10.34806 -10.34700
 Alpha  occ. eigenvalues --  -10.34595 -10.34560 -10.33286 -10.32765 -10.32554
 Alpha  occ. eigenvalues --  -10.32193 -10.31801 -10.31766 -10.31734 -10.31731
 Alpha  occ. eigenvalues --  -10.31616 -10.31532 -10.31440 -10.31337 -10.31283
 Alpha  occ. eigenvalues --  -10.31250 -10.31133 -10.30931 -10.30851 -10.30841
 Alpha  occ. eigenvalues --  -10.30790 -10.30494 -10.30486 -10.30352 -10.29856
 Alpha  occ. eigenvalues --  -10.29814 -10.29677 -10.29574 -10.27137  -3.64825
 Alpha  occ. eigenvalues --   -2.41925  -2.40845  -2.38152  -1.25414  -1.23668
 Alpha  occ. eigenvalues --   -1.16390  -1.16080  -1.10209  -1.09542  -1.07997
 Alpha  occ. eigenvalues --   -1.07120  -1.06716  -1.05867  -1.01571  -1.01317
 Alpha  occ. eigenvalues --   -0.94971  -0.93771  -0.93152  -0.92695  -0.92419
 Alpha  occ. eigenvalues --   -0.90976  -0.90636  -0.90356  -0.90100  -0.88780
 Alpha  occ. eigenvalues --   -0.87811  -0.87452  -0.85486  -0.85121  -0.83251
 Alpha  occ. eigenvalues --   -0.82738  -0.81848  -0.81525  -0.81324  -0.80346
 Alpha  occ. eigenvalues --   -0.79060  -0.78862  -0.77352  -0.75690  -0.75180
 Alpha  occ. eigenvalues --   -0.75083  -0.74694  -0.73749  -0.73534  -0.71995
 Alpha  occ. eigenvalues --   -0.71753  -0.71541  -0.70901  -0.68779  -0.67593
 Alpha  occ. eigenvalues --   -0.66455  -0.66088  -0.65170  -0.64723  -0.64246
 Alpha  occ. eigenvalues --   -0.63537  -0.62443  -0.61605  -0.61473  -0.60288
 Alpha  occ. eigenvalues --   -0.59936  -0.59740  -0.59388  -0.59082  -0.58473
 Alpha  occ. eigenvalues --   -0.58212  -0.58149  -0.57853  -0.57695  -0.57558
 Alpha  occ. eigenvalues --   -0.57240  -0.56694  -0.56553  -0.55536  -0.55047
 Alpha  occ. eigenvalues --   -0.54563  -0.54544  -0.54322  -0.54070  -0.53669
 Alpha  occ. eigenvalues --   -0.53444  -0.53301  -0.53078  -0.52875  -0.52764
 Alpha  occ. eigenvalues --   -0.52390  -0.52212  -0.52135  -0.51828  -0.51768
 Alpha  occ. eigenvalues --   -0.51666  -0.51399  -0.51184  -0.51009  -0.50973
 Alpha  occ. eigenvalues --   -0.50455  -0.50252  -0.50146  -0.49973  -0.49743
 Alpha  occ. eigenvalues --   -0.49336  -0.48890  -0.48713  -0.48396  -0.47997
 Alpha  occ. eigenvalues --   -0.47957  -0.47564  -0.47057  -0.46797  -0.46665
 Alpha  occ. eigenvalues --   -0.46416  -0.46195  -0.46042  -0.45631  -0.45516
 Alpha  occ. eigenvalues --   -0.45113  -0.45021  -0.44527  -0.43938  -0.43650
 Alpha  occ. eigenvalues --   -0.42902  -0.42510  -0.42446  -0.41996  -0.41454
 Alpha  occ. eigenvalues --   -0.40537  -0.40424  -0.40323  -0.40049  -0.39736
 Alpha  occ. eigenvalues --   -0.39355  -0.37756  -0.37043  -0.35419  -0.34942
 Alpha  occ. eigenvalues --   -0.34556  -0.34263  -0.33761  -0.33519  -0.32935
 Alpha  occ. eigenvalues --   -0.32596  -0.32171  -0.29386  -0.28707  -0.28203
 Alpha virt. eigenvalues --   -0.17517  -0.16882  -0.15769  -0.12908  -0.11925
 Alpha virt. eigenvalues --   -0.09555  -0.08712  -0.08109  -0.07953  -0.07527
 Alpha virt. eigenvalues --   -0.07272  -0.06436  -0.06116  -0.05374  -0.05284
 Alpha virt. eigenvalues --   -0.04808  -0.04647  -0.04377  -0.03880  -0.03431
 Alpha virt. eigenvalues --   -0.03317  -0.02983  -0.02717  -0.02585  -0.01689
 Alpha virt. eigenvalues --   -0.01536  -0.01234  -0.00734  -0.00525  -0.00400
 Alpha virt. eigenvalues --   -0.00136   0.00203   0.00560   0.00925   0.01075
 Alpha virt. eigenvalues --    0.01598   0.01796   0.02133   0.02355   0.02539
 Alpha virt. eigenvalues --    0.02875   0.03030   0.03481   0.03633   0.03906
 Alpha virt. eigenvalues --    0.03999   0.04284   0.04473   0.04733   0.04838
 Alpha virt. eigenvalues --    0.05056   0.05274   0.05579   0.05773   0.05870
 Alpha virt. eigenvalues --    0.06241   0.06373   0.06480   0.06671   0.06983
 Alpha virt. eigenvalues --    0.07079   0.07154   0.07474   0.07631   0.07734
 Alpha virt. eigenvalues --    0.07896   0.08098   0.08214   0.08400   0.08493
 Alpha virt. eigenvalues --    0.08853   0.09202   0.09330   0.09467   0.09964
 Alpha virt. eigenvalues --    0.10144   0.10331   0.10466   0.10684   0.10937
 Alpha virt. eigenvalues --    0.11158   0.11322   0.11473   0.11580   0.11696
 Alpha virt. eigenvalues --    0.12008   0.12295   0.12351   0.12622   0.12894
 Alpha virt. eigenvalues --    0.13181   0.13299   0.13543   0.13710   0.13729
 Alpha virt. eigenvalues --    0.13891   0.14138   0.14227   0.14741   0.14814
 Alpha virt. eigenvalues --    0.15065   0.15108   0.15282   0.15440   0.15639
 Alpha virt. eigenvalues --    0.16140   0.16243   0.16491   0.16696   0.16871
 Alpha virt. eigenvalues --    0.17200   0.17276   0.17537   0.17756   0.18078
 Alpha virt. eigenvalues --    0.18151   0.18475   0.18522   0.18749   0.19207
 Alpha virt. eigenvalues --    0.19524   0.19713   0.19989   0.20102   0.20268
 Alpha virt. eigenvalues --    0.20462   0.20644   0.20943   0.21123   0.21329
 Alpha virt. eigenvalues --    0.21436   0.21558   0.21771   0.21922   0.22084
 Alpha virt. eigenvalues --    0.22464   0.22823   0.23093   0.23344   0.23405
 Alpha virt. eigenvalues --    0.23843   0.23921   0.24235   0.24296   0.24426
 Alpha virt. eigenvalues --    0.24848   0.25017   0.25222   0.25543   0.25660
 Alpha virt. eigenvalues --    0.25842   0.26023   0.26298   0.26718   0.26837
 Alpha virt. eigenvalues --    0.26909   0.27134   0.27476   0.27860   0.27939
 Alpha virt. eigenvalues --    0.28070   0.28259   0.28355   0.28715   0.28886
 Alpha virt. eigenvalues --    0.28973   0.29183   0.29454   0.29606   0.29870
 Alpha virt. eigenvalues --    0.29976   0.30039   0.30486   0.30803   0.30957
 Alpha virt. eigenvalues --    0.31271   0.31327   0.31551   0.31767   0.31927
 Alpha virt. eigenvalues --    0.31979   0.32181   0.32336   0.32543   0.32649
 Alpha virt. eigenvalues --    0.32778   0.33116   0.33292   0.33518   0.33652
 Alpha virt. eigenvalues --    0.33735   0.34053   0.34212   0.34288   0.34438
 Alpha virt. eigenvalues --    0.34629   0.34721   0.35071   0.35335   0.35451
 Alpha virt. eigenvalues --    0.35631   0.35758   0.36077   0.36179   0.36192
 Alpha virt. eigenvalues --    0.36360   0.36477   0.36677   0.36965   0.37214
 Alpha virt. eigenvalues --    0.37412   0.37454   0.37583   0.37605   0.37905
 Alpha virt. eigenvalues --    0.38116   0.38613   0.38648   0.38729   0.38860
 Alpha virt. eigenvalues --    0.39136   0.39178   0.39447   0.39514   0.39731
 Alpha virt. eigenvalues --    0.39914   0.39995   0.40111   0.40404   0.40655
 Alpha virt. eigenvalues --    0.40796   0.41013   0.41225   0.41412   0.41634
 Alpha virt. eigenvalues --    0.41725   0.42012   0.42271   0.42461   0.42525
 Alpha virt. eigenvalues --    0.42615   0.42873   0.43012   0.43284   0.43317
 Alpha virt. eigenvalues --    0.43691   0.43820   0.44023   0.44293   0.44441
 Alpha virt. eigenvalues --    0.44705   0.44932   0.45196   0.45273   0.45379
 Alpha virt. eigenvalues --    0.45510   0.45762   0.45989   0.46322   0.46484
 Alpha virt. eigenvalues --    0.46672   0.46735   0.46916   0.47121   0.47162
 Alpha virt. eigenvalues --    0.47418   0.47544   0.47734   0.47773   0.48363
 Alpha virt. eigenvalues --    0.48511   0.48534   0.48752   0.48898   0.49003
 Alpha virt. eigenvalues --    0.49330   0.49504   0.49680   0.49814   0.49938
 Alpha virt. eigenvalues --    0.49997   0.50176   0.50424   0.50551   0.51075
 Alpha virt. eigenvalues --    0.51287   0.51564   0.51697   0.51800   0.51977
 Alpha virt. eigenvalues --    0.52593   0.52675   0.52801   0.53071   0.53399
 Alpha virt. eigenvalues --    0.53784   0.53858   0.54016   0.54108   0.54447
 Alpha virt. eigenvalues --    0.54852   0.55198   0.55412   0.55648   0.56021
 Alpha virt. eigenvalues --    0.56340   0.56458   0.56481   0.56825   0.56953
 Alpha virt. eigenvalues --    0.57410   0.57582   0.57726   0.57811   0.58173
 Alpha virt. eigenvalues --    0.58454   0.58813   0.58861   0.59168   0.59217
 Alpha virt. eigenvalues --    0.59907   0.60151   0.60331   0.60568   0.60806
 Alpha virt. eigenvalues --    0.60840   0.61314   0.61662   0.61781   0.62036
 Alpha virt. eigenvalues --    0.62316   0.62467   0.63036   0.63384   0.63545
 Alpha virt. eigenvalues --    0.63731   0.64011   0.64521   0.64775   0.64898
 Alpha virt. eigenvalues --    0.65131   0.65187   0.65621   0.65830   0.65997
 Alpha virt. eigenvalues --    0.66393   0.66464   0.66793   0.67086   0.67330
 Alpha virt. eigenvalues --    0.67635   0.68135   0.68410   0.68513   0.68684
 Alpha virt. eigenvalues --    0.69015   0.69305   0.69625   0.69950   0.70194
 Alpha virt. eigenvalues --    0.70204   0.70716   0.70933   0.71276   0.71552
 Alpha virt. eigenvalues --    0.71815   0.72093   0.72497   0.72809   0.72844
 Alpha virt. eigenvalues --    0.73382   0.73506   0.73738   0.74095   0.74370
 Alpha virt. eigenvalues --    0.74606   0.74944   0.75227   0.75540   0.75705
 Alpha virt. eigenvalues --    0.76014   0.76215   0.76664   0.76731   0.76931
 Alpha virt. eigenvalues --    0.77338   0.77576   0.77904   0.78165   0.78482
 Alpha virt. eigenvalues --    0.78666   0.79080   0.79297   0.79595   0.79708
 Alpha virt. eigenvalues --    0.80177   0.80558   0.80916   0.81267   0.81480
 Alpha virt. eigenvalues --    0.81744   0.82296   0.82354   0.82569   0.83184
 Alpha virt. eigenvalues --    0.83300   0.83652   0.83859   0.83895   0.84212
 Alpha virt. eigenvalues --    0.84616   0.84844   0.84986   0.85125   0.85686
 Alpha virt. eigenvalues --    0.86067   0.86244   0.86512   0.86969   0.87134
 Alpha virt. eigenvalues --    0.87257   0.87415   0.87507   0.87904   0.88109
 Alpha virt. eigenvalues --    0.88372   0.88702   0.88907   0.89103   0.89526
 Alpha virt. eigenvalues --    0.89934   0.90254   0.90551   0.90647   0.91185
 Alpha virt. eigenvalues --    0.91258   0.91610   0.91660   0.91852   0.92421
 Alpha virt. eigenvalues --    0.92755   0.93007   0.93212   0.93766   0.93876
 Alpha virt. eigenvalues --    0.94148   0.94516   0.94741   0.95077   0.95273
 Alpha virt. eigenvalues --    0.95380   0.95731   0.95956   0.96120   0.96557
 Alpha virt. eigenvalues --    0.97022   0.97396   0.97537   0.97823   0.98349
 Alpha virt. eigenvalues --    0.98671   0.98702   0.98895   0.99132   0.99638
 Alpha virt. eigenvalues --    0.99790   1.00157   1.00691   1.01142   1.01392
 Alpha virt. eigenvalues --    1.01663   1.02033   1.02314   1.02610   1.02790
 Alpha virt. eigenvalues --    1.03396   1.03458   1.03759   1.03996   1.04067
 Alpha virt. eigenvalues --    1.04615   1.04817   1.05337   1.05412   1.06050
 Alpha virt. eigenvalues --    1.06216   1.06382   1.06450   1.06810   1.07373
 Alpha virt. eigenvalues --    1.07517   1.07714   1.07812   1.08124   1.08591
 Alpha virt. eigenvalues --    1.08726   1.09155   1.09660   1.09963   1.10097
 Alpha virt. eigenvalues --    1.10726   1.11082   1.11288   1.11353   1.11986
 Alpha virt. eigenvalues --    1.12187   1.12428   1.12774   1.13032   1.13299
 Alpha virt. eigenvalues --    1.13860   1.14085   1.14204   1.14864   1.15310
 Alpha virt. eigenvalues --    1.15605   1.16276   1.16407   1.16808   1.17106
 Alpha virt. eigenvalues --    1.17232   1.17572   1.17825   1.18214   1.18736
 Alpha virt. eigenvalues --    1.19003   1.19372   1.20047   1.20316   1.20505
 Alpha virt. eigenvalues --    1.20748   1.21494   1.21618   1.22114   1.22690
 Alpha virt. eigenvalues --    1.22889   1.23042   1.23331   1.23645   1.23869
 Alpha virt. eigenvalues --    1.24233   1.24658   1.24820   1.24936   1.25491
 Alpha virt. eigenvalues --    1.25818   1.26412   1.26719   1.27027   1.27212
 Alpha virt. eigenvalues --    1.27410   1.27886   1.28319   1.28506   1.28971
 Alpha virt. eigenvalues --    1.29185   1.29308   1.29913   1.30099   1.30423
 Alpha virt. eigenvalues --    1.30947   1.31309   1.31637   1.32173   1.32767
 Alpha virt. eigenvalues --    1.33138   1.33410   1.33951   1.34010   1.34735
 Alpha virt. eigenvalues --    1.35111   1.35510   1.35681   1.35979   1.36156
 Alpha virt. eigenvalues --    1.36299   1.36676   1.36938   1.37272   1.37632
 Alpha virt. eigenvalues --    1.38004   1.38486   1.38753   1.38925   1.39248
 Alpha virt. eigenvalues --    1.39338   1.39902   1.40097   1.40346   1.40660
 Alpha virt. eigenvalues --    1.40788   1.41368   1.41794   1.42327   1.42725
 Alpha virt. eigenvalues --    1.43234   1.43351   1.43590   1.43759   1.43967
 Alpha virt. eigenvalues --    1.44138   1.44583   1.44794   1.45089   1.45202
 Alpha virt. eigenvalues --    1.45489   1.45583   1.45670   1.45827   1.46629
 Alpha virt. eigenvalues --    1.46696   1.46801   1.47177   1.47477   1.47663
 Alpha virt. eigenvalues --    1.47984   1.48127   1.48319   1.48541   1.49017
 Alpha virt. eigenvalues --    1.49113   1.49344   1.49605   1.49984   1.50270
 Alpha virt. eigenvalues --    1.50582   1.50722   1.51214   1.51454   1.51595
 Alpha virt. eigenvalues --    1.51998   1.52165   1.52574   1.52744   1.52956
 Alpha virt. eigenvalues --    1.53338   1.53501   1.53792   1.53896   1.54134
 Alpha virt. eigenvalues --    1.54557   1.54818   1.54954   1.55084   1.55202
 Alpha virt. eigenvalues --    1.55582   1.55770   1.55967   1.56147   1.56523
 Alpha virt. eigenvalues --    1.56746   1.56946   1.57049   1.57410   1.57708
 Alpha virt. eigenvalues --    1.58035   1.58202   1.58756   1.59009   1.59094
 Alpha virt. eigenvalues --    1.59135   1.59547   1.59576   1.60041   1.60086
 Alpha virt. eigenvalues --    1.60539   1.60717   1.60828   1.61121   1.61146
 Alpha virt. eigenvalues --    1.61847   1.62043   1.62363   1.62447   1.62921
 Alpha virt. eigenvalues --    1.63277   1.63801   1.64046   1.64124   1.64716
 Alpha virt. eigenvalues --    1.64796   1.64992   1.65341   1.65474   1.65962
 Alpha virt. eigenvalues --    1.66217   1.66436   1.66631   1.67175   1.67705
 Alpha virt. eigenvalues --    1.68065   1.68219   1.68650   1.69199   1.69609
 Alpha virt. eigenvalues --    1.69886   1.70371   1.70679   1.71207   1.71298
 Alpha virt. eigenvalues --    1.71949   1.72108   1.72539   1.72781   1.73041
 Alpha virt. eigenvalues --    1.73333   1.73582   1.74070   1.74145   1.74774
 Alpha virt. eigenvalues --    1.74987   1.75277   1.75394   1.75534   1.75577
 Alpha virt. eigenvalues --    1.76070   1.76782   1.77104   1.77463   1.77546
 Alpha virt. eigenvalues --    1.77916   1.78430   1.78779   1.79085   1.79320
 Alpha virt. eigenvalues --    1.79732   1.80112   1.80456   1.80834   1.81175
 Alpha virt. eigenvalues --    1.81384   1.82062   1.82401   1.82514   1.82677
 Alpha virt. eigenvalues --    1.83884   1.84014   1.84358   1.85057   1.85399
 Alpha virt. eigenvalues --    1.85902   1.86167   1.86667   1.86991   1.87093
 Alpha virt. eigenvalues --    1.87362   1.87494   1.88372   1.88494   1.88727
 Alpha virt. eigenvalues --    1.89039   1.89283   1.89463   1.90117   1.90201
 Alpha virt. eigenvalues --    1.90348   1.90667   1.91158   1.91206   1.91359
 Alpha virt. eigenvalues --    1.92173   1.92456   1.92834   1.93136   1.93669
 Alpha virt. eigenvalues --    1.94106   1.94276   1.94407   1.94766   1.94888
 Alpha virt. eigenvalues --    1.95179   1.95400   1.95918   1.96835   1.97058
 Alpha virt. eigenvalues --    1.97224   1.98117   1.99033   1.99204   1.99368
 Alpha virt. eigenvalues --    1.99612   1.99932   2.00165   2.00539   2.00619
 Alpha virt. eigenvalues --    2.01244   2.01986   2.02254   2.02469   2.02820
 Alpha virt. eigenvalues --    2.03245   2.03387   2.03967   2.04121   2.04420
 Alpha virt. eigenvalues --    2.04889   2.05020   2.05175   2.05511   2.05570
 Alpha virt. eigenvalues --    2.06182   2.06352   2.06823   2.07278   2.07460
 Alpha virt. eigenvalues --    2.07723   2.07950   2.08525   2.08873   2.09286
 Alpha virt. eigenvalues --    2.09574   2.09688   2.09828   2.10236   2.10794
 Alpha virt. eigenvalues --    2.10980   2.11141   2.11442   2.11841   2.11881
 Alpha virt. eigenvalues --    2.12031   2.13198   2.13935   2.14072   2.14279
 Alpha virt. eigenvalues --    2.14439   2.14947   2.15084   2.15698   2.15864
 Alpha virt. eigenvalues --    2.16624   2.16954   2.17481   2.17711   2.18162
 Alpha virt. eigenvalues --    2.18711   2.18879   2.19194   2.19511   2.19875
 Alpha virt. eigenvalues --    2.20332   2.20785   2.21104   2.21576   2.21867
 Alpha virt. eigenvalues --    2.22220   2.22930   2.23228   2.23525   2.23844
 Alpha virt. eigenvalues --    2.24021   2.24786   2.24901   2.24988   2.25234
 Alpha virt. eigenvalues --    2.25688   2.26352   2.26971   2.27014   2.27390
 Alpha virt. eigenvalues --    2.27687   2.28080   2.28664   2.28869   2.29312
 Alpha virt. eigenvalues --    2.29764   2.30004   2.30138   2.30352   2.30366
 Alpha virt. eigenvalues --    2.30633   2.30927   2.31235   2.31403   2.32128
 Alpha virt. eigenvalues --    2.32330   2.32492   2.32900   2.33052   2.33755
 Alpha virt. eigenvalues --    2.33939   2.34248   2.34478   2.35126   2.35168
 Alpha virt. eigenvalues --    2.35408   2.35980   2.36090   2.36321   2.36861
 Alpha virt. eigenvalues --    2.37031   2.37580   2.37756   2.38152   2.38640
 Alpha virt. eigenvalues --    2.39352   2.39581   2.39996   2.40295   2.40663
 Alpha virt. eigenvalues --    2.40858   2.41780   2.41973   2.42459   2.42683
 Alpha virt. eigenvalues --    2.43110   2.43593   2.43951   2.44376   2.44572
 Alpha virt. eigenvalues --    2.44889   2.45087   2.45494   2.45950   2.46230
 Alpha virt. eigenvalues --    2.46751   2.46862   2.47359   2.47843   2.47939
 Alpha virt. eigenvalues --    2.48223   2.49087   2.49222   2.49466   2.49636
 Alpha virt. eigenvalues --    2.49710   2.49847   2.50608   2.51054   2.51203
 Alpha virt. eigenvalues --    2.51389   2.51583   2.51974   2.52243   2.52416
 Alpha virt. eigenvalues --    2.52744   2.53087   2.53606   2.53838   2.54361
 Alpha virt. eigenvalues --    2.54686   2.55108   2.55191   2.55534   2.55784
 Alpha virt. eigenvalues --    2.55888   2.56350   2.56467   2.57028   2.57462
 Alpha virt. eigenvalues --    2.57857   2.57951   2.58590   2.58855   2.59086
 Alpha virt. eigenvalues --    2.59397   2.59690   2.60195   2.60512   2.60733
 Alpha virt. eigenvalues --    2.60867   2.61201   2.61748   2.62047   2.62373
 Alpha virt. eigenvalues --    2.62700   2.63002   2.63336   2.63627   2.64203
 Alpha virt. eigenvalues --    2.64725   2.64774   2.65450   2.65539   2.65920
 Alpha virt. eigenvalues --    2.66136   2.66272   2.66424   2.67141   2.67559
 Alpha virt. eigenvalues --    2.67756   2.67920   2.68506   2.68788   2.68922
 Alpha virt. eigenvalues --    2.69319   2.69706   2.69732   2.70081   2.70648
 Alpha virt. eigenvalues --    2.70803   2.71331   2.71570   2.71847   2.72193
 Alpha virt. eigenvalues --    2.72508   2.72656   2.73130   2.73558   2.73923
 Alpha virt. eigenvalues --    2.74269   2.74591   2.75213   2.75325   2.75604
 Alpha virt. eigenvalues --    2.75981   2.76215   2.76285   2.76982   2.77064
 Alpha virt. eigenvalues --    2.77293   2.77559   2.78134   2.78344   2.78589
 Alpha virt. eigenvalues --    2.78791   2.79149   2.79218   2.79781   2.80129
 Alpha virt. eigenvalues --    2.80263   2.80772   2.80973   2.81333   2.81537
 Alpha virt. eigenvalues --    2.82116   2.82396   2.82488   2.82689   2.83055
 Alpha virt. eigenvalues --    2.83646   2.83855   2.83962   2.84291   2.84707
 Alpha virt. eigenvalues --    2.84849   2.85243   2.85346   2.85602   2.85765
 Alpha virt. eigenvalues --    2.86058   2.86256   2.86759   2.87027   2.87197
 Alpha virt. eigenvalues --    2.87572   2.87849   2.88348   2.88846   2.89105
 Alpha virt. eigenvalues --    2.89324   2.89633   2.89893   2.90368   2.90572
 Alpha virt. eigenvalues --    2.90812   2.91221   2.91259   2.91403   2.91762
 Alpha virt. eigenvalues --    2.92113   2.92585   2.92602   2.92925   2.93244
 Alpha virt. eigenvalues --    2.93367   2.93623   2.93944   2.94096   2.94375
 Alpha virt. eigenvalues --    2.94834   2.95223   2.95529   2.95941   2.96017
 Alpha virt. eigenvalues --    2.96433   2.96637   2.96821   2.97088   2.97123
 Alpha virt. eigenvalues --    2.97586   2.97876   2.98151   2.98287   2.98420
 Alpha virt. eigenvalues --    2.98762   2.99017   2.99277   2.99598   2.99742
 Alpha virt. eigenvalues --    3.00224   3.00740   3.00803   3.00996   3.01424
 Alpha virt. eigenvalues --    3.01741   3.02051   3.02118   3.02249   3.02579
 Alpha virt. eigenvalues --    3.02840   3.03230   3.03511   3.03717   3.03990
 Alpha virt. eigenvalues --    3.04251   3.04391   3.04530   3.04837   3.05088
 Alpha virt. eigenvalues --    3.05387   3.05747   3.06156   3.06770   3.07031
 Alpha virt. eigenvalues --    3.07128   3.07152   3.07526   3.07683   3.08207
 Alpha virt. eigenvalues --    3.08264   3.08504   3.08834   3.09125   3.09512
 Alpha virt. eigenvalues --    3.09600   3.10123   3.10212   3.10546   3.10699
 Alpha virt. eigenvalues --    3.10799   3.11243   3.11291   3.11635   3.12012
 Alpha virt. eigenvalues --    3.12087   3.12512   3.12751   3.13044   3.13316
 Alpha virt. eigenvalues --    3.13637   3.13806   3.13898   3.14323   3.14640
 Alpha virt. eigenvalues --    3.15113   3.15128   3.15397   3.15954   3.16195
 Alpha virt. eigenvalues --    3.16427   3.16620   3.16739   3.16867   3.17085
 Alpha virt. eigenvalues --    3.17295   3.17552   3.17837   3.17868   3.18177
 Alpha virt. eigenvalues --    3.18636   3.18890   3.18982   3.19159   3.19419
 Alpha virt. eigenvalues --    3.19737   3.19990   3.20369   3.20866   3.20909
 Alpha virt. eigenvalues --    3.21224   3.21377   3.21545   3.21813   3.22317
 Alpha virt. eigenvalues --    3.22456   3.22690   3.22816   3.23005   3.23283
 Alpha virt. eigenvalues --    3.23503   3.23714   3.24086   3.24128   3.24506
 Alpha virt. eigenvalues --    3.24729   3.24862   3.25141   3.25479   3.25631
 Alpha virt. eigenvalues --    3.26005   3.26239   3.26756   3.26796   3.26903
 Alpha virt. eigenvalues --    3.27161   3.27440   3.27720   3.27887   3.28221
 Alpha virt. eigenvalues --    3.28563   3.28793   3.29044   3.29305   3.29476
 Alpha virt. eigenvalues --    3.29832   3.30066   3.30399   3.30461   3.31022
 Alpha virt. eigenvalues --    3.31141   3.31459   3.31730   3.31926   3.32168
 Alpha virt. eigenvalues --    3.32472   3.32809   3.32987   3.33174   3.33359
 Alpha virt. eigenvalues --    3.33646   3.33975   3.34239   3.34470   3.34637
 Alpha virt. eigenvalues --    3.34895   3.35262   3.35351   3.35479   3.35925
 Alpha virt. eigenvalues --    3.36092   3.36437   3.36602   3.36787   3.37196
 Alpha virt. eigenvalues --    3.37424   3.37653   3.37948   3.38279   3.38481
 Alpha virt. eigenvalues --    3.39218   3.39430   3.39524   3.39793   3.40052
 Alpha virt. eigenvalues --    3.40312   3.41203   3.41285   3.41598   3.41699
 Alpha virt. eigenvalues --    3.42088   3.42332   3.42609   3.43046   3.43284
 Alpha virt. eigenvalues --    3.43559   3.43789   3.43957   3.44156   3.44615
 Alpha virt. eigenvalues --    3.45073   3.45321   3.45503   3.46126   3.46567
 Alpha virt. eigenvalues --    3.46681   3.47232   3.47442   3.47657   3.47878
 Alpha virt. eigenvalues --    3.48480   3.48645   3.49257   3.49478   3.49694
 Alpha virt. eigenvalues --    3.49899   3.50164   3.50375   3.50622   3.51152
 Alpha virt. eigenvalues --    3.51212   3.51662   3.51935   3.52501   3.52631
 Alpha virt. eigenvalues --    3.53382   3.53496   3.54048   3.54256   3.54419
 Alpha virt. eigenvalues --    3.54961   3.55250   3.55538   3.55921   3.56151
 Alpha virt. eigenvalues --    3.56348   3.57143   3.57437   3.57677   3.57800
 Alpha virt. eigenvalues --    3.58015   3.58570   3.59218   3.59413   3.59806
 Alpha virt. eigenvalues --    3.59927   3.60375   3.60671   3.60817   3.61191
 Alpha virt. eigenvalues --    3.61394   3.62123   3.62401   3.63110   3.63331
 Alpha virt. eigenvalues --    3.63574   3.63676   3.63923   3.64451   3.64635
 Alpha virt. eigenvalues --    3.65230   3.65571   3.66182   3.66213   3.66579
 Alpha virt. eigenvalues --    3.66709   3.67093   3.67539   3.68011   3.68188
 Alpha virt. eigenvalues --    3.68642   3.68788   3.69263   3.69487   3.69690
 Alpha virt. eigenvalues --    3.70182   3.70463   3.71326   3.71866   3.72501
 Alpha virt. eigenvalues --    3.72908   3.73277   3.73562   3.74298   3.74518
 Alpha virt. eigenvalues --    3.74885   3.74919   3.76124   3.76602   3.77111
 Alpha virt. eigenvalues --    3.77184   3.77644   3.78199   3.78582   3.78958
 Alpha virt. eigenvalues --    3.79459   3.79953   3.80303   3.80651   3.80949
 Alpha virt. eigenvalues --    3.81850   3.82296   3.82523   3.82556   3.83160
 Alpha virt. eigenvalues --    3.83509   3.84500   3.84672   3.85182   3.85715
 Alpha virt. eigenvalues --    3.86344   3.86911   3.87417   3.87977   3.88263
 Alpha virt. eigenvalues --    3.89135   3.89429   3.89927   3.90223   3.90607
 Alpha virt. eigenvalues --    3.91321   3.91474   3.92980   3.93346   3.93688
 Alpha virt. eigenvalues --    3.94285   3.94483   3.94740   3.95124   3.95564
 Alpha virt. eigenvalues --    3.95839   3.96231   3.96823   3.97609   3.98081
 Alpha virt. eigenvalues --    3.98481   3.99161   3.99741   4.00021   4.00631
 Alpha virt. eigenvalues --    4.00856   4.01921   4.02369   4.03505   4.03751
 Alpha virt. eigenvalues --    4.04496   4.04682   4.05401   4.06149   4.06431
 Alpha virt. eigenvalues --    4.06733   4.06978   4.07529   4.07711   4.08118
 Alpha virt. eigenvalues --    4.08774   4.09628   4.09823   4.10331   4.10538
 Alpha virt. eigenvalues --    4.11220   4.11558   4.11896   4.12085   4.12776
 Alpha virt. eigenvalues --    4.13279   4.13454   4.13849   4.14154   4.14643
 Alpha virt. eigenvalues --    4.15061   4.15632   4.16347   4.16535   4.16874
 Alpha virt. eigenvalues --    4.17445   4.17756   4.18070   4.18517   4.18885
 Alpha virt. eigenvalues --    4.19649   4.19832   4.20659   4.20888   4.21474
 Alpha virt. eigenvalues --    4.22162   4.22386   4.22496   4.22615   4.23314
 Alpha virt. eigenvalues --    4.23807   4.24227   4.24889   4.25312   4.25503
 Alpha virt. eigenvalues --    4.26220   4.27102   4.27903   4.28543   4.28753
 Alpha virt. eigenvalues --    4.29345   4.29657   4.30176   4.30829   4.31464
 Alpha virt. eigenvalues --    4.32027   4.32388   4.33040   4.33323   4.34034
 Alpha virt. eigenvalues --    4.34335   4.34872   4.35125   4.35961   4.36929
 Alpha virt. eigenvalues --    4.37375   4.38205   4.38497   4.40018   4.40444
 Alpha virt. eigenvalues --    4.40721   4.41229   4.41452   4.41807   4.42365
 Alpha virt. eigenvalues --    4.42833   4.43767   4.44574   4.44989   4.45896
 Alpha virt. eigenvalues --    4.46249   4.47307   4.47504   4.48395   4.48838
 Alpha virt. eigenvalues --    4.49393   4.49652   4.50248   4.50985   4.51516
 Alpha virt. eigenvalues --    4.52779   4.53142   4.53378   4.53692   4.54103
 Alpha virt. eigenvalues --    4.54731   4.54878   4.56221   4.56406   4.57134
 Alpha virt. eigenvalues --    4.58250   4.58587   4.59568   4.59713   4.60387
 Alpha virt. eigenvalues --    4.61530   4.61842   4.62279   4.63447   4.63906
 Alpha virt. eigenvalues --    4.64269   4.64662   4.65005   4.66194   4.66628
 Alpha virt. eigenvalues --    4.67031   4.67170   4.67774   4.68096   4.68287
 Alpha virt. eigenvalues --    4.68734   4.69383   4.70214   4.70276   4.70761
 Alpha virt. eigenvalues --    4.71644   4.72137   4.72870   4.73102   4.73805
 Alpha virt. eigenvalues --    4.73884   4.74735   4.75238   4.75923   4.76305
 Alpha virt. eigenvalues --    4.76394   4.77203   4.77474   4.78585   4.79766
 Alpha virt. eigenvalues --    4.80294   4.81011   4.81243   4.82250   4.82780
 Alpha virt. eigenvalues --    4.83428   4.83840   4.84166   4.84431   4.85012
 Alpha virt. eigenvalues --    4.85336   4.86316   4.87647   4.87928   4.88169
 Alpha virt. eigenvalues --    4.88576   4.89581   4.89837   4.90308   4.90793
 Alpha virt. eigenvalues --    4.92303   4.92806   4.93177   4.93758   4.93822
 Alpha virt. eigenvalues --    4.94776   4.96110   4.96992   4.97088   4.98046
 Alpha virt. eigenvalues --    4.98736   5.00105   5.00974   5.02449   5.02931
 Alpha virt. eigenvalues --    5.04204   5.04622   5.05224   5.05785   5.08021
 Alpha virt. eigenvalues --    5.08653   5.09037   5.09752   5.10755   5.11410
 Alpha virt. eigenvalues --    5.11694   5.12956   5.13314   5.13574   5.13737
 Alpha virt. eigenvalues --    5.14779   5.15081   5.15221   5.15662   5.15864
 Alpha virt. eigenvalues --    5.16784   5.17908   5.18165   5.18723   5.19938
 Alpha virt. eigenvalues --    5.20301   5.21257   5.22568   5.23455   5.24437
 Alpha virt. eigenvalues --    5.24803   5.25550   5.26063   5.26802   5.27130
 Alpha virt. eigenvalues --    5.28174   5.28552   5.29237   5.30809   5.31677
 Alpha virt. eigenvalues --    5.33470   5.33795   5.34310   5.34832   5.35447
 Alpha virt. eigenvalues --    5.35931   5.37270   5.37940   5.38625   5.39165
 Alpha virt. eigenvalues --    5.40631   5.41178   5.41605   5.42160   5.42685
 Alpha virt. eigenvalues --    5.43372   5.45388   5.46902   5.47228   5.49987
 Alpha virt. eigenvalues --    5.50530   5.50617   5.51747   5.51893   5.52813
 Alpha virt. eigenvalues --    5.53659   5.54538   5.56116   5.57220   5.57512
 Alpha virt. eigenvalues --    5.58209   5.58841   5.59200   5.60122   5.61230
 Alpha virt. eigenvalues --    5.62431   5.63683   5.66591   5.68778   5.70532
 Alpha virt. eigenvalues --    5.72532   5.73010   5.74748   5.77668   5.81068
 Alpha virt. eigenvalues --    5.84357   5.85218   5.85875   5.86695   5.88341
 Alpha virt. eigenvalues --    5.90498   5.91072   5.91847   5.93776   5.96632
 Alpha virt. eigenvalues --    5.96753   5.97564   5.98290   5.99306   6.00608
 Alpha virt. eigenvalues --    6.02426   6.03041   6.06785   6.07575   6.08290
 Alpha virt. eigenvalues --    6.09196   6.10074   6.10384   6.16346   6.17032
 Alpha virt. eigenvalues --    6.20235   6.21021   6.21851   6.22462   6.24682
 Alpha virt. eigenvalues --    6.28301   6.32245   6.33468   6.40506   6.41007
 Alpha virt. eigenvalues --    6.42883   6.43205   6.47659   6.60239   6.60647
 Alpha virt. eigenvalues --    6.69634   6.70620   6.78927   6.80746   6.83093
 Alpha virt. eigenvalues --    6.88298   6.92952   6.94684   7.06339   7.07080
 Alpha virt. eigenvalues --    7.11717   7.13354   7.19330   7.28809  22.32347
 Alpha virt. eigenvalues --   22.32798  22.34584  22.44369  22.45788  22.47872
 Alpha virt. eigenvalues --   22.47946  22.52044  22.56154  22.57319  22.64079
 Alpha virt. eigenvalues --   22.65300  22.67688  22.73803  22.74853  22.75581
 Alpha virt. eigenvalues --   22.78679  22.81968  22.86882  22.88951  22.91029
 Alpha virt. eigenvalues --   22.94723  22.98606  23.00529  23.04298  23.07065
 Alpha virt. eigenvalues --   23.12300  23.14862  23.16562  23.21227  23.24221
 Alpha virt. eigenvalues --   23.29408  23.33045  23.43813  23.45124  23.51232
 Alpha virt. eigenvalues --   23.52377  23.53008  23.64766  23.68665  23.68892
 Alpha virt. eigenvalues --   23.76747  32.34949  32.37923  32.68860  32.77689
 Alpha virt. eigenvalues --   32.82426  32.93733  33.04165  33.32802  43.88747
 Alpha virt. eigenvalues --   43.89434  43.90087  44.00898
  Beta  occ. eigenvalues -- -256.50542 -30.27098 -26.10126 -26.09979 -26.09172
  Beta  occ. eigenvalues --  -19.34961 -19.32960 -19.25217 -19.24695 -14.54813
  Beta  occ. eigenvalues --  -14.54372 -14.50473 -14.50319 -14.48860 -14.48320
  Beta  occ. eigenvalues --  -14.48316 -14.48221 -10.42874 -10.41992 -10.38729
  Beta  occ. eigenvalues --  -10.38232 -10.36387 -10.36012 -10.35792 -10.35473
  Beta  occ. eigenvalues --  -10.35229 -10.35099 -10.34845 -10.34806 -10.34688
  Beta  occ. eigenvalues --  -10.34595 -10.34557 -10.33285 -10.32766 -10.32559
  Beta  occ. eigenvalues --  -10.32193 -10.31805 -10.31773 -10.31742 -10.31734
  Beta  occ. eigenvalues --  -10.31617 -10.31514 -10.31446 -10.31343 -10.31281
  Beta  occ. eigenvalues --  -10.31251 -10.31113 -10.30933 -10.30855 -10.30814
  Beta  occ. eigenvalues --  -10.30788 -10.30495 -10.30486 -10.30354 -10.29857
  Beta  occ. eigenvalues --  -10.29814 -10.29673 -10.29575 -10.27132  -3.59371
  Beta  occ. eigenvalues --   -2.34807  -2.34595  -2.33906  -1.25414  -1.23668
  Beta  occ. eigenvalues --   -1.16405  -1.16096  -1.10209  -1.09542  -1.08022
  Beta  occ. eigenvalues --   -1.07149  -1.06733  -1.05887  -1.01627  -1.01376
  Beta  occ. eigenvalues --   -0.94970  -0.93761  -0.93150  -0.92684  -0.92408
  Beta  occ. eigenvalues --   -0.90983  -0.90638  -0.90364  -0.90102  -0.88788
  Beta  occ. eigenvalues --   -0.87817  -0.87449  -0.85489  -0.85136  -0.83264
  Beta  occ. eigenvalues --   -0.82732  -0.81851  -0.81522  -0.81328  -0.80347
  Beta  occ. eigenvalues --   -0.79067  -0.78867  -0.77359  -0.75684  -0.75187
  Beta  occ. eigenvalues --   -0.75121  -0.74738  -0.73751  -0.73534  -0.72000
  Beta  occ. eigenvalues --   -0.71760  -0.71547  -0.70901  -0.68769  -0.67588
  Beta  occ. eigenvalues --   -0.66465  -0.66101  -0.65172  -0.64728  -0.64255
  Beta  occ. eigenvalues --   -0.63538  -0.62459  -0.61616  -0.61478  -0.60284
  Beta  occ. eigenvalues --   -0.59928  -0.59741  -0.59390  -0.59063  -0.58454
  Beta  occ. eigenvalues --   -0.58208  -0.58154  -0.57868  -0.57615  -0.57567
  Beta  occ. eigenvalues --   -0.57182  -0.56696  -0.56547  -0.55540  -0.55048
  Beta  occ. eigenvalues --   -0.54544  -0.54516  -0.54316  -0.54062  -0.53589
  Beta  occ. eigenvalues --   -0.53399  -0.53279  -0.53048  -0.52875  -0.52769
  Beta  occ. eigenvalues --   -0.52306  -0.52168  -0.52155  -0.51828  -0.51748
  Beta  occ. eigenvalues --   -0.51606  -0.51346  -0.51179  -0.51018  -0.50947
  Beta  occ. eigenvalues --   -0.50358  -0.50140  -0.50085  -0.49949  -0.49737
  Beta  occ. eigenvalues --   -0.49253  -0.48855  -0.48660  -0.48312  -0.47939
  Beta  occ. eigenvalues --   -0.47874  -0.47534  -0.46998  -0.46870  -0.46552
  Beta  occ. eigenvalues --   -0.46355  -0.46010  -0.45754  -0.45398  -0.45152
  Beta  occ. eigenvalues --   -0.45082  -0.44636  -0.43922  -0.43584  -0.42955
  Beta  occ. eigenvalues --   -0.42556  -0.42468  -0.42132  -0.41801  -0.41116
  Beta  occ. eigenvalues --   -0.40466  -0.40294  -0.39669  -0.38906  -0.37596
  Beta  occ. eigenvalues --   -0.37122  -0.36548  -0.35424  -0.34904  -0.34640
  Beta  occ. eigenvalues --   -0.34271  -0.33872  -0.33613  -0.33120  -0.32583
  Beta  occ. eigenvalues --   -0.31840  -0.29439  -0.28707  -0.28136
  Beta virt. eigenvalues --   -0.18984  -0.17414  -0.15057  -0.13289  -0.11781
  Beta virt. eigenvalues --   -0.10453  -0.09352  -0.08525  -0.08062  -0.07815
  Beta virt. eigenvalues --   -0.07272  -0.07151  -0.06432  -0.06086  -0.05363
  Beta virt. eigenvalues --   -0.05282  -0.04803  -0.04642  -0.04358  -0.03688
  Beta virt. eigenvalues --   -0.03429  -0.03288  -0.02979  -0.02699  -0.02525
  Beta virt. eigenvalues --   -0.01649  -0.01476  -0.01230  -0.00720  -0.00521
  Beta virt. eigenvalues --   -0.00330  -0.00117   0.00217   0.00599   0.00935
  Beta virt. eigenvalues --    0.01080   0.01623   0.01808   0.02140   0.02384
  Beta virt. eigenvalues --    0.02547   0.02902   0.03035   0.03489   0.03643
  Beta virt. eigenvalues --    0.03914   0.04004   0.04291   0.04485   0.04756
  Beta virt. eigenvalues --    0.04849   0.05060   0.05302   0.05589   0.05793
  Beta virt. eigenvalues --    0.05881   0.06246   0.06380   0.06480   0.06686
  Beta virt. eigenvalues --    0.06997   0.07092   0.07156   0.07481   0.07638
  Beta virt. eigenvalues --    0.07740   0.07899   0.08114   0.08217   0.08406
  Beta virt. eigenvalues --    0.08495   0.08870   0.09227   0.09348   0.09472
  Beta virt. eigenvalues --    0.09968   0.10149   0.10334   0.10470   0.10689
  Beta virt. eigenvalues --    0.10941   0.11178   0.11326   0.11475   0.11581
  Beta virt. eigenvalues --    0.11707   0.12020   0.12307   0.12359   0.12629
  Beta virt. eigenvalues --    0.12904   0.13192   0.13308   0.13552   0.13726
  Beta virt. eigenvalues --    0.13795   0.13909   0.14154   0.14232   0.14745
  Beta virt. eigenvalues --    0.14826   0.15076   0.15110   0.15302   0.15456
  Beta virt. eigenvalues --    0.15649   0.16145   0.16260   0.16504   0.16724
  Beta virt. eigenvalues --    0.16891   0.17220   0.17297   0.17561   0.17768
  Beta virt. eigenvalues --    0.18086   0.18171   0.18486   0.18528   0.18753
  Beta virt. eigenvalues --    0.19210   0.19525   0.19737   0.19995   0.20122
  Beta virt. eigenvalues --    0.20292   0.20477   0.20654   0.20947   0.21136
  Beta virt. eigenvalues --    0.21355   0.21449   0.21597   0.21786   0.21957
  Beta virt. eigenvalues --    0.22110   0.22466   0.22832   0.23103   0.23353
  Beta virt. eigenvalues --    0.23422   0.23850   0.23975   0.24264   0.24301
  Beta virt. eigenvalues --    0.24430   0.24852   0.25107   0.25298   0.25560
  Beta virt. eigenvalues --    0.25672   0.25845   0.26043   0.26379   0.26750
  Beta virt. eigenvalues --    0.26844   0.26960   0.27146   0.27487   0.27883
  Beta virt. eigenvalues --    0.27980   0.28101   0.28279   0.28405   0.28724
  Beta virt. eigenvalues --    0.28904   0.28981   0.29194   0.29523   0.29615
  Beta virt. eigenvalues --    0.29881   0.30012   0.30065   0.30518   0.30826
  Beta virt. eigenvalues --    0.31006   0.31294   0.31390   0.31611   0.31835
  Beta virt. eigenvalues --    0.31970   0.32009   0.32220   0.32373   0.32556
  Beta virt. eigenvalues --    0.32671   0.32837   0.33120   0.33327   0.33530
  Beta virt. eigenvalues --    0.33682   0.33760   0.34110   0.34225   0.34307
  Beta virt. eigenvalues --    0.34477   0.34655   0.34737   0.35083   0.35342
  Beta virt. eigenvalues --    0.35464   0.35691   0.35777   0.36133   0.36194
  Beta virt. eigenvalues --    0.36201   0.36392   0.36490   0.36719   0.37023
  Beta virt. eigenvalues --    0.37240   0.37439   0.37464   0.37609   0.37643
  Beta virt. eigenvalues --    0.37929   0.38130   0.38644   0.38683   0.38746
  Beta virt. eigenvalues --    0.38870   0.39142   0.39189   0.39454   0.39519
  Beta virt. eigenvalues --    0.39753   0.39922   0.40001   0.40120   0.40421
  Beta virt. eigenvalues --    0.40676   0.40803   0.41028   0.41258   0.41430
  Beta virt. eigenvalues --    0.41653   0.41751   0.42021   0.42287   0.42488
  Beta virt. eigenvalues --    0.42534   0.42614   0.42889   0.43017   0.43291
  Beta virt. eigenvalues --    0.43334   0.43732   0.43841   0.44043   0.44332
  Beta virt. eigenvalues --    0.44442   0.44715   0.44944   0.45224   0.45297
  Beta virt. eigenvalues --    0.45395   0.45529   0.45771   0.46002   0.46368
  Beta virt. eigenvalues --    0.46490   0.46681   0.46756   0.46922   0.47128
  Beta virt. eigenvalues --    0.47172   0.47429   0.47592   0.47749   0.47789
  Beta virt. eigenvalues --    0.48371   0.48519   0.48546   0.48779   0.48914
  Beta virt. eigenvalues --    0.49023   0.49343   0.49506   0.49685   0.49818
  Beta virt. eigenvalues --    0.49954   0.50020   0.50185   0.50447   0.50564
  Beta virt. eigenvalues --    0.51089   0.51293   0.51644   0.51708   0.51809
  Beta virt. eigenvalues --    0.51998   0.52633   0.52688   0.52817   0.53083
  Beta virt. eigenvalues --    0.53422   0.53808   0.53880   0.54082   0.54156
  Beta virt. eigenvalues --    0.54471   0.54864   0.55213   0.55419   0.55682
[...]
              Bcc     0.0029     0.389     0.139     0.130 -0.0696  0.9487 -0.3085
 
              Baa    -0.0102    -1.372    -0.489    -0.458  0.8276  0.5484  0.1199
    37 C(13)  Bbb     0.0007     0.089     0.032     0.030 -0.4801  0.8021 -0.3552
              Bcc     0.0096     1.283     0.458     0.428 -0.2909  0.2364  0.9271
 
              Baa    -0.0023    -0.302    -0.108    -0.101  0.5445  0.6478 -0.5328
    38 C(13)  Bbb     0.0001     0.018     0.006     0.006  0.7231 -0.6844 -0.0932
              Bcc     0.0021     0.284     0.101     0.095  0.4250  0.3345  0.8411
 
              Baa    -0.0009    -0.123    -0.044    -0.041  0.9188  0.3740  0.1263
    39 C(13)  Bbb     0.0001     0.007     0.002     0.002 -0.2013  0.1686  0.9649
              Bcc     0.0009     0.116     0.041     0.039 -0.3396  0.9120 -0.2302
 
              Baa    -0.0017    -0.231    -0.082    -0.077 -0.2876  0.1802  0.9406
    40 C(13)  Bbb     0.0002     0.031     0.011     0.010  0.9112  0.3540  0.2108
              Bcc     0.0015     0.200     0.071     0.067 -0.2950  0.9177 -0.2660
 
              Baa    -0.0102    -1.365    -0.487    -0.455 -0.6426  0.7180 -0.2675
    41 C(13)  Bbb     0.0003     0.035     0.012     0.012  0.6465  0.6955  0.3136
              Bcc     0.0099     1.330     0.475     0.444 -0.4112 -0.0286  0.9111
 
              Baa    -0.0023    -0.311    -0.111    -0.104  0.8170 -0.3001  0.4924
    42 C(13)  Bbb     0.0001     0.008     0.003     0.003 -0.3203  0.4739  0.8203
              Bcc     0.0023     0.303     0.108     0.101  0.4795  0.8279 -0.2911
 
              Baa    -0.0099    -1.334    -0.476    -0.445 -0.4005  0.8977 -0.1837
    43 C(13)  Bbb    -0.0054    -0.719    -0.256    -0.240  0.8883  0.4296  0.1626
              Bcc     0.0153     2.052     0.732     0.685 -0.2249  0.0981  0.9694
 
              Baa    -0.0065    -0.867    -0.309    -0.289 -0.1344  0.0392  0.9902
    44 C(13)  Bbb    -0.0050    -0.676    -0.241    -0.225 -0.2307  0.9705 -0.0698
              Bcc     0.0115     1.543     0.551     0.515  0.9637  0.2378  0.1213
 
              Baa    -0.0006    -0.080    -0.029    -0.027  0.1557 -0.0660  0.9856
    45 C(13)  Bbb    -0.0004    -0.054    -0.019    -0.018  0.7891 -0.5919 -0.1643
              Bcc     0.0010     0.134     0.048     0.045  0.5942  0.8033 -0.0401
 
              Baa    -0.0010    -0.135    -0.048    -0.045 -0.2448  0.9345 -0.2584
    46 C(13)  Bbb    -0.0004    -0.055    -0.020    -0.018 -0.2570  0.1944  0.9467
              Bcc     0.0014     0.190     0.068     0.063  0.9349  0.2981  0.1926
 
              Baa    -0.0011    -0.150    -0.054    -0.050 -0.3197  0.8852 -0.3379
    47 C(13)  Bbb    -0.0007    -0.096    -0.034    -0.032  0.3029  0.4334  0.8488
              Bcc     0.0018     0.246     0.088     0.082  0.8978  0.1690 -0.4067
 
              Baa    -0.0004    -0.054    -0.019    -0.018 -0.2737  0.8320 -0.4825
    48 C(13)  Bbb    -0.0004    -0.050    -0.018    -0.017 -0.1865  0.4462  0.8753
              Bcc     0.0008     0.104     0.037     0.035  0.9436  0.3295  0.0330
 
              Baa    -0.0004     0.030     0.011     0.010 -0.3914  0.8810 -0.2656
    49 O(17)  Bbb    -0.0004     0.028     0.010     0.009  0.0551  0.3106  0.9490
              Bcc     0.0008    -0.057    -0.020    -0.019  0.9186  0.3568 -0.1701
 
              Baa    -0.0004     0.030     0.011     0.010 -0.3783  0.8205  0.4286
    50 O(17)  Bbb    -0.0003     0.023     0.008     0.008  0.1310 -0.4109  0.9022
              Bcc     0.0007    -0.053    -0.019    -0.018  0.9164  0.3974  0.0480
 
              Baa    -0.0076    -0.292    -0.104    -0.098 -0.3606  0.9079  0.2139
    51 N(14)  Bbb     0.0029     0.113     0.040     0.038  0.9220  0.3816 -0.0652
              Bcc     0.0046     0.179     0.064     0.060  0.1408 -0.1737  0.9747
 
              Baa    -0.0038    -0.148    -0.053    -0.049  0.3190  0.9417  0.1069
    52 N(14)  Bbb     0.0013     0.048     0.017     0.016  0.8513 -0.3343  0.4043
              Bcc     0.0026     0.099     0.035     0.033 -0.4165  0.0380  0.9083
 
              Baa    -0.0074    -0.287    -0.102    -0.096  0.3264 -0.6569  0.6797
    53 N(14)  Bbb     0.0017     0.064     0.023     0.021 -0.3006  0.6096  0.7335
              Bcc     0.0058     0.223     0.079     0.074  0.8961  0.4438 -0.0015
 
              Baa    -0.0103    -0.397    -0.142    -0.132  0.6522  0.7451  0.1398
    54 N(14)  Bbb     0.0038     0.147     0.052     0.049  0.7386 -0.6661  0.1040
              Bcc     0.0065     0.250     0.089     0.083 -0.1705 -0.0354  0.9847
 
              Baa    -1.2184   -21.093    -7.527    -7.036 -0.0832  0.9711 -0.2237
    55 Fe(57) Bbb     0.1913     3.313     1.182     1.105  0.9784  0.1222  0.1666
              Bcc     1.0270    17.781     6.345     5.931 -0.1891  0.2050  0.9603
 
              Baa    -0.0008    -0.404    -0.144    -0.135  0.1187  0.9570  0.2647
    56 H(1)   Bbb    -0.0007    -0.388    -0.139    -0.130  0.9406 -0.1938  0.2789
              Bcc     0.0015     0.793     0.283     0.264 -0.3182 -0.2158  0.9231
 
              Baa    -0.0006    -0.333    -0.119    -0.111  0.9845 -0.0991  0.1445
    57 H(1)   Bbb    -0.0006    -0.301    -0.107    -0.100  0.0913  0.9940  0.0600
              Bcc     0.0012     0.633     0.226     0.211 -0.1496 -0.0459  0.9877
 
              Baa    -0.0006    -0.346    -0.123    -0.115  0.7526 -0.5601  0.3463
    58 H(1)   Bbb    -0.0006    -0.303    -0.108    -0.101  0.5195  0.8282  0.2104
              Bcc     0.0012     0.649     0.231     0.216 -0.4046  0.0216  0.9142
 
              Baa    -0.0043    -2.289    -0.817    -0.763 -0.1128  0.9007  0.4194
    59 H(1)   Bbb    -0.0040    -2.117    -0.755    -0.706  0.9559 -0.0168  0.2932
              Bcc     0.0083     4.406     1.572     1.470 -0.2712 -0.4340  0.8591
 
              Baa    -0.0034    -1.792    -0.639    -0.598  0.4573 -0.5371  0.7088
    60 H(1)   Bbb    -0.0031    -1.672    -0.597    -0.558  0.8892  0.2908 -0.3533
              Bcc     0.0065     3.464     1.236     1.155 -0.0164  0.7918  0.6105
 
              Baa    -0.0007    -0.388    -0.139    -0.129  0.5208  0.7404 -0.4250
    61 H(1)   Bbb    -0.0007    -0.365    -0.130    -0.122  0.8402 -0.3564  0.4087
              Bcc     0.0014     0.753     0.269     0.251 -0.1511  0.5699  0.8077
 
              Baa    -0.0006    -0.327    -0.117    -0.109  0.7316 -0.5871  0.3466
    62 H(1)   Bbb    -0.0005    -0.290    -0.104    -0.097  0.6674  0.7205 -0.1883
              Bcc     0.0012     0.618     0.220     0.206 -0.1392  0.3691  0.9189
 
              Baa    -0.0007    -0.357    -0.127    -0.119  0.9224  0.0869  0.3764
    63 H(1)   Bbb    -0.0006    -0.320    -0.114    -0.107  0.0902  0.8990 -0.4286
              Bcc     0.0013     0.677     0.242     0.226 -0.3756  0.4293  0.8214
 
              Baa    -0.0041    -2.194    -0.783    -0.732 -0.2966 -0.6632  0.6872
    64 H(1)   Bbb    -0.0037    -1.998    -0.713    -0.666  0.9357 -0.0579  0.3479
              Bcc     0.0079     4.192     1.496     1.398 -0.1909  0.7462  0.6377
 
              Baa    -0.0036    -1.909    -0.681    -0.637  0.7327  0.5316  0.4249
    65 H(1)   Bbb    -0.0033    -1.776    -0.634    -0.593 -0.6695  0.6753  0.3095
              Bcc     0.0069     3.685     1.315     1.229 -0.1224 -0.5112  0.8507
 
              Baa    -0.0017    -0.901    -0.322    -0.301 -0.1777  0.1091  0.9780
    66 H(1)   Bbb    -0.0011    -0.612    -0.218    -0.204  0.1542  0.9846 -0.0818
              Bcc     0.0028     1.513     0.540     0.505  0.9719 -0.1363  0.1918
 
              Baa    -0.0016    -0.868    -0.310    -0.290 -0.1822  0.2119  0.9601
    67 H(1)   Bbb    -0.0014    -0.730    -0.260    -0.243  0.9730 -0.1016  0.2071
              Bcc     0.0030     1.598     0.570     0.533  0.1415  0.9720 -0.1877
 
              Baa    -0.0017    -0.891    -0.318    -0.297 -0.2418  0.2740  0.9308
    68 H(1)   Bbb    -0.0012    -0.638    -0.228    -0.213  0.1768  0.9557 -0.2354
              Bcc     0.0029     1.529     0.546     0.510  0.9541 -0.1076  0.2796
 
              Baa    -0.0015    -0.820    -0.293    -0.273 -0.2020  0.1904  0.9607
    69 H(1)   Bbb    -0.0014    -0.729    -0.260    -0.243  0.9664 -0.1204  0.2271
              Bcc     0.0029     1.549     0.553     0.517  0.1589  0.9743 -0.1597
 
              Baa    -0.0008    -0.407    -0.145    -0.136  0.4567  0.1717  0.8729
    70 H(1)   Bbb    -0.0007    -0.371    -0.132    -0.124  0.8613  0.1601 -0.4822
              Bcc     0.0015     0.778     0.278     0.260 -0.2225  0.9721 -0.0748
 
              Baa    -0.0006    -0.320    -0.114    -0.107 -0.6569 -0.1630  0.7362
    71 H(1)   Bbb    -0.0006    -0.297    -0.106    -0.099  0.6420  0.3912  0.6594
              Bcc     0.0012     0.617     0.220     0.206 -0.3955  0.9058 -0.1524
 
              Baa    -0.0007    -0.376    -0.134    -0.125 -0.4071  0.2133  0.8882
    72 H(1)   Bbb    -0.0006    -0.315    -0.112    -0.105  0.8784  0.3579  0.3167
              Bcc     0.0013     0.691     0.247     0.231 -0.2503  0.9091 -0.3330
 
              Baa    -0.0007    -0.373    -0.133    -0.124  0.7275  0.6402 -0.2468
    73 H(1)   Bbb    -0.0006    -0.336    -0.120    -0.112  0.0554  0.3037  0.9512
              Bcc     0.0013     0.708     0.253     0.236 -0.6838  0.7057 -0.1855
 
              Baa    -0.0008    -0.444    -0.158    -0.148 -0.3139 -0.0192  0.9493
    74 H(1)   Bbb    -0.0007    -0.362    -0.129    -0.121  0.3789  0.9142  0.1437
              Bcc     0.0015     0.806     0.288     0.269  0.8706 -0.4048  0.2797
 
              Baa    -0.0005    -0.244    -0.087    -0.081  0.4821  0.7855  0.3881
    75 H(1)   Bbb    -0.0004    -0.217    -0.078    -0.072 -0.1722 -0.3494  0.9210
              Bcc     0.0009     0.461     0.165     0.154  0.8590 -0.5108 -0.0332
 
              Baa    -0.0008    -0.448    -0.160    -0.149  0.2944  0.4264  0.8553
    76 H(1)   Bbb    -0.0006    -0.332    -0.118    -0.111  0.2659  0.8231 -0.5019
              Bcc     0.0015     0.780     0.278     0.260  0.9179 -0.3752 -0.1290
 
              Baa    -0.0007    -0.349    -0.125    -0.116  0.0427 -0.1427  0.9888
    77 H(1)   Bbb    -0.0005    -0.293    -0.105    -0.098  0.8256 -0.5523 -0.1154
              Bcc     0.0012     0.642     0.229     0.214  0.5626  0.8213  0.0942
 
              Baa    -0.0008    -0.415    -0.148    -0.138 -0.6516  0.3110  0.6919
    78 H(1)   Bbb    -0.0007    -0.399    -0.143    -0.133  0.6371 -0.2707  0.7217
              Bcc     0.0015     0.814     0.291     0.272  0.4118  0.9110 -0.0217
 
              Baa    -0.0007    -0.372    -0.133    -0.124 -0.2124  0.3574  0.9095
    79 H(1)   Bbb    -0.0005    -0.293    -0.104    -0.098  0.7874 -0.4886  0.3759
              Bcc     0.0012     0.665     0.237     0.222  0.5787  0.7959 -0.1776
 
              Baa    -0.0008    -0.418    -0.149    -0.139 -0.2937  0.9083 -0.2979
    80 H(1)   Bbb    -0.0007    -0.389    -0.139    -0.130 -0.5143  0.1126  0.8502
              Bcc     0.0015     0.807     0.288     0.269  0.8058  0.4029  0.4340
 
              Baa    -0.0007    -0.380    -0.136    -0.127 -0.1877  0.6982 -0.6909
    81 H(1)   Bbb    -0.0005    -0.264    -0.094    -0.088 -0.0320  0.6986  0.7148
              Bcc     0.0012     0.644     0.230     0.215  0.9817  0.1563 -0.1087
 
              Baa    -0.0004    -0.235    -0.084    -0.078 -0.1487 -0.1798  0.9724
    82 H(1)   Bbb    -0.0004    -0.220    -0.078    -0.073 -0.2560  0.9568  0.1377
              Bcc     0.0009     0.455     0.162     0.152  0.9552  0.2285  0.1883
 
              Baa    -0.0007    -0.398    -0.142    -0.133  0.6776  0.6796 -0.2810
    83 H(1)   Bbb    -0.0005    -0.246    -0.088    -0.082 -0.0152  0.3950  0.9186
              Bcc     0.0012     0.644     0.230     0.215  0.7353 -0.6181  0.2780
 
              Baa    -0.0012    -0.625    -0.223    -0.209  0.5259  0.8240  0.2111
    84 H(1)   Bbb    -0.0006    -0.346    -0.123    -0.115 -0.2209 -0.1073  0.9694
              Bcc     0.0018     0.971     0.346     0.324  0.8214 -0.5564  0.1256
 
              Baa    -0.0011    -0.592    -0.211    -0.198 -0.1338  0.5245  0.8409
    85 H(1)   Bbb    -0.0005    -0.260    -0.093    -0.087  0.7130  0.6402 -0.2858
              Bcc     0.0016     0.852     0.304     0.284  0.6882 -0.5613  0.4596
 
              Baa    -0.0007    -0.387    -0.138    -0.129 -0.6137  0.1045  0.7826
    86 H(1)   Bbb    -0.0007    -0.381    -0.136    -0.127  0.7755  0.2661  0.5726
              Bcc     0.0014     0.767     0.274     0.256 -0.1484  0.9583 -0.2443
 
              Baa    -0.0005    -0.285    -0.102    -0.095  0.7983  0.5649  0.2090
    87 H(1)   Bbb    -0.0004    -0.236    -0.084    -0.079 -0.3354  0.1287  0.9332
              Bcc     0.0010     0.522     0.186     0.174 -0.5003  0.8151 -0.2922
 
              Baa    -0.0003    -0.171    -0.061    -0.057 -0.3358  0.1489  0.9301
    88 H(1)   Bbb    -0.0003    -0.149    -0.053    -0.050  0.8439  0.4862  0.2269
              Bcc     0.0006     0.321     0.114     0.107 -0.4184  0.8611 -0.2889
 
              Baa    -0.0006    -0.339    -0.121    -0.113 -0.5910  0.4913  0.6398
    89 H(1)   Bbb    -0.0006    -0.304    -0.109    -0.101  0.4873 -0.4146  0.7685
              Bcc     0.0012     0.643     0.229     0.214  0.6428  0.7660  0.0056
 
              Baa    -0.0007    -0.384    -0.137    -0.128  0.2778 -0.0807  0.9573
    90 H(1)   Bbb    -0.0007    -0.355    -0.127    -0.118  0.8322 -0.4776 -0.2817
              Bcc     0.0014     0.738     0.263     0.246  0.4800  0.8748 -0.0655
 
              Baa    -0.0008    -0.402    -0.143    -0.134 -0.2981 -0.0559  0.9529
    91 H(1)   Bbb    -0.0006    -0.333    -0.119    -0.111  0.8125 -0.5388  0.2226
              Bcc     0.0014     0.735     0.262     0.245  0.5010  0.8406  0.2060
 
              Baa    -0.0009    -0.465    -0.166    -0.155 -0.2386  0.0561  0.9695
    92 H(1)   Bbb    -0.0007    -0.389    -0.139    -0.130 -0.0982  0.9918 -0.0816
              Bcc     0.0016     0.854     0.305     0.285  0.9661  0.1147  0.2312
 
              Baa    -0.0007    -0.383    -0.137    -0.128 -0.2352 -0.0932  0.9675
    93 H(1)   Bbb    -0.0007    -0.365    -0.130    -0.122 -0.4671  0.8837 -0.0285
              Bcc     0.0014     0.747     0.267     0.249  0.8523  0.4586  0.2514
 
              Baa    -0.0007    -0.365    -0.130    -0.122 -0.2674  0.7599  0.5925
    94 H(1)   Bbb    -0.0005    -0.273    -0.097    -0.091  0.4492 -0.4457  0.7743
              Bcc     0.0012     0.638     0.228     0.213  0.8525  0.4732 -0.2221
 
              Baa    -0.0007    -0.383    -0.137    -0.128  0.2315 -0.5684  0.7895
    95 H(1)   Bbb    -0.0005    -0.275    -0.098    -0.092 -0.0028  0.8112  0.5848
              Bcc     0.0012     0.658     0.235     0.220  0.9728  0.1376 -0.1862
 
              Baa    -0.0002    -0.130    -0.046    -0.043 -0.3270  0.7718 -0.5453
    96 H(1)   Bbb    -0.0002    -0.114    -0.041    -0.038  0.0713  0.5955  0.8002
              Bcc     0.0005     0.244     0.087     0.081  0.9423  0.2228 -0.2498
 
              Baa    -0.0004    -0.213    -0.076    -0.071 -0.4510 -0.5539  0.6998
    97 H(1)   Bbb    -0.0004    -0.202    -0.072    -0.067  0.7251  0.2297  0.6492
              Bcc     0.0008     0.416     0.148     0.139 -0.5204  0.8002  0.2981
 
              Baa    -0.0014    -0.721    -0.257    -0.241  0.3468  0.8329 -0.4313
    98 H(1)   Bbb    -0.0010    -0.532    -0.190    -0.177  0.9227 -0.2204  0.3164
              Bcc     0.0023     1.253     0.447     0.418 -0.1685  0.5077  0.8449
 
              Baa    -0.0014    -0.730    -0.260    -0.243 -0.0347  0.9903  0.1344
    99 H(1)   Bbb    -0.0010    -0.540    -0.193    -0.180  0.9849  0.0110  0.1728
              Bcc     0.0024     1.270     0.453     0.424 -0.1696 -0.1384  0.9757
 

 ---------------------------------------------------------------------------------

 1\1\GINC-NODE868\SP\UPBE1PBE\def2TZVP\C42H44Fe1N8O4(1+,2)\KLEICH\16-Oc
 t-2022\0\\# PBE1PBE/def2TZVP empiricaldispersion=GD3BJ int=(grid=ultra
 fine) geom=check guess=read scrf=(smd,solvent=Chloroform)\\1es1_III_D_
 solv\\1,2\C,0,10.389,7.264,-0.33\C,0,10.259,5.837,-0.756\N,0,9.134,5.0
 66,-0.552\C,0,11.151,5.032,-1.386\C,0,9.377,3.851,-1.051\N,0,10.59,3.7
 86,-1.567\C,0,15.294,-1.376,-4.837\C,0,14.155,-0.842,-4.034\N,0,13.153
 ,-1.622,-3.506\C,0,13.828,0.437,-3.727\C,0,12.272,-0.809,-2.914\N,0,12
 .643,0.45,-3.024\C,0,10.604,2.74,-5.477\C,0,14.465,4.118,-2.957\C,0,13
 .023,1.409,0.762\C,0,8.949,0.248,-1.643\C,0,11.847,3.243,-5.138\C,0,12
 .689,3.98,-6.045\C,0,13.741,4.42,-5.313\C,0,13.553,3.927,-3.964\C,0,14
 .926,5.206,-5.829\C,0,12.516,4.197,-7.544\C,0,12.704,2.938,-8.38\C,0,1
 4.03,2.26,-8.115\O,0,15.081,2.905,-8.307\O,0,14.021,1.08,-7.709\C,0,14
 .378,3.519,-1.705\C,0,15.454,3.576,-0.732\C,0,15.067,2.779,0.297\C,0,1
 3.74,2.28,-0.026\C,0,16.767,4.356,-0.901\C,0,15.891,2.344,1.32\C,0,15.
 811,2.826,2.613\C,0,11.803,0.824,0.411\C,0,11.068,-0.079,1.279\C,0,9.8
 94,-0.389,0.647\C,0,9.929,0.33,-0.627\C,0,11.49,-0.455,2.707\C,0,8.843
 ,-1.203,1.073\C,0,8.724,-1.87,2.298\C,0,9.038,0.896,-2.887\C,0,8.005,0
 .907,-3.919\C,0,8.492,1.577,-4.993\C,0,9.801,2.015,-4.623\C,0,6.58,0.3
 99,-3.808\C,0,7.791,1.784,-6.337\C,0,7.888,0.521,-7.174\C,0,6.983,0.55
 4,-8.391\O,0,6.894,-0.478,-9.09\O,0,6.357,1.606,-8.646\N,0,12.403,3.17
 3,-3.862\N,0,13.341,2.706,-1.291\N,0,11.114,1.069,-0.755\N,0,10.119,1.
 648,-3.315\Fe,0,11.722,2.174,-2.311\H,0,11.39301548,7.59530484,-0.4945
 9044\H,0,9.71568828,7.86922777,-0.90030753\H,0,10.15134638,7.34887162,
 0.70981612\H,0,12.13475414,5.31903192,-1.6937994\H,0,8.68088072,3.0385
 6669,-1.03456622\H,0,16.12537355,-0.70615757,-4.76608356\H,0,15.576774
 29,-2.33661723,-4.45996785\H,0,14.99647121,-1.4680826,-5.86066861\H,0,
 14.40076373,1.3017994,-3.98960941\H,0,11.38334878,-1.13758422,-2.41677
 629\H,0,10.24220082,2.92579471,-6.46668767\H,0,15.29388273,4.76755728,
 -3.14654883\H,0,13.43167283,1.15988615,1.71898945\H,0,8.08093901,-0.34
 767135,-1.45183054\H,0,15.83157875,4.76053392,-5.47349037\H,0,14.92068
 971,5.19801828,-6.89895705\H,0,14.86393187,6.21541865,-5.47954108\H,0,
 13.30389399,4.85992132,-7.83496116\H,0,11.49510642,4.48705096,-7.68018
 638\H,0,12.7334206,3.26008784,-9.39994796\H,0,11.94937887,2.25147381,-
 8.05731015\H,0,17.57858644,3.776441,-0.5132645\H,0,16.93363033,4.55312
 077,-1.93940153\H,0,16.70312161,5.28160954,-0.36802109\H,0,16.62586767
 ,1.59821028,1.09939356\H,0,15.08553266,3.5720822,2.86191462\H,0,16.474
 53864,2.4530382,3.36500796\H,0,10.92579482,-0.809282,3.54429134\H,0,10
 .90915833,0.41913513,2.91535244\H,0,11.21262451,-1.42145384,2.34103579
 \H,0,8.03498904,-1.33202301,0.38352821\H,0,9.49755029,-1.78263903,3.03
 208992\H,0,7.85949217,-2.46718181,2.50023771\H,0,6.21394285,0.14807279
 ,-4.78162092\H,0,6.55871955,-0.46999403,-3.1840637\H,0,5.96216789,1.16
 058706,-3.38001795\H,0,8.34176467,2.53970743,-6.85706207\H,0,6.7530930
 8,1.93072391,-6.12224124\H,0,7.52444511,-0.27299895,-6.55570112\H,0,8.
 88931937,0.49072568,-7.54995609\H,0,7.68908665,-0.92343443,-9.39170413
 \H,0,15.93354949,2.48202666,-8.18109166\H,0,8.28782269,5.36325904,-0.1
 0970934\H,0,13.09388415,-2.61900255,-3.55591233\\Version=AM64L-G16RevA
 .03\State=2-A\HF=-3627.4360698\S2=0.851739\S2-1=0.\S2A=0.751698\RMSD=2
 .086e-09\Dipole=0.5771235,-0.2717075,0.808216\Quadrupole=-9.4784918,15
 .0530908,-5.574599,8.9731185,-45.1702346,13.8499069\PG=C01 [X(C42H44Fe
 1N8O4)]\\@


 MARY HAD A LITTLE LAMB
      HIS FEET WERE BLACK AS SOOT,
           AND EVERYWHERE THAT MARY WENT
                HIS SOOTY FOOT HE PUT.

                    -- NONAME
 Job cpu time:       6 days  8 hours 34 minutes 33.6 seconds.
 Elapsed time:       1 days 14 hours 15 minutes 40.6 seconds.
 File lengths (MBytes):  RWF=   4466 Int=      0 D2E=      0 Chk=    317 Scr=      1
 Normal termination of Gaussian 16 at Sun Oct 16 16:18:29 2022.
